chitosan Film  in water:acetic acid 2%
15641
    1CHTO  H203    1   5.771   6.948   2.303
    1CHTO   O82    2   5.841   6.925   2.245
    1CHTO  C123    3   5.963   6.905   2.317
    1CHTO  H227    4   5.977   6.989   2.387
    1CHTO   O77    5   5.939   6.782   2.392
    1CHTO  C118    6   6.047   6.742   2.477
    1CHTO  H222    7   6.072   6.824   2.546
    1CHTO  C125    8   6.000   6.617   2.563
    1CHTO   O84    9   5.964   6.505   2.481
    1CHTO  H205   10   5.887   6.525   2.431
    1CHTO  C114   11   6.171   6.710   2.390
    1CHTO  H218   12   6.144   6.632   2.319
    1CHTO  C116   13   6.211   6.836   2.307
    1CHTO  H220   14   6.247   6.916   2.377
    1CHTO   O79   15   6.324   6.801   2.224
    1CHTO  H201   16   6.355   6.877   2.179
    1CHTO  C120   17   6.088   6.888   2.223
    1CHTO  H224   18   6.067   6.810   2.146
    1CHTO   N21   19   6.121   7.014   2.150
    1CHTO  H211   20   6.033   7.075   2.135
    1CHTO  H212   21   6.167   6.991   2.055
    1CHTO   O75   22   6.273   6.663   2.480
    1CHTO  C112   23   6.345   6.523   2.428
    1CHTO  H216   24   6.333   6.515   2.319
    1CHTO   O73   25   6.282   6.413   2.497
    1CHTO  C113   26   6.328   6.284   2.457
    1CHTO  H217   27   6.312   6.272   2.348
    1CHTO  C124   28   6.240   6.179   2.527
    1CHTO   O83   29   6.261   6.046   2.477
    1CHTO  H204   30   6.347   6.017   2.500
    1CHTO  C109   31   6.479   6.267   2.490
    1CHTO  H213   32   6.488   6.269   2.600
    1CHTO  C110   33   6.561   6.384   2.427
    1CHTO  H214   34   6.562   6.370   2.319
    1CHTO   O78   35   6.698   6.375   2.472
    1CHTO  H200   36   6.703   6.384   2.565
    1CHTO  C111   37   6.499   6.523   2.462
    1CHTO  H215   38   6.510   6.540   2.571
    1CHTO   N19   39   6.567   6.636   2.394
    1CHTO  H207   40   6.523   6.730   2.424
    1CHTO  H208   41   6.560   6.625   2.287
    1CHTO   O74   42   6.528   6.138   2.440
    1CHTO  C115   43   6.624   6.058   2.543
    1CHTO  H219   44   6.628   6.108   2.641
    1CHTO   O76   45   6.569   5.911   2.575
    1CHTO  C122   46   6.559   5.824   2.461
    1CHTO  H226   47   6.461   5.837   2.416
    1CHTO  C126   48   6.565   5.675   2.511
    1CHTO   O85   49   6.461   5.641   2.603
    1CHTO  H206   50   6.378   5.641   2.559
    1CHTO  C121   51   6.673   5.847   2.352
    1CHTO  H225   52   6.701   5.750   2.309
    1CHTO   O81   53   6.625   5.926   2.243
    1CHTO  H202   54   6.555   5.882   2.199
    1CHTO  C119   55   6.799   5.909   2.420
    1CHTO  H223   56   6.822   5.842   2.503
    1CHTO  C117   57   6.769   6.052   2.480
    1CHTO  H221   58   6.771   6.133   2.407
    1CHTO   N20   59   6.875   6.090   2.580
    1CHTO  H209   60   6.856   6.190   2.617
    1CHTO  H210   61   6.972   6.086   2.534
    1CHTO   O80   62   6.933   5.898   2.332
    1CHTO  C103   63   7.032   5.778   2.358
    1CHTO  H190   64   7.027   5.747   2.462
    1CHTO  C101   65   7.011   5.651   2.267
    1CHTO  H188   66   7.007   5.682   2.162
    1CHTO   O68   67   6.876   5.584   2.303
    1CHTO  H168   68   6.878   5.553   2.392
    1CHTO   C99   69   7.131   5.546   2.283
    1CHTO  H186   70   7.126   5.504   2.384
    1CHTO   N17   71   7.125   5.430   2.189
    1CHTO  H174   72   7.030   5.380   2.199
    1CHTO  H175   73   7.140   5.465   2.087
    1CHTO   C97   74   7.269   5.618   2.276
    1CHTO  H184   75   7.289   5.648   2.172
    1CHTO   O64   76   7.273   5.730   2.366
    1CHTO  C104   77   7.179   5.833   2.334
    1CHTO  H191   78   7.188   5.866   2.230
    1CHTO  C108   79   7.214   5.955   2.420
    1CHTO   O71   80   7.154   6.075   2.371
    1CHTO  H171   81   7.061   6.072   2.383
    1CHTO   O62   82   7.375   5.535   2.329
    1CHTO   C91   83   7.495   5.518   2.250
    1CHTO  H178   84   7.466   5.507   2.145
    1CHTO   C92   85   7.556   5.381   2.295
    1CHTO  H179   86   7.555   5.377   2.405
    1CHTO   O66   87   7.464   5.278   2.251
    1CHTO  H166   88   7.492   5.195   2.284
    1CHTO   C93   89   7.701   5.355   2.240
    1CHTO  H180   90   7.694   5.344   2.131
    1CHTO   N16   91   7.763   5.230   2.290
    1CHTO  H172   92   7.862   5.218   2.249
    1CHTO  H173   93   7.701   5.146   2.265
    1CHTO   C94   94   7.790   5.481   2.272
    1CHTO  H181   95   7.798   5.499   2.379
    1CHTO   O61   96   7.731   5.597   2.211
    1CHTO   C95   97   7.602   5.635   2.262
    1CHTO  H182   98   7.612   5.663   2.367
    1CHTO  C106   99   7.559   5.763   2.183
    1CHTO   O69  100   7.648   5.873   2.208
    1CHTO  H169  101   7.620   5.947   2.159
    1CHTO   O63  102   7.935   5.467   2.207
    1CHTO   C96  103   8.042   5.554   2.277
    1CHTO  H183  104   7.994   5.644   2.315
    1CHTO   C98  105   8.158   5.598   2.181
    1CHTO  H185  106   8.116   5.653   2.095
    1CHTO   O67  107   8.242   5.692   2.249
    1CHTO  H167  108   8.281   5.653   2.325
    1CHTO  C102  109   8.247   5.473   2.134
    1CHTO  H189  110   8.347   5.514   2.113
    1CHTO   N18  111   8.202   5.411   2.008
    1CHTO  H176  112   8.203   5.484   1.928
    1CHTO  H177  113   8.267   5.328   1.982
    1CHTO  C105  114   8.259   5.370   2.250
    1CHTO  H192  115   8.184   5.291   2.237
    1CHTO   O65  116   8.237   5.428   2.380
    1CHTO  C100  117   8.101   5.470   2.400
    1CHTO  H187  118   8.040   5.379   2.412
    1CHTO  C107  119   8.091   5.548   2.534
    1CHTO   O70  120   8.171   5.666   2.536
    1CHTO  H170  121   8.160   5.710   2.618
    1CHTO   O57  122   8.409   5.306   2.235
    1CHTO   C85  123   8.417   5.164   2.219
    1CHTO  H157  124   8.315   5.130   2.190
    1CHTO   C83  125   8.447   5.095   2.355
    1CHTO  H155  126   8.371   5.129   2.427
    1CHTO   O56  127   8.574   5.140   2.407
    1CHTO  H135  128   8.588   5.105   2.492
    1CHTO   C81  129   8.433   4.941   2.337
    1CHTO  H153  130   8.330   4.921   2.306
    1CHTO   N14  131   8.446   4.868   2.466
    1CHTO  H141  132   8.519   4.790   2.459
    1CHTO  H142  133   8.352   4.825   2.495
    1CHTO   C79  134   8.528   4.888   2.222
    1CHTO  H151  135   8.494   4.788   2.197
    1CHTO   O52  136   8.516   4.967   2.099
    1CHTO   C86  137   8.526   5.112   2.117
    1CHTO  H158  138   8.630   5.128   2.154
    1CHTO   C90  139   8.519   5.180   1.979
    1CHTO   O60  140   8.549   5.320   1.985
    1CHTO  H138  141   8.639   5.333   2.007
    1CHTO   O50  142   8.667   4.880   2.259
    1CHTO   C73  143   8.751   4.781   2.197
    1CHTO  H145  144   8.716   4.759   2.095
    1CHTO   C74  145   8.751   4.648   2.279
    1CHTO  H146  146   8.646   4.615   2.285
    1CHTO   O54  147   8.820   4.548   2.203
    1CHTO  H133  148   8.911   4.570   2.195
    1CHTO   C75  149   8.812   4.675   2.422
    1CHTO  H147  150   8.749   4.749   2.474
    1CHTO   N13  151   8.815   4.555   2.509
    1CHTO  H139  152   8.715   4.518   2.523
    1CHTO  H140  153   8.857   4.580   2.605
    1CHTO   C76  154   8.957   4.741   2.405
    1CHTO  H148  155   9.021   4.666   2.357
    1CHTO   O49  156   8.952   4.859   2.318
    1CHTO   C77  157   8.897   4.836   2.188
    1CHTO  H149  158   8.959   4.764   2.134
    1CHTO   C88  159   8.906   4.967   2.109
    1CHTO   O58  160   8.851   4.952   1.974
    1CHTO  H136  161   8.861   5.033   1.927
    1CHTO   O51  162   9.020   4.793   2.549
    1CHTO   C78  163   8.959   4.932   2.611
    1CHTO  H150  164   8.860   4.956   2.566
    1CHTO   C80  165   9.055   5.051   2.587
    1CHTO  H152  166   9.157   5.020   2.618
    1CHTO   O55  167   9.059   5.078   2.446
    1CHTO  H134  168   9.100   5.007   2.400
    1CHTO   C84  169   9.013   5.180   2.669
    1CHTO  H156  170   8.917   5.214   2.630
    1CHTO   N15  171   9.111   5.293   2.655
    1CHTO  H143  172   9.192   5.266   2.590
    1CHTO  H144  173   9.062   5.380   2.615
    1CHTO   C87  174   8.994   5.140   2.818
    1CHTO  H159  175   9.089   5.106   0.017
    1CHTO   O53  176   8.893   5.031   2.825
    1CHTO   C82  177   8.938   4.910   2.763
    1CHTO  H154  178   9.031   4.877   2.809
    1CHTO   C89  179   8.832   4.800   2.791
    1CHTO   O59  180   8.702   4.834   2.743
    1CHTO  H137  181   8.701   4.835   2.650
    1CHTO   O45  182   8.940   5.262   0.077
    1CHTO   C67  183   8.840   5.356   0.034
    1CHTO  H124  184   8.875   5.408   2.787
    1CHTO   C65  185   8.699   5.292   0.002
    1CHTO  H122  186   8.713   5.184   0.005
    1CHTO   O44  187   8.662   5.329   2.710
    1CHTO  H102  188   8.641   5.421   2.707
    1CHTO   C63  189   8.594   5.323   0.114
    1CHTO  H120  190   8.632   5.285   0.209
    1CHTO   N11  191   8.463   5.251   0.104
    1CHTO  H108  192   8.480   5.145   0.096
    1CHTO  H109  193   8.409   5.284   0.017
    1CHTO   C61  194   8.581   5.480   0.130
    1CHTO  H118  195   8.534   5.497   0.228
    1CHTO   O40  196   8.709   5.549   0.132
    1CHTO   C68  197   8.829   5.467   0.146
    1CHTO  H125  198   8.826   5.418   0.246
    1CHTO   C72  199   8.953   5.559   0.145
    1CHTO   O48  200   8.955   5.650   0.256
    1CHTO  H105  201   8.971   5.602   0.336
    1CHTO   O38  202   8.506   5.543   0.024
    1CHTO   C55  203   8.434   5.662   0.064
    1CHTO  H112  204   8.472   5.699   0.160
    1CHTO   C56  205   8.278   5.631   0.069
    1CHTO  H113  206   8.250   5.590   2.813
    1CHTO   O42  207   8.253   5.528   0.166
    1CHTO  H100  208   8.292   5.447   0.139
    1CHTO   C57  209   8.196   5.762   0.102
    1CHTO  H114  210   8.218   5.786   0.206
    1CHTO   N10  211   8.049   5.744   0.093
    1CHTO  H106  212   8.021   5.644   0.120
    1CHTO  H107  213   8.014   5.763   2.834
    1CHTO   C58  214   8.244   5.880   0.013
    1CHTO  H115  215   8.205   5.867   2.751
    1CHTO   O37  216   8.387   5.894   0.009
    1CHTO   C59  217   8.457   5.778   2.805
    1CHTO  H116  218   8.421   5.751   2.706
    1CHTO   C70  219   8.606   5.814   2.792
    1CHTO   O46  220   8.667   5.856   0.072
    1CHTO  H103  221   8.631   5.938   0.100
    1CHTO   O39  222   8.193   6.017   0.076
    1CHTO   C60  223   8.162   6.120   2.822
    1CHTO  H117  224   8.210   6.098   2.726
    1CHTO   C62  225   8.008   6.129   2.799
    1CHTO  H119  226   7.978   6.032   2.752
    1CHTO   O43  227   7.940   6.141   0.084
    1CHTO  H101  228   7.964   6.221   0.126
    1CHTO   C66  229   7.976   6.249   2.697
    1CHTO  H123  230   8.030   6.232   2.605
    1CHTO   N12  231   7.832   6.254   2.659
    1CHTO  H110  232   7.805   6.162   2.609
    1CHTO  H111  233   7.771   6.270   2.747
    1CHTO   C69  234   8.027   6.382   2.759
    1CHTO  H126  235   7.979   6.398   0.016
    1CHTO   O41  236   8.181   6.370   2.776
    1CHTO   C64  237   8.220   6.256   0.029
    1CHTO  H121  238   8.179   6.277   0.130
    1CHTO   C71  239   8.375   6.251   0.042
    1CHTO   O47  240   8.438   6.225   2.758
    1CHTO  H104  241   8.531   6.222   2.770
    1CHTO   O34  242   7.996   6.508   2.668
    1CHTO   C49  243   7.888   6.612   2.713
    1CHTO   H91  244   7.806   6.555   2.756
    1CHTO   C47  245   7.840   6.687   2.587
    1CHTO   H89  246   7.754   6.751   2.620
    1CHTO   O33  247   7.791   6.591   2.491
    1CHTO   H70  248   7.714   6.549   2.524
    1CHTO   C45  249   7.960   6.779   2.533
    1CHTO   H87  250   8.049   6.715   2.520
    1CHTO    N8  251   7.930   6.844   2.403
    1CHTO   H75  252   7.907   6.769   2.329
    1CHTO   H76  253   7.847   6.911   2.414
    1CHTO   C43  254   7.999   6.884   2.648
    1CHTO   H85  255   8.084   6.942   2.609
    1CHTO   O29  256   8.034   6.813   2.768
    1CHTO   C50  257   7.944   6.711   2.818
    1CHTO   H92  258   8.002   6.652   0.048
    1CHTO   C54  259   7.831   6.772   0.063
    1CHTO   O36  260   7.884   6.841   0.177
    1CHTO   H72  261   7.814   6.876   0.228
    1CHTO   O27  262   7.894   6.979   2.674
    1CHTO   C37  263   7.815   7.097   2.660
    1CHTO   H79  264   7.792   7.116   2.554
    1CHTO   C38  265   7.679   7.080   2.735
    1CHTO   H80  266   7.700   7.043   2.836
    1CHTO   O31  267   7.603   6.979   2.664
    1CHTO   H68  268   7.643   6.895   2.676
    1CHTO   C39  269   7.597   7.215   2.745
    1CHTO   H81  270   7.560   7.239   2.645
    1CHTO    N7  271   7.476   7.202   2.834
    1CHTO   H73  272   7.411   7.125   2.796
    1CHTO   H74  273   7.423   7.296   2.838
    1CHTO   C40  274   7.689   7.335   2.791
    1CHTO   H82  275   7.715   7.321   0.054
    1CHTO   O26  276   7.807   7.339   2.708
    1CHTO   C41  277   7.890   7.220   2.717
    1CHTO   H83  278   7.916   7.201   2.823
    1CHTO   C52  279   8.022   7.248   2.640
    1CHTO   O35  280   8.099   7.360   2.699
    1CHTO   H71  281   8.052   7.440   2.687
    1CHTO   O28  282   7.623   7.464   2.783
    1CHTO   C42  283   7.623   7.552   2.665
    1CHTO   H84  284   7.652   7.488   2.581
    1CHTO   C44  285   7.725   7.671   2.668
    1CHTO   H86  286   7.697   7.739   2.748
    1CHTO   O32  287   7.856   7.618   2.698
    1CHTO   H69  288   7.884   7.560   2.631
    1CHTO   C48  289   7.724   7.751   2.531
    1CHTO   H90  290   7.766   7.687   2.455
    1CHTO    N9  291   7.813   7.873   2.535
    1CHTO   H77  292   7.810   7.924   2.440
    1CHTO   H78  293   7.914   7.844   2.559
    1CHTO   C51  294   7.577   7.788   2.487
    1CHTO   H93  295   7.542   7.871   2.549
    1CHTO   O30  296   7.491   7.674   2.496
    1CHTO   C46  297   7.483   7.611   2.632
    1CHTO   H88  298   7.458   7.688   2.706
    1CHTO   C53  299   7.373   7.504   2.628
    1CHTO   O72  300   7.245   7.564   2.607
    1CHTO  H199  301   7.178   7.497   2.608
    1CHTO   O22  302   7.576   7.825   2.348
    1CHTO   C31  303   7.458   7.887   2.283
    1CHTO   H59  304   7.377   7.890   2.360
    1CHTO   C29  305   7.482   8.032   2.237
    1CHTO   H57  306   7.572   8.030   2.172
    1CHTO   O21  307   7.518   8.112   2.351
    1CHTO   H37  308   7.443   8.123   2.408
    1CHTO   C27  309   7.361   8.094   2.154
    1CHTO   H55  310   7.279   8.115   2.224
    1CHTO    N5  311   7.398   8.221   2.086
    1CHTO   H43  312   7.312   8.263   2.037
    1CHTO   H44  313   7.437   8.291   2.158
    1CHTO   C25  314   7.308   7.990   2.050
    1CHTO   H53  315   7.384   7.974   1.972
    1CHTO   O17  316   7.283   7.863   2.116
    1CHTO   C32  317   7.403   7.802   2.165
    1CHTO   H60  318   7.479   7.800   2.086
    1CHTO   C36  319   7.369   7.657   2.204
    1CHTO   O25  320   7.332   7.579   2.089
    1CHTO   H40  321   7.407   7.565   2.034
    1CHTO   O15  322   7.170   8.036   1.980
    1CHTO   C19  323   7.125   7.976   1.854
    1CHTO   H47  324   7.022   8.015   1.843
    1CHTO   C20  325   7.209   8.020   1.730
    1CHTO   H48  326   7.317   8.000   1.745
    1CHTO   O19  327   7.192   8.162   1.719
    1CHTO   H35  328   7.248   8.196   1.651
    1CHTO   C21  329   7.164   7.946   1.597
    1CHTO   H49  330   7.063   7.977   1.572
    1CHTO    N4  331   7.250   7.979   1.481
    1CHTO   H41  332   7.215   7.927   1.393
    1CHTO   H42  333   7.247   8.086   1.462
    1CHTO   C22  334   7.160   7.793   1.626
    1CHTO   H50  335   7.261   7.760   1.654
    1CHTO   O14  336   7.069   7.768   1.734
    1CHTO   C23  337   7.112   7.820   1.860
    1CHTO   H51  338   7.208   7.772   1.885
    1CHTO   C34  339   7.010   7.777   1.966
    1CHTO   O23  340   7.010   7.635   1.985
    1CHTO   H38  341   7.090   7.608   2.026
    1CHTO   O16  342   7.106   7.713   1.519
    1CHTO   C24  343   7.211   7.607   1.454
    1CHTO   H52  344   7.315   7.635   1.472
    1CHTO   C26  345   7.185   7.601   1.302
    1CHTO   H54  346   7.077   7.574   1.286
    1CHTO   O20  347   7.206   7.733   1.247
    1CHTO   H36  348   7.181   7.735   1.157
    1CHTO   C30  349   7.274   7.494   1.233
    1CHTO   H58  350   7.379   7.528   1.234
    1CHTO    N6  351   7.239   7.476   1.089
    1CHTO   H45  352   7.324   7.500   1.026
    1CHTO   H46  353   7.155   7.538   1.060
    1CHTO   C33  354   7.272   7.358   1.309
    1CHTO   H61  355   7.176   7.307   1.292
    1CHTO   O18  356   7.288   7.378   1.451
    1CHTO   C28  357   7.192   7.465   1.513
    1CHTO   H56  358   7.090   7.431   1.493
    1CHTO   C35  359   7.217   7.461   1.666
    1CHTO   O24  360   7.193   7.332   1.723
    1CHTO   H39  361   7.210   7.335   1.815
    1CHTO    O9  362   7.374   7.269   1.258
    1CHTO   C13  363   7.340   7.110   1.267
    1CHTO   H26  364   7.235   7.096   1.235
    1CHTO   C11  365   7.364   7.056   1.415
    1CHTO   H24  366   7.277   7.087   1.476
    1CHTO    O8  367   7.482   7.117   1.472
    1CHTO    H3  368   7.491   7.092   1.562
    1CHTO    C9  369   7.372   6.902   1.409
    1CHTO   H22  370   7.284   6.869   1.351
    1CHTO    N2  371   7.357   6.833   1.539
    1CHTO   H10  372   7.265   6.865   1.586
    1CHTO   H11  373   7.441   6.856   1.603
    1CHTO    C7  374   7.502   6.861   1.328
    1CHTO   H20  375   7.476   6.762   1.285
    1CHTO    O4  376   7.534   6.952   1.221
    1CHTO   C14  377   7.426   7.027   1.161
    1CHTO   H27  378   7.359   6.954   1.110
    1CHTO   C18  379   7.486   7.116   1.051
    1CHTO   O13  380   7.542   7.039   0.945
    1CHTO    H7  381   7.576   7.096   0.879
    1CHTO    O2  382   7.638   6.847   1.424
    1CHTO    C1  383   7.729   6.745   1.377
    1CHTO   H14  384   7.691   6.702   1.282
    1CHTO    C2  385   7.747   6.628   1.481
    1CHTO   H15  386   7.781   6.674   1.575
    1CHTO    O6  387   7.620   6.564   1.502
    1CHTO    H1  388   7.560   6.623   1.544
    1CHTO    C3  389   7.856   6.522   1.429
    1CHTO   H16  390   7.814   6.469   1.342
    1CHTO    N1  391   7.889   6.418   1.532
    1CHTO    H8  392   7.927   6.466   1.622
    1CHTO    H9  393   7.801   6.361   1.556
    1CHTO    C4  394   7.985   6.596   1.376
    1CHTO   H17  395   8.042   6.634   1.461
    1CHTO    O1  396   7.952   6.703   1.286
    1CHTO    C5  397   7.869   6.805   1.344
    1CHTO   H18  398   7.914   6.841   1.437
    1CHTO   C16  399   7.866   6.922   1.242
    1CHTO   O11  400   7.809   7.041   1.298
    1CHTO    H5  401   7.867   7.077   1.364
    1CHTO    O3  402   8.065   6.506   1.296
    1CHTO    C6  403   8.211   6.526   1.302
    1CHTO   H19  404   8.238   6.626   1.336
    1CHTO    C8  405   8.273   6.421   1.400
    1CHTO   H21  406   8.233   6.322   1.375
    1CHTO    O7  407   8.231   6.457   1.533
    1CHTO    H2  408   8.259   6.392   1.595
    1CHTO   C12  409   8.431   6.416   1.389
    1CHTO   H25  410   8.468   6.512   1.431
    1CHTO    N3  411   8.489   6.306   1.473
    1CHTO   H12  412   8.450   6.211   1.441
    1CHTO   H13  413   8.466   6.324   1.577
    1CHTO   C15  414   8.474   6.408   1.238
    1CHTO   H28  415   8.448   6.312   1.194
    1CHTO   O10  416   8.624   6.436   1.217
    1CHTO    H4  417   8.675   6.370   1.259
    1CHTO    O5  418   8.413   6.515   1.164
    1CHTO   C10  419   8.270   6.509   1.159
    1CHTO   H23  420   8.240   6.413   1.116
    1CHTO   C17  421   8.226   6.620   1.062
    1CHTO   O12  422   8.088   6.610   1.026
    1CHTO    H6  423   8.065   6.681   0.969
    2CHTO  H203  424   7.118   4.645   2.821
    2CHTO   O82  425   7.135   4.725   2.774
    2CHTO  C123  426   7.017   4.806   2.767
    2CHTO  H227  427   7.042   4.900   2.714
    2CHTO   O77  428   6.926   4.728   2.684
    2CHTO  C118  429   6.802   4.794   2.655
    2CHTO  H222  430   6.821   4.893   2.611
    2CHTO  C125  431   6.728   4.705   2.549
    2CHTO   O84  432   6.615   4.771   2.490
    2CHTO  H205  433   6.644   4.842   2.437
    2CHTO  C114  434   6.724   4.809   2.787
    2CHTO  H218  435   6.707   4.709   2.829
    2CHTO  C116  436   6.806   4.890   0.050
    2CHTO  H220  437   6.809   4.997   0.017
    2CHTO   O79  438   6.734   4.890   0.175
    2CHTO  H201  439   6.727   4.803   0.209
    2CHTO  C120  440   6.953   4.834   0.066
    2CHTO  H224  441   6.944   4.739   0.123
    2CHTO   N21  442   7.037   4.926   0.147
    2CHTO  H211  443   7.113   4.870   0.199
    2CHTO  H212  444   7.081   5.002   0.085
    2CHTO   O75  445   6.599   4.872   2.752
    2CHTO  C112  446   6.470   4.802   2.823
    2CHTO  H216  447   6.488   4.793   0.089
    2CHTO   O73  448   6.452   4.674   2.761
    2CHTO  C113  449   6.341   4.598   2.812
    2CHTO  H217  450   6.354   4.583   0.079
    2CHTO  C124  451   6.344   4.460   2.746
    2CHTO   O83  452   6.464   4.388   2.776
    2CHTO  H204  453   6.462   4.305   2.731
    2CHTO  C109  454   6.208   4.672   2.785
    2CHTO  H213  455   6.198   4.680   2.676
    2CHTO  C110  456   6.214   4.814   0.006
    2CHTO  H214  457   6.217   4.804   0.115
    2CHTO   O78  458   6.093   4.884   2.814
    2CHTO  H200  459   6.090   4.967   0.017
    2CHTO  C111  460   6.341   4.890   2.798
    2CHTO  H215  461   6.331   4.907   2.690
    2CHTO   N19  462   6.358   5.024   0.019
    2CHTO  H207  463   6.447   5.072   2.821
    2CHTO  H208  464   6.272   5.085   2.840
    2CHTO   O74  465   6.095   4.595   2.838
    2CHTO  C115  466   5.975   4.585   2.731
    2CHTO  H219  467   5.965   4.677   2.672
    2CHTO   O76  468   6.002   4.471   2.625
    2CHTO  C122  469   5.900   4.452   2.525
    2CHTO  H226  470   5.922   4.358   2.475
    2CHTO  C126  471   5.912   4.563   2.413
    2CHTO   O85  472   6.038   4.558   2.345
    2CHTO  H206  473   6.107   4.583   2.403
    2CHTO  C121  474   5.755   4.444   2.585
    2CHTO  H225  475   5.682   4.453   2.501
    2CHTO   O81  476   5.735   4.315   2.644
    2CHTO  H202  477   5.645   4.304   2.668
    2CHTO  C119  478   5.727   4.559   2.688
    2CHTO  H223  479   5.738   4.652   2.632
    2CHTO  C117  480   5.836   4.559   2.801
    2CHTO  H221  481   5.849   4.466   0.014
    2CHTO   N20  482   5.808   4.663   0.065
    2CHTO  H209  483   5.887   4.736   0.071
    2CHTO  H210  484   5.713   4.711   0.048
    2CHTO   O80  485   5.575   4.566   2.731
    2CHTO  C103  486   5.477   4.668   2.659
    2CHTO  H190  487   5.518   4.769   2.662
    2CHTO  C101  488   5.441   4.634   2.509
    2CHTO  H188  489   5.414   4.528   2.503
    2CHTO   O68  490   5.565   4.658   2.421
    2CHTO  H168  491   5.634   4.601   2.447
    2CHTO   C99  492   5.316   4.721   2.457
    2CHTO  H186  493   5.346   4.828   2.455
    2CHTO   N17  494   5.273   4.685   2.318
    2CHTO  H174  495   5.195   4.753   2.285
    2CHTO  H175  496   5.239   4.583   2.315
    2CHTO   C97  497   5.199   4.712   2.560
    2CHTO  H184  498   5.165   4.608   2.559
    2CHTO   O64  499   5.246   4.752   2.691
    2CHTO  C104  500   5.347   4.667   2.747
    2CHTO  H191  501   5.310   4.565   2.756
    2CHTO  C108  502   5.376   4.713   0.049
    2CHTO   O71  503   5.420   4.850   0.057
    2CHTO  H171  504   5.349   4.907   0.034
    2CHTO   O62  505   5.086   4.794   2.523
    2CHTO   C91  506   5.063   4.928   2.571
    2CHTO  H178  507   5.084   4.929   2.678
    2CHTO   C92  508   4.909   4.955   2.557
    2CHTO  H179  509   4.852   4.869   2.596
    2CHTO   O66  510   4.874   5.064   2.644
    2CHTO  H166  511   4.920   5.143   2.619
    2CHTO   C93  512   4.865   4.992   2.410
    2CHTO  H180  513   4.764   5.034   2.416
    2CHTO   N16  514   4.850   4.876   2.319
    2CHTO  H172  515   4.944   4.823   2.311
    2CHTO  H173  516   4.773   4.809   2.356
    2CHTO   C94  517   4.962   5.102   2.349
    2CHTO  H181  518   5.020   5.064   2.265
    2CHTO   O61  519   5.060   5.148   2.444
    2CHTO   C95  520   5.145   5.044   2.497
    2CHTO  H182  521   5.203   5.001   2.416
    2CHTO  C106  522   5.247   5.114   2.594
    2CHTO   O69  523   5.348   5.024   2.638
    2CHTO  H169  524   5.410   5.070   2.692
    2CHTO   O63  525   4.872   5.225   2.296
    2CHTO   C96  526   4.828   5.338   2.404
    2CHTO  H183  527   4.884   5.323   2.496
    2CHTO   C98  528   4.676   5.336   2.438
    2CHTO  H185  529   4.618   5.320   2.346
    2CHTO   O67  530   4.650   5.221   2.520
    2CHTO  H167  531   4.696   5.227   2.602
    2CHTO  C102  532   4.625   5.470   2.512
    2CHTO  H189  533   4.674   5.471   2.610
    2CHTO   N18  534   4.479   5.476   2.539
    2CHTO  H176  535   4.424   5.469   2.447
    2CHTO  H177  536   4.451   5.396   2.606
    2CHTO  C105  537   4.676   5.591   2.430
    2CHTO  H192  538   4.635   5.586   2.329
    2CHTO   O65  539   4.820   5.588   2.421
    2CHTO  C100  540   4.870   5.478   2.343
    2CHTO  H187  541   4.827   5.486   2.242
    2CHTO  C107  542   5.023   5.491   2.329
    2CHTO   O70  543   5.091   5.488   2.455
    2CHTO  H170  544   5.183   5.497   2.442
    2CHTO   O57  545   4.628   5.733   2.501
    2CHTO   C85  546   4.565   5.832   2.417
    2CHTO  H157  547   4.484   5.778   2.363
    2CHTO   C83  548   4.665   5.880   2.307
    2CHTO  H155  549   4.691   5.794   2.244
    2CHTO   O56  550   4.789   5.922   2.369
    2CHTO  H135  551   4.775   5.998   2.422
    2CHTO   C81  552   4.597   5.988   2.218
    2CHTO  H153  553   4.505   5.945   2.178
    2CHTO   N14  554   4.677   6.024   2.098
    2CHTO  H141  555   4.700   5.936   2.042
    2CHTO  H142  556   4.622   6.092   2.037
    2CHTO   C79  557   4.558   6.112   2.307
    2CHTO  H151  558   4.503   6.182   2.243
    2CHTO   O52  559   4.465   6.070   2.413
    2CHTO   C86  560   4.510   5.957   2.496
    2CHTO  H158  561   4.588   6.001   2.561
    2CHTO   C90  562   4.395   5.914   2.590
    2CHTO   O60  563   4.359   6.018   2.681
    2CHTO  H138  564   4.289   5.990   2.736
    2CHTO   O50  565   4.671   6.181   2.363
    2CHTO   C73  566   4.728   6.296   2.427
    2CHTO  H145  567   4.656   6.339   2.498
    2CHTO   C74  568   4.767   6.407   2.324
    2CHTO  H146  569   4.676   6.434   2.269
    2CHTO   O54  570   4.806   6.525   2.397
    2CHTO  H133  571   4.883   6.509   2.448
    2CHTO   C75  572   4.880   6.351   2.228
    2CHTO  H147  573   4.838   6.267   2.171
    2CHTO   N13  574   4.925   6.448   2.126
    2CHTO  H139  575   4.967   6.536   2.174
    2CHTO  H140  576   5.001   6.404   2.063
    2CHTO   C76  577   5.002   6.293   2.314
    2CHTO  H148  578   5.053   6.376   2.363
    2CHTO   O49  579   4.954   6.199   2.416
    2CHTO   C77  580   4.855   6.253   2.506
    2CHTO  H149  581   4.896   6.339   2.558
    2CHTO   C88  582   4.825   6.149   2.615
    2CHTO   O58  583   4.723   6.199   2.711
    2CHTO  H136  584   4.640   6.206   2.668
    2CHTO   O51  585   5.101   6.207   2.215
    2CHTO   C78  586   5.216   6.133   2.293
    2CHTO  H150  587   5.192   6.124   2.402
    2CHTO   C80  588   5.351   6.205   2.278
    2CHTO  H152  589   5.385   6.196   2.173
    2CHTO   O55  590   5.331   6.344   2.308
    2CHTO  H134  591   5.279   6.385   2.241
    2CHTO   C84  592   5.458   6.137   2.374
    2CHTO  H156  593   5.421   6.149   2.476
    2CHTO   N15  594   5.593   6.203   2.370
    2CHTO  H143  595   5.669   6.135   2.335
    2CHTO  H144  596   5.592   6.289   2.307
    2CHTO   C87  597   5.468   5.985   2.345
    2CHTO  H159  598   5.527   5.968   2.255
    2CHTO   O53  599   5.321   5.918   2.325
    2CHTO   C82  600   5.232   5.990   2.238
    2CHTO  H154  601   5.273   5.992   2.137
    2CHTO   C89  602   5.097   5.917   2.231
    2CHTO   O59  603   5.111   5.788   2.170
    2CHTO  H137  604   5.027   5.746   2.167
    2CHTO   O45  605   5.549   5.908   2.475
    2CHTO   C67  606   5.466   5.823   2.557
    2CHTO  H124  607   5.362   5.851   2.544
    2CHTO   C65  608   5.484   5.672   2.515
    2CHTO  H122  609   5.585   5.664   2.474
    2CHTO   O44  610   5.389   5.648   2.410
    2CHTO  H102  611   5.404   5.564   2.371
    2CHTO   C63  612   5.481   5.573   2.638
    2CHTO  H120  613   5.577   5.581   2.691
    2CHTO   N11  614   5.479   5.427   2.606
    2CHTO  H108  615   5.385   5.401   2.562
    2CHTO  H109  616   5.558   5.403   2.538
    2CHTO   C61  617   5.372   5.622   2.740
    2CHTO  H118  618   5.380   5.556   2.829
    2CHTO   O40  619   5.396   5.759   2.787
    2CHTO   C68  620   5.494   5.839   2.712
    2CHTO  H125  621   5.594   5.804   2.737
    2CHTO   C72  622   5.484   5.985   2.763
    2CHTO   O48  623   5.587   6.071   2.713
    2CHTO  H105  624   5.577   6.081   2.620
    2CHTO   O38  625   5.239   5.613   2.684
    2CHTO   C55  626   5.130   5.619   2.778
    2CHTO  H112  627   5.164   5.670   0.027
    2CHTO   C56  628   5.072   5.474   2.809
    2CHTO  H113  629   5.044   5.429   2.712
    2CHTO   O42  630   5.176   5.391   0.022
    2CHTO  H100  631   5.208   5.426   0.103
    2CHTO   C57  632   4.947   5.482   0.063
    2CHTO  H114  633   4.985   5.512   0.161
    2CHTO   N10  634   4.876   5.353   0.082
    2CHTO  H106  635   4.885   5.292   2.835
    2CHTO  H107  636   4.920   5.299   0.165
    2CHTO   C58  637   4.847   5.591   0.014
    2CHTO  H115  638   4.794   5.554   2.765
    2CHTO   O37  639   4.913   5.714   2.826
    2CHTO   C59  640   5.013   5.707   2.724
    2CHTO  H116  641   4.970   5.664   2.633
    2CHTO   C70  642   5.056   5.851   2.696
    2CHTO   O46  643   5.123   5.866   2.570
    2CHTO  H103  644   5.063   5.854   2.500
    2CHTO   O39  645   4.739   5.629   0.133
    2CHTO   C60  646   4.612   5.677   0.086
    2CHTO  H117  647   4.613   5.687   2.820
    2CHTO   C62  648   4.499   5.576   0.124
    2CHTO  H119  649   4.524   5.481   0.071
    2CHTO   O43  650   4.503   5.551   0.266
    2CHTO  H101  651   4.439   5.486   0.289
    2CHTO   C66  652   4.356   5.631   0.072
    2CHTO  H123  653   4.362   5.646   2.807
    2CHTO   N12  654   4.247   5.532   0.094
    2CHTO  H110  655   4.198   5.508   0.001
    2CHTO  H111  656   4.177   5.567   0.168
    2CHTO   C69  657   4.328   5.769   0.137
    2CHTO  H126  658   4.323   5.759   0.248
    2CHTO   O41  659   4.443   5.865   0.099
    2CHTO   C64  660   4.580   5.818   0.145
    2CHTO  H121  661   4.583   5.813   0.256
    2CHTO   C71  662   4.682   5.925   0.098
    2CHTO   O47  663   4.808   5.913   0.165
    2CHTO  H104  664   4.851   5.834   0.138
    2CHTO   O34  665   4.189   5.831   0.087
    2CHTO   C49  666   4.104   5.933   0.169
    2CHTO   H91  667   4.102   5.896   0.272
    2CHTO   C47  668   3.961   5.936   0.111
    2CHTO   H89  669   3.900   5.999   0.180
    2CHTO   O33  670   3.908   5.801   0.114
    2CHTO   H70  671   3.895   5.773   0.202
    2CHTO   C45  672   3.964   6.001   2.806
    2CHTO   H87  673   4.033   5.942   2.745
    2CHTO    N8  674   3.831   5.998   2.740
    2CHTO   H75  675   3.839   6.035   2.639
    2CHTO   H76  676   3.761   6.060   2.796
    2CHTO   C43  677   4.029   6.149   2.812
    2CHTO   H85  678   4.042   6.179   2.708
    2CHTO   O29  679   4.155   6.145   0.040
    2CHTO   C50  680   4.164   6.076   0.167
    2CHTO   H92  681   4.271   6.066   0.189
    2CHTO   C54  682   4.112   6.166   0.283
    2CHTO   O36  683   4.134   6.108   0.412
    2CHTO   H72  684   4.226   6.105   0.430
    2CHTO   O27  685   3.942   6.248   0.029
    2CHTO   C37  686   3.911   6.383   2.831
    2CHTO   H79  687   3.944   6.400   2.727
    2CHTO   C38  688   3.757   6.407   2.834
    2CHTO   H80  689   3.719   6.374   0.090
    2CHTO   O31  690   3.699   6.324   2.732
    2CHTO   H68  691   3.605   6.329   2.736
    2CHTO   C39  692   3.720   6.560   2.812
    2CHTO   H81  693   3.747   6.585   2.710
    2CHTO    N7  694   3.573   6.588   2.827
    2CHTO   H73  695   3.539   6.559   0.084
    2CHTO   H74  696   3.517   6.534   2.751
    2CHTO   C40  697   3.805   6.652   0.065
    2CHTO   H82  698   3.775   6.637   0.169
    2CHTO   O26  699   3.944   6.622   0.046
    2CHTO   C41  700   3.982   6.485   0.082
    2CHTO   H83  701   3.954   6.465   0.187
    2CHTO   C52  702   4.136   6.478   0.071
    2CHTO   O35  703   4.198   6.561   0.165
    2CHTO   H71  704   4.291   6.551   0.159
    2CHTO   O28  705   3.793   6.792   0.033
    2CHTO   C42  706   3.835   6.899   0.126
    2CHTO   H84  707   3.822   6.989   0.066
    2CHTO   C44  708   3.985   6.898   0.170
    2CHTO   H86  709   4.005   6.804   0.222
    2CHTO   O32  710   4.064   6.903   0.050
    2CHTO   H69  711   4.057   6.821   0.004
    2CHTO   C48  712   4.019   7.017   0.269
    2CHTO   H90  713   4.006   7.111   0.215
    2CHTO    N9  714   4.163   7.014   0.314
    2CHTO   H77  715   4.183   6.921   0.365
    2CHTO   H78  716   4.228   7.026   0.229
    2CHTO   C51  717   3.918   7.015   0.390
    2CHTO   H93  718   3.930   6.918   0.440
    2CHTO   O30  719   3.785   7.032   0.339
    2CHTO   C46  720   3.741   6.912   0.250
    2CHTO   H88  721   3.747   6.821   0.309
    2CHTO   C53  722   3.593   6.935   0.208
    2CHTO   O72  723   3.576   7.058   0.137
    2CHTO  H199  724   3.618   7.053   0.053
    2CHTO   O22  725   3.940   7.123   0.483
    2CHTO   C31  726   3.890   7.122   0.623
    2CHTO   H59  727   3.946   7.203   0.675
    2CHTO   C29  728   3.740   7.155   0.636
    2CHTO   H57  729   3.685   7.083   0.573
    2CHTO   O21  730   3.717   7.285   0.580
    2CHTO   H37  731   3.757   7.352   0.633
    2CHTO   C27  732   3.686   7.142   0.785
    2CHTO   H55  733   3.736   7.219   0.847
    2CHTO    N5  734   3.539   7.160   0.796
    2CHTO   H43  735   3.509   7.154   0.899
    2CHTO   H44  736   3.511   7.257   0.756
    2CHTO   C25  737   3.731   7.002   0.840
    2CHTO   H53  738   3.687   6.924   0.775
    2CHTO   O17  739   3.876   6.993   0.834
    2CHTO   C32  740   3.926   6.990   0.700
    2CHTO   H60  741   3.882   6.905   0.648
    2CHTO   C36  742   4.079   6.969   0.709
    2CHTO   O25  743   4.112   6.842   0.767
    2CHTO   H40  744   4.087   6.841   0.858
    2CHTO   O15  745   3.690   6.974   0.985
    2CHTO   C19  746   3.672   6.847   1.056
    2CHTO   H47  747   3.571   6.815   1.026
    2CHTO   C20  748   3.773   6.733   1.019
    2CHTO   H48  749   3.878   6.765   1.032
    2CHTO   O19  750   3.756   6.702   0.879
    2CHTO   H35  751   3.669   6.670   0.862
    2CHTO   C21  752   3.751   6.602   1.106
    2CHTO   H49  753   3.656   6.557   1.078
    2CHTO    N4  754   3.855   6.498   1.083
    2CHTO   H41  755   3.953   6.537   1.107
    2CHTO   H42  756   3.854   6.467   0.980
    2CHTO   C22  757   3.739   6.640   1.256
    2CHTO   H50  758   3.836   6.678   1.290
    2CHTO   O14  759   3.638   6.741   1.273
    2CHTO   C23  760   3.668   6.867   1.210
    2CHTO   H51  761   3.765   6.903   1.249
    2CHTO   C34  762   3.560   6.968   1.250
    2CHTO   O23  763   3.556   6.987   1.392
    2CHTO   H38  764   3.489   7.048   1.413
    2CHTO   O16  765   3.695   6.530   1.338
    2CHTO   C24  766   3.733   6.554   1.493
    2CHTO   H52  767   3.775   6.653   1.510
    2CHTO   C26  768   3.835   6.448   1.538
    2CHTO   H54  769   3.791   6.347   1.522
    2CHTO   O20  770   3.953   6.457   1.455
    2CHTO   H36  771   3.994   6.540   1.465
    2CHTO   C30  772   3.871   6.462   1.689
    2CHTO   H58  773   3.937   6.550   1.702
    2CHTO    N6  774   3.950   6.346   1.739
    2CHTO   H45  775   3.892   6.255   1.730
    2CHTO   H46  776   3.977   6.361   1.842
    2CHTO   C33  777   3.746   6.490   1.780
    2CHTO   H61  778   3.695   6.395   1.805
    2CHTO   O18  779   3.651   6.576   1.715
    2CHTO   C28  780   3.608   6.542   1.583
    2CHTO   H56  781   3.571   6.439   1.580
    2CHTO   C35  782   3.496   6.639   1.541
    2CHTO   O24  783   3.381   6.632   1.626
    2CHTO   H39  784   3.338   6.549   1.616
    2CHTO    O9  785   3.789   6.545   1.907
    2CHTO   C13  786   3.669   6.611   2.003
    2CHTO   H26  787   3.580   6.545   1.997
    2CHTO   C11  788   3.635   6.760   1.956
    2CHTO   H24  789   3.591   6.755   1.856
    2CHTO    O8  790   3.756   6.838   1.945
    2CHTO    H3  791   3.797   6.847   2.029
    2CHTO    C9  792   3.529   6.818   2.052
    2CHTO   H22  793   3.446   6.746   2.051
    2CHTO    N2  794   3.470   6.945   2.003
    2CHTO   H10  795   3.478   7.023   2.077
    2CHTO   H11  796   3.366   6.931   1.975
    2CHTO    C7  797   3.588   6.824   2.197
    2CHTO   H20  798   3.502   6.853   2.261
    2CHTO    O4  799   3.634   6.694   2.242
    2CHTO   C14  800   3.713   6.610   2.156
    2CHTO   H27  801   3.699   6.507   2.193
    2CHTO   C18  802   3.864   6.643   2.175
    2CHTO   O13  803   3.907   6.611   2.308
    2CHTO    H7  804   3.999   6.630   2.316
    2CHTO    O2  805   3.711   6.933   2.210
    2CHTO    C1  806   3.702   7.030   2.317
    2CHTO   H14  807   3.683   6.977   2.413
    2CHTO    C2  808   3.588   7.141   2.297
    2CHTO   H15  809   3.599   7.176   2.193
    2CHTO    O6  810   3.458   7.082   2.314
    2CHTO    H1  811   3.442   7.019   2.246
    2CHTO    C3  812   3.604   7.265   2.398
    2CHTO   H16  813   3.577   7.230   2.499
    2CHTO    N1  814   3.512   7.379   2.365
    2CHTO    H8  815   3.453   7.357   2.278
    2CHTO    H9  816   3.448   7.401   2.448
    2CHTO    C4  817   3.754   7.310   2.407
    2CHTO   H17  818   3.783   7.356   2.312
    2CHTO    O1  819   3.839   7.198   2.435
    2CHTO    C5  820   3.841   7.099   2.330
    2CHTO   H18  821   3.863   7.148   2.235
    2CHTO   C16  822   3.954   6.998   2.361
    2CHTO   O11  823   4.082   7.061   2.356
    2CHTO    H5  824   4.103   7.084   2.267
    2CHTO    O3  825   3.775   7.403   2.515
    2CHTO    C6  826   3.893   7.488   2.499
    2CHTO   H19  827   3.967   7.445   2.431
    2CHTO    C8  828   3.853   7.629   2.444
    2CHTO   H21  829   3.776   7.671   2.510
    2CHTO    O7  830   3.798   7.611   2.312
    2CHTO    H2  831   3.716   7.565   2.317
    2CHTO   C12  832   3.978   7.726   2.443
    2CHTO   H25  833   4.047   7.686   2.366
    2CHTO    N3  834   3.940   7.864   2.399
    2CHTO   H12  835   4.027   7.927   2.396
    2CHTO   H13  836   3.866   7.905   2.467
    2CHTO   C15  837   4.051   7.722   2.582
    2CHTO   H28  838   3.992   7.773   2.659
    2CHTO   O10  839   4.192   7.785   2.576
    2CHTO    H4  840   4.227   7.796   2.663
    2CHTO    O5  841   4.080   7.587   2.623
    2CHTO   C10  842   3.963   7.505   2.637
    2CHTO   H23  843   3.894   7.554   2.707
    2CHTO   C17  844   4.003   7.371   2.701
    2CHTO   O12  845   4.095   7.297   2.621
    2CHTO    H6  846   4.119   7.218   2.665
    3CHTO  H203  847   8.212   1.431   1.401
    3CHTO   O82  848   8.175   1.368   1.342
    3CHTO  C123  849   8.095   1.273   1.414
    3CHTO  H227  850   8.150   1.240   1.503
    3CHTO   O77  851   7.977   1.350   1.453
    3CHTO  C118  852   7.886   1.278   1.538
    3CHTO  H222  853   7.938   1.239   1.627
    3CHTO  C125  854   7.778   1.383   1.583
    3CHTO   O84  855   7.692   1.333   1.686
    3CHTO  H205  856   7.635   1.267   1.650
    3CHTO  C114  857   7.826   1.161   1.456
    3CHTO  H218  858   7.772   1.202   1.371
    3CHTO  C116  859   7.938   1.068   1.400
    3CHTO  H220  860   7.983   1.011   1.485
    3CHTO   O79  861   7.877   0.970   1.314
    3CHTO  H201  862   7.824   0.911   1.364
    3CHTO  C120  863   8.051   1.150   1.325
    3CHTO  H224  864   8.005   1.187   1.231
    3CHTO   N21  865   8.166   1.064   1.286
    3CHTO  H211  866   8.133   0.964   1.265
    3CHTO  H212  867   8.240   1.063   1.365
    3CHTO   O75  868   7.737   1.092   1.545
    3CHTO  C112  869   7.590   1.064   1.479
    3CHTO  H216  870   7.602   1.041   1.372
    3CHTO   O73  871   7.512   1.182   1.500
    3CHTO  C113  872   7.377   1.175   1.452
    3CHTO  H217  873   7.379   1.151   1.343
    3CHTO  C124  874   7.315   1.315   1.465
    3CHTO   O83  875   7.309   1.360   1.601
    3CHTO  H204  876   7.271   1.445   1.604
    3CHTO  C109  877   7.299   1.066   1.529
    3CHTO  H213  878   7.298   1.096   1.635
    3CHTO  C110  879   7.372   0.929   1.512
    3CHTO  H214  880   7.362   0.897   1.408
    3CHTO   O78  881   7.304   0.831   1.592
    3CHTO  H200  882   7.309   0.853   1.683
    3CHTO  C111  883   7.523   0.940   1.551
    3CHTO  H215  884   7.529   0.959   1.659
    3CHTO   N19  885   7.600   0.817   1.524
    3CHTO  H207  886   7.561   0.735   1.583
    3CHTO  H208  887   7.595   0.792   1.419
    3CHTO   O74  888   7.161   1.058   1.481
    3CHTO  C115  889   7.048   1.109   1.588
    3CHTO  H219  890   7.086   1.106   1.691
    3CHTO   O76  891   7.008   1.259   1.563
    3CHTO  C122  892   6.896   1.308   1.636
    3CHTO  H226  893   6.875   1.408   1.600
    3CHTO  C126  894   6.930   1.324   1.790
    3CHTO   O85  895   7.035   1.417   1.813
    3CHTO  H206  896   7.116   1.383   1.779
    3CHTO  C121  897   6.769   1.218   1.611
    3CHTO  H225  898   6.688   1.256   1.677
    3CHTO   O81  899   6.728   1.233   1.475
    3CHTO  H202  900   6.699   1.321   1.459
    3CHTO  C119  901   6.795   1.068   1.643
    3CHTO  H223  902   6.805   1.063   1.752
    3CHTO  C117  903   6.926   1.011   1.577
    3CHTO  H221  904   6.917   0.990   1.470
    3CHTO   N20  905   6.961   0.879   1.639
    3CHTO  H209  906   7.047   0.836   1.589
    3CHTO  H210  907   6.878   0.811   1.632
    3CHTO   O80  908   6.666   0.974   1.619
    3CHTO  C103  909   6.529   1.008   1.685
    3CHTO  H190  910   6.541   1.069   1.775
    3CHTO  C101  911   6.423   1.076   1.588
    3CHTO  H188  912   6.434   1.032   1.489
    3CHTO   O68  913   6.454   1.227   1.577
    3CHTO  H168  914   6.400   1.266   1.511
    3CHTO   C99  915   6.271   1.053   1.636
    3CHTO  H186  916   6.255   1.108   1.731
    3CHTO   N17  917   6.169   1.103   1.538
    3CHTO  H174  918   6.184   1.209   1.520
    3CHTO  H175  919   6.175   1.047   1.446
    3CHTO   C97  920   6.251   0.903   1.669
    3CHTO  H184  921   6.269   0.845   1.577
    3CHTO   O64  922   6.343   0.867   1.774
    3CHTO  C104  923   6.479   0.865   1.731
    3CHTO  H191  924   6.492   0.794   1.649
    3CHTO  C108  925   6.568   0.812   1.845
    3CHTO   O71  926   6.535   0.676   1.877
    3CHTO  H171  927   6.591   0.647   1.947
    3CHTO   O62  928   6.120   0.874   1.724
    3CHTO   C91  929   6.068   0.743   1.694
    3CHTO  H178  930   6.094   0.718   1.591
    3CHTO   C92  931   5.912   0.750   1.698
    3CHTO  H179  932   5.879   0.788   1.796
    3CHTO   O66  933   5.872   0.849   1.601
    3CHTO  H166  934   5.780   0.862   1.604
    3CHTO   C93  935   5.849   0.609   1.667
    3CHTO  H180  936   5.881   0.581   1.566
    3CHTO   N16  937   5.701   0.608   1.663
    3CHTO  H172  938   5.661   0.638   1.759
    3CHTO  H173  939   5.665   0.510   1.635
    3CHTO   C94  940   5.903   0.500   1.769
    3CHTO  H181  941   5.829   0.475   1.845
    3CHTO   O61  942   6.017   0.543   1.846
    3CHTO   C95  943   6.120   0.628   1.791
    3CHTO  H182  944   6.171   0.677   1.874
    3CHTO  C106  945   6.232   0.540   1.722
    3CHTO   O69  946   6.187   0.478   1.601
    3CHTO  H169  947   6.122   0.414   1.620
    3CHTO   O63  948   5.943   0.370   1.687
    3CHTO   C96  949   5.869   0.235   1.729
    3CHTO  H183  950   5.913   0.154   1.670
    3CHTO   C98  951   5.716   0.232   1.705
    3CHTO  H185  952   5.669   0.319   1.755
    3CHTO   O67  953   5.693   0.252   1.564
    3CHTO  H167  954   5.719   0.339   1.538
    3CHTO  C102  955   5.647   0.095   1.754
    3CHTO  H189  956   5.676   0.019   1.680
    3CHTO   N18  957   5.499   0.098   1.754
    3CHTO  H176  958   5.463   0.174   1.821
    3CHTO  H177  959   5.460   0.001   1.783
    3CHTO  C105  960   5.704   0.050   1.892
    3CHTO  H192  961   5.654   0.106   1.972
    3CHTO   O65  962   5.846   0.068   1.908
    3CHTO  C100  963   5.893   0.200   1.881
    3CHTO  H187  964   5.837   0.271   1.943
    3CHTO  C107  965   6.043   0.209   1.921
    3CHTO   O70  966   6.057   0.209   2.063
    3CHTO  H170  967   6.025   0.290   2.098
    3CHTO   O57  968   5.667   9.887   1.901
    3CHTO   C85  969   5.647   9.818   2.026
    3CHTO  H157  970   5.652   9.710   1.997
    3CHTO   C83  971   5.499   9.838   2.076
    3CHTO  H155  972   5.433   9.790   2.004
    3CHTO   O56  973   5.464   9.978   2.074
    3CHTO  H135  974   5.516   0.026   2.135
    3CHTO   C81  975   5.482   9.771   2.215
    3CHTO  H153  976   5.510   9.666   2.205
    3CHTO   N14  977   5.341   9.768   2.261
    3CHTO  H141  978   5.306   9.667   2.268
    3CHTO  H142  979   5.330   9.815   2.357
    3CHTO   C79  980   5.581   9.838   2.317
    3CHTO  H151  981   5.566   9.790   2.413
    3CHTO   O52  982   5.718   9.809   2.275
    3CHTO   C86  983   5.752   9.854   2.140
    3CHTO  H158  984   5.763   9.964   2.150
    3CHTO   C90  985   5.891   9.800   2.101
    3CHTO   O60  986   5.993   9.851   2.187
    3CHTO  H138  987   5.984   9.815   2.273
    3CHTO   O50  988   5.564   9.980   2.330
    3CHTO   C73  989   5.567   0.077   2.435
    3CHTO  H145  990   5.638   0.047   2.513
    3CHTO   C74  991   5.425   0.089   2.500
    3CHTO  H146  992   5.396   9.988   2.534
    3CHTO   O54  993   5.436   0.170   2.618
    3CHTO  H133  994   5.487   0.125   2.684
    3CHTO   C75  995   5.323   0.147   2.393
    3CHTO  H147  996   5.318   0.076   2.309
    3CHTO   N13  997   5.185   0.160   2.444
    3CHTO  H139  998   5.147   0.064   2.475
    3CHTO  H140  999   5.120   0.198   2.365
    3CHTO   C76 1000   5.380   0.284   2.335
    3CHTO  H148 1001   5.384   0.356   2.418
    3CHTO   O49 1002   5.515   0.266   2.282
    3CHTO   C77 1003   5.610   0.217   2.378
    3CHTO  H149 1004   5.619   0.288   2.461
    3CHTO   C88 1005   5.748   0.213   2.311
    3CHTO   O58 1006   5.855   0.168   2.405
    3CHTO  H136 1007   5.867   0.232   2.473
    3CHTO   O51 1008   5.291   0.337   2.210
    3CHTO   C78 1009   5.312   0.493   2.184
    3CHTO  H150 1010   5.412   0.527   2.221
    3CHTO   C80 1011   5.202   0.575   2.253
    3CHTO  H152 1012   5.103   0.543   2.214
    3CHTO   O55 1013   5.207   0.544   2.394
    3CHTO  H134 1014   5.135   0.585   2.439
    3CHTO   C84 1015   5.222   0.730   2.227
    3CHTO  H156 1016   5.314   0.759   2.278
    3CHTO   N15 1017   5.111   0.813   2.287
    3CHTO  H143 1018   5.018   0.787   2.243
    3CHTO  H144 1019   5.130   0.917   2.270
    3CHTO   C87 1020   5.239   0.760   2.076
    3CHTO  H159 1021   5.142   0.753   2.026
    3CHTO   O53 1022   5.340   0.658   2.009
    3CHTO   C82 1023   5.307   0.520   2.033
    3CHTO  H154 1024   5.208   0.498   1.993
    3CHTO   C89 1025   5.408   0.429   1.957
    3CHTO   O59 1026   5.399   0.448   1.816
    3CHTO  H137 1027   5.434   0.532   1.793
    3CHTO   O45 1028   5.297   0.920   2.055
    3CHTO   C67 1029   5.440   0.934   2.050
    3CHTO  H124 1030   5.486   0.842   2.085
    3CHTO   C65 1031   5.487   0.962   1.903
    3CHTO  H122 1032   5.404   1.012   1.853
    3CHTO   O44 1033   5.508   0.834   1.843
    3CHTO  H102 1034   5.525   0.843   1.751
    3CHTO   C63 1035   5.606   1.067   1.895
    3CHTO  H120 1036   5.566   1.167   1.912
    3CHTO   N11 1037   5.670   1.084   1.760
    3CHTO  H108 1038   5.723   0.995   1.733
    3CHTO  H109 1039   5.595   1.105   1.687
    3CHTO   C61 1040   5.707   1.040   2.013
    3CHTO  H118 1041   5.782   1.120   2.009
    3CHTO   O40 1042   5.642   1.049   2.143
    3CHTO   C68 1043   5.495   1.046   2.147
    3CHTO  H125 1044   5.458   1.145   2.114
    3CHTO   C72 1045   5.451   1.029   2.294
    3CHTO   O48 1046   5.505   0.911   2.355
    3CHTO  H105 1047   5.474   0.905   2.444
    3CHTO   O38 1048   5.772   0.911   1.998
    3CHTO   C55 1049   5.870   0.873   2.096
    3CHTO  H112 1050   5.846   0.916   2.194
    3CHTO   C56 1051   6.016   0.912   2.048
    3CHTO  H113 1052   6.031   0.865   1.950
    3CHTO   O42 1053   6.025   1.054   2.027
    3CHTO  H100 1054   6.109   1.076   1.991
    3CHTO   C57 1055   6.125   0.859   2.151
    3CHTO  H114 1056   6.112   0.915   2.243
    3CHTO   N10 1057   6.265   0.880   2.107
    3CHTO  H106 1058   6.273   0.969   2.046
    3CHTO  H107 1059   6.330   0.891   2.193
    3CHTO   C58 1060   6.098   0.709   2.180
    3CHTO  H115 1061   6.120   0.649   2.088
    3CHTO   O37 1062   5.962   0.687   2.220
    3CHTO   C59 1063   5.869   0.718   2.116
    3CHTO  H116 1064   5.897   0.667   2.024
    3CHTO   C70 1065   5.731   0.665   2.158
    3CHTO   O46 1066   5.642   0.653   2.048
    3CHTO  H103 1067   5.619   0.738   2.015
    3CHTO   O39 1068   6.187   0.653   2.304
    3CHTO   C60 1069   6.233   0.519   2.280
    3CHTO  H117 1070   6.163   0.467   2.213
    3CHTO   C62 1071   6.372   0.521   2.210
    3CHTO  H119 1072   6.358   0.576   2.114
    3CHTO   O43 1073   6.466   0.593   2.291
    3CHTO  H101 1074   6.549   0.600   2.247
    3CHTO   C66 1075   6.417   0.370   2.177
    3CHTO  H123 1076   6.339   0.322   2.118
    3CHTO   N12 1077   6.540   0.369   2.093
    3CHTO  H110 1078   6.621   0.318   2.144
    3CHTO  H111 1079   6.519   0.323   1.998
    3CHTO   C69 1080   6.430   0.290   2.310
    3CHTO  H126 1081   6.509   0.337   2.374
    3CHTO   O41 1082   6.292   0.294   2.384
    3CHTO   C64 1083   6.238   0.437   2.411
    3CHTO  H121 1084   6.304   0.489   2.484
    3CHTO   C71 1085   6.097   0.424   2.472
    3CHTO   O47 1086   6.102   0.357   2.599
    3CHTO  H104 1087   6.015   0.352   2.634
    3CHTO   O34 1088   6.470   0.137   2.286
    3CHTO   C49 1089   6.485   0.013   2.192
    3CHTO   H91 1090   6.570   0.036   2.129
    3CHTO   C47 1091   6.359   9.997   2.104
    3CHTO   H89 1092   6.367   0.076   2.026
    3CHTO   O33 1093   6.241   0.021   2.182
    3CHTO   H70 1094   6.166   0.027   2.126
    3CHTO   C45 1095   6.348   9.848   2.040
    3CHTO   H87 1096   6.286   9.787   2.107
    3CHTO    N8 1097   6.280   9.854   1.908
    3CHTO   H75 1098   6.264   9.753   1.871
    3CHTO   H76 1099   6.185   9.904   1.918
    3CHTO   C43 1100   6.490   9.773   2.040
    3CHTO   H85 1101   6.472   9.672   2.000
    3CHTO   O29 1102   6.544   9.769   2.174
    3CHTO   C50 1103   6.512   9.878   2.263
    3CHTO   H92 1104   6.422   9.851   2.321
    3CHTO   C54 1105   6.622   9.891   2.371
    3CHTO   O36 1106   6.629   9.773   2.453
    3CHTO   H72 1107   6.695   9.785   2.519
    3CHTO   O27 1108   6.584   9.835   1.950
    3CHTO   C37 1109   6.719   9.884   1.939
    3CHTO   H79 1110   6.748   9.934   2.032
    3CHTO   C38 1111   6.823   9.770   1.915
    3CHTO   H80 1112   6.792   9.713   1.826
    3CHTO   O31 1113   6.820   9.684   2.030
    3CHTO   H68 1114   6.876   9.609   2.016
    3CHTO   C39 1115   6.968   9.830   1.891
    3CHTO   H81 1116   7.000   9.876   1.985
    3CHTO    N7 1117   7.072   9.727   1.856
    3CHTO   H73 1118   7.151   9.727   1.929
    3CHTO   H74 1119   7.028   9.628   1.849
    3CHTO   C40 1120   6.965   9.945   1.783
    3CHTO   H82 1121   6.946   9.903   1.684
    3CHTO   O26 1122   6.863   0.040   1.821
    3CHTO   C41 1123   6.728   9.986   1.823
    3CHTO   H83 1124   6.706   9.936   1.727
    3CHTO   C52 1125   6.630   0.104   1.840
    3CHTO   O35 1126   6.651   0.210   1.739
    3CHTO   H71 1127   6.734   0.252   1.754
    3CHTO   O28 1128   7.088   0.020   1.776
    3CHTO   C42 1129   7.101   0.153   1.713
    3CHTO   H84 1130   7.209   0.161   1.697
    3CHTO   C44 1131   7.062   0.273   1.805
    3CHTO   H86 1132   6.964   0.253   1.850
    3CHTO   O32 1133   7.158   0.277   1.912
    3CHTO   H69 1134   7.148   0.202   1.968
    3CHTO   C48 1135   7.052   0.413   1.732
    3CHTO   H90 1136   7.153   0.446   1.709
    3CHTO    N9 1137   6.993   0.519   1.821
    3CHTO   H77 1138   6.893   0.492   1.850
    3CHTO   H78 1139   6.993   0.614   1.770
    3CHTO   C51 1140   6.973   0.397   1.597
    3CHTO   H93 1141   6.871   0.365   1.620
    3CHTO   O30 1142   7.042   0.302   1.516
    3CHTO   C46 1143   7.034   0.161   1.572
    3CHTO   H88 1144   6.929   0.132   1.580
    3CHTO   C53 1145   7.108   0.066   1.474
    3CHTO   O72 1146   7.049   0.068   1.343
    3CHTO  H199 1147   7.064   0.152   1.303
    3CHTO   O22 1148   6.972   0.519   1.520
    3CHTO   C31 1149   6.874   0.541   1.412
    3CHTO   H59 1150   6.845   0.440   1.375
    3CHTO   C29 1151   6.744   0.612   1.457
    3CHTO   H57 1152   6.773   0.709   1.499
    3CHTO   O21 1153   6.685   0.537   1.565
    3CHTO   H37 1154   6.653   0.454   1.534
    3CHTO   C27 1155   6.645   0.636   1.336
    3CHTO   H55 1156   6.614   0.538   1.297
    3CHTO    N5 1157   6.524   0.712   1.374
    3CHTO   H43 1158   6.551   0.811   1.408
    3CHTO   H44 1159   6.456   0.718   1.290
    3CHTO   C25 1160   6.724   0.707   1.220
    3CHTO   H53 1161   6.756   0.807   1.254
    3CHTO   O17 1162   6.842   0.630   1.184
    3CHTO   C32 1163   6.937   0.615   1.290
    3CHTO   H60 1164   6.971   0.713   1.323
    3CHTO   C36 1165   7.059   0.537   1.235
    3CHTO   O25 1166   7.126   0.611   1.133
    3CHTO   H40 1167   7.197   0.561   1.099
    3CHTO   O15 1168   6.636   0.724   1.091
    3CHTO   C19 1169   6.617   0.827   0.991
    3CHTO   H47 1170   6.532   0.791   0.931
    3CHTO   C20 1171   6.583   0.968   1.047
    3CHTO   H48 1172   6.665   1.008   1.111
    3CHTO   O19 1173   6.466   0.954   1.130
    3CHTO   H35 1174   6.487   0.904   1.207
    3CHTO   C21 1175   6.556   1.072   0.931
    3CHTO   H49 1176   6.463   1.045   0.881
    3CHTO    N4 1177   6.538   1.211   0.981
    3CHTO   H41 1178   6.517   1.278   0.898
    3CHTO   H42 1179   6.627   1.245   1.032
    3CHTO   C22 1180   6.668   1.063   0.823
    3CHTO   H50 1181   6.759   1.110   0.861
    3CHTO   O14 1182   6.694   0.928   0.784
    3CHTO   C23 1183   6.736   0.842   0.891
    3CHTO   H51 1184   6.824   0.887   0.939
    3CHTO   C34 1185   6.779   0.707   0.832
    3CHTO   O23 1186   6.895   0.721   0.749
    3CHTO   H38 1187   6.969   0.744   0.802
    3CHTO   O16 1188   6.625   1.122   0.698
    3CHTO   C24 1189   6.719   1.241   0.645
    3CHTO   H52 1190   6.786   1.278   0.722
    3CHTO   C26 1191   6.630   1.357   0.595
    3CHTO   H54 1192   6.559   1.317   0.518
    3CHTO   O20 1193   6.552   1.406   0.706
    3CHTO   H36 1194   6.490   1.341   0.734
    3CHTO   C30 1195   6.714   1.471   0.531
    3CHTO   H58 1196   6.767   1.525   0.611
    3CHTO    N6 1197   6.628   1.573   0.465
    3CHTO   H45 1198   6.573   1.528   0.384
    3CHTO   H46 1199   6.689   1.653   0.425
    3CHTO   C33 1200   6.824   1.416   0.435
    3CHTO   H61 1201   6.777   1.383   0.341
    3CHTO   O18 1202   6.893   1.304   0.492
    3CHTO   C28 1203   6.808   1.194   0.527
    3CHTO   H56 1204   6.744   1.167   0.442
    3CHTO   C35 1205   6.895   1.070   0.560
    3CHTO   O24 1206   6.975   1.086   0.678
    3CHTO   H39 1207   7.026   1.009   0.692
    3CHTO    O9 1208   6.917   1.520   0.394
    3CHTO   C13 1209   7.024   1.576   0.512
    3CHTO   H26 1210   6.976   1.565   0.611
    3CHTO   C11 1211   7.059   1.727   0.479
    3CHTO   H24 1212   6.968   1.786   0.497
    3CHTO    O8 1213   7.093   1.741   0.340
    3CHTO    H3 1214   7.019   1.720   0.286
    3CHTO    C9 1215   7.170   1.774   0.577
    3CHTO   H22 1216   7.130   1.756   0.678
    3CHTO    N2 1217   7.195   1.920   0.572
    3CHTO   H10 1218   7.237   1.947   0.476
    3CHTO   H11 1219   7.262   1.949   0.651
    3CHTO    C7 1220   7.299   1.687   0.557
    3CHTO   H20 1221   7.367   1.721   0.638
    3CHTO    O4 1222   7.271   1.547   0.576
    3CHTO   C14 1223   7.154   1.485   0.518
    3CHTO   H27 1224   7.130   1.399   0.584
    3CHTO   C18 1225   7.191   1.425   0.379
    3CHTO   O13 1226   7.286   1.319   0.391
    3CHTO    H7 1227   7.369   1.354   0.419
    3CHTO    O2 1228   7.373   1.712   0.406
    3CHTO    C1 1229   7.487   1.629   0.376
    3CHTO   H14 1230   7.462   1.524   0.397
    3CHTO    C2 1231   7.621   1.666   0.453
    3CHTO   H15 1232   7.640   1.773   0.434
    3CHTO    O6 1233   7.601   1.646   0.594
    3CHTO    H1 1234   7.675   1.677   0.642
    3CHTO    C3 1235   7.744   1.577   0.401
    3CHTO   H16 1236   7.729   1.474   0.439
    3CHTO    N1 1237   7.876   1.624   0.457
    3CHTO    H8 1238   7.956   1.561   0.420
    3CHTO    H9 1239   7.874   1.621   0.565
    3CHTO    C4 1240   7.747   1.565   0.244
    3CHTO   H17 1241   7.787   1.658   0.202
    3CHTO    O1 1242   7.616   1.539   0.191
    3CHTO    C5 1243   7.517   1.637   0.223
    3CHTO   H18 1244   7.555   1.737   0.200
    3CHTO   C16 1245   7.396   1.608   0.130
    3CHTO   O11 1246   7.302   1.716   0.128
    3CHTO    H5 1247   7.340   1.789   0.083
    3CHTO    O3 1248   7.827   1.452   0.203
    3CHTO    C6 1249   7.863   1.446   0.061
    3CHTO   H19 1250   7.805   1.515   2.842
    3CHTO    C8 1251   8.015   1.478   0.043
    3CHTO   H21 1252   8.072   1.415   0.111
    3CHTO    O7 1253   8.032   1.616   0.079
    3CHTO    H2 1254   8.124   1.638   0.079
    3CHTO   C12 1255   8.061   1.449   2.736
    3CHTO   H25 1256   8.010   1.525   2.672
    3CHTO    N3 1257   8.209   1.471   2.720
    3CHTO   H12 1258   8.264   1.405   2.785
    3CHTO   H13 1259   8.234   1.574   2.741
    3CHTO   C15 1260   8.015   1.306   2.692
    3CHTO   H28 1261   8.069   1.228   2.746
    3CHTO   O10 1262   8.027   1.283   2.541
    3CHTO    H4 1263   8.118   1.280   2.516
    3CHTO    O5 1264   7.873   1.291   2.712
    3CHTO   C10 1265   7.833   1.302   0.008
    3CHTO   H23 1266   7.888   1.229   0.067
    3CHTO   C17 1267   7.684   1.267   0.017
    3CHTO   O12 1268   7.661   1.130   2.823
    3CHTO    H6 1269   7.569   1.111   2.829
    4CHTO  H203 1270   6.597   7.209   2.301
    4CHTO   O82 1271   6.676   7.256   2.317
    4CHTO  C123 1272   6.646   7.390   2.358
    4CHTO  H227 1273   6.585   7.387   2.449
    4CHTO   O77 1274   6.778   7.446   2.388
    4CHTO  C118 1275   6.774   7.581   2.438
    4CHTO  H222 1276   6.707   7.585   2.525
    4CHTO  C125 1277   6.920   7.619   2.485
    4CHTO   O84 1278   7.012   7.625   2.376
    4CHTO  H205 1279   7.026   7.538   2.341
    4CHTO  C114 1280   6.719   7.673   2.328
    4CHTO  H218 1281   6.781   7.664   2.239
    4CHTO  C116 1282   6.574   7.627   2.290
    4CHTO  H220 1283   6.507   7.640   2.378
    4CHTO   O79 1284   6.524   7.714   2.187
    4CHTO  H201 1285   6.435   7.694   2.168
    4CHTO  C120 1286   6.576   7.475   2.245
    4CHTO  H224 1287   6.635   7.470   2.151
    4CHTO   N21 1288   6.439   7.426   2.214
    4CHTO  H211 1289   6.416   7.445   2.110
    4CHTO  H212 1290   6.431   7.320   2.235
    4CHTO   O75 1291   6.723   7.808   2.380
    4CHTO  C112 1292   6.843   7.906   2.314
    4CHTO  H216 1293   6.904   7.847   2.244
    4CHTO   O73 1294   6.922   7.954   2.424
    4CHTO  C113 1295   7.027   8.046   2.389
    4CHTO  H217 1296   7.094   7.997   2.314
    4CHTO  C124 1297   7.110   8.070   2.516
    4CHTO   O83 1298   7.231   8.143   2.492
    4CHTO  H204 1299   7.291   8.090   2.443
    4CHTO  C109 1300   6.963   8.175   2.331
    4CHTO  H213 1301   6.893   8.212   2.407
    4CHTO  C110 1302   6.884   8.135   2.203
    4CHTO  H214 1303   6.954   8.096   2.129
    4CHTO   O78 1304   6.823   8.252   2.147
    4CHTO  H200 1305   6.784   8.233   2.064
    4CHTO  C111 1306   6.777   8.027   2.237
    4CHTO  H215 1307   6.703   8.072   2.305
    4CHTO   N19 1308   6.702   7.979   2.119
    4CHTO  H207 1309   6.627   7.906   2.149
    4CHTO  H208 1310   6.770   7.933   2.048
    4CHTO   O74 1311   7.063   8.278   2.302
    4CHTO  C115 1312   7.034   8.418   2.385
    4CHTO  H219 1313   6.969   8.402   2.471
    4CHTO   O76 1314   7.162   8.476   2.445
    4CHTO  C122 1315   7.264   8.499   2.347
    4CHTO  H226 1316   7.300   8.401   2.314
    4CHTO  C126 1317   7.386   8.568   2.417
    4CHTO   O85 1318   7.445   8.487   2.518
    4CHTO  H206 1319   7.387   8.479   2.591
    4CHTO  C121 1320   7.213   8.584   2.222
    4CHTO  H225 1321   7.279   8.672   2.212
    4CHTO   O81 1322   7.228   8.505   2.104
    4CHTO  H202 1323   7.214   8.558   2.027
    4CHTO  C119 1324   7.066   8.633   2.238
    4CHTO  H223 1325   7.069   8.711   2.314
    4CHTO  C117 1326   6.966   8.520   2.285
    4CHTO  H221 1327   6.932   8.457   2.202
    4CHTO   N20 1328   6.840   8.578   2.342
    4CHTO  H209 1329   6.756   8.558   2.277
    4CHTO  H210 1330   6.849   8.684   2.360
    4CHTO   O80 1331   7.011   8.714   2.111
    4CHTO  C103 1332   7.027   8.867   2.102
    4CHTO  H190 1333   7.025   8.913   2.201
    4CHTO  C101 1334   7.154   8.918   2.022
    4CHTO  H188 1335   7.162   8.861   1.930
    4CHTO   O68 1336   7.280   8.891   2.106
    4CHTO  H168 1337   7.356   8.908   2.055
    4CHTO   C99 1338   7.141   9.073   1.985
    4CHTO  H186 1339   7.141   9.133   2.079
    4CHTO   N17 1340   7.254   9.124   1.900
    4CHTO  H174 1341   7.244   9.231   1.885
    4CHTO  H175 1342   7.256   9.072   1.806
    4CHTO   C97 1343   7.003   9.100   1.919
    4CHTO  H184 1344   7.000   9.047   1.822
    4CHTO   O64 1345   6.898   9.055   2.006
    4CHTO  C104 1346   6.896   8.913   2.026
    4CHTO  H191 1347   6.889   8.861   1.931
    4CHTO  C108 1348   6.769   8.877   2.104
    4CHTO   O71 1349   6.651   8.908   2.030
    4CHTO  H171 1350   6.642   8.849   1.958
    4CHTO   O62 1351   6.973   9.241   1.901
    4CHTO   C91 1352   6.897   9.276   1.784
    4CHTO  H178 1353   6.871   9.186   1.728
    4CHTO   C92 1354   6.985   9.364   1.690
    4CHTO  H179 1355   7.024   9.448   1.748
    4CHTO   O66 1356   7.101   9.287   1.651
    4CHTO  H166 1357   7.076   9.212   1.601
    4CHTO   C93 1358   6.907   9.415   1.562
    4CHTO  H180 1359   6.900   9.328   1.495
    4CHTO   N16 1360   6.983   9.518   1.487
    4CHTO  H172 1361   7.002   9.604   1.550
    4CHTO  H173 1362   7.076   9.477   1.451
    4CHTO   C94 1363   6.762   9.467   1.596
    4CHTO  H181 1364   6.764   9.564   1.646
    4CHTO   O61 1365   6.695   9.377   1.686
    4CHTO   C95 1366   6.764   9.355   1.811
    4CHTO  H182 1367   6.786   9.451   1.857
    4CHTO  C106 1368   6.668   9.278   1.908
    4CHTO   O69 1369   6.555   9.359   1.943
    4CHTO  H169 1370   6.499   9.368   1.868
    4CHTO   O63 1371   6.659   9.477   1.458
    4CHTO   C96 1372   6.697   9.403   1.319
    4CHTO  H183 1373   6.793   9.353   1.328
    4CHTO   C98 1374   6.704   9.498   1.196
    4CHTO  H185 1375   6.605   9.541   1.176
    4CHTO   O67 1376   6.789   9.610   1.229
    4CHTO  H167 1377   6.788   9.672   1.159
    4CHTO  C102 1378   6.760   9.419   1.068
    4CHTO  H189 1379   6.869   9.410   1.085
    4CHTO   N18 1380   6.747   9.491   0.939
    4CHTO  H176 1381   6.643   9.511   0.919
    4CHTO  H177 1382   6.802   9.583   0.942
    4CHTO  C105 1383   6.702   9.275   1.064
    4CHTO  H192 1384   6.674   9.249   0.962
    4CHTO   O65 1385   6.583   9.256   1.145
    4CHTO  C100 1386   6.589   9.291   1.285
    4CHTO  H187 1387   6.490   9.331   1.312
    4CHTO  C107 1388   6.610   9.161   1.366
    4CHTO   O70 1389   6.593   9.181   1.507
    4CHTO  H170 1390   6.503   9.199   1.525
    4CHTO   O57 1391   6.826   9.179   1.109
    4CHTO   C85 1392   6.843   9.052   1.043
    4CHTO  H157 1393   6.754   9.037   0.980
    4CHTO   C83 1394   6.841   8.936   1.148
    4CHTO  H155 1395   6.745   8.938   1.199
    4CHTO   O56 1396   6.940   8.962   1.249
    4CHTO  H135 1397   7.027   8.958   1.213
    4CHTO   C81 1398   6.857   8.799   1.075
    4CHTO  H153 1399   6.774   8.789   1.005
    4CHTO   N14 1400   6.841   8.682   1.166
    4CHTO  H141 1401   6.837   8.713   1.268
    4CHTO  H142 1402   6.922   8.613   1.153
    4CHTO   C79 1403   6.991   8.797   0.992
    4CHTO  H151 1404   6.991   8.705   0.934
    4CHTO   O52 1405   6.994   8.909   0.897
    4CHTO   C86 1406   6.977   9.040   0.960
    4CHTO  H158 1407   7.066   9.052   1.025
    4CHTO   C90 1408   6.986   9.152   0.853
    4CHTO   O60 1409   7.112   9.148   0.786
    4CHTO  H138 1410   7.115   9.216   0.721
    4CHTO   O50 1411   7.110   8.797   1.072
    4CHTO   C73 1412   7.252   8.785   1.093
    4CHTO  H145 1413   7.278   8.828   1.191
    4CHTO   C74 1414   7.331   8.864   0.983
    4CHTO  H146 1415   7.292   8.967   0.982
    4CHTO   O54 1416   7.468   8.873   1.025
    4CHTO  H133 1417   7.476   8.926   1.102
    4CHTO   C75 1418   7.314   8.793   0.842
    4CHTO  H147 1419   7.207   8.793   0.816
    4CHTO   N13 1420   7.382   8.862   0.731
    4CHTO  H139 1421   7.343   8.963   0.720
    4CHTO  H140 1422   7.488   8.869   0.751
    4CHTO   C76 1423   7.359   8.640   0.856
    4CHTO  H148 1424   7.465   8.639   0.884
    4CHTO   O49 1425   7.280   8.576   0.961
    4CHTO   C77 1426   7.295   8.635   1.091
    4CHTO  H149 1427   7.400   8.628   1.122
    4CHTO   C88 1428   7.216   8.552   1.193
    4CHTO   O58 1429   7.267   8.411   1.201
    4CHTO  H136 1430   7.249   8.366   1.121
    4CHTO   O51 1431   7.328   8.553   0.725
    4CHTO   C78 1432   7.460   8.501   0.644
    4CHTO  H150 1433   7.547   8.570   0.660
    4CHTO   C80 1434   7.426   8.498   0.494
    4CHTO  H152 1435   7.329   8.445   0.481
    4CHTO   O55 1436   7.406   8.634   0.452
    4CHTO  H134 1437   7.378   8.637   0.363
    4CHTO   C84 1438   7.536   8.424   0.407
    4CHTO  H156 1439   7.627   8.484   0.410
    4CHTO   N15 1440   7.495   8.412   0.262
    4CHTO  H143 1441   7.567   8.460   0.199
    4CHTO  H144 1442   7.487   8.309   0.233
    4CHTO   C87 1443   7.567   8.286   0.471
    4CHTO  H159 1444   7.477   8.225   0.469
    4CHTO   O53 1445   7.610   8.311   0.614
    4CHTO   C82 1446   7.502   8.362   0.694
    4CHTO  H154 1447   7.417   8.293   0.691
    4CHTO   C89 1448   7.551   8.366   0.840
    4CHTO   O59 1449   7.579   8.235   0.889
    4CHTO  H137 1450   7.612   8.241   0.977
    4CHTO   O45 1451   7.689   8.204   0.389
    4CHTO   C67 1452   7.744   8.085   0.450
    4CHTO  H124 1453   7.790   8.027   0.369
    4CHTO   C65 1454   7.856   8.123   0.554
    4CHTO  H122 1455   7.849   8.231   0.568
    4CHTO   O44 1456   7.983   8.094   0.492
    4CHTO  H102 1457   8.053   8.129   0.544
    4CHTO   C63 1458   7.831   8.062   0.696
    4CHTO  H120 1459   7.739   8.106   0.737
    4CHTO   N11 1460   7.932   8.097   0.802
    4CHTO  H108 1461   8.018   8.142   0.758
    4CHTO  H109 1462   7.889   8.165   0.874
    4CHTO   C61 1463   7.803   7.908   0.682
    4CHTO  H118 1464   7.771   7.872   0.781
    4CHTO   O40 1465   7.696   7.878   0.589
    4CHTO   C68 1466   7.634   7.988   0.513
    4CHTO  H125 1467   7.566   8.043   0.581
    4CHTO   C72 1468   7.546   7.920   0.405
    4CHTO   O48 1469   7.471   8.012   0.325
    4CHTO  H105 1470   7.528   8.062   0.271
    4CHTO   O38 1471   7.919   7.835   0.637
    4CHTO   C55 1472   7.924   7.696   0.677
    4CHTO  H112 1473   7.823   7.661   0.705
    4CHTO   C56 1474   8.028   7.678   0.795
    4CHTO  H113 1475   8.122   7.726   0.763
    4CHTO   O42 1476   7.982   7.752   0.910
    4CHTO  H100 1477   8.047   7.750   0.978
    4CHTO   C57 1478   8.052   7.525   0.828
    4CHTO  H114 1479   7.959   7.486   0.870
    4CHTO   N10 1480   8.158   7.502   0.929
    4CHTO  H106 1481   8.255   7.494   0.882
    4CHTO  H107 1482   8.160   7.582   1.001
    4CHTO   C58 1483   8.082   7.448   0.696
    4CHTO  H115 1484   8.178   7.486   0.654
    4CHTO   O37 1485   7.978   7.471   0.599
    4CHTO   C59 1486   7.967   7.608   0.556
    4CHTO  H116 1487   8.063   7.642   0.517
    4CHTO   C70 1488   7.866   7.616   0.441
    4CHTO   O46 1489   7.734   7.572   0.476
    4CHTO  H103 1490   7.697   7.630   0.539
    4CHTO   O39 1491   8.096   7.281   0.719
    4CHTO   C60 1492   7.977   7.205   0.750
    4CHTO  H117 1493   7.913   7.263   0.816
    4CHTO   C62 1494   7.896   7.169   0.622
    4CHTO  H119 1495   7.862   7.264   0.577
    4CHTO   O43 1496   7.983   7.102   0.528
    4CHTO  H101 1497   7.937   7.086   0.448
    4CHTO   C66 1498   7.767   7.082   0.662
    4CHTO  H123 1499   7.708   7.139   0.735
    4CHTO   N12 1500   7.677   7.060   0.545
    4CHTO  H110 1501   7.666   6.954   0.524
    4CHTO  H111 1502   7.581   7.107   0.562
    4CHTO   C69 1503   7.812   6.952   0.732
    4CHTO  H126 1504   7.874   6.891   0.663
    4CHTO   O41 1505   7.895   6.989   0.859
    4CHTO   C64 1506   8.018   7.076   0.827
    4CHTO  H121 1507   8.089   7.018   0.764
    4CHTO   C71 1508   8.089   7.111   0.960
    4CHTO   O47 1509   8.141   6.993   1.023
    4CHTO  H104 1510   8.071   6.940   1.055
    4CHTO   O34 1511   7.689   6.865   0.778
    4CHTO   C49 1512   7.676   6.719   0.759
    4CHTO   H91 1513   7.778   6.682   0.761
    4CHTO   C47 1514   7.613   6.688   0.622
    4CHTO   H89 1515   7.691   6.717   0.547
    4CHTO   O33 1516   7.496   6.768   0.599
    4CHTO   H70 1517   7.468   6.760   0.510
    4CHTO   C45 1518   7.572   6.531   0.608
    4CHTO   H87 1519   7.462   6.526   0.615
    4CHTO    N8 1520   7.611   6.476   0.476
    4CHTO   H75 1521   7.524   6.460   0.415
    4CHTO   H76 1522   7.680   6.541   0.425
    4CHTO   C43 1523   7.621   6.445   0.734
    4CHTO   H85 1524   7.584   6.344   0.721
    4CHTO   O29 1525   7.566   6.507   0.853
    4CHTO   C50 1526   7.594   6.647   0.871
    4CHTO   H92 1527   7.499   6.700   0.884
    4CHTO   C54 1528   7.663   6.666   1.009
    4CHTO   O36 1529   7.785   6.591   1.020
    4CHTO   H72 1530   7.849   6.626   0.962
    4CHTO   O27 1531   7.764   6.435   0.747
    4CHTO   C37 1532   7.887   6.381   0.700
    4CHTO   H79 1533   7.870   6.320   0.609
    4CHTO   C38 1534   7.988   6.494   0.662
    4CHTO   H80 1535   8.001   6.560   0.749
    4CHTO   O31 1536   7.930   6.572   0.555
    4CHTO   H68 1537   7.919   6.520   0.478
    4CHTO   C39 1538   8.128   6.435   0.619
    4CHTO   H81 1539   8.113   6.386   0.522
    4CHTO    N7 1540   8.233   6.542   0.598
    4CHTO   H73 1541   8.272   6.537   0.498
    4CHTO   H74 1542   8.312   6.534   0.671
    4CHTO   C40 1543   8.178   6.323   0.719
    4CHTO   H82 1544   8.217   6.369   0.810
    4CHTO   O26 1545   8.071   6.230   0.748
    4CHTO   C41 1546   7.954   6.292   0.808
    4CHTO   H83 1547   7.984   6.354   0.894
    4CHTO   C52 1548   7.863   6.179   0.861
    4CHTO   O35 1549   7.750   6.228   0.946
    4CHTO   H71 1550   7.784   6.267   1.025
    4CHTO   O28 1551   8.285   6.247   0.658
    4CHTO   C42 1552   8.347   6.126   0.711
    4CHTO   H84 1553   8.434   6.112   0.646
    4CHTO   C44 1554   8.262   5.994   0.696
    4CHTO   H86 1555   8.168   6.007   0.751
    4CHTO   O32 1556   8.230   5.981   0.556
    4CHTO   H69 1557   8.307   5.965   0.505
    4CHTO   C48 1558   8.336   5.867   0.754
    4CHTO   H90 1559   8.425   5.849   0.695
    4CHTO    N9 1560   8.252   5.742   0.743
    4CHTO   H77 1561   8.160   5.754   0.798
    4CHTO   H78 1562   8.308   5.658   0.780
    4CHTO   C51 1563   8.377   5.899   0.902
    4CHTO   H93 1564   8.286   5.920   0.959
    4CHTO   O30 1565   8.466   6.012   0.900
    4CHTO   C46 1566   8.401   6.141   0.857
    4CHTO   H88 1567   8.319   6.164   0.925
    4CHTO   C53 1568   8.513   6.247   0.869
    4CHTO   O72 1569   8.466   6.381   0.849
    4CHTO  H199 1570   8.444   6.394   0.758
    4CHTO   O22 1571   8.455   5.795   0.965
    4CHTO   C31 1572   8.425   5.755   1.104
    4CHTO   H59 1573   8.332   5.808   1.133
    4CHTO   C29 1574   8.398   5.604   1.122
    4CHTO   H57 1575   8.493   5.549   1.104
    4CHTO   O21 1576   8.304   5.560   1.022
    4CHTO   H37 1577   8.342   5.568   0.936
    4CHTO   C27 1578   8.347   5.573   1.268
    4CHTO   H55 1579   8.249   5.622   1.281
    4CHTO    N5 1580   8.331   5.428   1.294
    4CHTO   H43 1581   8.227   5.404   1.313
    4CHTO   H44 1582   8.392   5.395   1.377
    4CHTO   C25 1583   8.441   5.641   1.375
    4CHTO   H53 1584   8.533   5.581   1.388
    4CHTO   O17 1585   8.482   5.776   1.340
    4CHTO   C32 1586   8.533   5.797   1.208
    4CHTO   H60 1587   8.623   5.736   1.193
    4CHTO   C36 1588   8.572   5.946   1.197
    4CHTO   O25 1589   8.677   5.980   1.288
    4CHTO   H40 1590   8.698   6.071   1.279
    4CHTO   O15 1591   8.364   5.649   1.511
    4CHTO   C19 1592   8.335   5.733   1.626
    4CHTO   H47 1593   8.234   5.703   1.657
    4CHTO   C20 1594   8.432   5.711   1.747
    4CHTO   H48 1595   8.536   5.732   1.720
    4CHTO   O19 1596   8.422   5.571   1.782
    4CHTO   H35 1597   8.483   5.550   1.849
    4CHTO   C21 1598   8.393   5.804   1.869
    4CHTO   H49 1599   8.294   5.776   1.905
    4CHTO    N4 1600   8.487   5.790   1.984
    4CHTO   H41 1601   8.486   5.687   2.018
    4CHTO   H42 1602   8.456   5.855   2.064
    4CHTO   C22 1603   8.384   5.951   1.818
    4CHTO   H50 1604   8.483   5.981   1.781
    4CHTO   O14 1605   8.288   5.957   1.711
    4CHTO   C23 1606   8.327   5.885   1.593
    4CHTO   H51 1607   8.424   5.926   1.559
    4CHTO   C34 1608   8.223   5.916   1.484
    4CHTO   O23 1609   8.224   6.054   1.447
    4CHTO   H38 1610   8.191   6.107   1.518
    4CHTO   O16 1611   8.338   6.044   1.917
    4CHTO   C24 1612   8.335   6.198   1.860
    4CHTO   H52 1613   8.340   6.201   1.751
    4CHTO   C26 1614   8.453   6.277   1.918
    4CHTO   H54 1615   8.447   6.274   2.029
    4CHTO   O20 1616   8.575   6.212   1.877
    4CHTO   H36 1617   8.584   6.129   1.920
    4CHTO   C30 1618   8.448   6.426   1.871
    4CHTO   H58 1619   8.469   6.432   1.763
    4CHTO    N6 1620   8.555   6.507   1.937
    4CHTO   H45 1621   8.540   6.508   2.044
    4CHTO   H46 1622   8.552   6.609   1.900
    4CHTO   C33 1623   8.306   6.487   1.892
    4CHTO   H61 1624   8.288   6.503   2.000
    4CHTO   O18 1625   8.205   6.399   1.841
    4CHTO   C28 1626   8.202   6.268   1.900
    4CHTO   H56 1627   8.197   6.274   2.009
    4CHTO   C35 1628   8.077   6.194   1.846
    4CHTO   O24 1629   8.053   6.069   1.912
    4CHTO   H39 1630   8.120   6.008   1.890
    4CHTO    O9 1631   8.297   6.618   1.832
    4CHTO   C13 1632   8.159   6.695   1.863
    4CHTO   H26 1633   8.078   6.620   1.868
    4CHTO   C11 1634   8.132   6.804   1.751
    4CHTO   H24 1635   8.114   6.750   1.657
    4CHTO    O8 1636   8.248   6.887   1.731
    4CHTO    H3 1637   8.267   6.936   1.808
    4CHTO    C9 1638   8.002   6.881   1.790
    4CHTO   H22 1639   7.924   6.804   1.800
    4CHTO    N2 1640   7.952   6.971   1.684
    4CHTO   H10 1641   8.022   7.052   1.668
    4CHTO   H11 1642   7.936   6.916   1.592
    4CHTO    C7 1643   8.022   6.951   1.929
    4CHTO   H20 1644   7.922   6.994   1.953
    4CHTO    O4 1645   8.056   6.856   2.031
    4CHTO   C14 1646   8.164   6.761   2.008
    4CHTO   H27 1647   8.148   6.680   2.081
    4CHTO   C18 1648   8.301   6.826   2.042
    4CHTO   O13 1649   8.309   6.859   2.181
    4CHTO    H7 1650   8.393   6.896   2.200
    4CHTO    O2 1651   8.137   7.069   1.925
    4CHTO    C1 1652   8.092   7.202   1.958
    4CHTO   H14 1653   7.981   7.205   1.965
    4CHTO    C2 1654   8.140   7.310   1.851
    4CHTO   H15 1655   8.248   7.294   1.838
    4CHTO    O6 1656   8.073   7.284   1.726
    4CHTO    H1 1657   7.980   7.295   1.736
    4CHTO    C3 1658   8.112   7.459   1.903
    4CHTO   H16 1659   8.003   7.475   1.908
    4CHTO    N1 1660   8.169   7.563   1.810
    4CHTO    H8 1661   8.124   7.552   1.712
    4CHTO    H9 1662   8.148   7.662   1.848
    4CHTO    C4 1663   8.165   7.476   2.050
    4CHTO   H17 1664   8.274   7.469   2.049
    4CHTO    O1 1665   8.109   7.374   2.135
    4CHTO    C5 1666   8.147   7.240   2.099
    4CHTO   H18 1667   8.256   7.232   2.097
    4CHTO   C16 1668   8.093   7.147   2.210
    4CHTO   O11 1669   8.160   7.170   2.334
    4CHTO    H5 1670   8.126   7.112   2.399
    4CHTO    O3 1671   8.122   7.600   2.109
    4CHTO    C6 1672   8.212   7.653   2.213
    4CHTO   H19 1673   8.282   7.579   2.250
    4CHTO    C8 1674   8.294   7.773   2.155
    4CHTO   H21 1675   8.224   7.843   2.107
    4CHTO    O7 1676   8.382   7.718   2.055
    4CHTO    H2 1677   8.430   7.787   2.013
    4CHTO   C12 1678   8.374   7.849   2.268
    4CHTO   H25 1679   8.451   7.777   2.305
    4CHTO    N3 1680   8.448   7.968   2.215
    4CHTO   H12 1681   8.435   7.979   2.109
    4CHTO   H13 1682   8.417   8.059   2.266
    4CHTO   C15 1683   8.276   7.882   2.387
    4CHTO   H28 1684   8.201   7.956   2.358
    4CHTO   O10 1685   8.349   7.929   2.514
    4CHTO    H4 1686   8.392   8.011   2.498
    4CHTO    O5 1687   8.211   7.762   2.433
    4CHTO   C10 1688   8.127   7.699   2.335
    4CHTO   H23 1689   8.049   7.770   2.305
    4CHTO   C17 1690   8.059   7.582   2.408
    4CHTO   O12 1691   7.951   7.527   2.332
    4CHTO    H6 1692   7.912   7.457   2.380
    5CHTO  H203 1693   8.380   3.995   1.093
    5CHTO   O82 1694   8.432   3.963   1.164
    5CHTO  C123 1695   8.406   3.824   1.187
    5CHTO  H227 1696   8.429   3.768   1.095
    5CHTO   O77 1697   8.502   3.789   1.291
    5CHTO  C118 1698   8.502   3.649   1.326
    5CHTO  H222 1699   8.515   3.588   1.235
    5CHTO  C125 1700   8.622   3.621   1.424
    5CHTO   O84 1701   8.747   3.649   1.360
    5CHTO  H205 1702   8.817   3.632   1.420
    5CHTO  C114 1703   8.366   3.615   1.390
    5CHTO  H218 1704   8.352   3.678   1.478
    5CHTO  C116 1705   8.250   3.645   1.290
    5CHTO  H220 1706   8.257   3.575   1.204
    5CHTO   O79 1707   8.124   3.620   1.353
    5CHTO  H201 1708   8.115   3.528   1.372
    5CHTO  C120 1709   8.259   3.795   1.238
    5CHTO  H224 1710   8.236   3.860   1.324
    5CHTO   N21 1711   8.159   3.824   1.132
    5CHTO  H211 1712   8.067   3.859   1.177
    5CHTO  H212 1713   8.141   3.737   1.071
    5CHTO   O75 1714   8.378   3.476   1.430
    5CHTO  C112 1715   8.270   3.428   1.546
    5CHTO  H216 1716   8.169   3.432   1.504
    5CHTO   O73 1717   8.284   3.516   1.659
    5CHTO  C113 1718   8.182   3.493   1.757
    5CHTO  H217 1719   8.083   3.498   1.708
    5CHTO  C124 1720   8.186   3.606   1.862
    5CHTO   O83 1721   8.146   3.732   1.809
    5CHTO  H204 1722   8.211   3.763   1.748
    5CHTO  C109 1723   8.199   3.353   1.822
    5CHTO  H213 1724   8.293   3.356   1.879
    5CHTO  C110 1725   8.204   3.243   1.711
    5CHTO  H214 1726   8.103   3.228   1.673
    5CHTO   O78 1727   8.244   3.119   1.773
    5CHTO  H200 1728   8.177   3.088   1.831
    5CHTO  C111 1729   8.300   3.281   1.594
    5CHTO  H215 1730   8.403   3.277   1.631
    5CHTO   N19 1731   8.292   3.187   1.479
    5CHTO  H207 1732   8.191   3.183   1.440
    5CHTO  H208 1733   8.322   3.088   1.510
    5CHTO   O74 1734   8.087   3.329   1.913
    5CHTO  C115 1735   8.122   3.253   2.049
    5CHTO  H219 1736   8.218   3.200   2.042
    5CHTO   O76 1737   8.138   3.354   2.170
    5CHTO  C122 1738   8.025   3.442   2.180
    5CHTO  H226 1739   8.038   3.519   2.104
    5CHTO  C126 1740   8.032   3.517   2.317
    5CHTO   O85 1741   8.002   3.435   2.430
    5CHTO  H206 1742   8.069   3.370   2.441
    5CHTO  C121 1743   7.885   3.369   2.159
    5CHTO  H225 1744   7.813   3.406   2.236
    5CHTO   O81 1745   7.830   3.403   2.031
    5CHTO  H202 1746   7.813   3.495   2.026
    5CHTO  C119 1747   7.900   3.214   2.177
    5CHTO  H223 1748   7.943   3.204   2.277
    5CHTO  C117 1749   8.004   3.152   2.076
    5CHTO  H221 1750   7.965   3.130   1.977
    5CHTO   N20 1751   8.055   3.019   2.126
    5CHTO  H209 1752   7.972   2.951   2.141
    5CHTO  H210 1753   8.109   3.033   2.218
    5CHTO   O80 1754   7.762   3.133   2.195
    5CHTO  C103 1755   7.644   3.149   2.088
    5CHTO  H190 1756   7.646   3.247   2.041
    5CHTO  C101 1757   7.639   3.039   1.975
    5CHTO  H188 1758   7.656   2.941   2.020
    5CHTO   O68 1759   7.751   3.066   1.875
    5CHTO  H168 1760   7.756   2.996   1.813
    5CHTO   C99 1761   7.497   3.037   1.900
    5CHTO  H186 1762   7.488   3.130   1.839
    5CHTO   N17 1763   7.480   2.922   1.804
    5CHTO  H174 1764   7.563   2.853   1.812
    5CHTO  H175 1765   7.470   2.958   1.703
    5CHTO   C97 1766   7.380   3.042   2.002
    5CHTO  H184 1767   7.376   2.945   2.055
    5CHTO   O64 1768   7.397   3.152   2.093
    5CHTO  C104 1769   7.514   3.141   2.176
    5CHTO  H191 1770   7.513   3.046   2.230
    5CHTO  C108 1771   7.510   3.251   2.284
    5CHTO   O71 1772   7.508   3.383   2.228
    5CHTO  H171 1773   7.427   3.399   2.185
    5CHTO   O62 1774   7.254   3.069   1.937
    5CHTO   C91 1775   7.134   3.034   2.007
    5CHTO  H178 1776   7.156   3.024   2.113
    5CHTO   C92 1777   7.083   2.894   1.958
    5CHTO  H179 1778   7.079   2.896   1.848
    5CHTO   O66 1779   7.183   2.796   1.991
    5CHTO  H166 1780   7.194   2.790   2.084
    5CHTO   C93 1781   6.943   2.856   2.018
    5CHTO  H180 1782   6.958   2.840   2.126
    5CHTO   N16 1783   6.889   2.728   1.964
    5CHTO  H172 1784   6.869   2.658   2.044
    5CHTO  H173 1785   6.799   2.745   1.905
    5CHTO   C94 1786   6.842   2.975   1.999
    5CHTO  H181 1787   6.823   2.995   1.894
    5CHTO   O61 1788   6.898   3.094   2.057
    5CHTO   C95 1789   7.018   3.141   1.992
    5CHTO  H182 1790   6.997   3.159   1.887
    5CHTO  C106 1791   7.055   3.279   2.057
    5CHTO   O69 1792   7.163   3.343   1.988
    5CHTO  H169 1793   7.242   3.294   2.000
    5CHTO   O63 1794   6.704   2.948   2.078
    5CHTO   C96 1795   6.574   2.968   1.988
    5CHTO  H183 1796   6.592   2.919   1.892
    5CHTO   C98 1797   6.536   3.117   1.960
    5CHTO  H185 1798   6.519   3.169   2.055
    5CHTO   O67 1799   6.646   3.183   1.897
    5CHTO  H167 1800   6.628   3.275   1.887
    5CHTO  C102 1801   6.405   3.127   1.866
    5CHTO  H189 1802   6.441   3.103   1.764
    5CHTO   N18 1803   6.345   3.262   1.855
    5CHTO  H176 1804   6.345   3.295   1.752
    5CHTO  H177 1805   6.399   3.333   1.916
    5CHTO  C105 1806   6.300   3.018   1.906
    5CHTO  H192 1807   6.201   3.063   1.912
    5CHTO   O65 1808   6.324   2.956   2.034
    5CHTO  C100 1809   6.453   2.895   2.059
    5CHTO  H187 1810   6.469   2.902   2.168
    5CHTO  C107 1811   6.445   2.744   2.024
    5CHTO   O70 1812   6.562   2.674   2.064
    5CHTO  H170 1813   6.554   2.583   2.041
    5CHTO   O57 1814   6.303   2.914   1.783
    5CHTO   C85 1815   6.180   2.872   1.719
    5CHTO  H157 1816   6.097   2.926   1.771
    5CHTO   C83 1817   6.155   2.721   1.748
    5CHTO  H155 1818   6.135   2.709   1.855
    5CHTO   O56 1819   6.276   2.646   1.721
    5CHTO  H135 1820   6.265   2.557   1.747
    5CHTO   C81 1821   6.031   2.671   1.668
    5CHTO  H153 1822   5.946   2.734   1.695
    5CHTO   N14 1823   5.988   2.534   1.704
    5CHTO  H141 1824   6.065   2.464   1.678
    5CHTO  H142 1825   5.968   2.528   1.809
    5CHTO   C79 1826   6.058   2.689   1.514
    5CHTO  H151 1827   5.968   2.657   1.462
    5CHTO   O52 1828   6.076   2.831   1.485
    5CHTO   C86 1829   6.180   2.899   1.563
    5CHTO  H158 1830   6.275   2.866   1.518
    5CHTO   C90 1831   6.172   3.051   1.536
    5CHTO   O60 1832   6.196   3.081   1.398
    5CHTO  H138 1833   6.191   3.174   1.385
    5CHTO   O50 1834   6.170   2.613   1.464
    5CHTO   C73 1835   6.212   2.551   1.342
    5CHTO  H145 1836   6.158   2.594   1.257
    5CHTO   C74 1837   6.183   2.397   1.346
    5CHTO  H146 1838   6.075   2.385   1.363
    5CHTO   O54 1839   6.210   2.342   1.215
    5CHTO  H133 1840   6.301   2.351   1.194
    5CHTO   C75 1841   6.269   2.331   1.461
    5CHTO  H147 1842   6.236   2.374   1.557
    5CHTO   N13 1843   6.249   2.184   1.474
    5CHTO  H139 1844   6.276   2.135   1.382
    5CHTO  H140 1845   6.145   2.162   1.496
    5CHTO   C76 1846   6.423   2.369   1.442
    5CHTO  H148 1847   6.459   2.318   1.352
    5CHTO   O49 1848   6.440   2.513   1.428
    5CHTO   C77 1849   6.365   2.573   1.321
    5CHTO  H149 1850   6.394   2.529   1.226
    5CHTO   C88 1851   6.404   2.721   1.313
    5CHTO   O58 1852   6.331   2.792   1.204
    5CHTO  H136 1853   6.239   2.798   1.225
    5CHTO   O51 1854   6.509   2.330   1.573
    5CHTO   C78 1855   6.663   2.338   1.542
    5CHTO  H150 1856   6.681   2.391   1.447
    5CHTO   C80 1857   6.723   2.197   1.533
    5CHTO  H152 1858   6.701   2.142   1.627
    5CHTO   O55 1859   6.654   2.127   1.427
    5CHTO  H134 1860   6.672   2.167   1.344
    5CHTO   C84 1861   6.879   2.202   1.509
    5CHTO  H156 1862   6.896   2.245   1.410
    5CHTO   N15 1863   6.943   2.066   1.509
    5CHTO  H143 1864   6.900   2.006   1.432
    5CHTO  H144 1865   7.048   2.075   1.491
    5CHTO   C87 1866   6.946   2.295   1.613
    5CHTO  H159 1867   6.944   2.249   1.712
    5CHTO   O53 1868   6.874   2.430   1.616
    5CHTO   C82 1869   6.736   2.419   1.652
    5CHTO  H154 1870   6.725   2.372   1.750
    5CHTO   C89 1871   6.682   2.564   1.664
    5CHTO   O59 1872   6.554   2.568   1.728
    5CHTO  H137 1873   6.563   2.545   1.819
    5CHTO   O45 1874   7.100   2.329   1.570
    5CHTO   C67 1875   7.187   2.359   1.681
    5CHTO  H124 1876   7.129   2.362   1.773
    5CHTO   C65 1877   7.298   2.248   1.695
    5CHTO  H122 1878   7.306   2.201   1.596
    5CHTO   O44 1879   7.247   2.151   1.788
    5CHTO  H102 1880   7.171   2.108   1.753
    5CHTO   C63 1881   7.441   2.307   1.723
    5CHTO  H120 1882   7.478   2.352   1.630
    5CHTO   N11 1883   7.549   2.207   1.751
    5CHTO  H108 1884   7.531   2.161   1.846
    5CHTO  H109 1885   7.645   2.255   1.752
    5CHTO   C61 1886   7.430   2.425   1.826
    5CHTO  H118 1887   7.532   2.468   1.835
    5CHTO   O40 1888   7.345   2.532   1.775
    5CHTO   C68 1889   7.251   2.503   1.667
    5CHTO  H125 1890   7.304   2.512   1.570
    5CHTO   C72 1891   7.142   2.613   1.668
    5CHTO   O48 1892   7.196   2.745   1.660
    5CHTO  H105 1893   7.234   2.758   1.575
    5CHTO   O38 1894   7.386   2.381   1.957
    5CHTO   C55 1895   7.338   2.479   2.052
    5CHTO  H112 1896   7.272   2.551   2.000
    5CHTO   C56 1897   7.457   2.553   2.128
    5CHTO  H113 1898   7.521   2.474   2.171
    5CHTO   O42 1899   7.538   2.626   2.034
    5CHTO  H100 1900   7.613   2.661   2.076
    5CHTO   C57 1901   7.401   2.648   2.241
    5CHTO  H114 1902   7.350   2.731   2.192
    5CHTO   N10 1903   7.507   2.706   2.327
    5CHTO  H106 1904   7.591   2.638   2.336
    5CHTO  H107 1905   7.542   2.799   2.285
    5CHTO   C58 1906   7.297   2.573   2.329
    5CHTO  H115 1907   7.350   2.493   2.387
    5CHTO   O37 1908   7.196   2.510   2.248
    5CHTO   C59 1909   7.247   2.411   2.158
    5CHTO  H116 1910   7.304   2.336   2.213
    5CHTO   C70 1911   7.129   2.337   2.093
    5CHTO   O46 1912   7.041   2.422   2.018
    5CHTO  H103 1913   6.972   2.370   1.981
    5CHTO   O39 1914   7.220   2.679   2.439
    5CHTO   C60 1915   7.100   2.745   2.393
    5CHTO  H117 1916   7.100   2.750   2.284
    5CHTO   C62 1917   6.972   2.670   2.440
    5CHTO  H119 1918   6.976   2.569   2.393
    5CHTO   O43 1919   6.975   2.653   2.584
    5CHTO  H101 1920   6.973   2.736   2.627
    5CHTO   C66 1921   6.839   2.746   2.388
    5CHTO  H123 1922   6.842   2.751   2.280
    5CHTO   N12 1923   6.714   2.673   2.421
    5CHTO  H110 1924   6.704   2.662   2.528
    5CHTO  H111 1925   6.629   2.724   2.379
    5CHTO   C69 1926   6.839   2.892   2.442
    5CHTO  H126 1927   6.833   2.892   2.553
    5CHTO   O41 1928   6.970   2.963   2.397
    5CHTO   C64 1929   7.097   2.892   2.444
    5CHTO  H121 1930   7.100   2.892   2.555
    5CHTO   C71 1931   7.220   2.971   2.393
    5CHTO   O47 1932   7.220   3.104   2.447
    5CHTO  H104 1933   7.294   3.151   2.414
    5CHTO   O34 1934   6.717   2.975   2.387
    5CHTO   C49 1935   6.616   3.091   2.374
    5CHTO   H91 1936   6.574   3.083   2.274
    5CHTO   C47 1937   6.687   3.227   2.389
    5CHTO   H89 1938   6.613   3.305   2.361
    5CHTO   O33 1939   6.796   3.231   2.294
    5CHTO   H70 1940   6.837   3.315   2.295
    5CHTO   C45 1941   6.734   3.248   2.541
    5CHTO   H87 1942   6.798   3.163   2.569
    5CHTO    N8 1943   6.813   3.373   2.560
    5CHTO   H75 1944   6.751   3.459   2.538
    5CHTO   H76 1945   6.899   3.372   2.495
    5CHTO   C43 1946   6.607   3.238   2.640
    5CHTO   H85 1947   6.648   3.239   2.741
    5CHTO   O29 1948   6.533   3.117   2.614
    5CHTO   C50 1949   6.501   3.080   2.478
    5CHTO   H92 1950   6.470   2.974   2.480
    5CHTO   C54 1951   6.374   3.152   2.426
    5CHTO   O36 1952   6.261   3.128   2.509
    5CHTO   H72 1953   6.186   3.173   2.474
    5CHTO   O27 1954   6.519   3.353   2.634
    5CHTO   C37 1955   6.461   3.484   2.646
    5CHTO   H79 1956   6.523   3.557   2.591
    5CHTO   C38 1957   6.320   3.486   2.580
    5CHTO   H80 1958   6.264   3.397   2.613
    5CHTO   O31 1959   6.339   3.476   2.437
    5CHTO   H68 1960   6.384   3.552   2.405
    5CHTO   C39 1961   6.236   3.615   2.616
    5CHTO   H81 1962   6.286   3.700   2.570
    5CHTO    N7 1963   6.095   3.612   2.562
    5CHTO   H73 1964   6.022   3.616   2.641
    5CHTO   H74 1965   6.080   3.694   2.493
    5CHTO   C40 1966   6.239   3.637   2.772
    5CHTO   H82 1967   6.191   3.552   2.821
    5CHTO   O26 1968   6.376   3.652   2.810
    5CHTO   C41 1969   6.454   3.529   2.796
    5CHTO   H83 1970   6.408   3.449   0.014
    5CHTO   C52 1971   6.593   3.562   0.014
    5CHTO   O35 1972   6.673   3.445   0.039
    5CHTO   H71 1973   6.755   3.472   0.076
    5CHTO   O28 1974   6.170   3.758   2.813
    5CHTO   C42 1975   6.126   3.788   0.107
    5CHTO   H84 1976   6.070   3.881   0.091
    5CHTO   C44 1977   6.240   3.823   0.209
    5CHTO   H86 1978   6.334   3.833   0.153
    5CHTO   O32 1979   6.215   3.953   0.266
    5CHTO   H69 1980   6.222   4.020   0.200
    5CHTO   C48 1981   6.264   3.717   0.325
    5CHTO   H90 1982   6.196   3.739   0.408
    5CHTO    N9 1983   6.402   3.729   0.384
    5CHTO   H77 1984   6.414   3.658   0.464
    5CHTO   H78 1985   6.476   3.713   0.308
    5CHTO   C51 1986   6.229   3.574   0.272
    5CHTO   H93 1987   6.292   3.556   0.185
    5CHTO   O30 1988   6.090   3.565   0.239
    5CHTO   C46 1989   6.024   3.683   0.161
    5CHTO   H88 1990   5.975   3.638   0.075
    5CHTO   C53 1991   5.914   3.748   0.249
    5CHTO   O72 1992   5.960   3.798   0.375
    5CHTO  H199 1993   6.016   3.871   0.362
    5CHTO   O22 1994   6.246   3.468   0.369
    5CHTO   C31 1995   6.295   3.335   0.325
    5CHTO   H59 1996   6.271   3.266   0.408
    5CHTO   C29 1997   6.225   3.279   0.198
    5CHTO   H57 1998   6.229   3.357   0.121
    5CHTO   O21 1999   6.086   3.260   0.230
    5CHTO   H37 2000   6.037   3.241   0.152
    5CHTO   C27 2001   6.293   3.148   0.142
    5CHTO   H55 2002   6.275   3.066   0.212
    5CHTO    N5 2003   6.237   3.109   0.009
    5CHTO   H43 2004   6.281   3.017   2.818
    5CHTO   H44 2005   6.255   3.187   2.779
    5CHTO   C25 2006   6.448   3.170   0.134
    5CHTO   H53 2007   6.470   3.251   0.063
    5CHTO   O17 2008   6.499   3.208   0.265
    5CHTO   C32 2009   6.451   3.334   0.311
    5CHTO   H60 2010   6.480   3.412   0.241
    5CHTO   C36 2011   6.521   3.365   0.446
    5CHTO   O25 2012   6.495   3.266   0.546
    5CHTO   H40 2013   6.536   3.291   0.626
    5CHTO   O15 2014   6.525   3.043   0.086
    5CHTO   C19 2015   6.612   2.950   0.157
    5CHTO   H47 2016   6.661   3.012   0.233
    5CHTO   C20 2017   6.537   2.833   0.229
    5CHTO   H48 2018   6.477   2.773   0.158
    5CHTO   O19 2019   6.446   2.894   0.323
    5CHTO   H35 2020   6.377   2.938   0.279
    5CHTO   C21 2021   6.638   2.736   0.301
    5CHTO   H49 2022   6.692   2.792   0.377
    5CHTO    N4 2023   6.572   2.622   0.370
    5CHTO   H41 2024   6.517   2.562   0.299
    5CHTO   H42 2025   6.646   2.560   0.418
    5CHTO   C22 2026   6.742   2.690   0.195
    5CHTO   H50 2027   6.689   2.635   0.116
    5CHTO   O14 2028   6.810   2.804   0.139
    5CHTO   C23 2029   6.727   2.896   0.066
    5CHTO   H51 2030   6.688   2.843   2.820
    5CHTO   C34 2031   6.815   3.012   0.018
    5CHTO   O23 2032   6.922   2.967   2.776
    5CHTO   H38 2033   6.973   3.041   2.749
    5CHTO   O16 2034   6.848   2.610   0.252
    5CHTO   C24 2035   6.911   2.508   0.148
    5CHTO   H52 2036   6.881   2.530   0.046
    5CHTO   C26 2037   6.865   2.366   0.187
    5CHTO   H54 2038   6.882   2.352   0.297
    5CHTO   O20 2039   6.724   2.355   0.163
    5CHTO   H36 2040   6.676   2.412   0.220
    5CHTO   C30 2041   6.944   2.254   0.111
    5CHTO   H58 2042   6.911   2.252   0.006
    5CHTO    N6 2043   6.917   2.119   0.167
    5CHTO   H45 2044   6.812   2.096   0.155
    5CHTO   H46 2045   6.942   2.116   0.272
    5CHTO   C33 2046   7.097   2.285   0.110
    5CHTO   H61 2047   7.136   2.277   0.213
    5CHTO   O18 2048   7.118   2.420   0.065
    5CHTO   C28 2049   7.066   2.520   0.154
    5CHTO   H56 2050   7.100   2.503   0.256
    5CHTO   C35 2051   7.117   2.657   0.104
    5CHTO   O24 2052   7.095   2.761   0.199
    5CHTO   H39 2053   7.125   2.843   0.163
    5CHTO    O9 2054   7.176   2.191   0.034
    5CHTO   C13 2055   7.152   2.181   2.711
    5CHTO   H26 2056   7.043   2.184   2.692
    5CHTO   C11 2057   7.215   2.044   2.663
    5CHTO   H24 2058   7.154   1.962   2.705
    5CHTO    O8 2059   7.348   2.030   2.717
    5CHTO    H3 2060   7.405   2.096   2.682
    5CHTO    C9 2061   7.207   2.036   2.508
    5CHTO   H22 2062   7.101   2.048   2.484
    5CHTO    N2 2063   7.244   1.903   2.453
    5CHTO   H10 2064   7.159   1.856   2.407
    5CHTO   H11 2065   7.326   1.911   2.383
    5CHTO    C7 2066   7.287   2.156   2.446
    5CHTO   H20 2067   7.265   2.149   2.337
    5CHTO    O4 2068   7.237   2.283   2.493
    5CHTO   C14 2069   7.214   2.305   2.634
    5CHTO   H27 2070   7.140   2.387   2.639
    5CHTO   C18 2071   7.344   2.359   2.699
    5CHTO   O13 2072   7.375   2.491   2.653
    5CHTO    H7 2073   7.312   2.552   2.686
    5CHTO    O2 2074   7.450   2.147   2.474
    5CHTO    C1 2075   7.535   2.198   2.370
    5CHTO   H14 2076   7.493   2.294   2.332
    5CHTO    C2 2077   7.555   2.099   2.247
    5CHTO   H15 2078   7.576   2.000   2.292
    5CHTO    O6 2079   7.433   2.090   2.171
    5CHTO    H1 2080   7.366   2.049   2.222
    5CHTO    C3 2081   7.676   2.142   2.150
    5CHTO   H16 2082   7.641   2.227   2.088
    5CHTO    N1 2083   7.715   2.032   2.055
    5CHTO    H8 2084   7.654   1.944   2.069
    5CHTO    H9 2085   7.707   2.066   1.952
    5CHTO    C4 2086   7.800   2.195   2.230
    5CHTO   H17 2087   7.852   2.110   2.275
    5CHTO    O1 2088   7.759   2.288   2.331
    5CHTO    C5 2089   7.674   2.231   2.431
    5CHTO   H18 2090   7.717   2.138   2.469
    5CHTO   C16 2091   7.667   2.333   2.547
    5CHTO   O11 2092   7.795   2.351   2.609
    5CHTO    H5 2093   7.819   2.273   2.656
    5CHTO    O3 2094   7.890   2.271   2.146
    5CHTO    C6 2095   8.021   2.297   2.207
    5CHTO   H19 2096   8.025   2.271   2.313
    5CHTO    C8 2097   8.131   2.216   2.132
    5CHTO   H21 2098   8.129   2.243   2.027
    5CHTO    O7 2099   8.099   2.076   2.146
    5CHTO    H2 2100   8.104   2.049   2.236
    5CHTO   C12 2101   8.274   2.251   2.190
    5CHTO   H25 2102   8.276   2.212   2.295
    5CHTO    N3 2103   8.383   2.179   2.116
    5CHTO   H12 2104   8.479   2.202   2.160
    5CHTO   H13 2105   8.382   2.208   2.012
    5CHTO   C15 2106   8.293   2.407   2.194
    5CHTO   H28 2107   8.306   2.449   2.094
    5CHTO   O10 2108   8.412   2.450   2.283
    5CHTO    H4 2109   8.492   2.416   2.248
    5CHTO    O5 2110   8.183   2.471   2.260
    5CHTO   C10 2111   8.056   2.449   2.197
    5CHTO   H23 2112   8.063   2.480   2.093
    5CHTO   C17 2113   7.956   2.542   2.267
    5CHTO   O12 2114   7.831   2.550   2.197
    5CHTO    H6 2115   7.842   2.597   2.117
    6CHTO  H203 2116   7.827   4.676   0.559
    6CHTO   O82 2117   7.852   4.750   0.506
    6CHTO  C123 2118   7.742   4.841   0.490
    6CHTO  H227 2119   7.776   4.928   0.430
    6CHTO   O77 2120   7.644   4.765   0.415
    6CHTO  C118 2121   7.531   4.842   0.371
    6CHTO  H222 2122   7.565   4.929   0.313
    6CHTO  C125 2123   7.448   4.746   0.278
    6CHTO   O84 2124   7.351   4.818   0.201
    6CHTO  H205 2125   7.306   4.759   0.144
    6CHTO  C114 2126   7.451   4.889   0.495
    6CHTO  H218 2127   7.408   4.802   0.544
    6CHTO  C116 2128   7.542   4.963   0.599
    6CHTO  H220 2129   7.563   5.066   0.560
    6CHTO   O79 2130   7.467   4.980   0.721
    6CHTO  H201 2131   7.395   5.038   0.707
    6CHTO  C120 2132   7.678   4.887   0.626
    6CHTO  H224 2133   7.654   4.799   0.686
    6CHTO   N21 2134   7.773   4.968   0.707
    6CHTO  H211 2135   7.759   5.074   0.688
    6CHTO  H212 2136   7.759   4.947   0.812
    6CHTO   O75 2137   7.346   4.971   0.440
    6CHTO  C112 2138   7.206   4.987   0.530
    6CHTO  H216 2139   7.231   4.985   0.637
    6CHTO   O73 2140   7.119   4.878   0.493
    6CHTO  C113 2141   6.987   4.882   0.551
    6CHTO  H217 2142   6.997   4.881   0.661
    6CHTO  C124 2143   6.912   4.755   0.510
    6CHTO   O83 2144   6.964   4.638   0.574
    6CHTO  H204 2145   6.913   4.564   0.550
    6CHTO  C109 2146   6.912   5.010   0.505
    6CHTO  H213 2147   6.909   5.007   0.395
    6CHTO  C110 2148   6.994   5.134   0.549
    6CHTO  H214 2149   6.996   5.139   0.658
    6CHTO   O78 2150   6.926   5.252   0.501
    6CHTO  H200 2151   6.969   5.329   0.533
    6CHTO  C111 2152   7.140   5.125   0.493
    6CHTO  H215 2153   7.134   5.130   0.383
    6CHTO   N19 2154   7.229   5.237   0.536
    6CHTO  H207 2155   7.176   5.307   0.599
    6CHTO  H208 2156   7.269   5.288   0.450
    6CHTO   O74 2157   6.774   5.016   0.554
    6CHTO  C115 2158   6.747   5.013   0.715
    6CHTO  H219 2159   6.837   4.982   0.770
    6CHTO   O76 2160   6.714   5.156   0.771
    6CHTO  C122 2161   6.595   5.210   0.712
    6CHTO  H226 2162   6.615   5.223   0.605
    6CHTO  C126 2163   6.573   5.355   0.768
    6CHTO   O85 2164   6.463   5.423   0.706
    6CHTO  H206 2165   6.383   5.380   0.728
    6CHTO  C121 2166   6.468   5.118   0.735
    6CHTO  H225 2167   6.395   5.172   0.800
    6CHTO   O81 2168   6.404   5.094   0.609
    6CHTO  H202 2169   6.371   5.175   0.574
    6CHTO  C119 2170   6.503   4.982   0.803
    6CHTO  H223 2171   6.527   5.007   0.906
    6CHTO  C117 2172   6.629   4.911   0.739
    6CHTO  H221 2173   6.610   4.867   0.641
    6CHTO   N20 2174   6.673   4.795   0.823
    6CHTO  H209 2175   6.592   4.725   0.835
    6CHTO  H210 2176   6.707   4.830   0.919
    6CHTO   O80 2177   6.372   4.888   0.822
    6CHTO  C103 2178   6.323   4.854   0.965
    6CHTO  H190 2179   6.406   4.825   1.028
    6CHTO  C101 2180   6.240   4.965   1.039
    6CHTO  H188 2181   6.161   5.001   0.973
    6CHTO   O68 2182   6.334   5.085   1.072
    6CHTO  H168 2183   6.366   5.123   0.992
    6CHTO   C99 2184   6.172   4.906   1.172
    6CHTO  H186 2185   6.252   4.875   1.243
    6CHTO   N17 2186   6.085   5.005   1.245
    6CHTO  H174 2187   6.048   4.961   1.336
    6CHTO  H175 2188   6.141   5.095   1.264
    6CHTO   C97 2189   6.094   4.777   1.137
    6CHTO  H184 2190   6.009   4.804   1.072
    6CHTO   O64 2191   6.182   4.682   1.073
    6CHTO  C104 2192   6.232   4.726   0.946
    6CHTO  H191 2193   6.151   4.749   0.877
    6CHTO  C108 2194   6.311   4.611   0.882
    6CHTO   O71 2195   6.227   4.499   0.852
    6CHTO  H171 2196   6.169   4.521   0.781
    6CHTO   O62 2197   6.048   4.706   1.254
    6CHTO   C91 2198   5.911   4.662   1.249
    6CHTO  H178 2199   5.851   4.746   1.213
    6CHTO   C92 2200   5.861   4.634   1.395
    6CHTO  H179 2201   5.889   4.719   1.460
    6CHTO   O66 2202   5.717   4.633   1.393
    6CHTO  H166 2203   5.684   4.719   1.374
    6CHTO   C93 2204   5.909   4.496   1.455
    6CHTO  H180 2205   5.837   4.467   1.533
    6CHTO   N16 2206   6.040   4.505   1.524
    6CHTO  H172 2207   6.033   4.576   1.605
    6CHTO  H173 2208   6.068   4.408   1.563
    6CHTO   C94 2209   5.910   4.384   1.344
    6CHTO  H181 2210   6.011   4.364   1.306
    6CHTO   O61 2211   5.831   4.422   1.230
    6CHTO   C95 2212   5.884   4.534   1.157
    6CHTO  H182 2213   5.978   4.504   1.110
    6CHTO  C106 2214   5.784   4.566   1.040
    6CHTO   O69 2215   5.774   4.457   0.948
    6CHTO  H169 2216   5.854   4.447   0.901
    6CHTO   O63 2217   5.848   4.249   1.401
    6CHTO   C96 2218   5.869   4.132   1.296
    6CHTO  H183 2219   5.940   4.167   1.221
    6CHTO   C98 2220   5.743   4.081   1.221
    6CHTO  H185 2221   5.671   4.040   1.294
    6CHTO   O67 2222   5.675   4.192   1.159
    6CHTO  H167 2223   5.642   4.251   1.224
    6CHTO  C102 2224   5.780   3.972   1.109
    6CHTO  H189 2225   5.802   4.031   1.018
    6CHTO   N18 2226   5.671   3.881   1.070
    6CHTO  H176 2227   5.639   3.822   1.155
    6CHTO  H177 2228   5.704   3.815   0.991
    6CHTO  C105 2229   5.912   3.898   1.148
    6CHTO  H192 2230   5.913   3.798   1.103
    6CHTO   O65 2231   5.932   3.885   1.290
    6CHTO  C100 2232   5.934   4.007   1.368
    6CHTO  H187 2233   5.876   3.987   1.459
    6CHTO  C107 2234   6.079   4.038   1.413
    6CHTO   O70 2235   6.130   3.937   1.501
    6CHTO  H170 2236   6.142   3.857   1.454
    6CHTO   O57 2237   6.023   3.986   1.082
    6CHTO   C85 2238   6.112   3.941   0.979
    6CHTO  H157 2239   6.048   3.892   0.902
    6CHTO   C83 2240   6.207   3.829   1.035
    6CHTO  H155 2241   6.148   3.737   1.044
    6CHTO   O56 2242   6.248   3.862   1.168
    6CHTO  H135 2243   6.302   3.939   1.168
    6CHTO   C81 2244   6.324   3.802   0.936
    6CHTO  H153 2245   6.282   3.767   0.842
    6CHTO   N14 2246   6.413   3.691   0.979
    6CHTO  H141 2247   6.486   3.671   0.903
    6CHTO  H142 2248   6.356   3.602   0.996
    6CHTO   C79 2249   6.402   3.936   0.908
    6CHTO  H151 2250   6.482   3.913   0.838
    6CHTO   O52 2251   6.312   4.028   0.840
    6CHTO   C86 2252   6.194   4.063   0.918
    6CHTO  H158 2253   6.233   4.129   0.999
    6CHTO   C90 2254   6.104   4.154   0.830
    6CHTO   O60 2255   5.995   4.212   0.904
    6CHTO  H138 2256   5.933   4.145   0.927
    6CHTO   O50 2257   6.457   4.001   1.024
    6CHTO   C73 2258   6.526   4.015   1.150
    6CHTO  H145 2259   6.534   3.917   1.199
    6CHTO   C74 2260   6.444   4.111   1.242
    6CHTO  H146 2261   6.341   4.071   1.249
    6CHTO   O54 2262   6.497   4.103   1.376
    6CHTO  H133 2263   6.585   4.136   1.378
    6CHTO   C75 2264   6.445   4.257   1.183
    6CHTO  H147 2265   6.404   4.254   1.081
    6CHTO   N13 2266   6.361   4.353   1.258
    6CHTO  H139 2267   6.311   4.305   1.341
    6CHTO  H140 2268   6.286   4.396   1.193
    6CHTO   C76 2269   6.598   4.303   1.171
    6CHTO  H148 2270   6.642   4.301   1.271
    6CHTO   O49 2271   6.670   4.210   1.084
    6CHTO   C77 2272   6.669   4.074   1.131
    6CHTO  H149 2273   6.721   4.071   1.227
    6CHTO   C88 2274   6.756   3.988   1.037
    6CHTO   O58 2275   6.716   4.000   0.892
    6CHTO  H136 2276   6.732   4.087   0.862
    6CHTO   O51 2277   6.614   4.445   1.101
    6CHTO   C78 2278   6.684   4.557   1.195
    6CHTO  H150 2279   6.690   4.522   1.301
    6CHTO   C80 2280   6.599   4.686   1.190
    6CHTO  H152 2281   6.579   4.709   1.083
    6CHTO   O55 2282   6.473   4.659   1.253
    6CHTO  H134 2283   6.422   4.599   1.201
    6CHTO   C84 2284   6.671   4.809   1.257
    6CHTO  H156 2285   6.676   4.790   1.364
    6CHTO   N15 2286   6.595   4.938   1.240
    6CHTO  H143 2287   6.651   5.010   1.185
    6CHTO  H144 2288   6.501   4.921   1.190
    6CHTO   C87 2289   6.816   4.821   1.203
    6CHTO  H159 2290   6.813   4.845   1.097
    6CHTO   O53 2291   6.887   4.688   1.225
    6CHTO   C82 2292   6.828   4.583   1.146
    6CHTO  H154 2293   6.827   4.611   1.040
    6CHTO   C89 2294   6.915   4.456   1.159
    6CHTO   O59 2295   7.047   4.479   1.107
    6CHTO  H137 2296   7.097   4.401   1.115
    6CHTO   O45 2297   6.899   4.937   1.283
    6CHTO   C67 2298   7.029   4.966   1.230
    6CHTO  H124 2299   7.090   4.875   1.235
    6CHTO   C65 2300   7.025   5.016   1.080
    6CHTO  H122 2301   6.920   5.035   1.057
    6CHTO   O44 2302   7.071   4.907   0.997
    6CHTO  H102 2303   7.164   4.896   1.007
    6CHTO   C63 2304   7.095   5.155   1.060
    6CHTO  H120 2305   7.037   5.231   1.112
    6CHTO   N11 2306   7.094   5.210   0.921
    6CHTO  H108 2307   7.157   5.151   0.858
    6CHTO  H109 2308   7.129   5.311   0.921
    6CHTO   C61 2309   7.237   5.154   1.129
    6CHTO  H118 2310   7.269   5.259   1.132
    6CHTO   O40 2311   7.232   5.108   1.267
    6CHTO   C68 2312   7.102   5.070   1.322
    6CHTO  H125 2313   7.041   5.162   1.331
    6CHTO   C72 2314   7.122   5.016   1.466
    6CHTO   O48 2315   7.176   5.115   1.555
    6CHTO  H105 2316   7.264   5.135   1.531
    6CHTO   O38 2317   7.335   5.074   1.059
    6CHTO   C55 2318   7.470   5.094   1.106
    6CHTO  H112 2319   7.470   5.140   1.206
    6CHTO   C56 2320   7.553   5.179   1.002
    6CHTO  H113 2321   7.557   5.123   0.907
    6CHTO   O42 2322   7.486   5.303   0.974
    6CHTO  H100 2323   7.404   5.286   0.930
    6CHTO   C57 2324   7.699   5.203   1.059
    6CHTO  H114 2325   7.687   5.267   1.146
    6CHTO   N10 2326   7.788   5.275   0.964
    6CHTO  H106 2327   7.862   5.332   1.019
    6CHTO  H107 2328   7.838   5.206   0.898
    6CHTO   C58 2329   7.762   5.068   1.104
    6CHTO  H115 2330   7.796   5.010   1.015
    6CHTO   O37 2331   7.673   4.987   1.183
    6CHTO   C59 2332   7.544   4.959   1.125
    6CHTO  H116 2333   7.556   4.906   1.031
    6CHTO   C70 2334   7.469   4.867   1.224
    6CHTO   O46 2335   7.350   4.809   1.170
    6CHTO  H103 2336   7.372   4.748   1.102
    6CHTO   O39 2337   7.884   5.098   1.203
    6CHTO   C60 2338   8.005   5.023   1.181
    6CHTO  H117 2339   7.980   4.924   1.145
    6CHTO   C62 2340   8.097   5.093   1.076
    6CHTO  H119 2341   8.043   5.087   0.979
    6CHTO   O43 2342   8.114   5.231   1.111
    6CHTO  H101 2343   8.033   5.278   1.101
    6CHTO   C66 2344   8.238   5.014   1.064
    6CHTO  H123 2345   8.217   4.910   1.039
    6CHTO   N12 2346   8.323   5.067   0.954
    6CHTO  H110 2347   8.274   5.148   0.902
    6CHTO  H111 2348   8.349   4.987   0.886
    6CHTO   C69 2349   8.309   5.016   1.202
    6CHTO  H126 2350   8.323   5.121   1.236
    6CHTO   O41 2351   8.217   4.939   1.303
    6CHTO   C64 2352   8.077   5.005   1.318
    6CHTO  H121 2353   8.089   5.105   1.365
    6CHTO   C71 2354   7.991   4.919   1.415
    6CHTO   O47 2355   7.977   4.784   1.369
    6CHTO  H104 2356   7.924   4.735   1.430
    6CHTO   O34 2357   8.455   4.945   1.201
    6CHTO   C49 2358   8.595   4.931   1.132
    6CHTO   H91 2359   8.576   4.896   1.030
    6CHTO   C47 2360   8.678   4.826   1.209
    6CHTO   H89 2361   8.769   4.811   1.147
    6CHTO   O33 2362   8.607   4.701   1.213
    6CHTO   H70 2363   8.528   4.709   1.264
    6CHTO   C45 2364   8.716   4.877   1.358
    6CHTO   H87 2365   8.634   4.849   1.426
    6CHTO    N8 2366   8.839   4.807   1.401
    6CHTO   H75 2367   8.825   4.700   1.397
    6CHTO   H76 2368   8.922   4.836   1.339
    6CHTO   C43 2369   8.720   5.039   1.363
    6CHTO   H85 2370   8.617   5.069   1.381
    6CHTO   O29 2371   8.768   5.090   1.237
    6CHTO   C50 2372   8.679   5.064   1.127
    6CHTO   H92 2373   8.608   5.148   1.119
    6CHTO   C54 2374   8.760   5.073   0.995
    6CHTO   O36 2375   8.814   5.204   0.974
    6CHTO   H72 2376   8.882   5.221   1.037
    6CHTO   O27 2377   8.794   5.092   1.474
    6CHTO   C37 2378   8.866   5.206   1.523
    6CHTO   H79 2379   8.954   5.225   1.460
    6CHTO   C38 2380   8.778   5.335   1.519
    6CHTO   H80 2381   8.681   5.313   1.566
    6CHTO   O31 2382   8.756   5.368   1.380
    6CHTO   H68 2383   8.700   5.304   1.340
    6CHTO   C39 2384   8.846   5.455   1.596
    6CHTO   H81 2385   8.939   5.480   1.544
    6CHTO    N7 2386   8.763   5.580   1.600
    6CHTO   H73 2387   8.670   5.566   1.547
    6CHTO   H74 2388   8.743   5.611   1.702
    6CHTO   C40 2389   8.887   5.406   1.741
    6CHTO   H82 2390   8.797   5.382   1.797
    6CHTO   O26 2391   8.976   5.294   1.729
    6CHTO   C41 2392   8.915   5.176   1.668
    6CHTO   H83 2393   8.830   5.142   1.729
    6CHTO   C52 2394   9.021   5.063   1.666
    6CHTO   O35 2395   9.073   5.032   1.798
    6CHTO   H71 2396   9.137   4.963   1.791
    6CHTO   O28 2397   8.967   5.502   1.814
    6CHTO   C42 2398   8.944   5.533   1.956
    6CHTO   H84 2399   9.043   5.560   1.992
    6CHTO   C44 2400   8.895   5.417   2.050
    6CHTO   H86 2401   8.798   5.383   2.016
    6CHTO   O32 2402   8.989   5.309   2.036
    6CHTO   H69 2403   8.960   5.234   2.084
    6CHTO   C48 2404   8.880   5.465   2.201
    6CHTO   H90 2405   8.979   5.493   2.237
    6CHTO    N9 2406   8.834   5.354   2.291
    6CHTO   H77 2407   8.905   5.273   2.290
    6CHTO   H78 2408   8.736   5.319   2.260
    6CHTO   C51 2409   8.787   5.592   2.207
    6CHTO   H93 2410   8.687   5.564   2.172
    6CHTO   O30 2411   8.846   5.694   2.124
    6CHTO   C46 2412   8.853   5.657   1.976
    6CHTO   H88 2413   8.752   5.634   1.940
    6CHTO   C53 2414   8.909   5.781   1.901
    6CHTO   O72 2415   8.821   5.893   1.912
    6CHTO  H199 2416   8.743   5.877   1.863
    6CHTO   O22 2417   8.780   5.650   2.339
    6CHTO   C31 2418   8.684   5.756   2.381
    6CHTO   H59 2419   8.709   5.779   2.486
    6CHTO   C29 2420   8.696   5.888   2.302
    6CHTO   H57 2421   8.682   5.864   2.195
    6CHTO   O21 2422   8.831   5.935   2.317
    6CHTO   H37 2423   8.847   6.008   2.260
    6CHTO   C27 2424   8.588   5.997   2.344
    6CHTO   H55 2425   8.609   6.028   2.447
    6CHTO    N5 2426   8.592   6.117   2.256
    6CHTO   H43 2427   8.520   6.190   2.291
    6CHTO   H44 2428   8.691   6.160   2.257
    6CHTO   C25 2429   8.446   5.930   2.343
    6CHTO   H53 2430   8.422   5.898   2.240
    6CHTO   O17 2431   8.449   5.813   2.429
    6CHTO   C32 2432   8.535   5.707   2.383
    6CHTO   H60 2433   8.506   5.676   2.283
    6CHTO   C36 2434   8.512   5.590   2.482
    6CHTO   O25 2435   8.565   5.467   2.433
    6CHTO   H40 2436   8.550   5.399   2.496
    6CHTO   O15 2437   8.329   6.027   2.394
    6CHTO   C19 2438   8.223   6.127   2.388
    6CHTO   H47 2439   8.177   6.121   2.488
    6CHTO   C20 2440   8.271   6.273   2.363
    6CHTO   H48 2441   8.323   6.284   2.266
    6CHTO   O19 2442   8.365   6.306   2.467
    6CHTO   H35 2443   8.444   6.257   2.456
    6CHTO   C21 2444   8.150   6.376   2.365
    6CHTO   H49 2445   8.111   6.381   2.467
    6CHTO    N4 2446   8.189   6.515   2.328
    6CHTO   H41 2447   8.295   6.521   2.307
    6CHTO   H42 2448   8.165   6.583   2.408
    6CHTO   C22 2449   8.033   6.324   2.276
    6CHTO   H50 2450   8.059   6.336   2.171
    6CHTO   O14 2451   8.002   6.187   2.304
    6CHTO   C23 2452   8.111   6.094   2.286
    6CHTO   H51 2453   8.146   6.103   2.182
    6CHTO   C34 2454   8.056   5.953   2.305
    6CHTO   O23 2455   7.963   5.918   2.202
    6CHTO   H38 2456   7.932   5.831   2.215
    6CHTO   O16 2457   7.910   6.393   2.307
    6CHTO   C24 2458   7.800   6.393   2.188
    6CHTO   H52 2459   7.820   6.316   2.114
    6CHTO   C26 2460   7.801   6.532   2.121
    6CHTO   H54 2461   7.796   6.610   2.201
    6CHTO   O20 2462   7.927   6.544   2.053
    6CHTO   H36 2463   7.937   6.631   2.018
    6CHTO   C30 2464   7.680   6.552   2.024
    6CHTO   H58 2465   7.689   6.484   1.938
    6CHTO    N6 2466   7.678   6.690   1.969
    6CHTO   H45 2467   7.588   6.743   1.997
    6CHTO   H46 2468   7.684   6.687   1.861
    6CHTO   C33 2469   7.548   6.513   2.097
    6CHTO   H61 2470   7.532   6.581   2.183
    6CHTO   O18 2471   7.560   6.379   2.148
    6CHTO   C28 2472   7.660   6.362   2.249
    6CHTO   H56 2473   7.642   6.430   2.332
    6CHTO   C35 2474   7.655   6.217   2.300
    6CHTO   O24 2475   7.528   6.185   2.358
    6CHTO   H39 2476   7.529   6.096   2.388
    6CHTO    O9 2477   7.431   6.527   2.013
    6CHTO   C13 2478   7.296   6.568   2.093
    6CHTO   H26 2479   7.321   6.654   2.159
    6CHTO   C11 2480   7.240   6.445   2.176
    6CHTO   H24 2481   7.312   6.423   2.256
    6CHTO    O8 2482   7.230   6.327   2.093
    6CHTO    H3 2483   7.168   6.341   2.024
    6CHTO    C9 2484   7.106   6.489   2.241
    6CHTO   H22 2485   7.131   6.579   2.300
    6CHTO    N2 2486   7.053   6.394   2.342
    6CHTO   H10 2487   7.023   6.302   2.293
    6CHTO   H11 2488   7.126   6.375   2.418
    6CHTO    C7 2489   7.004   6.529   2.130
    6CHTO   H20 2490   6.916   6.566   2.186
    6CHTO    O4 2491   7.055   6.637   2.049
    6CHTO   C14 2492   7.188   6.625   1.991
    6CHTO   H27 2493   7.217   6.728   1.966
    6CHTO   C18 2494   7.183   6.546   1.857
    6CHTO   O13 2495   7.107   6.615   1.758
    6CHTO    H7 2496   7.150   6.694   1.733
    6CHTO    O2 2497   6.958   6.407   2.032
    6CHTO    C1 2498   6.821   6.405   1.986
    6CHTO   H14 2499   6.820   6.351   1.889
    6CHTO    C2 2500   6.749   6.547   1.964
    6CHTO   H15 2501   6.756   6.602   2.059
    6CHTO    O6 2502   6.819   6.618   1.862
    6CHTO    H1 2503   6.786   6.706   1.855
    6CHTO    C3 2504   6.594   6.528   1.926
    6CHTO   H16 2505   6.587   6.484   1.825
    6CHTO    N1 2506   6.520   6.659   1.921
    6CHTO    H8 2507   6.524   6.707   2.017
    6CHTO    H9 2508   6.564   6.723   1.846
    6CHTO    C4 2509   6.524   6.425   2.022
    6CHTO   H17 2510   6.511   6.471   2.120
    6CHTO    O1 2511   6.602   6.305   2.034
    6CHTO    C5 2512   6.736   6.318   2.083
    6CHTO   H18 2513   6.737   6.364   2.182
    6CHTO   C16 2514   6.787   6.172   2.096
    6CHTO   O11 2515   6.915   6.161   2.159
    6CHTO    H5 2516   6.940   6.070   2.162
    6CHTO    O3 2517   6.398   6.378   1.969
    6CHTO    C6 2518   6.293   6.353   2.068
    6CHTO   H19 2519   6.327   6.373   2.170
    6CHTO    C8 2520   6.169   6.445   2.042
    6CHTO   H21 2521   6.135   6.428   1.940
    6CHTO    O7 2522   6.214   6.581   2.057
    6CHTO    H2 2523   6.145   6.640   2.033
    6CHTO   C12 2524   6.052   6.409   2.143
    6CHTO   H25 2525   6.090   6.433   2.245
    6CHTO    N3 2526   5.930   6.494   2.121
    6CHTO   H12 2527   5.892   6.479   2.022
    6CHTO   H13 2528   5.855   6.471   2.195
    6CHTO   C15 2529   6.022   6.256   2.136
    6CHTO   H28 2530   5.978   6.227   2.041
    6CHTO   O10 2531   5.931   6.206   2.252
    6CHTO    H4 2532   5.966   6.233   2.335
    6CHTO    O5 2533   6.142   6.180   2.159
    6CHTO   C10 2534   6.248   6.204   2.064
    6CHTO   H23 2535   6.212   6.179   1.964
    6CHTO   C17 2536   6.361   6.107   2.099
    6CHTO   O12 2537   6.321   5.970   2.084
    6CHTO    H6 2538   6.258   5.948   2.150
    7CHTO  H203 2539   5.383   2.246   2.480
    7CHTO   O82 2540   5.431   2.200   2.413
    7CHTO  C123 2541   5.548   2.275   2.375
    7CHTO  H227 2542   5.518   2.380   2.358
    7CHTO   O77 2543   5.634   2.265   2.492
    7CHTO  C118 2544   5.756   2.341   2.481
    7CHTO  H222 2545   5.731   2.446   2.460
    7CHTO  C125 2546   5.831   2.334   2.620
    7CHTO   O84 2547   5.865   2.199   2.657
    7CHTO  H205 2548   5.931   2.166   2.599
    7CHTO  C114 2549   5.841   2.286   2.365
    7CHTO  H218 2550   5.867   2.182   2.388
    7CHTO  C116 2551   5.761   2.286   2.231
    7CHTO  H220 2552   5.746   2.391   2.198
    7CHTO   O79 2553   5.842   2.222   2.130
    7CHTO  H201 2554   5.918   2.274   2.111
    7CHTO  C120 2555   5.621   2.214   2.249
    7CHTO  H224 2556   5.642   2.107   2.266
    7CHTO   N21 2557   5.538   2.223   2.126
    7CHTO  H211 2558   5.479   2.314   2.126
    7CHTO  H212 2559   5.599   2.218   2.037
    7CHTO   O75 2560   5.959   2.368   2.362
    7CHTO  C112 2561   6.096   2.286   2.342
    7CHTO  H216 2562   6.083   2.214   2.259
    7CHTO   O73 2563   6.124   2.218   2.466
    7CHTO  C113 2564   6.239   2.134   2.463
    7CHTO  H217 2565   6.226   2.056   2.384
    7CHTO  C124 2566   6.249   2.062   2.598
    7CHTO   O83 2567   6.136   1.979   2.627
    7CHTO  H204 2568   6.134   1.907   2.567
    7CHTO  C109 2569   6.367   2.218   2.434
    7CHTO  H213 2570   6.380   2.286   2.520
    7CHTO  C110 2571   6.349   2.301   2.303
    7CHTO  H214 2572   6.346   2.232   2.219
    7CHTO   O78 2573   6.463   2.386   2.286
    7CHTO  H200 2574   6.540   2.335   2.269
    7CHTO  C111 2575   6.216   2.383   2.309
    7CHTO  H215 2576   6.224   2.456   2.391
    7CHTO   N19 2577   6.189   2.459   2.185
    7CHTO  H207 2578   6.270   2.528   2.165
    7CHTO  H208 2579   6.097   2.515   2.196
    7CHTO   O74 2580   6.483   2.130   2.425
    7CHTO  C115 2581   6.609   2.190   2.494
    7CHTO  H219 2582   6.614   2.299   2.482
    7CHTO   O76 2583   6.608   2.164   2.654
    7CHTO  C122 2584   6.619   2.025   2.688
    7CHTO  H226 2585   6.536   1.971   2.643
    7CHTO  C126 2586   6.599   2.012   0.001
    7CHTO   O85 2587   6.594   1.877   0.047
    7CHTO  H206 2588   6.678   1.836   0.036
    7CHTO  C121 2589   6.757   1.971   2.635
    7CHTO  H225 2590   6.839   2.035   2.674
    7CHTO   O81 2591   6.782   1.836   2.677
    7CHTO  H202 2592   6.868   1.809   2.651
    7CHTO  C119 2593   6.754   1.981   2.479
    7CHTO  H223 2594   6.850   1.942   2.444
    7CHTO  C117 2595   6.736   2.127   2.424
    7CHTO  H221 2596   6.715   2.134   2.318
    7CHTO   N20 2597   6.857   2.213   2.445
    7CHTO  H209 2598   6.841   2.312   2.403
    7CHTO  H210 2599   6.943   2.168   2.398
    7CHTO   O80 2600   6.655   1.879   2.416
    7CHTO  C103 2601   6.689   1.806   2.280
    7CHTO  H190 2602   6.680   1.874   2.196
    7CHTO  C101 2603   6.830   1.733   2.274
    7CHTO  H188 2604   6.851   1.691   2.373
    7CHTO   O68 2605   6.941   1.839   2.242
    7CHTO  H168 2606   6.944   1.904   2.309
    7CHTO   C99 2607   6.835   1.612   2.168
    7CHTO  H186 2608   6.829   1.654   2.066
    7CHTO   N17 2609   6.962   1.533   2.174
    7CHTO  H174 2610   6.969   1.482   2.269
    7CHTO  H175 2611   6.965   1.463   2.092
    7CHTO   C97 2612   6.708   1.524   2.185
    7CHTO  H184 2613   6.710   1.485   2.288
    7CHTO   O64 2614   6.594   1.608   2.162
    7CHTO  C104 2615   6.571   1.701   2.269
    7CHTO  H191 2616   6.559   1.649   2.364
    7CHTO  C108 2617   6.435   1.767   2.240
    7CHTO   O71 2618   6.385   1.842   2.351
    7CHTO  H171 2619   6.303   1.880   2.328
    7CHTO   O62 2620   6.698   1.414   2.090
    7CHTO   C91 2621   6.589   1.319   2.101
    7CHTO  H178 2622   6.627   1.225   2.061
    7CHTO   C92 2623   6.474   1.364   2.003
    7CHTO  H179 2624   6.460   1.473   2.011
    7CHTO   O66 2625   6.522   1.342   1.868
    7CHTO  H166 2626   6.593   1.400   1.849
    7CHTO   C93 2627   6.336   1.291   2.025
    7CHTO  H180 2628   6.349   1.186   1.993
    7CHTO   N16 2629   6.225   1.343   1.940
    7CHTO  H172 2630   6.146   1.384   2.001
    7CHTO  H173 2631   6.261   1.417   1.870
    7CHTO   C94 2632   6.303   1.294   2.178
    7CHTO  H181 2633   6.303   1.396   2.217
    7CHTO   O61 2634   6.405   1.221   2.245
    7CHTO   C95 2635   6.533   1.286   2.248
    7CHTO  H182 2636   6.525   1.377   2.306
    7CHTO  C106 2637   6.628   1.188   2.326
    7CHTO   O69 2638   6.759   1.243   2.345
    7CHTO  H169 2639   6.755   1.317   2.403
    7CHTO   O63 2640   6.163   1.220   2.214
    7CHTO   C96 2641   6.087   1.288   2.332
    7CHTO  H183 2642   6.085   1.395   2.312
    7CHTO   C98 2643   6.152   1.267   2.473
    7CHTO  H185 2644   6.257   1.300   2.471
    7CHTO   O67 2645   6.087   1.355   2.566
    7CHTO  H167 2646   5.995   1.335   2.572
    7CHTO  C102 2647   6.137   1.116   2.526
    7CHTO  H189 2648   6.142   1.123   2.636
    7CHTO   N18 2649   6.249   1.027   2.487
    7CHTO  H176 2650   6.233   0.928   2.528
    7CHTO  H177 2651   6.255   1.020   2.379
    7CHTO  C105 2652   5.997   1.059   2.487
    7CHTO  H192 2653   6.007   0.993   2.401
    7CHTO   O65 2654   5.902   1.161   2.452
    7CHTO  C100 2655   5.937   1.233   2.332
    7CHTO  H187 2656   5.924   1.165   2.247
    7CHTO  C107 2657   5.836   1.350   2.312
    7CHTO   O70 2658   5.703   1.302   2.291
    7CHTO  H170 2659   5.697   1.260   2.207
    7CHTO   O57 2660   5.950   0.974   2.616
    7CHTO   C85 2661   5.928   0.833   2.601
    7CHTO  H157 2662   5.979   0.802   2.507
    7CHTO   C83 2663   5.776   0.805   2.577
    7CHTO  H155 2664   5.745   0.859   2.488
    7CHTO   O56 2665   5.700   0.861   2.687
    7CHTO  H135 2666   5.608   0.854   2.669
    7CHTO   C81 2667   5.755   0.653   2.554
    7CHTO  H153 2668   5.813   0.624   2.467
    7CHTO   N14 2669   5.615   0.619   2.517
    7CHTO  H141 2670   5.608   0.515   2.491
    7CHTO  H142 2671   5.585   0.677   2.432
    7CHTO   C79 2672   5.807   0.569   2.678
    7CHTO  H151 2673   5.809   0.464   2.647
    7CHTO   O52 2674   5.945   0.603   2.711
    7CHTO   C86 2675   5.974   0.746   2.724
    7CHTO  H158 2676   5.920   0.776   2.816
    7CHTO   C90 2677   6.124   0.766   2.755
    7CHTO   O60 2678   6.208   0.712   2.652
    7CHTO  H138 2679   6.298   0.727   2.674
    7CHTO   O50 2680   5.726   0.579   2.797
    7CHTO   C73 2681   5.701   0.462   0.036
    7CHTO  H145 2682   5.785   0.391   0.027
    7CHTO   C74 2683   5.571   0.391   2.829
    7CHTO  H146 2684   5.585   0.368   2.722
    7CHTO   O54 2685   5.560   0.264   0.054
    7CHTO  H133 2686   5.629   0.206   0.026
    7CHTO   C75 2687   5.447   0.485   0.012
    7CHTO  H147 2688   5.462   0.578   2.796
    7CHTO   N13 2689   5.318   0.430   2.808
    7CHTO  H139 2690   5.321   0.413   2.701
    7CHTO  H140 2691   5.298   0.335   0.014
    7CHTO   C76 2692   5.443   0.527   0.167
    7CHTO  H148 2693   5.424   0.437   0.226
    7CHTO   O49 2694   5.571   0.586   0.208
    7CHTO   C77 2695   5.685   0.501   0.186
    7CHTO  H149 2696   5.671   0.409   0.244
    7CHTO   C88 2697   5.810   0.566   0.246
    7CHTO   O58 2698   5.831   0.706   0.198
    7CHTO  H136 2699   5.761   0.761   0.228
    7CHTO   O51 2700   5.337   0.639   0.192
    7CHTO   C78 2701   5.314   0.672   0.342
    7CHTO  H150 2702   5.401   0.641   0.405
    7CHTO   C80 2703   5.188   0.598   0.392
    7CHTO  H152 2704   5.105   0.617   0.320
    7CHTO   O55 2705   5.217   0.457   0.388
    7CHTO  H134 2706   5.140   0.407   0.409
    7CHTO   C84 2707   5.143   0.646   0.536
    7CHTO  H156 2708   5.222   0.618   0.606
    7CHTO   N15 2709   5.017   0.579   0.582
    7CHTO  H143 2710   4.991   0.614   0.680
    7CHTO  H144 2711   5.031   0.473   0.585
    7CHTO   C87 2712   5.130   0.800   0.535
    7CHTO  H159 2713   5.051   0.829   0.465
    7CHTO   O53 2714   5.267   0.860   0.490
    7CHTO   C82 2715   5.301   0.825   0.355
    7CHTO  H154 2716   5.226   0.864   0.287
    7CHTO   C89 2717   5.434   0.898   0.322
    7CHTO   O59 2718   5.468   0.891   0.182
    7CHTO  H137 2719   5.406   0.941   0.132
    7CHTO   O45 2720   5.085   0.859   0.689
    7CHTO   C67 2721   5.176   0.948   0.755
    7CHTO  H124 2722   5.268   0.957   0.698
    7CHTO   C65 2723   5.113   1.090   0.772
    7CHTO  H122 2724   5.005   1.075   0.784
    7CHTO   O44 2725   5.136   1.159   0.647
    7CHTO  H102 2726   5.225   1.184   0.640
    7CHTO   C63 2727   5.158   1.163   0.905
    7CHTO  H120 2728   5.098   1.124   0.988
    7CHTO   N11 2729   5.130   1.310   0.915
    7CHTO  H108 2730   5.191   1.363   0.845
    7CHTO  H109 2731   5.027   1.329   0.895
    7CHTO   C61 2732   5.306   1.122   0.938
    7CHTO  H118 2733   5.333   1.170   1.034
    7CHTO   O40 2734   5.321   0.978   0.958
    7CHTO   C68 2735   5.221   0.891   0.896
    7CHTO  H125 2736   5.132   0.884   0.963
    7CHTO   C72 2737   5.280   0.748   0.884
    7CHTO   O48 2738   5.311   0.690   1.011
    7CHTO  H105 2739   5.386   0.733   1.048
    7CHTO   O38 2740   5.397   1.165   0.834
    7CHTO   C55 2741   5.537   1.162   0.867
    7CHTO  H112 2742   5.555   1.093   0.952
    7CHTO   C56 2743   5.589   1.309   0.899
    7CHTO  H113 2744   5.561   1.372   0.813
    7CHTO   O42 2745   5.519   1.362   1.013
    7CHTO  H100 2746   5.535   1.310   1.089
    7CHTO   C57 2747   5.746   1.309   0.921
    7CHTO  H114 2748   5.765   1.254   1.013
    7CHTO   N10 2749   5.804   1.445   0.938
    7CHTO  H106 2750   5.732   1.511   0.986
    7CHTO  H107 2751   5.893   1.440   0.999
    7CHTO   C58 2752   5.815   1.234   0.803
    7CHTO  H115 2753   5.801   1.293   0.709
    7CHTO   O37 2754   5.757   1.104   0.786
    7CHTO   C59 2755   5.619   1.104   0.749
    7CHTO  H116 2756   5.604   1.165   0.659
    7CHTO   C70 2757   5.577   0.960   0.717
    7CHTO   O46 2758   5.646   0.906   0.604
    7CHTO  H103 2759   5.738   0.896   0.624
    7CHTO   O39 2760   5.976   1.216   0.834
    7CHTO   C60 2761   6.040   1.101   0.776
    7CHTO  H117 2762   5.981   1.012   0.799
    7CHTO   C62 2763   6.052   1.111   0.621
    7CHTO  H119 2764   5.947   1.114   0.582
    7CHTO   O43 2765   6.118   1.233   0.584
    7CHTO  H101 2766   6.063   1.307   0.602
    7CHTO   C66 2767   6.124   0.979   0.566
    7CHTO  H123 2768   6.069   0.892   0.600
    7CHTO   N12 2769   6.122   0.973   0.417
    7CHTO  H110 2770   6.222   0.972   0.377
    7CHTO  H111 2771   6.066   0.887   0.384
    7CHTO   C69 2772   6.266   0.972   0.629
    7CHTO  H126 2773   6.324   1.063   0.603
    7CHTO   O41 2774   6.249   0.961   0.782
    7CHTO   C64 2775   6.179   1.080   0.844
    7CHTO  H121 2776   6.240   1.172   0.830
    7CHTO   C71 2777   6.165   1.052   0.995
    7CHTO   O47 2778   6.124   1.168   1.069
    7CHTO  H104 2779   6.036   1.192   1.045
    7CHTO   O34 2780   6.344   0.851   0.583
    7CHTO   C49 2781   6.420   0.731   0.538
    7CHTO   H91 2782   6.442   0.674   0.629
    7CHTO   C47 2783   6.554   0.773   0.472
    7CHTO   H89 2784   6.628   0.771   0.556
    7CHTO   O33 2785   6.549   0.906   0.419
    7CHTO   H70 2786   6.486   0.911   0.349
    7CHTO   C45 2787   6.598   0.672   0.354
    7CHTO   H87 2788   6.548   0.704   0.262
    7CHTO    N8 2789   6.744   0.680   0.331
    7CHTO   H75 2790   6.772   0.619   0.247
    7CHTO   H76 2791   6.773   0.783   0.312
    7CHTO   C43 2792   6.545   0.523   0.379
    7CHTO   H85 2793   6.579   0.463   0.295
    7CHTO   O29 2794   6.401   0.523   0.389
    7CHTO   C50 2795   6.336   0.640   0.444
    7CHTO   H92 2796   6.299   0.702   0.360
    7CHTO   C54 2797   6.207   0.594   0.516
    7CHTO   O36 2798   6.109   0.543   0.424
    7CHTO   H72 2799   6.141   0.465   0.383
    7CHTO   O27 2800   6.600   0.462   0.498
    7CHTO   C37 2801   6.643   0.329   0.530
    7CHTO   H79 2802   6.631   0.312   0.638
    7CHTO   C38 2803   6.558   0.219   0.458
    7CHTO   H80 2804   6.557   0.241   0.350
    7CHTO   O31 2805   6.424   0.229   0.510
    7CHTO   H68 2806   6.367   0.170   0.463
    7CHTO   C39 2807   6.620   0.075   0.481
    7CHTO   H81 2808   6.614   0.053   0.588
    7CHTO    N7 2809   6.545   9.966   0.410
    7CHTO   H73 2810   6.544   9.984   0.303
    7CHTO   H74 2811   6.444   9.960   0.447
    7CHTO   C40 2812   6.772   0.076   0.442
    7CHTO   H82 2813   6.784   0.093   0.334
    7CHTO   O26 2814   6.839   0.177   0.519
    7CHTO   C41 2815   6.794   0.314   0.495
    7CHTO   H83 2816   6.811   0.340   0.389
    7CHTO   C52 2817   6.881   0.406   0.583
    7CHTO   O35 2818   7.026   0.391   0.556
    7CHTO   H71 2819   7.046   0.423   0.470
    7CHTO   O28 2820   6.843   9.956   0.479
    7CHTO   C42 2821   6.962   9.910   0.407
    7CHTO   H84 2822   7.010   9.843   0.479
    7CHTO   C44 2823   7.071   0.017   0.371
    7CHTO   H86 2824   7.026   0.093   0.308
    7CHTO   O32 2825   7.112   0.079   0.495
    7CHTO   H69 2826   7.043   0.133   0.529
    7CHTO   C48 2827   7.194   9.955   0.294
    7CHTO   H90 2828   7.246   9.887   0.362
    7CHTO    N9 2829   7.295   0.059   0.254
    7CHTO   H77 2830   7.334   0.108   0.342
    7CHTO   H78 2831   7.376   0.013   0.199
    7CHTO   C51 2832   7.143   9.871   0.171
    7CHTO   H93 2833   7.095   9.939   0.100
    7CHTO   O30 2834   7.052   9.770   0.217
    7CHTO   C46 2835   6.926   9.826   0.282
    7CHTO   H88 2836   6.875   9.889   0.209
    7CHTO   C53 2837   6.835   9.706   0.318
    7CHTO   O72 2838   6.898   9.616   0.411
    7CHTO  H199 2839   6.969   9.572   0.369
    7CHTO   O22 2840   7.248   9.796   0.106
    7CHTO   C31 2841   7.250   9.773   2.802
    7CHTO   H59 2842   7.325   9.693   2.785
    7CHTO   C29 2843   7.116   9.723   2.742
    7CHTO   H57 2844   7.038   9.796   2.768
    7CHTO   O21 2845   7.081   9.599   2.808
    7CHTO   H37 2846   7.064   9.614   0.057
    7CHTO   C27 2847   7.123   9.708   2.585
    7CHTO   H55 2848   7.197   9.631   2.560
    7CHTO    N5 2849   6.992   9.670   2.525
    7CHTO   H43 2850   6.959   9.576   2.567
    7CHTO   H44 2851   7.003   9.660   2.418
    7CHTO   C25 2852   7.175   9.844   2.526
    7CHTO   H53 2853   7.104   9.924   2.554
    7CHTO   O17 2854   7.305   9.876   2.583
    7CHTO   C32 2855   7.302   9.899   2.724
    7CHTO   H60 2856   7.237   9.983   2.745
    7CHTO   C36 2857   7.446   9.938   2.767
    7CHTO   O25 2858   7.543   9.837   2.737
    7CHTO   H40 2859   7.527   9.761   2.789
    7CHTO   O15 2860   7.192   9.842   2.366
    7CHTO   C19 2861   7.159   9.959   2.285
    7CHTO   H47 2862   7.186   9.928   2.183
    7CHTO   C20 2863   7.007   9.994   2.288
    7CHTO   H48 2864   6.971   0.012   2.391
    7CHTO   O19 2865   6.938   9.879   2.236
    7CHTO   H35 2866   6.845   9.891   2.244
    7CHTO   C21 2867   6.976   0.124   2.203
    7CHTO   H49 2868   6.999   0.103   2.098
    7CHTO    N4 2869   6.833   0.163   2.210
    7CHTO   H41 2870   6.790   0.165   2.111
    7CHTO   H42 2871   6.820   0.259   2.257
    7CHTO   C22 2872   7.072   0.237   2.249
    7CHTO   H50 2873   7.050   0.262   2.353
    7CHTO   O14 2874   7.208   0.195   2.235
    7CHTO   C23 2875   7.245   0.084   2.318
    7CHTO   H51 2876   7.234   0.116   2.423
    7CHTO   C34 2877   7.394   0.055   2.295
    7CHTO   O23 2878   7.476   0.165   2.336
    7CHTO   H38 2879   7.566   0.146   2.316
    7CHTO   O16 2880   7.060   0.353   2.165
    7CHTO   C24 2881   7.063   0.493   2.238
    7CHTO   H52 2882   7.088   0.483   2.344
    7CHTO   C26 2883   6.925   0.560   2.224
    7CHTO   H54 2884   6.893   0.551   2.117
    7CHTO   O20 2885   6.830   0.485   2.302
    7CHTO   H36 2886   6.851   0.490   2.394
    7CHTO   C30 2887   6.926   0.711   2.262
    7CHTO   H58 2888   6.938   0.721   2.371
    7CHTO    N6 2889   6.796   0.777   2.229
    7CHTO   H45 2890   6.799   0.881   2.257
    7CHTO   H46 2891   6.716   0.728   2.282
    7CHTO   C33 2892   7.048   0.783   2.197
    7CHTO   H61 2893   7.035   0.784   2.087
    7CHTO   O18 2894   7.169   0.712   2.228
    7CHTO   C28 2895   7.175   0.580   2.174
    7CHTO   H56 2896   7.160   0.582   2.066
    7CHTO   C35 2897   7.316   0.520   2.200
    7CHTO   O24 2898   7.349   0.510   2.339
    7CHTO   H39 2899   7.356   0.595   2.377
    7CHTO    O9 2900   7.056   0.921   2.237
    7CHTO   C13 2901   7.101   1.024   2.120
    7CHTO   H26 2902   7.030   1.012   2.036
    7CHTO   C11 2903   7.251   0.997   2.076
    7CHTO   H24 2904   7.252   0.900   2.024
    7CHTO    O8 2905   7.337   0.985   2.191
    7CHTO    H3 2906   7.423   0.959   2.164
    7CHTO    C9 2907   7.293   1.107   1.975
    7CHTO   H22 2908   7.219   1.103   1.894
    7CHTO    N2 2909   7.423   1.080   1.909
    7CHTO   H10 2910   7.503   1.083   1.982
    7CHTO   H11 2911   7.421   0.985   1.859
    7CHTO    C7 2912   7.285   1.249   2.043
    7CHTO   H20 2913   7.297   1.319   1.958
    7CHTO    O4 2914   7.156   1.275   2.103
    7CHTO   C14 2915   7.079   1.173   2.171
    7CHTO   H27 2916   6.974   1.199   2.147
    7CHTO   C18 2917   7.095   1.190   2.325
    7CHTO   O13 2918   7.227   1.165   2.374
    7CHTO    H7 2919   7.286   1.232   2.342
    7CHTO    O2 2920   7.402   1.275   2.155
    7CHTO    C1 2921   7.458   1.408   2.151
    7CHTO   H14 2922   7.377   1.481   2.127
    7CHTO    C2 2923   7.575   1.426   2.045
    7CHTO   H15 2924   7.643   1.341   2.061
    7CHTO    O6 2925   7.520   1.420   1.913
    7CHTO    H1 2926   7.490   1.333   1.894
    7CHTO    C3 2927   7.654   1.565   2.066
    7CHTO   H16 2928   7.588   1.648   2.039
    7CHTO    N1 2929   7.776   1.575   1.978
    7CHTO    H8 2930   7.825   1.669   1.994
    7CHTO    H9 2931   7.844   1.494   2.001
    7CHTO    C4 2932   7.688   1.586   2.219
    7CHTO   H17 2933   7.762   1.511   2.249
    7CHTO    O1 2934   7.569   1.574   2.298
    7CHTO    C5 2935   7.508   1.444   2.294
    7CHTO   H18 2936   7.582   1.369   2.324
    7CHTO   C16 2937   7.394   1.446   2.400
    7CHTO   O11 2938   7.292   1.542   2.369
    7CHTO    H5 2939   7.327   1.628   2.377
    7CHTO    O3 2940   7.737   1.719   2.246
    7CHTO    C6 2941   7.830   1.731   2.359
    7CHTO   H19 2942   7.840   1.638   2.416
    7CHTO    C8 2943   7.972   1.770   2.306
    7CHTO   H21 2944   7.962   1.858   2.243
    7CHTO    O7 2945   8.021   1.659   2.227
    7CHTO    H2 2946   8.034   1.583   2.281
    7CHTO   C12 2947   8.070   1.804   2.426
    7CHTO   H25 2948   8.085   1.710   2.482
    7CHTO    N3 2949   8.206   1.847   2.379
    7CHTO   H12 2950   8.212   1.847   2.271
    7CHTO   H13 2951   8.232   1.945   2.417
    7CHTO   C15 2952   8.001   1.908   2.521
    7CHTO   H28 2953   7.989   2.006   2.473
    7CHTO   O10 2954   8.076   1.927   2.657
    7CHTO    H4 2955   8.090   1.844   2.698
    7CHTO    O5 2956   7.873   1.860   2.565
    7CHTO   C10 2957   7.779   1.839   2.458
    7CHTO   H23 2958   7.765   1.933   2.404
    7CHTO   C17 2959   7.644   1.801   2.520
    7CHTO   O12 2960   7.592   1.908   2.601
    7CHTO    H6 2961   7.565   1.979   2.546
    8CHTO  H203 2962   7.625   8.686   1.373
    8CHTO   O82 2963   7.540   8.724   1.361
    8CHTO  C123 2964   7.465   8.716   1.483
    8CHTO  H227 2965   7.521   8.770   1.562
    8CHTO   O77 2966   7.343   8.788   1.450
    8CHTO  C118 2967   7.251   8.803   1.560
    8CHTO  H222 2968   7.300   8.852   1.645
    8CHTO  C125 2969   7.138   8.897   1.505
    8CHTO   O84 2970   7.051   8.945   1.608
    8CHTO  H205 2971   7.097   9.004   1.664
    8CHTO  C114 2972   7.200   8.663   1.601
    8CHTO  H218 2973   7.150   8.618   1.515
    8CHTO  C116 2974   7.320   8.571   1.639
    8CHTO  H220 2975   7.365   8.607   1.735
    8CHTO   O79 2976   7.269   8.439   1.665
    8CHTO  H201 2977   7.217   8.438   1.743
    8CHTO  C120 2978   7.431   8.568   1.526
    8CHTO  H224 2979   7.386   8.514   1.440
    8CHTO   N21 2980   7.552   8.493   1.567
    8CHTO  H211 2981   7.600   8.451   1.480
    8CHTO  H212 2982   7.527   8.415   1.637
    8CHTO   O75 2983   7.109   8.683   1.710
    8CHTO  C112 2984   6.961   8.614   1.688
    8CHTO  H216 2985   6.969   8.534   1.612
    8CHTO   O73 2986   6.872   8.718   1.645
    8CHTO  C113 2987   6.739   8.674   1.616
    8CHTO  H217 2988   6.743   8.595   1.538
    8CHTO  C124 2989   6.660   8.792   1.557
    8CHTO   O83 2990   6.650   8.905   1.645
    8CHTO  H204 2991   6.735   8.945   1.655
    8CHTO  C109 2992   6.672   8.618   1.744
    8CHTO  H213 2993   6.662   8.702   1.814
    8CHTO  C110 2994   6.759   8.506   1.807
    8CHTO  H214 2995   6.754   8.417   1.743
    8CHTO   O78 2996   6.702   8.469   1.935
    8CHTO  H200 2997   6.619   8.428   1.922
    8CHTO  C111 2998   6.908   8.551   1.823
    8CHTO  H215 2999   6.912   8.629   1.899
    8CHTO   N19 3000   6.996   8.440   1.869
    8CHTO  H207 3001   7.046   8.468   1.961
    8CHTO  H208 3002   7.070   8.414   1.794
    8CHTO   O74 3003   6.539   8.567   1.711
    8CHTO  C115 3004   6.421   8.585   1.821
    8CHTO  H219 3005   6.388   8.489   1.861
    8CHTO   O76 3006   6.472   8.671   1.953
    8CHTO  C122 3007   6.369   8.692   2.052
    8CHTO  H226 3008   6.398   8.780   2.109
    8CHTO  C126 3009   6.370   8.573   2.154
    8CHTO   O85 3010   6.494   8.565   2.226
    8CHTO  H206 3011   6.489   8.496   2.289
    8CHTO  C121 3012   6.225   8.715   1.990
    8CHTO  H225 3013   6.169   8.619   1.989
    8CHTO   O81 3014   6.150   8.807   2.071
    8CHTO  H202 3015   6.193   8.891   2.074
    8CHTO  C119 3016   6.240   8.766   1.843
    8CHTO  H223 3017   6.141   8.794   1.808
    8CHTO  C117 3018   6.300   8.657   1.747
    8CHTO  H221 3019   6.343   8.696   1.655
    8CHTO   N20 3020   6.196   8.558   1.702
    8CHTO  H209 3021   6.224   8.457   1.726
    8CHTO  H210 3022   6.179   8.567   1.595
    8CHTO   O80 3023   6.317   8.903   1.832
    8CHTO  C103 3024   6.238   9.033   1.803
    8CHTO  H190 3025   6.132   9.012   1.790
    8CHTO  C101 3026   6.254   9.148   1.909
    8CHTO  H188 3027   6.361   9.162   1.929
    8CHTO   O68 3028   6.185   9.104   2.041
    8CHTO  H168 3029   6.201   9.167   2.108
    8CHTO   C99 3030   6.195   9.286   1.853
    8CHTO  H186 3031   6.086   9.274   1.836
    8CHTO   N17 3032   6.211   9.402   1.947
    8CHTO  H174 3033   6.316   9.424   1.961
    8CHTO  H175 3034   6.158   9.488   1.909
    8CHTO   C97 3035   6.256   9.315   1.714
    8CHTO  H184 3036   6.364   9.334   1.726
    8CHTO   O64 3037   6.230   9.205   1.625
    8CHTO  C104 3038   6.292   9.082   1.663
    8CHTO  H191 3039   6.401   9.093   1.669
    8CHTO  C108 3040   6.266   8.979   1.551
    8CHTO   O71 3041   6.127   8.955   1.529
    8CHTO  H171 3042   6.090   8.913   1.604
    8CHTO   O62 3043   6.193   9.427   1.648
    8CHTO   C91 3044   6.268   9.488   1.540
    8CHTO  H178 3045   6.351   9.423   1.513
    8CHTO   C92 3046   6.331   9.622   1.591
    8CHTO  H179 3047   6.252   9.680   1.642
    8CHTO   O66 3048   6.427   9.589   1.694
    8CHTO  H166 3049   6.460   9.667   1.733
    8CHTO   C93 3050   6.398   9.707   1.476
    8CHTO  H180 3051   6.492   9.657   1.449
    8CHTO   N16 3052   6.437   9.843   1.522
    8CHTO  H172 3053   6.543   9.859   1.508
    8CHTO  H173 3054   6.380   9.920   1.472
    8CHTO   C94 3055   6.306   9.713   1.349
    8CHTO  H181 3056   6.215   9.770   1.367
    8CHTO   O61 3057   6.265   9.580   1.311
    8CHTO   C95 3058   6.184   9.516   1.411
    8CHTO  H182 3059   6.100   9.581   1.436
    8CHTO  C106 3060   6.123   9.384   1.351
    8CHTO   O69 3061   6.032   9.413   1.245
    8CHTO  H169 3062   5.995   9.333   1.213
    8CHTO   O63 3063   6.388   9.777   1.224
    8CHTO   C96 3064   6.307   9.776   1.088
    8CHTO  H183 3065   6.218   9.715   1.100
    8CHTO   C98 3066   6.389   9.720   0.968
    8CHTO  H185 3067   6.488   9.769   0.965
    8CHTO   O67 3068   6.416   9.582   0.998
    8CHTO  H167 3069   6.472   9.544   0.932
    8CHTO  C102 3070   6.313   9.734   0.827
    8CHTO  H189 3071   6.234   9.658   0.829
    8CHTO   N18 3072   6.396   9.701   0.708
    8CHTO  H176 3073   6.482   9.766   0.705
    8CHTO  H177 3074   6.428   9.598   0.713
    8CHTO  C105 3075   6.243   9.872   0.814
    8CHTO  H192 3076   6.317   9.947   0.784
    8CHTO   O65 3077   6.178   9.917   0.934
    8CHTO  C100 3078   6.261   9.922   1.051
    8CHTO  H187 3079   6.349   9.983   1.029
    8CHTO  C107 3080   6.183   9.992   1.165
    8CHTO   O70 3081   6.063   9.921   1.200
    8CHTO  H170 3082   6.019   9.966   1.270
    8CHTO   O57 3083   6.129   9.853   0.696
    8CHTO   C85 3084   6.083   9.965   0.619
    8CHTO  H157 3085   6.174   0.015   0.580
    8CHTO   C83 3086   6.012   0.071   0.710
    8CHTO  H155 3087   6.086   0.109   0.782
    8CHTO   O56 3088   5.910   0.006   0.788
    8CHTO  H135 3089   5.874   0.065   0.851
    8CHTO   C81 3090   5.961   0.190   0.624
    8CHTO  H153 3091   6.047   0.232   0.570
    8CHTO   N14 3092   5.911   0.305   0.705
    8CHTO  H141 3093   5.907   0.280   0.809
    8CHTO  H142 3094   5.814   0.335   0.672
    8CHTO   C79 3095   5.858   0.137   0.517
    8CHTO  H151 3096   5.832   0.222   0.453
    8CHTO   O52 3097   5.922   0.037   0.431
    8CHTO   C86 3098   5.982   9.925   0.504
    8CHTO  H158 3099   5.896   9.869   0.545
    8CHTO   C90 3100   6.050   9.827   0.404
    8CHTO   O60 3101   6.158   9.889   0.333
    8CHTO  H138 3102   6.196   9.827   0.274
    8CHTO   O50 3103   5.736   0.086   0.573
    8CHTO   C73 3104   5.600   0.052   0.540
    8CHTO  H145 3105   5.596   0.009   0.439
    8CHTO   C74 3106   5.507   0.177   0.545
    8CHTO  H146 3107   5.547   0.250   0.474
    8CHTO   O54 3108   5.378   0.137   0.493
    8CHTO  H133 3109   5.321   0.212   0.491
    8CHTO   C75 3110   5.502   0.233   0.693
    8CHTO  H147 3111   5.602   0.271   0.718
    8CHTO   N13 3112   5.410   0.349   0.711
    8CHTO  H139 3113   5.363   0.376   0.618
    8CHTO  H140 3114   5.465   0.434   0.749
    8CHTO   C76 3115   5.470   0.116   0.798
    8CHTO  H148 3116   5.365   0.088   0.789
    8CHTO   O49 3117   5.554   9.998   0.776
    8CHTO   C77 3118   5.547   9.946   0.642
    8CHTO  H149 3119   5.443   9.922   0.617
    8CHTO   C88 3120   5.623   9.814   0.635
    8CHTO   O58 3121   5.609   9.752   0.502
    8CHTO  H136 3122   5.655   9.670   0.501
    8CHTO   O51 3123   5.509   0.167   0.948
    8CHTO   C78 3124   5.505   0.058   1.063
    8CHTO  H150 3125   5.526   9.956   1.024
    8CHTO   C80 3126   5.366   0.057   1.132
    8CHTO  H152 3127   5.339   0.161   1.158
    8CHTO   O55 3128   5.271   0.008   1.035
    8CHTO  H134 3129   5.257   0.072   0.968
    8CHTO   C84 3130   5.366   9.968   1.263
    8CHTO  H156 3131   5.378   9.864   1.233
    8CHTO   N15 3132   5.235   9.977   1.337
    8CHTO  H143 3133   5.155   9.942   1.275
    8CHTO  H144 3134   5.216   0.078   1.366
    8CHTO   C87 3135   5.485   0.008   1.353
    8CHTO  H159 3136   5.471   0.111   1.389
    8CHTO   O53 3137   5.614   9.999   1.273
    8CHTO   C82 3138   5.616   0.092   1.164
    8CHTO  H154 3139   5.602   0.194   1.203
    8CHTO   C89 3140   5.756   0.090   1.098
    8CHTO   O59 3141   5.791   9.958   1.052
    8CHTO  H137 3142   5.876   9.961   1.013
    8CHTO   O45 3143   5.500   9.914   1.487
    8CHTO   C67 3144   5.545   9.778   1.471
    8CHTO  H124 3145   5.507   9.737   1.378
    8CHTO   C65 3146   5.702   9.767   1.473
    8CHTO  H122 3147   5.741   9.868   1.461
    8CHTO   O44 3148   5.743   9.687   1.360
    8CHTO  H102 3149   5.836   9.689   1.351
    8CHTO   C63 3150   5.756   9.716   1.612
    8CHTO  H120 3151   5.718   9.783   1.689
    8CHTO   N11 3152   5.904   9.726   1.635
    8CHTO  H108 3153   5.943   9.633   1.671
    8CHTO  H109 3154   5.954   9.754   1.545
    8CHTO   C61 3155   5.692   9.574   1.641
    8CHTO  H118 3156   5.702   9.557   1.750
    8CHTO   O40 3157   5.549   9.568   1.611
    8CHTO   C68 3158   5.479   9.693   1.588
    8CHTO  H125 3159   5.483   9.751   1.682
    8CHTO   C72 3160   5.330   9.661   1.560
    8CHTO   O48 3161   5.310   9.574   1.449
    8CHTO  H105 3162   5.218   9.557   1.438
    8CHTO   O38 3163   5.757   9.468   1.568
    8CHTO   C55 3164   5.710   9.334   1.596
    8CHTO  H112 3165   5.608   9.337   1.636
    8CHTO   C56 3166   5.809   9.257   1.693
    8CHTO  H113 3167   5.908   9.254   1.644
    8CHTO   O42 3168   5.825   9.331   1.815
    8CHTO  H100 3169   5.868   9.413   1.798
    8CHTO   C57 3170   5.754   9.112   1.719
    8CHTO  H114 3171   5.659   9.123   1.773
    8CHTO   N10 3172   5.842   9.026   1.802
    8CHTO  H106 3173   5.946   9.053   1.787
    8CHTO  H107 3174   5.818   9.039   1.907
    8CHTO   C58 3175   5.724   9.042   1.583
    8CHTO  H115 3176   5.821   9.019   1.532
    8CHTO   O37 3177   5.645   9.123   1.496
    8CHTO   C59 3178   5.697   9.253   1.464
    8CHTO  H116 3179   5.794   9.243   1.414
    8CHTO   C70 3180   5.600   9.322   1.367
    8CHTO   O46 3181   5.582   9.251   1.245
    8CHTO  H103 3182   5.537   9.170   1.261
    8CHTO   O39 3183   5.639   8.897   1.606
    8CHTO   C60 3184   5.498   8.910   1.632
    8CHTO  H117 3185   5.479   9.002   1.688
    8CHTO   C62 3186   5.414   8.913   1.500
    8CHTO  H119 3187   5.445   9.003   1.444
    8CHTO   O43 3188   5.446   8.798   1.420
    8CHTO  H101 3189   5.419   8.719   1.463
    8CHTO   C66 3190   5.257   8.926   1.536
    8CHTO  H123 3191   5.242   9.015   1.596
    8CHTO   N12 3192   5.174   8.943   1.414
    8CHTO  H110 3193   5.070   8.955   1.442
    8CHTO  H111 3194   5.187   8.859   1.348
    8CHTO   C69 3195   5.216   8.803   1.621
    8CHTO  H126 3196   5.236   8.710   1.565
    8CHTO   O41 3197   5.301   8.805   1.751
    8CHTO   C64 3198   5.450   8.792   1.722
    8CHTO  H121 3199   5.469   8.697   1.669
    8CHTO   C71 3200   5.527   8.787   1.856
    8CHTO   O47 3201   5.493   8.668   1.929
    8CHTO  H104 3202   5.528   8.592   1.885
    8CHTO   O34 3203   5.064   8.804   1.661
    8CHTO   C49 3204   4.968   8.858   1.765
    8CHTO   H91 3205   4.977   8.795   1.853
    8CHTO   C47 3206   4.824   8.850   1.709
    8CHTO   H89 3207   4.756   8.883   1.790
    8CHTO   O33 3208   4.796   8.713   1.678
    8CHTO   H70 3209   4.707   8.704   1.651
    8CHTO   C45 3210   4.813   8.949   1.582
    8CHTO   H87 3211   4.887   8.916   1.508
    8CHTO    N8 3212   4.679   8.942   1.519
    8CHTO   H75 3213   4.604   8.980   1.588
    8CHTO   H76 3214   4.655   8.840   1.492
    8CHTO   C43 3215   4.859   9.100   1.620
    8CHTO   H85 3216   4.870   9.152   1.525
    8CHTO   O29 3217   4.983   9.100   1.696
    8CHTO   C50 3218   5.000   9.005   1.803
    8CHTO   H92 3219   5.106   9.009   1.832
    8CHTO   C54 3220   4.927   9.052   1.933
    8CHTO   O36 3221   4.943   8.962   2.043
    8CHTO   H72 3222   5.033   8.962   2.071
    8CHTO   O27 3223   4.760   9.175   1.694
    8CHTO   C37 3224   4.726   9.314   1.706
    8CHTO   H79 3225   4.666   9.329   1.796
    8CHTO   C38 3226   4.852   9.406   1.722
    8CHTO   H80 3227   4.922   9.383   1.640
    8CHTO   O31 3228   4.916   9.372   1.847
    8CHTO   H68 3229   4.953   9.286   1.842
    8CHTO   C39 3230   4.817   9.560   1.719
    8CHTO   H81 3231   4.766   9.583   1.813
    8CHTO    N7 3232   4.938   9.649   1.713
    8CHTO   H73 3233   4.939   9.708   1.623
    8CHTO   H74 3234   4.942   9.713   1.800
    8CHTO   C40 3235   4.714   9.594   1.604
    8CHTO   H82 3236   4.764   9.598   1.508
    8CHTO   O26 3237   4.605   9.500   1.604
    8CHTO   C41 3238   4.645   9.362   1.583
    8CHTO   H83 3239   4.707   9.355   1.493
    8CHTO   C52 3240   4.517   9.280   1.560
    8CHTO   O35 3241   4.453   9.313   1.430
    8CHTO   H71 3242   4.508   9.285   1.359
    8CHTO   O28 3243   4.648   9.720   1.629
    8CHTO   C42 3244   4.585   9.796   1.521
    8CHTO   H84 3245   4.532   9.875   1.573
    8CHTO   C44 3246   4.478   9.720   1.435
    8CHTO   H86 3247   4.524   9.631   1.393
    8CHTO   O32 3248   4.375   9.679   1.526
    8CHTO   H69 3249   4.312   9.625   1.482
    8CHTO   C48 3250   4.421   9.807   1.316
    8CHTO   H90 3251   4.363   9.889   1.358
    8CHTO    N9 3252   4.325   9.730   1.229
    8CHTO   H77 3253   4.312   9.629   1.265
    8CHTO   H78 3254   4.358   9.729   1.126
    8CHTO   C51 3255   4.541   9.869   1.235
    8CHTO   H93 3256   4.600   9.786   1.193
    8CHTO   O30 3257   4.619   9.948   1.326
    8CHTO   C46 3258   4.690   9.865   1.429
    8CHTO   H88 3259   4.749   9.789   1.378
    8CHTO   C53 3260   4.783   9.958   1.509
    8CHTO   O72 3261   4.889   0.006   1.427
    8CHTO  H199 3262   4.946   0.060   1.477
    8CHTO   O22 3263   4.499   9.959   1.131
    8CHTO   C31 3264   4.589   9.998   1.020
    8CHTO   H59 3265   4.531   0.071   0.960
    8CHTO   C29 3266   4.719   0.068   1.064
    8CHTO   H57 3267   4.772  10.000   1.132
    8CHTO   O21 3268   4.682   0.183   1.143
    8CHTO   H37 3269   4.641   0.248   1.088
    8CHTO   C27 3270   4.813   0.104   0.943
    8CHTO   H55 3271   4.763   0.178   0.880
    8CHTO    N5 3272   4.944   0.160   0.987
    8CHTO   H43 3273   4.928   0.248   1.047
    8CHTO   H44 3274   5.003   0.186   0.900
    8CHTO   C25 3275   4.833   9.975   0.856
    8CHTO   H53 3276   4.885   9.898   0.915
    8CHTO   O17 3277   4.704   9.922   0.814
    8CHTO   C32 3278   4.621   9.879   0.923
    8CHTO   H60 3279   4.673   9.801   0.979
    8CHTO   C36 3280   4.492   9.816   0.864
    8CHTO   O25 3281   4.418   9.908   0.782
    8CHTO   H40 3282   4.342   9.865   0.749
    8CHTO   O15 3283   4.915   0.004   0.728
    8CHTO   C19 3284   4.951   9.939   0.603
    8CHTO   H47 3285   4.867   9.870   0.583
    8CHTO   C20 3286   4.964   0.039   0.484
    8CHTO   H48 3287   5.041   0.115   0.503
    8CHTO   O19 3288   4.837   0.105   0.472
    8CHTO   H35 3289   4.842   0.173   0.407
    8CHTO   C21 3290   5.002   9.964   0.350
    8CHTO   H49 3291   4.919   9.900   0.321
    8CHTO    N4 3292   5.025   0.057   0.236
    8CHTO   H41 3293   4.936   0.115   0.218
    8CHTO   H42 3294   5.050   0.001   0.147
    8CHTO   C22 3295   5.124   9.870   0.376
    8CHTO   H50 3296   5.212   9.931   0.395
    8CHTO   O14 3297   5.100   9.783   0.487
    8CHTO   C23 3298   5.080   9.851   0.612
    8CHTO   H51 3299   5.170   9.912   0.631
    8CHTO   C34 3300   5.073   9.746   0.724
    8CHTO   O23 3301   4.965   9.654   0.708
    8CHTO   H38 3302   4.883   9.697   0.723
    8CHTO   O16 3303   5.146   9.783   0.263
    8CHTO   C24 3304   5.284   9.701   0.263
    8CHTO   H52 3305   5.321   9.684   0.364
    8CHTO   C26 3306   5.388   9.780   0.181
    8CHTO   H54 3307   5.339   9.816   0.088
    8CHTO   O20 3308   5.425   9.896   0.258
    8CHTO   H36 3309   5.483   9.951   0.208
    8CHTO   C30 3310   5.512   9.694   0.142
    8CHTO   H58 3311   5.570   9.668   0.232
    8CHTO    N6 3312   5.605   9.767   0.051
    8CHTO   H45 3313   5.702   9.776   0.097
    8CHTO   H46 3314   5.568   9.866   0.029
    8CHTO   C33 3315   5.463   9.559   0.081
    8CHTO   H61 3316   5.404   9.579   2.832
    8CHTO   O18 3317   5.379   9.494   0.177
    8CHTO   C28 3318   5.255   9.561   0.201
    8CHTO   H56 3319   5.199   9.574   0.108
    8CHTO   C35 3320   5.172   9.472   0.297
    8CHTO   O24 3321   5.039   9.520   0.319
    8CHTO   H39 3322   5.041   9.601   0.366
    8CHTO    O9 3323   5.570   9.472   0.038
    8CHTO   C13 3324   5.520   9.347   2.785
    8CHTO   H26 3325   5.428   9.380   2.731
    8CHTO   C11 3326   5.494   9.217   0.031
    8CHTO   H24 3327   5.389   9.218   0.064
    8CHTO    O8 3328   5.578   9.218   0.148
    8CHTO    H3 3329   5.555   9.290   0.204
    8CHTO    C9 3330   5.520   9.090   2.786
    8CHTO   H22 3331   5.459   9.104   2.695
    8CHTO    N2 3332   5.469   8.964   0.004
    8CHTO   H10 3333   5.548   8.890   0.010
    8CHTO   H11 3334   5.386   8.925   2.789
    8CHTO    C7 3335   5.673   9.090   2.745
    8CHTO   H20 3336   5.677   9.027   2.654
    8CHTO    O4 3337   5.724   9.222   2.715
    8CHTO   C14 3338   5.627   9.318   2.671
    8CHTO   H27 3339   5.573   9.276   2.583
    8CHTO   C18 3340   5.696   9.448   2.622
    8CHTO   O13 3341   5.779   9.423   2.508
    8CHTO    H7 3342   5.854   9.372   2.533
    8CHTO    O2 3343   5.769   9.022   0.022
    8CHTO    C1 3344   5.911   9.038   0.011
    8CHTO   H14 3345   5.935   9.146   0.002
    8CHTO    C2 3346   5.976   8.961   2.729
    8CHTO   H15 3347   5.935   8.859   2.733
    8CHTO    O6 3348   5.936   9.025   2.606
    8CHTO    H1 3349   5.843   9.016   2.594
    8CHTO    C3 3350   6.137   8.956   2.739
    8CHTO   H16 3351   6.177   9.057   2.720
    8CHTO    N1 3352   6.196   8.864   2.637
    8CHTO    H8 3353   6.160   8.763   2.652
    8CHTO    H9 3354   6.303   8.866   2.642
    8CHTO    C4 3355   6.181   8.920   0.044
    8CHTO   H17 3356   6.153   8.817   0.065
    8CHTO    O1 3357   6.119   9.008   0.139
    8CHTO    C5 3358   5.976   8.989   0.143
    8CHTO   H18 3359   5.955   8.883   0.154
    8CHTO   C16 3360   5.919   9.064   0.267
    8CHTO   O11 3361   5.971   9.009   0.389
    8CHTO    H5 3362   6.062   9.028   0.397
    8CHTO    O3 3363   6.324   8.935   0.063
    8CHTO    C6 3364   6.378   8.856   0.173
    8CHTO   H19 3365   6.303   8.831   0.248
    8CHTO    C8 3366   6.441   8.722   0.122
    8CHTO   H21 3367   6.515   8.745   0.046
    8CHTO    O7 3368   6.335   8.644   0.064
    8CHTO    H2 3369   6.305   8.684   2.827
    8CHTO   C12 3370   6.511   8.646   0.242
    8CHTO   H25 3371   6.430   8.620   0.314
    8CHTO    N3 3372   6.573   8.517   0.198
    8CHTO   H12 3373   6.620   8.468   0.282
    8CHTO   H13 3374   6.498   8.453   0.155
    8CHTO   C15 3375   6.612   8.743   0.313
    8CHTO   H28 3376   6.697   8.767   0.249
    8CHTO   O10 3377   6.664   8.687   0.450
    8CHTO    H4 3378   6.592   8.665   0.506
    8CHTO    O5 3379   6.547   8.865   0.354
    8CHTO   C10 3380   6.488   8.940   0.246
    8CHTO   H23 3381   6.567   8.967   0.176
    8CHTO   C17 3382   6.432   9.071   0.303
    8CHTO   O12 3383   6.331   9.049   0.403
    8CHTO    H6 3384   6.254   9.014   0.363
    9CHTO  H203 3385   8.755   4.374   1.055
    9CHTO   O82 3386   8.783   4.286   1.044
    9CHTO  C123 3387   8.892   4.281   0.950
    9CHTO  H227 3388   8.975   4.341   0.989
    9CHTO   O77 3389   8.929   4.139   0.951
    9CHTO  C118 3390   9.041   4.106   0.868
    9CHTO  H222 3391   9.129   4.165   0.897
    9CHTO  C125 3392   9.073   3.953   0.887
    9CHTO   O84 3393   9.114   3.925   1.022
    9CHTO  H205 3394   9.199   3.962   1.037
    9CHTO  C114 3395   9.005   4.137   0.721
    9CHTO  H218 3396   8.917   4.078   0.694
    9CHTO  C116 3397   8.969   4.287   0.705
    9CHTO  H220 3398   9.058   4.349   0.728
    9CHTO   O79 3399   8.935   4.312   0.568
    9CHTO  H201 3400   9.011   4.302   0.513
    9CHTO  C120 3401   8.851   4.325   0.804
    9CHTO  H224 3402   8.762   4.268   0.771
    9CHTO   N21 3403   8.816   4.470   0.797
    9CHTO  H211 3404   8.742   4.485   0.721
    9CHTO  H212 3405   8.780   4.505   0.892
    9CHTO   O75 3406   9.119   4.097   0.643
    9CHTO  C112 3407   9.077   4.017   0.506
    9CHTO  H216 3408   8.985   4.062   0.465
    9CHTO   O73 3409   9.057   3.879   0.541
    9CHTO  C113 3410   9.016   3.795   0.433
    9CHTO  H217 3411   8.921   3.833   0.391
    9CHTO  C124 3412   8.990   3.654   0.487
    9CHTO   O83 3413   8.883   3.650   0.583
    9CHTO  H204 3414   8.801   3.666   0.540
    9CHTO  C109 3415   9.125   3.793   0.323
    9CHTO  H213 3416   9.216   3.748   0.368
    9CHTO  C110 3417   9.155   3.939   0.275
    9CHTO  H214 3418   9.067   3.978   0.225
    9CHTO   O78 3419   9.262   3.933   0.179
    9CHTO  H200 3420   9.278   4.018   0.142
    9CHTO  C111 3421   9.191   4.028   0.398
    9CHTO  H215 3422   9.284   3.990   0.443
    9CHTO   N19 3423   9.217   4.170   0.361
    9CHTO  H207 3424   9.316   4.200   0.392
    9CHTO  H208 3425   9.143   4.237   0.404
    9CHTO   O74 3426   9.082   3.709   0.211
    9CHTO  C115 3427   9.196   3.617   0.154
    9CHTO  H219 3428   9.295   3.660   0.171
    9CHTO   O76 3429   9.200   3.473   0.227
    9CHTO  C122 3430   9.083   3.393   0.203
    9CHTO  H226 3431   8.997   3.443   0.248
    9CHTO  C126 3432   9.102   3.259   0.283
    9CHTO   O85 3433   8.984   3.177   0.285
    9CHTO  H206 3434   9.001   3.099   0.334
    9CHTO  C121 3435   9.062   3.371   0.048
    9CHTO  H225 3436   9.151   3.319   0.007
    9CHTO   O81 3437   8.947   3.290   0.022
    9CHTO  H202 3438   8.943   3.267   2.773
    9CHTO  C119 3439   9.048   3.511   2.820
    9CHTO  H223 3440   9.038   3.491   2.714
    9CHTO  C117 3441   9.174   3.604   2.841
    9CHTO  H221 3442   9.162   3.707   2.808
    9CHTO   N20 3443   9.297   3.554   2.771
    9CHTO  H209 3444   9.378   3.624   2.786
    9CHTO  H210 3445   9.324   3.457   2.808
    9CHTO   O80 3446   8.909   3.582   0.011
    9CHTO  C103 3447   8.840   3.679   2.745
    9CHTO  H190 3448   8.752   3.726   2.790
    9CHTO  C101 3449   8.930   3.793   2.685
    9CHTO  H188 3450   9.021   3.749   2.644
    9CHTO   O68 3451   8.969   3.891   2.801
    9CHTO  H168 3452   9.030   3.954   2.770
    9CHTO   C99 3453   8.853   3.869   2.567
    9CHTO  H186 3454   8.765   3.921   2.609
    9CHTO   N17 3455   8.936   3.976   2.500
    9CHTO  H174 3456   9.038   3.972   2.534
    9CHTO  H175 3457   8.931   3.967   2.392
    9CHTO   C97 3458   8.795   3.766   2.465
    9CHTO  H184 3459   8.878   3.722   2.409
    9CHTO   O64 3460   8.716   3.666   2.532
    9CHTO  C104 3461   8.789   3.587   2.627
    9CHTO  H191 3462   8.874   3.540   2.579
    9CHTO  C108 3463   8.700   3.472   2.678
    9CHTO   O71 3464   8.582   3.518   2.744
    9CHTO  H171 3465   8.604   3.559   2.825
    9CHTO   O62 3466   8.702   3.830   2.376
    9CHTO   C91 3467   8.675   3.765   2.250
    9CHTO  H178 3468   8.726   3.669   2.249
    9CHTO   C92 3469   8.738   3.850   2.134
    9CHTO  H179 3470   8.845   3.865   2.154
    9CHTO   O66 3471   8.732   3.774   2.013
    9CHTO  H166 3472   8.788   3.699   2.018
    9CHTO   C93 3473   8.662   3.987   2.111
    9CHTO  H180 3474   8.668   4.010   2.003
    9CHTO   N16 3475   8.725   4.102   2.179
    9CHTO  H172 3476   8.727   4.084   2.286
    9CHTO  H173 3477   8.825   4.117   2.142
    9CHTO   C94 3478   8.509   3.973   2.150
    9CHTO  H181 3479   8.492   3.996   2.255
    9CHTO   O61 3480   8.463   3.838   2.130
    9CHTO   C95 3481   8.519   3.744   2.223
    9CHTO  H182 3482   8.467   3.753   2.318
    9CHTO  C106 3483   8.491   3.598   2.171
    9CHTO   O69 3484   8.351   3.570   2.170
    9CHTO  H169 3485   8.319   3.562   2.258
    9CHTO   O63 3486   8.423   4.069   2.060
    9CHTO   C96 3487   8.292   4.118   2.130
    9CHTO  H183 3488   8.292   4.083   2.234
    9CHTO   C98 3489   8.161   4.069   2.063
    9CHTO  H185 3490   8.165   4.089   1.955
    9CHTO   O67 3491   8.158   3.925   2.075
    9CHTO  H167 3492   8.084   3.890   2.030
    9CHTO  C102 3493   8.029   4.135   2.128
    9CHTO  H189 3494   8.018   4.089   2.228
    9CHTO   N18 3495   7.903   4.105   2.056
    9CHTO  H176 3496   7.819   4.150   2.107
    9CHTO  H177 3497   7.908   4.142   1.955
    9CHTO  C105 3498   8.050   4.288   2.147
    9CHTO  H192 3499   8.045   4.337   2.050
    9CHTO   O65 3500   8.176   4.320   2.208
    9CHTO  C100 3501   8.290   4.275   2.133
    9CHTO  H187 3502   8.283   4.313   2.030
    9CHTO  C107 3503   8.417   4.335   2.198
    9CHTO   O70 3504   8.419   4.478   2.186
    9CHTO  H170 3505   8.497   4.512   2.224
    9CHTO   O57 3506   7.930   4.343   2.245
    9CHTO   C85 3507   7.891   4.480   2.230
    9CHTO  H157 3508   7.882   4.496   2.121
    9CHTO   C83 3509   8.006   4.576   2.277
    9CHTO  H155 3510   8.093   4.557   2.214
    9CHTO   O56 3511   8.045   4.543   2.412
    9CHTO  H135 3512   8.080   4.457   2.416
    9CHTO   C81 3513   7.960   4.722   2.256
    9CHTO  H153 3514   7.933   4.734   2.151
    9CHTO   N14 3515   8.070   4.820   2.274
    9CHTO  H141 3516   8.102   4.821   2.377
    9CHTO  H142 3517   8.037   4.918   2.248
    9CHTO   C79 3518   7.833   4.752   2.343
    9CHTO  H151 3519   7.800   4.853   2.319
    9CHTO   O52 3520   7.724   4.662   2.307
    9CHTO   C86 3521   7.758   4.519   2.306
    9CHTO  H158 3522   7.764   4.491   2.414
    9CHTO   C90 3523   7.640   4.438   2.247
    9CHTO   O60 3524   7.522   4.453   2.327
    9CHTO  H138 3525   7.451   4.404   2.288
    9CHTO   O50 3526   7.858   4.746   2.485
    9CHTO   C73 3527   7.804   4.802   2.605
    9CHTO  H145 3528   7.694   4.796   2.604
    9CHTO   C74 3529   7.845   4.952   2.620
    9CHTO  H146 3530   7.809   5.005   2.530
    9CHTO   O54 3531   7.774   5.008   2.732
    9CHTO  H133 3532   7.793   5.099   2.740
    9CHTO   C75 3533   8.002   4.962   2.633
    9CHTO  H147 3534   8.048   4.923   2.541
    9CHTO   N13 3535   8.054   5.100   2.647
    9CHTO  H139 3536   8.026   5.159   2.561
    9CHTO  H140 3537   8.162   5.099   2.654
    9CHTO   C76 3538   8.052   4.866   2.752
    9CHTO  H148 3539   8.018   4.908   0.005
    9CHTO   O49 3540   8.000   4.730   2.737
    9CHTO   C77 3541   7.857   4.722   2.728
    9CHTO  H149 3542   7.811   4.762   2.819
    9CHTO   C88 3543   7.814   4.575   2.721
    9CHTO   O58 3544   7.852   4.502   0.003
    9CHTO  H136 3545   7.802   4.534   0.075
    9CHTO   O51 3546   8.210   4.850   2.746
    9CHTO   C78 3547   8.269   4.772   0.028
    9CHTO  H150 3548   8.189   4.719   0.084
    9CHTO   C80 3549   8.339   4.871   0.124
    9CHTO  H152 3550   8.413   4.930   0.065
    9CHTO   O55 3551   8.238   4.961   0.173
    9CHTO  H134 3552   8.277   5.028   0.225
    9CHTO   C84 3553   8.413   4.796   0.242
    9CHTO  H156 3554   8.336   4.748   0.303
    9CHTO   N15 3555   8.489   4.889   0.332
    9CHTO  H143 3556   8.422   4.959   0.377
    9CHTO  H144 3557   8.562   4.943   0.275
    9CHTO   C87 3558   8.504   4.685   0.185
    9CHTO  H159 3559   8.588   4.729   0.130
    9CHTO   O53 3560   8.420   4.593   0.089
    9CHTO   C82 3561   8.368   4.666   2.820
    9CHTO  H154 3562   8.449   4.713   2.764
    9CHTO   C89 3563   8.297   4.568   2.722
    9CHTO   O59 3564   8.391   4.480   2.660
    9CHTO  H137 3565   8.446   4.528   2.601
    9CHTO   O45 3566   8.565   4.592   0.306
    9CHTO   C67 3567   8.629   4.470   0.266
    9CHTO  H124 3568   8.558   4.409   0.211
    9CHTO   C65 3569   8.756   4.496   0.176
    9CHTO  H122 3570   8.790   4.596   0.201
    9CHTO   O44 3571   8.710   4.495   0.039
    9CHTO  H102 3572   8.651   4.566   0.024
    9CHTO   C63 3573   8.878   4.402   0.211
    9CHTO  H120 3574   8.922   4.438   0.304
    9CHTO   N11 3575   8.996   4.409   0.118
    9CHTO  H108 3576   8.970   4.461   0.029
    9CHTO  H109 3577   9.078   4.458   0.165
    9CHTO   C61 3578   8.826   4.256   0.243
    9CHTO  H118 3579   8.914   4.202   0.282
    9CHTO   O40 3580   8.727   4.257   0.350
    9CHTO   C68 3581   8.669   4.384   0.393
    9CHTO  H125 3582   8.743   4.439   0.454
    9CHTO   C72 3583   8.549   4.351   0.485
    9CHTO   O48 3584   8.495   4.466   0.552
    9CHTO  H105 3585   8.453   4.522   0.489
    9CHTO   O38 3586   8.781   4.187   0.124
    9CHTO   C55 3587   8.657   4.112   0.122
    9CHTO  H112 3588   8.578   4.169   0.173
    9CHTO   C56 3589   8.676   3.967   0.184
    9CHTO  H113 3590   8.759   3.919   0.130
    9CHTO   O42 3591   8.716   3.975   0.322
    9CHTO  H100 3592   8.800   4.015   0.329
    9CHTO   C57 3593   8.544   3.881   0.169
    9CHTO  H114 3594   8.472   3.921   0.240
    9CHTO   N10 3595   8.563   3.738   0.204
    9CHTO  H106 3596   8.470   3.696   0.241
    9CHTO  H107 3597   8.638   3.727   0.281
    9CHTO   C58 3598   8.483   3.893   0.026
    9CHTO  H115 3599   8.543   3.832   2.796
    9CHTO   O37 3600   8.480   4.030   2.822
    9CHTO   C59 3601   8.608   4.093   2.818
    9CHTO  H116 3602   8.679   4.032   2.763
    9CHTO   C70 3603   8.594   4.226   2.744
    9CHTO   O46 3604   8.560   4.208   2.606
    9CHTO  H103 3605   8.555   4.292   2.564
    9CHTO   O39 3606   8.324   3.851   0.023
    9CHTO   C60 3607   8.298   3.716   2.825
    9CHTO  H117 3608   8.391   3.660   2.817
    9CHTO   C62 3609   8.208   3.645   0.089
    9CHTO  H119 3610   8.263   3.654   0.185
    9CHTO   O43 3611   8.083   3.715   0.103
    9CHTO  H101 3612   8.034   3.711   0.023
    9CHTO   C66 3613   8.193   3.490   0.050
    9CHTO  H123 3614   8.293   3.446   0.042
    9CHTO   N12 3615   8.123   3.414   0.156
    9CHTO  H110 3616   8.117   3.310   0.129
    9CHTO  H111 3617   8.024   3.455   0.171
    9CHTO   C69 3618   8.125   3.477   2.753
    9CHTO  H126 3619   8.021   3.515   2.758
    9CHTO   O41 3620   8.207   3.562   2.645
    9CHTO   C64 3621   8.230   3.709   2.685
    9CHTO  H121 3622   8.132   3.763   2.690
    9CHTO   C71 3623   8.316   3.778   2.577
    9CHTO   O47 3624   8.245   3.786   2.453
    9CHTO  H104 3625   8.299   3.828   2.389
    9CHTO   O34 3626   8.120   3.325   2.705
    9CHTO   C49 3627   8.204   3.246   2.599
    9CHTO   H91 3628   8.186   3.293   2.503
    9CHTO   C47 3629   8.152   3.100   2.596
    9CHTO   H89 3630   8.208   3.053   2.511
    9CHTO   O33 3631   8.012   3.096   2.565
    9CHTO   H70 3632   7.996   3.129   2.478
    9CHTO   C45 3633   8.183   3.024   2.736
    9CHTO   H87 3634   8.096   3.037   2.802
    9CHTO    N8 3635   8.198   2.879   2.708
    9CHTO   H75 3636   8.110   2.840   2.660
    9CHTO   H76 3637   8.214   2.826   2.801
    9CHTO   C43 3638   8.306   3.095   2.812
    9CHTO   H85 3639   8.260   3.179   0.022
    9CHTO   O29 3640   8.404   3.138   2.717
    9CHTO   C50 3641   8.357   3.243   2.629
    9CHTO   H92 3642   8.385   3.339   2.674
    9CHTO   C54 3643   8.442   3.236   2.500
    9CHTO   O36 3644   8.418   3.348   2.414
    9CHTO   H72 3645   8.470   3.340   2.337
    9CHTO   O27 3646   8.365   3.016   0.075
    9CHTO   C37 3647   8.423   3.057   0.200
    9CHTO   H79 3648   8.477   2.972   0.245
    9CHTO   C38 3649   8.527   3.172   0.179
    9CHTO   H80 3650   8.481   3.249   0.115
    9CHTO   O31 3651   8.639   3.114   0.109
    9CHTO   H68 3652   8.701   3.181   0.087
    9CHTO   C39 3653   8.571   3.239   0.315
    9CHTO   H81 3654   8.626   3.164   0.373
    9CHTO    N7 3655   8.663   3.356   0.295
    9CHTO   H73 3656   8.756   3.340   0.346
    9CHTO   H74 3657   8.617   3.448   0.330
    9CHTO   C40 3658   8.442   3.276   0.397
    9CHTO   H82 3659   8.385   3.350   0.341
    9CHTO   O26 3660   8.366   3.156   0.420
    9CHTO   C41 3661   8.309   3.100   0.298
    9CHTO   H83 3662   8.245   3.175   0.249
    9CHTO   C52 3663   8.218   2.982   0.341
    9CHTO   O35 3664   8.135   2.928   0.231
    9CHTO   H71 3665   8.072   2.993   0.205
    9CHTO   O28 3666   8.468   3.326   0.530
    9CHTO   C42 3667   8.374   3.421   0.591
    9CHTO   H84 3668   8.401   3.419   0.696
    9CHTO   C44 3669   8.222   3.384   0.584
    9CHTO   H86 3670   8.194   3.368   0.480
    9CHTO   O32 3671   8.206   3.258   0.653
    9CHTO   H69 3672   8.225   3.268   0.745
    9CHTO   C48 3673   8.128   3.497   0.642
    9CHTO   H90 3674   8.145   3.505   0.749
    9CHTO    N9 3675   7.982   3.463   0.625
    9CHTO   H77 3676   7.933   3.461   0.722
    9CHTO   H78 3677   7.932   3.532   0.559
    9CHTO   C51 3678   8.166   3.634   0.575
    9CHTO   H93 3679   8.150   3.626   0.467
    9CHTO   O30 3680   8.303   3.662   0.606
    9CHTO   C46 3681   8.398   3.567   0.541
    9CHTO   H88 3682   8.383   3.572   0.433
    9CHTO   C53 3683   8.542   3.616   0.574
    9CHTO   O72 3684   8.568   3.622   0.715
    9CHTO  H199 3685   8.515   3.689   0.754
    9CHTO   O22 3686   8.093   3.746   0.630
    9CHTO   C31 3687   8.069   3.869   0.550
    9CHTO   H59 3688   8.025   3.942   0.621
    9CHTO   C29 3689   8.198   3.934   0.493
    9CHTO   H57 3690   8.247   3.859   0.428
    9CHTO   O21 3691   8.287   3.962   0.602
    9CHTO   H37 3692   8.315   3.882   0.643
    9CHTO   C27 3693   8.166   4.063   0.407
    9CHTO   H55 3694   8.124   4.140   0.474
    9CHTO    N5 3695   8.286   4.119   0.340
    9CHTO   H43 3696   8.360   4.146   0.414
    9CHTO   H44 3697   8.327   4.047   0.271
    9CHTO   C25 3698   8.054   4.029   0.302
    9CHTO   H53 3699   8.094   3.955   0.230
    9CHTO   O17 3700   7.938   3.971   0.368
    9CHTO   C32 3701   7.963   3.848   0.437
    9CHTO   H60 3702   8.000   3.773   0.367
    9CHTO   C36 3703   7.829   3.798   0.497
    9CHTO   O25 3704   7.735   3.764   0.395
    9CHTO   H40 3705   7.763   3.687   0.349
    9CHTO   O15 3706   8.007   4.157   0.226
    9CHTO   C19 3707   7.975   4.169   0.084
    9CHTO   H47 3708   7.933   4.271   0.076
    9CHTO   C20 3709   8.098   4.158   2.830
    9CHTO   H48 3710   8.150   4.061   2.842
    9CHTO   O19 3711   8.191   4.261   0.026
    9CHTO   H35 3712   8.154   4.346   0.012
    9CHTO   C21 3713   8.055   4.172   2.678
    9CHTO   H49 3714   8.016   4.273   2.663
    9CHTO    N4 3715   8.167   4.155   2.582
    9CHTO   H41 3716   8.260   4.136   2.634
    9CHTO   H42 3717   8.179   4.243   2.521
    9CHTO   C22 3718   7.938   4.074   2.650
    9CHTO   H50 3719   7.974   3.972   2.659
    9CHTO   O14 3720   7.831   4.097   2.743
    9CHTO   C23 3721   7.863   4.072   0.039
    9CHTO   H51 3722   7.894   3.966   0.046
    9CHTO   C34 3723   7.733   4.087   0.121
    9CHTO   O23 3724   7.674   4.216   0.110
    9CHTO   H38 3725   7.729   4.280   0.151
    9CHTO   O16 3726   7.879   4.095   2.520
    9CHTO   C24 3727   7.759   3.991   2.488
    9CHTO   H52 3728   7.729   3.935   2.577
    9CHTO   C26 3729   7.805   3.892   2.380
    9CHTO   H54 3730   7.839   3.950   2.292
    9CHTO   O20 3731   7.918   3.818   2.431
    9CHTO   H36 3732   7.992   3.874   2.439
    9CHTO   C30 3733   7.689   3.798   2.336
    9CHTO   H58 3734   7.666   3.727   2.417
    9CHTO    N6 3735   7.727   3.715   2.218
    9CHTO   H45 3736   7.645   3.650   2.190
    9CHTO   H46 3737   7.813   3.654   2.243
    9CHTO   C33 3738   7.557   3.877   2.309
    9CHTO   H61 3739   7.565   3.934   2.215
    9CHTO   O18 3740   7.532   3.969   2.416
    9CHTO   C28 3741   7.633   4.068   2.440
    9CHTO   H56 3742   7.658   4.122   2.348
    9CHTO   C35 3743   7.578   4.166   2.546
    9CHTO   O24 3744   7.662   4.279   2.567
    9CHTO   H39 3745   7.624   4.335   2.632
    9CHTO    O9 3746   7.445   3.787   2.290
    9CHTO   C13 3747   7.317   3.848   2.208
    9CHTO   H26 3748   7.351   3.869   2.105
    9CHTO   C11 3749   7.261   3.980   2.280
    9CHTO   H24 3750   7.336   4.060   2.265
    9CHTO    O8 3751   7.250   3.957   2.422
    9CHTO    H3 3752   7.226   4.037   2.465
    9CHTO    C9 3753   7.129   4.022   2.211
    9CHTO   H22 3754   7.153   4.034   2.105
    9CHTO    N2 3755   7.078   4.155   2.253
    9CHTO   H10 3756   7.050   4.153   2.358
    9CHTO   H11 3757   7.153   4.231   2.236
    9CHTO    C7 3758   7.025   3.906   2.226
    9CHTO   H20 3759   6.934   3.942   2.174
    9CHTO    O4 3760   7.073   3.787   2.160
    9CHTO   C14 3761   7.204   3.736   2.193
    9CHTO   H27 3762   7.234   3.672   2.108
    9CHTO   C18 3763   7.197   3.643   2.318
    9CHTO   O13 3764   7.111   3.531   2.295
    9CHTO    H7 3765   7.149   3.473   2.232
    9CHTO    O2 3766   6.992   3.870   2.385
    9CHTO    C1 3767   6.857   3.849   2.429
    9CHTO   H14 3768   6.861   3.777   2.514
    9CHTO    C2 3769   6.754   3.794   2.322
    9CHTO   H15 3770   6.752   3.866   2.239
    9CHTO    O6 3771   6.800   3.666   2.275
    9CHTO    H1 3772   6.802   3.604   2.345
    9CHTO    C3 3773   6.607   3.783   2.387
    9CHTO   H16 3774   6.610   3.705   2.465
    9CHTO    N1 3775   6.503   3.743   2.287
    9CHTO    H8 3776   6.528   3.647   2.244
    9CHTO    H9 3777   6.406   3.738   2.334
    9CHTO    C4 3778   6.570   3.917   2.462
    9CHTO   H17 3779   6.547   3.994   2.388
    9CHTO    O1 3780   6.674   3.961   2.550
    9CHTO    C5 3781   6.803   3.982   2.489
    9CHTO   H18 3782   6.793   4.054   2.408
    9CHTO   C16 3783   6.897   4.042   2.598
    9CHTO   O11 3784   6.913   3.954   2.710
    9CHTO    H5 3785   6.968   3.995   2.774
    9CHTO    O3 3786   6.458   3.896   2.550
    9CHTO    C6 3787   6.376   4.015   2.580
    9CHTO   H19 3788   6.422   4.108   2.546
    9CHTO    C8 3789   6.238   4.000   2.510
    9CHTO   H21 3790   6.199   3.900   2.530
    9CHTO    O7 3791   6.260   4.013   2.368
    9CHTO    H2 3792   6.289   4.100   2.347
    9CHTO   C12 3793   6.132   4.105   2.563
    9CHTO   H25 3794   6.164   4.205   2.526
    9CHTO    N3 3795   5.996   4.078   2.506
    9CHTO   H12 3796   5.999   4.085   2.398
    9CHTO   H13 3797   5.924   4.148   2.545
    9CHTO   C15 3798   6.134   4.107   2.720
    9CHTO   H28 3799   6.094   4.014   2.762
    9CHTO   O10 3800   6.057   4.226   2.780
    9CHTO    H4 3801   5.966   4.219   2.759
    9CHTO    O5 3802   6.267   4.130   2.769
    9CHTO   C10 3803   6.360   4.026   2.734
    9CHTO   H23 3804   6.324   3.932   2.774
    9CHTO   C17 3805   6.494   4.055   2.804
    9CHTO   O12 3806   6.481   4.055   0.105
    9CHTO    H6 3807   6.430   4.130   0.132
   10CHTO  H203 3808   5.652   6.554   2.581
   10CHTO   O82 3809   5.593   6.503   2.634
   10CHTO  C123 3810   5.462   6.503   2.576
   10CHTO  H227 3811   5.468   6.460   2.475
   10CHTO   O77 3812   5.388   6.412   2.664
   10CHTO  C118 3813   5.247   6.399   2.636
   10CHTO  H222 3814   5.233   6.367   2.532
   10CHTO  C125 3815   5.190   6.288   2.730
   10CHTO   O84 3816   5.226   6.158   2.684
   10CHTO  H205 3817   5.318   6.144   2.697
   10CHTO  C114 3818   5.179   6.536   2.655
   10CHTO  H218 3819   5.202   6.573   2.755
   10CHTO  C116 3820   5.240   6.634   2.551
   10CHTO  H220 3821   5.220   6.596   2.448
   10CHTO   O79 3822   5.173   6.761   2.561
   10CHTO  H201 3823   5.083   6.752   2.532
   10CHTO  C120 3824   5.396   6.647   2.574
   10CHTO  H224 3825   5.410   6.695   2.673
   10CHTO   N21 3826   5.463   6.734   2.474
   10CHTO  H211 3827   5.411   6.729   2.379
   10CHTO  H212 3828   5.465   6.836   2.510
   10CHTO   O75 3829   5.037   6.517   2.638
   10CHTO  C112 3830   4.948   6.542   2.778
   10CHTO  H216 3831   5.006   6.605   0.005
   10CHTO   O73 3832   4.920   6.413   2.835
   10CHTO  C113 3833   4.859   6.418   0.123
   10CHTO  H217 3834   4.925   6.474   0.192
   10CHTO  C124 3835   4.846   6.275   0.177
   10CHTO   O83 3836   4.971   6.207   0.191
   10CHTO  H204 3837   5.008   6.191   0.106
   10CHTO  C109 3838   4.720   6.487   0.115
   10CHTO  H213 3839   4.653   6.419   0.060
   10CHTO  C110 3840   4.730   6.624   0.040
   10CHTO  H214 3841   4.779   6.696   0.106
   10CHTO   O78 3842   4.596   6.673   0.018
   10CHTO  H200 3843   4.598   6.759   2.823
   10CHTO  C111 3844   4.810   6.612   2.749
   10CHTO  H215 3845   4.754   6.548   2.679
   10CHTO   N19 3846   4.830   6.742   2.679
   10CHTO  H207 3847   4.785   6.824   2.733
   10CHTO  H208 3848   4.935   6.764   2.663
   10CHTO   O74 3849   4.668   6.504   0.251
   10CHTO  C115 3850   4.512   6.482   0.267
   10CHTO  H219 3851   4.456   6.524   0.183
   10CHTO   O76 3852   4.475   6.326   0.266
   10CHTO  C122 3853   4.509   6.264   0.391
   10CHTO  H226 3854   4.616   6.281   0.407
   10CHTO  C126 3855   4.493   6.109   0.377
   10CHTO   O85 3856   4.533   6.038   0.494
   10CHTO  H206 3857   4.472   6.055   0.564
   10CHTO  C121 3858   4.424   6.323   0.511
   10CHTO  H225 3859   4.341   6.253   0.533
   10CHTO   O81 3860   4.509   6.330   0.626
   10CHTO  H202 3861   4.458   6.348   0.703
   10CHTO  C119 3862   4.364   6.464   0.479
   10CHTO  H223 3863   4.280   6.446   0.412
   10CHTO  C117 3864   4.469   6.553   0.402
   10CHTO  H221 3865   4.563   6.569   0.456
   10CHTO   N20 3866   4.416   6.690   0.375
   10CHTO  H209 3867   4.491   6.750   0.326
   10CHTO  H210 3868   4.386   6.737   0.468
   10CHTO   O80 3869   4.290   6.532   0.609
   10CHTO  C103 3870   4.130   6.513   0.634
   10CHTO  H190 3871   4.099   6.579   0.715
   10CHTO  C101 3872   4.034   6.541   0.512
   10CHTO  H188 3873   4.060   6.476   0.429
   10CHTO   O68 3874   4.052   6.688   0.467
   10CHTO  H168 3875   4.026   6.747   0.535
   10CHTO   C99 3876   3.882   6.510   0.555
   10CHTO  H186 3877   3.854   6.577   0.640
   10CHTO   N17 3878   3.781   6.531   0.447
   10CHTO  H174 3879   3.829   6.557   0.354
   10CHTO  H175 3880   3.710   6.607   0.476
   10CHTO   C97 3881   3.874   6.365   0.612
   10CHTO  H184 3882   3.892   6.294   0.529
   10CHTO   O64 3883   3.968   6.347   0.720
   10CHTO  C104 3884   4.106   6.365   0.684
   10CHTO  H191 3885   4.134   6.296   0.605
   10CHTO  C108 3886   4.194   6.330   0.805
   10CHTO   O71 3887   4.168   6.413   0.919
   10CHTO  H171 3888   4.196   6.501   0.902
   10CHTO   O62 3889   3.747   6.339   0.676
   10CHTO   C91 3890   3.678   6.220   0.634
   10CHTO  H178 3891   3.674   6.222   0.525
   10CHTO   C92 3892   3.529   6.229   0.681
   10CHTO  H179 3893   3.485   6.324   0.648
   10CHTO   O66 3894   3.453   6.128   0.612
   10CHTO  H166 3895   3.486   6.042   0.632
   10CHTO   C93 3896   3.511   6.205   0.837
   10CHTO  H180 3897   3.412   6.160   0.852
   10CHTO   N16 3898   3.509   6.332   0.914
   10CHTO  H172 3899   3.496   6.310   1.019
   10CHTO  H173 3900   3.428   6.395   0.879
   10CHTO   C94 3901   3.622   6.106   0.891
   10CHTO  H181 3902   3.710   6.159   0.927
   10CHTO   O61 3903   3.667   6.017   0.787
   10CHTO   C95 3904   3.743   6.082   0.684
   10CHTO  H182 3905   3.844   6.101   0.721
   10CHTO  C106 3906   3.759   5.978   0.567
   10CHTO   O69 3907   3.840   6.028   0.461
   10CHTO  H169 3908   3.845   5.965   0.392
   10CHTO   O63 3909   3.561   6.018   1.007
   10CHTO   C96 3910   3.674   5.957   1.101
   10CHTO  H183 3911   3.771   5.994   1.067
   10CHTO   C98 3912   3.681   5.802   1.103
   10CHTO  H185 3913   3.581   5.760   1.123
   10CHTO   O67 3914   3.714   5.759   0.970
   10CHTO  H167 3915   3.714   5.665   0.965
   10CHTO  C102 3916   3.787   5.747   1.211
   10CHTO  H189 3917   3.886   5.779   1.174
   10CHTO   N18 3918   3.794   5.600   1.225
   10CHTO  H176 3919   3.819   5.555   1.130
   10CHTO  H177 3920   3.870   5.573   1.298
   10CHTO  C105 3921   3.760   5.818   1.347
   10CHTO  H192 3922   3.664   5.785   1.386
   10CHTO   O65 3923   3.756   5.961   1.333
   10CHTO  C100 3924   3.652   6.009   1.248
   10CHTO  H187 3925   3.555   5.973   1.285
   10CHTO  C107 3926   3.651   6.164   1.255
   10CHTO   O70 3927   3.620   6.208   1.388
   10CHTO  H170 3928   3.618   6.302   1.390
   10CHTO   O57 3929   3.880   5.781   1.452
   10CHTO   C85 3930   3.844   5.767   1.590
   10CHTO  H157 3931   3.756   5.698   1.591
   10CHTO   C83 3932   3.791   5.903   1.646
   10CHTO  H155 3933   3.707   5.936   1.584
   10CHTO   O56 3934   3.893   6.004   1.634
   10CHTO  H135 3935   3.913   6.019   1.543
   10CHTO   C81 3936   3.740   5.881   1.791
   10CHTO  H153 3937   3.662   5.805   1.788
   10CHTO   N14 3938   3.669   6.000   1.846
   10CHTO  H141 3939   3.737   6.082   1.856
   10CHTO  H142 3940   3.590   6.029   1.780
   10CHTO   C79 3941   3.856   5.828   1.884
   10CHTO  H151 3942   3.809   5.794   1.976
   10CHTO   O52 3943   3.919   5.709   1.826
   10CHTO   C86 3944   3.959   5.717   1.686
   10CHTO  H158 3945   4.046   5.786   1.685
   10CHTO   C90 3946   4.014   5.578   1.643
   10CHTO   O60 3947   4.074   5.580   1.513
   10CHTO  H138 3948   4.008   5.592   1.448
   10CHTO   O50 3949   3.957   5.926   1.918
   10CHTO   C73 3950   4.012   5.927   2.051
   10CHTO  H145 3951   4.023   5.823   2.087
   10CHTO   C74 3952   3.915   6.001   2.149
   10CHTO  H146 3953   3.815   5.955   2.139
   10CHTO   O54 3954   3.959   5.973   2.284
   10CHTO  H133 3955   3.900   6.011   2.346
   10CHTO   C75 3956   3.912   6.155   2.115
   10CHTO  H147 3957   3.878   6.167   2.011
   10CHTO   N13 3958   3.818   6.232   2.199
   10CHTO  H139 3959   3.819   6.336   2.169
   10CHTO  H140 3960   3.847   6.226   2.303
   10CHTO   C76 3961   4.062   6.209   2.124
   10CHTO  H148 3962   4.097   6.186   2.224
   10CHTO   O49 3963   4.144   6.138   2.026
   10CHTO   C77 3964   4.152   5.996   2.054
   10CHTO  H149 3965   4.197   5.982   2.152
   10CHTO   C88 3966   4.250   5.934   1.954
   10CHTO   O58 3967   4.272   5.790   1.982
   10CHTO  H136 3968   4.334   5.756   1.920
   10CHTO   O51 3969   4.075   6.370   2.091
   10CHTO   C78 3970   4.223   6.438   2.124
   10CHTO  H150 3971   4.305   6.383   2.072
   10CHTO   C80 3972   4.254   6.440   2.276
   10CHTO  H152 3973   4.167   6.484   2.329
   10CHTO   O55 3974   4.271   6.305   2.321
   10CHTO  H134 3975   4.278   6.302   2.414
   10CHTO   C84 3976   4.385   6.524   2.310
   10CHTO  H156 3977   4.469   6.468   2.270
   10CHTO   N15 3978   4.408   6.538   2.458
   10CHTO  H143 3979   4.417   6.442   2.503
   10CHTO  H144 3980   4.498   6.594   2.476
   10CHTO   C87 3981   4.382   6.662   2.239
   10CHTO  H159 3982   4.306   6.726   2.285
   10CHTO   O53 3983   4.352   6.643   2.091
   10CHTO   C82 3984   4.223   6.582   2.070
   10CHTO  H154 3985   4.146   6.641   2.119
   10CHTO   C89 3986   4.191   6.585   1.918
   10CHTO   O59 3987   4.174   6.719   1.870
   10CHTO  H137 3988   4.256   6.764   1.871
   10CHTO   O45 3989   4.528   6.733   2.248
   10CHTO   C67 3990   4.523   6.876   2.251
   10CHTO  H124 3991   4.439   6.911   2.190
   10CHTO   C65 3992   4.504   6.930   2.398
   10CHTO  H122 3993   4.542   6.851   2.463
   10CHTO   O44 3994   4.362   6.943   2.419
   10CHTO  H102 3995   4.329   7.017   2.372
   10CHTO   C63 3996   4.594   7.056   2.430
   10CHTO  H120 3997   4.697   7.021   2.444
   10CHTO   N11 3998   4.568   7.123   2.561
   10CHTO  H108 3999   4.642   7.197   2.580
   10CHTO  H109 4000   4.471   7.168   2.560
   10CHTO   C61 4001   4.596   7.151   2.305
   10CHTO  H118 4002   4.665   7.234   2.330
   10CHTO   O40 4003   4.650   7.085   2.187
   10CHTO   C68 4004   4.651   6.938   2.183
   10CHTO  H125 4005   4.743   6.902   2.235
   10CHTO   C72 4006   4.663   6.893   2.035
   10CHTO   O48 4007   4.784   6.938   1.973
   10CHTO  H105 4008   4.785   6.910   1.883
   10CHTO   O38 4009   4.466   7.203   2.272
   10CHTO   C55 4010   4.452   7.331   2.206
   10CHTO  H112 4011   4.348   7.335   2.171
   10CHTO   C56 4012   4.555   7.356   2.087
   10CHTO  H113 4013   4.657   7.340   2.126
   10CHTO   O42 4014   4.535   7.256   1.985
   10CHTO  H100 4015   4.555   7.170   2.019
   10CHTO   C57 4016   4.542   7.501   2.026
   10CHTO  H114 4017   4.446   7.505   1.975
   10CHTO   N10 4018   4.648   7.534   1.927
   10CHTO  H106 4019   4.616   7.504   1.828
   10CHTO  H107 4020   4.740   7.483   1.952
   10CHTO   C58 4021   4.540   7.606   2.141
   10CHTO  H115 4022   4.641   7.609   2.189
   10CHTO   O37 4023   4.441   7.574   2.240
   10CHTO   C59 4024   4.464   7.449   2.308
   10CHTO  H116 4025   4.562   7.450   2.354
   10CHTO   C70 4026   4.361   7.438   2.421
   10CHTO   O46 4027   4.225   7.446   2.377
   10CHTO  H103 4028   4.167   7.439   2.450
   10CHTO   O39 4029   4.500   7.752   2.084
   10CHTO   C60 4030   4.536   7.861   2.170
   10CHTO  H117 4031   4.515   7.834   2.273
   10CHTO   C62 4032   4.688   7.896   2.161
   10CHTO  H119 4033   4.743   7.807   2.199
   10CHTO   O43 4034   4.725   7.917   2.023
   10CHTO  H101 4035   4.817   7.931   2.016
   10CHTO   C66 4036   4.719   8.023   2.255
   10CHTO  H123 4037   4.686   8.000   2.357
   10CHTO   N12 4038   4.864   8.052   2.266
   10CHTO  H110 4039   4.905   8.072   2.168
   10CHTO  H111 4040   4.916   7.970   2.313
   10CHTO   C69 4041   4.636   8.144   2.205
   10CHTO  H126 4042   4.662   8.166   2.099
   10CHTO   O41 4043   4.488   8.107   2.216
   10CHTO   C64 4044   4.448   7.985   2.136
   10CHTO  H121 4045   4.458   8.007   2.027
   10CHTO   C71 4046   4.298   7.956   2.164
   10CHTO   O47 4047   4.272   7.933   2.303
   10CHTO  H104 4048   4.311   7.852   2.330
   10CHTO   O34 4049   4.659   8.273   2.290
   10CHTO   C49 4050   4.733   8.402   2.254
   10CHTO   H91 4051   4.838   8.375   2.240
   10CHTO   C47 4052   4.719   8.499   2.373
   10CHTO   H89 4053   4.783   8.587   2.349
   10CHTO   O33 4054   4.772   8.436   2.491
   10CHTO   H70 4055   4.719   8.362   2.516
   10CHTO   C45 4056   4.565   8.545   2.386
   10CHTO   H87 4057   4.503   8.454   2.393
   10CHTO    N8 4058   4.538   8.628   2.506
   10CHTO   H75 4059   4.630   8.650   2.559
   10CHTO   H76 4060   4.488   8.720   2.480
   10CHTO   C43 4061   4.520   8.615   2.248
   10CHTO   H85 4062   4.413   8.636   2.257
   10CHTO   O29 4063   4.548   8.529   2.135
   10CHTO   C50 4064   4.678   8.467   2.124
   10CHTO   H92 4065   4.667   8.387   2.049
   10CHTO   C54 4066   4.780   8.563   2.057
   10CHTO   O36 4067   4.902   8.496   2.025
   10CHTO   H72 4068   4.961   8.557   1.984
   10CHTO   O27 4069   4.583   8.744   2.230
   10CHTO   C37 4070   4.599   8.866   2.157
   10CHTO   H79 4071   4.702   8.874   2.119
   10CHTO   C38 4072   4.504   8.873   2.033
   10CHTO   H80 4073   4.400   8.858   2.068
   10CHTO   O31 4074   4.539   8.766   1.944
   10CHTO   H68 4075   4.518   8.683   1.982
   10CHTO   C39 4076   4.515   9.012   1.960
   10CHTO   H81 4077   4.613   9.016   1.914
   10CHTO    N7 4078   4.414   9.030   1.850
   10CHTO   H73 4079   4.427   8.952   1.777
   10CHTO   H74 4080   4.428   9.126   1.803
   10CHTO   C40 4081   4.508   9.132   2.063
   10CHTO   H82 4082   4.405   9.153   2.093
   10CHTO   O26 4083   4.594   9.111   2.176
   10CHTO   C41 4084   4.571   8.987   2.249
   10CHTO   H83 4085   4.466   8.984   2.283
   10CHTO   C52 4086   4.662   8.987   2.374
   10CHTO   O35 4087   4.626   9.095   2.468
   10CHTO   H71 4088   4.682   9.091   2.543
   10CHTO   O28 4089   4.567   9.250   2.005
   10CHTO   C42 4090   4.521   9.385   2.039
   10CHTO   H84 4091   4.463   9.375   2.131
   10CHTO   C44 4092   4.425   9.449   1.933
   10CHTO   H86 4093   4.477   9.453   1.837
   10CHTO   O32 4094   4.311   9.362   1.921
   10CHTO   H69 4095   4.336   9.282   1.879
   10CHTO   C48 4096   4.383   9.597   1.971
   10CHTO   H90 4097   4.321   9.592   2.061
   10CHTO    N9 4098   4.297   9.660   1.865
   10CHTO   H77 4099   4.351   9.666   1.772
   10CHTO   H78 4100   4.266   9.759   1.897
   10CHTO   C51 4101   4.511   9.683   2.004
   10CHTO   H93 4102   4.571   9.693   1.913
   10CHTO   O30 4103   4.585   9.618   2.109
   10CHTO   C46 4104   4.640   9.482   2.070
   10CHTO   H88 4105   4.702   9.492   1.982
   10CHTO   C53 4106   4.726   9.434   2.190
   10CHTO   O72 4107   4.806   9.320   2.156
   10CHTO  H199 4108   4.751   9.245   2.143
   10CHTO   O22 4109   4.477   9.813   2.057
   10CHTO   C31 4110   4.564   9.932   2.047
   10CHTO   H59 4111   4.518   0.008   2.112
   10CHTO   C29 4112   4.709   9.913   2.096
   10CHTO   H57 4113   4.756   9.835   2.034
   10CHTO   O21 4114   4.704   9.862   2.231
   10CHTO   H37 4115   4.790   9.838   2.260
   10CHTO   C27 4116   4.794   0.046   2.085
   10CHTO   H55 4117   4.752   0.120   2.155
   10CHTO    N5 4118   4.937   0.026   2.119
   10CHTO   H43 4119   4.989   0.121   2.116
   10CHTO   H44 4120   4.946   9.983   2.217
   10CHTO   C25 4121   4.779   0.108   1.941
   10CHTO   H53 4122   4.828   0.041   1.868
   10CHTO   O17 4123   4.639   0.119   1.904
   10CHTO   C32 4124   4.566   9.995   1.904
   10CHTO   H60 4125   4.614   9.925   1.835
   10CHTO   C36 4126   4.423   0.023   1.850
   10CHTO   O25 4127   4.350   0.117   1.930
   10CHTO   H40 4128   4.389   0.202   1.923
   10CHTO   O15 4129   4.847   0.256   1.934
   10CHTO   C19 4130   4.887   0.358   1.838
   10CHTO   H47 4131   4.814   0.347   1.755
   10CHTO   C20 4132   4.880   0.504   1.892
   10CHTO   H48 4133   4.948   0.519   1.978
   10CHTO   O19 4134   4.745   0.524   1.939
   10CHTO   H35 4135   4.737   0.607   1.981
   10CHTO   C21 4136   4.918   0.609   1.780
   10CHTO   H49 4137   4.843   0.603   1.700
   10CHTO    N4 4138   4.916   0.750   1.828
   10CHTO   H41 4139   4.941   0.817   1.748
   10CHTO   H42 4140   4.818   0.775   1.866
   10CHTO   C22 4141   5.054   0.569   1.718
   10CHTO   H50 4142   5.133   0.583   1.793
   10CHTO   O14 4143   5.052   0.433   1.673
   10CHTO   C23 4144   5.028   0.335   1.776
   10CHTO   H51 4145   5.108   0.344   1.851
   10CHTO   C34 4146   5.039   0.195   1.712
   10CHTO   O23 4147   5.170   0.171   1.660
   10CHTO   H38 4148   5.231   0.163   1.730
   10CHTO   O16 4149   5.083   0.644   1.597
   10CHTO   C24 4150   5.240   0.687   1.579
   10CHTO   H52 4151   5.301   0.657   1.665
   10CHTO   C26 4152   5.247   0.840   1.562
   10CHTO   H54 4153   5.173   0.870   1.484
   10CHTO   O20 4154   5.207   0.901   1.686
   10CHTO   H36 4155   5.115   0.886   1.702
   10CHTO   C30 4156   5.389   0.890   1.518
   10CHTO   H58 4157   5.459   0.881   1.602
   10CHTO    N6 4158   5.387   1.034   1.481
   10CHTO   H45 4159   5.321   1.051   1.397
   10CHTO   H46 4160   5.486   1.067   1.455
   10CHTO   C33 4161   5.447   0.802   1.403
   10CHTO   H61 4162   5.390   0.819   1.310
   10CHTO   O18 4163   5.434   0.663   1.438
   10CHTO   C28 4164   5.300   0.616   1.454
   10CHTO   H56 4165   5.239   0.641   1.367
   10CHTO   C35 4166   5.304   0.463   1.471
   10CHTO   O24 4167   5.354   0.395   1.355
   10CHTO   H39 4168   5.446   0.414   1.344
   10CHTO    O9 4169   5.584   0.836   1.372
   10CHTO   C13 4170   5.627   0.803   1.215
   10CHTO   H26 4171   5.562   0.865   1.150
   10CHTO   C11 4172   5.611   0.648   1.184
   10CHTO   H24 4173   5.504   0.625   1.176
   10CHTO    O8 4174   5.664   0.568   1.293
   10CHTO    H3 4175   5.755   0.585   1.305
   10CHTO    C9 4176   5.682   0.619   1.049
   10CHTO   H22 4177   5.644   0.695   0.979
   10CHTO    N2 4178   5.643   0.490   0.988
   10CHTO   H10 4179   5.686   0.481   0.890
   10CHTO   H11 4180   5.675   0.408   1.051
   10CHTO    C7 4181   5.838   0.642   1.069
   10CHTO   H20 4182   5.872   0.679   0.970
   10CHTO    O4 4183   5.868   0.740   1.171
   10CHTO   C14 4184   5.776   0.851   1.182
   10CHTO   H27 4185   5.775   0.903   1.083
   10CHTO   C18 4186   5.835   0.950   1.285
   10CHTO   O13 4187   5.757   1.070   1.293
   10CHTO    H7 4188   5.675   1.052   1.335
   10CHTO    O2 4189   5.917   0.501   1.105
   10CHTO    C1 4190   6.056   0.507   1.139
   10CHTO   H14 4191   6.074   0.591   1.210
   10CHTO    C2 4192   6.153   0.527   1.014
   10CHTO   H15 4193   6.121   0.451   0.940
   10CHTO    O6 4194   6.133   0.658   0.959
   10CHTO    H1 4195   6.156   0.724   1.021
   10CHTO    C3 4196   6.307   0.503   1.054
   10CHTO   H16 4197   6.339   0.587   1.117
   10CHTO    N1 4198   6.396   0.501   0.933
   10CHTO    H8 4199   6.472   0.578   0.941
   10CHTO    H9 4200   6.444   0.405   0.921
   10CHTO    C4 4201   6.322   0.374   1.144
   10CHTO   H17 4202   6.305   0.286   1.082
   10CHTO    O1 4203   6.230   0.377   1.254
   10CHTO    C5 4204   6.092   0.376   1.214
   10CHTO   H18 4205   6.074   0.292   1.146
   10CHTO   C16 4206   6.004   0.357   1.340
   10CHTO   O11 4207   6.027   0.230   1.402
   10CHTO    H5 4208   5.994   0.162   1.347
   10CHTO    O3 4209   6.453   0.368   1.204
   10CHTO    C6 4210   6.496   0.236   1.251
   10CHTO   H19 4211   6.415   0.164   1.256
   10CHTO    C8 4212   6.605   0.178   1.155
   10CHTO   H21 4213   6.684   0.253   1.143
   10CHTO    O7 4214   6.542   0.155   1.027
   10CHTO    H2 4215   6.477   0.088   1.034
   10CHTO   C12 4216   6.668   0.047   1.217
   10CHTO   H25 4217   6.587   9.971   1.222
   10CHTO    N3 4218   6.775   9.989   1.128
   10CHTO   H12 4219   6.856   0.061   1.117
   10CHTO   H13 4220   6.812   9.897   1.170
   10CHTO   C15 4221   6.717   0.077   1.363
   10CHTO   H28 4222   6.799   0.149   1.364
   10CHTO   O10 4223   6.759   9.950   1.442
   10CHTO    H4 4224   6.835   9.912   1.402
   10CHTO    O5 4225   6.609   0.127   1.443
   10CHTO   C10 4226   6.554   0.250   1.395
   10CHTO   H23 4227   6.633   0.325   1.395
   10CHTO   C17 4228   6.447   0.297   1.495
   10CHTO   O12 4229   6.340   0.203   1.511
   10CHTO    H6 4230   6.290   0.198   1.432
   11CHTO  H203 4231   8.087   5.048   0.463
   11CHTO   O82 4232   7.997   5.071   0.452
   11CHTO  C123 4233   7.981   5.214   0.460
   11CHTO  H227 4234   8.042   5.261   0.381
   11CHTO   O77 4235   7.839   5.234   0.432
   11CHTO  C118 4236   7.802   5.372   0.417
   11CHTO  H222 4237   7.864   5.419   0.339
   11CHTO  C125 4238   7.652   5.372   0.370
   11CHTO   O84 4239   7.609   5.502   0.326
   11CHTO  H205 4240   7.520   5.498   0.299
   11CHTO  C114 4241   7.823   5.444   0.552
   11CHTO  H218 4242   7.755   5.401   0.625
   11CHTO  C116 4243   7.969   5.426   0.605
   11CHTO  H220 4244   8.038   5.486   0.541
   11CHTO   O79 4245   7.976   5.482   0.737
   11CHTO  H201 4246   8.064   5.479   0.769
   11CHTO  C120 4247   8.013   5.274   0.602
   11CHTO  H224 4248   7.953   5.222   0.680
   11CHTO   N21 4249   8.156   5.256   0.638
   11CHTO  H211 4250   8.214   5.342   0.607
   11CHTO  H212 4251   8.166   5.241   0.744
   11CHTO   O75 4252   7.791   5.581   0.526
   11CHTO  C112 4253   7.698   5.653   0.638
   11CHTO  H216 4254   7.733   5.626   0.739
   11CHTO   O73 4255   7.562   5.609   0.616
   11CHTO  C113 4256   7.462   5.676   0.692
   11CHTO  H217 4257   7.486   5.664   0.800
   11CHTO  C124 4258   7.326   5.607   0.669
   11CHTO   O83 4259   7.283   5.611   0.532
   11CHTO  H204 4260   7.264   5.699   0.507
   11CHTO  C109 4261   7.460   5.826   0.654
   11CHTO  H213 4262   7.447   5.831   0.545
   11CHTO  C110 4263   7.598   5.887   0.693
   11CHTO  H214 4264   7.612   5.877   0.801
   11CHTO   O78 4265   7.599   6.027   0.661
   11CHTO  H200 4266   7.540   6.074   0.717
   11CHTO  C111 4267   7.711   5.810   0.618
   11CHTO  H215 4268   7.700   5.830   0.510
   11CHTO   N19 4269   7.848   5.854   0.656
   11CHTO  H207 4270   7.922   5.799   0.598
   11CHTO  H208 4271   7.860   5.960   0.637
   11CHTO   O74 4272   7.349   5.898   0.719
   11CHTO  C115 4273   7.274   5.997   0.615
   11CHTO  H219 4274   7.336   6.019   0.528
   11CHTO   O76 4275   7.145   5.931   0.556
   11CHTO  C122 4276   7.046   5.900   0.654
   11CHTO  H226 4277   7.081   5.813   0.709
   11CHTO  C126 4278   6.915   5.853   0.579
   11CHTO   O85 4279   6.862   5.954   0.492
   11CHTO  H206 4280   6.787   5.920   0.448
   11CHTO  C121 4281   7.016   6.020   0.754
   11CHTO  H225 4282   6.906   6.037   0.758
   11CHTO   O81 4283   7.057   5.984   0.887
   11CHTO  H202 4284   7.027   6.048   0.948
   11CHTO  C119 4285   7.085   6.151   0.707
   11CHTO  H223 4286   7.045   6.168   0.607
   11CHTO  C117 4287   7.240   6.132   0.692
   11CHTO  H221 4288   7.295   6.126   0.786
   11CHTO   N20 4289   7.300   6.251   0.621
   11CHTO  H209 4290   7.408   6.242   0.618
   11CHTO  H210 4291   7.261   6.258   0.521
   11CHTO   O80 4292   7.032   6.283   0.783
   11CHTO  C103 4293   7.064   6.307   0.937
   11CHTO  H190 4294   7.083   6.213   0.989
   11CHTO  C101 4295   7.181   6.409   0.966
   11CHTO  H188 4296   7.176   6.490   0.894
   11CHTO   O68 4297   7.317   6.335   0.947
   11CHTO  H168 4298   7.326   6.266   1.010
   11CHTO   C99 4299   7.171   6.473   1.113
   11CHTO  H186 4300   7.187   6.392   1.188
   11CHTO   N17 4301   7.275   6.579   1.139
   11CHTO  H174 4302   7.229   6.671   1.172
   11CHTO  H175 4303   7.347   6.543   1.212
   11CHTO   C97 4304   7.026   6.524   1.137
   11CHTO  H184 4305   7.005   6.604   1.064
   11CHTO   O64 4306   6.936   6.413   1.124
   11CHTO  C104 4307   6.925   6.362   0.990
   11CHTO  H191 4308   6.888   6.438   0.922
   11CHTO  C108 4309   6.820   6.250   0.991
   11CHTO   O71 4310   6.691   6.300   1.026
   11CHTO  H171 4311   6.628   6.231   1.023
   11CHTO   O62 4312   7.004   6.570   1.272
   11CHTO   C91 4313   6.909   6.677   1.291
   11CHTO  H178 4314   6.845   6.684   1.203
   11CHTO   C92 4315   6.988   6.812   1.301
   11CHTO  H179 4316   7.075   6.796   1.367
   11CHTO   O66 4317   7.042   6.840   1.171
   11CHTO  H166 4318   7.097   6.916   1.175
   11CHTO   C93 4319   6.900   6.931   1.356
   11CHTO  H180 4320   6.820   6.949   1.282
   11CHTO   N16 4321   6.974   7.059   1.370
   11CHTO  H172 4322   6.927   7.136   1.310
   11CHTO  H173 4323   6.980   7.090   1.473
   11CHTO   C94 4324   6.835   6.883   1.490
   11CHTO  H181 4325   6.909   6.844   1.560
   11CHTO   O61 4326   6.746   6.775   1.459
   11CHTO   C95 4327   6.813   6.655   1.417
   11CHTO  H182 4328   6.872   6.616   1.501
   11CHTO  C106 4329   6.702   6.549   1.387
   11CHTO   O69 4330   6.758   6.419   1.361
   11CHTO  H169 4331   6.689   6.358   1.344
   11CHTO   O63 4332   6.747   7.000   1.562
   11CHTO   C96 4333   6.765   7.000   1.720
   11CHTO  H183 4334   6.787   6.898   1.752
   11CHTO   C98 4335   6.639   7.048   1.797
   11CHTO  H185 4336   6.611   7.149   1.764
   11CHTO   O67 4337   6.530   6.963   1.759
   11CHTO  H167 4338   6.545   6.875   1.787
   11CHTO  C102 4339   6.666   7.044   1.955
   11CHTO  H189 4340   6.683   6.938   1.978
   11CHTO   N18 4341   6.551   7.085   2.040
   11CHTO  H176 4342   6.523   7.187   2.018
   11CHTO  H177 4343   6.577   7.076   2.144
   11CHTO  C105 4344   6.796   7.124   1.988
   11CHTO  H192 4345   6.772   7.212   2.049
   11CHTO   O65 4346   6.871   7.174   1.875
   11CHTO  C100 4347   6.889   7.093   1.757
   11CHTO  H187 4348   6.901   7.165   1.674
   11CHTO  C107 4349   7.023   7.014   1.765
   11CHTO   O70 4350   7.023   6.911   1.863
   11CHTO  H170 4351   7.106   6.867   1.864
   11CHTO   O57 4352   6.881   7.024   2.073
   11CHTO   C85 4353   6.946   7.060   2.196
   11CHTO  H157 4354   6.864   7.091   2.265
   11CHTO   C83 4355   7.035   7.187   2.180
   11CHTO  H155 4356   6.970   7.272   2.161
   11CHTO   O56 4357   7.118   7.173   2.063
   11CHTO  H135 4358   7.165   7.253   2.047
   11CHTO   C81 4359   7.113   7.211   2.311
   11CHTO  H153 4360   7.041   7.216   2.393
   11CHTO   N14 4361   7.183   7.342   2.314
   11CHTO  H141 4362   7.229   7.357   2.410
   11CHTO  H142 4363   7.113   7.421   2.297
   11CHTO   C79 4364   7.210   7.090   2.339
   11CHTO  H151 4365   7.258   7.109   2.435
   11CHTO   O52 4366   7.134   6.967   2.353
   11CHTO   C86 4367   7.029   6.938   2.255
   11CHTO  H158 4368   7.083   6.884   2.174
   11CHTO   C90 4369   6.934   6.835   2.319
   11CHTO   O60 4370   6.828   6.795   2.232
   11CHTO  H138 4371   6.772   6.734   2.276
   11CHTO   O50 4372   7.313   7.074   2.240
   11CHTO   C73 4373   7.441   7.015   2.215
   11CHTO  H145 4374   7.439   6.908   2.241
   11CHTO   C74 4375   7.552   7.085   2.299
   11CHTO  H146 4376   7.524   7.077   2.405
   11CHTO   O54 4377   7.673   7.009   2.284
   11CHTO  H133 4378   7.703   7.010   2.195
   11CHTO   C75 4379   7.567   7.236   2.253
   11CHTO  H147 4380   7.473   7.288   2.275
   11CHTO   N13 4381   7.671   7.312   2.327
   11CHTO  H139 4382   7.674   7.414   2.292
   11CHTO  H140 4383   7.768   7.266   2.311
   11CHTO   C76 4384   7.589   7.242   2.094
   11CHTO  H148 4385   7.687   7.199   2.071
   11CHTO   O49 4386   7.483   7.167   2.026
   11CHTO   C77 4387   7.475   7.028   2.064
   11CHTO  H149 4388   7.570   6.978   2.044
   11CHTO   C88 4389   7.370   6.959   1.976
   11CHTO   O58 4390   7.405   6.968   1.836
   11CHTO  H136 4391   7.481   6.915   1.818
   11CHTO   O51 4392   7.568   7.386   2.038
   11CHTO   C78 4393   7.693   7.453   1.964
   11CHTO  H150 4394   7.789   7.406   1.995
   11CHTO   C80 4395   7.694   7.602   2.004
   11CHTO  H152 4396   7.592   7.642   1.993
   11CHTO   O55 4397   7.729   7.608   2.144
   11CHTO  H134 4398   7.722   7.696   2.175
   11CHTO   C84 4399   7.792   7.690   1.917
   11CHTO  H156 4400   7.894   7.659   1.939
   11CHTO   N15 4401   7.784   7.837   1.947
   11CHTO  H143 4402   7.879   7.874   1.980
   11CHTO  H144 4403   7.710   7.857   2.023
   11CHTO   C87 4404   7.763   7.661   1.768
   11CHTO  H159 4405   7.660   7.690   1.745
   11CHTO   O53 4406   7.781   7.514   1.746
   11CHTO   C82 4407   7.679   7.437   1.811
   11CHTO  H154 4408   7.580   7.468   1.776
   11CHTO   C89 4409   7.700   7.292   1.762
   11CHTO   O59 4410   7.579   7.215   1.767
   11CHTO  H137 4411   7.520   7.245   1.701
   11CHTO   O45 4412   7.863   7.735   1.666
   11CHTO   C67 4413   7.810   7.744   1.533
   11CHTO  H124 4414   7.764   7.649   1.507
   11CHTO   C65 4415   7.701   7.857   1.522
   11CHTO  H122 4416   7.708   7.916   1.615
   11CHTO   O44 4417   7.572   7.793   1.518
   11CHTO  H102 4418   7.556   7.747   1.598
   11CHTO   C63 4419   7.732   7.960   1.407
   11CHTO  H120 4420   7.822   8.016   1.434
   11CHTO   N11 4421   7.633   8.072   1.391
   11CHTO  H108 4422   7.670   8.143   1.320
   11CHTO  H109 4423   7.539   8.032   1.356
   11CHTO   C61 4424   7.765   7.881   1.276
   11CHTO  H118 4425   7.798   7.955   1.202
   11CHTO   O40 4426   7.875   7.787   1.292
   11CHTO   C68 4427   7.927   7.764   1.428
   11CHTO  H125 4428   7.987   7.853   1.457
   11CHTO   C72 4429   8.023   7.643   1.425
   11CHTO   O48 4430   7.960   7.522   1.382
   11CHTO  H105 4431   8.023   7.452   1.381
   11CHTO   O38 4432   7.652   7.805   1.226
   11CHTO   C55 4433   7.640   7.796   1.082
   11CHTO  H112 4434   7.731   7.832   1.033
   11CHTO   C56 4435   7.511   7.877   1.035
   11CHTO  H113 4436   7.426   7.841   1.096
   11CHTO   O42 4437   7.527   8.016   1.067
   11CHTO  H100 4438   7.531   8.028   1.160
   11CHTO   C57 4439   7.482   7.855   0.881
   11CHTO  H114 4440   7.562   7.904   0.826
   11CHTO   N10 4441   7.355   7.916   0.833
   11CHTO  H106 4442   7.333   8.005   0.890
   11CHTO  H107 4443   7.273   7.846   0.845
   11CHTO   C58 4444   7.486   7.703   0.850
   11CHTO  H115 4445   7.402   7.653   0.904
   11CHTO   O37 4446   7.610   7.647   0.894
   11CHTO   C59 4447   7.624   7.648   1.037
   11CHTO  H116 4448   7.537   7.602   1.084
   11CHTO   C70 4449   7.747   7.565   1.076
   11CHTO   O46 4450   7.735   7.427   1.040
   11CHTO  H103 4451   7.670   7.386   1.092
   11CHTO   O39 4452   7.474   7.671   0.685
   11CHTO   C60 4453   7.377   7.569   0.655
   11CHTO  H117 4454   7.317   7.547   0.743
   11CHTO   C62 4455   7.279   7.614   0.543
   11CHTO  H119 4456   7.231   7.708   0.580
   11CHTO   O43 4457   7.352   7.643   0.423
   11CHTO  H101 4458   7.294   7.675   0.357
   11CHTO   C66 4459   7.165   7.501   0.524
   11CHTO  H123 4460   7.115   7.486   0.620
   11CHTO   N12 4461   7.058   7.541   0.429
   11CHTO  H110 4462   7.055   7.474   0.344
   11CHTO  H111 4463   7.070   7.643   0.398
   11CHTO   C69 4464   7.232   7.365   0.487
   11CHTO  H126 4465   7.278   7.372   0.386
   11CHTO   O41 4466   7.342   7.328   0.593
   11CHTO   C64 4467   7.445   7.435   0.614
   11CHTO  H121 4468   7.502   7.451   0.519
   11CHTO   C71 4469   7.546   7.385   0.720
   11CHTO   O47 4470   7.484   7.365   0.847
   11CHTO  H104 4471   7.423   7.294   0.843
   11CHTO   O34 4472   7.126   7.250   0.485
   11CHTO   C49 4473   7.011   7.189   0.567
   11CHTO   H91 4474   6.941   7.270   0.588
   11CHTO   C47 4475   7.066   7.130   0.699
   11CHTO   H89 4476   6.978   7.096   0.758
   11CHTO   O33 4477   7.132   7.235   0.773
   11CHTO   H70 4478   7.070   7.298   0.803
   11CHTO   C45 4479   7.162   7.005   0.665
   11CHTO   H87 4480   7.240   7.040   0.596
   11CHTO    N8 4481   7.227   6.948   0.785
   11CHTO   H75 4482   7.284   7.025   0.836
   11CHTO   H76 4483   7.153   6.908   0.852
   11CHTO   C43 4484   7.077   6.896   0.583
   11CHTO   H85 4485   7.148   6.818   0.553
   11CHTO   O29 4486   7.013   6.956   0.468
   11CHTO   C50 4487   6.939   7.078   0.485
   11CHTO   H92 4488   6.922   7.120   0.385
   11CHTO   C54 4489   6.794   7.054   0.537
   11CHTO   O36 4490   6.719   6.972   0.447
   11CHTO   H72 4491   6.702   7.020   0.368
   11CHTO   O27 4492   6.978   6.831   0.665
   11CHTO   C37 4493   6.900   6.723   0.717
   11CHTO   H79 4494   6.964   6.654   0.774
   11CHTO   C38 4495   6.792   6.778   0.816
   11CHTO   H80 4496   6.735   6.857   0.764
   11CHTO   O31 4497   6.863   6.839   0.926
   11CHTO   H68 4498   6.802   6.882   0.983
   11CHTO   C39 4499   6.695   6.665   0.865
   11CHTO   H81 4500   6.753   6.598   0.929
   11CHTO    N7 4501   6.581   6.715   0.951
   11CHTO   H73 4502   6.588   6.822   0.964
   11CHTO   H74 4503   6.485   6.689   0.908
   11CHTO   C40 4504   6.642   6.579   0.743
   11CHTO   H82 4505   6.566   6.634   0.687
   11CHTO   O26 4506   6.750   6.536   0.658
   11CHTO   C41 4507   6.830   6.645   0.603
   11CHTO   H83 4508   6.764   6.713   0.547
   11CHTO   C52 4509   6.930   6.584   0.501
   11CHTO   O35 4510   7.025   6.488   0.563
   11CHTO   H71 4511   7.082   6.533   0.623
   11CHTO   O28 4512   6.589   6.453   0.788
   11CHTO   C42 4513   6.474   6.389   0.725
   11CHTO   H84 4514   6.474   6.425   0.622
   11CHTO   C44 4515   6.336   6.429   0.787
   11CHTO   H86 4516   6.342   6.419   0.895
   11CHTO   O32 4517   6.315   6.568   0.757
   11CHTO   H69 4518   6.237   6.599   0.800
   11CHTO   C48 4519   6.216   6.339   0.736
   11CHTO   H90 4520   6.197   6.361   0.631
   11CHTO    N9 4521   6.087   6.371   0.808
   11CHTO   H77 4522   6.060   6.474   0.790
   11CHTO   H78 4523   6.098   6.353   0.914
   11CHTO   C51 4524   6.257   6.188   0.751
   11CHTO   H93 4525   6.281   6.170   0.856
   11CHTO   O30 4526   6.371   6.168   0.666
   11CHTO   C46 4527   6.494   6.234   0.718
   11CHTO   H88 4528   6.516   6.195   0.818
   11CHTO   C53 4529   6.607   6.193   0.620
   11CHTO   O72 4530   6.737   6.236   0.664
   11CHTO  H199 4531   6.763   6.187   0.740
   11CHTO   O22 4532   6.159   6.094   0.702
   11CHTO   C31 4533   6.123   5.976   0.783
   11CHTO   H59 4534   6.170   5.990   0.883
   11CHTO   C29 4535   5.971   5.961   0.806
   11CHTO   H57 4536   5.924   5.946   0.708
   11CHTO   O21 4537   5.919   6.085   0.859
   11CHTO   H37 4538   5.953   6.100   0.945
   11CHTO   C27 4539   5.937   5.837   0.899
   11CHTO   H55 4540   5.976   5.857   1.000
   11CHTO    N5 4541   5.791   5.812   0.909
   11CHTO   H43 4542   5.757   5.829   1.011
   11CHTO   H44 4543   5.735   5.873   0.840
   11CHTO   C25 4544   6.013   5.709   0.848
   11CHTO   H53 4545   5.968   5.675   0.753
   11CHTO   O17 4546   6.154   5.737   0.825
   11CHTO   C32 4547   6.179   5.841   0.728
   11CHTO   H60 4548   6.129   5.817   0.635
   11CHTO   C36 4549   6.331   5.845   0.701
   11CHTO   O25 4550   6.379   5.722   0.647
   11CHTO   H40 4551   6.471   5.728   0.632
   11CHTO   O15 4552   6.008   5.594   0.952
   11CHTO   C19 4553   5.948   5.476   1.010
   11CHTO   H47 4554   6.022   5.442   1.084
   11CHTO   C20 4555   5.813   5.499   1.084
   11CHTO   H48 4556   5.735   5.538   1.016
   11CHTO   O19 4557   5.839   5.599   1.184
   11CHTO   H35 4558   5.759   5.624   1.227
   11CHTO   C21 4559   5.759   5.365   1.148
   11CHTO   H49 4560   5.831   5.330   1.222
   11CHTO    N4 4561   5.629   5.383   1.219
   11CHTO   H41 4562   5.641   5.453   1.301
   11CHTO   H42 4563   5.554   5.420   1.151
   11CHTO   C22 4564   5.751   5.259   1.035
   11CHTO   H50 4565   5.680   5.296   0.960
   11CHTO   O14 4566   5.881   5.242   0.974
   11CHTO   C23 4567   5.931   5.359   0.908
   11CHTO   H51 4568   5.860   5.385   0.828
   11CHTO   C34 4569   6.064   5.325   0.838
   11CHTO   O23 4570   6.165   5.283   0.931
   11CHTO   H38 4571   6.243   5.262   0.884
   11CHTO   O16 4572   5.714   5.128   1.080
   11CHTO   C24 4573   5.621   5.051   0.970
   11CHTO   H52 4574   5.611   5.109   0.879
   11CHTO   C26 4575   5.482   5.023   1.029
   11CHTO   H54 4576   5.492   4.953   1.115
   11CHTO   O20 4577   5.426   5.147   1.076
   11CHTO   H36 4578   5.345   5.131   1.120
   11CHTO   C30 4579   5.392   4.957   0.920
   11CHTO   H58 4580   5.370   5.032   0.843
   11CHTO    N6 4581   5.259   4.916   0.973
   11CHTO   H45 4582   5.271   4.846   1.054
   11CHTO   H46 4583   5.205   5.003   1.009
   11CHTO   C33 4584   5.463   4.838   0.847
   11CHTO   H61 4585   5.452   4.746   0.907
   11CHTO   O18 4586   5.604   4.860   0.826
   11CHTO   C28 4587   5.685   4.916   0.930
   11CHTO   H56 4588   5.687   4.851   1.017
   11CHTO   C35 4589   5.829   4.936   0.877
   11CHTO   O24 4590   5.889   4.815   0.831
   11CHTO   H39 4591   5.977   4.833   0.802
   11CHTO    O9 4592   5.396   4.810   0.722
   11CHTO   C13 4593   5.437   4.919   0.604
   11CHTO   H26 4594   5.483   5.008   0.653
   11CHTO   C11 4595   5.309   4.960   0.519
   11CHTO   H24 4596   5.232   4.998   0.588
   11CHTO    O8 4597   5.257   4.842   0.454
   11CHTO    H3 4598   5.224   4.782   0.518
   11CHTO    C9 4599   5.351   5.077   0.424
   11CHTO   H22 4600   5.357   5.166   0.489
   11CHTO    N2 4601   5.245   5.115   0.327
   11CHTO   H10 4602   5.232   5.036   0.254
   11CHTO   H11 4603   5.153   5.136   0.378
   11CHTO    C7 4604   5.496   5.052   0.365
   11CHTO   H20 4605   5.561   5.110   0.435
   11CHTO    O4 4606   5.533   4.913   0.371
   11CHTO   C14 4607   5.550   4.863   0.505
   11CHTO   H27 4608   5.649   4.896   0.542
   11CHTO   C18 4609   5.556   4.708   0.494
   11CHTO   O13 4610   5.604   4.646   0.613
   11CHTO    H7 4611   5.695   4.667   0.625
   11CHTO    O2 4612   5.523   5.108   0.213
   11CHTO    C1 4613   5.629   5.205   0.207
   11CHTO   H14 4614   5.705   5.181   0.286
   11CHTO    C2 4615   5.581   5.354   0.227
   11CHTO   H15 4616   5.502   5.372   0.152
   11CHTO    O6 4617   5.525   5.368   0.359
   11CHTO    H1 4618   5.447   5.318   0.367
   11CHTO    C3 4619   5.703   5.457   0.205
   11CHTO   H16 4620   5.774   5.445   0.288
   11CHTO    N1 4621   5.656   5.600   0.208
   11CHTO    H8 4622   5.586   5.617   0.128
   11CHTO    H9 4623   5.741   5.666   0.197
   11CHTO    C4 4624   5.782   5.421   0.073
   11CHTO   H17 4625   5.720   5.448   2.829
   11CHTO    O1 4626   5.816   5.282   0.068
   11CHTO    C5 4627   5.704   5.192   0.071
   11CHTO   H18 4628   5.634   5.219   2.834
   11CHTO   C16 4629   5.756   5.049   0.045
   11CHTO   O11 4630   5.851   5.007   0.144
   11CHTO    H5 4631   5.880   4.920   0.125
   11CHTO    O3 4632   5.910   5.488   0.068
   11CHTO    C6 4633   5.954   5.523   2.775
   11CHTO   H19 4634   5.896   5.473   2.697
   11CHTO    C8 4635   5.943   5.676   2.752
   11CHTO   H21 4636   6.002   5.727   2.829
   11CHTO    O7 4637   5.805   5.710   2.767
   11CHTO    H2 4638   5.793   5.803   2.765
   11CHTO   C12 4639   5.998   5.714   2.609
   11CHTO   H25 4640   5.931   5.664   2.536
   11CHTO    N3 4641   5.990   5.862   2.583
   11CHTO   H12 4642   5.948   5.915   2.667
   11CHTO   H13 4643   5.931   5.881   2.494
   11CHTO   C15 4644   6.143   5.657   2.593
   11CHTO   H28 4645   6.215   5.709   2.655
   11CHTO   O10 4646   6.192   5.659   2.446
   11CHTO    H4 4647   6.199   5.748   2.416
   11CHTO    O5 4648   6.147   5.516   2.621
   11CHTO   C10 4649   6.102   5.480   2.753
   11CHTO   H23 4650   6.166   5.530   2.826
   11CHTO   C17 4651   6.124   5.329   2.772
   11CHTO   O12 4652   6.049   5.250   2.678
   11CHTO    H6 4653   6.083   5.262   2.592
   12CHTO  H203 4654   5.961   1.896   2.505
   12CHTO   O82 4655   5.868   1.891   2.493
   12CHTO  C123 4656   5.806   1.835   2.610
   12CHTO  H227 4657   5.830   1.897   2.697
   12CHTO   O77 4658   5.664   1.845   2.579
   12CHTO  C118 4659   5.577   1.801   2.684
   12CHTO  H222 4660   5.598   1.857   2.776
   12CHTO  C125 4661   5.429   1.831   2.639
   12CHTO   O84 4662   5.406   1.972   2.630
   12CHTO  H205 4663   5.408   2.010   2.716
   12CHTO  C114 4664   5.598   1.650   2.710
   12CHTO  H218 4665   5.572   1.595   2.620
   12CHTO  C116 4666   5.748   1.621   2.743
   12CHTO  H220 4667   5.772   1.663   0.001
   12CHTO   O79 4668   5.766   1.478   2.755
   12CHTO  H201 4669   5.748   1.436   2.673
   12CHTO  C120 4670   5.844   1.683   2.634
   12CHTO  H224 4671   5.828   1.625   2.541
   12CHTO   N21 4672   5.988   1.668   2.670
   12CHTO  H211 4673   6.021   1.751   2.731
   12CHTO  H212 4674   6.004   1.574   2.721
   12CHTO   O75 4675   5.506   1.617   2.817
   12CHTO  C112 4676   5.445   1.462   2.807
   12CHTO  H216 4677   5.521   1.397   2.760
   12CHTO   O73 4678   5.324   1.467   2.729
   12CHTO  C113 4679   5.273   1.336   2.702
   12CHTO  H217 4680   5.353   1.275   2.656
   12CHTO  C124 4681   5.161   1.347   2.597
   12CHTO   O83 4682   5.042   1.411   2.644
   12CHTO  H204 4683   5.000   1.358   2.709
   12CHTO  C109 4684   5.225   1.267   2.833
   12CHTO  H213 4685   5.140   1.325   0.029
   12CHTO  C110 4686   5.341   1.267   0.097
   12CHTO  H214 4687   5.413   1.190   0.067
   12CHTO   O78 4688   5.287   1.226   0.224
   12CHTO  H200 4689   5.356   1.215   0.286
   12CHTO  C111 4690   5.411   1.406   0.108
   12CHTO  H215 4691   5.340   1.476   0.155
   12CHTO   N19 4692   5.532   1.403   0.193
   12CHTO  H207 4693   5.575   1.502   0.201
   12CHTO  H208 4694   5.605   1.335   0.152
   12CHTO   O74 4695   5.179   1.132   2.799
   12CHTO  C115 4696   5.092   1.049   0.069
   12CHTO  H219 4697   5.148   1.034   0.160
   12CHTO   O76 4698   4.959   1.130   0.113
   12CHTO  C122 4699   4.870   1.059   0.202
   12CHTO  H226 4700   4.775   1.113   0.202
   12CHTO  C126 4701   4.922   1.064   0.350
   12CHTO   O85 4702   4.925   1.196   0.406
   12CHTO  H206 4703   4.988   1.249   0.360
   12CHTO  C121 4704   4.841   0.910   0.158
   12CHTO  H225 4705   4.789   0.859   0.242
   12CHTO   O81 4706   4.751   0.910   0.046
   12CHTO  H202 4707   4.723   0.823   0.027
   12CHTO  C119 4708   4.974   0.833   0.128
   12CHTO  H223 4709   5.034   0.847   0.218
   12CHTO  C117 4710   5.053   0.907   0.013
   12CHTO  H221 4711   4.998   0.926   2.763
   12CHTO   N20 4712   5.175   0.831   2.811
   12CHTO  H209 4713   5.266   0.887   2.830
   12CHTO  H210 4714   5.181   0.734   0.017
   12CHTO   O80 4715   4.963   0.671   0.123
   12CHTO  C103 4716   4.850   0.602   0.050
   12CHTO  H190 4717   4.760   0.663   0.047
   12CHTO  C101 4718   4.884   0.552   2.746
   12CHTO  H188 4719   4.984   0.509   2.747
   12CHTO   O68 4720   4.885   0.675   2.651
   12CHTO  H168 4721   4.914   0.650   2.565
   12CHTO   C99 4722   4.781   0.439   2.696
   12CHTO  H186 4723   4.681   0.485   2.683
   12CHTO   N17 4724   4.818   0.379   2.563
   12CHTO  H174 4725   4.913   0.328   2.570
   12CHTO  H175 4726   4.820   0.456   2.487
   12CHTO   C97 4727   4.765   0.330   2.805
   12CHTO  H184 4728   4.861   0.277   2.818
   12CHTO   O64 4729   4.722   0.393   0.086
   12CHTO  C104 4730   4.820   0.479   0.144
   12CHTO  H191 4731   4.913   0.425   0.163
   12CHTO  C108 4732   4.769   0.525   0.281
   12CHTO   O71 4733   4.757   0.416   0.373
   12CHTO  H171 4734   4.687   0.359   0.345
   12CHTO   O62 4735   4.659   0.236   2.776
   12CHTO   C91 4736   4.653   0.117   0.016
   12CHTO  H178 4737   4.721   0.128   0.101
   12CHTO   C92 4738   4.705   9.995   2.775
   12CHTO  H179 4739   4.655   9.997   2.677
   12CHTO   O66 4740   4.845   0.015   2.749
   12CHTO  H166 4741   4.857   0.088   2.692
   12CHTO   C93 4742   4.680   9.855   0.005
   12CHTO  H180 4743   4.749   9.849   0.090
   12CHTO   N16 4744   4.713   9.740   2.759
   12CHTO  H172 4745   4.698   9.647   2.812
   12CHTO  H173 4746   4.651   9.742   2.670
   12CHTO   C94 4747   4.532   9.848   0.057
   12CHTO  H181 4748   4.460   9.855   2.817
   12CHTO   O61 4749   4.507   9.960   0.142
   12CHTO   C95 4750   4.509   0.086   0.074
   12CHTO  H182 4751   4.438   0.083   2.833
   12CHTO  C106 4752   4.459   0.198   0.172
   12CHTO   O69 4753   4.541   0.207   0.289
   12CHTO  H169 4754   4.508   0.275   0.344
   12CHTO   O63 4755   4.497   9.709   0.145
   12CHTO   C96 4756   4.592   9.665   0.270
   12CHTO  H183 4757   4.681   9.728   0.271
   12CHTO   C98 4758   4.636   9.516   0.257
   12CHTO  H185 4759   4.549   9.455   0.228
   12CHTO   O67 4760   4.726   9.508   0.145
   12CHTO  H167 4761   4.750   9.418   0.129
   12CHTO  C102 4762   4.705   9.455   0.389
   12CHTO  H189 4763   4.803   9.503   0.396
   12CHTO   N18 4764   4.731   9.309   0.382
   12CHTO  H176 4765   4.799   9.288   0.300
   12CHTO  H177 4766   4.638   9.256   0.367
   12CHTO  C105 4767   4.624   9.495   0.515
   12CHTO  H192 4768   4.530   9.439   0.517
   12CHTO   O65 4769   4.593   9.636   0.518
   12CHTO  C100 4770   4.515   9.683   0.407
   12CHTO  H187 4771   4.422   9.624   0.402
   12CHTO  C107 4772   4.474   9.830   0.435
   12CHTO   O70 4773   4.588   9.915   0.450
   12CHTO  H170 4774   4.559   0.003   0.465
   12CHTO   O57 4775   4.718   9.457   0.647
   12CHTO   C85 4776   4.668   9.362   0.743
   12CHTO  H157 4777   4.593   9.301   0.689
   12CHTO   C83 4778   4.588   9.437   0.855
   12CHTO  H155 4779   4.506   9.491   0.809
   12CHTO   O56 4780   4.673   9.536   0.915
   12CHTO  H135 4781   4.625   9.588   0.977
   12CHTO   C81 4782   4.530   9.333   0.956
   12CHTO  H153 4783   4.465   9.265   0.901
   12CHTO   N14 4784   4.440   9.393   1.058
   12CHTO  H141 4785   4.443   9.500   1.054
   12CHTO  H142 4786   4.466   9.360   1.157
   12CHTO   C79 4787   4.647   9.247   1.018
   12CHTO  H151 4788   4.600   9.167   1.077
   12CHTO   O52 4789   4.722   9.181   0.912
   12CHTO   C86 4790   4.777   9.273   0.813
   12CHTO  H158 4791   4.850   9.336   0.869
   12CHTO   C90 4792   4.861   9.194   0.710
   12CHTO   O60 4793   4.968   9.125   0.775
   12CHTO  H138 4794   5.017   9.077   0.711
   12CHTO   O50 4795   4.736   9.319   1.104
   12CHTO   C73 4796   4.830   9.313   1.213
   12CHTO  H145 4797   4.784   9.260   1.298
   12CHTO   C74 4798   4.866   9.458   1.259
   12CHTO  H146 4799   4.772   9.509   1.285
   12CHTO   O54 4800   4.942   9.449   1.381
   12CHTO  H133 4801   4.962   9.535   1.413
   12CHTO   C75 4802   4.942   9.532   1.142
   12CHTO  H147 4803   4.876   9.536   1.054
   12CHTO   N13 4804   4.977   9.673   1.173
   12CHTO  H139 4805   5.084   9.688   1.172
   12CHTO  H140 4806   4.932   9.740   1.101
   12CHTO   C76 4807   5.069   9.444   1.099
   12CHTO  H148 4808   5.138   9.441   1.185
   12CHTO   O49 4809   5.029   9.307   1.066
   12CHTO   C77 4810   4.962   9.239   1.173
   12CHTO  H149 4811   5.028   9.234   1.259
   12CHTO   C88 4812   4.940   9.093   1.130
   12CHTO   O58 4813   4.875   9.015   1.235
   12CHTO  H136 4814   4.862   8.927   1.206
   12CHTO   O51 4815   5.139   9.502   0.967
   12CHTO   C78 4816   5.291   9.460   0.961
   12CHTO  H150 4817   5.309   9.370   1.024
   12CHTO   C80 4818   5.381   9.575   1.011
   12CHTO  H152 4819   5.364   9.664   0.947
   12CHTO   O55 4820   5.340   9.607   1.145
   12CHTO  H134 4821   5.387   9.682   1.176
   12CHTO   C84 4822   5.533   9.533   1.006
   12CHTO  H156 4823   5.548   9.455   1.080
   12CHTO   N15 4824   5.625   9.646   1.043
   12CHTO  H143 4825   5.605   9.677   1.144
   12CHTO  H144 4826   5.610   9.729   0.977
   12CHTO   C87 4827   5.571   9.473   0.868
   12CHTO  H159 4828   5.582   9.552   0.793
   12CHTO   O53 4829   5.464   9.370   0.821
   12CHTO   C82 4830   5.332   9.425   0.817
   12CHTO  H154 4831   5.329   9.514   0.753
   12CHTO   C89 4832   5.236   9.322   0.755
   12CHTO   O59 4833   5.268   9.297   0.618
   12CHTO  H137 4834   5.209   9.234   0.582
   12CHTO   O45 4835   5.715   9.389   0.882
   12CHTO   C67 4836   5.801   9.378   0.767
   12CHTO  H124 4837   5.884   9.313   0.795
   12CHTO   C65 4838   5.730   9.315   0.641
   12CHTO  H122 4839   5.635   9.274   0.676
   12CHTO   O44 4840   5.811   9.206   0.593
   12CHTO  H102 4841   5.891   9.239   0.557
   12CHTO   C63 4842   5.696   9.425   0.535
   12CHTO  H120 4843   5.640   9.505   0.584
   12CHTO   N11 4844   5.602   9.385   0.426
   12CHTO  H108 4845   5.648   9.310   0.364
   12CHTO  H109 4846   5.577   9.470   0.366
   12CHTO   C61 4847   5.833   9.486   0.486
   12CHTO  H118 4848   5.810   9.578   0.430
   12CHTO   O40 4849   5.920   9.526   0.597
   12CHTO   C68 4850   5.867   9.519   0.733
   12CHTO  H125 4851   5.792   9.600   0.745
   12CHTO   C72 4852   5.983   9.551   0.829
   12CHTO   O48 4853   5.945   9.559   0.967
   12CHTO  H105 4854   6.021   9.579   1.019
   12CHTO   O38 4855   5.908   9.393   0.405
   12CHTO   C55 4856   6.012   9.447   0.321
   12CHTO  H112 4857   6.040   9.548   0.354
   12CHTO   C56 4858   5.963   9.446   0.170
   12CHTO  H113 4859   5.924   9.345   0.149
   12CHTO   O42 4860   5.851   9.536   0.156
   12CHTO  H100 4861   5.778   9.505   0.205
   12CHTO   C57 4862   6.080   9.482   0.070
   12CHTO  H114 4863   6.104   9.587   0.085
   12CHTO   N10 4864   6.043   9.465   2.769
   12CHTO  H106 4865   5.972   9.384   2.756
   12CHTO  H107 4866   6.130   9.445   2.708
   12CHTO   C58 4867   6.205   9.397   0.105
   12CHTO  H115 4868   6.183   9.289   0.085
   12CHTO   O37 4869   6.240   9.414   0.243
   12CHTO   C59 4870   6.142   9.362   0.334
   12CHTO  H116 4871   6.123   9.257   0.311
   12CHTO   C70 4872   6.202   9.370   0.475
   12CHTO   O46 4873   6.126   9.297   0.572
   12CHTO  H103 4874   6.134   9.205   0.555
   12CHTO   O39 4875   6.334   9.444   0.019
   12CHTO   C60 4876   6.431   9.340   0.004
   12CHTO  H117 4877   6.413   9.262   0.079
   12CHTO   C62 4878   6.422   9.274   2.706
   12CHTO  H119 4879   6.317   9.237   2.696
   12CHTO   O43 4880   6.444   9.375   2.605
   12CHTO  H101 4881   6.434   9.337   2.519
   12CHTO   C66 4882   6.523   9.150   2.698
   12CHTO  H123 4883   6.496   9.079   2.776
   12CHTO   N12 4884   6.514   9.076   2.570
   12CHTO  H110 4885   6.414   9.039   2.556
   12CHTO  H111 4886   6.586   8.995   2.569
   12CHTO   C69 4887   6.668   9.198   2.729
   12CHTO  H126 4888   6.705   9.263   2.647
   12CHTO   O41 4889   6.672   9.278   0.023
   12CHTO   C64 4890   6.575   9.393   0.029
   12CHTO  H121 4891   6.601   9.468   2.794
   12CHTO   C71 4892   6.590   9.459   0.168
   12CHTO   O47 4893   6.521   9.585   0.177
   12CHTO  H104 4894   6.428   9.570   0.173
   12CHTO   O34 4895   6.763   9.076   2.743
   12CHTO   C49 4896   6.908   9.071   2.705
   12CHTO   H91 4897   6.913   9.084   2.597
   12CHTO   C47 4898   6.965   8.934   2.746
   12CHTO   H89 4899   7.065   8.930   2.695
   12CHTO   O33 4900   6.885   8.828   2.691
   12CHTO   H70 4901   6.927   8.745   2.706
   12CHTO   C45 4902   6.978   8.918   0.065
   12CHTO   H87 4903   6.896   8.854   0.100
   12CHTO    N8 4904   7.106   8.849   0.095
   12CHTO   H75 4905   7.189   8.911   0.065
   12CHTO   H76 4906   7.111   8.754   0.044
   12CHTO   C43 4907   6.955   9.059   0.139
   12CHTO   H85 4908   6.847   9.076   0.136
   12CHTO   O29 4909   7.028   9.163   0.072
   12CHTO   C50 4910   6.993   9.183   2.775
   12CHTO   H92 4911   6.938   9.277   2.767
   12CHTO   C54 4912   7.123   9.210   2.694
   12CHTO   O36 4913   7.189   9.329   2.739
   12CHTO   H72 4914   7.267   9.341   2.688
   12CHTO   O27 4915   6.986   9.056   0.280
   12CHTO   C37 4916   6.934   9.096   0.408
   12CHTO   H79 4917   7.015   9.137   0.469
   12CHTO   C38 4918   6.826   9.209   0.394
   12CHTO   H80 4919   6.750   9.176   0.321
   12CHTO   O31 4920   6.894   9.324   0.342
   12CHTO   H68 4921   6.832   9.392   0.324
   12CHTO   C39 4922   6.756   9.238   0.533
   12CHTO   H81 4923   6.832   9.276   0.601
   12CHTO    N7 4924   6.648   9.343   0.525
   12CHTO   H73 4925   6.605   9.360   0.623
   12CHTO   H74 4926   6.570   9.311   0.456
   12CHTO   C40 4927   6.701   9.103   0.592
   12CHTO   H82 4928   6.623   9.064   0.527
   12CHTO   O26 4929   6.811   9.012   0.606
   12CHTO   C41 4930   6.875   8.972   0.482
   12CHTO   H83 4931   6.802   8.921   0.417
   12CHTO   C52 4932   6.983   8.869   0.523
   12CHTO   O35 4933   7.043   8.800   0.415
   12CHTO   H71 4934   7.092   8.860   0.362
   12CHTO   O28 4935   6.650   9.115   0.727
   12CHTO   C42 4936   6.545   9.026   0.778
   12CHTO   H84 4937   6.570   9.016   0.884
   12CHTO   C44 4938   6.541   8.880   0.722
   12CHTO   H86 4939   6.529   8.885   0.614
   12CHTO   O32 4940   6.668   8.819   0.751
   12CHTO   H69 4941   6.674   8.735   0.709
   12CHTO   C48 4942   6.422   8.793   0.781
   12CHTO   H90 4943   6.449   8.768   0.883
   12CHTO    N9 4944   6.408   8.661   0.708
   12CHTO   H77 4945   6.418   8.579   0.778
   12CHTO   H78 4946   6.315   8.656   0.655
   12CHTO   C51 4947   6.288   8.874   0.785
   12CHTO   H93 4948   6.249   8.884   0.683
   12CHTO   O30 4949   6.308   9.002   0.847
   12CHTO   C46 4950   6.404   9.090   0.771
   12CHTO   H88 4951   6.372   9.098   0.667
   12CHTO   C53 4952   6.402   9.230   0.838
   12CHTO   O72 4953   6.271   9.288   0.835
   12CHTO  H199 4954   6.274   9.372   0.877
   12CHTO   O22 4955   6.193   8.804   0.869
   12CHTO   C31 4956   6.051   8.836   0.886
   12CHTO   H59 4957   6.009   8.754   0.949
   12CHTO   C29 4958   6.023   8.968   0.960
   12CHTO   H57 4959   6.058   9.051   0.897
   12CHTO   O21 4960   6.100   8.969   1.081
   12CHTO   H37 4961   6.094   9.053   1.123
   12CHTO   C27 4962   5.868   8.986   0.987
   12CHTO   H55 4963   5.835   8.906   1.055
   12CHTO    N5 4964   5.836   9.117   1.049
   12CHTO   H43 4965   5.861   9.197   0.982
   12CHTO   H44 4966   5.730   9.121   1.074
   12CHTO   C25 4967   5.789   8.965   0.852
   12CHTO   H53 4968   5.811   9.050   0.785
   12CHTO   O17 4969   5.829   8.842   0.784
   12CHTO   C32 4970   5.968   8.833   0.753
   12CHTO   H60 4971   5.999   8.917   0.691
   12CHTO   C36 4972   5.991   8.701   0.675
   12CHTO   O25 4973   5.923   8.704   0.549
   12CHTO   H40 4974   5.940   8.624   0.503
   12CHTO   O15 4975   5.637   8.957   0.876
   12CHTO   C19 4976   5.517   8.979   0.796
   12CHTO   H47 4977   5.509   9.089   0.791
   12CHTO   C20 4978   5.521   8.923   0.650
   12CHTO   H48 4979   5.533   8.813   0.649
   12CHTO   O19 4980   5.636   8.980   0.585
   12CHTO   H35 4981   5.647   8.943   0.500
   12CHTO   C21 4982   5.388   8.959   0.572
   12CHTO   H49 4983   5.382   9.068   0.563
   12CHTO    N4 4984   5.386   8.905   0.434
   12CHTO   H41 4985   5.391   8.797   0.437
   12CHTO   H42 4986   5.296   8.935   0.384
   12CHTO   C22 4987   5.266   8.914   0.657
   12CHTO   H50 4988   5.266   8.805   0.663
   12CHTO   O14 4989   5.273   8.970   0.789
   12CHTO   C23 4990   5.388   8.928   0.865
   12CHTO   H51 4991   5.385   8.818   0.870
   12CHTO   C34 4992   5.374   8.978   1.010
   12CHTO   O23 4993   5.369   9.121   1.019
   12CHTO   H38 4994   5.452   9.157   0.995
   12CHTO   O16 4995   5.139   8.961   0.607
   12CHTO   C24 4996   5.048   8.845   0.533
   12CHTO   H52 4997   5.107   8.757   0.508
   12CHTO   C26 4998   4.986   8.904   0.405
   12CHTO   H54 4999   4.920   8.990   0.433
   12CHTO   O20 5000   5.090   8.953   0.319
   12CHTO   H36 5001   5.132   9.028   0.358
   12CHTO   C30 5002   4.898   8.797   0.332
   12CHTO   H58 5003   4.963   8.717   0.294
   12CHTO    N6 5004   4.828   8.852   0.213
   12CHTO   H45 5005   4.760   8.931   0.243
   12CHTO   H46 5006   4.772   8.775   0.163
   12CHTO   C33 5007   4.799   8.728   0.432
   12CHTO   H61 5008   4.718   8.799   0.456
   12CHTO   O18 5009   4.864   8.692   0.555
   12CHTO   C28 5010   4.932   8.797   0.625
   12CHTO   H56 5011   4.864   8.881   0.644
   12CHTO   C35 5012   4.979   8.737   0.759
   12CHTO   O24 5013   5.019   8.836   0.854
   12CHTO   H39 5014   5.047   8.794   0.933
   12CHTO    O9 5015   4.734   8.615   0.371
   12CHTO   C13 5016   4.822   8.474   0.372
   12CHTO   H26 5017   4.928   8.499   0.394
   12CHTO   C11 5018   4.806   8.405   0.230
   12CHTO   H24 5019   4.858   8.468   0.157
   12CHTO    O8 5020   4.667   8.402   0.193
   12CHTO    H3 5021   4.658   8.370   0.105
   12CHTO    C9 5022   4.874   8.266   0.235
   12CHTO   H22 5023   4.977   8.285   0.268
   12CHTO    N2 5024   4.888   8.202   0.102
   12CHTO   H10 5025   4.940   8.268   0.034
   12CHTO   H11 5026   4.943   8.109   0.111
   12CHTO    C7 5027   4.802   8.176   0.342
   12CHTO   H20 5028   4.862   8.082   0.345
   12CHTO    O4 5029   4.806   8.238   0.472
   12CHTO   C14 5030   4.775   8.378   0.491
   12CHTO   H27 5031   4.832   8.408   0.582
   12CHTO   C18 5032   4.624   8.390   0.527
   12CHTO   O13 5033   4.594   8.514   0.593
   12CHTO    H7 5034   4.502   8.519   0.609
   12CHTO    O2 5035   4.646   8.142   0.303
   12CHTO    C1 5036   4.604   8.006   0.327
   12CHTO   H14 5037   4.659   7.965   0.414
   12CHTO    C2 5038   4.625   7.909   0.202
   12CHTO   H15 5039   4.589   7.965   0.114
   12CHTO    O6 5040   4.766   7.885   0.185
   12CHTO    H1 5041   4.801   7.840   0.260
   12CHTO    C3 5042   4.544   7.770   0.216
   12CHTO   H16 5043   4.593   7.709   0.293
   12CHTO    N1 5044   4.547   7.689   0.088
   12CHTO    H8 5045   4.447   7.675   0.049
   12CHTO    H9 5046   4.609   7.736   0.014
   12CHTO    C4 5047   4.398   7.796   0.269
   12CHTO   H17 5048   4.342   7.852   0.193
   12CHTO    O1 5049   4.407   7.874   0.389
   12CHTO    C5 5050   4.454   8.008   0.366
   12CHTO   H18 5051   4.398   8.053   0.284
   12CHTO   C16 5052   4.426   8.088   0.495
   12CHTO   O11 5053   4.286   8.094   0.521
   12CHTO    H5 5054   4.254   8.009   0.546
   12CHTO    O3 5055   4.325   7.674   0.297
   12CHTO    C6 5056   4.240   7.658   0.416
   12CHTO   H19 5057   4.283   7.704   0.505
   12CHTO    C8 5058   4.097   7.718   0.394
   12CHTO   H21 5059   4.054   7.673   0.305
   12CHTO    O7 5060   4.113   7.860   0.375
   12CHTO    H2 5061   4.030   7.898   0.352
   12CHTO   C12 5062   4.004   7.685   0.519
   12CHTO   H25 5063   4.047   7.741   0.605
   12CHTO    N3 5064   3.864   7.737   0.500
   12CHTO   H12 5065   3.792   7.657   0.500
   12CHTO   H13 5066   3.855   7.796   0.410
   12CHTO   C15 5067   4.010   7.531   0.550
   12CHTO   H28 5068   3.960   7.472   0.474
   12CHTO   O10 5069   3.950   7.496   0.689
   12CHTO    H4 5070   3.989   7.549   0.756
   12CHTO    O5 5071   4.146   7.487   0.565
   12CHTO   C10 5072   4.227   7.506   0.448
   12CHTO   H23 5073   4.180   7.453   0.364
   12CHTO   C17 5074   4.362   7.439   0.475
   12CHTO   O12 5075   4.442   7.427   0.357
   12CHTO    H6 5076   4.403   7.364   0.299
   13CHTO  H203 5077   8.549   4.286   1.744
   13CHTO   O82 5078   8.573   4.359   1.797
   13CHTO  C123 5079   8.560   4.482   1.724
   13CHTO  H227 5080   8.604   4.468   1.624
   13CHTO   O77 5081   8.415   4.499   1.712
   13CHTO  C118 5082   8.375   4.614   1.636
   13CHTO  H222 5083   8.417   4.610   1.535
   13CHTO  C125 5084   8.217   4.614   1.626
   13CHTO   O84 5085   8.167   4.496   1.561
   13CHTO  H205 5086   8.184   4.421   1.615
   13CHTO  C114 5087   8.424   4.742   1.707
   13CHTO  H218 5088   8.379   4.747   1.806
   13CHTO  C116 5089   8.579   4.739   1.728
   13CHTO  H220 5090   8.629   4.748   1.629
   13CHTO   O79 5091   8.615   4.857   1.803
   13CHTO  H201 5092   8.709   4.862   1.811
   13CHTO  C120 5093   8.623   4.605   1.799
   13CHTO  H224 5094   8.584   4.610   1.903
   13CHTO   N21 5095   8.772   4.596   1.809
   13CHTO  H211 5096   8.800   4.538   1.895
   13CHTO  H212 5097   8.813   4.553   1.718
   13CHTO   O75 5098   8.380   4.852   1.625
   13CHTO  C112 5099   8.312   4.972   1.711
   13CHTO  H216 5100   8.378   4.996   1.796
   13CHTO   O73 5101   8.184   4.924   1.755
   13CHTO  C113 5102   8.113   5.019   1.836
   13CHTO  H217 5103   8.178   5.053   1.919
   13CHTO  C124 5104   7.994   4.945   1.898
   13CHTO   O83 5105   7.929   5.019   2.002
   13CHTO  H204 5106   7.857   4.969   2.035
   13CHTO  C109 5107   8.072   5.139   1.746
   13CHTO  H213 5108   8.011   5.098   1.664
   13CHTO  C110 5109   8.201   5.205   1.688
   13CHTO  H214 5110   8.254   5.253   1.770
   13CHTO   O78 5111   8.163   5.308   1.595
   13CHTO  H200 5112   8.238   5.356   1.567
   13CHTO  C111 5113   8.293   5.099   1.620
   13CHTO  H215 5114   8.245   5.066   1.527
   13CHTO   N19 5115   8.426   5.154   1.581
   13CHTO  H207 5116   8.479   5.188   1.668
   13CHTO  H208 5117   8.484   5.079   1.529
   13CHTO   O74 5118   7.990   5.231   1.825
   13CHTO  C115 5119   7.906   5.343   1.750
   13CHTO  H219 5120   7.969   5.427   1.720
   13CHTO   O76 5121   7.842   5.290   1.613
   13CHTO  C122 5122   7.745   5.185   1.628
   13CHTO  H226 5123   7.799   5.091   1.637
   13CHTO  C126 5124   7.667   5.176   1.492
   13CHTO   O85 5125   7.576   5.066   1.487
   13CHTO  H206 5126   7.623   4.985   1.485
   13CHTO  C121 5127   7.648   5.205   1.752
   13CHTO  H225 5128   7.545   5.182   1.719
   13CHTO   O81 5129   7.678   5.109   1.854
   13CHTO  H202 5130   7.765   5.124   1.888
   13CHTO  C119 5131   7.651   5.351   1.806
   13CHTO  H223 5132   7.622   5.414   1.723
   13CHTO  C117 5133   7.796   5.393   1.853
   13CHTO  H221 5134   7.827   5.351   1.948
   13CHTO   N20 5135   7.803   5.542   1.873
   13CHTO  H209 5136   7.728   5.573   1.945
   13CHTO  H210 5137   7.901   5.570   1.909
   13CHTO   O80 5138   7.534   5.383   1.915
   13CHTO  C103 5139   7.391   5.446   1.868
   13CHTO  H190 5140   7.340   5.487   1.955
   13CHTO  C101 5141   7.396   5.561   1.759
   13CHTO  H188 5142   7.451   5.525   1.672
   13CHTO   O68 5143   7.472   5.680   1.819
   13CHTO  H168 5144   7.561   5.657   1.836
   13CHTO   C99 5145   7.249   5.602   1.713
   13CHTO  H186 5146   7.196   5.648   1.800
   13CHTO   N17 5147   7.247   5.705   1.603
   13CHTO  H174 5148   7.188   5.672   1.518
   13CHTO  H175 5149   7.211   5.800   1.640
   13CHTO   C97 5150   7.167   5.475   1.676
   13CHTO  H184 5151   7.206   5.434   1.582
   13CHTO   O64 5152   7.172   5.379   1.783
   13CHTO  C104 5153   7.302   5.327   1.814
   13CHTO  H191 5154   7.350   5.282   1.727
   13CHTO  C108 5155   7.280   5.214   1.916
   13CHTO   O71 5156   7.398   5.138   1.945
   13CHTO  H171 5157   7.424   5.090   1.869
   13CHTO   O62 5158   7.026   5.507   1.661
   13CHTO   C91 5159   6.940   5.399   1.619
   13CHTO  H178 5160   6.995   5.305   1.624
   13CHTO   C92 5161   6.897   5.417   1.470
   13CHTO  H179 5162   6.850   5.516   1.460
   13CHTO   O66 5163   7.017   5.421   1.390
   13CHTO  H166 5164   6.995   5.440   1.301
   13CHTO   C93 5165   6.799   5.302   1.423
   13CHTO  H180 5166   6.858   5.210   1.417
   13CHTO   N16 5167   6.745   5.324   1.286
   13CHTO  H172 5168   6.691   5.418   1.283
   13CHTO  H173 5169   6.825   5.325   1.214
   13CHTO   C94 5170   6.684   5.281   1.527
   13CHTO  H181 5171   6.614   5.365   1.529
   13CHTO   O61 5172   6.735   5.268   1.661
   13CHTO   C95 5173   6.809   5.382   1.706
   13CHTO  H182 5174   6.747   5.472   1.695
   13CHTO  C106 5175   6.840   5.366   1.859
   13CHTO   O69 5176   6.916   5.248   1.886
   13CHTO  H169 5177   7.002   5.257   1.852
   13CHTO   O63 5178   6.607   5.143   1.496
   13CHTO   C96 5179   6.453   5.136   1.540
   13CHTO  H183 5180   6.410   5.049   1.490
   13CHTO   C98 5181   6.366   5.259   1.501
   13CHTO  H185 5182   6.412   5.351   1.539
   13CHTO   O67 5183   6.370   5.270   1.358
   13CHTO  H167 5184   6.325   5.347   1.330
   13CHTO  C102 5185   6.216   5.247   1.554
   13CHTO  H189 5186   6.168   5.169   1.493
   13CHTO   N18 5187   6.135   5.369   1.533
   13CHTO  H176 5188   6.034   5.354   1.570
   13CHTO  H177 5189   6.131   5.394   1.428
   13CHTO  C105 5190   6.215   5.201   1.703
   13CHTO  H192 5191   6.246   5.284   1.767
   13CHTO   O65 5192   6.304   5.091   1.730
   13CHTO  C100 5193   6.441   5.113   1.695
   13CHTO  H187 5194   6.477   5.202   1.748
   13CHTO  C107 5195   6.524   4.992   1.743
   13CHTO   O70 5196   6.481   4.869   1.683
   13CHTO  H170 5197   6.396   4.847   1.714
   13CHTO   O57 5198   6.061   5.155   1.743
   13CHTO   C85 5199   5.992   5.050   1.673
   13CHTO  H157 5200   6.058   5.017   1.590
   13CHTO   C83 5201   5.865   5.113   1.605
   13CHTO  H155 5202   5.899   5.187   1.532
   13CHTO   O56 5203   5.789   5.184   1.704
   13CHTO  H135 5204   5.718   5.231   1.662
   13CHTO   C81 5205   5.786   5.002   1.530
   13CHTO  H153 5206   5.853   4.956   1.457
   13CHTO   N14 5207   5.674   5.055   1.448
   13CHTO  H141 5208   5.599   5.098   1.512
   13CHTO  H142 5209   5.630   4.977   1.391
   13CHTO   C79 5210   5.742   4.891   1.632
   13CHTO  H151 5211   5.694   4.812   1.574
   13CHTO   O52 5212   5.861   4.832   1.693
   13CHTO   C86 5213   5.947   4.928   1.763
   13CHTO  H158 5214   5.887   4.961   1.851
   13CHTO   C90 5215   6.066   4.848   1.821
   13CHTO   O60 5216   6.142   4.925   1.915
   13CHTO  H138 5217   6.213   4.872   1.948
   13CHTO   O50 5218   5.651   4.935   1.733
   13CHTO   C73 5219   5.536   4.874   1.794
   13CHTO  H145 5220   5.491   4.800   1.726
   13CHTO   C74 5221   5.430   4.984   1.826
   13CHTO  H146 5222   5.408   5.036   1.732
   13CHTO   O54 5223   5.308   4.916   1.864
   13CHTO  H133 5224   5.240   4.979   1.879
   13CHTO   C75 5225   5.487   5.082   1.937
   13CHTO  H147 5226   5.575   5.132   1.896
   13CHTO   N13 5227   5.391   5.189   1.974
   13CHTO  H139 5228   5.365   5.183   2.079
   13CHTO  H140 5229   5.434   5.286   1.955
   13CHTO   C76 5230   5.535   4.995   2.063
   13CHTO  H148 5231   5.446   4.943   2.100
   13CHTO   O49 5232   5.632   4.895   2.021
   13CHTO   C77 5233   5.576   4.801   1.927
   13CHTO  H149 5234   5.486   4.756   1.971
   13CHTO   C88 5235   5.674   4.685   1.909
   13CHTO   O58 5236   5.620   4.581   1.814
   13CHTO  H136 5237   5.614   4.617   1.728
   13CHTO   O51 5238   5.602   5.088   2.186
   13CHTO   C78 5239   5.759   5.150   2.185
   13CHTO  H150 5240   5.774   5.208   2.278
   13CHTO   C80 5241   5.785   5.243   2.065
   13CHTO  H152 5242   5.778   5.184   1.971
   13CHTO   O55 5243   5.681   5.343   2.067
   13CHTO  H134 5244   5.687   5.398   1.992
   13CHTO   C84 5245   5.928   5.309   2.077
   13CHTO  H156 5246   5.929   5.368   2.168
   13CHTO   N15 5247   5.961   5.402   1.964
   13CHTO  H143 5248   5.956   5.351   1.870
   13CHTO  H144 5249   5.891   5.484   1.963
   13CHTO   C87 5250   6.036   5.198   2.091
   13CHTO  H159 5251   6.048   5.145   1.997
   13CHTO   O53 5252   5.995   5.099   2.203
   13CHTO   C82 5253   5.866   5.038   2.187
   13CHTO  H154 5254   5.863   4.977   2.097
   13CHTO   C89 5255   5.848   4.943   2.307
   13CHTO   O59 5256   5.735   4.857   2.292
   13CHTO  H137 5257   5.730   4.799   2.366
   13CHTO   O45 5258   6.179   5.265   2.136
   13CHTO   C67 5259   6.293   5.177   2.125
   13CHTO  H124 5260   6.274   5.098   2.053
   13CHTO   C65 5261   6.417   5.260   2.079
   13CHTO  H122 5262   6.383   5.320   1.994
   13CHTO   O44 5263   6.521   5.171   2.035
   13CHTO  H102 5264   6.591   5.220   1.996
   13CHTO   C63 5265   6.457   5.361   2.192
   13CHTO  H120 5266   6.371   5.425   2.213
   13CHTO   N11 5267   6.562   5.462   2.154
   13CHTO  H108 5268   6.573   5.535   2.232
   13CHTO  H109 5269   6.533   5.511   2.063
   13CHTO   C61 5270   6.489   5.283   2.325
   13CHTO  H118 5271   6.497   5.360   2.402
   13CHTO   O40 5272   6.380   5.195   2.364
   13CHTO   C68 5273   6.319   5.105   2.265
   13CHTO  H125 5274   6.220   5.077   2.306
   13CHTO   C72 5275   6.402   4.974   2.254
   13CHTO   O48 5276   6.342   4.877   2.166
   13CHTO  H105 5277   6.262   4.845   2.204
   13CHTO   O38 5278   6.611   5.205   2.317
   13CHTO   C55 5279   6.701   5.180   2.428
   13CHTO  H112 5280   6.699   5.071   2.442
   13CHTO   C56 5281   6.669   5.258   2.564
   13CHTO  H113 5282   6.653   5.364   2.539
   13CHTO   O42 5283   6.545   5.208   2.618
   13CHTO  H100 5284   6.474   5.230   2.562
   13CHTO   C57 5285   6.787   5.246   2.668
   13CHTO  H114 5286   6.794   5.141   2.697
   13CHTO   N10 5287   6.766   5.327   2.792
   13CHTO  H106 5288   6.816   5.280   0.033
   13CHTO  H107 5289   6.661   5.335   2.814
   13CHTO   C58 5290   6.917   5.287   2.597
   13CHTO  H115 5291   6.906   5.391   2.558
   13CHTO   O37 5292   6.941   5.198   2.487
   13CHTO   C59 5293   6.847   5.211   2.379
   13CHTO  H116 5294   6.853   5.312   2.337
   13CHTO   C70 5295   6.893   5.111   2.272
   13CHTO   O46 5296   6.822   5.123   2.148
   13CHTO  H103 5297   6.855   5.060   2.087
   13CHTO   O39 5298   7.054   5.278   2.694
   13CHTO   C60 5299   7.140   5.391   2.670
   13CHTO  H117 5300   7.129   5.422   2.566
   13CHTO   C62 5301   7.101   5.512   2.759
   13CHTO  H119 5302   6.993   5.531   2.740
   13CHTO   O43 5303   7.116   5.478   0.057
   13CHTO  H101 5304   7.054   5.412   0.081
   13CHTO   C66 5305   7.186   5.641   2.715
   13CHTO  H123 5306   7.170   5.657   2.608
   13CHTO   N12 5307   7.139   5.764   2.783
   13CHTO  H110 5308   7.198   5.849   2.750
   13CHTO  H111 5309   7.035   5.780   2.763
   13CHTO   C69 5310   7.337   5.615   2.734
   13CHTO  H126 5311   7.360   5.602   0.000
   13CHTO   O41 5312   7.380   5.482   2.655
   13CHTO   C64 5313   7.290   5.356   2.689
   13CHTO  H121 5314   7.307   5.324   2.794
   13CHTO   C71 5315   7.330   5.239   2.596
   13CHTO   O47 5316   7.467   5.201   2.616
   13CHTO  H104 5317   7.477   5.161   2.700
   13CHTO   O34 5318   7.423   5.738   2.678
   13CHTO   C49 5319   7.567   5.785   2.691
   13CHTO   H91 5320   7.629   5.696   2.684
   13CHTO   C47 5321   7.587   5.852   2.829
   13CHTO   H89 5322   7.697   5.873   2.833
   13CHTO   O33 5323   7.556   5.761   0.094
   13CHTO   H70 5324   7.464   5.740   0.093
   13CHTO   C45 5325   7.501   5.989   2.842
   13CHTO   H87 5326   7.404   5.964   0.045
   13CHTO    N8 5327   7.572   6.081   0.092
   13CHTO   H75 5328   7.665   6.113   0.047
   13CHTO   H76 5329   7.511   6.167   0.113
   13CHTO   C43 5330   7.464   6.048   2.695
   13CHTO   H85 5331   7.374   5.994   2.665
   13CHTO   O29 5332   7.573   6.026   2.605
   13CHTO   C50 5333   7.608   5.888   2.581
   13CHTO   H92 5334   7.561   5.858   2.486
   13CHTO   C54 5335   7.760   5.885   2.550
   13CHTO   O36 5336   7.805   5.756   2.509
   13CHTO   H72 5337   7.896   5.759   2.489
   13CHTO   O27 5338   7.423   6.187   2.696
   13CHTO   C37 5339   7.372   6.319   2.720
   13CHTO   H79 5340   7.420   6.361   2.810
   13CHTO   C38 5341   7.406   6.415   2.602
   13CHTO   H80 5342   7.363   6.373   2.510
   13CHTO   O31 5343   7.549   6.419   2.589
   13CHTO   H68 5344   7.574   6.467   2.512
   13CHTO   C39 5345   7.348   6.561   2.627
   13CHTO   H81 5346   7.404   6.603   2.710
   13CHTO    N7 5347   7.368   6.655   2.510
   13CHTO   H73 5348   7.273   6.688   2.470
   13CHTO   H74 5349   7.427   6.608   2.432
   13CHTO   C40 5350   7.197   6.555   2.672
   13CHTO   H82 5351   7.130   6.541   2.587
   13CHTO   O26 5352   7.176   6.456   2.774
   13CHTO   C41 5353   7.218   6.320   2.741
   13CHTO   H83 5354   7.167   6.286   2.650
   13CHTO   C52 5355   7.171   6.233   0.018
   13CHTO   O35 5356   7.178   6.095   2.832
   13CHTO   H71 5357   7.150   6.047   0.065
   13CHTO   O28 5358   7.159   6.672   2.747
   13CHTO   C42 5359   7.079   6.783   2.693
   13CHTO   H84 5360   7.088   6.777   2.584
   13CHTO   C44 5361   7.131   6.924   2.734
   13CHTO   H86 5362   7.130   6.931   0.001
   13CHTO   O32 5363   7.268   6.934   2.691
   13CHTO   H69 5364   7.274   6.930   2.597
   13CHTO   C48 5365   7.043   7.043   2.676
   13CHTO   H90 5366   7.059   7.047   2.569
   13CHTO    N9 5367   7.087   7.177   2.728
   13CHTO   H77 5368   7.190   7.195   2.702
   13CHTO   H78 5369   7.024   7.255   2.688
   13CHTO   C51 5370   6.889   7.017   2.699
   13CHTO   H93 5371   6.867   7.031   2.805
   13CHTO   O30 5372   6.853   6.886   2.653
   13CHTO   C46 5373   6.927   6.774   2.727
   13CHTO   H88 5374   6.913   6.787   2.834
   13CHTO   C53 5375   6.864   6.640   2.682
   13CHTO   O72 5376   6.727   6.630   2.723
   13CHTO  H199 5377   6.675   6.691   2.674
   13CHTO   O22 5378   6.811   7.108   2.618
   13CHTO   C31 5379   6.672   7.147   2.649
   13CHTO   H59 5380   6.642   7.215   2.567
   13CHTO   C29 5381   6.571   7.031   2.651
   13CHTO   H57 5382   6.599   6.961   2.731
   13CHTO   O21 5383   6.581   6.960   2.526
   13CHTO   H37 5384   6.664   6.918   2.519
   13CHTO   C27 5385   6.423   7.083   2.677
   13CHTO   H55 5386   6.392   7.144   2.592
   13CHTO    N5 5387   6.324   6.972   2.694
   13CHTO   H43 5388   6.373   6.876   2.692
   13CHTO   H44 5389   6.249   6.978   2.616
   13CHTO   C25 5390   6.422   7.177   2.803
   13CHTO   H53 5391   6.444   7.118   0.052
   13CHTO   O17 5392   6.524   7.281   2.792
   13CHTO   C32 5393   6.658   7.232   2.779
   13CHTO   H60 5394   6.683   7.169   0.023
   13CHTO   C36 5395   6.753   7.355   2.778
   13CHTO   O25 5396   6.752   7.423   0.062
   13CHTO   H40 5397   6.792   7.369   0.128
   13CHTO   O15 5398   6.285   7.249   2.821
   13CHTO   C19 5399   6.187   7.342   2.766
   13CHTO   H47 5400   6.195   7.430   2.832
   13CHTO   C20 5401   6.215   7.388   2.619
   13CHTO   H48 5402   6.225   7.302   2.550
   13CHTO   O19 5403   6.342   7.457   2.621
   13CHTO   H35 5404   6.367   7.482   2.534
   13CHTO   C21 5405   6.099   7.481   2.563
   13CHTO   H49 5406   6.097   7.573   2.622
   13CHTO    N4 5407   6.119   7.521   2.421
   13CHTO   H41 5408   6.120   7.434   2.358
   13CHTO   H42 5409   6.040   7.587   2.390
   13CHTO   C22 5410   5.964   7.408   2.587
   13CHTO   H50 5411   5.967   7.314   2.533
   13CHTO   O14 5412   5.947   7.383   2.728
   13CHTO   C23 5413   6.042   7.289   2.780
   13CHTO   H51 5414   6.027   7.194   2.725
   13CHTO   C34 5415   6.007   7.258   0.085
   13CHTO   O23 5416   6.007   7.376   0.167
   13CHTO   H38 5417   5.983   7.352   0.255
   13CHTO   O16 5418   5.849   7.486   2.544
   13CHTO   C24 5419   5.705   7.413   2.570
   13CHTO   H52 5420   5.705   7.351   2.660
   13CHTO   C26 5421   5.664   7.326   2.449
   13CHTO   H54 5422   5.662   7.391   2.358
   13CHTO   O20 5423   5.764   7.224   2.430
   13CHTO   H36 5424   5.747   7.177   2.351
   13CHTO   C30 5425   5.522   7.265   2.471
   13CHTO   H58 5426   5.526   7.194   2.554
   13CHTO    N6 5427   5.476   7.188   2.352
   13CHTO   H45 5428   5.473   7.252   2.265
   13CHTO   H46 5429   5.543   7.106   2.333
   13CHTO   C33 5430   5.419   7.375   2.513
   13CHTO   H61 5431   5.398   7.440   2.426
   13CHTO   O18 5432   5.472   7.459   2.617
   13CHTO   C28 5433   5.598   7.523   2.592
   13CHTO   H56 5434   5.592   7.585   2.502
   13CHTO   C35 5435   5.635   7.612   2.712
   13CHTO   O24 5436   5.541   7.718   2.734
   13CHTO   H39 5437   5.545   7.779   2.663
   13CHTO    O9 5438   5.291   7.319   2.550
   13CHTO   C13 5439   5.285   7.253   2.704
   13CHTO   H26 5440   5.375   7.287   2.760
   13CHTO   C11 5441   5.279   7.095   2.693
   13CHTO   H24 5442   5.377   7.060   2.657
   13CHTO    O8 5443   5.180   7.056   2.597
   13CHTO    H3 5444   5.182   6.963   2.584
   13CHTO    C9 5445   5.254   7.039   2.836
   13CHTO   H22 5446   5.333   7.083   0.057
   13CHTO    N2 5447   5.278   6.893   0.006
   13CHTO   H10 5448   5.194   6.844   0.053
   13CHTO   H11 5449   5.298   6.848   2.751
   13CHTO    C7 5450   5.114   7.091   0.049
   13CHTO   H20 5451   5.138   7.122   0.153
   13CHTO    O4 5452   5.064   7.204   2.817
   13CHTO   C14 5453   5.161   7.307   2.789
   13CHTO   H27 5454   5.198   7.346   0.044
   13CHTO   C18 5455   5.085   7.423   2.720
   13CHTO   O13 5456   5.169   7.538   2.707
   13CHTO    H7 5457   5.122   7.607   2.663
   13CHTO    O2 5458   4.993   6.974   0.053
   13CHTO    C1 5459   4.905   6.978   0.167
   13CHTO   H14 5460   4.819   6.910   0.145
   13CHTO    C2 5461   4.846   7.121   0.202
   13CHTO   H15 5462   4.932   7.189   0.210
   13CHTO    O6 5463   4.762   7.165   0.093
   13CHTO    H1 5464   4.689   7.107   0.083
   13CHTO    C3 5465   4.766   7.121   0.342
   13CHTO   H16 5466   4.670   7.068   0.328
   13CHTO    N1 5467   4.734   7.261   0.385
   13CHTO    H8 5468   4.670   7.309   0.312
   13CHTO    H9 5469   4.825   7.318   0.397
   13CHTO    C4 5470   4.845   7.041   0.452
   13CHTO   H17 5471   4.934   7.097   0.478
   13CHTO    O1 5472   4.884   6.912   0.403
   13CHTO    C5 5473   4.976   6.918   0.292
   13CHTO   H18 5474   5.060   6.982   0.317
   13CHTO   C16 5475   5.028   6.774   0.268
   13CHTO   O11 5476   5.109   6.730   0.377
   13CHTO    H5 5477   5.190   6.778   0.378
   13CHTO    O3 5478   4.769   7.021   0.574
   13CHTO    C6 5479   4.672   6.912   0.592
   13CHTO   H19 5480   4.642   6.867   0.497
   13CHTO    C8 5481   4.733   6.801   0.685
   13CHTO   H21 5482   4.782   6.850   0.769
   13CHTO    O7 5483   4.832   6.729   0.608
   13CHTO    H2 5484   4.903   6.785   0.585
   13CHTO   C12 5485   4.624   6.701   0.742
   13CHTO   H25 5486   4.588   6.641   0.656
   13CHTO    N3 5487   4.681   6.604   0.842
   13CHTO   H12 5488   4.788   6.618   0.853
   13CHTO   H13 5489   4.659   6.503   0.812
   13CHTO   C15 5490   4.503   6.783   0.799
   13CHTO   H28 5491   4.531   6.842   0.886
   13CHTO   O10 5492   4.380   6.697   0.835
   13CHTO    H4 5493   4.401   6.639   0.906
   13CHTO    O5 5494   4.450   6.868   0.696
   13CHTO   C10 5495   4.543   6.970   0.657
   13CHTO   H23 5496   4.571   7.027   0.746
   13CHTO   C17 5497   4.469   7.066   0.563
   13CHTO   O12 5498   4.365   7.137   0.631
   13CHTO    H6 5499   4.402   7.202   0.688
   14CHTO  H203 5500   7.093   4.916   2.112
   14CHTO   O82 5501   7.071   4.908   2.021
   14CHTO  C123 5502   6.970   4.808   2.003
   14CHTO  H227 5503   6.879   4.838   2.058
   14CHTO   O77 5504   6.944   4.814   1.859
   14CHTO  C118 5505   6.840   4.726   1.813
   14CHTO  H222 5506   6.746   4.749   1.866
   14CHTO  C125 5507   6.818   4.754   1.659
   14CHTO   O84 5508   6.936   4.731   1.581
   14CHTO  H205 5509   6.918   4.751   1.491
   14CHTO  C114 5510   6.879   4.579   1.840
   14CHTO  H218 5511   6.972   4.558   1.787
   14CHTO  C116 5512   6.910   4.557   1.992
   14CHTO  H220 5513   6.816   4.566   2.051
   14CHTO   O79 5514   6.956   4.421   2.009
   14CHTO  H201 5515   7.036   4.407   1.963
   14CHTO  C120 5516   7.016   4.663   2.043
   14CHTO  H224 5517   7.112   4.638   1.992
   14CHTO   N21 5518   7.040   4.651   2.190
   14CHTO  H211 5519   7.120   4.581   2.209
   14CHTO  H212 5520   6.950   4.622   2.241
   14CHTO   O75 5521   6.774   4.498   1.783
   14CHTO  C112 5522   6.635   4.469   1.870
   14CHTO  H216 5523   6.604   4.563   1.920
   14CHTO   O73 5524   6.664   4.365   1.965
   14CHTO  C113 5525   6.554   4.334   2.052
   14CHTO  H217 5526   6.521   4.428   2.103
   14CHTO  C124 5527   6.608   4.240   2.161
   14CHTO   O83 5528   6.515   4.218   2.268
   14CHTO  H204 5529   6.504   4.296   2.318
   14CHTO  C109 5530   6.438   4.273   1.969
   14CHTO  H213 5531   6.476   4.179   1.926
   14CHTO  C110 5532   6.397   4.373   1.856
   14CHTO  H214 5533   6.348   4.459   1.901
   14CHTO   O78 5534   6.300   4.309   1.770
   14CHTO  H200 5535   6.220   4.293   1.817
   14CHTO  C111 5536   6.521   4.420   1.773
   14CHTO  H215 5537   6.560   4.333   1.718
   14CHTO   N19 5538   6.488   4.524   1.672
   14CHTO  H207 5539   6.517   4.491   1.573
   14CHTO  H208 5540   6.534   4.618   1.695
   14CHTO   O74 5541   6.324   4.242   2.056
   14CHTO  C115 5542   6.237   4.112   2.005
   14CHTO  H219 5543   6.242   4.099   1.897
   14CHTO   O76 5544   6.293   3.978   2.066
   14CHTO  C122 5545   6.222   3.858   2.029
   14CHTO  H226 5546   6.259   3.778   2.093
   14CHTO  C126 5547   6.258   3.816   1.881
   14CHTO   O85 5548   6.397   3.784   1.867
   14CHTO  H206 5549   6.414   3.757   1.778
   14CHTO  C121 5550   6.066   3.869   2.049
   14CHTO  H225 5551   6.018   3.783   1.997
   14CHTO   O81 5552   6.036   3.856   2.189
   14CHTO  H202 5553   5.944   3.846   2.202
   14CHTO  C119 5554   6.007   4.001   1.991
   14CHTO  H223 5555   6.024   3.996   1.884
   14CHTO  C117 5556   6.085   4.128   2.044
   14CHTO  H221 5557   6.084   4.144   2.152
   14CHTO   N20 5558   6.030   4.255   1.985
   14CHTO  H209 5559   6.037   4.252   1.877
   14CHTO  H210 5560   5.927   4.268   2.015
   14CHTO   O80 5561   5.844   4.005   1.998
   14CHTO  C103 5562   5.763   4.038   1.868
   14CHTO  H190 5563   5.814   4.117   1.812
   14CHTO  C101 5564   5.735   3.918   1.771
   14CHTO  H188 5565   5.682   3.840   1.825
   14CHTO   O68 5566   5.871   3.860   1.721
   14CHTO  H168 5567   5.856   3.784   1.669
   14CHTO   C99 5568   5.645   3.967   1.648
   14CHTO  H186 5569   5.706   4.037   1.587
   14CHTO   N17 5570   5.603   3.856   1.555
   14CHTO  H174 5571   5.690   3.803   1.520
   14CHTO  H175 5572   5.535   3.789   1.606
   14CHTO   C97 5573   5.522   4.049   1.696
   14CHTO  H184 5574   5.443   3.981   1.732
   14CHTO   O64 5575   5.557   4.148   1.796
   14CHTO  C104 5576   5.623   4.098   1.913
   14CHTO  H191 5577   5.565   4.020   1.963
   14CHTO  C108 5578   5.634   4.215   2.012
   14CHTO   O71 5579   5.672   4.172   2.144
   14CHTO  H171 5580   5.760   4.142   2.143
   14CHTO   O62 5581   5.475   4.131   1.587
   14CHTO   C91 5582   5.333   4.151   1.572
   14CHTO  H178 5583   5.286   4.053   1.580
   14CHTO   C92 5584   5.309   4.200   1.426
   14CHTO  H179 5585   5.364   4.135   1.355
   14CHTO   O66 5586   5.170   4.183   1.393
   14CHTO  H166 5587   5.148   4.092   1.391
   14CHTO   C93 5588   5.346   4.352   1.405
   14CHTO  H180 5589   5.300   4.383   1.310
   14CHTO   N16 5590   5.491   4.377   1.386
   14CHTO  H172 5591   5.546   4.343   1.472
   14CHTO  H173 5592   5.525   4.328   1.297
   14CHTO   C94 5593   5.285   4.441   1.522
   14CHTO  H181 5594   5.363   4.486   1.584
   14CHTO   O61 5595   5.202   4.365   1.612
   14CHTO   C95 5596   5.268   4.254   1.675
   14CHTO  H182 5597   5.346   4.292   1.741
   14CHTO  C106 5598   5.165   4.180   1.768
   14CHTO   O69 5599   5.123   4.263   1.876
   14CHTO  H169 5600   5.194   4.278   1.935
   14CHTO   O63 5601   5.199   4.552   1.455
   14CHTO   C96 5602   5.185   4.683   1.539
   14CHTO  H183 5603   5.255   4.679   1.622
   14CHTO   C98 5604   5.042   4.702   1.597
   14CHTO  H185 5605   4.967   4.686   1.517
   14CHTO   O67 5606   5.019   4.598   1.693
   14CHTO  H167 5607   5.015   4.514   1.651
   14CHTO  C102 5608   5.020   4.847   1.664
   14CHTO  H189 5609   5.080   4.847   1.756
   14CHTO   N18 5610   4.880   4.875   1.706
   14CHTO  H176 5611   4.874   4.973   1.751
   14CHTO  H177 5612   4.848   4.801   1.777
   14CHTO  C105 5613   5.076   4.957   1.569
   14CHTO  H192 5614   5.012   4.964   1.481
   14CHTO   O65 5615   5.210   4.928   1.526
   14CHTO  C100 5616   5.223   4.807   1.449
   14CHTO  H187 5617   5.154   4.813   1.363
   14CHTO  C107 5618   5.368   4.803   1.396
   14CHTO   O70 5619   5.385   4.704   1.294
   14CHTO  H170 5620   5.339   4.729   1.216
   14CHTO   O57 5621   5.077   5.098   1.652
   14CHTO   C85 5622   5.048   5.218   1.578
   14CHTO  H157 5623   4.970   5.191   1.504
   14CHTO   C83 5624   5.172   5.262   1.494
   14CHTO  H155 5625   5.196   5.182   1.424
   14CHTO   O56 5626   5.287   5.275   1.580
   14CHTO  H135 5627   5.275   5.346   1.641
   14CHTO   C81 5628   5.136   5.390   1.413
   14CHTO  H153 5629   5.049   5.367   1.352
   14CHTO   N14 5630   5.241   5.428   1.315
   14CHTO  H141 5631   5.207   5.511   1.257
   14CHTO  H142 5632   5.262   5.346   1.250
   14CHTO   C79 5633   5.096   5.506   1.512
   14CHTO  H151 5634   5.060   5.589   1.450
   14CHTO   O52 5635   4.983   5.465   1.596
   14CHTO   C86 5636   5.003   5.340   1.669
   14CHTO  H158 5637   5.081   5.364   1.745
   14CHTO   C90 5638   4.875   5.303   1.748
   14CHTO   O60 5639   4.843   5.403   1.845
   14CHTO  H138 5640   4.814   5.481   1.802
   14CHTO   O50 5641   5.204   5.555   1.594
   14CHTO   C73 5642   5.219   5.677   1.669
   14CHTO  H145 5643   5.139   5.685   1.744
   14CHTO   C74 5644   5.211   5.801   1.574
   14CHTO  H146 5645   5.114   5.799   1.524
   14CHTO   O54 5646   5.212   5.921   1.655
   14CHTO  H133 5647   5.203   5.996   1.600
   14CHTO   C75 5648   5.331   5.793   1.472
   14CHTO  H147 5649   5.321   5.700   1.414
   14CHTO   N13 5650   5.331   5.901   1.370
   14CHTO  H139 5651   5.240   5.897   1.313
   14CHTO  H140 5652   5.338   5.997   1.419
   14CHTO   C76 5653   5.469   5.784   1.552
   14CHTO  H148 5654   5.485   5.878   1.603
   14CHTO   O49 5655   5.466   5.674   1.649
   14CHTO   C77 5656   5.357   5.678   1.742
   14CHTO  H149 5657   5.364   5.768   1.803
   14CHTO   C88 5658   5.368   5.560   1.839
   14CHTO   O58 5659   5.493   5.568   1.919
   14CHTO  H136 5660   5.498   5.495   1.978
   14CHTO   O51 5661   5.586   5.746   1.454
   14CHTO   C78 5662   5.722   5.821   1.480
   14CHTO  H150 5663   5.718   5.882   1.573
   14CHTO   C80 5664   5.751   5.915   1.361
   14CHTO  H152 5665   5.727   5.860   1.266
   14CHTO   O55 5666   5.659   6.025   1.373
   14CHTO  H134 5667   5.665   6.081   1.298
   14CHTO   C84 5668   5.901   5.964   1.356
   14CHTO  H156 5669   5.920   6.026   1.443
   14CHTO   N15 5670   5.928   6.048   1.234
   14CHTO  H143 5671   6.031   6.080   1.234
   14CHTO  H144 5672   5.865   6.134   1.235
   14CHTO   C87 5673   5.993   5.840   1.362
   14CHTO  H159 5674   5.973   5.775   1.277
   14CHTO   O53 5675   5.963   5.766   1.497
   14CHTO   C82 5676   5.830   5.712   1.500
   14CHTO  H154 5677   5.820   5.634   1.425
   14CHTO   C89 5678   5.805   5.645   1.638
   14CHTO   O59 5679   5.875   5.522   1.651
   14CHTO  H137 5680   5.968   5.538   1.655
   14CHTO   O45 5681   6.150   5.878   1.360
   14CHTO   C67 5682   6.234   5.773   1.310
   14CHTO  H124 5683   6.180   5.678   1.307
   14CHTO   C65 5684   6.283   5.809   1.166
   14CHTO  H122 5685   6.195   5.847   1.113
   14CHTO   O44 5686   6.329   5.690   1.100
   14CHTO  H102 5687   6.348   5.708   1.010
   14CHTO   C63 5688   6.385   5.929   1.172
   14CHTO  H120 5689   6.336   6.014   1.219
   14CHTO   N11 5690   6.427   5.987   1.040
   14CHTO  H108 5691   6.340   6.012   0.983
   14CHTO  H109 5692   6.486   6.075   1.056
   14CHTO   C61 5693   6.506   5.889   1.264
   14CHTO  H118 5694   6.569   5.979   1.274
   14CHTO   O40 5695   6.459   5.857   1.397
   14CHTO   C68 5696   6.354   5.753   1.411
   14CHTO  H125 5697   6.313   5.763   1.513
   14CHTO   C72 5698   6.415   5.611   1.402
   14CHTO   O48 5699   6.522   5.591   1.495
   14CHTO  H105 5700   6.596   5.642   1.469
   14CHTO   O38 5701   6.585   5.778   1.216
   14CHTO   C55 5702   6.715   5.800   1.159
   14CHTO  H112 5703   6.729   5.906   1.132
   14CHTO   C56 5704   6.732   5.704   1.034
   14CHTO  H113 5705   6.705   5.602   1.067
   14CHTO   O42 5706   6.637   5.738   0.931
   14CHTO  H100 5707   6.549   5.724   0.962
   14CHTO   C57 5708   6.879   5.705   0.976
   14CHTO  H114 5709   6.890   5.800   0.924
   14CHTO   N10 5710   6.906   5.598   0.876
   14CHTO  H106 5711   6.938   5.507   0.924
   14CHTO  H107 5712   6.817   5.578   0.818
   14CHTO   C58 5713   6.984   5.699   1.091
   14CHTO  H115 5714   6.988   5.596   1.132
   14CHTO   O37 5715   6.954   5.792   1.196
   14CHTO   C59 5716   6.828   5.766   1.260
   14CHTO  H116 5717   6.822   5.661   1.290
   14CHTO   C70 5718   6.822   5.851   1.387
   14CHTO   O46 5719   6.920   5.810   1.483
   14CHTO  H103 5720   6.911   5.863   1.561
   14CHTO   O39 5721   7.130   5.744   1.034
   14CHTO   C60 5722   7.241   5.727   1.125
   14CHTO  H117 5723   7.219   5.780   1.218
   14CHTO   C62 5724   7.267   5.577   1.160
   14CHTO  H119 5725   7.180   5.543   1.220
   14CHTO   O43 5726   7.272   5.499   1.039
   14CHTO  H101 5727   7.345   5.525   0.986
   14CHTO   C66 5728   7.400   5.564   1.250
   14CHTO  H123 5729   7.391   5.632   1.335
   14CHTO   N12 5730   7.417   5.429   1.307
   14CHTO  H110 5731   7.334   5.405   1.371
   14CHTO  H111 5732   7.427   5.356   1.228
   14CHTO   C69 5733   7.519   5.613   1.163
   14CHTO  H126 5734   7.520   5.559   1.066
   14CHTO   O41 5735   7.497   5.764   1.139
   14CHTO   C64 5736   7.366   5.796   1.063
   14CHTO  H121 5737   7.376   5.763   0.958
   14CHTO   C71 5738   7.347   5.950   1.062
   14CHTO   O47 5739   7.454   6.015   0.993
   14CHTO  H104 5740   7.441   6.107   0.995
   14CHTO   O34 5741   7.655   5.592   1.230
   14CHTO   C49 5742   7.798   5.611   1.187
   14CHTO   H91 5743   7.814   5.553   1.097
   14CHTO   C47 5744   7.886   5.559   1.303
   14CHTO   H89 5745   7.991   5.570   1.266
   14CHTO   O33 5746   7.862   5.419   1.326
   14CHTO   H70 5747   7.774   5.405   1.356
   14CHTO   C45 5748   7.861   5.647   1.437
   14CHTO   H87 5749   7.778   5.602   1.493
   14CHTO    N8 5750   7.983   5.638   1.521
   14CHTO   H75 5751   7.965   5.686   1.616
   14CHTO   H76 5752   8.065   5.687   1.472
   14CHTO   C43 5753   7.811   5.796   1.399
   14CHTO   H85 5754   7.703   5.786   1.387
   14CHTO   O29 5755   7.874   5.839   1.277
   14CHTO   C50 5756   7.835   5.761   1.162
   14CHTO   H92 5757   7.747   5.810   1.118
   14CHTO   C54 5758   7.941   5.778   1.051
   14CHTO   O36 5759   8.073   5.742   1.094
   14CHTO   H72 5760   8.077   5.649   1.111
   14CHTO   O27 5761   7.826   5.895   1.502
   14CHTO   C37 5762   7.745   6.009   1.535
   14CHTO   H79 5763   7.807   6.086   1.583
   14CHTO   C38 5764   7.681   6.076   1.408
   14CHTO   H80 5765   7.635   5.997   1.347
   14CHTO   O31 5766   7.789   6.134   1.331
   14CHTO   H68 5767   7.830   6.203   1.379
   14CHTO   C39 5768   7.571   6.183   1.444
   14CHTO   H81 5769   7.622   6.266   1.493
   14CHTO    N7 5770   7.501   6.239   1.324
   14CHTO   H73 5771   7.450   6.160   1.271
   14CHTO   H74 5772   7.431   6.315   1.354
   14CHTO   C40 5773   7.469   6.122   1.548
   14CHTO   H82 5774   7.411   6.042   1.501
   14CHTO   O26 5775   7.542   6.074   1.663
   14CHTO   C41 5776   7.634   5.965   1.635
   14CHTO   H83 5777   7.578   5.880   1.592
   14CHTO   C52 5778   7.694   5.918   1.769
   14CHTO   O35 5779   7.759   6.026   1.846
   14CHTO   H71 5780   7.793   5.992   1.927
   14CHTO   O28 5781   7.379   6.220   1.602
   14CHTO   C42 5782   7.253   6.183   1.669
   14CHTO   H84 5783   7.219   6.277   1.712
   14CHTO   C44 5784   7.264   6.082   1.788
   14CHTO   H86 5785   7.305   5.988   1.750
   14CHTO   O32 5786   7.359   6.137   1.882
   14CHTO   H69 5787   7.327   6.217   1.919
   14CHTO   C48 5788   7.125   6.053   1.856
   14CHTO   H90 5789   7.095   6.143   1.911
   14CHTO    N9 5790   7.134   5.944   1.960
   14CHTO   H77 5791   7.166   5.852   1.914
   14CHTO   H78 5792   7.038   5.931   2.008
   14CHTO   C51 5793   7.013   6.023   1.749
   14CHTO   H93 5794   7.029   5.922   1.709
   14CHTO   O30 5795   7.013   6.122   1.646
   14CHTO   C46 5796   7.143   6.135   1.571
   14CHTO   H88 5797   7.170   6.038   1.530
   14CHTO   C53 5798   7.120   6.237   1.456
   14CHTO   O72 5799   7.025   6.188   1.361
   14CHTO  H199 5800   6.939   6.185   1.400
   14CHTO   O22 5801   6.883   6.033   1.811
   14CHTO   C31 5802   6.759   5.988   1.746
   14CHTO   H59 5803   6.786   5.963   1.642
   14CHTO   C29 5804   6.698   5.861   1.809
   14CHTO   H57 5805   6.691   5.880   1.918
   14CHTO   O21 5806   6.793   5.754   1.792
   14CHTO   H37 5807   6.765   5.678   1.840
   14CHTO   C27 5808   6.554   5.826   1.754
   14CHTO   H55 5809   6.563   5.796   1.648
   14CHTO    N5 5810   6.489   5.715   1.828
   14CHTO   H43 5811   6.477   5.742   1.933
   14CHTO   H44 5812   6.547   5.625   1.819
   14CHTO   C25 5813   6.466   5.956   1.756
   14CHTO   H53 5814   6.458   5.991   1.860
   14CHTO   O17 5815   6.533   6.057   1.677
   14CHTO   C32 5816   6.654   6.104   1.736
   14CHTO   H60 5817   6.635   6.142   1.836
   14CHTO   C36 5818   6.706   6.220   1.648
   14CHTO   O25 5819   6.612   6.327   1.642
   14CHTO   H40 5820   6.536   6.300   1.594
   14CHTO   O15 5821   6.323   5.937   1.697
   14CHTO   C19 5822   6.190   5.996   1.680
   14CHTO   H47 5823   6.154   5.951   1.587
   14CHTO   C20 5824   6.088   5.961   1.792
   14CHTO   H48 5825   6.121   5.998   1.891
   14CHTO   O19 5826   6.082   5.817   1.799
   14CHTO   H35 5827   6.028   5.790   1.871
   14CHTO   C21 5828   5.945   6.023   1.762
   14CHTO   H49 5829   5.904   5.972   1.675
   14CHTO    N4 5830   5.847   6.002   1.872
   14CHTO   H41 5831   5.833   5.896   1.889
   14CHTO   H42 5832   5.884   6.048   1.963
   14CHTO   C22 5833   5.958   6.173   1.722
   14CHTO   H50 5834   5.985   6.230   1.811
   14CHTO   O14 5835   6.056   6.190   1.619
   14CHTO   C23 5836   6.189   6.150   1.657
   14CHTO   H51 5837   6.216   6.205   1.748
   14CHTO   C34 5838   6.285   6.198   1.548
   14CHTO   O23 5839   6.261   6.136   1.422
   14CHTO   H38 5840   6.322   6.168   1.358
   14CHTO   O16 5841   5.836   6.222   1.663
   14CHTO   C24 5842   5.804   6.391   1.656
   14CHTO   H52 5843   5.788   6.425   1.554
   14CHTO   C26 5844   5.915   6.480   1.717
   14CHTO   H54 5845   5.936   6.444   1.820
   14CHTO   O20 5846   6.034   6.464   1.637
   14CHTO   H36 5847   6.106   6.509   1.678
   14CHTO   C30 5848   5.871   6.629   1.725
   14CHTO   H58 5849   5.859   6.669   1.623
   14CHTO    N6 5850   5.973   6.714   1.792
   14CHTO   H45 5851   5.939   6.817   1.795
   14CHTO   H46 5852   6.066   6.710   1.737
   14CHTO   C33 5853   5.731   6.641   1.793
   14CHTO   H61 5854   5.738   6.610   1.899
   14CHTO   O18 5855   5.637   6.554   1.727
   14CHTO   C28 5856   5.671   6.414   1.732
   14CHTO   H56 5857   5.684   6.382   1.836
   14CHTO   C35 5858   5.558   6.331   1.668
   14CHTO   O24 5859   5.435   6.343   1.742
   14CHTO   H39 5860   5.369   6.290   1.701
   14CHTO    O9 5861   5.682   6.777   1.796
   14CHTO   C13 5862   5.578   6.810   1.917
   14CHTO   H26 5863   5.607   6.749   2.006
   14CHTO   C11 5864   5.429   6.778   1.870
   14CHTO   H24 5865   5.419   6.668   1.864
   14CHTO    O8 5866   5.405   6.832   1.739
   14CHTO    H3 5867   5.460   6.789   1.676
   14CHTO    C9 5868   5.331   6.833   1.978
   14CHTO   H22 5869   5.364   6.788   2.073
   14CHTO    N2 5870   5.192   6.785   1.961
   14CHTO   H10 5871   5.191   6.677   1.956
   14CHTO   H11 5872   5.149   6.827   1.872
   14CHTO    C7 5873   5.349   6.991   1.991
   14CHTO   H20 5874   5.352   7.008   2.101
   14CHTO    O4 5875   5.471   7.038   1.931
   14CHTO   C14 5876   5.588   6.962   1.966
   14CHTO   H27 5877   5.598   6.963   2.077
   14CHTO   C18 5878   5.713   7.035   1.911
   14CHTO   O13 5879   5.728   7.166   1.968
   14CHTO    H7 5880   5.804   7.207   1.933
   14CHTO    O2 5881   5.221   7.080   1.927
   14CHTO    C1 5882   5.204   7.216   1.972
   14CHTO   H14 5883   5.121   7.260   1.913
   14CHTO    C2 5884   5.330   7.310   1.959
   14CHTO   H15 5885   5.409   7.268   2.023
   14CHTO    O6 5886   5.372   7.308   1.821
   14CHTO    H1 5887   5.451   7.357   1.811
   14CHTO    C3 5888   5.292   7.458   2.007
   14CHTO   H16 5889   5.215   7.498   1.939
   14CHTO    N1 5890   5.409   7.552   2.000
   14CHTO    H8 5891   5.387   7.635   1.934
   14CHTO    H9 5892   5.436   7.589   2.098
   14CHTO    C4 5893   5.225   7.453   2.149
   14CHTO   H17 5894   5.302   7.431   2.224
   14CHTO    O1 5895   5.120   7.355   2.157
   14CHTO    C5 5896   5.154   7.221   2.120
   14CHTO   H18 5897   5.234   7.184   2.184
   14CHTO   C16 5898   5.029   7.132   2.142
   14CHTO   O11 5899   4.990   7.128   2.280
   14CHTO    H5 5900   5.055   7.082   2.330
   14CHTO    O3 5901   5.160   7.578   2.178
   14CHTO    C6 5902   5.156   7.617   2.319
   14CHTO   H19 5903   5.183   7.536   2.387
   14CHTO    C8 5904   5.254   7.737   2.343
   14CHTO   H21 5905   5.232   7.815   2.269
   14CHTO    O7 5906   5.388   7.687   2.320
   14CHTO    H2 5907   5.449   7.757   2.323
   14CHTO   C12 5908   5.239   7.797   2.488
   14CHTO   H25 5909   5.277   7.720   2.558
   14CHTO    N3 5910   5.325   7.919   2.508
   14CHTO   H12 5911   5.382   7.942   2.419
   14CHTO   H13 5912   5.265   8.004   2.538
   14CHTO   C15 5913   5.087   7.822   2.520
   14CHTO   H28 5914   5.047   7.906   2.463
   14CHTO   O10 5915   5.061   7.845   2.670
   14CHTO    H4 5916   5.103   7.923   2.698
   14CHTO    O5 5917   5.009   7.704   2.495
   14CHTO   C10 5918   5.011   7.661   2.358
   14CHTO   H23 5919   4.977   7.743   2.294
   14CHTO   C17 5920   4.908   7.547   2.347
   14CHTO   O12 5921   4.880   7.512   2.211
   14CHTO    H6 5922   4.955   7.472   2.172
   15CHTO  H203 5923   7.783   4.707   2.061
   15CHTO   O82 5924   7.725   4.762   2.012
   15CHTO  C123 5925   7.673   4.690   1.900
   15CHTO  H227 5926   7.618   4.602   1.936
   15CHTO   O77 5927   7.579   4.786   1.843
   15CHTO  C118 5928   7.501   4.734   1.734
   15CHTO  H222 5929   7.446   4.645   1.768
   15CHTO  C125 5930   7.398   4.845   1.691
   15CHTO   O84 5931   7.301   4.869   1.794
   15CHTO  H205 5932   7.245   4.795   1.803
   15CHTO  C114 5933   7.594   4.696   1.617
   15CHTO  H218 5934   7.645   4.786   1.583
   15CHTO  C116 5935   7.707   4.598   1.663
   15CHTO  H220 5936   7.662   4.498   1.686
   15CHTO   O79 5937   7.796   4.578   1.552
   15CHTO  H201 5938   7.860   4.513   1.573
   15CHTO  C120 5939   7.781   4.652   1.791
   15CHTO  H224 5940   7.836   4.742   1.760
   15CHTO   N21 5941   7.881   4.554   1.843
   15CHTO  H211 5942   7.923   4.497   1.761
   15CHTO  H212 5943   7.835   4.488   1.914
   15CHTO   O75 5944   7.509   4.649   1.511
   15CHTO  C112 5945   7.448   4.493   1.527
   15CHTO  H216 5946   7.414   4.478   1.631
   15CHTO   O73 5947   7.553   4.401   1.491
   15CHTO  C113 5948   7.518   4.263   1.506
   15CHTO  H217 5949   7.483   4.246   1.610
   15CHTO  C124 5950   7.643   4.177   1.485
   15CHTO   O83 5951   7.745   4.201   1.583
   15CHTO  H204 5952   7.780   4.287   1.572
   15CHTO  C109 5953   7.405   4.228   1.407
   15CHTO  H213 5954   7.446   4.244   1.306
   15CHTO  C110 5955   7.282   4.321   1.431
   15CHTO  H214 5956   7.238   4.296   1.528
   15CHTO   O78 5957   7.182   4.296   1.331
   15CHTO  H200 5958   7.146   4.210   1.342
   15CHTO  C111 5959   7.325   4.471   1.430
   15CHTO  H215 5960   7.358   4.497   1.328
   15CHTO   N19 5961   7.216   4.566   1.464
   15CHTO  H207 5962   7.177   4.544   1.563
   15CHTO  H208 5963   7.136   4.558   1.391
   15CHTO   O74 5964   7.371   4.087   1.421
   15CHTO  C115 5965   7.319   4.020   1.287
   15CHTO  H219 5966   7.286   4.096   1.215
   15CHTO   O76 5967   7.430   3.942   1.214
   15CHTO  C122 5968   7.489   3.841   1.298
   15CHTO  H226 5969   7.542   3.892   1.378
   15CHTO  C126 5970   7.599   3.766   1.215
   15CHTO   O85 5971   7.707   3.851   1.177
   15CHTO  H206 5972   7.677   3.915   1.115
   15CHTO  C121 5973   7.382   3.741   1.357
   15CHTO  H225 5974   7.406   3.638   1.323
   15CHTO   O81 5975   7.392   3.742   1.500
   15CHTO  H202 5976   7.476   3.711   1.527
   15CHTO  C119 5977   7.235   3.774   1.314
   15CHTO  H223 5978   7.230   3.747   1.208
   15CHTO  C117 5979   7.198   3.927   1.328
   15CHTO  H221 5980   7.173   3.957   1.429
   15CHTO   N20 5981   7.075   3.960   1.248
   15CHTO  H209 5982   7.095   3.948   1.143
   15CHTO  H210 5983   7.044   4.061   1.269
   15CHTO   O80 5984   7.127   3.671   1.380
   15CHTO  C103 5985   7.044   3.569   1.290
   15CHTO  H190 5986   6.977   3.511   1.354
   15CHTO  C101 5987   6.958   3.631   1.175
   15CHTO  H188 5988   7.021   3.695   1.113
   15CHTO   O68 5989   6.846   3.718   1.241
   15CHTO  H168 5990   6.797   3.763   1.174
   15CHTO   C99 5991   6.895   3.517   1.083
   15CHTO  H186 5992   6.820   3.462   1.143
   15CHTO   N17 5993   6.822   3.571   0.964
   15CHTO  H174 5994   6.771   3.491   0.912
   15CHTO  H175 5995   6.891   3.622   0.898
   15CHTO   C97 5996   7.002   3.411   1.043
   15CHTO  H184 5997   7.066   3.452   0.963
   15CHTO   O64 5998   7.079   3.365   1.156
   15CHTO  C104 5999   7.148   3.467   1.230
   15CHTO  H191 6000   7.220   3.521   1.169
   15CHTO  C108 6001   7.229   3.401   1.343
   15CHTO   O71 6002   7.339   3.326   1.291
   15CHTO  H171 6003   7.388   3.289   1.361
   15CHTO   O62 6004   6.938   3.289   1.003
   15CHTO   C91 6005   6.947   3.246   0.866
   15CHTO  H178 6006   6.992   3.326   0.807
   15CHTO   C92 6007   6.801   3.227   0.811
   15CHTO  H179 6008   6.741   3.317   0.832
   15CHTO   O66 6009   6.809   3.218   0.668
   15CHTO  H166 6010   6.722   3.218   0.631
   15CHTO   C93 6011   6.732   3.096   0.866
   15CHTO  H180 6012   6.648   3.074   0.798
   15CHTO   N16 6013   6.669   3.112   0.999
   15CHTO  H172 6014   6.743   3.141   1.072
   15CHTO  H173 6015   6.591   3.187   0.994
   15CHTO   C94 6016   6.833   2.974   0.863
   15CHTO  H181 6017   6.863   2.943   0.963
   15CHTO   O61 6018   6.954   3.003   0.792
   15CHTO   C95 6019   7.030   3.112   0.849
   15CHTO  H182 6020   7.065   3.081   0.947
   15CHTO  C106 6021   7.158   3.135   0.763
   15CHTO   O69 6022   7.249   3.025   0.776
   15CHTO  H169 6023   7.324   3.040   0.723
   15CHTO   O63 6024   6.763   2.860   0.791
   15CHTO   C96 6025   6.791   2.719   0.849
   15CHTO  H183 6026   6.816   2.729   0.955
   15CHTO   C98 6027   6.909   2.645   0.778
   15CHTO  H185 6028   6.902   2.663   0.670
   15CHTO   O67 6029   7.031   2.709   0.821
   15CHTO  H167 6030   7.104   2.672   0.775
   15CHTO  C102 6031   6.912   2.487   0.808
   15CHTO  H189 6032   6.939   2.477   0.914
   15CHTO   N18 6033   7.014   2.411   0.732
   15CHTO  H176 6034   6.998   2.423   0.626
   15CHTO  H177 6035   7.113   2.447   0.758
   15CHTO  C105 6036   6.768   2.431   0.789
   15CHTO  H192 6037   6.738   2.447   0.685
   15CHTO   O65 6038   6.675   2.501   0.873
   15CHTO  C100 6039   6.657   2.639   0.839
   15CHTO  H187 6040   6.619   2.645   0.736
   15CHTO  C107 6041   6.550   2.699   0.933
   15CHTO   O70 6042   6.423   2.634   0.920
   15CHTO  H170 6043   6.428   2.547   0.953
   15CHTO   O57 6044   6.764   2.270   0.822
   15CHTO   C85 6045   6.771   2.221   0.957
   15CHTO  H157 6046   6.800   2.306   1.022
   15CHTO   C83 6047   6.889   2.118   0.966
   15CHTO  H155 6048   6.982   2.172   0.945
   15CHTO   O56 6049   6.873   2.019   0.863
   15CHTO  H135 6050   6.949   1.963   0.860
   15CHTO   C81 6051   6.897   2.059   1.110
   15CHTO  H153 6052   6.913   2.142   1.180
   15CHTO   N14 6053   7.016   1.972   1.131
   15CHTO  H141 6054   6.987   1.876   1.170
   15CHTO  H142 6055   7.070   1.957   1.039
   15CHTO   C79 6056   6.760   1.990   1.148
   15CHTO  H151 6057   6.767   1.961   1.253
   15CHTO   O52 6058   6.650   2.085   1.138
   15CHTO   C86 6059   6.638   2.150   1.007
   15CHTO  H158 6060   6.608   2.068   0.939
   15CHTO   C90 6061   6.519   2.249   1.010
   15CHTO   O60 6062   6.538   2.352   1.107
   15CHTO  H138 6063   6.464   2.409   1.108
   15CHTO   O50 6064   6.731   1.872   1.072
   15CHTO   C73 6065   6.633   1.769   1.056
   15CHTO  H145 6066   6.541   1.810   1.010
   15CHTO   C74 6067   6.595   1.705   1.193
   15CHTO  H146 6068   6.557   1.785   1.257
   15CHTO   O54 6069   6.486   1.613   1.172
   15CHTO  H133 6070   6.409   1.660   1.147
   15CHTO   C75 6071   6.723   1.636   1.254
   15CHTO  H147 6072   6.799   1.714   1.272
   15CHTO   N13 6073   6.700   1.574   1.387
   15CHTO  H139 6074   6.792   1.531   1.424
   15CHTO  H140 6075   6.627   1.495   1.378
   15CHTO   C76 6076   6.785   1.533   1.148
   15CHTO  H148 6077   6.714   1.451   1.136
   15CHTO   O49 6078   6.807   1.598   1.018
   15CHTO   C77 6079   6.690   1.659   0.961
   15CHTO  H149 6080   6.613   1.584   0.942
   15CHTO   C88 6081   6.729   1.716   0.824
   15CHTO   O58 6082   6.612   1.776   0.754
   15CHTO  H136 6083   6.551   1.709   0.731
   15CHTO   O51 6084   6.929   1.484   1.195
   15CHTO   C78 6085   6.985   1.368   1.107
   15CHTO  H150 6086   6.935   1.365   1.008
   15CHTO   C80 6087   6.965   1.232   1.177
   15CHTO  H152 6088   7.011   1.236   1.278
   15CHTO   O55 6089   6.823   1.212   1.194
   15CHTO  H134 6090   6.780   1.204   1.110
   15CHTO   C84 6091   7.031   1.115   1.094
   15CHTO  H156 6092   6.978   1.107   0.999
   15CHTO   N15 6093   7.020   0.981   1.162
   15CHTO  H143 6094   7.065   0.905   1.101
   15CHTO  H144 6095   6.917   0.957   1.178
   15CHTO   C87 6096   7.179   1.150   1.063
   15CHTO  H159 6097   7.239   1.146   1.154
   15CHTO   O53 6098   7.188   1.290   0.999
   15CHTO   C82 6099   7.135   1.394   1.082
   15CHTO  H154 6100   7.189   1.397   1.177
   15CHTO   C89 6101   7.159   1.531   1.012
   15CHTO   O59 6102   7.100   1.538   0.882
   15CHTO  H137 6103   7.145   1.480   0.823
   15CHTO   O45 6104   7.240   1.048   0.954
   15CHTO   C67 6105   7.383   1.057   0.943
   15CHTO  H124 6106   7.418   1.149   0.991
   15CHTO   C65 6107   7.451   0.935   1.014
   15CHTO  H122 6108   7.381   0.852   1.005
   15CHTO   O44 6109   7.461   0.971   1.153
   15CHTO  H102 6110   7.488   0.897   1.204
   15CHTO   C63 6111   7.582   0.885   0.941
   15CHTO  H120 6112   7.552   0.824   0.856
   15CHTO   N11 6113   7.667   0.789   1.018
   15CHTO  H108 6114   7.713   0.838   1.101
   15CHTO  H109 6115   7.743   0.748   0.955
   15CHTO   C61 6116   7.658   1.009   0.881
   15CHTO  H118 6117   7.746   0.969   0.829
   15CHTO   O40 6118   7.576   1.075   0.781
   15CHTO   C68 6119   7.430   1.069   0.792
   15CHTO  H125 6120   7.393   0.982   0.733
   15CHTO   C72 6121   7.378   1.197   0.722
   15CHTO   O48 6122   7.236   1.203   0.711
   15CHTO  H105 6123   7.198   1.213   0.796
   15CHTO   O38 6124   7.702   1.100   0.985
   15CHTO   C55 6125   7.724   1.239   0.956
   15CHTO  H112 6126   7.636   1.279   0.904
   15CHTO   C56 6127   7.858   1.264   0.874
   15CHTO  H113 6128   7.937   1.206   0.924
   15CHTO   O42 6129   7.843   1.208   0.742
   15CHTO  H100 6130   7.924   1.215   0.694
   15CHTO   C57 6131   7.895   1.418   0.868
   15CHTO  H114 6132   7.819   1.468   0.808
   15CHTO   N10 6133   8.028   1.442   0.805
   15CHTO  H106 6134   8.073   1.533   0.843
   15CHTO  H107 6135   8.016   1.452   0.698
   15CHTO   C58 6136   7.891   1.475   1.012
   15CHTO  H115 6137   7.967   1.423   1.074
   15CHTO   O37 6138   7.762   1.454   1.070
   15CHTO   C59 6139   7.729   1.316   1.092
   15CHTO  H116 6140   7.802   1.271   1.159
   15CHTO   C70 6141   7.591   1.313   1.160
   15CHTO   O46 6142   7.590   1.384   1.284
   15CHTO  H103 6143   7.643   1.339   1.347
   15CHTO   O39 6144   7.919   1.639   1.021
   15CHTO   C60 6145   7.839   1.731   0.943
   15CHTO  H117 6146   7.848   1.706   0.838
   15CHTO   C62 6147   7.687   1.731   0.981
   15CHTO  H119 6148   7.648   1.631   0.953
   15CHTO   O43 6149   7.674   1.750   1.123
   15CHTO  H101 6150   7.584   1.742   1.148
   15CHTO   C66 6151   7.609   1.842   0.894
   15CHTO  H123 6152   7.625   1.820   0.788
   15CHTO   N12 6153   7.462   1.837   0.916
   15CHTO  H110 6154   7.411   1.820   0.823
   15CHTO  H111 6155   7.427   1.927   0.965
   15CHTO   C69 6156   7.672   1.981   0.920
   15CHTO  H126 6157   7.659   2.009   1.027
   15CHTO   O41 6158   7.821   1.977   0.886
   15CHTO   C64 6159   7.900   1.873   0.961
   15CHTO  H121 6160   7.901   1.898   1.069
   15CHTO   C71 6161   8.046   1.876   0.909
   15CHTO   O47 6162   8.107   2.003   0.937
   15CHTO  H104 6163   8.195   2.003   0.903
   15CHTO   O34 6164   7.605   2.092   0.832
   15CHTO   C49 6165   7.576   2.133   0.686
   15CHTO   H91 6166   7.531   2.046   0.637
   15CHTO   C47 6167   7.709   2.170   0.615
   15CHTO   H89 6168   7.683   2.193   0.509
   15CHTO   O33 6169   7.797   2.056   0.617
   15CHTO   H70 6170   7.762   1.987   0.564
   15CHTO   C45 6171   7.769   2.301   0.686
   15CHTO   H87 6172   7.779   2.281   0.794
   15CHTO    N8 6173   7.903   2.339   0.634
   15CHTO   H75 6174   7.972   2.256   0.646
   15CHTO   H76 6175   7.896   2.364   0.529
   15CHTO   C43 6176   7.662   2.422   0.676
   15CHTO   H85 6177   7.703   2.503   0.736
   15CHTO   O29 6178   7.533   2.379   0.725
   15CHTO   C50 6179   7.479   2.253   0.680
   15CHTO   H92 6180   7.395   2.229   0.746
   15CHTO   C54 6181   7.411   2.262   0.540
   15CHTO   O36 6182   7.299   2.350   0.541
   15CHTO   H72 6183   7.261   2.355   0.456
   15CHTO   O27 6184   7.650   2.477   0.543
   15CHTO   C37 6185   7.584   2.568   0.454
   15CHTO   H79 6186   7.512   2.513   0.391
   15CHTO   C38 6187   7.504   2.678   0.529
   15CHTO   H80 6188   7.574   2.735   0.592
   15CHTO   O31 6189   7.406   2.614   0.613
   15CHTO   H68 6190   7.364   2.678   0.667
   15CHTO   C39 6191   7.435   2.775   0.425
   15CHTO   H81 6192   7.361   2.715   0.371
   15CHTO    N7 6193   7.360   2.889   0.490
   15CHTO   H73 6194   7.403   2.984   0.463
   15CHTO   H74 6195   7.256   2.885   0.463
   15CHTO   C40 6196   7.538   2.828   0.318
   15CHTO   H82 6197   7.600   2.908   0.359
   15CHTO   O26 6198   7.618   2.721   0.264
   15CHTO   C41 6199   7.688   2.638   0.362
   15CHTO   H83 6200   7.754   2.701   0.423
   15CHTO   C52 6201   7.776   2.536   0.286
   15CHTO   O35 6202   7.883   2.602   0.210
   15CHTO   H71 6203   7.937   2.537   0.169
   15CHTO   O28 6204   7.469   2.873   0.199
   15CHTO   C42 6205   7.492   3.000   0.131
   15CHTO   H84 6206   7.472   2.976   0.026
   15CHTO   C44 6207   7.636   3.062   0.134
   15CHTO   H86 6208   7.660   3.089   0.237
   15CHTO   O32 6209   7.727   2.960   0.089
   15CHTO   H69 6210   7.815   2.990   0.097
   15CHTO   C48 6211   7.644   3.193   0.045
   15CHTO   H90 6212   7.631   3.163   2.783
   15CHTO    N9 6213   7.779   3.259   0.051
   15CHTO   H77 6214   7.779   3.347   2.831
   15CHTO   H78 6215   7.855   3.190   0.019
   15CHTO   C51 6216   7.527   3.293   0.082
   15CHTO   H93 6217   7.547   3.335   0.181
   15CHTO   O30 6218   7.402   3.224   0.078
   15CHTO   C46 6219   7.389   3.110   0.172
   15CHTO   H88 6220   7.411   3.144   0.273
   15CHTO   C53 6221   7.244   3.059   0.162
   15CHTO   O72 6222   7.151   3.157   0.211
   15CHTO  H199 6223   7.159   3.166   0.304
   15CHTO   O22 6224   7.513   3.397   2.825
   15CHTO   C31 6225   7.443   3.525   0.008
   15CHTO   H59 6226   7.430   3.572   2.750
   15CHTO   C29 6227   7.302   3.512   0.070
   15CHTO   H57 6228   7.311   3.459   0.166
   15CHTO   O21 6229   7.222   3.428   2.826
   15CHTO   H37 6230   7.206   3.471   2.744
   15CHTO   C27 6231   7.234   3.652   0.096
   15CHTO   H55 6232   7.216   3.701   2.841
   15CHTO    N5 6233   7.104   3.643   0.168
   15CHTO   H43 6234   7.023   3.677   0.104
   15CHTO   H44 6235   7.085   3.542   0.201
   15CHTO   C25 6236   7.334   3.744   0.174
   15CHTO   H53 6237   7.351   3.702   0.275
   15CHTO   O17 6238   7.462   3.751   0.105
   15CHTO   C32 6239   7.530   3.625   0.091
   15CHTO   H60 6240   7.548   3.582   0.190
   15CHTO   C36 6241   7.666   3.650   0.021
   15CHTO   O25 6242   7.754   3.730   0.101
   15CHTO   H40 6243   7.781   3.681   0.176
   15CHTO   O15 6244   7.279   3.890   0.189
   15CHTO   C19 6245   7.328   4.022   0.225
   15CHTO   H47 6246   7.431   4.025   0.184
   15CHTO   C20 6247   7.246   4.139   0.162
   15CHTO   H48 6248   7.140   4.134   0.192
   15CHTO   O19 6249   7.250   4.121   0.019
   15CHTO   H35 6250   7.338   4.131   2.829
   15CHTO   C21 6251   7.302   4.281   0.204
   15CHTO   H49 6252   7.401   4.293   0.159
   15CHTO    N4 6253   7.219   4.394   0.155
   15CHTO   H41 6254   7.263   4.488   0.184
   15CHTO   H42 6255   7.119   4.387   0.196
   15CHTO   C22 6256   7.322   4.284   0.358
   15CHTO   H50 6257   7.224   4.280   0.407
   15CHTO   O14 6258   7.403   4.173   0.400
   15CHTO   C23 6259   7.342   4.045   0.378
   15CHTO   H51 6260   7.245   4.045   0.429
   15CHTO   C34 6261   7.430   3.939   0.446
   15CHTO   O23 6262   7.434   3.955   0.588
   15CHTO   H38 6263   7.350   3.935   0.625
   15CHTO   O16 6264   7.393   4.403   0.400
   15CHTO   C24 6265   7.422   4.410   0.558
   15CHTO   H52 6266   7.413   4.312   0.605
   15CHTO   C26 6267   7.325   4.508   0.626
   15CHTO   H54 6268   7.333   4.606   0.575
   15CHTO   O20 6269   7.191   4.460   0.607
   15CHTO   H36 6270   7.166   4.466   0.517
   15CHTO   C30 6271   7.360   4.527   0.777
   15CHTO   H58 6272   7.338   4.434   0.831
   15CHTO    N6 6273   7.278   4.633   0.842
   15CHTO   H45 6274   7.209   4.678   0.772
   15CHTO   H46 6275   7.223   4.593   0.925
   15CHTO   C33 6276   7.513   4.552   0.796
   15CHTO   H61 6277   7.538   4.653   0.759
   15CHTO   O18 6278   7.590   4.456   0.721
   15CHTO   C28 6279   7.567   4.457   0.580
   15CHTO   H56 6280   7.578   4.558   0.539
   15CHTO   C35 6281   7.669   4.364   0.511
   15CHTO   O24 6282   7.803   4.410   0.526
   15CHTO   H39 6283   7.862   4.352   0.482
   15CHTO    O9 6284   7.552   4.552   0.935
   15CHTO   C13 6285   7.698   4.632   0.970
   15CHTO   H26 6286   7.681   4.740   0.953
   15CHTO   C11 6287   7.817   4.578   0.881
   15CHTO   H24 6288   7.797   4.607   0.777
   15CHTO    O8 6289   7.822   4.434   0.886
   15CHTO    H3 6290   7.888   4.402   0.827
   15CHTO    C9 6291   7.947   4.646   0.930
   15CHTO   H22 6292   7.924   4.753   0.939
   15CHTO    N2 6293   8.060   4.641   0.833
   15CHTO   H10 6294   8.036   4.578   0.749
   15CHTO   H11 6295   8.151   4.608   0.880
   15CHTO    C7 6296   7.982   4.590   1.074
   15CHTO   H20 6297   8.049   4.668   1.117
   15CHTO    O4 6298   7.867   4.573   1.159
   15CHTO   C14 6299   7.735   4.619   1.126
   15CHTO   H27 6300   7.726   4.720   1.171
   15CHTO   C18 6301   7.636   4.527   1.202
   15CHTO   O13 6302   7.649   4.389   1.164
   15CHTO    H7 6303   7.732   4.356   1.191
   15CHTO    O2 6304   8.061   4.446   1.067
   15CHTO    C1 6305   8.133   4.416   1.188
   15CHTO   H14 6306   8.096   4.478   1.272
   15CHTO    C2 6307   8.289   4.439   1.173
   15CHTO   H15 6308   8.321   4.381   1.086
   15CHTO    O6 6309   8.312   4.579   1.149
   15CHTO    H1 6310   8.403   4.594   1.130
   15CHTO    C3 6311   8.367   4.390   1.305
   15CHTO   H16 6312   8.343   4.461   1.385
   15CHTO    N1 6313   8.516   4.391   1.288
   15CHTO    H8 6314   8.561   4.458   1.360
   15CHTO    H9 6315   8.544   4.421   1.188
   15CHTO    C4 6316   8.315   4.250   1.355
   15CHTO   H17 6317   8.358   4.171   1.292
   15CHTO    O1 6318   8.172   4.241   1.355
   15CHTO    C5 6319   8.109   4.268   1.228
   15CHTO   H18 6320   8.151   4.203   1.151
   15CHTO   C16 6321   7.958   4.235   1.242
   15CHTO   O11 6322   7.936   4.096   1.269
   15CHTO    H5 6323   7.967   4.075   1.355
   15CHTO    O3 6324   8.350   4.230   1.493
   15CHTO    C6 6325   8.383   4.094   1.534
   15CHTO   H19 6326   8.354   4.019   1.460
   15CHTO    C8 6327   8.538   4.083   1.556
   15CHTO   H21 6328   8.569   4.167   1.618
   15CHTO    O7 6329   8.601   4.092   1.427
   15CHTO    H2 6330   8.591   4.179   1.392
   15CHTO   C12 6331   8.578   3.948   1.629
   15CHTO   H25 6332   8.563   3.868   1.554
   15CHTO    N3 6333   8.725   3.947   1.664
   15CHTO   H12 6334   8.750   3.854   1.711
   15CHTO   H13 6335   8.747   4.030   1.731
   15CHTO   C15 6336   8.484   3.922   1.751
   15CHTO   H28 6337   8.504   3.992   1.833
   15CHTO   O10 6338   8.494   3.777   1.804
   15CHTO    H4 6339   8.581   3.762   1.837
   15CHTO    O5 6340   8.347   3.929   1.711
   15CHTO   C10 6341   8.307   4.059   1.666
   15CHTO   H23 6342   8.329   4.132   1.744
   15CHTO   C17 6343   8.155   4.053   1.648
   15CHTO   O12 6344   8.097   4.184   1.633
   15CHTO    H6 6345   8.005   4.176   1.620
   16CHTO  H203 6346   6.483   4.587   0.272
   16CHTO   O82 6347   6.535   4.515   0.241
   16CHTO  C123 6348   6.645   4.493   0.331
   16CHTO  H227 6349   6.694   4.589   0.353
   16CHTO   O77 6350   6.582   4.439   0.451
   16CHTO  C118 6351   6.672   4.415   0.560
   16CHTO  H222 6352   6.726   4.509   0.583
   16CHTO  C125 6353   6.588   4.373   0.686
   16CHTO   O84 6354   6.510   4.254   0.663
   16CHTO  H205 6355   6.461   4.234   0.740
   16CHTO  C114 6356   6.775   4.307   0.520
   16CHTO  H218 6357   6.722   4.214   0.499
   16CHTO  C116 6358   6.851   4.347   0.388
   16CHTO  H220 6359   6.920   4.431   0.410
   16CHTO   O79 6360   6.933   4.237   0.346
   16CHTO  H201 6361   6.986   4.262   0.273
   16CHTO  C120 6362   6.749   4.389   0.274
   16CHTO  H224 6363   6.696   4.296   0.244
   16CHTO   N21 6364   6.818   4.440   0.152
   16CHTO  H211 6365   6.914   4.391   0.140
   16CHTO  H212 6366   6.833   4.547   0.159
   16CHTO   O75 6367   6.858   4.291   0.637
   16CHTO  C112 6368   6.963   4.163   0.633
   16CHTO  H216 6369   7.047   4.189   0.565
   16CHTO   O73 6370   6.891   4.047   0.587
   16CHTO  C113 6371   6.977   3.936   0.557
   16CHTO  H217 6372   7.050   3.967   0.479
   16CHTO  C124 6373   6.891   3.824   0.496
   16CHTO   O83 6374   6.831   3.860   0.372
   16CHTO  H204 6375   6.896   3.869   0.306
   16CHTO  C109 6376   7.051   3.888   0.684
   16CHTO  H213 6377   6.976   3.841   0.749
   16CHTO  C110 6378   7.120   4.007   0.759
   16CHTO  H214 6379   7.208   4.038   0.702
   16CHTO   O78 6380   7.166   3.959   0.887
   16CHTO  H200 6381   7.236   3.898   0.876
   16CHTO  C111 6382   7.023   4.128   0.774
   16CHTO  H215 6383   6.940   4.099   0.840
   16CHTO   N19 6384   7.086   4.247   0.837
   16CHTO  H207 6385   7.168   4.282   0.776
   16CHTO  H208 6386   7.014   4.326   0.849
   16CHTO   O74 6387   7.151   3.789   0.646
   16CHTO  C115 6388   7.156   3.661   0.739
   16CHTO  H219 6389   7.104   3.678   0.833
   16CHTO   O76 6390   7.081   3.540   0.673
   16CHTO  C122 6391   7.142   3.503   0.548
   16CHTO  H226 6392   7.133   3.588   0.480
   16CHTO  C126 6393   7.060   3.387   0.483
   16CHTO   O85 6394   6.926   3.426   0.451
   16CHTO  H206 6395   6.881   3.354   0.412
   16CHTO  C121 6396   7.295   3.464   0.565
   16CHTO  H225 6397   7.307   3.356   0.539
   16CHTO   O81 6398   7.374   3.539   0.472
   16CHTO  H202 6399   7.462   3.507   0.471
   16CHTO  C119 6400   7.345   3.486   0.712
   16CHTO  H223 6401   7.290   3.414   0.772
   16CHTO  C117 6402   7.309   3.630   0.765
   16CHTO  H221 6403   7.364   3.710   0.717
   16CHTO   N20 6404   7.343   3.643   0.911
   16CHTO  H209 6405   7.448   3.624   0.927
   16CHTO  H210 6406   7.284   3.573   0.969
   16CHTO   O80 6407   7.495   3.437   0.734
   16CHTO  C103 6408   7.531   3.288   0.710
   16CHTO  H190 6409   7.442   3.231   0.683
   16CHTO  C101 6410   7.642   3.260   0.602
   16CHTO  H188 6411   7.730   3.319   0.627
   16CHTO   O68 6412   7.591   3.307   0.462
   16CHTO  H168 6413   7.516   3.256   0.436
   16CHTO   C99 6414   7.683   3.105   0.600
   16CHTO  H186 6415   7.598   3.047   0.558
   16CHTO   N17 6416   7.802   3.075   0.513
   16CHTO  H174 6417   7.816   2.968   0.506
   16CHTO  H175 6418   7.787   3.118   0.415
   16CHTO   C97 6419   7.704   3.048   0.744
   16CHTO  H184 6420   7.803   3.079   0.781
   16CHTO   O64 6421   7.599   3.090   0.833
   16CHTO  C104 6422   7.582   3.231   0.847
   16CHTO  H191 6423   7.676   3.281   0.874
   16CHTO  C108 6424   7.485   3.259   0.963
   16CHTO   O71 6425   7.540   3.214   1.087
   16CHTO  H171 6426   7.480   3.233   1.157
   16CHTO   O62 6427   7.696   2.904   0.742
   16CHTO   C91 6428   7.719   2.832   0.865
   16CHTO  H178 6429   7.736   2.904   0.945
   16CHTO   C92 6430   7.850   2.748   0.853
   16CHTO  H179 6431   7.843   2.685   0.762
   16CHTO   O66 6432   7.960   2.838   0.830
   16CHTO  H166 6433   7.972   2.895   0.903
   16CHTO   C93 6434   7.876   2.658   0.981
   16CHTO  H180 6435   7.902   2.726   1.062
   16CHTO   N16 6436   7.991   2.564   0.967
   16CHTO  H172 6437   8.065   2.585   1.043
   16CHTO  H173 6438   8.034   2.570   0.869
   16CHTO   C94 6439   7.745   2.579   1.022
   16CHTO  H181 6440   7.719   2.503   0.948
   16CHTO   O61 6441   7.635   2.671   1.030
   16CHTO   C95 6442   7.602   2.736   0.908
   16CHTO  H182 6443   7.585   2.661   0.830
   16CHTO  C106 6444   7.464   2.809   0.928
   16CHTO   O69 6445   7.470   2.904   1.035
   16CHTO  H169 6446   7.387   2.946   1.044
   16CHTO   O63 6447   7.759   2.510   1.169
   16CHTO   C96 6448   7.618   2.448   1.229
   16CHTO  H183 6449   7.647   2.369   1.298
   16CHTO   C98 6450   7.523   2.382   1.122
   16CHTO  H185 6451   7.528   2.438   1.027
   16CHTO   O67 6452   7.577   2.252   1.091
   16CHTO  H167 6453   7.659   2.260   1.047
   16CHTO  C102 6454   7.370   2.373   1.168
   16CHTO  H189 6455   7.368   2.304   1.253
   16CHTO   N18 6456   7.275   2.317   1.068
   16CHTO  H176 6457   7.326   2.291   0.977
   16CHTO  H177 6458   7.225   2.230   1.108
   16CHTO  C105 6459   7.333   2.515   1.216
   16CHTO  H192 6460   7.362   2.587   1.138
   16CHTO   O65 6461   7.407   2.543   1.335
   16CHTO  C100 6462   7.548   2.562   1.315
   16CHTO  H187 6463   7.563   2.659   1.266
   16CHTO  C107 6464   7.615   2.570   1.455
   16CHTO   O70 6465   7.568   2.684   1.528
   16CHTO  H170 6466   7.610   2.687   1.612
   16CHTO   O57 6467   7.172   2.532   1.249
   16CHTO   C85 6468   7.104   2.649   1.200
   16CHTO  H157 6469   7.107   2.641   1.089
   16CHTO   C83 6470   7.182   2.780   1.235
   16CHTO  H155 6471   7.279   2.776   1.187
   16CHTO   O56 6472   7.208   2.784   1.377
   16CHTO  H135 6473   7.128   2.792   1.425
   16CHTO   C81 6474   7.105   2.904   1.180
   16CHTO  H153 6475   7.094   2.892   1.072
   16CHTO   N14 6476   7.184   3.030   1.196
   16CHTO  H141 6477   7.127   3.104   1.248
   16CHTO  H142 6478   7.212   3.068   1.100
   16CHTO   C79 6479   6.961   2.910   1.243
   16CHTO  H151 6480   6.908   2.992   1.194
   16CHTO   O52 6481   6.888   2.787   1.213
   16CHTO   C86 6482   6.955   2.663   1.253
   16CHTO  H158 6483   6.952   2.664   1.364
   16CHTO   C90 6484   6.871   2.541   1.209
   16CHTO   O60 6485   6.739   2.547   1.262
   16CHTO  H138 6486   6.690   2.472   1.235
   16CHTO   O50 6487   6.961   2.935   1.385
   16CHTO   C73 6488   6.906   2.942   1.517
   16CHTO  H145 6489   6.936   2.854   1.575
   16CHTO   C74 6490   6.750   2.948   1.512
   16CHTO  H146 6491   6.716   2.860   1.455
   16CHTO   O54 6492   6.701   2.932   1.646
   16CHTO  H133 6493   6.607   2.930   1.646
   16CHTO   C75 6494   6.705   3.084   1.443
   16CHTO  H147 6495   6.744   3.086   1.340
   16CHTO   N13 6496   6.558   3.098   1.431
   16CHTO  H139 6497   6.518   3.017   1.371
   16CHTO  H140 6498   6.534   3.191   1.381
   16CHTO   C76 6499   6.771   3.206   1.522
   16CHTO  H148 6500   6.733   3.205   1.624
   16CHTO   O49 6501   6.917   3.190   1.524
   16CHTO   C77 6502   6.961   3.070   1.589
   16CHTO  H149 6503   6.927   3.069   1.693
   16CHTO   C88 6504   7.115   3.071   1.595
   16CHTO   O58 6505   7.165   3.187   1.672
   16CHTO  H136 6506   7.259   3.186   1.673
   16CHTO   O51 6507   6.748   3.346   1.448
   16CHTO   C78 6508   6.685   3.460   1.543
   16CHTO  H150 6509   6.631   3.415   1.630
   16CHTO   C80 6510   6.584   3.543   1.460
   16CHTO  H152 6511   6.633   3.573   1.364
   16CHTO   O55 6512   6.474   3.456   1.426
   16CHTO  H134 6513   6.427   3.430   1.503
   16CHTO   C84 6514   6.535   3.673   1.536
   16CHTO  H156 6515   6.480   3.641   1.625
   16CHTO   N15 6516   6.443   3.758   1.454
   16CHTO  H143 6517   6.492   3.789   1.364
   16CHTO  H144 6518   6.355   3.703   1.429
   16CHTO   C87 6519   6.660   3.752   1.582
   16CHTO  H159 6520   6.718   3.781   1.494
   16CHTO   O53 6521   6.742   3.660   1.672
   16CHTO   C82 6522   6.797   3.549   1.599
   16CHTO  H154 6523   6.859   3.588   1.517
   16CHTO   C89 6524   6.893   3.472   1.694
   16CHTO   O59 6525   6.826   3.421   1.810
   16CHTO  H137 6526   6.765   3.354   1.786
   16CHTO   O45 6527   6.624   3.888   1.671
   16CHTO   C67 6528   6.743   3.965   1.697
   16CHTO  H124 6529   6.828   3.898   1.694
   16CHTO   C65 6530   6.765   4.077   1.589
   16CHTO  H122 6531   6.665   4.112   1.563
   16CHTO   O44 6532   6.823   4.011   1.476
   16CHTO  H102 6533   6.826   4.070   1.403
   16CHTO   C63 6534   6.839   4.204   1.647
   16CHTO  H120 6535   6.765   4.266   1.698
   16CHTO   N11 6536   6.891   4.300   1.543
   16CHTO  H108 6537   6.834   4.390   1.543
   16CHTO  H109 6538   6.994   4.323   1.562
   16CHTO   C61 6539   6.941   4.162   1.759
   16CHTO  H118 6540   6.981   4.255   1.801
   16CHTO   O40 6541   6.874   4.091   1.868
   16CHTO   C68 6542   6.745   4.027   1.841
   16CHTO  H125 6543   6.665   4.103   1.850
   16CHTO   C72 6544   6.718   3.920   1.950
   16CHTO   O48 6545   6.816   3.816   1.955
   16CHTO  H105 6546   6.898   3.852   1.984
   16CHTO   O38 6547   7.049   4.083   1.704
   16CHTO   C55 6548   7.150   4.030   1.793
   16CHTO  H112 6549   7.102   3.999   1.888
   16CHTO   C56 6550   7.268   4.135   1.818
   16CHTO  H113 6551   7.296   4.174   1.719
   16CHTO   O42 6552   7.218   4.249   1.892
   16CHTO  H100 6553   7.188   4.222   1.976
   16CHTO   C57 6554   7.393   4.069   1.890
   16CHTO  H114 6555   7.363   4.046   1.992
   16CHTO   N10 6556   7.513   4.156   1.897
   16CHTO  H106 6557   7.516   4.223   1.812
   16CHTO  H107 6558   7.510   4.215   1.988
   16CHTO   C58 6559   7.427   3.936   1.818
   16CHTO  H115 6560   7.457   3.959   1.712
   16CHTO   O37 6561   7.311   3.852   1.818
   16CHTO   C59 6562   7.208   3.901   1.731
   16CHTO  H116 6563   7.249   3.920   1.632
   16CHTO   C70 6564   7.105   3.789   1.720
   16CHTO   O46 6565   7.022   3.804   1.605
   16CHTO  H103 6566   6.960   3.734   1.601
   16CHTO   O39 6567   7.542   3.847   1.889
   16CHTO   C60 6568   7.596   3.752   1.794
   16CHTO  H117 6569   7.523   3.734   1.715
   16CHTO   C62 6570   7.722   3.810   1.725
   16CHTO  H119 6571   7.691   3.905   1.677
   16CHTO   O43 6572   7.822   3.840   1.825
   16CHTO  H101 6573   7.897   3.881   1.784
   16CHTO   C66 6574   7.772   3.707   1.612
   16CHTO  H123 6575   7.689   3.689   1.543
   16CHTO   N12 6576   7.882   3.764   1.530
   16CHTO  H110 6577   7.910   3.694   1.453
   16CHTO  H111 6578   7.966   3.789   1.593
   16CHTO   C69 6579   7.809   3.571   1.679
   16CHTO  H126 6580   7.892   3.587   1.751
   16CHTO   O41 6581   7.684   3.516   1.757
   16CHTO   C64 6582   7.626   3.615   1.860
   16CHTO  H121 6583   7.700   3.630   1.941
   16CHTO   C71 6584   7.499   3.553   1.924
   16CHTO   O47 6585   7.400   3.521   1.825
   16CHTO  H104 6586   7.327   3.479   1.866
   16CHTO   O34 6587   7.854   3.462   1.571
   16CHTO   C49 6588   7.807   3.418   1.429
   16CHTO   H91 6589   7.795   3.510   1.370
   16CHTO   C47 6590   7.673   3.344   1.439
   16CHTO   H89 6591   7.643   3.327   1.332
   16CHTO   O33 6592   7.572   3.427   1.499
   16CHTO   H70 6593   7.595   3.445   1.589
   16CHTO   C45 6594   7.689   3.203   1.518
   16CHTO   H87 6595   7.667   3.221   1.624
   16CHTO    N8 6596   7.587   3.108   1.465
   16CHTO   H75 6597   7.607   3.086   1.361
   16CHTO   H76 6598   7.488   3.149   1.475
   16CHTO   C43 6599   7.843   3.152   1.514
   16CHTO   H85 6600   7.892   3.203   1.597
   16CHTO   O29 6601   7.903   3.184   1.388
   16CHTO   C50 6602   7.910   3.324   1.357
   16CHTO   H92 6603   8.011   3.360   1.383
   16CHTO   C54 6604   7.904   3.342   1.203
   16CHTO   O36 6605   8.016   3.280   1.138
   16CHTO   H72 6606   8.010   3.187   1.147
   16CHTO   O27 6607   7.858   3.012   1.545
   16CHTO   C37 6608   7.954   2.906   1.555
   16CHTO   H79 6609   8.056   2.946   1.540
   16CHTO   C38 6610   7.950   2.844   1.698
   16CHTO   H80 6611   7.845   2.824   1.723
   16CHTO   O31 6612   8.000   2.945   1.788
   16CHTO   H68 6613   7.991   2.916   1.877
   16CHTO   C39 6614   8.034   2.711   1.709
   16CHTO   H81 6615   8.139   2.738   1.701
   16CHTO    N7 6616   8.016   2.643   1.842
   16CHTO   H73 6617   8.076   2.553   1.845
   16CHTO   H74 6618   8.047   2.709   1.922
   16CHTO   C40 6619   8.001   2.614   1.589
   16CHTO   H82 6620   7.900   2.575   1.599
   16CHTO   O26 6621   8.018   2.685   1.465
   16CHTO   C41 6622   7.926   2.797   1.448
   16CHTO   H83 6623   7.822   2.762   1.458
   16CHTO   C52 6624   7.946   2.849   1.304
   16CHTO   O35 6625   7.833   2.930   1.257
   16CHTO   H71 6626   7.850   2.959   1.169
   16CHTO   O28 6627   8.094   2.504   1.581
   16CHTO   C42 6628   8.057   2.374   1.524
   16CHTO   H84 6629   8.152   2.319   1.525
   16CHTO   C44 6630   8.009   2.373   1.375
   16CHTO   H86 6631   7.919   2.435   1.367
   16CHTO   O32 6632   8.114   2.434   1.298
   16CHTO   H69 6633   8.088   2.442   1.208
   16CHTO   C48 6634   7.973   2.227   1.326
   16CHTO   H90 6635   8.063   2.166   1.330
   16CHTO    N9 6636   7.928   2.223   1.182
   16CHTO   H77 6637   7.993   2.159   1.124
   16CHTO   H78 6638   7.825   2.190   1.174
   16CHTO   C51 6639   7.867   2.167   1.425
   16CHTO   H93 6640   7.780   2.233   1.425
   16CHTO   O30 6641   7.928   2.158   1.554
   16CHTO   C46 6642   7.958   2.294   1.615
   16CHTO   H88 6643   7.864   2.350   1.624
   16CHTO   C53 6644   8.019   2.270   1.755
   16CHTO   O72 6645   7.925   2.206   1.842
   16CHTO  H199 6646   7.913   2.117   1.815
   16CHTO   O22 6647   7.828   2.032   1.392
   16CHTO   C31 6648   7.710   1.970   1.455
   16CHTO   H59 6649   7.702   2.014   1.557
   16CHTO   C29 6650   7.577   2.002   1.383
   16CHTO   H57 6651   7.590   1.971   1.278
   16CHTO   O21 6652   7.557   2.144   1.382
   16CHTO   H37 6653   7.542   2.176   1.469
   16CHTO   C27 6654   7.453   1.925   1.444
   16CHTO   H55 6655   7.432   1.967   1.544
   16CHTO    N5 6656   7.331   1.941   1.360
   16CHTO   H43 6657   7.247   1.893   1.408
   16CHTO   H44 6658   7.310   2.046   1.347
   16CHTO   C25 6659   7.489   1.774   1.465
   16CHTO   H53 6660   7.505   1.727   1.366
   16CHTO   O17 6661   7.611   1.763   1.543
   16CHTO   C32 6662   7.726   1.816   1.476
   16CHTO   H60 6663   7.739   1.769   1.379
   16CHTO   C36 6664   7.849   1.782   1.564
   16CHTO   O25 6665   7.973   1.808   1.497
   16CHTO   H40 6666   7.984   1.901   1.485
   16CHTO   O15 6667   7.374   1.694   1.541
   16CHTO   C19 6668   7.276   1.694   1.649
   16CHTO   H47 6669   7.269   1.588   1.678
   16CHTO   C20 6670   7.319   1.776   1.775
   16CHTO   H48 6671   7.339   1.881   1.750
   16CHTO   O19 6672   7.442   1.718   1.823
   16CHTO   H35 6673   7.428   1.630   1.852
   16CHTO   C21 6674   7.206   1.774   1.886
   16CHTO   H49 6675   7.193   1.671   1.921
   16CHTO    N4 6676   7.240   1.855   2.006
   16CHTO   H41 6677   7.161   1.848   2.079
   16CHTO   H42 6678   7.253   1.959   1.978
   16CHTO   C22 6679   7.072   1.817   1.820
   16CHTO   H50 6680   7.083   1.919   1.784
   16CHTO   O14 6681   7.041   1.729   1.711
   16CHTO   C23 6682   7.133   1.735   1.601
   16CHTO   H51 6683   7.130   1.837   1.561
   16CHTO   C34 6684   7.077   1.640   1.494
   16CHTO   O23 6685   7.146   1.649   1.370
   16CHTO   H38 6686   7.234   1.616   1.379
   16CHTO   O16 6687   6.959   1.807   1.909
   16CHTO   C24 6688   6.836   1.900   1.863
   16CHTO   H52 6689   6.847   1.933   1.760
   16CHTO   C26 6690   6.829   2.022   1.956
   16CHTO   H54 6691   6.827   1.987   2.061
   16CHTO   O20 6692   6.948   2.100   1.937
   16CHTO   H36 6693   7.023   2.054   1.971
   16CHTO   C30 6694   6.700   2.108   1.930
   16CHTO   H58 6695   6.709   2.159   1.833
   16CHTO    N6 6696   6.685   2.216   2.031
   16CHTO   H45 6697   6.674   2.174   2.130
   16CHTO   H46 6698   6.597   2.275   2.008
   16CHTO   C33 6699   6.574   2.017   1.920
   16CHTO   H61 6700   6.551   1.975   2.020
   16CHTO   O18 6701   6.598   1.907   1.830
   16CHTO   C28 6702   6.704   1.820   1.870
   16CHTO   H56 6703   6.688   1.786   1.973
   16CHTO   C35 6704   6.708   1.697   1.776
   16CHTO   O24 6705   6.587   1.620   1.782
   16CHTO   H39 6706   6.580   1.577   1.865
   16CHTO    O9 6707   6.457   2.091   1.881
   16CHTO   C13 6708   6.323   2.051   1.960
   16CHTO   H26 6709   6.345   2.054   2.069
   16CHTO   C11 6710   6.274   1.907   1.914
   16CHTO   H24 6711   6.349   1.834   1.949
   16CHTO    O8 6712   6.269   1.898   1.771
   16CHTO    H3 6713   6.206   1.958   1.736
   16CHTO    C9 6714   6.139   1.879   1.985
   16CHTO   H22 6715   6.157   1.897   2.092
   16CHTO    N2 6716   6.097   1.737   1.979
   16CHTO   H10 6717   6.177   1.674   2.016
   16CHTO   H11 6718   6.073   1.710   1.877
   16CHTO    C7 6719   6.031   1.985   1.935
   16CHTO   H20 6720   5.977   2.013   2.029
   16CHTO    O4 6721   6.089   2.103   1.876
   16CHTO   C14 6722   6.206   2.159   1.938
   16CHTO   H27 6723   6.176   2.199   2.037
   16CHTO   C18 6724   6.248   2.280   1.850
   16CHTO   O13 6725   6.356   2.355   1.908
   16CHTO    H7 6726   6.378   2.426   1.851
   16CHTO    O2 6727   5.922   1.924   1.828
   16CHTO    C1 6728   5.791   1.982   1.834
   16CHTO   H14 6729   5.791   2.071   1.901
   16CHTO    C2 6730   5.681   1.879   1.886
   16CHTO   H15 6731   5.703   1.784   1.836
   16CHTO    O6 6732   5.698   1.863   2.028
   16CHTO    H1 6733   5.779   1.818   2.046
   16CHTO    C3 6734   5.531   1.926   1.850
   16CHTO   H16 6735   5.505   2.016   1.909
   16CHTO    N1 6736   5.430   1.820   1.883
   16CHTO    H8 6737   5.331   1.855   1.858
   16CHTO    H9 6738   5.434   1.797   1.989
   16CHTO    C4 6739   5.527   1.970   1.699
   16CHTO   H17 6740   5.555   1.885   1.637
   16CHTO    O1 6741   5.620   2.078   1.682
   16CHTO    C5 6742   5.757   2.037   1.691
   16CHTO   H18 6743   5.775   1.958   1.619
   16CHTO   C16 6744   5.845   2.159   1.656
   16CHTO   O11 6745   5.825   2.204   1.522
   16CHTO    H5 6746   5.857   2.140   1.461
   16CHTO    O3 6747   5.400   2.026   1.657
   16CHTO    C6 6748   5.347   1.976   1.529
   16CHTO   H19 6749   5.399   1.888   1.493
   16CHTO    C8 6750   5.197   1.936   1.547
   16CHTO   H21 6751   5.144   2.019   1.594
   16CHTO    O7 6752   5.194   1.821   1.635
   16CHTO    H2 6753   5.218   1.846   1.722
   16CHTO   C12 6754   5.128   1.905   1.408
   16CHTO   H25 6755   5.176   1.813   1.368
   16CHTO    N3 6756   4.981   1.875   1.423
   16CHTO   H12 6757   4.950   1.879   1.526
   16CHTO   H13 6758   4.958   1.778   1.380
   16CHTO   C15 6759   5.156   2.023   1.309
   16CHTO   H28 6760   5.107   2.115   1.342
   16CHTO   O10 6761   5.114   1.992   1.162
   16CHTO    H4 6762   5.154   1.913   1.133
   16CHTO    O5 6763   5.297   2.045   1.297
   16CHTO   C10 6764   5.361   2.086   1.419
   16CHTO   H23 6765   5.315   2.179   1.453
   16CHTO   C17 6766   5.507   2.118   1.384
   16CHTO   O12 6767   5.577   2.004   1.332
   16CHTO    H6 6768   5.666   2.028   1.313
   17CHTO  H203 6769   6.356   4.367   0.408
   17CHTO   O82 6770   6.268   4.392   0.386
   17CHTO  C123 6771   6.229   4.510   0.458
   17CHTO  H227 6772   6.257   4.498   0.564
   17CHTO   O77 6773   6.310   4.615   0.396
   17CHTO  C118 6774   6.297   4.744   0.458
   17CHTO  H222 6775   6.322   4.738   0.565
   17CHTO  C125 6776   6.400   4.840   0.388
   17CHTO   O84 6777   6.535   4.796   0.410
   17CHTO  H205 6778   6.594   4.855   0.368
   17CHTO  C114 6779   6.153   4.795   0.441
   17CHTO  H218 6780   6.132   4.806   0.334
   17CHTO  C116 6781   6.050   4.691   0.497
   17CHTO  H220 6782   6.057   4.691   0.609
   17CHTO   O79 6783   5.917   4.737   0.466
   17CHTO  H201 6784   5.903   4.739   0.373
   17CHTO  C120 6785   6.077   4.546   0.442
   17CHTO  H224 6786   6.050   4.548   0.334
   17CHTO   N21 6787   5.988   4.444   0.506
   17CHTO  H211 6788   5.893   4.488   0.531
   17CHTO  H212 6789   6.035   4.403   0.594
   17CHTO   O75 6790   6.146   4.921   0.508
   17CHTO  C112 6791   6.104   5.050   0.413
   17CHTO  H216 6792   6.053   5.014   0.323
   17CHTO   O73 6793   6.225   5.120   0.382
   17CHTO  C113 6794   6.210   5.242   0.307
   17CHTO  H217 6795   6.161   5.218   0.210
   17CHTO  C124 6796   6.351   5.295   0.275
   17CHTO   O83 6797   6.429   5.324   0.391
   17CHTO  H204 6798   6.513   5.355   0.365
   17CHTO  C109 6799   6.124   5.344   0.385
   17CHTO  H213 6800   6.179   5.368   0.478
   17CHTO  C110 6801   5.986   5.280   0.420
   17CHTO  H214 6802   5.930   5.265   0.328
   17CHTO   O78 6803   5.912   5.375   0.500
   17CHTO  H200 6804   5.955   5.391   0.582
   17CHTO  C111 6805   6.006   5.145   0.494
   17CHTO  H215 6806   6.053   5.164   0.592
   17CHTO   N19 6807   5.877   5.076   0.522
   17CHTO  H207 6808   5.871   4.980   0.473
   17CHTO  H208 6809   5.864   5.062   0.629
   17CHTO   O74 6810   6.106   5.466   0.307
   17CHTO  C115 6811   6.149   5.596   0.387
   17CHTO  H219 6812   6.124   5.588   0.493
   17CHTO   O76 6813   6.306   5.618   0.383
   17CHTO  C122 6814   6.354   5.662   0.256
   17CHTO  H226 6815   6.335   5.583   0.184
   17CHTO  C126 6816   6.511   5.676   0.263
   17CHTO   O85 6817   6.555   5.767   0.365
   17CHTO  H206 6818   6.530   5.854   0.342
   17CHTO  C121 6819   6.286   5.797   0.209
   17CHTO  H225 6820   6.362   5.877   0.207
   17CHTO   O81 6821   6.239   5.782   0.074
   17CHTO  H202 6822   6.212   5.865   0.040
   17CHTO  C119 6823   6.170   5.840   0.304
   17CHTO  H223 6824   6.218   5.859   0.401
   17CHTO  C117 6825   6.070   5.720   0.324
   17CHTO  H221 6826   6.025   5.682   0.233
   17CHTO   N20 6827   5.954   5.759   0.412
   17CHTO  H209 6828   5.902   5.842   0.368
   17CHTO  H210 6829   5.887   5.675   0.423
   17CHTO   O80 6830   6.111   5.982   0.270
   17CHTO  C103 6831   6.166   6.110   0.345
   17CHTO  H190 6832   6.176   6.090   0.451
   17CHTO  C101 6833   6.302   6.169   0.291
   17CHTO  H188 6834   6.298   6.171   0.182
   17CHTO   O68 6835   6.418   6.075   0.335
   17CHTO  H168 6836   6.407   5.991   0.295
   17CHTO   C99 6837   6.329   6.317   0.345
   17CHTO  H186 6838   6.350   6.311   0.454
   17CHTO   N17 6839   6.448   6.385   0.282
   17CHTO  H174 6840   6.486   6.326   0.200
   17CHTO  H175 6841   6.524   6.403   0.356
   17CHTO   C97 6842   6.201   6.405   0.333
   17CHTO  H184 6843   6.184   6.429   0.227
   17CHTO   O64 6844   6.088   6.339   0.393
   17CHTO  C104 6845   6.051   6.217   0.328
   17CHTO  H191 6846   6.033   6.233   0.222
   17CHTO  C108 6847   5.917   6.168   0.387
   17CHTO   O71 6848   5.923   6.150   0.529
   17CHTO  H171 6849   5.840   6.121   0.560
   17CHTO   O62 6850   6.216   6.527   0.409
   17CHTO   C91 6851   6.115   6.628   0.392
   17CHTO  H178 6852   6.045   6.595   0.315
   17CHTO   C92 6853   6.184   6.757   0.337
   17CHTO  H179 6854   6.252   6.729   0.254
   17CHTO   O66 6855   6.084   6.840   0.276
   17CHTO  H166 6856   6.124   6.913   0.232
   17CHTO   C93 6857   6.259   6.841   0.446
   17CHTO  H180 6858   6.284   6.937   0.399
   17CHTO   N16 6859   6.391   6.785   0.486
   17CHTO  H172 6860   6.392   6.758   0.591
   17CHTO  H173 6861   6.470   6.855   0.465
   17CHTO   C94 6862   6.165   6.868   0.569
   17CHTO  H181 6863   6.221   6.900   0.657
   17CHTO   O61 6864   6.089   6.754   0.615
   17CHTO   C95 6865   6.034   6.655   0.526
   17CHTO  H182 6866   6.033   6.560   0.579
   17CHTO  C106 6867   5.880   6.683   0.499
   17CHTO   O69 6868   5.853   6.814   0.451
   17CHTO  H169 6869   5.873   6.877   0.517
   17CHTO   O63 6870   6.068   6.982   0.526
   17CHTO   C96 6871   6.060   7.102   0.626
   17CHTO  H183 6872   6.076   7.065   0.727
   17CHTO   C98 6873   5.922   7.173   0.623
   17CHTO  H185 6874   5.900   7.207   0.521
   17CHTO   O67 6875   5.821   7.075   0.654
   17CHTO  H167 6876   5.735   7.113   0.648
   17CHTO  C102 6877   5.916   7.295   0.726
   17CHTO  H189 6878   5.903   7.249   0.826
   17CHTO   N18 6879   5.799   7.385   0.709
   17CHTO  H176 6880   5.708   7.329   0.721
   17CHTO  H177 6881   5.802   7.464   0.783
   17CHTO  C105 6882   6.052   7.372   0.727
   17CHTO  H192 6883   6.034   7.480   0.725
   17CHTO   O65 6884   6.138   7.344   0.615
   17CHTO  C100 6885   6.174   7.207   0.591
   17CHTO  H187 6886   6.194   7.199   0.483
   17CHTO  C107 6887   6.307   7.174   0.663
   17CHTO   O70 6888   6.416   7.252   0.613
   17CHTO  H170 6889   6.495   7.229   0.658
   17CHTO   O57 6890   6.118   7.334   0.869
   17CHTO   C85 6891   6.153   7.441   0.959
   17CHTO  H157 6892   6.075   7.519   0.946
   17CHTO   C83 6893   6.287   7.507   0.914
   17CHTO  H155 6894   6.273   7.547   0.813
   17CHTO   O56 6895   6.390   7.406   0.905
   17CHTO  H135 6896   6.369   7.344   0.837
   17CHTO   C81 6897   6.321   7.624   1.010
   17CHTO  H153 6898   6.238   7.695   1.007
   17CHTO   N14 6899   6.439   7.703   0.967
   17CHTO  H141 6900   6.452   7.787   1.032
   17CHTO  H142 6901   6.425   7.738   0.867
   17CHTO   C79 6902   6.334   7.570   1.158
   17CHTO  H151 6903   6.346   7.658   1.223
   17CHTO   O52 6904   6.210   7.505   1.199
   17CHTO   C86 6905   6.167   7.397   1.110
   17CHTO  H158 6906   6.244   7.318   1.122
   17CHTO   C90 6907   6.035   7.335   1.161
   17CHTO   O60 6908   6.053   7.273   1.289
   17CHTO  H138 6909   5.972   7.236   1.318
   17CHTO   O50 6910   6.446   7.482   1.179
   17CHTO   C73 6911   6.553   7.460   1.272
   17CHTO  H145 6912   6.584   7.555   1.318
   17CHTO   C74 6913   6.675   7.399   1.197
   17CHTO  H146 6914   6.703   7.469   1.116
   17CHTO   O54 6915   6.788   7.394   1.286
   17CHTO  H133 6916   6.816   7.481   1.309
   17CHTO   C75 6917   6.636   7.257   1.139
   17CHTO  H147 6918   6.551   7.270   1.070
   17CHTO   N13 6919   6.742   7.190   1.061
   17CHTO  H139 6920   6.708   7.171   0.960
   17CHTO  H140 6921   6.831   7.251   1.056
   17CHTO   C76 6922   6.582   7.165   1.259
   17CHTO  H148 6923   6.665   7.148   1.328
   17CHTO   O49 6924   6.474   7.233   1.331
   17CHTO   C77 6925   6.509   7.362   1.385
   17CHTO  H149 6926   6.591   7.350   1.456
   17CHTO   C88 6927   6.388   7.411   1.467
   17CHTO   O58 6928   6.412   7.542   1.531
   17CHTO  H136 6929   6.420   7.609   1.466
   17CHTO   O51 6930   6.521   7.022   1.198
   17CHTO   C78 6931   6.382   6.973   1.256
   17CHTO  H150 6932   6.323   7.057   1.298
   17CHTO   C80 6933   6.403   6.867   1.366
   17CHTO  H152 6934   6.468   6.786   1.325
   17CHTO   O55 6935   6.473   6.932   1.473
   17CHTO  H134 6936   6.495   6.869   1.540
   17CHTO   C84 6937   6.265   6.806   1.414
   17CHTO  H156 6938   6.210   6.884   1.466
   17CHTO   N15 6939   6.283   6.693   1.511
   17CHTO  H143 6940   6.333   6.729   1.599
   17CHTO  H144 6941   6.341   6.615   1.467
   17CHTO   C87 6942   6.180   6.763   1.291
   17CHTO  H159 6943   6.225   6.676   1.242
   17CHTO   O53 6944   6.171   6.878   1.195
   17CHTO   C82 6945   6.299   6.915   1.142
   17CHTO  H154 6946   6.348   6.828   1.097
   17CHTO   C89 6947   6.278   7.018   1.029
   17CHTO   O59 6948   6.203   6.960   0.921
   17CHTO  H137 6949   6.115   6.944   0.948
   17CHTO   O45 6950   6.025   6.726   1.337
   17CHTO   C67 6951   5.938   6.659   1.243
   17CHTO  H124 6952   5.849   6.631   1.299
   17CHTO   C65 6953   5.893   6.749   1.122
   17CHTO  H122 6954   5.978   6.811   1.094
   17CHTO   O44 6955   5.789   6.834   1.172
   17CHTO  H102 6956   5.824   6.893   1.237
   17CHTO   C63 6957   5.862   6.667   0.990
   17CHTO  H120 6958   5.957   6.644   0.941
   17CHTO   N11 6959   5.790   6.740   0.881
   17CHTO  H108 6960   5.787   6.680   0.792
   17CHTO  H109 6961   5.839   6.833   0.860
   17CHTO   C61 6962   5.800   6.528   1.030
   17CHTO  H118 6963   5.785   6.472   0.937
   17CHTO   O40 6964   5.893   6.450   1.112
   17CHTO   C68 6965   5.996   6.523   1.187
   17CHTO  H125 6966   6.081   6.544   1.119
   17CHTO   C72 6967   6.049   6.430   1.298
   17CHTO   O48 6968   6.126   6.323   1.243
   17CHTO  H105 6969   6.157   6.268   1.313
   17CHTO   O38 6970   5.673   6.546   1.097
   17CHTO   C55 6971   5.608   6.437   1.165
   17CHTO  H112 6972   5.673   6.403   1.247
   17CHTO   C56 6973   5.571   6.318   1.066
   17CHTO  H113 6974   5.529   6.365   0.976
   17CHTO   O42 6975   5.690   6.248   1.024
   17CHTO  H100 6976   5.745   6.305   0.974
   17CHTO   C57 6977   5.467   6.217   1.129
   17CHTO  H114 6978   5.519   6.161   1.207
   17CHTO   N10 6979   5.414   6.119   1.031
   17CHTO  H106 6980   5.411   6.162   0.932
   17CHTO  H107 6981   5.478   6.031   1.029
   17CHTO   C58 6982   5.350   6.296   1.195
   17CHTO  H115 6983   5.293   6.350   1.116
   17CHTO   O37 6984   5.402   6.389   1.291
   17CHTO   C59 6985   5.480   6.494   1.232
   17CHTO  H116 6986   5.419   6.549   1.160
   17CHTO   C70 6987   5.519   6.592   1.343
   17CHTO   O46 6988   5.407   6.658   1.402
   17CHTO  H103 6989   5.436   6.716   1.470
   17CHTO   O39 6990   5.252   6.199   1.278
   17CHTO   C60 6991   5.117   6.247   1.292
   17CHTO  H117 6992   5.115   6.356   1.280
   17CHTO   C62 6993   5.024   6.184   1.184
   17CHTO  H119 6994   5.065   6.216   1.085
   17CHTO   O43 6995   5.032   6.041   1.192
   17CHTO  H101 6996   4.980   6.002   1.124
   17CHTO   C66 6997   4.874   6.242   1.202
   17CHTO  H123 6998   4.877   6.350   1.193
   17CHTO   N12 6999   4.783   6.194   1.094
   17CHTO  H110 7000   4.740   6.278   1.041
   17CHTO  H111 7001   4.706   6.129   1.134
   17CHTO   C69 7002   4.822   6.210   1.344
   17CHTO  H126 7003   4.815   6.099   1.358
   17CHTO   O41 7004   4.921   6.269   1.450
   17CHTO   C64 7005   5.064   6.216   1.434
   17CHTO  H121 7006   5.065   6.106   1.450
   17CHTO   C71 7007   5.154   6.280   1.542
   17CHTO   O47 7008   5.112   6.243   1.674
   17CHTO  H104 7009   5.030   6.284   1.694
   17CHTO   O34 7010   4.679   6.271   1.369
   17CHTO   C49 7011   4.605   6.402   1.402
   17CHTO   H91 7012   4.669   6.484   1.370
   17CHTO   C47 7013   4.583   6.407   1.555
   17CHTO   H89 7014   4.535   6.507   1.573
   17CHTO   O33 7015   4.708   6.404   1.625
   17CHTO   H70 7016   4.758   6.480   1.606
   17CHTO   C45 7017   4.485   6.287   1.603
   17CHTO   H87 7018   4.548   6.200   1.628
   17CHTO    N8 7019   4.414   6.329   1.726
   17CHTO   H75 7020   4.485   6.357   1.803
   17CHTO   H76 7021   4.348   6.411   1.705
   17CHTO   C43 7022   4.392   6.237   1.481
   17CHTO   H85 7023   4.455   6.167   1.425
   17CHTO   O29 7024   4.354   6.350   1.400
   17CHTO   C50 7025   4.465   6.412   1.332
   17CHTO   H92 7026   4.475   6.366   1.233
   17CHTO   C54 7027   4.429   6.560   1.301
   17CHTO   O36 7028   4.318   6.569   1.212
   17CHTO   H72 7029   4.299   6.659   1.195
   17CHTO   O27 7030   4.279   6.158   1.521
   17CHTO   C37 7031   4.212   6.047   1.458
   17CHTO   H79 7032   4.123   6.019   1.517
   17CHTO   C38 7033   4.162   6.085   1.315
   17CHTO   H80 7034   4.244   6.134   1.261
   17CHTO   O31 7035   4.054   6.179   1.330
   17CHTO   H68 7036   4.087   6.261   1.363
   17CHTO   C39 7037   4.114   5.959   1.232
   17CHTO   H81 7038   4.022   5.923   1.278
   17CHTO    N7 7039   4.084   5.990   1.088
   17CHTO   H73 7040   4.004   6.062   1.083
   17CHTO   H74 7041   4.172   6.029   1.040
   17CHTO   C40 7042   4.220   5.843   1.244
   17CHTO   H82 7043   4.313   5.872   1.194
   17CHTO   O26 7044   4.242   5.815   1.383
   17CHTO   C41 7045   4.308   5.925   1.452
   17CHTO   H83 7046   4.400   5.952   1.399
   17CHTO   C52 7047   4.348   5.875   1.593
   17CHTO   O35 7048   4.444   5.762   1.588
   17CHTO   H71 7049   4.403   5.687   1.551
   17CHTO   O28 7050   4.177   5.716   1.191
   17CHTO   C42 7051   4.276   5.618   1.145
   17CHTO   H84 7052   4.219   5.525   1.137
   17CHTO   C44 7053   4.395   5.586   1.244
   17CHTO   H86 7054   4.445   5.680   1.268
   17CHTO   O32 7055   4.337   5.535   1.365
   17CHTO   H69 7056   4.296   5.452   1.349
   17CHTO   C48 7057   4.504   5.489   1.182
   17CHTO   H90 7058   4.459   5.391   1.169
   17CHTO    N9 7059   4.621   5.469   1.274
   17CHTO   H77 7060   4.693   5.402   1.229
   17CHTO   H78 7061   4.587   5.428   1.369
   17CHTO   C51 7062   4.547   5.544   1.041
   17CHTO   H93 7063   4.588   5.644   1.055
   17CHTO   O30 7064   4.430   5.545   0.958
   17CHTO   C46 7065   4.330   5.651   1.002
   17CHTO   H88 7066   4.380   5.748   1.004
   17CHTO   C53 7067   4.215   5.654   0.899
   17CHTO   O72 7068   4.263   5.694   0.771
   17CHTO  H199 7069   4.192   5.697   0.709
   17CHTO   O22 7070   4.642   5.460   0.972
   17CHTO   C31 7071   4.730   5.516   0.866
   17CHTO   H59 7072   4.787   5.429   0.827
   17CHTO   C29 7073   4.654   5.578   0.746
   17CHTO   H57 7074   4.587   5.655   0.787
   17CHTO   O21 7075   4.570   5.476   0.689
   17CHTO   H37 7076   4.622   5.410   0.647
   17CHTO   C27 7077   4.751   5.645   0.641
   17CHTO   H55 7078   4.813   5.566   0.595
   17CHTO    N5 7079   4.679   5.717   0.532
   17CHTO   H43 7080   4.698   5.670   0.437
   17CHTO   H44 7081   4.572   5.720   0.551
   17CHTO   C25 7082   4.848   5.742   0.717
   17CHTO   H53 7083   4.789   5.821   0.766
   17CHTO   O17 7084   4.920   5.667   0.818
   17CHTO   C32 7085   4.837   5.615   0.923
   17CHTO   H60 7086   4.785   5.698   0.971
   17CHTO   C36 7087   4.928   5.546   1.027
   17CHTO   O25 7088   5.016   5.640   1.089
   17CHTO   H40 7089   5.071   5.595   1.151
   17CHTO   O15 7090   4.955   5.811   0.621
   17CHTO   C19 7091   5.006   5.948   0.624
   17CHTO   H47 7092   5.086   5.948   0.549
   17CHTO   C20 7093   4.901   6.056   0.584
   17CHTO   H48 7094   4.815   6.057   0.653
   17CHTO   O19 7095   4.852   6.022   0.453
   17CHTO   H35 7096   4.920   6.026   0.389
   17CHTO   C21 7097   4.965   6.201   0.583
   17CHTO   H49 7098   5.036   6.207   0.500
   17CHTO    N4 7099   4.865   6.309   0.561
   17CHTO   H41 7100   4.914   6.405   0.558
   17CHTO   H42 7101   4.792   6.308   0.641
   17CHTO   C22 7102   5.048   6.225   0.713
   17CHTO   H50 7103   4.979   6.237   0.796
   17CHTO   O14 7104   5.138   6.116   0.742
   17CHTO   C23 7105   5.071   5.989   0.758
   17CHTO   H51 7106   4.997   6.001   0.839
   17CHTO   C34 7107   5.173   5.885   0.806
   17CHTO   O23 7108   5.195   5.892   0.947
   17CHTO   H38 7109   5.239   5.972   0.969
   17CHTO   O16 7110   5.131   6.341   0.695
   17CHTO   C24 7111   5.190   6.413   0.825
   17CHTO   H52 7112   5.228   6.342   0.897
   17CHTO   C26 7113   5.083   6.503   0.891
   17CHTO   H54 7114   5.037   6.567   0.812
   17CHTO   O20 7115   4.980   6.419   0.945
   17CHTO   H36 7116   4.910   6.471   0.978
   17CHTO   C30 7117   5.146   6.596   1.000
   17CHTO   H58 7118   5.187   6.536   1.082
   17CHTO    N6 7119   5.044   6.685   1.062
   17CHTO   H45 7120   5.090   6.745   1.139
   17CHTO   H46 7121   5.001   6.750   0.987
   17CHTO   C33 7122   5.265   6.673   0.935
   17CHTO   H61 7123   5.227   6.731   0.849
   17CHTO   O18 7124   5.360   6.577   0.888
   17CHTO   C28 7125   5.311   6.499   0.778
   17CHTO   H56 7126   5.279   6.564   0.696
   17CHTO   C35 7127   5.424   6.407   0.724
   17CHTO   O24 7128   5.541   6.479   0.684
   17CHTO   H39 7129   5.582   6.517   0.759
   17CHTO    O9 7130   5.326   6.770   1.023
   17CHTO   C13 7131   5.402   6.890   0.944
   17CHTO   H26 7132   5.460   6.845   0.860
   17CHTO   C11 7133   5.495   6.968   1.045
   17CHTO   H24 7134   5.573   6.897   1.078
   17CHTO    O8 7135   5.421   7.007   1.163
   17CHTO    H3 7136   5.479   7.045   1.226
   17CHTO    C9 7137   5.563   7.084   0.969
   17CHTO   H22 7138   5.616   7.038   0.884
   17CHTO    N2 7139   5.670   7.152   1.047
   17CHTO   H10 7140   5.627   7.204   1.131
   17CHTO   H11 7141   5.724   7.221   0.984
   17CHTO    C7 7142   5.454   7.182   0.912
   17CHTO   H20 7143   5.511   7.252   0.848
   17CHTO    O4 7144   5.359   7.113   0.828
   17CHTO   C14 7145   5.299   6.990   0.874
   17CHTO   H27 7146   5.261   6.940   0.782
   17CHTO   C18 7147   5.174   7.021   0.962
   17CHTO   O13 7148   5.068   7.079   0.886
   17CHTO    H7 7149   5.033   7.015   0.827
   17CHTO    O2 7150   5.374   7.260   1.029
   17CHTO    C1 7151   5.342   7.400   1.011
   17CHTO   H14 7152   5.276   7.410   0.922
   17CHTO    C2 7153   5.469   7.495   0.991
   17CHTO   H15 7154   5.548   7.450   1.054
   17CHTO    O6 7155   5.512   7.491   0.854
   17CHTO    H1 7156   5.444   7.523   0.797
   17CHTO    C3 7157   5.445   7.648   1.035
   17CHTO   H16 7158   5.390   7.700   0.954
   17CHTO    N1 7159   5.576   7.720   1.052
   17CHTO    H8 7160   5.633   7.674   1.131
   17CHTO    H9 7161   5.558   7.824   1.076
   17CHTO    C4 7162   5.353   7.658   1.162
   17CHTO   H17 7163   5.407   7.619   1.248
   17CHTO    O1 7164   5.233   7.582   1.138
   17CHTO    C5 7165   5.258   7.441   1.135
   17CHTO   H18 7166   5.315   7.412   1.223
   17CHTO   C16 7167   5.121   7.368   1.138
   17CHTO   O11 7168   5.055   7.389   1.263
   17CHTO    H5 7169   4.972   7.346   1.262
   17CHTO    O3 7170   5.307   7.793   1.188
   17CHTO    C6 7171   5.280   7.833   1.328
   17CHTO   H19 7172   5.226   7.927   1.330
   17CHTO    C8 7173   5.190   7.731   1.406
   17CHTO   H21 7174   5.231   7.631   1.393
   17CHTO    O7 7175   5.058   7.736   1.347
   17CHTO    H2 7176   5.020   7.820   1.361
   17CHTO   C12 7177   5.187   7.761   1.562
   17CHTO   H25 7178   5.131   7.856   1.575
   17CHTO    N3 7179   5.110   7.654   1.636
   17CHTO   H12 7180   5.174   7.604   1.708
   17CHTO   H13 7181   5.024   7.697   1.685
   17CHTO   C15 7182   5.333   7.781   1.614
   17CHTO   H28 7183   5.392   7.690   1.605
   17CHTO   O10 7184   5.340   7.832   1.757
   17CHTO    H4 7185   5.429   7.833   1.787
   17CHTO    O5 7186   5.396   7.888   1.541
   17CHTO   C10 7187   5.416   7.858   1.402
   17CHTO   H23 7188   5.479   7.769   1.396
   17CHTO   C17 7189   5.495   7.974   1.341
   17CHTO   O12 7190   5.428   8.100   1.353
   17CHTO    H6 7191   5.479   8.167   1.313
   18CHTO  H203 7192   6.678   7.529   1.957
   18CHTO   O82 7193   6.691   7.621   1.945
   18CHTO  C123 7194   6.663   7.657   1.810
   18CHTO  H227 7195   6.559   7.630   1.786
   18CHTO   O77 7196   6.678   7.803   1.811
   18CHTO  C118 7197   6.645   7.866   1.686
   18CHTO  H222 7198   6.542   7.840   1.657
   18CHTO  C125 7199   6.653   8.022   1.707
   18CHTO   O84 7200   6.551   8.068   1.796
   18CHTO  H205 7201   6.467   8.059   1.755
   18CHTO  C114 7202   6.744   7.820   1.578
   18CHTO  H218 7203   6.844   7.851   1.606
   18CHTO  C116 7204   6.743   7.664   1.565
   18CHTO  H220 7205   6.646   7.632   1.521
   18CHTO   O79 7206   6.844   7.625   1.470
   18CHTO  H201 7207   6.841   7.533   1.455
   18CHTO  C120 7208   6.764   7.595   1.706
   18CHTO  H224 7209   6.868   7.616   1.737
   18CHTO   N21 7210   6.751   7.447   1.697
   18CHTO  H211 7211   6.715   7.406   1.790
   18CHTO  H212 7212   6.846   7.403   1.670
   18CHTO   O75 7213   6.701   7.886   1.458
   18CHTO  C112 7214   6.821   7.944   1.364
   18CHTO  H216 7215   6.914   7.889   1.385
   18CHTO   O73 7216   6.834   8.084   1.395
   18CHTO  C113 7217   6.930   8.154   1.314
   18CHTO  H217 7218   7.028   8.103   1.323
   18CHTO  C124 7219   6.949   8.296   1.369
   18CHTO   O83 7220   7.003   8.296   1.502
   18CHTO  H204 7221   7.013   8.385   1.531
   18CHTO  C109 7222   6.886   8.155   1.165
   18CHTO  H213 7223   6.790   8.207   1.160
   18CHTO  C110 7224   6.870   8.007   1.117
   18CHTO  H214 7225   6.970   7.962   1.111
   18CHTO   O78 7226   6.815   8.006   0.984
   18CHTO  H200 7227   6.815   7.919   0.949
   18CHTO  C111 7228   6.779   7.924   1.213
   18CHTO  H215 7229   6.676   7.961   1.203
   18CHTO   N19 7230   6.776   7.779   1.180
   18CHTO  H207 7231   6.709   7.727   1.246
   18CHTO  H208 7232   6.875   7.737   1.188
   18CHTO   O74 7233   6.984   8.230   1.086
   18CHTO  C115 7234   6.929   8.284   0.938
   18CHTO  H219 7235   6.880   8.204   0.882
   18CHTO   O76 7236   6.821   8.395   0.954
   18CHTO  C122 7237   6.758   8.436   0.832
   18CHTO  H226 7238   6.703   8.527   0.854
   18CHTO  C126 7239   6.649   8.329   0.794
   18CHTO   O85 7240   6.577   8.360   0.674
   18CHTO  H206 7241   6.514   8.293   0.657
   18CHTO  C121 7242   6.861   8.465   0.713
   18CHTO  H225 7243   6.805   8.460   0.617
   18CHTO   O81 7244   6.907   8.600   0.726
   18CHTO  H202 7245   6.954   8.626   0.649
   18CHTO  C119 7246   6.981   8.366   0.706
   18CHTO  H223 7247   6.938   8.271   0.672
   18CHTO  C117 7248   7.043   8.340   0.848
   18CHTO  H221 7249   7.083   8.427   0.900
   18CHTO   N20 7250   7.157   8.243   0.841
   18CHTO  H209 7251   7.197   8.225   0.940
   18CHTO  H210 7252   7.235   8.282   0.777
   18CHTO   O80 7253   7.086   8.400   0.583
   18CHTO  C103 7254   7.090   8.304   0.450
   18CHTO  H190 7255   7.167   8.340   0.382
   18CHTO  C101 7256   7.115   8.150   0.473
   18CHTO  H188 7257   7.044   8.114   0.548
   18CHTO   O68 7258   7.257   8.130   0.528
   18CHTO  H168 7259   7.321   8.156   0.464
   18CHTO   C99 7260   7.089   8.069   0.337
   18CHTO  H186 7261   7.160   8.105   0.259
   18CHTO   N17 7262   7.109   7.921   0.350
   18CHTO  H174 7263   7.039   7.880   0.422
   18CHTO  H175 7264   7.211   7.899   0.378
   18CHTO   C97 7265   6.947   8.104   0.285
   18CHTO  H184 7266   6.875   8.072   0.362
   18CHTO   O64 7267   6.939   8.246   0.261
   18CHTO  C104 7268   6.951   8.327   0.378
   18CHTO  H191 7269   6.870   8.305   0.448
   18CHTO  C108 7270   6.933   8.474   0.338
   18CHTO   O71 7271   7.030   8.518   0.242
   18CHTO  H171 7272   7.015   8.475   0.160
   18CHTO   O62 7273   6.912   8.045   0.158
   18CHTO   C91 7274   6.770   8.026   0.139
   18CHTO  H178 7275   6.716   8.074   0.221
   18CHTO   C92 7276   6.732   7.875   0.145
   18CHTO  H179 7277   6.786   7.821   0.066
   18CHTO   O66 7278   6.779   7.819   0.269
   18CHTO  H166 7279   6.873   7.817   0.271
   18CHTO   C93 7280   6.576   7.852   0.133
   18CHTO  H180 7281   6.532   7.877   0.231
   18CHTO   N16 7282   6.540   7.710   0.108
   18CHTO  H172 7283   6.578   7.648   0.187
   18CHTO  H173 7284   6.433   7.700   0.101
   18CHTO   C94 7285   6.509   7.945   0.023
   18CHTO  H181 7286   6.519   7.904   2.764
   18CHTO   O61 7287   6.567   8.077   0.016
   18CHTO   C95 7288   6.710   8.081   0.005
   18CHTO  H182 7289   6.741   8.018   2.763
   18CHTO  C106 7290   6.756   8.228   2.817
   18CHTO   O69 7291   6.704   8.273   2.691
   18CHTO  H169 7292   6.612   8.286   2.698
   18CHTO   O63 7293   6.345   7.958   0.061
   18CHTO   C96 7294   6.288   8.106   0.087
   18CHTO  H183 7295   6.360   8.179   0.052
   18CHTO   C98 7296   6.255   8.141   0.234
   18CHTO  H185 7297   6.182   8.069   0.275
   18CHTO   O67 7298   6.375   8.122   0.311
   18CHTO  H167 7299   6.357   8.135   0.402
   18CHTO  C102 7300   6.199   8.292   0.247
   18CHTO  H189 7301   6.285   8.357   0.224
   18CHTO   N18 7302   6.155   8.330   0.384
   18CHTO  H176 7303   6.050   8.355   0.386
   18CHTO  H177 7304   6.212   8.414   0.420
   18CHTO  C105 7305   6.091   8.320   0.139
   18CHTO  H192 7306   5.994   8.281   0.173
   18CHTO   O65 7307   6.118   8.265   0.009
   18CHTO  C100 7308   6.157   8.127   0.003
   18CHTO  H187 7309   6.076   8.066   0.046
   18CHTO  C107 7310   6.175   8.086   2.697
   18CHTO   O70 7311   6.277   8.162   2.632
   18CHTO  H170 7312   6.288   8.132   2.544
   18CHTO   O57 7313   6.086   8.487   0.125
   18CHTO   C85 7314   5.971   8.562   0.083
   18CHTO  H157 7315   6.012   8.661   0.058
   18CHTO   C83 7316   5.878   8.587   0.206
   18CHTO  H155 7317   5.935   8.646   0.278
   18CHTO   O56 7318   5.847   8.462   0.272
   18CHTO  H135 7319   5.800   8.479   0.351
   18CHTO   C81 7320   5.754   8.668   0.161
   18CHTO  H153 7321   5.789   8.758   0.111
   18CHTO   N14 7322   5.676   8.718   0.277
   18CHTO  H141 7323   5.573   8.688   0.269
   18CHTO  H142 7324   5.681   8.824   0.283
   18CHTO   C79 7325   5.671   8.584   0.057
   18CHTO  H151 7326   5.589   8.648   0.023
   18CHTO   O52 7327   5.753   8.555   2.781
   18CHTO   C86 7328   5.888   8.501   2.803
   18CHTO  H158 7329   5.871   8.392   2.815
   18CHTO   C90 7330   5.962   8.519   2.667
   18CHTO   O60 7331   6.099   8.477   2.669
   18CHTO  H138 7332   6.148   8.533   2.726
   18CHTO   O50 7333   5.614   8.463   0.109
   18CHTO   C73 7334   5.513   8.362   0.097
   18CHTO  H145 7335   5.522   8.309   0.001
   18CHTO   C74 7336   5.370   8.424   0.106
   18CHTO  H146 7337   5.359   8.492   0.020
   18CHTO   O54 7338   5.272   8.319   0.086
   18CHTO  H133 7339   5.277   8.257   0.155
   18CHTO   C75 7340   5.355   8.500   0.244
   18CHTO  H147 7341   5.424   8.586   0.242
   18CHTO   N13 7342   5.222   8.561   0.267
   18CHTO  H139 7343   5.221   8.612   0.362
   18CHTO  H140 7344   5.200   8.633   0.190
   18CHTO   C76 7345   5.400   8.406   0.366
   18CHTO  H148 7346   5.318   8.339   0.392
   18CHTO   O49 7347   5.521   8.327   0.340
   18CHTO   C77 7348   5.530   8.261   0.213
   18CHTO  H149 7349   5.453   8.184   0.206
   18CHTO   C88 7350   5.664   8.186   0.207
   18CHTO   O58 7351   5.677   8.106   0.082
   18CHTO  H136 7352   5.681   8.162   0.008
   18CHTO   O51 7353   5.444   8.501   0.485
   18CHTO   C78 7354   5.447   8.435   0.625
   18CHTO  H150 7355   5.426   8.325   0.620
   18CHTO   C80 7356   5.340   8.502   0.714
   18CHTO  H152 7357   5.351   8.613   0.703
   18CHTO   O55 7358   5.212   8.465   0.661
   18CHTO  H134 7359   5.143   8.512   0.706
   18CHTO   C84 7360   5.355   8.464   0.867
   18CHTO  H156 7361   5.330   8.359   0.877
   18CHTO   N15 7362   5.260   8.540   0.955
   18CHTO  H143 7363   5.279   8.645   0.948
   18CHTO  H144 7364   5.272   8.509   1.057
   18CHTO   C87 7365   5.502   8.485   0.909
   18CHTO  H159 7366   5.528   8.591   0.901
   18CHTO   O53 7367   5.590   8.402   0.819
   18CHTO   C82 7368   5.588   8.452   0.684
   18CHTO  H154 7369   5.619   8.557   0.682
   18CHTO   C89 7370   5.693   8.373   0.603
   18CHTO   O59 7371   5.825   8.393   0.654
   18CHTO  H137 7372   5.887   8.342   0.604
   18CHTO   O45 7373   5.532   8.435   1.060
   18CHTO   C67 7374   5.666   8.468   1.102
   18CHTO  H124 7375   5.732   8.465   1.016
   18CHTO   C65 7376   5.672   8.612   1.165
   18CHTO  H122 7377   5.573   8.630   1.209
   18CHTO   O44 7378   5.691   8.703   1.055
   18CHTO  H102 7379   5.779   8.698   1.024
   18CHTO   C63 7380   5.772   8.622   1.287
   18CHTO  H120 7381   5.724   8.580   1.375
   18CHTO   N11 7382   5.805   8.760   1.335
   18CHTO  H108 7383   5.863   8.812   1.261
   18CHTO  H109 7384   5.715   8.815   1.354
   18CHTO   C61 7385   5.898   8.532   1.260
   18CHTO  H118 7386   5.959   8.534   1.351
   18CHTO   O40 7387   5.862   8.392   1.237
   18CHTO   C68 7388   5.723   8.361   1.202
   18CHTO  H125 7389   5.663   8.361   1.295
   18CHTO   C72 7390   5.717   8.217   1.144
   18CHTO   O48 7391   5.788   8.201   1.021
   18CHTO  H105 7392   5.747   8.250   0.953
   18CHTO   O38 7393   5.975   8.577   1.147
   18CHTO   C55 7394   6.112   8.532   1.147
   18CHTO  H112 7395   6.123   8.443   1.212
   18CHTO   C56 7396   6.209   8.649   1.191
   18CHTO  H113 7397   6.201   8.729   1.116
   18CHTO   O42 7398   6.167   8.705   1.316
   18CHTO  H100 7399   6.083   8.747   1.307
   18CHTO   C57 7400   6.356   8.595   1.201
   18CHTO  H114 7401   6.358   8.535   1.292
   18CHTO   N10 7402   6.459   8.700   1.221
   18CHTO  H106 7403   6.418   8.783   1.277
   18CHTO  H107 7404   6.544   8.660   1.275
   18CHTO   C58 7405   6.396   8.503   1.081
   18CHTO  H115 7406   6.447   8.564   1.002
   18CHTO   O37 7407   6.289   8.430   1.017
   18CHTO   C59 7408   6.158   8.487   1.006
   18CHTO  H116 7409   6.161   8.571   0.937
   18CHTO   C70 7410   6.064   8.380   0.949
   18CHTO   O46 7411   6.100   8.341   0.816
   18CHTO  H103 7412   6.181   8.294   0.817
   18CHTO   O39 7413   6.502   8.383   1.139
   18CHTO   C60 7414   6.435   8.281   1.216
   18CHTO  H117 7415   6.345   8.323   1.261
   18CHTO   C62 7416   6.390   8.160   1.129
   18CHTO  H119 7417   6.330   8.201   1.045
   18CHTO   O43 7418   6.502   8.092   1.071
   18CHTO  H101 7419   6.547   8.149   1.011
   18CHTO   C66 7420   6.295   8.067   1.219
   18CHTO  H123 7421   6.219   8.130   1.266
   18CHTO   N12 7422   6.220   7.968   1.138
   18CHTO  H110 7423   6.155   7.910   1.201
   18CHTO  H111 7424   6.289   7.905   1.084
   18CHTO   C69 7425   6.379   8.003   1.332
   18CHTO  H126 7426   6.455   7.934   1.289
   18CHTO   O41 7427   6.453   8.118   1.417
   18CHTO   C64 7428   6.524   8.232   1.334
   18CHTO  H121 7429   6.619   8.194   1.293
   18CHTO   C71 7430   6.556   8.350   1.428
   18CHTO   O47 7431   6.646   8.312   1.532
   18CHTO  H104 7432   6.731   8.295   1.496
   18CHTO   O34 7433   6.286   7.918   1.430
   18CHTO   C49 7434   6.203   7.947   1.557
   18CHTO   H91 7435   6.269   7.928   1.641
   18CHTO   C47 7436   6.084   7.847   1.561
   18CHTO   H89 7437   6.037   7.860   1.661
   18CHTO   O33 7438   6.136   7.713   1.552
   18CHTO   H70 7439   6.173   7.698   1.467
   18CHTO   C45 7440   5.978   7.885   1.446
   18CHTO   H87 7441   6.031   7.886   1.350
   18CHTO    N8 7442   5.867   7.788   1.436
   18CHTO   H75 7443   5.807   7.790   1.527
   18CHTO   H76 7444   5.804   7.811   1.351
   18CHTO   C43 7445   5.927   8.036   1.469
   18CHTO   H85 7446   5.863   8.060   1.384
   18CHTO   O29 7447   6.040   8.126   1.476
   18CHTO   C50 7448   6.151   8.094   1.562
   18CHTO   H92 7449   6.234   8.159   1.531
   18CHTO   C54 7450   6.123   8.143   1.707
   18CHTO   O36 7451   6.241   8.136   1.788
   18CHTO   H72 7452   6.220   8.164   1.876
   18CHTO   O27 7453   5.844   8.050   1.586
   18CHTO   C37 7454   5.767   8.139   1.667
   18CHTO   H79 7455   5.831   8.188   1.742
   18CHTO   C38 7456   5.702   8.252   1.581
   18CHTO   H80 7457   5.652   8.206   1.495
   18CHTO   O31 7458   5.808   8.337   1.533
   18CHTO   H68 7459   5.860   8.291   1.470
   18CHTO   C39 7460   5.597   8.338   1.663
   18CHTO   H81 7461   5.652   8.400   1.732
   18CHTO    N7 7462   5.517   8.432   1.575
   18CHTO   H73 7463   5.548   8.424   1.472
   18CHTO   H74 7464   5.411   8.412   1.583
   18CHTO   C40 7465   5.502   8.246   1.750
   18CHTO   H82 7466   5.428   8.196   1.686
   18CHTO   O26 7467   5.580   8.151   1.825
   18CHTO   C41 7468   5.656   8.060   1.741
   18CHTO   H83 7469   5.590   8.012   1.667
   18CHTO   C52 7470   5.714   7.950   1.831
   18CHTO   O35 7471   5.609   7.873   1.897
   18CHTO   H71 7472   5.649   7.806   1.950
   18CHTO   O28 7473   5.435   8.319   1.854
   18CHTO   C42 7474   5.299   8.281   1.896
   18CHTO   H84 7475   5.286   8.335   1.990
   18CHTO   C44 7476   5.275   8.129   1.930
   18CHTO   H86 7477   5.310   8.069   1.845
   18CHTO   O32 7478   5.358   8.097   2.043
   18CHTO   H69 7479   5.352   8.005   2.062
   18CHTO   C48 7480   5.122   8.094   1.954
   18CHTO   H90 7481   5.090   8.139   2.048
   18CHTO    N9 7482   5.099   7.946   1.970
   18CHTO   H77 7483   4.995   7.926   1.989
   18CHTO   H78 7484   5.132   7.893   1.882
   18CHTO   C51 7485   5.037   8.155   1.837
   18CHTO   H93 7486   5.077   8.114   1.743
   18CHTO   O30 7487   5.057   8.297   1.845
   18CHTO   C46 7488   5.191   8.335   1.798
   18CHTO   H88 7489   5.208   8.291   1.699
   18CHTO   C53 7490   5.195   8.489   1.784
   18CHTO   O72 7491   5.170   8.557   1.907
   18CHTO  H199 7492   5.174   8.650   1.893
   18CHTO   O22 7493   4.894   8.135   1.844
   18CHTO   C31 7494   4.811   8.150   1.721
   18CHTO   H59 7495   4.706   8.137   1.754
   18CHTO   C29 7496   4.820   8.291   1.656
   18CHTO   H57 7497   4.926   8.318   1.651
   18CHTO   O21 7498   4.760   8.384   1.749
   18CHTO   H37 7499   4.778   8.472   1.722
   18CHTO   C27 7500   4.759   8.300   1.511
   18CHTO   H55 7501   4.651   8.282   1.516
   18CHTO    N5 7502   4.783   8.432   1.447
   18CHTO   H43 7503   4.842   8.423   1.357
   18CHTO   H44 7504   4.689   8.480   1.425
   18CHTO   C25 7505   4.824   8.182   1.430
   18CHTO   H53 7506   4.933   8.188   1.444
   18CHTO   O17 7507   4.777   8.058   1.489
   18CHTO   C32 7508   4.838   8.034   1.618
   18CHTO   H60 7509   4.945   8.022   1.604
   18CHTO   C36 7510   4.782   7.901   1.674
   18CHTO   O25 7511   4.805   7.792   1.584
   18CHTO   H40 7512   4.770   7.713   1.622
   18CHTO   O15 7513   4.793   8.185   1.271
   18CHTO   C19 7514   4.862   8.132   1.154
   18CHTO   H47 7515   4.890   8.029   1.183
   18CHTO   C20 7516   4.771   8.126   1.027
   18CHTO   H48 7517   4.736   8.226   0.998
   18CHTO   O19 7518   4.657   8.046   1.063
   18CHTO   H35 7519   4.594   8.047   0.994
   18CHTO   C21 7520   4.845   8.061   0.903
   18CHTO   H49 7521   4.858   7.955   0.923
   18CHTO    N4 7522   4.766   8.070   0.777
   18CHTO   H41 7523   4.672   8.019   0.790
   18CHTO   H42 7524   4.821   8.023   0.696
   18CHTO   C22 7525   4.988   8.119   0.886
   18CHTO   H50 7526   4.984   8.218   0.838
   18CHTO   O14 7527   5.058   8.128   1.011
   18CHTO   C23 7528   4.995   8.204   1.114
   18CHTO   H51 7529   4.977   8.305   1.076
   18CHTO   C34 7530   5.096   8.214   1.230
   18CHTO   O23 7531   5.212   8.289   1.193
   18CHTO   H38 7532   5.270   8.295   1.266
   18CHTO   O16 7533   5.069   8.027   0.810
   18CHTO   C24 7534   5.200   8.083   0.735
   18CHTO   H52 7535   5.212   8.191   0.750
   18CHTO   C26 7536   5.182   8.053   0.585
   18CHTO   H54 7537   5.131   7.955   0.575
   18CHTO   O20 7538   5.093   8.150   0.528
   18CHTO   H36 7539   5.130   8.236   0.532
   18CHTO   C30 7540   5.316   8.044   0.504
   18CHTO   H58 7541   5.357   8.145   0.488
   18CHTO    N6 7542   5.295   7.987   0.368
   18CHTO   H45 7543   5.226   8.049   0.312
   18CHTO   H46 7544   5.253   7.888   0.376
   18CHTO   C33 7545   5.423   7.966   0.585
   18CHTO   H61 7546   5.388   7.863   0.603
   18CHTO   O18 7547   5.438   8.032   0.711
   18CHTO   C28 7548   5.325   8.015   0.798
   18CHTO   H56 7549   5.303   7.909   0.813
   18CHTO   C35 7550   5.359   8.079   0.934
   18CHTO   O24 7551   5.477   8.025   0.994
   18CHTO   H39 7552   5.493   8.069   1.075
   18CHTO    O9 7553   5.550   7.952   0.518
   18CHTO   C13 7554   5.652   7.848   0.596
   18CHTO   H26 7555   5.590   7.772   0.649
   18CHTO   C11 7556   5.744   7.929   0.696
   18CHTO   H24 7557   5.680   7.967   0.778
   18CHTO    O8 7558   5.802   8.044   0.631
   18CHTO    H3 7559   5.735   8.104   0.605
   18CHTO    C9 7560   5.848   7.831   0.757
   18CHTO   H22 7561   5.789   7.750   0.803
   18CHTO    N2 7562   5.926   7.888   0.870
   18CHTO   H10 7563   5.859   7.925   0.946
   18CHTO   H11 7564   5.990   7.967   0.834
   18CHTO    C7 7565   5.936   7.770   0.642
   18CHTO   H20 7566   6.001   7.697   0.694
   18CHTO    O4 7567   5.854   7.700   0.547
   18CHTO   C14 7568   5.738   7.766   0.490
   18CHTO   H27 7569   5.673   7.684   0.453
   18CHTO   C18 7570   5.778   7.850   0.366
   18CHTO   O13 7571   5.827   7.767   0.261
   18CHTO    H7 7572   5.852   7.821   0.188
   18CHTO    O2 7573   6.027   7.882   0.563
   18CHTO    C1 7574   6.161   7.846   0.525
   18CHTO   H14 7575   6.191   7.914   0.443
   18CHTO    C2 7576   6.184   7.696   0.475
   18CHTO   H15 7577   6.149   7.629   0.556
   18CHTO    O6 7578   6.105   7.675   0.357
   18CHTO    H1 7579   6.013   7.677   0.378
   18CHTO    C3 7580   6.340   7.669   0.446
   18CHTO   H16 7581   6.370   7.731   0.360
   18CHTO    N1 7582   6.367   7.526   0.410
   18CHTO    H8 7583   6.311   7.499   0.322
   18CHTO    H9 7584   6.472   7.512   0.391
   18CHTO    C4 7585   6.427   7.718   0.568
   18CHTO   H17 7586   6.408   7.653   0.653
   18CHTO    O1 7587   6.394   7.854   0.601
   18CHTO    C5 7588   6.259   7.878   0.642
   18CHTO   H18 7589   6.233   7.814   0.726
   18CHTO   C16 7590   6.248   8.026   0.686
   18CHTO   O11 7591   6.332   8.052   0.800
   18CHTO    H5 7592   6.325   8.142   0.824
   18CHTO    O3 7593   6.568   7.720   0.536
   18CHTO    C6 7594   6.656   7.735   0.652
   18CHTO   H19 7595   6.603   7.764   0.742
   18CHTO    C8 7596   6.728   7.600   0.684
   18CHTO   H21 7597   6.781   7.567   0.594
   18CHTO    O7 7598   6.627   7.503   0.718
   18CHTO    H2 7599   6.583   7.528   0.798
   18CHTO   C12 7600   6.833   7.621   0.801
   18CHTO   H25 7601   6.774   7.650   0.891
   18CHTO    N3 7602   6.907   7.494   0.836
   18CHTO   H12 7603   6.873   7.411   0.776
   18CHTO   H13 7604   6.895   7.472   0.941
   18CHTO   C15 7605   6.929   7.739   0.763
   18CHTO   H28 7606   6.993   7.714   0.678
   18CHTO   O10 7607   7.020   7.785   0.883
   18CHTO    H4 7608   6.967   7.807   0.957
   18CHTO    O5 7609   6.853   7.858   0.735
   18CHTO   C10 7610   6.762   7.846   0.625
   18CHTO   H23 7611   6.818   7.824   0.534
   18CHTO   C17 7612   6.692   7.982   0.606
   18CHTO   O12 7613   6.785   8.089   0.586
   18CHTO    H6 7614   6.826   8.080   0.502
   19CHTO  H203 7615   5.118   9.411   2.445
   19CHTO   O82 7616   5.186   9.373   2.393
   19CHTO  C123 7617   5.145   9.243   2.346
   19CHTO  H227 7618   5.054   9.254   2.285
   19CHTO   O77 7619   5.257   9.202   2.262
   19CHTO  C118 7620   5.238   9.075   2.197
   19CHTO  H222 7621   5.144   9.078   2.141
   19CHTO  C125 7622   5.357   9.052   2.096
   19CHTO   O84 7623   5.485   9.051   2.160
   19CHTO  H205 7624   5.492   8.975   2.215
   19CHTO  C114 7625   5.230   8.965   2.304
   19CHTO  H218 7626   5.322   8.966   2.363
   19CHTO  C116 7627   5.112   8.993   2.403
   19CHTO  H220 7628   5.016   8.982   2.348
   19CHTO   O79 7629   5.112   8.891   2.505
   19CHTO  H201 7630   5.190   8.896   2.557
   19CHTO  C120 7631   5.124   9.139   2.463
   19CHTO  H224 7632   5.213   9.138   2.530
   19CHTO   N21 7633   5.006   9.173   2.547
   19CHTO  H211 7634   4.928   9.217   2.488
   19CHTO  H212 7635   5.036   9.241   2.626
   19CHTO   O75 7636   5.217   8.840   2.233
   19CHTO  C112 7637   5.316   8.724   2.294
   19CHTO  H216 7638   5.319   8.733   2.404
   19CHTO   O73 7639   5.446   8.743   2.235
   19CHTO  C113 7640   5.546   8.653   2.285
   19CHTO  H217 7641   5.551   8.663   2.396
   19CHTO  C124 7642   5.683   8.695   2.229
   19CHTO   O83 7643   5.721   8.827   2.270
   19CHTO  H204 7644   5.738   8.829   2.362
   19CHTO  C109 7645   5.510   8.507   2.246
   19CHTO  H213 7646   5.511   8.502   2.136
   19CHTO  C110 7647   5.367   8.472   2.300
   19CHTO  H214 7648   5.372   8.467   2.409
   19CHTO   O78 7649   5.330   8.341   2.253
   19CHTO  H200 7650   5.385   8.276   2.292
   19CHTO  C111 7651   5.263   8.580   2.257
   19CHTO  H215 7652   5.252   8.576   2.148
   19CHTO   N19 7653   5.127   8.557   2.315
   19CHTO  H207 7654   5.096   8.639   2.378
   19CHTO  H208 7655   5.055   8.542   2.236
   19CHTO   O74 7656   5.611   8.416   2.299
   19CHTO  C115 7657   5.643   8.292   2.204
   19CHTO  H219 7658   5.552   8.235   2.181
   19CHTO   O76 7659   5.698   8.340   2.060
   19CHTO  C122 7660   5.838   8.371   2.063
   19CHTO  H226 7661   5.853   8.449   2.137
   19CHTO  C126 7662   5.882   8.432   1.926
   19CHTO   O85 7663   5.815   8.556   1.898
   19CHTO  H206 7664   5.845   8.590   1.815
   19CHTO  C121 7665   5.925   8.244   2.099
   19CHTO  H225 7666   5.966   8.200   2.005
   19CHTO   O81 7667   6.036   8.286   2.180
   19CHTO  H202 7668   6.097   8.216   2.191
   19CHTO  C119 7669   5.842   8.134   2.173
   19CHTO  H223 7670   5.778   8.090   2.096
   19CHTO  C117 7671   5.746   8.199   2.279
   19CHTO  H221 7672   5.795   8.263   2.353
   19CHTO   N20 7673   5.673   8.096   2.360
   19CHTO  H209 7674   5.744   8.034   2.414
   19CHTO  H210 7675   5.613   8.034   2.296
   19CHTO   O80 7676   5.932   8.005   2.217
   19CHTO  C103 7677   5.984   7.911   2.106
   19CHTO  H190 7678   5.941   7.941   2.010
   19CHTO  C101 7679   6.139   7.899   2.086
   19CHTO  H188 7680   6.185   7.853   2.174
   19CHTO   O68 7681   6.200   8.040   2.066
   19CHTO  H168 7682   6.190   8.091   2.145
   19CHTO   C99 7683   6.166   7.805   1.958
   19CHTO  H186 7684   6.124   7.856   1.869
   19CHTO   N17 7685   6.311   7.781   1.928
   19CHTO  H174 7686   6.339   7.831   1.836
   19CHTO  H175 7687   6.374   7.813   2.010
   19CHTO   C97 7688   6.089   7.670   1.970
   19CHTO  H184 7689   6.146   7.601   2.034
   19CHTO   O64 7690   5.953   7.687   2.017
   19CHTO  C104 7691   5.933   7.766   2.135
   19CHTO  H191 7692   5.987   7.725   2.220
   19CHTO  C108 7693   5.784   7.761   2.174
   19CHTO   O71 7694   5.742   7.629   2.209
   19CHTO  H171 7695   5.781   7.604   2.291
   19CHTO   O62 7696   6.076   7.612   1.838
   19CHTO   C91 7697   6.009   7.486   1.821
   19CHTO  H178 7698   5.979   7.448   1.919
   19CHTO   C92 7699   6.110   7.382   1.761
   19CHTO  H179 7700   6.160   7.428   1.674
   19CHTO   O66 7701   6.214   7.360   1.859
   19CHTO  H166 7702   6.264   7.438   1.871
   19CHTO   C93 7703   6.042   7.245   1.718
   19CHTO  H180 7704   6.012   7.194   1.811
   19CHTO   N16 7705   6.134   7.152   1.648
   19CHTO  H172 7706   6.081   7.060   1.624
   19CHTO  H173 7707   6.219   7.130   1.711
   19CHTO   C94 7708   5.913   7.274   1.633
   19CHTO  H181 7709   5.937   7.325   1.539
   19CHTO   O61 7710   5.828   7.361   1.709
   19CHTO   C95 7711   5.881   7.492   1.728
   19CHTO  H182 7712   5.908   7.534   1.631
   19CHTO  C106 7713   5.766   7.581   1.787
   19CHTO   O69 7714   5.658   7.597   1.694
   19CHTO  H169 7715   5.687   7.648   1.621
   19CHTO   O63 7716   5.828   7.142   1.605
   19CHTO   C96 7717   5.695   7.156   1.505
   19CHTO  H183 7718   5.731   7.153   1.402
   19CHTO   C98 7719   5.610   7.286   1.522
   19CHTO  H185 7720   5.608   7.314   1.628
   19CHTO   O67 7721   5.680   7.393   1.456
   19CHTO  H167 7722   5.684   7.377   1.363
   19CHTO  C102 7723   5.459   7.274   1.469
   19CHTO  H189 7724   5.466   7.267   1.359
   19CHTO   N18 7725   5.374   7.393   1.497
   19CHTO  H176 7726   5.416   7.480   1.449
   19CHTO  H177 7727   5.369   7.410   1.604
   19CHTO  C105 7728   5.400   7.142   1.524
   19CHTO  H192 7729   5.406   7.143   1.633
   19CHTO   O65 7730   5.476   7.031   1.476
   19CHTO  C100 7731   5.609   7.025   1.529
   19CHTO  H187 7732   5.602   7.007   1.637
   19CHTO  C107 7733   5.675   6.900   1.466
   19CHTO   O70 7734   5.810   6.881   1.509
   19CHTO  H170 7735   5.845   6.804   1.468
   19CHTO   O57 7736   5.242   7.127   1.478
   19CHTO   C85 7737   5.161   7.037   1.554
   19CHTO  H157 7738   5.214   7.018   1.650
   19CHTO   C83 7739   5.156   6.899   1.481
   19CHTO  H155 7740   5.258   6.861   1.473
   19CHTO   O56 7741   5.108   6.917   1.346
   19CHTO  H135 7742   5.168   6.970   1.297
   19CHTO   C81 7743   5.072   6.799   1.566
   19CHTO  H153 7744   5.119   6.791   1.664
   19CHTO   N14 7745   5.075   6.660   1.513
   19CHTO  H141 7746   5.176   6.627   1.504
   19CHTO  H142 7747   5.028   6.657   1.417
   19CHTO   C79 7748   4.926   6.854   1.587
   19CHTO  H151 7749   4.876   6.788   1.659
   19CHTO   O52 7750   4.928   6.988   1.648
   19CHTO   C86 7751   5.013   7.085   1.578
   19CHTO  H158 7752   4.961   7.102   1.482
   19CHTO   C90 7753   5.010   7.221   1.651
   19CHTO   O60 7754   4.878   7.277   1.653
   19CHTO  H138 7755   4.853   7.303   1.567
   19CHTO   O50 7756   4.846   6.857   1.467
   19CHTO   C73 7757   4.730   6.835   1.386
   19CHTO  H145 7758   4.708   6.727   1.379
   19CHTO   C74 7759   4.755   6.891   1.243
   19CHTO  H146 7760   4.844   6.840   1.205
   19CHTO   O54 7761   4.645   6.850   1.159
   19CHTO  H133 7762   4.660   6.878   1.071
   19CHTO   C75 7763   4.775   7.047   1.252
   19CHTO  H147 7764   4.866   7.067   1.310
   19CHTO   N13 7765   4.801   7.111   1.121
   19CHTO  H139 7766   4.896   7.163   1.122
   19CHTO  H140 7767   4.723   7.182   1.095
   19CHTO   C76 7768   4.653   7.115   1.331
   19CHTO  H148 7769   4.564   7.109   1.269
   19CHTO   O49 7770   4.628   7.048   1.459
   19CHTO   C77 7771   4.605   6.906   1.448
   19CHTO  H149 7772   4.519   6.888   1.384
   19CHTO   C88 7773   4.568   6.849   1.586
   19CHTO   O58 7774   4.440   6.909   1.636
   19CHTO  H136 7775   4.368   6.881   1.582
   19CHTO   O51 7776   4.688   7.263   1.377
   19CHTO   C78 7777   4.592   7.378   1.318
   19CHTO  H150 7778   4.540   7.344   1.226
   19CHTO   C80 7779   4.679   7.501   1.284
   19CHTO  H152 7780   4.742   7.525   1.373
   19CHTO   O55 7781   4.766   7.461   1.177
   19CHTO  H134 7782   4.828   7.529   1.159
   19CHTO   C84 7783   4.594   7.628   1.245
   19CHTO  H156 7784   4.547   7.608   1.148
   19CHTO   N15 7785   4.678   7.751   1.228
   19CHTO  H143 7786   4.617   7.834   1.200
   19CHTO  H144 7787   4.751   7.734   1.151
   19CHTO   C87 7788   4.482   7.652   1.349
   19CHTO  H159 7789   4.525   7.685   1.443
   19CHTO   O53 7790   4.402   7.522   1.370
   19CHTO   C82 7791   4.484   7.416   1.422
   19CHTO  H154 7792   4.530   7.447   1.516
   19CHTO   C89 7793   4.392   7.295   1.454
   19CHTO   O59 7794   4.300   7.324   1.559
   19CHTO  H137 7795   4.248   7.248   1.577
   19CHTO   O45 7796   4.378   7.766   1.294
   19CHTO   C67 7797   4.307   7.832   1.400
   19CHTO  H124 7798   4.307   7.768   1.488
   19CHTO   C65 7799   4.376   7.968   1.437
   19CHTO  H122 7800   4.421   8.006   1.345
   19CHTO   O44 7801   4.482   7.934   1.530
   19CHTO  H102 7802   4.548   7.883   1.487
   19CHTO   C63 7803   4.273   8.079   1.482
   19CHTO  H120 7804   4.230   8.124   1.392
   19CHTO   N11 7805   4.332   8.200   1.548
   19CHTO  H108 7806   4.411   8.240   1.488
   19CHTO  H109 7807   4.370   8.174   1.645
   19CHTO   C61 7808   4.154   8.012   1.559
   19CHTO  H118 7809   4.084   8.093   1.584
   19CHTO   O40 7810   4.082   7.919   1.473
   19CHTO   C68 7811   4.154   7.853   1.364
   19CHTO  H125 7812   4.145   7.914   1.272
   19CHTO   C72 7813   4.081   7.719   1.338
   19CHTO   O48 7814   4.132   7.646   1.227
   19CHTO  H105 7815   4.083   7.567   1.216
   19CHTO   O38 7816   4.199   7.950   1.682
   19CHTO   C55 7817   4.118   7.847   1.745
   19CHTO  H112 7818   4.083   7.776   1.669
   19CHTO   C56 7819   3.998   7.909   1.829
   19CHTO  H113 7820   4.041   7.984   1.897
   19CHTO   O42 7821   3.909   7.979   1.741
   19CHTO  H100 7822   3.843   8.024   1.790
   19CHTO   C57 7823   3.923   7.795   1.910
   19CHTO  H114 7824   3.874   7.731   1.836
   19CHTO   N10 7825   3.817   7.847   2.000
   19CHTO  H106 7826   3.774   7.938   1.960
   19CHTO  H107 7827   3.739   7.773   2.013
   19CHTO   C58 7828   4.024   7.709   1.990
   19CHTO  H115 7829   4.068   7.771   2.072
   19CHTO   O37 7830   4.131   7.662   1.906
   19CHTO   C59 7831   4.209   7.764   1.841
   19CHTO  H116 7832   4.254   7.829   1.916
   19CHTO   C70 7833   4.324   7.696   1.766
   19CHTO   O46 7834   4.281   7.597   1.672
   19CHTO  H103 7835   4.236   7.638   1.600
   19CHTO   O39 7836   3.948   7.572   2.058
   19CHTO   C60 7837   3.950   7.453   1.977
   19CHTO  H117 7838   3.956   7.481   1.872
   19CHTO   C62 7839   4.072   7.364   2.013
   19CHTO  H119 7840   4.163   7.427   2.000
   19CHTO   O43 7841   4.065   7.324   2.152
   19CHTO  H101 7842   4.074   7.399   2.208
   19CHTO   C66 7843   4.079   7.240   1.911
   19CHTO  H123 7844   4.082   7.280   1.809
   19CHTO   N12 7845   4.202   7.159   1.926
   19CHTO  H110 7846   4.289   7.220   1.907
   19CHTO  H111 7847   4.206   7.117   2.026
   19CHTO   C69 7848   3.950   7.154   1.923
   19CHTO  H126 7849   3.947   7.103   2.022
   19CHTO   O41 7850   3.820   7.247   1.907
   19CHTO   C64 7851   3.818   7.372   1.994
   19CHTO  H121 7852   3.807   7.343   2.100
   19CHTO   C71 7853   3.695   7.458   1.955
   19CHTO   O47 7854   3.573   7.388   1.982
   19CHTO  H104 7855   3.563   7.316   1.923
   19CHTO   O34 7856   3.947   7.042   1.810
   19CHTO   C49 7857   3.867   7.046   1.676
   19CHTO   H91 7858   3.762   7.048   1.703
   19CHTO   C47 7859   3.899   6.918   1.596
   19CHTO   H89 7860   3.828   6.916   1.510
   19CHTO   O33 7861   3.870   6.805   1.681
   19CHTO   H70 7862   3.883   6.726   1.633
   19CHTO   C45 7863   4.051   6.924   1.545
   19CHTO   H87 7864   4.116   6.940   1.632
   19CHTO    N8 7865   4.093   6.798   1.478
   19CHTO   H75 7866   4.198   6.804   1.452
   19CHTO   H76 7867   4.078   6.714   1.544
   19CHTO   C43 7868   4.072   7.054   1.452
   19CHTO   H85 7869   4.179   7.057   1.432
   19CHTO   O29 7870   4.027   7.173   1.521
   19CHTO   C50 7871   3.901   7.172   1.591
   19CHTO   H92 7872   3.905   7.257   1.661
   19CHTO   C54 7873   3.783   7.210   1.499
   19CHTO   O36 7874   3.796   7.344   1.450
   19CHTO   H72 7875   3.723   7.365   1.396
   19CHTO   O27 7876   4.008   7.043   1.322
   19CHTO   C37 7877   4.027   7.095   1.189
   19CHTO   H79 7878   3.982   7.026   1.116
   19CHTO   C38 7879   3.952   7.231   1.172
   19CHTO   H80 7880   3.972   7.293   1.261
   19CHTO   O31 7881   3.811   7.201   1.167
   19CHTO   H68 7882   3.761   7.280   1.168
   19CHTO   C39 7883   3.997   7.311   1.043
   19CHTO   H81 7884   3.964   7.255   0.956
   19CHTO    N7 7885   3.934   7.447   1.034
   19CHTO   H73 7886   3.966   7.497   0.944
   19CHTO   H74 7887   3.961   7.506   1.121
   19CHTO   C40 7888   4.154   7.318   1.039
   19CHTO   H82 7889   4.190   7.371   1.128
   19CHTO   O26 7890   4.203   7.183   1.034
   19CHTO   C41 7891   4.179   7.109   1.157
   19CHTO   H83 7892   4.229   7.160   1.241
   19CHTO   C52 7893   4.244   6.969   1.141
   19CHTO   O35 7894   4.387   6.977   1.120
   19CHTO   H71 7895   4.429   7.007   1.198
   19CHTO   O28 7896   4.208   7.381   0.920
   19CHTO   C42 7897   4.323   7.472   0.926
   19CHTO   H84 7898   4.344   7.489   1.032
   19CHTO   C44 7899   4.297   7.614   0.864
   19CHTO   H86 7900   4.263   7.600   0.761
   19CHTO   O32 7901   4.189   7.673   0.939
   19CHTO   H69 7902   4.164   7.754   0.900
   19CHTO   C48 7903   4.426   7.706   0.861
   19CHTO   H90 7904   4.452   7.732   0.963
   19CHTO    N9 7905   4.400   7.837   0.791
   19CHTO   H77 7906   4.489   7.898   0.792
   19CHTO   H78 7907   4.369   7.818   0.689
   19CHTO   C51 7908   4.546   7.627   0.797
   19CHTO   H93 7909   4.518   7.602   0.694
   19CHTO   O30 7910   4.568   7.510   0.876
   19CHTO   C46 7911   4.453   7.411   0.864
   19CHTO   H88 7912   4.435   7.390   0.758
   19CHTO   C53 7913   4.497   7.282   0.936
   19CHTO   O72 7914   4.615   7.230   0.873
   19CHTO  H199 7915   4.641   7.152   0.918
   19CHTO   O22 7916   4.671   7.700   0.799
   19CHTO   C31 7917   4.794   7.644   0.736
   19CHTO   H59 7918   4.791   7.534   0.754
   19CHTO   C29 7919   4.806   7.665   0.583
   19CHTO   H57 7920   4.805   7.774   0.565
   19CHTO   O21 7921   4.690   7.610   0.518
   19CHTO   H37 7922   4.613   7.657   0.544
   19CHTO   C27 7923   4.940   7.603   0.525
   19CHTO   H55 7924   4.934   7.494   0.533
   19CHTO    N5 7925   4.962   7.639   0.383
   19CHTO   H43 7926   4.879   7.605   0.323
   19CHTO   H44 7927   4.973   7.746   0.373
   19CHTO   C25 7928   5.064   7.647   0.613
   19CHTO   H53 7929   5.082   7.754   0.599
   19CHTO   O17 7930   5.038   7.625   0.755
   19CHTO   C32 7931   4.924   7.695   0.805
   19CHTO   H60 7932   4.935   7.801   0.782
   19CHTO   C36 7933   4.921   7.677   0.958
   19CHTO   O25 7934   5.026   7.752   1.019
   19CHTO   H40 7935   5.023   7.740   1.112
   19CHTO   O15 7936   5.196   7.567   0.577
   19CHTO   C19 7937   5.263   7.465   0.497
   19CHTO   H47 7938   5.201   7.456   0.407
   19CHTO   C20 7939   5.408   7.501   0.456
   19CHTO   H48 7940   5.476   7.508   0.543
   19CHTO   O19 7941   5.404   7.631   0.393
   19CHTO   H35 7942   5.383   7.697   0.456
   19CHTO   C21 7943   5.467   7.393   0.356
   19CHTO   H49 7944   5.412   7.399   0.262
   19CHTO    N4 7945   5.610   7.417   0.321
   19CHTO   H41 7946   5.671   7.412   0.410
   19CHTO   H42 7947   5.644   7.342   0.251
   19CHTO   C22 7948   5.444   7.250   0.411
   19CHTO   H50 7949   5.517   7.227   0.490
   19CHTO   O14 7950   5.310   7.230   0.461
   19CHTO   C23 7951   5.266   7.323   0.561
   19CHTO   H51 7952   5.336   7.317   0.646
   19CHTO   C34 7953   5.128   7.273   0.608
   19CHTO   O23 7954   5.087   7.338   0.728
   19CHTO   H38 7955   5.003   7.306   0.754
   19CHTO   O16 7956   5.448   7.154   0.304
   19CHTO   C24 7957   5.556   7.036   0.313
   19CHTO   H52 7958   5.634   7.058   0.386
   19CHTO   C26 7959   5.619   7.022   0.173
   19CHTO   H54 7960   5.538   7.027   0.097
   19CHTO   O20 7961   5.704   7.136   0.149
   19CHTO   H36 7962   5.776   7.137   0.209
   19CHTO   C30 7963   5.695   6.887   0.151
   19CHTO   H58 7964   5.786   6.884   0.213
   19CHTO    N6 7965   5.741   6.869   0.010
   19CHTO   H45 7966   5.713   6.953   2.791
   19CHTO   H46 7967   5.701   6.779   2.809
   19CHTO   C33 7968   5.603   6.771   0.200
   19CHTO   H61 7969   5.510   6.773   0.143
   19CHTO   O18 7970   5.572   6.795   0.339
   19CHTO   C28 7971   5.485   6.906   0.360
   19CHTO   H56 7972   5.392   6.894   0.304
   19CHTO   C35 7973   5.452   6.913   0.511
   19CHTO   O24 7974   5.384   6.796   0.559
   19CHTO   H39 7975   5.443   6.724   0.561
   19CHTO    O9 7976   5.658   6.639   0.181
   19CHTO   C13 7977   5.540   6.527   0.145
   19CHTO   H26 7978   5.492   6.558   0.050
   19CHTO   C11 7979   5.435   6.520   0.264
   19CHTO   H24 7980   5.377   6.614   0.264
   19CHTO    O8 7981   5.503   6.510   0.390
   19CHTO    H3 7982   5.553   6.588   0.407
   19CHTO    C9 7983   5.339   6.401   0.237
   19CHTO   H22 7984   5.300   6.417   0.135
   19CHTO    N2 7985   5.218   6.403   0.323
   19CHTO   H10 7986   5.151   6.324   0.293
   19CHTO   H11 7987   5.169   6.499   0.316
   19CHTO    C7 7988   5.423   6.265   0.237
   19CHTO   H20 7989   5.382   6.211   0.149
   19CHTO    O4 7990   5.564   6.285   0.217
   19CHTO   C14 7991   5.600   6.382   0.116
   19CHTO   H27 7992   5.558   6.345   0.020
   19CHTO   C18 7993   5.754   6.383   0.100
   19CHTO   O13 7994   5.802   6.258   0.051
   19CHTO    H7 7995   5.896   6.261   0.044
   19CHTO    O2 7996   5.402   6.176   0.373
   19CHTO    C1 7997   5.401   6.033   0.357
   19CHTO   H14 7998   5.483   6.004   0.287
   19CHTO    C2 7999   5.264   5.975   0.303
   19CHTO   H15 8000   5.186   6.021   0.366
   19CHTO    O6 8001   5.243   6.014   0.167
   19CHTO    H1 8002   5.311   5.980   0.112
   19CHTO    C3 8003   5.257   5.814   0.318
   19CHTO   H16 8004   5.326   5.769   0.244
   19CHTO    N1 8005   5.119   5.763   0.288
   19CHTO    H8 8006   5.091   5.790   0.188
   19CHTO    H9 8007   5.117   5.656   0.299
   19CHTO    C4 8008   5.309   5.768   0.459
   19CHTO   H17 8009   5.237   5.800   0.535
   19CHTO    O1 8010   5.438   5.826   0.487
   19CHTO    C5 8011   5.435   5.970   0.495
   19CHTO   H18 8012   5.358   6.001   0.565
   19CHTO   C16 8013   5.573   6.018   0.547
   19CHTO   O11 8014   5.592   5.980   0.684
   19CHTO    H5 8015   5.602   5.887   0.690
   19CHTO    O3 8016   5.331   5.625   0.467
   19CHTO    C6 8017   5.284   5.561   0.591
   19CHTO   H19 8018   5.247   5.632   0.665
   19CHTO    C8 8019   5.167   5.462   0.559
   19CHTO   H21 8020   5.201   5.393   0.482
   19CHTO    O7 8021   5.057   5.540   0.508
   19CHTO    H2 8022   5.025   5.599   0.573
   19CHTO   C12 8023   5.124   5.381   0.688
   19CHTO   H25 8024   5.076   5.454   0.756
   19CHTO    N3 8025   5.020   5.278   0.655
   19CHTO   H12 8026   5.059   5.206   0.584
   19CHTO   H13 8027   4.988   5.228   0.745
   19CHTO   C15 8028   5.250   5.321   0.760
   19CHTO   H28 8029   5.292   5.236   0.705
   19CHTO   O10 8030   5.218   5.276   0.906
   19CHTO    H4 8031   5.180   5.347   0.954
   19CHTO    O5 8032   5.352   5.421   0.781
   19CHTO   C10 8033   5.399   5.482   0.659
   19CHTO   H23 8034   5.435   5.403   0.593
   19CHTO   C17 8035   5.519   5.571   0.694
   19CHTO   O12 8036   5.629   5.494   0.744
   19CHTO    H6 8037   5.700   5.551   0.765
   20CHTO  H203 8038   5.084   1.171   2.222
   20CHTO   O82 8039   5.094   1.137   2.135
   20CHTO  C123 8040   5.117   1.244   2.041
   20CHTO  H227 8041   5.043   1.324   2.061
   20CHTO   O77 8042   5.251   1.290   2.075
   20CHTO  C118 8043   5.295   1.404   2.000
   20CHTO  H222 8044   5.224   1.486   2.011
   20CHTO  C125 8045   5.434   1.449   2.058
   20CHTO   O84 8046   5.420   1.494   2.193
   20CHTO  H205 8047   5.504   1.521   2.226
   20CHTO  C114 8048   5.306   1.366   1.851
   20CHTO  H218 8049   5.380   1.286   1.840
   20CHTO  C116 8050   5.169   1.311   1.798
   20CHTO  H220 8051   5.097   1.396   1.794
   20CHTO   O79 8052   5.187   1.267   1.662
   20CHTO  H201 8053   5.246   1.195   1.658
   20CHTO  C120 8054   5.113   1.196   1.891
   20CHTO  H224 8055   5.180   1.109   1.878
   20CHTO   N21 8056   4.976   1.154   1.851
   20CHTO  H211 8057   4.961   1.050   1.878
   20CHTO  H212 8058   4.962   1.167   1.745
   20CHTO   O75 8059   5.348   1.485   1.783
   20CHTO  C112 8060   5.480   1.466   1.687
   20CHTO  H216 8061   5.481   1.364   1.646
   20CHTO   O73 8062   5.595   1.491   1.770
   20CHTO  C113 8063   5.721   1.479   1.701
   20CHTO  H217 8064   5.728   1.378   1.655
   20CHTO  C124 8065   5.834   1.490   1.805
   20CHTO   O83 8066   5.831   1.385   1.902
   20CHTO  H204 8067   5.901   1.397   1.963
   20CHTO  C109 8068   5.732   1.587   1.591
   20CHTO  H213 8069   5.729   1.685   1.642
   20CHTO  C110 8070   5.611   1.575   1.493
   20CHTO  H214 8071   5.624   1.483   1.435
   20CHTO   O78 8072   5.614   1.686   1.401
   20CHTO  H200 8073   5.689   1.679   1.344
   20CHTO  C111 8074   5.475   1.571   1.569
   20CHTO  H215 8075   5.457   1.670   1.614
   20CHTO   N19 8076   5.358   1.542   1.481
   20CHTO  H207 8077   5.289   1.624   1.483
   20CHTO  H208 8078   5.389   1.523   1.379
   20CHTO   O74 8079   5.860   1.574   1.520
   20CHTO  C115 8080   5.945   1.712   1.509
   20CHTO  H219 8081   5.905   1.790   1.574
   20CHTO   O76 8082   6.092   1.692   1.556
   20CHTO  C122 8083   6.162   1.589   1.485
   20CHTO  H226 8084   6.130   1.493   1.528
   20CHTO  C126 8085   6.315   1.602   1.518
   20CHTO   O85 8086   6.369   1.728   1.479
   20CHTO  H206 8087   6.460   1.732   1.502
   20CHTO  C121 8088   6.136   1.588   1.328
   20CHTO  H225 8089   6.232   1.574   1.275
   20CHTO   O81 8090   6.052   1.477   1.292
   20CHTO  H202 8091   6.095   1.396   1.313
   20CHTO  C119 8092   6.072   1.722   1.281
   20CHTO  H223 8093   6.147   1.798   1.302
   20CHTO  C117 8094   5.940   1.759   1.358
   20CHTO  H221 8095   5.851   1.710   1.318
   20CHTO   N20 8096   5.910   1.905   1.346
   20CHTO  H209 8097   5.988   1.963   1.394
   20CHTO  H210 8098   5.901   1.933   1.242
   20CHTO   O80 8099   6.056   1.737   1.125
   20CHTO  C103 8100   6.179   1.739   1.034
   20CHTO  H190 8101   6.271   1.725   1.091
   20CHTO  C101 8102   6.171   1.633   0.917
   20CHTO  H188 8103   6.067   1.626   0.884
   20CHTO   O68 8104   6.211   1.494   0.975
   20CHTO  H168 8105   6.196   1.427   0.910
   20CHTO   C99 8106   6.260   1.674   0.789
   20CHTO  H186 8107   6.368   1.669   0.817
   20CHTO   N17 8108   6.240   1.583   0.671
   20CHTO  H174 8109   6.306   1.612   0.591
   20CHTO  H175 8110   6.257   1.480   0.700
   20CHTO   C97 8111   6.231   1.822   0.755
   20CHTO  H184 8112   6.123   1.831   0.735
   20CHTO   O64 8113   6.271   1.901   0.868
   20CHTO  C104 8114   6.180   1.888   0.978
   20CHTO  H191 8115   6.079   1.914   0.946
   20CHTO  C108 8116   6.218   1.990   1.086
   20CHTO   O71 8117   6.349   1.968   1.140
   20CHTO  H171 8118   6.414   1.986   1.075
   20CHTO   O62 8119   6.305   1.873   0.642
   20CHTO   C91 8120   6.270   2.005   0.595
   20CHTO  H178 8121   6.231   2.063   0.679
   20CHTO   C92 8122   6.158   2.003   0.486
   20CHTO  H179 8123   6.191   1.938   0.403
   20CHTO   O66 8124   6.041   1.939   0.540
   20CHTO  H166 8125   5.975   1.929   0.474
   20CHTO   C93 8126   6.122   2.148   0.434
   20CHTO  H180 8127   6.068   2.199   0.515
   20CHTO   N16 8128   6.029   2.146   0.318
   20CHTO  H172 8129   6.004   2.247   0.289
   20CHTO  H173 8130   6.074   2.093   0.236
   20CHTO   C94 8131   6.252   2.232   0.400
   20CHTO  H181 8132   6.299   2.199   0.307
   20CHTO   O61 8133   6.350   2.220   0.504
   20CHTO   C95 8134   6.391   2.086   0.535
   20CHTO  H182 8135   6.426   2.038   0.444
   20CHTO  C106 8136   6.512   2.092   0.635
   20CHTO   O69 8137   6.626   2.155   0.575
   20CHTO  H169 8138   6.661   2.100   0.508
   20CHTO   O63 8139   6.219   2.391   0.395
   20CHTO   C96 8140   6.174   2.457   0.255
   20CHTO  H183 8141   6.092   2.398   0.213
   20CHTO   C98 8142   6.285   2.468   0.146
   20CHTO  H185 8143   6.378   2.504   0.193
   20CHTO   O67 8144   6.315   2.335   0.099
   20CHTO  H167 8145   6.240   2.298   0.057
   20CHTO  C102 8146   6.246   2.565   0.023
   20CHTO  H189 8147   6.167   2.512   2.810
   20CHTO   N18 8148   6.354   2.588   2.766
   20CHTO  H176 8149   6.381   2.693   2.762
   20CHTO  H177 8150   6.442   2.529   2.790
   20CHTO  C105 8151   6.185   2.696   0.079
   20CHTO  H192 8152   6.262   2.750   0.135
   20CHTO   O65 8153   6.076   2.668   0.169
   20CHTO  C100 8154   6.116   2.599   0.288
   20CHTO  H187 8155   6.193   2.658   0.340
   20CHTO  C107 8156   5.994   2.588   0.383
   20CHTO   O70 8157   5.951   2.718   0.427
   20CHTO  H170 8158   5.877   2.709   0.483
   20CHTO   O57 8159   6.132   2.792   2.796
   20CHTO   C85 8160   6.013   2.762   2.721
   20CHTO  H157 8161   5.981   2.659   2.749
   20CHTO   C83 8162   6.049   2.757   2.569
   20CHTO  H155 8163   6.122   2.677   2.554
   20CHTO   O56 8164   6.113   2.880   2.531
   20CHTO  H135 8165   6.194   2.891   2.577
   20CHTO   C81 8166   5.921   2.724   2.487
   20CHTO  H153 8167   5.882   2.628   2.522
   20CHTO   N14 8168   5.950   2.702   2.343
   20CHTO  H141 8169   5.984   2.792   2.297
   20CHTO  H142 8170   5.861   2.669   2.293
   20CHTO   C79 8171   5.810   2.833   2.511
   20CHTO  H151 8172   5.719   2.796   2.464
   20CHTO   O52 8173   5.780   2.845   2.654
   20CHTO   C86 8174   5.896   2.866   2.741
   20CHTO  H158 8175   5.929   2.970   2.717
   20CHTO   C90 8176   5.849   2.870   0.047
   20CHTO   O60 8177   5.758   2.977   0.072
   20CHTO  H138 8178   5.803   3.059   0.066
   20CHTO   O50 8179   5.840   2.964   2.456
   20CHTO   C73 8180   5.796   3.022   2.332
   20CHTO  H145 8181   5.771   2.942   2.260
   20CHTO   C74 8182   5.908   3.111   2.270
   20CHTO  H146 8183   5.997   3.047   2.258
   20CHTO   O54 8184   5.866   3.147   2.137
   20CHTO  H133 8185   5.933   3.197   2.095
   20CHTO   C75 8186   5.937   3.234   2.364
   20CHTO  H147 8187   5.979   3.196   2.459
   20CHTO   N13 8188   6.038   3.328   2.311
   20CHTO  H139 8189   6.132   3.277   2.298
   20CHTO  H140 8190   6.006   3.367   2.215
   20CHTO   C76 8191   5.800   3.310   2.401
   20CHTO  H148 8192   5.764   3.363   2.312
   20CHTO   O49 8193   5.698   3.216   2.447
   20CHTO   C77 8194   5.670   3.110   2.354
   20CHTO  H149 8195   5.638   3.152   2.259
   20CHTO   C88 8196   5.551   3.029   2.405
   20CHTO   O58 8197   5.433   3.108   2.416
   20CHTO  H136 8198   5.402   3.131   2.331
   20CHTO   O51 8199   5.823   3.408   2.526
   20CHTO   C78 8200   5.693   3.485   2.574
   20CHTO  H150 8201   5.602   3.446   2.523
   20CHTO   C80 8202   5.707   3.635   2.542
   20CHTO  H152 8203   5.804   3.671   2.583
   20CHTO   O55 8204   5.711   3.650   2.399
   20CHTO  H134 8205   5.630   3.623   2.361
   20CHTO   C84 8206   5.590   3.721   2.607
   20CHTO  H156 8207   5.497   3.692   2.559
   20CHTO   N15 8208   5.607   3.870   2.586
   20CHTO  H143 8209   5.524   3.909   2.531
   20CHTO  H144 8210   5.697   3.891   2.533
   20CHTO   C87 8211   5.581   3.687   2.757
   20CHTO  H159 8212   5.673   3.717   2.808
   20CHTO   O53 8213   5.561   3.536   2.771
   20CHTO   C82 8214   5.674   3.461   2.726
   20CHTO  H154 8215   5.764   3.490   2.781
   20CHTO   C89 8216   5.647   3.312   2.759
   20CHTO   O59 8217   5.763   3.231   2.743
   20CHTO  H137 8218   5.824   3.249   2.812
   20CHTO   O45 8219   5.452   3.758   2.831
   20CHTO   C67 8220   5.464   3.750   0.133
   20CHTO  H124 8221   5.536   3.673   0.159
   20CHTO   C65 8222   5.512   3.886   0.194
   20CHTO  H122 8223   5.454   3.963   0.144
   20CHTO   O44 8224   5.650   3.900   0.155
   20CHTO  H102 8225   5.704   3.843   0.206
   20CHTO   C63 8226   5.474   3.901   0.347
   20CHTO  H120 8227   5.377   3.950   0.354
   20CHTO   N11 8228   5.558   3.996   0.428
   20CHTO  H108 8229   5.566   4.089   0.377
   20CHTO  H109 8230   5.656   3.955   0.442
   20CHTO   C61 8231   5.452   3.760   0.415
   20CHTO  H118 8232   5.414   3.781   0.515
   20CHTO   O40 8233   5.348   3.684   0.346
   20CHTO   C68 8234   5.329   3.707   0.202
   20CHTO  H125 8235   5.254   3.788   0.189
   20CHTO   C72 8236   5.268   3.579   0.139
   20CHTO   O48 8237   5.349   3.462   0.157
   20CHTO  H105 8238   5.353   3.439   0.248
   20CHTO   O38 8239   5.574   3.682   0.426
   20CHTO   C55 8240   5.563   3.550   0.485
   20CHTO  H112 8241   5.471   3.501   0.450
   20CHTO   C56 8242   5.570   3.554   0.644
   20CHTO  H113 8243   5.662   3.609   0.671
   20CHTO   O42 8244   5.460   3.632   0.696
   20CHTO  H100 8245   5.469   3.642   0.789
   20CHTO   C57 8246   5.570   3.408   0.705
   20CHTO  H114 8247   5.471   3.367   0.687
   20CHTO   N10 8248   5.592   3.405   0.852
   20CHTO  H106 8249   5.498   3.412   0.904
   20CHTO  H107 8250   5.656   3.486   0.883
   20CHTO   C58 8251   5.674   3.318   0.633
   20CHTO  H115 8252   5.777   3.348   0.664
   20CHTO   O37 8253   5.663   3.327   0.490
   20CHTO   C59 8254   5.680   3.459   0.436
   20CHTO  H116 8255   5.776   3.500   0.466
   20CHTO   C70 8256   5.679   3.448   0.283
   20CHTO   O46 8257   5.794   3.379   0.232
   20CHTO  H103 8258   5.790   3.288   0.256
   20CHTO   O39 8259   5.645   3.162   0.669
   20CHTO   C60 8260   5.760   3.075   0.676
   20CHTO  H117 8261   5.825   3.095   0.590
   20CHTO   C62 8262   5.843   3.097   0.806
   20CHTO  H119 8263   5.885   3.199   0.800
   20CHTO   O43 8264   5.754   3.090   0.920
   20CHTO  H101 8265   5.801   3.111   0.999
   20CHTO   C66 8266   5.963   2.990   0.814
   20CHTO  H123 8267   6.024   2.999   0.724
   20CHTO   N12 8268   6.056   3.015   0.928
   20CHTO  H110 8269   6.056   2.933   0.998
   20CHTO  H111 8270   6.032   3.108   0.978
   20CHTO   C69 8271   5.902   2.847   0.815
   20CHTO  H126 8272   5.830   2.840   0.900
   20CHTO   O41 8273   5.827   2.828   0.682
   20CHTO   C64 8274   5.711   2.927   0.663
   20CHTO  H121 8275   5.633   2.909   0.740
   20CHTO   C71 8276   5.648   2.904   0.524
   20CHTO   O47 8277   5.593   2.772   0.514
   20CHTO  H104 8278   5.517   2.765   0.569
   20CHTO   O34 8279   6.012   2.730   0.832
   20CHTO   C49 8280   5.972   2.586   0.880
   20CHTO   H91 8281   5.904   2.549   0.804
   20CHTO   C47 8282   5.897   2.594   1.015
   20CHTO   H89 8283   5.797   2.637   0.989
   20CHTO   O33 8284   5.962   2.685   1.105
   20CHTO   H70 8285   6.049   2.655   1.126
   20CHTO   C45 8286   5.883   2.451   1.089
   20CHTO   H87 8287   5.957   2.448   1.170
   20CHTO    N8 8288   5.749   2.434   1.148
   20CHTO   H75 8289   5.674   2.430   1.071
   20CHTO   H76 8290   5.727   2.516   1.215
   20CHTO   C43 8291   5.930   2.330   0.994
   20CHTO   H85 8292   5.925   2.239   1.054
   20CHTO   O29 8293   6.063   2.357   0.948
   20CHTO   C50 8294   6.091   2.487   0.892
   20CHTO   H92 8295   6.170   2.535   0.953
   20CHTO   C54 8296   6.158   2.467   0.753
   20CHTO   O36 8297   6.281   2.395   0.762
   20CHTO   H72 8298   6.345   2.446   0.808
   20CHTO   O27 8299   5.843   2.310   0.881
   20CHTO   C37 8300   5.741   2.252   0.798
   20CHTO   H79 8301   5.643   2.262   0.846
   20CHTO   C38 8302   5.735   2.327   0.661
   20CHTO   H80 8303   5.837   2.335   0.621
   20CHTO   O31 8304   5.685   2.459   0.688
   20CHTO   H68 8305   5.687   2.511   0.610
   20CHTO   C39 8306   5.643   2.251   0.556
   20CHTO   H81 8307   5.540   2.258   0.592
   20CHTO    N7 8308   5.647   2.315   0.420
   20CHTO   H73 8309   5.548   2.345   0.389
   20CHTO   H74 8310   5.691   2.248   0.347
   20CHTO   C40 8311   5.681   2.098   0.552
   20CHTO   H82 8312   5.780   2.087   0.509
   20CHTO   O26 8313   5.673   2.043   0.684
   20CHTO   C41 8314   5.771   2.101   0.776
   20CHTO   H83 8315   5.872   2.089   0.734
   20CHTO   C52 8316   5.765   2.021   0.908
   20CHTO   O35 8317   5.803   1.878   0.890
   20CHTO   H71 8318   5.739   1.834   0.837
   20CHTO   O28 8319   5.587   2.020   0.474
   20CHTO   C42 8320   5.624   1.889   0.418
   20CHTO   H84 8321   5.531   1.853   0.374
   20CHTO   C44 8322   5.667   1.780   0.522
   20CHTO   H86 8323   5.753   1.818   0.579
   20CHTO   O32 8324   5.557   1.762   0.613
   20CHTO   H69 8325   5.545   1.839   0.666
   20CHTO   C48 8326   5.711   1.644   0.454
   20CHTO   H90 8327   5.623   1.600   0.407
   20CHTO    N9 8328   5.760   1.544   0.554
   20CHTO   H77 8329   5.863   1.516   0.536
   20CHTO   H78 8330   5.697   1.456   0.553
   20CHTO   C51 8331   5.817   1.675   0.342
   20CHTO   H93 8332   5.904   1.721   0.391
   20CHTO   O30 8333   5.758   1.763   0.246
   20CHTO   C46 8334   5.728   1.900   0.303
   20CHTO   H88 8335   5.821   1.941   0.342
   20CHTO   C53 8336   5.675   1.989   0.188
   20CHTO   O72 8337   5.775   2.009   0.088
   20CHTO  H199 8338   5.742   2.064   0.021
   20CHTO   O22 8339   5.856   1.559   0.267
   20CHTO   C31 8340   5.990   1.534   0.207
   20CHTO   H59 8341   5.973   1.530   0.097
   20CHTO   C29 8342   6.099   1.641   0.232
   20CHTO   H57 8343   6.109   1.654   0.341
   20CHTO   O21 8344   6.054   1.767   0.179
   20CHTO   H37 8345   5.978   1.797   0.226
   20CHTO   C27 8346   6.240   1.600   0.171
   20CHTO   H55 8347   6.232   1.600   0.062
   20CHTO    N5 8348   6.348   1.694   0.211
   20CHTO   H43 8349   6.440   1.666   0.163
   20CHTO   H44 8350   6.321   1.795   0.182
   20CHTO   C25 8351   6.276   1.453   0.214
   20CHTO   H53 8352   6.291   1.449   0.323
   20CHTO   O17 8353   6.167   1.363   0.179
   20CHTO   C32 8354   6.043   1.393   0.247
   20CHTO   H60 8355   6.061   1.391   0.355
   20CHTO   C36 8356   5.942   1.280   0.215
   20CHTO   O25 8357   5.917   1.267   0.074
   20CHTO   H40 8358   5.854   1.200   0.060
   20CHTO   O15 8359   6.409   1.401   0.141
   20CHTO   C19 8360   6.523   1.336   0.078
   20CHTO   H47 8361   6.487   1.310   2.819
   20CHTO   C20 8362   6.647   1.430   0.063
   20CHTO   H48 8363   6.681   1.469   0.160
   20CHTO   O19 8364   6.605   1.542   2.825
   20CHTO   H35 8365   6.673   1.606   2.820
   20CHTO   C21 8366   6.770   1.356   2.836
   20CHTO   H49 8367   6.744   1.336   2.732
   20CHTO    N4 8368   6.894   1.438   2.834
   20CHTO   H41 8369   6.876   1.529   2.778
   20CHTO   H42 8370   6.923   1.464   0.093
   20CHTO   C22 8371   6.793   1.218   0.061
   20CHTO   H50 8372   6.833   1.233   0.162
   20CHTO   O14 8373   6.671   1.142   0.068
   20CHTO   C23 8374   6.566   1.202   0.145
   20CHTO   H51 8375   6.604   1.217   0.247
   20CHTO   C34 8376   6.453   1.099   0.149
   20CHTO   O23 8377   6.354   1.136   0.246
   20CHTO   H38 8378   6.284   1.074   0.245
   20CHTO   O16 8379   6.882   1.135   2.825
   20CHTO   C24 8380   6.967   1.028   0.069
   20CHTO   H52 8381   6.924   1.011   0.167
   20CHTO   C26 8382   7.111   1.083   0.084
   20CHTO   H54 8383   7.149   1.110   2.825
   20CHTO   O20 8384   7.104   1.204   0.161
   20CHTO   H36 8385   7.075   1.186   0.249
   20CHTO   C30 8386   7.208   0.978   0.147
   20CHTO   H58 8387   7.181   0.962   0.252
   20CHTO    N6 8388   7.348   1.027   0.148
   20CHTO   H45 8389   7.412   0.954   0.196
   20CHTO   H46 8390   7.383   1.043   0.047
   20CHTO   C33 8391   7.193   0.840   0.076
   20CHTO   H61 8392   7.228   0.847   2.813
   20CHTO   O18 8393   7.053   0.803   0.075
   20CHTO   C28 8394   6.971   0.891   2.838
   20CHTO   H56 8395   7.013   0.905   2.738
   20CHTO   C35 8396   6.831   0.828   2.825
   20CHTO   O24 8397   6.747   0.896   2.731
   20CHTO   H39 8398   6.665   0.852   2.725
   20CHTO    O9 8399   7.275   0.739   0.138
   20CHTO   C13 8400   7.242   0.571   0.141
   20CHTO   H26 8401   7.333   0.525   0.187
   20CHTO   C11 8402   7.211   0.507   2.839
   20CHTO   H24 8403   7.308   0.494   2.788
   20CHTO    O8 8404   7.130   0.594   2.758
   20CHTO    H3 8405   7.121   0.558   2.672
   20CHTO    C9 8406   7.145   0.368   0.020
   20CHTO   H22 8407   7.213   0.313   0.086
   20CHTO    N2 8408   7.139   0.284   2.740
   20CHTO   H10 8409   7.238   0.274   2.697
   20CHTO   H11 8410   7.072   0.328   2.668
   20CHTO    C7 8411   7.007   0.388   0.096
   20CHTO   H20 8412   7.001   0.299   0.163
   20CHTO    O4 8413   7.003   0.507   0.178
   20CHTO   C14 8414   7.127   0.535   0.246
   20CHTO   H27 8415   7.157   0.442   0.300
   20CHTO   C18 8416   7.106   0.645   0.353
   20CHTO   O13 8417   7.224   0.665   0.432
   20CHTO    H7 8418   7.237   0.591   0.489
   20CHTO    O2 8419   6.873   0.390   2.836
   20CHTO    C1 8420   6.763   0.309   0.040
   20CHTO   H14 8421   6.755   0.318   0.151
   20CHTO    C2 8422   6.776   0.155   0.003
   20CHTO   H15 8423   6.787   0.151   2.735
   20CHTO    O6 8424   6.893   0.099   0.065
   20CHTO    H1 8425   6.887   0.104   0.158
   20CHTO    C3 8426   6.644   0.074   0.047
   20CHTO   H16 8427   6.644   0.068   0.157
   20CHTO    N1 8428   6.643   9.933   2.838
   20CHTO    H8 8429   6.553   9.882   0.029
   20CHTO    H9 8430   6.730   9.880   0.032
   20CHTO    C4 8431   6.512   0.152   0.009
   20CHTO   H17 8432   6.491   0.139   2.745
   20CHTO    O1 8433   6.520   0.292   0.042
   20CHTO    C5 8434   6.630   0.361   2.822
   20CHTO   H18 8435   6.631   0.340   2.715
   20CHTO   C16 8436   6.609   0.513   0.001
   20CHTO   O11 8437   6.491   0.559   2.777
   20CHTO    H5 8438   6.415   0.524   2.819
   20CHTO    O3 8439   6.401   0.103   0.089
   20CHTO    C6 8440   6.267   0.126   0.034
   20CHTO   H19 8441   6.266   0.196   2.793
   20CHTO    C8 8442   6.206   9.991   2.827
   20CHTO   H21 8443   6.216   9.917   0.064
   20CHTO    O7 8444   6.284   9.950   2.713
   20CHTO    H2 8445   6.257   9.865   2.684
   20CHTO   C12 8446   6.052   0.008   2.791
   20CHTO   H25 8447   6.048   0.074   2.702
   20CHTO    N3 8448   5.992   9.876   2.751
   20CHTO   H12 8449   5.949   9.883   2.652
   20CHTO   H13 8450   5.917   9.844   2.822
   20CHTO   C15 8451   5.978   0.078   0.068
   20CHTO   H28 8452   5.973   0.013   0.157
   20CHTO   O10 8453   5.835   0.123   0.031
   20CHTO    H4 8454   5.789   0.153   0.108
   20CHTO    O5 8455   6.041   0.202   0.101
   20CHTO   C10 8456   6.177   0.187   0.146
   20CHTO   H23 8457   6.178   0.123   0.233
   20CHTO   C17 8458   6.227   0.325   0.193
   20CHTO   O12 8459   6.223   0.424   0.090
   20CHTO    H6 8460   6.134   0.446   0.069
   21GLOH   H03 8461   9.502   4.767   1.070
   21GLOH    O1 8462   9.414   4.811   1.091
   21GLOH    C1 8463   9.390   4.807   1.233
   21GLOH   H02 8464   9.336   4.896   1.265
   21GLOH   H08 8465   9.484   4.805   1.289
   21GLOH    C2 8466   9.306   4.685   1.276
   21GLOH   H04 8467   9.363   4.594   1.250
   21GLOH    O2 8468   9.284   4.688   1.418
   21GLOH   H05 8469   9.232   4.606   1.443
   21GLOH    C3 8470   9.172   4.682   1.199
   21GLOH   H06 8471   9.111   4.766   1.232
   21GLOH   H07 8472   9.119   4.591   1.224
   21GLOH    O3 8473   9.195   4.690   1.057
   21GLOH   H01 8474   9.274   4.750   1.048
   22GLOH   H03 8475   3.740   3.673   1.292
   22GLOH    O1 8476   3.819   3.615   1.311
   22GLOH    C1 8477   3.787   3.478   1.278
   22GLOH   H02 8478   3.783   3.466   1.170
   22GLOH   H08 8479   3.689   3.451   1.316
   22GLOH    C2 8480   3.890   3.378   1.335
   22GLOH   H04 8481   3.990   3.410   1.302
   22GLOH    O2 8482   3.888   3.379   1.479
   22GLOH   H05 8483   3.979   3.407   1.511
   22GLOH    C3 8484   3.867   3.234   1.285
   22GLOH   H06 8485   3.760   3.213   1.288
   22GLOH   H07 8486   3.915   3.165   1.354
   22GLOH    O3 8487   3.918   3.213   1.152
   22GLOH   H01 8488   3.903   3.116   1.129
   23GLOH   H03 8489   9.394   5.242   2.024
   23GLOH    O1 8490   9.359   5.329   2.052
   23GLOH    C1 8491   9.298   5.398   1.940
   23GLOH   H02 8492   9.283   5.503   1.965
   23GLOH   H08 8493   9.200   5.356   1.920
   23GLOH    C2 8494   9.378   5.392   1.809
   23GLOH   H04 8495   9.379   5.287   1.776
   23GLOH    O2 8496   9.313   5.471   1.708
   23GLOH   H05 8497   9.276   5.409   1.636
   23GLOH    C3 8498   9.524   5.438   1.826
   23GLOH   H06 8499   9.525   5.532   1.881
   23GLOH   H07 8500   9.566   5.459   1.727
   23GLOH    O3 8501   9.605   5.340   1.893
   23GLOH   H01 8502   9.696   5.378   1.907
   24GLOH   H03 8503   9.464   4.394   1.331
   24GLOH    O1 8504   9.389   4.345   1.288
   24GLOH    C1 8505   9.408   4.348   1.145
   24GLOH   H02 8506   9.425   4.450   1.111
   24GLOH   H08 8507   9.318   4.313   1.094
   24GLOH    C2 8508   9.526   4.261   1.099
   24GLOH   H04 8509   9.615   4.290   1.157
   24GLOH    O2 8510   9.499   4.122   1.123
   24GLOH   H05 8511   9.480   4.109   1.218
   24GLOH    C3 8512   9.555   4.285   0.950
   24GLOH   H06 8513   9.466   4.261   0.893
   24GLOH   H07 8514   9.632   4.215   0.918
   24GLOH    O3 8515   9.597   4.420   0.924
   24GLOH   H01 8516   9.687   4.434   0.963
   25GLOH   H03 8517   1.837   4.550   1.757
   25GLOH    O1 8518   1.914   4.566   1.817
   25GLOH    C1 8519   1.889   4.695   1.877
   25GLOH   H02 8520   1.784   4.704   1.905
   25GLOH   H08 8521   1.907   4.774   1.804
   25GLOH    C2 8522   1.974   4.725   2.001
   25GLOH   H04 8523   2.079   4.735   1.968
   25GLOH    O2 8524   1.932   4.850   2.061
   25GLOH   H05 8525   2.003   4.882   2.124
   25GLOH    C3 8526   1.967   4.610   2.103
   25GLOH   H06 8527   2.022   4.640   2.192
   25GLOH   H07 8528   2.020   4.525   2.061
   25GLOH    O3 8529   1.832   4.572   2.138
   25GLOH   H01 8530   1.773   4.650   2.133
   26GLOH   H03 8531   1.762   3.345   2.403
   26GLOH    O1 8532   1.814   3.412   2.353
   26GLOH    C1 8533   1.919   3.469   2.433
   26GLOH   H02 8534   1.984   3.390   2.472
   26GLOH   H08 8535   1.878   3.522   2.519
   26GLOH    C2 8536   2.005   3.566   2.350
   26GLOH   H04 8537   1.939   3.642   2.306
   26GLOH    O2 8538   2.104   3.632   2.433
   26GLOH   H05 8539   2.060   3.686   2.501
   26GLOH    C3 8540   2.073   3.488   2.236
   26GLOH   H06 8541   1.996   3.432   2.183
   26GLOH   H07 8542   2.140   3.415   2.280
   26GLOH    O3 8543   2.144   3.572   2.143
   26GLOH   H01 8544   2.226   3.607   2.187
   27GLOH   H03 8545   9.861   4.498   0.543
   27GLOH    O1 8546   9.920   4.527   0.618
   27GLOH    C1 8547   9.840   4.595   0.716
   27GLOH   H02 8548   9.899   4.614   0.806
   27GLOH   H08 8549   9.756   4.532   0.747
   27GLOH    C2 8550   9.785   4.730   0.667
   27GLOH   H04 8551   9.718   4.709   0.582
   27GLOH    O2 8552   9.707   4.794   0.771
   27GLOH   H05 8553   9.712   4.894   0.760
   27GLOH    C3 8554   9.899   4.820   0.614
   27GLOH   H06 8555   9.854   4.909   0.571
   27GLOH   H07 8556   9.949   4.768   0.532
   27GLOH    O3 8557   9.996   4.857   0.714
   27GLOH   H01 8558   0.078   4.802   0.704
   28GLOH   H03 8559   3.482   0.747   0.019
   28GLOH    O1 8560   3.460   0.804   2.783
   28GLOH    C1 8561   3.500   0.938   2.818
   28GLOH   H02 8562   3.421   0.989   0.031
   28GLOH   H08 8563   3.520   0.996   2.728
   28GLOH    C2 8564   3.628   0.937   0.064
   28GLOH   H04 8565   3.709   0.892   0.005
   28GLOH    O2 8566   3.665   1.072   0.100
   28GLOH   H05 8567   3.746   1.070   0.154
   28GLOH    C3 8568   3.604   0.851   0.189
   28GLOH   H06 8569   3.527   0.898   0.250
   28GLOH   H07 8570   3.695   0.850   0.248
   28GLOH    O3 8571   3.565   0.716   0.155
   28GLOH   H01 8572   3.588   0.657   0.232
   29GLOH   H03 8573   2.420   1.238   1.806
   29GLOH    O1 8574   2.362   1.233   1.885
   29GLOH    C1 8575   2.305   1.362   1.914
   29GLOH   H02 8576   2.246   1.357   2.006
   29GLOH   H08 8577   2.236   1.392   1.835
   29GLOH    C2 8578   2.412   1.473   1.929
   29GLOH   H04 8579   2.489   1.436   1.998
   29GLOH    O2 8580   2.474   1.500   1.802
   29GLOH   H05 8581   2.502   1.415   1.761
   29GLOH    C3 8582   2.351   1.601   1.988
   29GLOH   H06 8583   2.287   1.648   1.913
   29GLOH   H07 8584   2.433   1.671   2.008
   29GLOH    O3 8585   2.277   1.580   2.110
   29GLOH   H01 8586   2.329   1.522   2.171
   30GLOH   H03 8587   2.802   5.539   1.403
   30GLOH    O1 8588   2.723   5.569   1.350
   30GLOH    C1 8589   2.757   5.694   1.288
   30GLOH   H02 8590   2.857   5.690   1.244
   30GLOH   H08 8591   2.758   5.774   1.362
   30GLOH    C2 8592   2.658   5.736   1.177
   30GLOH   H04 8593   2.560   5.757   1.224
   30GLOH    O2 8594   2.705   5.855   1.111
   30GLOH   H05 8595   2.714   5.931   1.175
   30GLOH    C3 8596   2.640   5.620   1.077
   30GLOH   H06 8597   2.606   5.532   1.133
   30GLOH   H07 8598   2.738   5.595   1.037
   30GLOH    O3 8599   2.548   5.646   0.969
   30GLOH   H01 8600   2.583   5.595   0.892
   31GLOH   H03 8601   4.935   1.655   2.680
   31GLOH    O1 8602   5.008   1.694   2.626
   31GLOH    C1 8603   5.046   1.823   2.679
   31GLOH   H02 8604   4.972   1.898   2.649
   31GLOH   H08 8605   5.140   1.855   2.635
   31GLOH    C2 8606   5.060   1.831   2.833
   31GLOH   H04 8607   5.105   1.927   0.016
   31GLOH    O2 8608   4.929   1.823   0.053
   31GLOH   H05 8609   4.936   1.858   0.145
   31GLOH    C3 8610   5.154   1.720   0.043
   31GLOH   H06 8611   5.250   1.730   2.835
   31GLOH   H07 8612   5.114   1.623   0.012
   31GLOH    O3 8613   5.173   1.723   0.186
   31GLOH   H01 8614   5.196   1.816   0.213
   32GLOH   H03 8615   3.971   0.338   1.046
   32GLOH    O1 8616   3.971   0.428   1.090
   32GLOH    C1 8617   4.108   0.462   1.121
   32GLOH   H02 8618   4.174   0.431   1.039
   32GLOH   H08 8619   4.142   0.407   1.209
   32GLOH    C2 8620   4.131   0.612   1.147
   32GLOH   H04 8621   4.073   0.667   1.071
   32GLOH    O2 8622   4.087   0.657   1.277
   32GLOH   H05 8623   3.997   0.622   1.300
   32GLOH    C3 8624   4.279   0.647   1.123
   32GLOH   H06 8625   4.295   0.751   1.152
   32GLOH   H07 8626   4.300   0.641   1.016
   32GLOH    O3 8627   4.371   0.562   1.195
   32GLOH   H01 8628   4.446   0.540   1.134
   33GLOH   H03 8629   9.552   5.180   0.320
   33GLOH    O1 8630   9.465   5.184   0.272
   33GLOH    C1 8631   9.436   5.056   0.214
   33GLOH   H02 8632   9.329   5.036   0.219
   33GLOH   H08 8633   9.485   4.976   0.271
   33GLOH    C2 8634   9.481   5.044   0.067
   33GLOH   H04 8635   9.590   5.057   0.062
   33GLOH    O2 8636   9.447   4.913   0.016
   33GLOH   H05 8637   9.488   4.900   2.771
   33GLOH    C3 8638   9.414   5.153   2.824
   33GLOH   H06 8639   9.306   5.136   2.824
   33GLOH   H07 8640   9.448   5.144   2.721
   33GLOH    O3 8641   9.443   5.284   0.034
   33GLOH   H01 8642   9.453   5.273   0.131
   34GLOH   H03 8643   3.979   1.525   1.140
   34GLOH    O1 8644   3.990   1.584   1.061
   34GLOH    C1 8645   3.910   1.702   1.077
   34GLOH   H02 8646   3.808   1.675   1.104
   34GLOH   H08 8647   3.903   1.755   0.981
   34GLOH    C2 8648   3.963   1.800   1.183
   34GLOH   H04 8649   3.965   1.747   1.280
   34GLOH    O2 8650   4.097   1.847   1.154
   34GLOH   H05 8651   4.100   1.871   1.057
   34GLOH    C3 8652   3.866   1.920   1.197
   34GLOH   H06 8653   3.892   1.975   1.286
   34GLOH   H07 8654   3.766   1.880   1.214
   34GLOH    O3 8655   3.866   2.007   1.082
   34GLOH   H01 8656   3.772   2.038   1.068
   35GLOH   H03 8657   4.302   5.059   2.016
   35GLOH    O1 8658   4.315   5.097   1.924
   35GLOH    C1 8659   4.455   5.083   1.894
   35GLOH   H02 8660   4.515   5.112   1.981
   35GLOH   H08 8661   4.483   5.151   1.814
   35GLOH    C2 8662   4.499   4.940   1.854
   35GLOH   H04 8663   4.608   4.940   1.849
   35GLOH    O2 8664   4.458   4.841   1.951
   35GLOH   H05 8665   4.358   4.827   1.940
   35GLOH    C3 8666   4.445   4.902   1.715
   35GLOH   H06 8667   4.337   4.912   1.715
   35GLOH   H07 8668   4.467   4.797   1.698
   35GLOH    O3 8669   4.501   4.982   1.608
   35GLOH   H01 8670   4.504   4.922   1.529
   36GLOH   H03 8671   3.032   6.554   1.054
   36GLOH    O1 8672   3.049   6.456   1.055
   36GLOH    C1 8673   3.059   6.412   0.918
   36GLOH   H02 8674   3.102   6.312   0.915
   36GLOH   H08 8675   3.126   6.478   0.862
   36GLOH    C2 8676   2.922   6.411   0.847
   36GLOH   H04 8677   2.885   6.514   0.841
   36GLOH    O2 8678   2.939   6.357   0.715
   36GLOH   H05 8679   2.970   6.262   0.725
   36GLOH    C3 8680   2.821   6.326   0.927
   36GLOH   H06 8681   2.823   6.358   1.031
   36GLOH   H07 8682   2.853   6.222   0.925
   36GLOH    O3 8683   2.686   6.337   0.877
   36GLOH   H01 8684   2.688   6.366   0.782
   37GLOH   H03 8685   4.464   3.930   0.374
   37GLOH    O1 8686   4.410   3.852   0.348
   37GLOH    C1 8687   4.433   3.750   0.447
   37GLOH   H02 8688   4.526   3.697   0.426
   37GLOH   H08 8689   4.353   3.676   0.443
   37GLOH    C2 8690   4.440   3.808   0.589
   37GLOH   H04 8691   4.344   3.856   0.612
   37GLOH    O2 8692   4.464   3.703   0.685
   37GLOH   H05 8693   4.472   3.743   0.776
   37GLOH    C3 8694   4.551   3.915   0.596
   37GLOH   H06 8695   4.647   3.867   0.574
   37GLOH   H07 8696   4.556   3.952   0.698
   37GLOH    O3 8697   4.526   4.023   0.504
   37GLOH   H01 8698   4.455   4.080   0.543
   38GLOH   H03 8699   2.274   6.186   1.114
   38GLOH    O1 8700   2.198   6.206   1.052
   38GLOH    C1 8701   2.186   6.091   0.965
   38GLOH   H02 8702   2.173   6.000   1.025
   38GLOH   H08 8703   2.277   6.078   0.907
   38GLOH    C2 8704   2.067   6.101   0.867
   38GLOH   H04 8705   2.088   6.184   0.798
   38GLOH    O2 8706   2.055   5.979   0.791
   38GLOH   H05 8707   1.985   5.990   0.721
   38GLOH    C3 8708   1.938   6.135   0.944
   38GLOH   H06 8709   1.914   6.052   1.011
   38GLOH   H07 8710   1.856   6.143   0.873
   38GLOH    O3 8711   1.955   6.257   1.019
   38GLOH   H01 8712   2.050   6.255   1.046
   39GLOH   H03 8713   9.145   4.628   0.927
   39GLOH    O1 8714   9.135   4.596   0.833
   39GLOH    C1 8715   9.255   4.528   0.793
   39GLOH   H02 8716   9.243   4.485   0.694
   39GLOH   H08 8717   9.277   4.446   0.861
   39GLOH    C2 8718   9.378   4.622   0.790
   39GLOH   H04 8719   9.400   4.652   0.893
   39GLOH    O2 8720   9.491   4.551   0.737
   39GLOH   H05 8721   9.534   4.499   0.811
   39GLOH    C3 8722   9.347   4.749   0.708
   39GLOH   H06 8723   9.257   4.794   0.748
   39GLOH   H07 8724   9.325   4.719   0.605
   39GLOH    O3 8725   9.453   4.845   0.710
   39GLOH   H01 8726   9.539   4.799   0.727
   40GLOH   H03 8727   4.778   1.484   0.510
   40GLOH    O1 8728   4.704   1.487   0.574
   40GLOH    C1 8729   4.751   1.482   0.711
   40GLOH   H02 8730   4.683   1.538   0.776
   40GLOH   H08 8731   4.848   1.531   0.719
   40GLOH    C2 8732   4.763   1.339   0.766
   40GLOH   H04 8733   4.848   1.291   0.715
   40GLOH    O2 8734   4.789   1.344   0.908
   40GLOH   H05 8735   4.780   1.252   0.947
   40GLOH    C3 8736   4.636   1.257   0.734
   40GLOH   H06 8737   4.615   1.263   0.628
   40GLOH   H07 8738   4.551   1.303   0.786
   40GLOH    O3 8739   4.649   1.119   0.773
   40GLOH   H01 8740   4.672   1.116   0.870
   41GLOH   H03 8741   2.621   7.686   0.597
   41GLOH    O1 8742   2.523   7.686   0.609
   41GLOH    C1 8743   2.485   7.606   0.723
   41GLOH   H02 8744   2.377   7.593   0.722
   41GLOH   H08 8745   2.509   7.659   0.815
   41GLOH    C2 8746   2.551   7.466   0.728
   41GLOH   H04 8747   2.536   7.418   0.631
   41GLOH    O2 8748   2.692   7.477   0.756
   41GLOH   H05 8749   2.708   7.543   0.829
   41GLOH    C3 8750   2.484   7.378   0.836
   41GLOH   H06 8751   2.512   7.417   0.934
   41GLOH   H07 8752   2.527   7.278   0.828
   41GLOH    O3 8753   2.340   7.371   0.826
   41GLOH   H01 8754   2.312   7.305   0.758
   42GLOH   H03 8755   3.512   9.629   1.690
   42GLOH    O1 8756   3.483   9.679   1.609
   42GLOH    C1 8757   3.583   9.675   1.505
   42GLOH   H02 8758   3.565   9.756   1.434
   42GLOH   H08 8759   3.575   9.582   1.449
   42GLOH    C2 8760   3.727   9.688   1.556
   42GLOH   H04 8761   3.744   9.612   1.634
   42GLOH    O2 8762   3.817   9.664   1.446
   42GLOH   H05 8763   3.907   9.699   1.467
   42GLOH    C3 8764   3.751   9.827   1.618
   42GLOH   H06 8765   3.670   9.849   1.687
   42GLOH   H07 8766   3.746   9.902   1.539
   42GLOH    O3 8767   3.878   9.837   1.687
   42GLOH   H01 8768   3.878   9.767   1.758
   43GLOH   H03 8769   4.581   2.179   2.051
   43GLOH    O1 8770   4.578   2.079   2.059
   43GLOH    C1 8771   4.683   2.034   2.147
   43GLOH   H02 8772   4.701   2.107   2.226
   43GLOH   H08 8773   4.776   2.023   2.092
   43GLOH    C2 8774   4.648   1.899   2.212
   43GLOH   H04 8775   4.630   1.825   2.133
   43GLOH    O2 8776   4.758   1.856   2.294
   43GLOH   H05 8777   4.825   1.810   2.237
   43GLOH    C3 8778   4.521   1.912   2.298
   43GLOH   H06 8779   4.543   1.973   2.385
   43GLOH   H07 8780   4.494   1.812   2.334
   43GLOH    O3 8781   4.413   1.969   2.222
   43GLOH   H01 8782   4.457   2.018   2.148
   44GLOH   H03 8783   4.568   4.995   0.283
   44GLOH    O1 8784   4.625   5.075   0.273
   44GLOH    C1 8785   4.673   5.121   0.401
   44GLOH   H02 8786   4.706   5.225   0.394
   44GLOH   H08 8787   4.759   5.062   0.432
   44GLOH    C2 8788   4.565   5.112   0.511
   44GLOH   H04 8789   4.535   5.006   0.520
   44GLOH    O2 8790   4.619   5.155   0.637
   44GLOH   H05 8791   4.548   5.140   0.706
   44GLOH    C3 8792   4.441   5.195   0.473
   44GLOH   H06 8793   4.419   5.180   0.367
   44GLOH   H07 8794   4.465   5.300   0.485
   44GLOH    O3 8795   4.325   5.161   0.551
   44GLOH   H01 8796   4.355   5.139   0.643
   45GLOH   H03 8797   3.658   3.876   1.270
   45GLOH    O1 8798   3.631   3.782   1.285
   45GLOH    C1 8799   3.487   3.775   1.293
   45GLOH   H02 8800   3.444   3.796   1.195
   45GLOH   H08 8801   3.449   3.851   1.362
   45GLOH    C2 8802   3.440   3.637   1.340
   45GLOH   H04 8803   3.492   3.561   1.280
   45GLOH    O2 8804   3.473   3.617   1.480
   45GLOH   H05 8805   3.513   3.525   1.493
   45GLOH    C3 8806   3.289   3.618   1.319
   45GLOH   H06 8807   3.236   3.687   1.384
   45GLOH   H07 8808   3.262   3.518   1.353
   45GLOH    O3 8809   3.246   3.635   1.182
   45GLOH   H01 8810   3.201   3.552   1.151
   46GLOH   H03 8811   3.344   9.007   1.632
   46GLOH    O1 8812   3.435   9.015   1.590
   46GLOH    C1 8813   3.519   9.095   1.676
   46GLOH   H02 8814   3.623   9.062   1.667
   46GLOH   H08 8815   3.491   9.082   1.780
   46GLOH    C2 8816   3.513   9.246   1.642
   46GLOH   H04 8817   3.412   9.283   1.667
   46GLOH    O2 8818   3.611   9.316   1.721
   46GLOH   H05 8819   3.571   9.400   1.759
   46GLOH    C3 8820   3.539   9.270   1.492
   46GLOH   H06 8821   3.642   9.244   1.470
   46GLOH   H07 8822   3.527   9.376   1.472
   46GLOH    O3 8823   3.449   9.193   1.410
   46GLOH   H01 8824   3.429   9.113   1.464
   47GLOH   H03 8825   2.431   7.593   0.249
   47GLOH    O1 8826   2.352   7.561   0.201
   47GLOH    C1 8827   2.319   7.650   0.092
   47GLOH   H02 8828   2.321   7.754   0.127
   47GLOH   H08 8829   2.218   7.630   0.058
   47GLOH    C2 8830   2.414   7.637   2.814
   47GLOH   H04 8831   2.406   7.535   2.773
   47GLOH    O2 8832   2.377   7.733   2.712
   47GLOH   H05 8833   2.350   7.690   2.627
   47GLOH    C3 8834   2.560   7.661   0.016
   47GLOH   H06 8835   2.583   7.594   0.099
   47GLOH   H07 8836   2.569   7.763   0.053
   47GLOH    O3 8837   2.653   7.639   2.751
   47GLOH   H01 8838   2.616   7.680   2.670
   48GLOH   H03 8839   4.667   0.955   1.668
   48GLOH    O1 8840   4.725   0.978   1.591
   48GLOH    C1 8841   4.649   1.060   1.500
   48GLOH   H02 8842   4.659   1.165   1.527
   48GLOH   H08 8843   4.542   1.036   1.506
   48GLOH    C2 8844   4.695   1.045   1.354
   48GLOH   H04 8845   4.678   0.940   1.324
   48GLOH    O2 8846   4.616   1.129   1.267
   48GLOH   H05 8847   4.524   1.088   1.262
   48GLOH    C3 8848   4.845   1.074   1.342
   48GLOH   H06 8849   4.864   1.177   1.374
   48GLOH   H07 8850   4.875   1.066   1.237
   48GLOH    O3 8851   4.920   0.981   1.422
   48GLOH   H01 8852   4.866   0.969   1.504
   49GLOH   H03 8853   4.903   3.835   1.470
   49GLOH    O1 8854   4.892   3.756   1.528
   49GLOH    C1 8855   4.984   3.654   1.485
   49GLOH   H02 8856   4.998   3.658   1.377
   49GLOH   H08 8857   4.942   3.556   1.507
   49GLOH    C2 8858   5.120   3.665   1.555
   49GLOH   H04 8859   5.104   3.644   1.661
   49GLOH    O2 8860   5.212   3.567   1.503
   49GLOH   H05 8861   5.213   3.571   1.402
   49GLOH    C3 8862   5.176   3.809   1.546
   49GLOH   H06 8863   5.277   3.808   1.587
   49GLOH   H07 8864   5.117   3.872   1.612
   49GLOH    O3 8865   5.176   3.862   1.413
   49GLOH   H01 8866   5.088   3.906   1.397
   50GLOH   H03 8867   4.136   4.865   1.338
   50GLOH    O1 8868   4.219   4.892   1.386
   50GLOH    C1 8869   4.263   5.017   1.330
   50GLOH   H02 8870   4.287   5.004   1.224
   50GLOH   H08 8871   4.356   5.050   1.378
   50GLOH    C2 8872   4.159   5.131   1.343
   50GLOH   H04 8873   4.066   5.097   1.295
   50GLOH    O2 8874   4.131   5.163   1.481
   50GLOH   H05 8875   4.218   5.188   1.525
   50GLOH    C3 8876   4.209   5.256   1.269
   50GLOH   H06 8877   4.301   5.289   1.316
   50GLOH   H07 8878   4.136   5.336   1.282
   50GLOH    O3 8879   4.231   5.231   1.129
   50GLOH   H01 8880   4.149   5.191   1.090
   51GLOH   H03 8881   5.017   3.641   2.761
   51GLOH    O1 8882   4.992   3.706   2.691
   51GLOH    C1 8883   4.867   3.664   2.635
   51GLOH   H02 8884   4.830   3.739   2.566
   51GLOH   H08 8885   4.792   3.652   2.713
   51GLOH    C2 8886   4.879   3.530   2.560
   51GLOH   H04 8887   4.959   3.539   2.485
   51GLOH    O2 8888   4.911   3.424   2.652
   51GLOH   H05 8889   4.988   3.370   2.618
   51GLOH    C3 8890   4.747   3.497   2.486
   51GLOH   H06 8891   4.669   3.482   2.561
   51GLOH   H07 8892   4.760   3.401   2.436
   51GLOH    O3 8893   4.708   3.598   2.392
   51GLOH   H01 8894   4.761   3.587   2.309
   52GLOH   H03 8895   3.928   4.830   2.066
   52GLOH    O1 8896   3.945   4.783   2.152
   52GLOH    C1 8897   4.058   4.845   2.217
   52GLOH   H02 8898   4.151   4.815   2.168
   52GLOH   H08 8899   4.065   4.808   2.320
   52GLOH    C2 8900   4.052   4.999   2.222
   52GLOH   H04 8901   4.031   5.035   2.121
   52GLOH    O2 8902   3.947   5.045   2.310
   52GLOH   H05 8903   3.955   5.142   2.325
   52GLOH    C3 8904   4.189   5.056   2.263
   52GLOH   H06 8905   4.218   5.013   2.359
   52GLOH   H07 8906   4.179   5.164   2.278
   52GLOH    O3 8907   4.290   5.029   2.164
   52GLOH   H01 8908   4.356   4.964   2.200
   53GLOH   H03 8909   1.180   5.395   0.453
   53GLOH    O1 8910   1.242   5.321   0.429
   53GLOH    C1 8911   1.376   5.351   0.476
   53GLOH   H02 8912   1.408   5.277   0.550
   53GLOH   H08 8913   1.380   5.448   0.525
   53GLOH    C2 8914   1.478   5.350   0.360
   53GLOH   H04 8915   1.447   5.423   0.284
   53GLOH    O2 8916   1.610   5.383   0.407
   53GLOH   H05 8917   1.614   5.472   0.450
   53GLOH    C3 8918   1.484   5.210   0.294
   53GLOH   H06 8919   1.540   5.143   0.359
   53GLOH   H07 8920   1.541   5.219   0.201
   53GLOH    O3 8921   1.354   5.156   0.267
   53GLOH   H01 8922   1.291   5.215   0.315
   54GLOH   H03 8923   3.759   2.706   0.508
   54GLOH    O1 8924   3.678   2.762   0.501
   54GLOH    C1 8925   3.722   2.899   0.500
   54GLOH   H02 8926   3.643   2.965   0.536
   54GLOH   H08 8927   3.743   2.931   0.398
   54GLOH    C2 8928   3.848   2.922   0.586
   54GLOH   H04 8929   3.876   3.028   0.575
   54GLOH    O2 8930   3.823   2.895   0.725
   54GLOH   H05 8931   3.793   2.800   0.737
   54GLOH    C3 8932   3.964   2.837   0.532
   54GLOH   H06 8933   4.049   2.851   0.599
   54GLOH   H07 8934   3.993   2.876   0.435
   54GLOH    O3 8935   3.933   2.696   0.522
   54GLOH   H01 8936   4.008   2.651   0.477
   55GLOH   H03 8937   3.376   8.239   0.373
   55GLOH    O1 8938   3.367   8.142   0.355
   55GLOH    C1 8939   3.386   8.064   0.474
   55GLOH   H02 8940   3.394   7.958   0.447
   55GLOH   H08 8941   3.299   8.073   0.539
   55GLOH    C2 8942   3.512   8.102   0.554
   55GLOH   H04 8943   3.499   8.206   0.589
   55GLOH    O2 8944   3.520   8.014   0.669
   55GLOH   H05 8945   3.574   8.057   0.741
   55GLOH    C3 8946   3.638   8.095   0.465
   55GLOH   H06 8947   3.609   8.106   0.361
   55GLOH   H07 8948   3.681   7.995   0.474
   55GLOH    O3 8949   3.736   8.194   0.499
   55GLOH   H01 8950   3.775   8.173   0.588
   56GLOH   H03 8951   1.508   3.943   0.955
   56GLOH    O1 8952   1.481   4.022   1.009
   56GLOH    C1 8953   1.546   4.015   1.137
   56GLOH   H02 8954   1.646   3.972   1.127
   56GLOH   H08 8955   1.490   3.950   1.203
   56GLOH    C2 8956   1.559   4.154   1.203
   56GLOH   H04 8957   1.458   4.197   1.211
   56GLOH    O2 8958   1.616   4.142   1.334
   56GLOH   H05 8959   1.551   4.181   1.400
   56GLOH    C3 8960   1.643   4.247   1.113
   56GLOH   H06 8961   1.594   4.253   1.015
   56GLOH   H07 8962   1.740   4.201   1.097
   56GLOH    O3 8963   1.658   4.379   1.167
   56GLOH   H01 8964   1.720   4.428   1.106
   57GLOH   H03 8965   3.289   6.484   0.539
   57GLOH    O1 8966   3.325   6.548   0.605
   57GLOH    C1 8967   3.390   6.655   0.533
   57GLOH   H02 8968   3.315   6.720   0.487
   57GLOH   H08 8969   3.451   6.615   0.451
   57GLOH    C2 8970   3.481   6.741   0.622
   57GLOH   H04 8971   3.562   6.677   0.662
   57GLOH    O2 8972   3.540   6.848   0.546
   57GLOH   H05 8973   3.469   6.911   0.515
   57GLOH    C3 8974   3.402   6.798   0.741
   57GLOH   H06 8975   3.331   6.872   0.705
   57GLOH   H07 8976   3.471   6.849   0.808
   57GLOH    O3 8977   3.334   6.692   0.812
   57GLOH   H01 8978   3.320   6.622   0.743
   58GLOH   H03 8979   3.393   0.843   2.207
   58GLOH    O1 8980   3.451   0.762   2.210
   58GLOH    C1 8981   3.413   0.688   2.328
   58GLOH   H02 8982   3.461   0.590   2.329
   58GLOH   H08 8983   3.305   0.670   2.328
   58GLOH    C2 8984   3.450   0.761   2.459
   58GLOH   H04 8985   3.425   0.868   2.449
   58GLOH    O2 8986   3.375   0.704   2.567
   58GLOH   H05 8987   3.402   0.748   2.654
   58GLOH    C3 8988   3.601   0.749   2.491
   58GLOH   H06 8989   3.621   0.645   2.519
   58GLOH   H07 8990   3.621   0.809   2.579
   58GLOH    O3 8991   3.688   0.789   2.383
   58GLOH   H01 8992   3.767   0.832   2.420
   59GLOH   H03 8993   3.014   5.307   0.919
   59GLOH    O1 8994   3.084   5.251   0.963
   59GLOH    C1 8995   3.030   5.202   1.086
   59GLOH   H02 8996   3.085   5.113   1.118
   59GLOH   H08 8997   2.926   5.170   1.072
   59GLOH    C2 8998   3.034   5.306   1.200
   59GLOH   H04 8999   2.985   5.397   1.163
   59GLOH    O2 9000   2.962   5.258   1.315
   59GLOH   H05 9001   2.996   5.166   1.337
   59GLOH    C3 9002   3.179   5.340   1.239
   59GLOH   H06 9003   3.233   5.246   1.256
   59GLOH   H07 9004   3.177   5.392   1.335
   59GLOH    O3 9005   3.248   5.420   1.142
   59GLOH   H01 9006   3.346   5.409   1.162
   60GLOH   H03 9007   5.201   3.941   2.596
   60GLOH    O1 9008   5.265   3.996   2.546
   60GLOH    C1 9009   5.214   4.024   2.414
   60GLOH   H02 9010   5.125   4.088   2.421
   60GLOH   H08 9011   5.183   3.932   2.365
   60GLOH    C2 9012   5.317   4.094   2.323
   60GLOH   H04 9013   5.401   4.025   2.308
   60GLOH    O2 9014   5.257   4.124   2.195
   60GLOH   H05 9015   5.267   4.045   2.135
   60GLOH    C3 9016   5.370   4.222   2.389
   60GLOH   H06 9017   5.289   4.294   2.398
   60GLOH   H07 9018   5.445   4.267   2.323
   60GLOH    O3 9019   5.427   4.194   2.518
   60GLOH   H01 9020   5.377   4.116   2.553
   61GLOH   H03 9021   4.122   4.274   1.919
   61GLOH    O1 9022   4.073   4.356   1.894
   61GLOH    C1 9023   4.016   4.338   1.763
   61GLOH   H02 9024   3.928   4.274   1.770
   61GLOH   H08 9025   4.087   4.286   1.698
   61GLOH    C2 9026   3.974   4.469   1.695
   61GLOH   H04 9027   3.932   4.443   1.596
   61GLOH    O2 9028   3.872   4.540   1.769
   61GLOH   H05 9029   3.844   4.487   1.849
   61GLOH    C3 9030   4.095   4.560   1.671
   61GLOH   H06 9031   4.144   4.579   1.767
   61GLOH   H07 9032   4.060   4.657   1.635
   61GLOH    O3 9033   4.190   4.504   1.579
   61GLOH   H01 9034   4.152   4.507   1.487
   62GLOH   H03 9035   3.313   3.131   2.740
   62GLOH    O1 9036   3.222   3.145   2.708
   62GLOH    C1 9037   3.130   3.073   2.793
   62GLOH   H02 9038   3.138   3.108   0.054
   62GLOH   H08 9039   3.153   2.967   2.793
   62GLOH    C2 9040   2.984   3.091   2.747
   62GLOH   H04 9041   2.975   3.053   2.644
   62GLOH    O2 9042   2.895   3.016   2.833
   62GLOH   H05 9043   2.888   3.056   0.080
   62GLOH    C3 9044   2.945   3.240   2.747
   62GLOH   H06 9045   2.943   3.276   0.007
   62GLOH   H07 9046   2.844   3.249   2.707
   62GLOH    O3 9047   3.037   3.317   2.668
   62GLOH   H01 9048   3.121   3.264   2.665
   63GLOH   H03 9049   1.568   4.617   2.014
   63GLOH    O1 9050   1.586   4.686   2.084
   63GLOH    C1 9051   1.527   4.641   2.208
   63GLOH   H02 9052   1.603   4.593   2.270
   63GLOH   H08 9053   1.450   4.567   2.189
   63GLOH    C2 9054   1.464   4.757   2.289
   63GLOH   H04 9055   1.540   4.835   2.302
   63GLOH    O2 9056   1.349   4.811   2.220
   63GLOH   H05 9057   1.323   4.899   2.262
   63GLOH    C3 9058   1.422   4.708   2.429
   63GLOH   H06 9059   1.342   4.635   2.417
   63GLOH   H07 9060   1.381   4.793   2.484
   63GLOH    O3 9061   1.532   4.650   2.502
   63GLOH   H01 9062   1.505   4.636   2.595
   64GLOH   H03 9063   0.180   4.189   1.058
   64GLOH    O1 9064   0.177   4.176   1.156
   64GLOH    C1 9065   0.097   4.284   1.209
   64GLOH   H02 9066   9.992   4.268   1.185
   64GLOH   H08 9067   0.126   4.378   1.163
   64GLOH    C2 9068   0.110   4.302   1.362
   64GLOH   H04 9069   0.214   4.330   1.385
   64GLOH    O2 9070   0.021   4.407   1.406
   64GLOH   H05 9071   0.030   4.418   1.506
   64GLOH    C3 9072   0.077   4.170   1.435
   64GLOH   H06 9073   9.973   4.144   1.417
   64GLOH   H07 9074   0.089   4.186   1.542
   64GLOH    O3 9075   0.164   4.065   1.390
   64GLOH   H01 9076   0.175   4.082   1.293
   65GLOH   H03 9077   2.885   7.034   2.000
   65GLOH    O1 9078   2.905   7.111   1.941
   65GLOH    C1 9079   2.986   7.209   2.009
   65GLOH   H02 9080   3.021   7.284   1.939
   65GLOH   H08 9081   3.074   7.162   2.052
   65GLOH    C2 9082   2.912   7.282   2.123
   65GLOH   H04 9083   2.887   7.208   2.201
   65GLOH    O2 9084   2.996   7.384   2.179
   65GLOH   H05 9085   2.941   7.433   2.244
   65GLOH    C3 9086   2.780   7.345   2.074
   65GLOH   H06 9087   2.720   7.268   2.026
   65GLOH   H07 9088   2.803   7.419   1.997
   65GLOH    O3 9089   2.707   7.406   2.182
   65GLOH   H01 9090   2.618   7.437   2.149
   66GLOH   H03 9091   3.841   8.895   1.642
   66GLOH    O1 9092   3.760   8.862   1.594
   66GLOH    C1 9093   3.731   8.732   1.647
   66GLOH   H02 9094   3.715   8.738   1.755
   66GLOH   H08 9095   3.815   8.664   1.631
   66GLOH    C2 9096   3.605   8.670   1.584
   66GLOH   H04 9097   3.588   8.573   1.632
   66GLOH    O2 9098   3.488   8.753   1.607
   66GLOH   H05 9099   3.511   8.849   1.593
   66GLOH    C3 9100   3.628   8.643   1.434
   66GLOH   H06 9101   3.656   8.737   1.385
   66GLOH   H07 9102   3.534   8.611   1.389
   66GLOH    O3 9103   3.730   8.543   1.413
   66GLOH   H01 9104   3.818   8.588   1.400
   67GLOH   H03 9105   3.051   6.085   0.848
   67GLOH    O1 9106   3.028   6.128   0.761
   67GLOH    C1 9107   3.139   6.118   0.670
   67GLOH   H02 9108   3.199   6.029   0.691
   67GLOH   H08 9109   3.204   6.204   0.681
   67GLOH    C2 9110   3.088   6.111   0.525
   67GLOH   H04 9111   3.027   6.200   0.506
   67GLOH    O2 9112   3.200   6.109   0.433
   67GLOH   H05 9113   3.254   6.026   0.449
   67GLOH    C3 9114   2.999   5.987   0.507
   67GLOH   H06 9115   2.920   5.990   0.582
   67GLOH   H07 9116   3.058   5.897   0.528
   67GLOH    O3 9117   2.942   5.979   0.375
   67GLOH   H01 9118   3.008   6.018   0.314
   68GLOH   H03 9119   3.543   4.281   1.390
   68GLOH    O1 9120   3.635   4.254   1.362
   68GLOH    C1 9121   3.713   4.227   1.480
   68GLOH   H02 9122   3.653   4.174   1.554
   68GLOH   H08 9123   3.745   4.320   1.526
   68GLOH    C2 9124   3.837   4.143   1.448
   68GLOH   H04 9125   3.898   4.197   1.374
   68GLOH    O2 9126   3.915   4.122   1.567
   68GLOH   H05 9127   3.859   4.072   1.634
   68GLOH    C3 9128   3.796   4.007   1.387
   68GLOH   H06 9129   3.750   3.946   1.465
   68GLOH   H07 9130   3.886   3.955   1.355
   68GLOH    O3 9131   3.706   4.025   1.277
   68GLOH   H01 9132   3.661   4.112   1.294
   69GLOH   H03 9133   2.018   5.326   1.945
   69GLOH    O1 9134   2.087   5.387   1.908
   69GLOH    C1 9135   2.210   5.316   1.884
   69GLOH   H02 9136   2.290   5.386   1.859
   69GLOH   H08 9137   2.199   5.250   1.798
   69GLOH    C2 9138   2.258   5.230   2.003
   69GLOH   H04 9139   2.184   5.150   2.017
   69GLOH    O2 9140   2.386   5.169   1.974
   69GLOH   H05 9141   2.374   5.092   1.911
   69GLOH    C3 9142   2.263   5.312   2.133
   69GLOH   H06 9143   2.302   5.248   2.212
   69GLOH   H07 9144   2.161   5.338   2.161
   69GLOH    O3 9145   2.342   5.432   2.123
   69GLOH   H01 9146   2.317   5.491   2.199
   70GLOH   H03 9147   2.885   0.982   1.898
   70GLOH    O1 9148   2.822   1.016   1.967
   70GLOH    C1 9149   2.745   1.123   1.905
   70GLOH   H02 9150   2.641   1.093   1.896
   70GLOH   H08 9151   2.781   1.142   1.804
   70GLOH    C2 9152   2.750   1.256   1.982
   70GLOH   H04 9153   2.684   1.327   1.929
   70GLOH    O2 9154   2.702   1.244   2.118
   70GLOH   H05 9155   2.608   1.209   2.118
   70GLOH    C3 9156   2.892   1.315   1.979
   70GLOH   H06 9157   2.961   1.242   2.020
   70GLOH   H07 9158   2.895   1.402   2.045
   70GLOH    O3 9159   2.932   1.352   1.845
   70GLOH   H01 9160   3.023   1.392   1.849
   71GLOH   H03 9161   3.664   4.062   1.087
   71GLOH    O1 9162   3.618   4.142   1.052
   71GLOH    C1 9163   3.662   4.163   0.916
   71GLOH   H02 9164   3.597   4.235   0.866
   71GLOH   H08 9165   3.656   4.071   0.859
   71GLOH    C2 9166   3.807   4.216   0.911
   71GLOH   H04 9167   3.871   4.150   0.972
   71GLOH    O2 9168   3.855   4.219   0.775
   71GLOH   H05 9169   3.828   4.136   0.726
   71GLOH    C3 9170   3.812   4.358   0.971
   71GLOH   H06 9171   3.769   4.427   0.898
   71GLOH   H07 9172   3.916   4.386   0.984
   71GLOH    O3 9173   3.741   4.369   1.096
   71GLOH   H01 9174   3.689   4.286   1.108
   72GLOH   H03 9175   4.066   9.469   1.698
   72GLOH    O1 9176   4.088   9.512   1.612
   72GLOH    C1 9177   4.146   9.417   1.521
   72GLOH   H02 9178   4.155   9.318   1.567
   72GLOH   H08 9179   4.246   9.448   1.493
   72GLOH    C2 9180   4.063   9.402   1.391
   72GLOH   H04 9181   4.050   9.503   1.349
   72GLOH    O2 9182   4.132   9.320   1.294
   72GLOH   H05 9183   4.105   9.351   1.202
   72GLOH    C3 9184   3.923   9.347   1.423
   72GLOH   H06 9185   3.868   9.338   1.329
   72GLOH   H07 9186   3.870   9.420   1.483
   72GLOH    O3 9187   3.924   9.220   1.491
   72GLOH   H01 9188   3.877   9.153   1.435
   73GLOH   H03 9189   4.221   1.250   2.081
   73GLOH    O1 9190   4.305   1.282   2.037
   73GLOH    C1 9191   4.405   1.180   2.051
   73GLOH   H02 9192   4.367   1.084   2.015
   73GLOH   H08 9193   4.431   1.166   2.156
   73GLOH    C2 9194   4.533   1.214   1.973
   73GLOH   H04 9195   4.580   1.301   2.022
   73GLOH    O2 9196   4.626   1.103   1.976
   73GLOH   H05 9197   4.681   1.114   2.059
   73GLOH    C3 9198   4.499   1.254   1.828
   73GLOH   H06 9199   4.440   1.346   1.831
   73GLOH   H07 9200   4.436   1.176   1.786
   73GLOH    O3 9201   4.616   1.272   1.748
   73GLOH   H01 9202   4.689   1.224   1.794
   74GLOH   H03 9203   4.989   3.072   2.243
   74GLOH    O1 9204   5.085   3.059   2.269
   74GLOH    C1 9205   5.098   3.094   2.408
   74GLOH   H02 9206   5.193   3.058   2.447
   74GLOH   H08 9207   5.020   3.046   2.467
   74GLOH    C2 9208   5.090   3.247   2.430
   74GLOH   H04 9209   4.990   3.280   2.398
   74GLOH    O2 9210   5.106   3.278   2.570
   74GLOH   H05 9211   5.175   3.222   2.611
   74GLOH    C3 9212   5.195   3.323   2.346
   74GLOH   H06 9213   5.293   3.310   2.390
   74GLOH   H07 9214   5.172   3.430   2.352
   74GLOH    O3 9215   5.193   3.279   2.209
   74GLOH   H01 9216   5.161   3.185   2.212
   75GLOH   H03 9217   2.555   5.238   0.938
   75GLOH    O1 9218   2.575   5.244   0.841
   75GLOH    C1 9219   2.490   5.345   0.782
   75GLOH   H02 9220   2.434   5.398   0.859
   75GLOH   H08 9221   2.417   5.298   0.716
   75GLOH    C2 9222   2.569   5.449   0.700
   75GLOH   H04 9223   2.497   5.523   0.663
   75GLOH    O2 9224   2.666   5.519   0.783
   75GLOH   H05 9225   2.706   5.596   0.731
   75GLOH    C3 9226   2.636   5.382   0.579
   75GLOH   H06 9227   2.698   5.300   0.613
   75GLOH   H07 9228   2.703   5.454   0.532
   75GLOH    O3 9229   2.539   5.336   0.483
   75GLOH   H01 9230   2.543   5.237   0.476
   76GLOH   H03 9231   2.969   0.150   1.737
   76GLOH    O1 9232   2.896   0.114   1.794
   76GLOH    C1 9233   2.936   0.137   1.930
   76GLOH   H02 9234   3.020   0.206   1.936
   76GLOH   H08 9235   2.969   0.043   1.975
   76GLOH    C2 9236   2.823   0.195   2.018
   76GLOH   H04 9237   2.863   0.208   2.119
   76GLOH    O2 9238   2.778   0.323   1.970
   76GLOH   H05 9239   2.786   0.327   1.871
   76GLOH    C3 9240   2.707   0.094   2.027
   76GLOH   H06 9241   2.673   0.071   1.926
   76GLOH   H07 9242   2.624   0.141   2.079
   76GLOH    O3 9243   2.746   9.973   2.094
   76GLOH   H01 9244   2.667   9.913   2.098
   77GLOH   H03 9245   4.963   1.453   0.354
   77GLOH    O1 9246   4.881   1.454   0.300
   77GLOH    C1 9247   4.913   1.522   0.177
   77GLOH   H02 9248   5.000   1.475   0.130
   77GLOH   H08 9249   4.941   1.625   0.200
   77GLOH    C2 9250   4.799   1.524   0.075
   77GLOH   H04 9251   4.710   1.567   0.123
   77GLOH    O2 9252   4.836   1.607   2.804
   77GLOH   H05 9253   4.857   1.698   2.840
   77GLOH    C3 9254   4.766   1.381   0.030
   77GLOH   H06 9255   4.739   1.322   0.118
   77GLOH   H07 9256   4.855   1.336   2.829
   77GLOH    O3 9257   4.659   1.377   2.776
   77GLOH   H01 9258   4.668   1.456   2.719
   78GLOH   H03 9259   5.101   2.335   2.128
   78GLOH    O1 9260   5.137   2.294   2.046
   78GLOH    C1 9261   5.031   2.225   1.977
   78GLOH   H02 9262   4.949   2.294   1.953
   78GLOH   H08 9263   4.989   2.147   2.040
   78GLOH    C2 9264   5.079   2.160   1.845
   78GLOH   H04 9265   5.145   2.076   1.872
   78GLOH    O2 9266   4.966   2.108   1.771
   78GLOH   H05 9267   4.935   2.176   1.706
   78GLOH    C3 9268   5.160   2.260   1.762
   78GLOH   H06 9269   5.096   2.345   1.736
   78GLOH   H07 9270   5.191   2.214   1.668
   78GLOH    O3 9271   5.275   2.307   1.835
   78GLOH   H01 9272   5.243   2.310   1.929
   79GLOH   H03 9273   4.446   0.986   0.592
   79GLOH    O1 9274   4.350   1.013   0.600
   79GLOH    C1 9275   4.287   0.996   0.472
   79GLOH   H02 9276   4.180   1.012   0.481
   79GLOH   H08 9277   4.300   0.894   0.436
   79GLOH    C2 9278   4.343   1.093   0.366
   79GLOH   H04 9279   4.337   1.195   0.405
   79GLOH    O2 9280   4.480   1.061   0.336
   79GLOH   H05 9281   4.530   1.142   0.314
   79GLOH    C3 9282   4.258   1.086   0.237
   79GLOH   H06 9283   4.268   0.986   0.194
   79GLOH   H07 9284   4.301   1.155   0.164
   79GLOH    O3 9285   4.120   1.117   0.260
   79GLOH   H01 9286   4.112   1.210   0.292
   80GLOH   H03 9287   4.505   0.297   1.506
   80GLOH    O1 9288   4.457   0.251   1.579
   80GLOH    C1 9289   4.355   0.165   1.524
   80GLOH   H02 9290   4.282   0.141   1.602
   80GLOH   H08 9291   4.398   0.071   1.491
   80GLOH    C2 9292   4.278   0.228   1.406
   80GLOH   H04 9293   4.240   0.326   1.439
   80GLOH    O2 9294   4.366   0.249   1.293
   80GLOH   H05 9295   4.438   0.312   1.320
   80GLOH    C3 9296   4.158   0.141   1.364
   80GLOH   H06 9297   4.196   0.043   1.335
   80GLOH   H07 9298   4.113   0.185   1.275
   80GLOH    O3 9299   4.060   0.129   1.468
   80GLOH   H01 9300   3.969   0.137   1.429
   81GLOH   H03 9301   4.165   3.474   0.225
   81GLOH    O1 9302   4.185   3.392   0.173
   81GLOH    C1 9303   4.067   3.358   0.096
   81GLOH   H02 9304   4.088   3.271   0.034
   81GLOH   H08 9305   4.042   3.440   0.027
   81GLOH    C2 9306   3.944   3.330   0.184
   81GLOH   H04 9307   3.973   3.255   0.260
   81GLOH    O2 9308   3.899   3.450   0.251
   81GLOH   H05 9309   3.978   3.501   0.282
   81GLOH    C3 9310   3.829   3.271   0.101
   81GLOH   H06 9311   3.796   3.346   0.030
   81GLOH   H07 9312   3.745   3.251   0.168
   81GLOH    O3 9313   3.867   3.150   0.033
   81GLOH   H01 9314   3.789   3.095   0.016
   82GLOH   H03 9315   3.426   2.501   1.289
   82GLOH    O1 9316   3.433   2.582   1.231
   82GLOH    C1 9317   3.566   2.581   1.175
   82GLOH   H02 9318   3.580   2.490   1.115
   82GLOH   H08 9319   3.640   2.577   1.254
   82GLOH    C2 9320   3.597   2.702   1.086
   82GLOH   H04 9321   3.704   2.698   1.061
   82GLOH    O2 9322   3.520   2.698   0.963
   82GLOH   H05 9323   3.446   2.766   0.967
   82GLOH    C3 9324   3.572   2.832   1.164
   82GLOH   H06 9325   3.628   2.827   1.257
   82GLOH   H07 9326   3.467   2.835   1.192
   82GLOH    O3 9327   3.608   2.950   1.091
   82GLOH   H01 9328   3.537   3.018   1.111
   83GLOH   H03 9329   4.209   8.258   0.697
   83GLOH    O1 9330   4.221   8.205   0.780
   83GLOH    C1 9331   4.323   8.272   0.856
   83GLOH   H02 9332   4.285   8.366   0.895
   83GLOH   H08 9333   4.408   8.296   0.792
   83GLOH    C2 9334   4.376   8.189   0.975
   83GLOH   H04 9335   4.424   8.099   0.933
   83GLOH    O2 9336   4.476   8.268   1.043
   83GLOH   H05 9337   4.459   8.270   1.140
   83GLOH    C3 9338   4.263   8.142   1.069
   83GLOH   H06 9339   4.306   8.069   1.138
   83GLOH   H07 9340   4.189   8.089   1.010
   83GLOH    O3 9341   4.200   8.248   1.144
   83GLOH   H01 9342   4.119   8.209   1.188
   84GLOH   H03 9343   0.233   4.969   2.612
   84GLOH    O1 9344   0.167   4.967   2.685
   84GLOH    C1 9345   0.158   5.099   2.741
   84GLOH   H02 9346   0.134   5.172   2.663
   84GLOH   H08 9347   0.255   5.129   2.783
   84GLOH    C2 9348   0.051   5.110   0.010
   84GLOH   H04 9349   0.034   5.217   0.028
   84GLOH    O2 9350   9.928   5.051   2.806
   84GLOH   H05 9351   9.954   4.981   2.742
   84GLOH    C3 9352   0.099   5.047   0.141
   84GLOH   H06 9353   0.131   4.945   0.120
   84GLOH   H07 9354   0.014   5.040   0.209
   84GLOH    O3 9355   0.207   5.121   0.203
   84GLOH   H01 9356   0.178   5.159   0.289
   85GLOH   H03 9357   3.384   1.517   2.319
   85GLOH    O1 9358   3.456   1.461   2.358
   85GLOH    C1 9359   3.425   1.426   2.494
   85GLOH   H02 9360   3.322   1.452   2.519
   85GLOH   H08 9361   3.489   1.482   2.562
   85GLOH    C2 9362   3.446   1.276   2.522
   85GLOH   H04 9363   3.543   1.245   2.482
   85GLOH    O2 9364   3.441   1.251   2.664
   85GLOH   H05 9365   3.528   1.266   2.705
   85GLOH    C3 9366   3.336   1.191   2.455
   85GLOH   H06 9367   3.240   1.218   2.500
   85GLOH   H07 9368   3.353   1.086   2.481
   85GLOH    O3 9369   3.327   1.205   2.311
   85GLOH   H01 9370   3.418   1.211   2.272
   86GLOH   H03 9371   2.640   6.861   0.675
   86GLOH    O1 9372   2.729   6.829   0.704
   86GLOH    C1 9373   2.813   6.817   0.587
   86GLOH   H02 9374   2.810   6.908   0.528
   86GLOH   H08 9375   2.777   6.736   0.523
   86GLOH    C2 9376   2.960   6.786   0.622
   86GLOH   H04 9377   2.965   6.684   0.664
   86GLOH    O2 9378   3.042   6.791   0.503
   86GLOH   H05 9379   3.053   6.886   0.473
   86GLOH    C3 9380   3.011   6.883   0.731
   86GLOH   H06 9381   3.013   6.985   0.689
   86GLOH   H07 9382   3.114   6.857   0.756
   86GLOH    O3 9383   2.928   6.878   0.848
   86GLOH   H01 9384   2.837   6.856   0.812
   87GLOH   H03 9385   5.021   4.268   0.583
   87GLOH    O1 9386   5.027   4.299   0.489
   87GLOH    C1 9387   4.997   4.440   0.492
   87GLOH   H02 9388   4.926   4.462   0.572
   87GLOH   H08 9389   4.949   4.471   0.399
   87GLOH    C2 9390   5.122   4.528   0.514
   87GLOH   H04 9391   5.089   4.633   0.522
   87GLOH    O2 9392   5.192   4.491   0.635
   87GLOH   H05 9393   5.132   4.501   0.714
   87GLOH    C3 9394   5.216   4.516   0.393
   87GLOH   H06 9395   5.249   4.413   0.385
   87GLOH   H07 9396   5.304   4.577   0.412
   87GLOH    O3 9397   5.155   4.557   0.269
   87GLOH   H01 9398   5.194   4.504   0.197
   88GLOH   H03 9399   4.190   1.196   1.131
   88GLOH    O1 9400   4.175   1.241   1.218
   88GLOH    C1 9401   4.287   1.327   1.245
   88GLOH   H02 9402   4.377   1.268   1.259
   88GLOH   H08 9403   4.270   1.381   1.338
   88GLOH    C2 9404   4.312   1.429   1.133
   88GLOH   H04 9405   4.219   1.487   1.120
   88GLOH    O2 9406   4.418   1.520   1.169
   88GLOH   H05 9407   4.493   1.471   1.213
   88GLOH    C3 9408   4.342   1.359   0.999
   88GLOH   H06 9409   4.433   1.299   1.012
   88GLOH   H07 9410   4.365   1.434   0.924
   88GLOH    O3 9411   4.233   1.276   0.955
   88GLOH   H01 9412   4.244   1.259   0.857
   89GLOH   H03 9413   1.163   5.698   1.699
   89GLOH    O1 9414   1.126   5.790   1.705
   89GLOH    C1 9415   1.239   5.879   1.692
   89GLOH   H02 9416   1.220   5.952   1.612
   89GLOH   H08 9417   1.328   5.823   1.662
   89GLOH    C2 9418   1.276   5.957   1.820
   89GLOH   H04 9419   1.376   6.000   1.805
   89GLOH    O2 9420   1.182   6.064   1.845
   89GLOH   H05 9421   1.193   6.134   1.773
   89GLOH    C3 9422   1.282   5.864   1.942
   89GLOH   H06 9423   1.181   5.844   1.977
   89GLOH   H07 9424   1.333   5.918   2.022
   89GLOH    O3 9425   1.350   5.739   1.917
   89GLOH   H01 9426   1.298   5.670   1.965
   90GLOH   H03 9427   3.338   5.512   1.561
   90GLOH    O1 9428   3.352   5.610   1.563
   90GLOH    C1 9429   3.274   5.672   1.459
   90GLOH   H02 9430   3.168   5.661   1.479
   90GLOH   H08 9431   3.294   5.623   1.363
   90GLOH    C2 9432   3.306   5.822   1.444
   90GLOH   H04 9433   3.412   5.832   1.413
   90GLOH    O2 9434   3.222   5.883   1.342
   90GLOH   H05 9435   3.128   5.887   1.376
   90GLOH    C3 9436   3.290   5.896   1.578
   90GLOH   H06 9437   3.184   5.897   1.605
   90GLOH   H07 9438   3.321   5.999   1.566
   90GLOH    O3 9439   3.367   5.833   1.682
   90GLOH   H01 9440   3.376   5.739   1.653
   91GLOH   H03 9441   4.366   9.103   0.583
   91GLOH    O1 9442   4.455   9.078   0.548
   91GLOH    C1 9443   4.534   9.025   0.656
   91GLOH   H02 9444   4.532   9.092   0.741
   91GLOH   H08 9445   4.638   9.014   0.625
   91GLOH    C2 9446   4.483   8.887   0.702
   91GLOH   H04 9447   4.385   8.900   0.749
   91GLOH    O2 9448   4.470   8.799   0.589
   91GLOH   H05 9449   4.467   8.857   0.510
   91GLOH    C3 9450   4.578   8.827   0.807
   91GLOH   H06 9451   4.677   8.817   0.762
   91GLOH   H07 9452   4.544   8.727   0.831
   91GLOH    O3 9453   4.586   8.907   0.926
   91GLOH   H01 9454   4.644   8.859   0.991
   92GLOH   H03 9455   3.211   6.449   2.739
   92GLOH    O1 9456   3.235   6.508   2.664
   92GLOH    C1 9457   3.235   6.645   2.708
   92GLOH   H02 9458   3.298   6.706   2.643
   92GLOH   H08 9459   3.278   6.653   2.809
   92GLOH    C2 9460   3.094   6.706   2.711
   92GLOH   H04 9461   3.101   6.809   2.749
   92GLOH    O2 9462   3.038   6.708   2.577
   92GLOH   H05 9463   3.059   6.622   2.534
   92GLOH    C3 9464   3.003   6.625   2.806
   92GLOH   H06 9465   2.982   6.528   2.761
   92GLOH   H07 9466   2.907   6.677   2.814
   92GLOH    O3 9467   3.062   6.608   0.094
   92GLOH   H01 9468   3.037   6.683   0.152
   93GLOH   H03 9469   3.251   5.880   1.192
   93GLOH    O1 9470   3.261   5.886   1.093
   93GLOH    C1 9471   3.304   5.758   1.042
   93GLOH   H02 9472   3.340   5.694   1.123
   93GLOH   H08 9473   3.388   5.772   0.973
   93GLOH    C2 9474   3.192   5.685   0.967
   93GLOH   H04 9475   3.163   5.747   0.881
   93GLOH    O2 9476   3.237   5.556   0.917
   93GLOH   H05 9477   3.243   5.493   0.994
   93GLOH    C3 9478   3.067   5.671   1.057
   93GLOH   H06 9479   2.993   5.609   1.005
   93GLOH   H07 9480   3.022   5.770   1.068
   93GLOH    O3 9481   3.096   5.617   1.186
   93GLOH   H01 9482   3.155   5.538   1.174
   94GLOH   H03 9483   1.013   4.337   1.104
   94GLOH    O1 9484   0.963   4.252   1.102
   94GLOH    C1 9485   0.841   4.267   1.028
   94GLOH   H02 9486   0.847   4.350   0.957
   94GLOH   H08 9487   0.759   4.289   1.096
   94GLOH    C2 9488   0.809   4.138   0.951
   94GLOH   H04 9489   0.813   4.053   1.021
   94GLOH    O2 9490   0.677   4.145   0.891
   94GLOH   H05 9491   0.619   4.207   0.943
   94GLOH    C3 9492   0.916   4.117   0.843
   94GLOH   H06 9493   1.014   4.134   0.887
   94GLOH   H07 9494   0.903   4.194   0.766
   94GLOH    O3 9495   0.911   3.986   0.783
   94GLOH   H01 9496   0.920   3.997   0.685
   95GLOH   H03 9497   2.357   7.684   2.383
   95GLOH    O1 9498   2.306   7.660   2.465
   95GLOH    C1 9499   2.174   7.626   2.419
   95GLOH   H02 9500   2.177   7.535   2.359
   95GLOH   H08 9501   2.135   7.705   2.355
   95GLOH    C2 9502   2.074   7.606   2.534
   95GLOH   H04 9503   2.068   7.700   2.591
   95GLOH    O2 9504   1.943   7.575   2.482
   95GLOH   H05 9505   1.949   7.505   2.414
   95GLOH    C3 9506   2.122   7.495   2.629
   95GLOH   H06 9507   2.222   7.518   2.662
   95GLOH   H07 9508   2.127   7.401   2.573
   95GLOH    O3 9509   2.034   7.481   2.742
   95GLOH   H01 9510   1.943   7.501   2.710
   96GLOH   H03 9511   3.770   8.884   0.278
   96GLOH    O1 9512   3.712   8.953   0.237
   96GLOH    C1 9513   3.774   9.011   0.119
   96GLOH   H02 9514   3.775   8.939   0.038
   96GLOH   H08 9515   3.878   9.037   0.140
   96GLOH    C2 9516   3.701   9.138   0.070
   96GLOH   H04 9517   3.707   9.214   0.149
   96GLOH    O2 9518   3.765   9.190   2.793
   96GLOH   H05 9519   3.748   9.133   2.716
   96GLOH    C3 9520   3.552   9.110   0.042
   96GLOH   H06 9521   3.544   9.046   2.796
   96GLOH   H07 9522   3.503   9.204   0.018
   96GLOH    O3 9523   3.490   9.049   0.156
   96GLOH   H01 9524   3.562   9.003   0.205
   97GLOH   H03 9525   4.816   2.240   1.535
   97GLOH    O1 9526   4.881   2.282   1.598
   97GLOH    C1 9527   4.862   2.425   1.596
   97GLOH   H02 9528   4.892   2.466   1.499
   97GLOH   H08 9529   4.927   2.473   1.670
   97GLOH    C2 9530   4.717   2.468   1.624
   97GLOH   H04 9531   4.716   2.578   1.630
   97GLOH    O2 9532   4.628   2.427   1.518
   97GLOH   H05 9533   4.651   2.334   1.489
   97GLOH    C3 9534   4.674   2.414   1.762
   97GLOH   H06 9535   4.737   2.461   1.837
   97GLOH   H07 9536   4.696   2.307   1.766
   97GLOH    O3 9537   4.535   2.436   1.794
   97GLOH   H01 9538   4.514   2.533   1.782
   98GLOH   H03 9539   0.696   4.560   1.111
   98GLOH    O1 9540   0.602   4.543   1.136
   98GLOH    C1 9541   0.572   4.628   1.248
   98GLOH   H02 9542   0.575   4.733   1.218
   98GLOH   H08 9543   0.648   4.616   1.326
   98GLOH    C2 9544   0.434   4.600   1.311
   98GLOH   H04 9545   0.430   4.494   1.340
   98GLOH    O2 9546   0.412   4.683   1.427
   98GLOH   H05 9547   0.495   4.689   1.483
   98GLOH    C3 9548   0.322   4.628   1.209
   98GLOH   H06 9549   0.321   4.734   1.186
   98GLOH   H07 9550   0.226   4.604   1.255
   98GLOH    O3 9551   0.338   4.551   1.088
   98GLOH   H01 9552   0.434   4.557   1.064
   99GLOH   H03 9553   3.077   3.775   2.840
   99GLOH    O1 9554   2.993   3.804   0.041
   99GLOH    C1 9555   2.891   3.711   0.003
   99GLOH   H02 9556   2.866   3.723   2.739
   99GLOH   H08 9557   2.800   3.731   0.059
   99GLOH    C2 9558   2.932   3.565   0.026
   99GLOH   H04 9559   2.852   3.499   2.831
   99GLOH    O2 9560   3.054   3.536   2.796
   99GLOH   H05 9561   3.042   3.456   2.737
   99GLOH    C3 9562   2.952   3.538   0.176
   99GLOH   H06 9563   3.031   3.604   0.212
   99GLOH   H07 9564   2.990   3.436   0.188
   99GLOH    O3 9565   2.832   3.556   0.255
   99GLOH   H01 9566   2.859   3.596   0.340
  100GLOH   H03 9567   3.390   5.019   1.985
  100GLOH    O1 9568   3.326   4.973   2.045
  100GLOH    C1 9569   3.207   4.942   1.969
  100GLOH   H02 9570   3.161   5.033   1.933
  100GLOH   H08 9571   3.134   4.896   2.035
  100GLOH    C2 9572   3.229   4.845   1.851
  100GLOH   H04 9573   3.133   4.836   1.799
  100GLOH    O2 9574   3.325   4.896   1.756
  100GLOH   H05 9575   3.288   4.980   1.719
  100GLOH    C3 9576   3.266   4.705   1.902
  100GLOH   H06 9577   3.358   4.712   1.960
  100GLOH   H07 9578   3.287   4.641   1.817
  100GLOH    O3 9579   3.160   4.649   1.982
  100GLOH   H01 9580   3.182   4.662   2.078
  101GLOH   H03 9581   3.349   5.726   2.472
  101GLOH    O1 9582   3.403   5.679   2.538
  101GLOH    C1 9583   3.537   5.660   2.488
  101GLOH   H02 9584   3.597   5.607   2.562
  101GLOH   H08 9585   3.585   5.756   2.472
  101GLOH    C2 9586   3.540   5.580   2.357
  101GLOH   H04 9587   3.464   5.622   2.290
  101GLOH    O2 9588   3.668   5.590   2.292
  101GLOH   H05 9589   3.662   5.541   2.204
  101GLOH    C3 9590   3.500   5.433   2.382
  101GLOH   H06 9591   3.506   5.379   2.287
  101GLOH   H07 9592   3.395   5.431   2.413
  101GLOH    O3 9593   3.581   5.367   2.481
  101GLOH   H01 9594   3.568   5.270   2.475
  102GLOH   H03 9595   2.646   2.287   0.466
  102GLOH    O1 9596   2.732   2.334   0.481
  102GLOH    C1 9597   2.824   2.299   0.376
  102GLOH   H02 9598   2.922   2.342   0.396
  102GLOH   H08 9599   2.791   2.342   0.281
  102GLOH    C2 9600   2.841   2.147   0.356
  102GLOH   H04 9601   2.743   2.106   0.328
  102GLOH    O2 9602   2.935   2.119   0.250
  102GLOH   H05 9603   3.029   2.127   0.284
  102GLOH    C3 9604   2.886   2.078   0.486
  102GLOH   H06 9605   2.807   2.088   0.561
  102GLOH   H07 9606   2.973   2.128   0.527
  102GLOH    O3 9607   2.914   1.939   0.460
  102GLOH   H01 9608   2.908   1.931   0.362
  103GLOH   H03 9609   3.037   1.578   1.946
  103GLOH    O1 9610   2.990   1.633   2.014
  103GLOH    C1 9611   3.090   1.684   2.104
  103GLOH   H02 9612   3.046   1.759   2.170
  103GLOH   H08 9613   3.168   1.736   2.047
  103GLOH    C2 9614   3.156   1.575   2.190
  103GLOH   H04 9615   3.153   1.480   2.134
  103GLOH    O2 9616   3.295   1.607   2.215
  103GLOH   H05 9617   3.345   1.567   2.137
  103GLOH    C3 9618   3.081   1.552   2.323
  103GLOH   H06 9619   3.056   1.649   2.366
  103GLOH   H07 9620   3.148   1.503   2.393
  103GLOH    O3 9621   2.963   1.473   2.307
  103GLOH   H01 9622   2.993   1.379   2.290
  104GLOH   H03 9623   5.026   1.729   2.471
  104GLOH    O1 9624   5.042   1.765   2.380
  104GLOH    C1 9625   5.048   1.657   2.285
  104GLOH   H02 9626   4.968   1.585   2.305
  104GLOH   H08 9627   5.142   1.603   2.295
  104GLOH    C2 9628   5.035   1.704   2.138
  104GLOH   H04 9629   5.065   1.620   2.073
  104GLOH    O2 9630   4.898   1.739   2.104
  104GLOH   H05 9631   4.898   1.790   2.019
  104GLOH    C3 9632   5.130   1.821   2.110
  104GLOH   H06 9633   5.121   1.851   2.005
  104GLOH   H07 9634   5.233   1.787   2.124
  104GLOH    O3 9635   5.103   1.932   2.196
  104GLOH   H01 9636   5.074   1.892   2.282
  105GLOH   H03 9637   2.625   3.682   2.827
  105GLOH    O1 9638   2.593   3.595   2.793
  105GLOH    C1 9639   2.475   3.560   0.025
  105GLOH   H02 9640   2.425   3.476   2.818
  105GLOH   H08 9641   2.404   3.643   0.025
  105GLOH    C2 9642   2.504   3.520   0.171
  105GLOH   H04 9643   2.563   3.427   0.170
  105GLOH    O2 9644   2.579   3.623   0.240
  105GLOH   H05 9645   2.676   3.598   0.235
  105GLOH    C3 9646   2.372   3.494   0.246
  105GLOH   H06 9647   2.311   3.585   0.241
  105GLOH   H07 9648   2.394   3.476   0.351
  105GLOH    O3 9649   2.300   3.383   0.190
  105GLOH   H01 9650   2.307   3.306   0.250
  106GLOH   H03 9651   3.572   8.124   0.965
  106GLOH    O1 9652   3.629   8.101   0.887
  106GLOH    C1 9653   3.693   7.975   0.915
  106GLOH   H02 9654   3.726   7.929   0.822
  106GLOH   H08 9655   3.621   7.905   0.959
  106GLOH    C2 9656   3.814   7.988   1.010
  106GLOH   H04 9657   3.885   8.060   0.965
  106GLOH    O2 9658   3.774   8.038   1.139
  106GLOH   H05 9659   3.704   7.976   1.176
  106GLOH    C3 9660   3.886   7.853   1.023
  106GLOH   H06 9661   3.825   7.785   1.083
  106GLOH   H07 9662   3.979   7.868   1.078
  106GLOH    O3 9663   3.914   7.794   0.894
  106GLOH   H01 9664   3.975   7.856   0.845
  107GLOH   H03 9665   5.389   2.631   2.377
  107GLOH    O1 9666   5.402   2.633   2.476
  107GLOH    C1 9667   5.359   2.760   2.527
  107GLOH   H02 9668   5.358   2.835   2.447
  107GLOH   H08 9669   5.428   2.796   2.603
  107GLOH    C2 9670   5.217   2.754   2.587
  107GLOH   H04 9671   5.218   2.682   2.671
  107GLOH    O2 9672   5.177   2.884   2.635
  107GLOH   H05 9673   5.083   2.878   2.660
  107GLOH    C3 9674   5.118   2.704   2.480
  107GLOH   H06 9675   5.153   2.608   2.444
  107GLOH   H07 9676   5.123   2.774   2.396
  107GLOH    O3 9677   4.983   2.694   2.529
  107GLOH   H01 9678   4.975   2.615   2.585
  108GLOH   H03 9679   3.878   9.780   2.307
  108GLOH    O1 9680   3.903   9.850   2.371
  108GLOH    C1 9681   3.864   9.979   2.320
  108GLOH   H02 9682   3.951   0.044   2.316
  108GLOH   H08 9683   3.795   0.026   2.389
  108GLOH    C2 9684   3.798   9.977   2.181
  108GLOH   H04 9685   3.703   9.922   2.189
  108GLOH    O2 9686   3.770   0.113   2.140
  108GLOH   H05 9687   3.857   0.163   2.136
  108GLOH    C3 9688   3.886   9.907   2.075
  108GLOH   H06 9689   3.976   9.967   2.060
  108GLOH   H07 9690   3.832   9.909   1.980
  108GLOH    O3 9691   3.923   9.772   2.109
  108GLOH   H01 9692   4.019   9.776   2.138
  109GLOH   H03 9693   3.881   2.378   2.741
  109GLOH    O1 9694   3.897   2.475   2.739
  109GLOH    C1 9695   4.028   2.500   2.687
  109GLOH   H02 9696   4.104   2.463   2.755
  109GLOH   H08 9697   4.044   2.608   2.678
  109GLOH    C2 9698   4.050   2.436   2.548
  109GLOH   H04 9699   4.148   2.469   2.510
  109GLOH    O2 9700   4.048   2.292   2.559
  109GLOH   H05 9701   4.138   2.258   2.578
  109GLOH    C3 9702   3.940   2.484   2.451
  109GLOH   H06 9703   3.921   2.589   2.470
  109GLOH   H07 9704   3.848   2.431   2.475
  109GLOH    O3 9705   3.974   2.464   2.312
  109GLOH   H01 9706   3.972   2.367   2.290
  110GLOH   H03 9707   4.180   9.502   0.119
  110GLOH    O1 9708   4.144   9.516   0.209
  110GLOH    C1 9709   4.208   9.424   0.301
  110GLOH   H02 9710   4.235   9.475   0.393
  110GLOH   H08 9711   4.302   9.386   0.258
  110GLOH    C2 9712   4.119   9.304   0.336
  110GLOH   H04 9713   4.094   9.250   0.244
  110GLOH    O2 9714   4.189   9.215   0.426
  110GLOH   H05 9715   4.139   9.128   0.432
  110GLOH    C3 9716   3.988   9.352   0.401
  110GLOH   H06 9717   4.011   9.403   0.495
  110GLOH   H07 9718   3.926   9.266   0.426
  110GLOH    O3 9719   3.917   9.441   0.313
  110GLOH   H01 9720   3.987   9.489   0.262
  111GLOH   H03 9721   2.816   5.181   1.693
  111GLOH    O1 9722   2.842   5.092   1.729
  111GLOH    C1 9723   2.924   5.021   1.633
  111GLOH   H02 9724   2.867   5.005   1.541
  111GLOH   H08 9725   2.949   4.923   1.672
  111GLOH    C2 9726   3.057   5.091   1.596
  111GLOH   H04 9727   3.033   5.194   1.564
  111GLOH    O2 9728   3.149   5.097   1.706
  111GLOH   H05 9729   3.145   5.189   1.748
  111GLOH    C3 9730   3.123   5.017   1.478
  111GLOH   H06 9731   3.135   4.912   1.504
  111GLOH   H07 9732   3.222   5.059   1.462
  111GLOH    O3 9733   3.043   5.031   1.359
  111GLOH   H01 9734   3.041   4.946   1.307
  112GLOH   H03 9735   3.458   5.364   1.867
  112GLOH    O1 9736   3.391   5.408   1.926
  112GLOH    C1 9737   3.441   5.542   1.947
  112GLOH   H02 9738   3.400   5.585   2.038
  112GLOH   H08 9739   3.408   5.607   1.865
  112GLOH    C2 9740   3.595   5.549   1.955
  112GLOH   H04 9741   3.622   5.655   1.967
  112GLOH    O2 9742   3.647   5.476   2.069
  112GLOH   H05 9743   3.663   5.380   2.045
  112GLOH    C3 9744   3.655   5.499   1.822
  112GLOH   H06 9745   3.763   5.492   1.834
  112GLOH   H07 9746   3.636   5.574   1.746
  112GLOH    O3 9747   3.601   5.372   1.781
  112GLOH   H01 9748   3.618   5.364   1.683
  113GLOH   H03 9749   3.944   9.606   2.605
  113GLOH    O1 9750   4.019   9.658   2.569
  113GLOH    C1 9751   4.040   9.772   2.656
  113GLOH   H02 9752   4.064   9.738   2.757
  113GLOH   H08 9753   3.949   9.832   2.663
  113GLOH    C2 9754   4.155   9.864   2.608
  113GLOH   H04 9755   4.247   9.804   2.601
  113GLOH    O2 9756   4.125   9.921   2.478
  113GLOH   H05 9757   4.038   9.884   2.445
  113GLOH    C3 9758   4.179   9.976   2.710
  113GLOH   H06 9759   4.092   0.042   2.711
  113GLOH   H07 9760   4.264   0.036   2.676
  113GLOH    O3 9761   4.203   9.924   0.000
  113GLOH   H01 9762   4.221   9.997   0.062
  114GLOH   H03 9763   9.182   5.310   1.441
  114GLOH    O1 9764   9.237   5.318   1.523
  114GLOH    C1 9765   9.341   5.218   1.515
  114GLOH   H02 9766   9.308   5.125   1.563
  114GLOH   H08 9767   9.430   5.251   1.568
  114GLOH    C2 9768   9.380   5.186   1.370
  114GLOH   H04 9769   9.421   5.278   1.325
  114GLOH    O2 9770   9.481   5.083   1.364
  114GLOH   H05 9771   9.508   5.069   1.269
  114GLOH    C3 9772   9.254   5.146   1.291
  114GLOH   H06 9773   9.206   5.063   1.342
  114GLOH   H07 9774   9.283   5.111   1.192
  114GLOH    O3 9775   9.162   5.256   1.280
  114GLOH   H01 9776   9.150   5.275   1.184
  115GLOH   H03 9777   2.570   0.738   0.237
  115GLOH    O1 9778   2.485   0.766   0.196
  115GLOH    C1 9779   2.409   0.648   0.162
  115GLOH   H02 9780   2.303   0.671   0.165
  115GLOH   H08 9781   2.426   0.569   0.236
  115GLOH    C2 9782   2.444   0.594   0.023
  115GLOH   H04 9783   2.386   0.503   0.005
  115GLOH    O2 9784   2.410   0.693   2.765
  115GLOH   H05 9785   2.424   0.781   2.808
  115GLOH    C3 9786   2.594   0.559   0.013
  115GLOH   H06 9787   2.652   0.651   0.011
  115GLOH   H07 9788   2.611   0.509   2.760
  115GLOH    O3 9789   2.637   0.475   0.122
  115GLOH   H01 9790   2.730   0.449   0.108
  116GLOH   H03 9791   4.592   0.619   0.926
  116GLOH    O1 9792   4.616   0.692   0.863
  116GLOH    C1 9793   4.535   0.681   0.744
  116GLOH   H02 9794   4.456   0.756   0.747
  116GLOH   H08 9795   4.485   0.584   0.740
  116GLOH    C2 9796   4.615   0.700   0.614
  116GLOH   H04 9797   4.691   0.620   0.608
  116GLOH    O2 9798   4.529   0.690   0.498
  116GLOH   H05 9799   4.526   0.779   0.457
  116GLOH    C3 9800   4.686   0.836   0.613
  116GLOH   H06 9801   4.753   0.840   0.527
  116GLOH   H07 9802   4.749   0.843   0.702
  116GLOH    O3 9803   4.593   0.945   0.608
  116GLOH   H01 9804   4.623   1.016   0.672
  117GLOH   H03 9805   3.205   7.847   0.623
  117GLOH    O1 9806   3.235   7.834   0.717
  117GLOH    C1 9807   3.283   7.699   0.733
  117GLOH   H02 9808   3.205   7.628   0.704
  117GLOH   H08 9809   3.306   7.680   0.838
  117GLOH    C2 9810   3.410   7.669   0.652
  117GLOH   H04 9811   3.390   7.694   0.546
  117GLOH    O2 9812   3.522   7.747   0.699
  117GLOH   H05 9813   3.507   7.843   0.678
  117GLOH    C3 9814   3.444   7.518   0.659
  117GLOH   H06 9815   3.472   7.494   0.761
  117GLOH   H07 9816   3.531   7.500   0.596
  117GLOH    O3 9817   3.334   7.434   0.616
  117GLOH   H01 9818   3.282   7.408   0.697
  118GLOH   H03 9819   3.620   7.612   1.048
  118GLOH    O1 9820   3.591   7.605   1.143
  118GLOH    C1 9821   3.537   7.474   1.169
  118GLOH   H02 9822   3.516   7.461   1.275
  118GLOH   H08 9823   3.611   7.398   1.143
  118GLOH    C2 9824   3.408   7.441   1.092
  118GLOH   H04 9825   3.432   7.435   0.984
  118GLOH    O2 9826   3.361   7.312   1.137
  118GLOH   H05 9827   3.294   7.274   1.074
  118GLOH    C3 9828   3.300   7.549   1.113
  118GLOH   H06 9829   3.346   7.647   1.104
  118GLOH   H07 9830   3.262   7.541   1.215
  118GLOH    O3 9831   3.192   7.537   1.018
  118GLOH   H01 9832   3.104   7.547   1.064
  119GLOH   H03 9833   2.548   3.767   0.860
  119GLOH    O1 9834   2.461   3.816   0.861
  119GLOH    C1 9835   2.360   3.719   0.900
  119GLOH   H02 9836   2.361   3.636   0.829
  119GLOH   H08 9837   2.261   3.763   0.894
  119GLOH    C2 9838   2.380   3.660   1.041
  119GLOH   H04 9839   2.286   3.610   1.069
  119GLOH    O2 9840   2.486   3.561   1.041
  119GLOH   H05 9841   2.495   3.521   1.133
  119GLOH    C3 9842   2.407   3.770   1.145
  119GLOH   H06 9843   2.494   3.828   1.114
  119GLOH   H07 9844   2.435   3.722   1.240
  119GLOH    O3 9845   2.293   3.856   1.165
  119GLOH   H01 9846   2.285   3.914   1.084
  120GLOH   H03 9847   4.430   5.121   0.870
  120GLOH    O1 9848   4.415   5.084   0.778
  120GLOH    C1 9849   4.418   4.940   0.787
  120GLOH   H02 9850   4.423   4.907   0.891
  120GLOH   H08 9851   4.506   4.900   0.737
  120GLOH    C2 9852   4.293   4.877   0.723
  120GLOH   H04 9853   4.286   4.913   0.619
  120GLOH    O2 9854   4.305   4.733   0.721
  120GLOH   H05 9855   4.233   4.690   0.776
  120GLOH    C3 9856   4.167   4.922   0.799
  120GLOH   H06 9857   4.173   5.029   0.817
  120GLOH   H07 9858   4.166   4.874   0.897
  120GLOH    O3 9859   4.045   4.892   0.728
  120GLOH   H01 9860   4.050   4.945   0.644
  121ACOH    H4 9861   2.612   8.125   1.342
  121ACOH    O2 9862   2.515   8.127   1.320
  121ACOH    C2 9863   2.461   8.211   1.411
  121ACOH    O1 9864   2.499   8.226   1.525
  121ACOH    C1 9865   2.327   8.255   1.366
  121ACOH    H1 9866   2.339   8.322   1.281
  121ACOH    H2 9867   2.275   8.309   1.445
  121ACOH    H3 9868   2.268   8.169   1.336
  122ACOH    H4 9869   0.684   4.633   0.886
  122ACOH    O2 9870   0.690   4.545   0.839
  122ACOH    C2 9871   0.571   4.525   0.779
  122ACOH    O1 9872   0.466   4.579   0.807
  122ACOH    C1 9873   0.581   4.412   0.683
  122ACOH    H1 9874   0.483   4.387   0.642
  122ACOH    H2 9875   0.621   4.325   0.733
  122ACOH    H3 9876   0.647   4.440   0.602
  123ACOH    H4 9877   4.281   2.411   1.692
  123ACOH    O2 9878   4.236   2.410   1.780
  123ACOH    C2 9879   4.162   2.522   1.787
  123ACOH    O1 9880   4.126   2.589   1.692
  123ACOH    C1 9881   4.104   2.539   1.922
  123ACOH    H1 9882   4.059   2.445   1.954
  123ACOH    H2 9883   4.029   2.617   1.924
  123ACOH    H3 9884   4.184   2.564   1.992
  124ACOH    H4 9885   9.077   4.642   0.701
  124ACOH    O2 9886   9.066   4.672   0.607
  124ACOH    C2 9887   9.018   4.798   0.610
  124ACOH    O1 9888   8.987   4.863   0.708
  124ACOH    C1 9889   9.010   4.853   0.472
  124ACOH    H1 9890   8.943   4.792   0.413
  124ACOH    H2 9891   9.109   4.850   0.427
  124ACOH    H3 9892   8.975   4.955   0.473
  125ACOH    H4 9893   4.451   9.050   0.262
  125ACOH    O2 9894   4.483   8.983   0.199
  125ACOH    C2 9895   4.433   9.016   0.078
  125ACOH    O1 9896   4.359   9.109   0.054
  125ACOH    C1 9897   4.478   8.920   2.816
  125ACOH    H1 9898   4.447   8.820   0.001
  125ACOH    H2 9899   4.586   8.923   2.808
  125ACOH    H3 9900   4.435   8.946   2.719
  126ACOH    H4 9901   4.129   9.635   2.474
  126ACOH    O2 9902   4.201   9.618   2.407
  126ACOH    C2 9903   4.289   9.535   2.467
  126ACOH    O1 9904   4.273   9.478   2.573
  126ACOH    C1 9905   4.405   9.507   2.379
  126ACOH    H1 9906   4.496   9.536   2.431
  126ACOH    H2 9907   4.398   9.562   2.286
  126ACOH    H3 9908   4.409   9.401   2.358
  127ACOH    H4 9909   2.402   6.149   1.544
  127ACOH    O2 9910   2.467   6.101   1.602
  127ACOH    C2 9911   2.504   5.991   1.534
  127ACOH    O1 9912   2.472   5.960   1.420
  127ACOH    C1 9913   2.595   5.909   1.617
  127ACOH    H1 9914   2.628   5.821   1.562
  127ACOH    H2 9915   2.544   5.877   1.707
  127ACOH    H3 9916   2.682   5.968   1.645
  128ACOH    H4 9917   5.235   9.572   1.871
  128ACOH    O2 9918   5.323   9.561   1.908
  128ACOH    C2 9919   5.360   9.434   1.883
  128ACOH    O1 9920   5.292   9.351   1.826
  128ACOH    C1 9921   5.495   9.404   1.936
  128ACOH    H1 9922   5.558   9.370   1.855
  128ACOH    H2 9923   5.488   9.326   2.011
  128ACOH    H3 9924   5.539   9.493   1.980
  129ACOH    H4 9925   4.926   1.735   1.778
  129ACOH    O2 9926   4.955   1.668   1.711
  129ACOH    C2 9927   4.866   1.568   1.714
  129ACOH    O1 9928   4.788   1.544   1.804
  129ACOH    C1 9929   4.885   1.475   1.600
  129ACOH    H1 9930   4.911   1.376   1.637
  129ACOH    H2 9931   4.965   1.510   1.535
  129ACOH    H3 9932   4.793   1.468   1.543
  130ACOH    H4 9933   3.970   8.687   2.269
  130ACOH    O2 9934   4.021   8.771   2.288
  130ACOH    C2 9935   4.124   8.738   2.368
  130ACOH    O1 9936   4.149   8.629   2.415
  130ACOH    C1 9937   4.209   8.855   2.398
  130ACOH    H1 9938   4.172   8.944   2.347
  130ACOH    H2 9939   4.311   8.836   2.367
  130ACOH    H3 9940   4.207   8.873   2.506
  131ACOH    H4 9941   8.703   5.178   0.679
  131ACOH    O2 9942   8.613   5.209   0.711
  131ACOH    C2 9943   8.624   5.340   0.736
  131ACOH    O1 9944   8.717   5.414   0.709
  131ACOH    C1 9945   8.499   5.392   0.796
  131ACOH    H1 9946   8.481   5.341   0.890
  131ACOH    H2 9947   8.416   5.372   0.729
  131ACOH    H3 9948   8.505   5.499   0.815
  132ACOH    H4 9949   0.849   6.179   2.503
  132ACOH    O2 9950   0.855   6.263   2.455
  132ACOH    C2 9951   0.986   6.284   2.432
  132ACOH    O1 9952   1.078   6.214   2.469
  132ACOH    C1 9953   1.008   6.408   2.353
  132ACOH    H1 9954   0.913   6.455   2.329
  132ACOH    H2 9955   1.060   6.384   2.261
  132ACOH    H3 9956   1.068   6.477   2.411
  133ACOH    H4 9957   3.775   2.323   0.313
  133ACOH    O2 9958   3.756   2.357   0.402
  133ACOH    C2 9959   3.621   2.370   0.407
  133ACOH    O1 9960   3.544   2.347   0.317
  133ACOH    C1 9961   3.578   2.419   0.540
  133ACOH    H1 9962   3.471   2.437   0.541
  133ACOH    H2 9963   3.630   2.511   0.565
  133ACOH    H3 9964   3.602   2.344   0.615
  134ACOH    H4 9965   0.402   5.815   1.367
  134ACOH    O2 9966   0.395   5.901   1.416
  134ACOH    C2 9967   0.356   5.875   1.541
  134ACOH    O1 9968   0.345   5.765   1.594
  134ACOH    C1 9969   0.335   6.000   1.618
  134ACOH    H1 9970   0.409   6.007   1.697
  134ACOH    H2 9971   0.235   5.999   1.662
  134ACOH    H3 9972   0.343   6.086   1.553
  135ACOH    H4 9973   9.387   5.433   2.153
  135ACOH    O2 9974   9.406   5.510   2.214
  135ACOH    C2 9975   9.511   5.474   2.290
  135ACOH    O1 9976   9.574   5.369   2.285
  135ACOH    C1 9977   9.547   5.584   2.381
  135ACOH    H1 9978   9.566   5.674   2.324
  135ACOH    H2 9979   9.636   5.560   2.439
  135ACOH    H3 9980   9.465   5.603   2.450
  136ACOH    H4 9981   9.227   4.523   2.219
  136ACOH    O2 9982   9.233   4.468   2.302
  136ACOH    C2 9983   9.252   4.553   2.404
  136ACOH    O1 9984   9.297   4.665   2.396
  136ACOH    C1 9985   9.236   4.485   2.535
  136ACOH    H1 9986   9.334   4.472   2.581
  136ACOH    H2 9987   9.189   4.388   2.522
  136ACOH    H3 9988   9.174   4.546   2.600
  137ACOH    H4 9989   4.248   8.539   1.930
  137ACOH    O2 9990   4.290   8.586   1.853
  137ACOH    C2 9991   4.394   8.508   1.816
  137ACOH    O1 9992   4.429   8.403   1.868
  137ACOH    C1 9993   4.465   8.564   1.699
  137ACOH    H1 9994   4.417   8.656   1.665
  137ACOH    H2 9995   4.463   8.491   1.618
  137ACOH    H3 9996   4.567   8.585   1.726
  138ACOH    H4 9997   3.343   5.992   2.012
  138ACOH    O2 9998   3.413   6.019   2.077
  138ACOH    C2 9999   3.415   5.928   2.175
  138ACOH    O110000   3.334   5.838   2.194
  138ACOH    C110001   3.529   5.951   2.267
  138ACOH    H110002   3.592   5.862   2.270
  138ACOH    H210003   3.492   5.971   2.367
  138ACOH    H310004   3.589   6.035   2.234
  139ACOH    H410005   4.830   2.923   0.494
  139ACOH    O210006   4.892   2.963   0.427
  139ACOH    C210007   4.951   3.069   0.485
  139ACOH    O110008   4.916   3.123   0.589
  139ACOH    C110009   5.050   3.131   0.395
  139ACOH    H110010   5.009   3.223   0.352
  139ACOH    H210011   5.076   3.063   0.314
  139ACOH    H310012   5.140   3.156   0.450
  140ACOH    H410013   1.136   4.021   1.912
  140ACOH    O210014   1.175   4.107   1.879
  140ACOH    C210015   1.069   4.183   1.845
  140ACOH    O110016   0.955   4.174   1.887
  140ACOH    C110017   1.115   4.296   1.761
  140ACOH    H110018   1.036   4.369   1.747
  140ACOH    H210019   1.146   4.258   1.664
  140ACOH    H310020   1.200   4.343   1.808
  141ACOH    H410021   5.383   2.338   1.741
  141ACOH    O210022   5.460   2.355   1.680
  141ACOH    C210023   5.418   2.439   1.584
  141ACOH    O110024   5.308   2.489   1.572
  141ACOH    C110025   5.528   2.469   1.488
  141ACOH    H110026   5.497   2.439   1.388
  141ACOH    H210027   5.618   2.415   1.515
  141ACOH    H310028   5.549   2.575   1.488
  142ACOH    H410029   2.188   8.984   1.466
  142ACOH    O210030   2.163   9.068   1.418
  142ACOH    C210031   2.164   9.036   1.287
  142ACOH    O110032   2.170   8.924   1.240
  142ACOH    C110033   2.139   9.154   1.201
  142ACOH    H110034   2.042   9.144   1.153
  142ACOH    H210035   2.216   9.160   1.125
  142ACOH    H310036   2.141   9.245   1.260
  143ACOH    H410037   3.037   6.553   1.825
  143ACOH    O210038   3.045   6.628   1.761
  143ACOH    C210039   3.117   6.724   1.823
  143ACOH    O110040   3.180   6.711   1.926
  143ACOH    C110041   3.119   6.850   1.745
  143ACOH    H110042   3.051   6.844   1.660
  143ACOH    H210043   3.219   6.868   1.707
  143ACOH    H310044   3.089   6.933   1.808
  144ACOH    H410045   3.770   9.441   0.334
  144ACOH    O210046   3.671   9.440   0.345
  144ACOH    C210047   3.645   9.461   0.475
  144ACOH    O110048   3.726   9.476   0.565
  144ACOH    C110049   3.498   9.462   0.499
  144ACOH    H110050   3.455   9.370   0.460
  144ACOH    H210051   3.454   9.546   0.447
  144ACOH    H310052   3.475   9.469   0.605
  145ACOH    H410053   3.415   7.381   0.224
  145ACOH    O210054   3.435   7.335   0.142
  145ACOH    C210055   3.507   7.420   0.067
  145ACOH    O110056   3.536   7.534   0.097
  145ACOH    C110057   3.546   7.361   2.779
  145ACOH    H110058   3.511   7.258   2.771
  145ACOH    H210059   3.654   7.363   2.769
  145ACOH    H310060   3.502   7.419   2.698
  146ACOH    H410061   0.523   3.933   1.100
  146ACOH    O210062   0.590   3.860   1.097
  146ACOH    C210063   0.686   3.890   1.186
  146ACOH    O110064   0.686   3.982   1.267
  146ACOH    C110065   0.796   3.790   1.180
  146ACOH    H110066   0.873   3.813   1.252
  146ACOH    H210067   0.839   3.791   1.080
  146ACOH    H310068   0.755   3.691   1.200
  147ACOH    H410069   0.268   5.089   2.261
  147ACOH    O210070   0.314   5.173   2.292
  147ACOH    C210071   0.347   5.152   2.420
  147ACOH    O110072   0.344   5.046   2.481
  147ACOH    C110073   0.403   5.275   2.482
  147ACOH    H110074   0.509   5.262   2.500
  147ACOH    H210075   0.354   5.294   2.577
  147ACOH    H310076   0.388   5.361   2.417
  148ACOH    H410077   1.908   7.745   0.410
  148ACOH    O210078   1.905   7.744   0.507
  148ACOH    C210079   2.026   7.786   0.549
  148ACOH    O110080   2.128   7.780   0.482
  148ACOH    C110081   2.029   7.810   0.695
  148ACOH    H110082   2.082   7.903   0.716
  148ACOH    H210083   2.082   7.728   0.745
  148ACOH    H310084   1.929   7.816   0.735
  149ACOH    H410085   3.368   6.265   1.536
  149ACOH    O210086   3.405   6.256   1.628
  149ACOH    C210087   3.321   6.319   1.712
  149ACOH    O110088   3.213   6.368   1.684
  149ACOH    C110089   3.376   6.317   1.849
  149ACOH    H110090   3.468   6.374   1.852
  149ACOH    H210091   3.397   6.215   1.879
  149ACOH    H310092   3.305   6.361   1.919
  150ACOH    H410093   4.787   2.367   0.508
  150ACOH    O210094   4.753   2.306   0.580
  150ACOH    C210095   4.619   2.321   0.581
  150ACOH    O110096   4.554   2.405   0.521
  150ACOH    C110097   4.558   2.227   0.679
  150ACOH    H110098   4.450   2.234   0.677
  150ACOH    H210099   4.594   2.251   0.779
  150ACOH    H310100   4.588   2.125   0.655
  151ACOH    H410101   5.394   2.717   1.926
  151ACOH    O210102   5.457   2.646   1.958
  151ACOH    C210103   5.547   2.628   1.859
  151ACOH    O110104   5.550   2.686   1.752
  151ACOH    C110105   5.650   2.529   1.898
  151ACOH    H110106   5.651   2.448   1.826
  151ACOH    H210107   5.629   2.488   1.997
  151ACOH    H310108   5.748   2.576   1.899
  152ACOH    H410109   5.603   3.170   1.248
  152ACOH    O210110   5.669   3.105   1.210
  152ACOH    C210111   5.707   3.024   1.310
  152ACOH    O110112   5.678   3.036   1.428
  152ACOH    C110113   5.798   2.919   1.260
  152ACOH    H110114   5.835   2.858   1.342
  152ACOH    H210115   5.881   2.964   1.208
  152ACOH    H310116   5.744   2.855   1.191
  153ACOH    H410117   4.295   8.333   1.224
  153ACOH    O210118   4.374   8.384   1.259
  153ACOH    C210119   4.329   8.508   1.285
  153ACOH    O110120   4.212   8.541   1.294
  153ACOH    C110121   4.440   8.599   1.319
  153ACOH    H110122   4.503   8.613   1.231
  153ACOH    H210123   4.500   8.556   1.398
  153ACOH    H310124   4.403   8.696   1.351
  154ACOH    H410125   1.994   2.433   1.746
  154ACOH    O210126   1.941   2.392   1.671
  154ACOH    C210127   1.817   2.442   1.679
  154ACOH    O110128   1.772   2.514   1.766
  154ACOH    C110129   1.731   2.390   1.569
  154ACOH    H110130   1.684   2.473   1.517
  154ACOH    H210131   1.654   2.327   1.611
  154ACOH    H310132   1.790   2.333   1.498
  155ACOH    H410133   4.958   0.629   1.265
  155ACOH    O210134   5.003   0.543   1.285
  155ACOH    C210135   4.911   0.446   1.277
  155ACOH    O110136   4.798   0.454   1.231
  155ACOH    C110137   4.968   0.318   1.325
  155ACOH    H110138   4.991   0.326   1.431
  155ACOH    H210139   5.060   0.297   1.271
  155ACOH    H310140   4.898   0.236   1.310
  156ACOH    H410141   4.324   0.192   0.893
  156ACOH    O210142   4.324   0.190   0.792
  156ACOH    C210143   4.424   0.272   0.754
  156ACOH    O110144   4.508   0.322   0.825
  156ACOH    C110145   4.422   0.287   0.606
  156ACOH    H110146   4.505   0.349   0.573
  156ACOH    H210147   4.329   0.334   0.576
  156ACOH    H310148   4.430   0.189   0.559
  157ACOH    H410149   5.261   2.408   1.253
  157ACOH    O210150   5.336   2.354   1.217
  157ACOH    C210151   5.299   2.315   1.094
  157ACOH    O110152   5.193   2.339   1.038
  157ACOH    C110153   5.406   2.238   1.026
  157ACOH    H110154   5.368   2.140   0.998
  157ACOH    H210155   5.492   2.226   1.091
  157ACOH    H310156   5.436   2.290   0.936
  158ACOH    H410157   3.298   6.509   2.527
  158ACOH    O210158   3.334   6.524   2.435
  158ACOH    C210159   3.347   6.402   2.380
  158ACOH    O110160   3.326   6.295   2.434
  158ACOH    C110161   3.399   6.410   2.241
  158ACOH    H110162   3.403   6.514   2.208
  158ACOH    H210163   3.333   6.355   2.175
  158ACOH    H310164   3.498   6.367   2.237
  159ACOH    H410165   3.851   5.505   0.702
  159ACOH    O210166   3.948   5.483   0.694
  159ACOH    C210167   3.976   5.471   0.563
  159ACOH    O110168   3.893   5.458   0.474
  159ACOH    C110169   4.121   5.450   0.540
  159ACOH    H110170   4.177   5.464   0.632
  159ACOH    H210171   4.157   5.520   0.466
  159ACOH    H310172   4.138   5.348   0.505
  160ACOH    H410173   4.835   1.392   2.199
  160ACOH    O210174   4.878   1.348   2.277
  160ACOH    C210175   4.828   1.224   2.287
  160ACOH    O110176   4.773   1.160   2.198
  160ACOH    C110177   4.870   1.162   2.415
  160ACOH    H110178   4.978   1.167   2.424
  160ACOH    H210179   4.839   1.058   2.419
  160ACOH    H310180   4.824   1.216   2.497
  161ACOH    H410181   8.718   5.584   0.731
  161ACOH    O210182   8.700   5.678   0.756
  161ACOH    C210183   8.811   5.722   0.818
  161ACOH    O110184   8.915   5.661   0.835
  161ACOH    C110185   8.793   5.862   0.864
  161ACOH    H110186   8.696   5.901   0.833
  161ACOH    H210187   8.871   5.925   0.823
  161ACOH    H310188   8.798   5.865   0.973
  162ACOH    H410189   1.481   2.870   2.200
  162ACOH    O210190   1.396   2.817   2.190
  162ACOH    C210191   1.432   2.695   2.147
  162ACOH    O110192   1.544   2.656   2.119
  162ACOH    C110193   1.312   2.608   2.137
  162ACOH    H110194   1.340   2.507   2.108
  162ACOH    H210195   1.244   2.649   2.063
  162ACOH    H310196   1.262   2.604   2.234
  163ACOH    H410197   4.130   9.281   2.339
  163ACOH    O210198   4.141   9.198   2.290
  163ACOH    C210199   4.088   9.215   2.168
  163ACOH    O110200   4.049   9.321   2.122
  163ACOH    C110201   4.093   9.089   2.091
  163ACOH    H110202   4.028   9.015   2.137
  163ACOH    H210203   4.194   9.050   2.090
  163ACOH    H310204   4.060   9.104   1.988
  164ACOH    H410205   5.080   4.680   0.207
  164ACOH    O210206   5.044   4.746   0.142
  164ACOH    C210207   4.983   4.842   0.213
  164ACOH    O110208   4.974   4.849   0.334
  164ACOH    C110209   4.926   4.945   0.122
  164ACOH    H110210   4.874   5.021   0.179
  164ACOH    H210211   4.856   4.897   0.054
  164ACOH    H310212   5.006   4.991   0.065
  165ACOH    H410213   3.681   8.406   1.442
  165ACOH    O210214   3.631   8.320   1.458
  165ACOH    C210215   3.724   8.226   1.484
  165ACOH    O110216   3.845   8.241   1.486
  165ACOH    C110217   3.659   8.094   1.502
  165ACOH    H110218   3.734   8.016   1.517
  165ACOH    H210219   3.600   8.069   1.414
  165ACOH    H310220   3.594   8.097   1.588
  166ACOH    H410221   9.272   4.288   1.358
  166ACOH    O210222   9.197   4.241   1.406
  166ACOH    C210223   9.120   4.337   1.462
  166ACOH    O110224   9.143   4.456   1.466
  166ACOH    C110225   9.001   4.276   1.526
  166ACOH    H110226   8.945   4.219   1.452
  166ACOH    H210227   8.936   4.354   1.567
  166ACOH    H310228   9.032   4.210   1.606
  167ACOH    H410229   4.024   9.201   0.806
  167ACOH    O210230   4.082   9.283   0.800
  167ACOH    C210231   4.192   9.245   0.733
  167ACOH    O110232   4.234   9.131   0.722
  167ACOH    C110233   4.272   9.364   0.695
  167ACOH    H110234   4.287   9.427   0.782
  167ACOH    H210235   4.217   9.421   0.620
  167ACOH    H310236   4.368   9.335   0.654
  168ACOH    H410237   9.259   4.831   2.061
  168ACOH    O210238   9.238   4.803   1.967
  168ACOH    C210239   9.212   4.671   1.970
  168ACOH    O110240   9.209   4.599   2.069
  168ACOH    C110241   9.189   4.617   1.834
  168ACOH    H110242   9.191   4.697   1.760
  168ACOH    H210243   9.092   4.568   1.830
  168ACOH    H310244   9.266   4.545   1.810
  169ACOH    H410245   5.117   4.173   0.454
  169ACOH    O210246   5.182   4.103   0.482
  169ACOH    C210247   5.107   3.999   0.522
  169ACOH    O110248   4.993   3.975   0.489
  169ACOH    C110249   5.185   3.903   0.604
  169ACOH    H110250   5.192   3.808   0.552
  169ACOH    H210251   5.136   3.888   0.699
  169ACOH    H310252   5.286   3.941   0.622
  170ACOH    H410253   4.011   8.281   2.043
  170ACOH    O210254   4.070   8.262   2.120
  170ACOH    C210255   4.161   8.362   2.125
  170ACOH    O110256   4.165   8.460   2.053
  170ACOH    C110257   4.262   8.339   2.230
  170ACOH    H110258   4.259   8.421   2.302
  170ACOH    H210259   4.361   8.336   2.185
  170ACOH    H310260   4.244   8.246   2.282
  171ACOH    H410261   5.833   3.440   1.486
  171ACOH    O210262   5.889   3.471   1.563
  171ACOH    C210263   5.811   3.472   1.672
  171ACOH    O110264   5.692   3.446   1.678
  171ACOH    C110265   5.890   3.510   1.792
  171ACOH    H110266   5.934   3.608   1.775
  171ACOH    H210267   5.969   3.437   1.807
  171ACOH    H310268   5.828   3.513   1.880
  172ACOH    H410269   3.802   5.638   2.337
  172ACOH    O210270   3.888   5.687   2.354
  172ACOH    C210271   3.983   5.594   2.372
  172ACOH    O110272   3.971   5.473   2.370
  172ACOH    C110273   4.114   5.660   2.393
  172ACOH    H110274   4.138   5.721   2.306
  172ACOH    H210275   4.193   5.587   2.408
  172ACOH    H310276   4.109   5.725   2.480
  173ACOH    H410277   5.423   4.270   0.753
  173ACOH    O210278   5.449   4.273   0.849
  173ACOH    C210279   5.351   4.212   0.917
  173ACOH    O110280   5.272   4.130   0.874
  173ACOH    C110281   5.364   4.236   1.063
  173ACOH    H110282   5.435   4.316   1.081
  173ACOH    H210283   5.400   4.145   1.112
  173ACOH    H310284   5.268   4.263   1.104
  174ACOH    H410285   5.233   1.673   0.859
  174ACOH    O210286   5.310   1.680   0.922
  174ACOH    C210287   5.324   1.810   0.952
  174ACOH    O110288   5.277   1.905   0.892
  174ACOH    C110289   5.422   1.825   1.062
  174ACOH    H110290   5.381   1.782   1.153
  174ACOH    H210291   5.445   1.930   1.080
  174ACOH    H310292   5.514   1.773   1.037
  175ACOH    H410293   5.162   3.721   2.171
  175ACOH    O210294   5.238   3.677   2.126
  175ACOH    C210295   5.294   3.769   2.045
  175ACOH    O110296   5.280   3.889   2.052
  175ACOH    C110297   5.393   3.706   1.954
  175ACOH    H110298   5.441   3.781   1.892
  175ACOH    H210299   5.343   3.633   1.891
  175ACOH    H310300   5.469   3.656   2.013
  176ACOH    H410301   3.426   4.490   1.668
  176ACOH    O210302   3.383   4.555   1.605
  176ACOH    C210303   3.481   4.595   1.522
  176ACOH    O110304   3.593   4.548   1.511
  176ACOH    C110305   3.434   4.705   1.433
  176ACOH    H110306   3.504   4.788   1.439
  176ACOH    H210307   3.336   4.739   1.463
  176ACOH    H310308   3.430   4.669   1.331
  177ACOH    H410309   2.434   0.739   1.694
  177ACOH    O210310   2.341   0.723   1.726
  177ACOH    C210311   2.322   0.805   1.831
  177ACOH    O110312   2.409   0.858   1.897
  177ACOH    C110313   2.181   0.804   1.876
  177ACOH    H110314   2.147   0.906   1.893
  177ACOH    H210315   2.173   0.748   1.969
  177ACOH    H310316   2.117   0.758   1.801
  178ACOH    H410317   3.754   2.215   1.335
  178ACOH    O210318   3.840   2.266   1.334
  178ACOH    C210319   3.901   2.234   1.450
  178ACOH    O110320   3.899   2.123   1.502
  178ACOH    C110321   4.011   2.329   1.481
  178ACOH    H110322   4.016   2.345   1.588
  178ACOH    H210323   3.993   2.424   1.432
  178ACOH    H310324   4.105   2.288   1.446
  179ACOH    H410325   4.357   0.635   2.192
  179ACOH    O210326   4.454   0.642   2.170
  179ACOH    C210327   4.487   0.772   2.180
  179ACOH    O110328   4.412   0.865   2.205
  179ACOH    C110329   4.633   0.793   2.161
  179ACOH    H110330   4.649   0.861   2.078
  179ACOH    H210331   4.683   0.699   2.140
  179ACOH    H310332   4.675   0.837   2.251
  180ACOH    H410333   4.734   3.189   0.547
  180ACOH    O210334   4.652   3.201   0.495
  180ACOH    C210335   4.677   3.293   0.401
  180ACOH    O110336   4.779   3.359   0.388
  180ACOH    C110337   4.560   3.314   0.312
  180ACOH    H110338   4.485   3.237   0.329
  180ACOH    H210339   4.591   3.310   0.208
  180ACOH    H310340   4.516   3.411   0.332
  181ACOH    H410341   4.877   5.093   0.888
  181ACOH    O210342   4.913   5.144   0.966
  181ACOH    C210343   4.906   5.065   1.074
  181ACOH    O110344   4.874   4.947   1.077
  181ACOH    C110345   4.945   5.138   1.197
  181ACOH    H110346   4.969   5.241   1.173
  181ACOH    H210347   5.032   5.090   1.242
  181ACOH    H310348   4.863   5.137   1.268
  182ACOH    H410349   3.270   7.083   1.420
  182ACOH    O210350   3.253   6.989   1.448
  182ACOH    C210351   3.208   6.923   1.340
  182ACOH    O110352   3.208   6.963   1.225
  182ACOH    C110353   3.168   6.784   1.375
  182ACOH    H110354   3.065   6.767   1.345
  182ACOH    H210355   3.176   6.767   1.481
  182ACOH    H310356   3.231   6.713   1.323
  183ACOH    H410357   4.210   5.209   1.958
  183ACOH    O210358   4.131   5.261   1.987
  183ACOH    C210359   4.163   5.391   1.981
  183ACOH    O110360   4.271   5.438   1.948
  183ACOH    C110361   4.047   5.475   2.019
  183ACOH    H110362   4.074   5.580   2.021
  183ACOH    H210363   4.013   5.445   2.118
  183ACOH    H310364   3.967   5.459   1.948
  184ACOH    H410365   2.363   0.673   2.622
  184ACOH    O210366   2.331   0.674   2.528
  184ACOH    C210367   2.425   0.615   2.452
  184ACOH    O110368   2.518   0.548   2.492
  184ACOH    C110369   2.392   0.625   2.308
  184ACOH    H110370   2.303   0.685   2.293
  184ACOH    H210371   2.374   0.525   2.267
  184ACOH    H310372   2.475   0.671   2.255
  185ACOH    H410373   3.535   1.016   1.057
  185ACOH    O210374   3.619   0.999   1.108
  185ACOH    C210375   3.667   1.120   1.144
  185ACOH    O110376   3.636   1.227   1.096
  185ACOH    C110377   3.782   1.107   1.237
  185ACOH    H110378   3.795   1.003   1.268
  185ACOH    H210379   3.765   1.168   1.325
  185ACOH    H310380   3.873   1.140   1.188
  186ACOH    H410381   3.686   7.612   1.269
  186ACOH    O210382   3.754   7.630   1.338
  186ACOH    C210383   3.691   7.636   1.457
  186ACOH    O110384   3.576   7.605   1.479
  186ACOH    C110385   3.785   7.676   1.564
  186ACOH    H110386   3.824   7.775   1.543
  186ACOH    H210387   3.867   7.605   1.568
  186ACOH    H310388   3.734   7.678   1.660
  187ACOH    H410389   1.473   2.627   1.515
  187ACOH    O210390   1.425   2.542   1.533
  187ACOH    C210391   1.373   2.551   1.657
  187ACOH    O110392   1.383   2.644   1.735
  187ACOH    C110393   1.297   2.428   1.689
  187ACOH    H110394   1.218   2.415   1.616
  187ACOH    H210395   1.254   2.434   1.789
  187ACOH    H310396   1.364   2.342   1.684
  188ACOH    H410397   5.177   2.800   0.585
  188ACOH    O210398   5.186   2.900   0.588
  188ACOH    C210399   5.282   2.928   0.677
  188ACOH    O110400   5.339   2.849   0.750
  188ACOH    C110401   5.310   3.074   0.680
  188ACOH    H110402   5.340   3.108   0.581
  188ACOH    H210403   5.389   3.097   0.751
  188ACOH    H310404   5.220   3.126   0.710
  189ACOH    H410405   2.579   0.392   2.525
  189ACOH    O210406   2.599   0.296   2.539
  189ACOH    C210407   2.681   0.258   2.439
  189ACOH    O110408   2.738   0.331   2.360
  189ACOH    C110409   2.700   0.111   2.441
  189ACOH    H110410   2.604   0.063   2.428
  189ACOH    H210411   2.742   0.082   2.537
  189ACOH    H310412   2.767   0.080   2.361
  190ACOH    H410413   3.545   5.179   0.468
  190ACOH    O210414   3.481   5.105   0.484
  190ACOH    C210415   3.542   4.994   0.437
  190ACOH    O110416   3.628   4.993   0.351
  190ACOH    C110417   3.471   4.873   0.483
  190ACOH    H110418   3.510   4.785   0.433
  190ACOH    H210419   3.364   4.881   0.462
  190ACOH    H310420   3.485   4.861   0.590
  191ACOH    H410421   5.238   1.643   0.303
  191ACOH    O210422   5.301   1.607   0.371
  191ACOH    C210423   5.237   1.512   0.441
  191ACOH    O110424   5.121   1.479   0.431
  191ACOH    C110425   5.327   1.450   0.541
  191ACOH    H110426   5.290   1.468   0.641
  191ACOH    H210427   5.428   1.491   0.533
  191ACOH    H310428   5.332   1.342   0.524
  192ACOH    H410429   4.669   8.531   1.023
  192ACOH    O210430   4.763   8.523   1.056
  192ACOH    C210431   4.802   8.645   1.097
  192ACOH    O110432   4.738   8.748   1.087
  192ACOH    C110433   4.938   8.642   1.154
  192ACOH    H110434   4.935   8.676   1.257
  192ACOH    H210435   5.003   8.708   1.097
  192ACOH    H310436   4.979   8.541   1.151
  193SOL     OW10437   9.945   5.563   0.988
  193SOL    HW110438   0.042   5.584   0.977
  193SOL    HW210439   9.901   5.634   1.044
  194SOL     OW10440   1.035   4.981   1.334
  194SOL    HW110441   0.976   5.049   1.290
  194SOL    HW210442   1.025   4.987   1.433
  195SOL     OW10443   1.799   6.073   2.091
  195SOL    HW110444   1.708   6.113   2.101
  195SOL    HW210445   1.809   6.035   1.999
  196SOL     OW10446   3.360   9.642   1.030
  196SOL    HW110447   3.354   9.570   1.099
  196SOL    HW210448   3.448   9.689   1.037
  197SOL     OW10449   2.510   9.139   1.173
  197SOL    HW110450   2.578   9.087   1.225
  197SOL    HW210451   2.483   9.086   1.092
  198SOL     OW10452   3.733   0.548   2.270
  198SOL    HW110453   3.709   0.641   2.300
  198SOL    HW210454   3.727   0.486   2.348
  199SOL     OW10455   3.448   2.791   1.735
  199SOL    HW110456   3.428   2.879   1.691
  199SOL    HW210457   3.541   2.792   1.772
  200SOL     OW10458   3.632   0.811   0.749
  200SOL    HW110459   3.720   0.789   0.706
  200SOL    HW210460   3.637   0.790   0.847
  201SOL     OW10461   9.387   4.958   1.793
  201SOL    HW110462   9.322   4.907   1.850
  201SOL    HW210463   9.416   4.900   1.716
  202SOL     OW10464   4.479   4.715   1.156
  202SOL    HW110465   4.385   4.685   1.143
  202SOL    HW210466   4.539   4.667   1.092
  203SOL     OW10467   2.004   2.442   1.148
  203SOL    HW110468   1.954   2.507   1.206
  203SOL    HW210469   1.968   2.446   1.055
  204SOL     OW10470   1.751   2.616   0.815
  204SOL    HW110471   1.813   2.544   0.848
  204SOL    HW210472   1.658   2.596   0.844
  205SOL     OW10473   3.500   0.623   0.599
  205SOL    HW110474   3.542   0.696   0.653
  205SOL    HW210475   3.524   0.535   0.639
  206SOL     OW10476   2.892   5.373   0.839
  206SOL    HW110477   2.903   5.309   0.762
  206SOL    HW210478   2.805   5.421   0.830
  207SOL     OW10479   1.879   4.072   1.585
  207SOL    HW110480   1.954   4.089   1.650
  207SOL    HW210481   1.886   3.979   1.550
  208SOL     OW10482   3.175   3.274   1.392
  208SOL    HW110483   3.166   3.321   1.479
  208SOL    HW210484   3.269   3.280   1.360
  209SOL     OW10485   3.077   0.654   0.771
  209SOL    HW110486   3.131   0.675   0.689
  209SOL    HW210487   2.982   0.638   0.744
  210SOL     OW10488   0.805   3.764   0.594
  210SOL    HW110489   0.776   3.701   0.522
  210SOL    HW210490   0.853   3.841   0.552
  211SOL     OW10491   3.572   3.109   2.195
  211SOL    HW110492   3.486   3.075   2.160
  211SOL    HW210493   3.555   3.165   2.276
  212SOL     OW10494   2.062   2.196   1.250
  212SOL    HW110495   2.092   2.206   1.345
  212SOL    HW210496   2.039   2.286   1.212
  213SOL     OW10497   2.053   4.424   1.485
  213SOL    HW110498   2.024   4.435   1.580
  213SOL    HW210499   1.987   4.366   1.437
  214SOL     OW10500   3.284   3.677   1.652
  214SOL    HW110501   3.263   3.774   1.645
  214SOL    HW210502   3.360   3.655   1.590
  215SOL     OW10503   1.728   6.544   0.722
  215SOL    HW110504   1.827   6.537   0.733
  215SOL    HW210505   1.684   6.462   0.759
  216SOL     OW10506   1.792   4.583   0.485
  216SOL    HW110507   1.872   4.636   0.512
  216SOL    HW210508   1.774   4.513   0.554
  217SOL     OW10509   0.867   5.144   0.787
  217SOL    HW110510   0.838   5.082   0.861
  217SOL    HW210511   0.966   5.136   0.775
  218SOL     OW10512   2.132   4.632   0.807
  218SOL    HW110513   2.226   4.652   0.779
  218SOL    HW210514   2.130   4.544   0.853
  219SOL     OW10515   4.159   2.026   2.155
  219SOL    HW110516   4.240   2.002   2.209
  219SOL    HW210517   4.184   2.035   2.058
  220SOL     OW10518   2.955   0.562   1.850
  220SOL    HW110519   2.899   0.491   1.807
  220SOL    HW210520   3.012   0.521   1.921
  221SOL     OW10521   1.454   5.148   1.948
  221SOL    HW110522   1.438   5.049   1.951
  221SOL    HW210523   1.472   5.181   2.040
  222SOL     OW10524   2.248   6.287   2.192
  222SOL    HW110525   2.277   6.199   2.154
  222SOL    HW210526   2.151   6.282   2.216
  223SOL     OW10527   2.230   3.476   1.450
  223SOL    HW110528   2.136   3.474   1.483
  223SOL    HW210529   2.288   3.419   1.507
  224SOL     OW10530   0.433   4.602   2.056
  224SOL    HW110531   0.475   4.672   2.113
  224SOL    HW210532   0.501   4.532   2.035
  225SOL     OW10533   3.066   0.280   1.053
  225SOL    HW110534   2.977   0.258   1.013
  225SOL    HW210535   3.096   0.205   1.112
  226SOL     OW10536   3.452   8.150   1.074
  226SOL    HW110537   3.415   8.085   1.141
  226SOL    HW210538   3.454   8.242   1.114
  227SOL     OW10539   2.769   6.720   1.505
  227SOL    HW110540   2.790   6.812   1.472
  227SOL    HW210541   2.711   6.727   1.586
  228SOL     OW10542   2.660   6.281   1.419
  228SOL    HW110543   2.726   6.228   1.473
  228SOL    HW210544   2.611   6.344   1.480
  229SOL     OW10545   2.518   2.929   1.996
  229SOL    HW110546   2.554   2.836   2.002
  229SOL    HW210547   2.594   2.993   1.987
  230SOL     OW10548   5.009   3.399   2.052
  230SOL    HW110549   5.074   3.361   2.118
  230SOL    HW210550   5.057   3.423   1.968
  231SOL     OW10551   1.146   5.116   0.801
  231SOL    HW110552   1.220   5.178   0.826
  231SOL    HW210553   1.150   5.034   0.859
  232SOL     OW10554   2.860   1.732   1.330
  232SOL    HW110555   2.803   1.669   1.277
  232SOL    HW210556   2.850   1.825   1.295
  233SOL     OW10557   1.637   6.565   1.182
  233SOL    HW110558   1.585   6.637   1.135
  233SOL    HW210559   1.725   6.552   1.136
  234SOL     OW10560   4.095   1.546   2.232
  234SOL    HW110561   4.119   1.607   2.307
  234SOL    HW210562   4.038   1.471   2.268
  235SOL     OW10563   3.137   7.281   0.507
  235SOL    HW110564   3.216   7.339   0.528
  235SOL    HW210565   3.056   7.315   0.555
  236SOL     OW10566   3.034   2.626   1.220
  236SOL    HW110567   2.964   2.687   1.183
  236SOL    HW210568   3.101   2.604   1.148
  237SOL     OW10569   0.684   4.778   0.952
  237SOL    HW110570   0.605   4.829   0.917
  237SOL    HW210571   0.756   4.843   0.977
  238SOL     OW10572   3.243   1.368   1.047
  238SOL    HW110573   3.210   1.275   1.032
  238SOL    HW210574   3.181   1.433   1.002
  239SOL     OW10575   2.464   9.797   1.621
  239SOL    HW110576   2.445   9.701   1.642
  239SOL    HW210577   2.450   9.852   1.703
  240SOL     OW10578   2.029   4.179   1.158
  240SOL    HW110579   1.969   4.204   1.233
  240SOL    HW210580   2.117   4.148   1.194
  241SOL     OW10581   2.687   1.559   0.511
  241SOL    HW110582   2.624   1.568   0.589
  241SOL    HW210583   2.668   1.631   0.444
  242SOL     OW10584   1.253   3.849   0.409
  242SOL    HW110585   1.274   3.761   0.451
  242SOL    HW210586   1.155   3.865   0.411
  243SOL     OW10587   2.791   2.883   0.496
  243SOL    HW110588   2.709   2.934   0.469
  243SOL    HW210589   2.768   2.786   0.506
  244SOL     OW10590   3.944   0.536   0.832
  244SOL    HW110591   3.934   0.514   0.929
  244SOL    HW210592   3.967   0.454   0.781
  245SOL     OW10593   2.664   8.886   0.838
  245SOL    HW110594   2.716   8.896   0.923
  245SOL    HW210595   2.727   8.883   0.760
  246SOL     OW10596   3.200   5.134   2.222
  246SOL    HW110597   3.251   5.074   2.160
  246SOL    HW210598   3.119   5.169   2.175
  247SOL     OW10599   2.336   6.939   1.488
  247SOL    HW110600   2.368   6.844   1.490
  247SOL    HW210601   2.352   6.982   1.576
  248SOL     OW10602   3.718   0.842   1.461
  248SOL    HW110603   3.754   0.911   1.524
  248SOL    HW210604   3.628   0.870   1.428
  249SOL     OW10605   1.441   5.254   1.479
  249SOL    HW110606   1.518   5.243   1.417
  249SOL    HW210607   1.416   5.166   1.519
  250SOL     OW10608   2.922   8.905   1.479
  250SOL    HW110609   2.934   8.808   1.499
  250SOL    HW210610   2.985   8.931   1.405
  251SOL     OW10611   4.357   5.208   1.591
  251SOL    HW110612   4.419   5.130   1.598
  251SOL    HW210613   4.398   5.286   1.639
  252SOL     OW10614   4.266   0.745   1.882
  252SOL    HW110615   4.180   0.745   1.934
  252SOL    HW210616   4.279   0.834   1.839
  253SOL     OW10617   4.285   0.981   1.722
  253SOL    HW110618   4.287   1.073   1.683
  253SOL    HW210619   4.259   0.915   1.652
  254SOL     OW10620   2.412   9.346   1.546
  254SOL    HW110621   2.393   9.352   1.448
  254SOL    HW210622   2.400   9.251   1.576
  255SOL     OW10623   5.169   3.417   1.835
  255SOL    HW110624   5.248   3.369   1.873
  255SOL    HW210625   5.145   3.376   1.747
  256SOL     OW10626   2.206   8.096   1.989
  256SOL    HW110627   2.115   8.136   1.981
  256SOL    HW210628   2.257   8.142   2.062
  257SOL     OW10629   3.246   5.961   1.886
  257SOL    HW110630   3.154   5.923   1.877
  257SOL    HW210631   3.305   5.924   1.814
  258SOL     OW10632   3.127   5.632   2.198
  258SOL    HW110633   3.191   5.709   2.204
  258SOL    HW210634   3.179   5.547   2.189
  259SOL     OW10635   0.008   5.120   0.652
  259SOL    HW110636   0.012   5.022   0.671
  259SOL    HW210637   9.967   5.167   0.730
  260SOL     OW10638   4.772   3.875   0.927
  260SOL    HW110639   4.790   3.938   0.851
  260SOL    HW210640   4.781   3.781   0.896
  261SOL     OW10641   0.622   4.418   1.989
  261SOL    HW110642   0.721   4.433   1.989
  261SOL    HW210643   0.603   4.323   2.012
  262SOL     OW10644   4.761   4.105   1.527
  262SOL    HW110645   4.762   4.205   1.530
  262SOL    HW210646   4.765   4.069   1.621
  263SOL     OW10647   1.280   6.180   2.074
  263SOL    HW110648   1.244   6.126   2.150
  263SOL    HW210649   1.242   6.146   1.988
  264SOL     OW10650   3.122   3.868   1.112
  264SOL    HW110651   3.179   3.925   1.053
  264SOL    HW210652   3.170   3.784   1.135
  265SOL     OW10653   3.092   9.363   1.497
  265SOL    HW110654   3.163   9.432   1.487
  265SOL    HW210655   3.045   9.376   1.585
  266SOL     OW10656   1.982   2.877   2.170
  266SOL    HW110657   1.895   2.923   2.151
  266SOL    HW210658   2.038   2.935   2.229
  267SOL     OW10659   3.799   1.871   2.333
  267SOL    HW110660   3.818   1.901   2.426
  267SOL    HW210661   3.716   1.917   2.299
  268SOL     OW10662   0.876   5.674   0.610
  268SOL    HW110663   0.781   5.648   0.624
  268SOL    HW210664   0.882   5.771   0.589
  269SOL     OW10665   2.103   4.972   1.122
  269SOL    HW110666   2.106   5.071   1.106
  269SOL    HW210667   2.008   4.943   1.127
  270SOL     OW10668   3.249   9.110   0.569
  270SOL    HW110669   3.229   9.032   0.629
  270SOL    HW210670   3.277   9.076   0.479
  271SOL     OW10671   0.527   5.837   2.093
  271SOL    HW110672   0.485   5.746   2.088
  271SOL    HW210673   0.618   5.829   2.135
  272SOL     OW10674   2.738   0.746   2.252
  272SOL    HW110675   2.716   0.659   2.209
  272SOL    HW210676   2.684   0.819   2.211
  273SOL     OW10677   1.216   4.351   1.180
  273SOL    HW110678   1.290   4.419   1.183
  273SOL    HW210679   1.175   4.342   1.271
  274SOL     OW10680   4.533   2.673   0.637
  274SOL    HW110681   4.555   2.622   0.720
  274SOL    HW210682   4.524   2.608   0.560
  275SOL     OW10683   3.323   3.025   2.125
  275SOL    HW110684   3.309   2.959   2.051
  275SOL    HW210685   3.255   3.010   2.196
  276SOL     OW10686   2.894   4.135   1.239
  276SOL    HW110687   2.862   4.063   1.177
  276SOL    HW210688   2.817   4.195   1.263
  277SOL     OW10689   2.171   7.073   1.107
  277SOL    HW110690   2.239   7.004   1.083
  277SOL    HW210691   2.154   7.069   1.206
  278SOL     OW10692   2.698   7.203   1.115
  278SOL    HW110693   2.603   7.213   1.143
  278SOL    HW210694   2.756   7.262   1.171
  279SOL     OW10695   4.592   3.371   0.834
  279SOL    HW110696   4.540   3.422   0.902
  279SOL    HW210697   4.609   3.278   0.867
  280SOL     OW10698   2.798   8.491   2.100
  280SOL    HW110699   2.783   8.579   2.055
  280SOL    HW210700   2.710   8.449   2.121
  281SOL     OW10701   2.865   8.215   1.093
  281SOL    HW110702   2.928   8.194   1.018
  281SOL    HW210703   2.806   8.291   1.067
  282SOL     OW10704   2.466   8.748   1.490
  282SOL    HW110705   2.496   8.696   1.570
  282SOL    HW210706   2.537   8.746   1.420
  283SOL     OW10707   3.296   9.576   1.954
  283SOL    HW110708   3.247   9.659   1.929
  283SOL    HW210709   3.337   9.587   2.045
  284SOL     OW10710   9.498   5.073   2.242
  284SOL    HW110711   9.525   5.158   2.288
  284SOL    HW210712   9.506   5.085   2.143
  285SOL     OW10713   2.853   2.034   1.215
  285SOL    HW110714   2.803   1.988   1.142
  285SOL    HW210715   2.846   2.133   1.203
  286SOL     OW10716   2.530   2.005   1.936
  286SOL    HW110717   2.513   1.985   2.032
  286SOL    HW210718   2.534   1.919   1.884
  287SOL     OW10719   4.108   3.587   0.326
  287SOL    HW110720   4.126   3.682   0.299
  287SOL    HW210721   4.124   3.577   0.424
  288SOL     OW10722   4.898   3.715   0.612
  288SOL    HW110723   4.928   3.655   0.538
  288SOL    HW210724   4.903   3.811   0.582
  289SOL     OW10725   2.524   5.722   2.313
  289SOL    HW110726   2.562   5.766   2.232
  289SOL    HW210727   2.570   5.634   2.328
  290SOL     OW10728   0.396   5.267   0.615
  290SOL    HW110729   0.488   5.230   0.602
  290SOL    HW210730   0.333   5.223   0.552
  291SOL     OW10731   4.161   8.889   0.911
  291SOL    HW110732   4.159   8.949   0.831
  291SOL    HW210733   4.087   8.913   0.974
  292SOL     OW10734   2.272   8.545   0.473
  292SOL    HW110735   2.243   8.604   0.549
  292SOL    HW210736   2.338   8.478   0.507
  293SOL     OW10737   2.686   5.362   1.926
  293SOL    HW110738   2.669   5.284   1.986
  293SOL    HW210739   2.619   5.434   1.944
  294SOL     OW10740   4.720   4.610   0.553
  294SOL    HW110741   4.647   4.604   0.621
  294SOL    HW210742   4.711   4.535   0.488
  295SOL     OW10743   1.858   3.713   0.530
  295SOL    HW110744   1.890   3.785   0.469
  295SOL    HW210745   1.834   3.752   0.619
  296SOL     OW10746   2.981   4.911   2.229
  296SOL    HW110747   2.943   4.948   2.144
  296SOL    HW210748   3.023   4.984   2.283
  297SOL     OW10749   1.077   4.310   1.416
  297SOL    HW110750   0.986   4.345   1.396
  297SOL    HW210751   1.072   4.211   1.427
  298SOL     OW10752   4.580   2.336   2.040
  298SOL    HW110753   4.551   2.366   1.949
  298SOL    HW210754   4.584   2.414   2.102
  299SOL     OW10755   2.561   6.037   2.023
  299SOL    HW110756   2.589   5.941   2.032
  299SOL    HW210757   2.462   6.043   2.025
  300SOL     OW10758   4.608   3.185   2.328
  300SOL    HW110759   4.557   3.263   2.293
  300SOL    HW210760   4.590   3.176   2.426
  301SOL     OW10761   3.824   0.166   0.293
  301SOL    HW110762   3.760   0.215   0.353
  301SOL    HW210763   3.813   0.199   0.199
  302SOL     OW10764   2.649   5.778   2.070
  302SOL    HW110765   2.596   5.699   2.040
  302SOL    HW210766   2.747   5.758   2.063
  303SOL     OW10767   3.345   7.977   1.265
  303SOL    HW110768   3.264   7.926   1.234
  303SOL    HW210769   3.342   7.987   1.364
  304SOL     OW10770   2.107   5.248   1.079
  304SOL    HW110771   2.026   5.260   1.137
  304SOL    HW210772   2.188   5.282   1.127
  305SOL     OW10773   2.183   4.338   0.563
  305SOL    HW110774   2.197   4.431   0.529
  305SOL    HW210775   2.098   4.301   0.524
  306SOL     OW10776   1.622   3.248   0.639
  306SOL    HW110777   1.682   3.267   0.561
  306SOL    HW210778   1.675   3.206   0.713
  307SOL     OW10779   9.799   5.323   1.343
  307SOL    HW110780   9.754   5.327   1.254
  307SOL    HW210781   9.766   5.243   1.393
  308SOL     OW10782   1.436   5.616   1.464
  308SOL    HW110783   1.380   5.598   1.545
  308SOL    HW210784   1.402   5.564   1.386
  309SOL     OW10785   1.465   3.109   1.662
  309SOL    HW110786   1.465   3.035   1.729
  309SOL    HW210787   1.471   3.071   1.570
  310SOL     OW10788   4.151   3.542   0.592
  310SOL    HW110789   4.079   3.483   0.629
  310SOL    HW210790   4.240   3.499   0.609
  311SOL     OW10791   1.571   4.950   1.241
  311SOL    HW110792   1.577   4.893   1.322
  311SOL    HW210793   1.476   4.950   1.208
  312SOL     OW10794   1.969   6.813   0.386
  312SOL    HW110795   1.969   6.913   0.386
  312SOL    HW210796   1.876   6.779   0.375
  313SOL     OW10797   1.207   5.907   1.318
  313SOL    HW110798   1.134   5.848   1.284
  313SOL    HW210799   1.167   5.982   1.370
  314SOL     OW10800   2.425   1.414   2.249
  314SOL    HW110801   2.423   1.318   2.222
  314SOL    HW210802   2.518   1.440   2.275
  315SOL     OW10803   9.139   5.026   0.910
  315SOL    HW110804   9.207   5.038   0.837
  315SOL    HW210805   9.068   4.962   0.879
  316SOL     OW10806   9.514   4.537   0.473
  316SOL    HW110807   9.507   4.542   0.573
  316SOL    HW210808   9.427   4.563   0.432
  317SOL     OW10809   2.218   1.853   2.095
  317SOL    HW110810   2.217   1.754   2.103
  317SOL    HW210811   2.299   1.889   2.142
  318SOL     OW10812   4.057   8.424   1.000
  318SOL    HW110813   4.120   8.367   1.053
  318SOL    HW210814   3.963   8.396   1.020
  319SOL     OW10815   3.404   5.472   0.483
  319SOL    HW110816   3.331   5.440   0.542
  319SOL    HW210817   3.370   5.480   0.389
  320SOL     OW10818   4.828   4.438   1.247
  320SOL    HW110819   4.732   4.413   1.230
  320SOL    HW210820   4.836   4.537   1.249
  321SOL     OW10821   2.468   1.933   2.194
  321SOL    HW110822   2.515   1.845   2.199
  321SOL    HW210823   2.520   2.002   2.246
  322SOL     OW10824   2.834   6.970   1.411
  322SOL    HW110825   2.838   6.919   1.325
  322SOL    HW210826   2.897   7.047   1.408
  323SOL     OW10827   8.848   5.118   0.644
  323SOL    HW110828   8.877   5.029   0.679
  323SOL    HW210829   8.929   5.171   0.617
  324SOL     OW10830   2.398   6.137   1.195
  324SOL    HW110831   2.424   6.076   1.269
  324SOL    HW210832   2.468   6.133   1.123
  325SOL     OW10833   0.927   5.528   1.694
  325SOL    HW110834   0.940   5.558   1.788
  325SOL    HW210835   0.926   5.607   1.633
  326SOL     OW10836   3.858   4.923   1.947
  326SOL    HW110837   3.875   5.008   1.896
  326SOL    HW210838   3.795   4.941   2.022
  327SOL     OW10839   2.527   5.226   1.095
  327SOL    HW110840   2.600   5.244   1.160
  327SOL    HW210841   2.442   5.267   1.128
  328SOL     OW10842   3.058   2.781   0.488
  328SOL    HW110843   3.041   2.723   0.568
  328SOL    HW210844   2.974   2.830   0.465
  329SOL     OW10845   4.684   4.393   0.383
  329SOL    HW110846   4.696   4.415   0.286
  329SOL    HW210847   4.718   4.301   0.400
  330SOL     OW10848   1.649   3.887   1.829
  330SOL    HW110849   1.637   3.964   1.767
  330SOL    HW210850   1.601   3.906   1.915
  331SOL     OW10851   2.173   4.435   2.276
  331SOL    HW110852   2.137   4.364   2.216
  331SOL    HW210853   2.137   4.422   2.369
  332SOL     OW10854   0.102   5.043   1.611
  332SOL    HW110855   0.038   4.996   1.671
  332SOL    HW210856   0.123   4.986   1.532
  333SOL     OW10857   2.045   4.372   0.967
  333SOL    HW110858   1.959   4.424   0.967
  333SOL    HW210859   2.040   4.301   1.038
  334SOL     OW10860   1.650   6.293   0.799
  334SOL    HW110861   1.629   6.237   0.879
  334SOL    HW210862   1.737   6.263   0.759
  335SOL     OW10863   4.587   4.043   2.289
  335SOL    HW110864   4.581   4.062   2.387
  335SOL    HW210865   4.667   4.091   2.251
  336SOL     OW10866   1.988   5.514   0.580
  336SOL    HW110867   1.942   5.589   0.533
  336SOL    HW210868   2.078   5.545   0.611
  337SOL     OW10869   1.830   4.903   1.136
  337SOL    HW110870   1.833   4.903   1.036
  337SOL    HW210871   1.739   4.927   1.167
  338SOL     OW10872   1.612   6.631   2.046
  338SOL    HW110873   1.637   6.702   2.112
  338SOL    HW210874   1.516   6.606   2.059
  339SOL     OW10875   3.262   2.572   1.765
  339SOL    HW110876   3.290   2.548   1.858
  339SOL    HW210877   3.317   2.648   1.732
  340SOL     OW10878   0.814   4.811   0.569
  340SOL    HW110879   0.888   4.866   0.531
  340SOL    HW210880   0.852   4.727   0.607
  341SOL     OW10881   1.929   6.942   0.706
  341SOL    HW110882   1.932   7.040   0.690
  341SOL    HW210883   1.959   6.922   0.800
  342SOL     OW10884   2.737   8.142   0.510
  342SOL    HW110885   2.638   8.147   0.496
  342SOL    HW210886   2.776   8.234   0.502
  343SOL     OW10887   2.692   4.732   0.435
  343SOL    HW110888   2.695   4.650   0.377
  343SOL    HW210889   2.732   4.710   0.524
  344SOL     OW10890   2.895   4.074   2.309
  344SOL    HW110891   2.973   4.070   2.247
  344SOL    HW210892   2.913   4.018   2.390
  345SOL     OW10893   3.567   9.456   2.152
  345SOL    HW110894   3.507   9.530   2.182
  345SOL    HW210895   3.662   9.481   2.171
  346SOL     OW10896   4.795   2.835   1.423
  346SOL    HW110897   4.894   2.845   1.435
  346SOL    HW210898   4.751   2.924   1.432
  347SOL     OW10899   2.475   4.224   1.165
  347SOL    HW110900   2.477   4.229   1.065
  347SOL    HW210901   2.390   4.179   1.194
  348SOL     OW10902   2.400   9.103   1.679
  348SOL    HW110903   2.434   9.009   1.690
  348SOL    HW210904   2.300   9.102   1.682
  349SOL     OW10905   4.111   5.048   1.745
  349SOL    HW110906   4.196   5.066   1.794
  349SOL    HW210907   4.126   5.061   1.647
  350SOL     OW10908   3.009   6.831   2.325
  350SOL    HW110909   3.092   6.888   2.321
  350SOL    HW210910   2.995   6.800   2.419
  351SOL     OW10911   2.699   1.894   1.036
  351SOL    HW110912   2.745   1.881   0.949
  351SOL    HW210913   2.639   1.816   1.055
  352SOL     OW10914   4.283   3.561   1.901
  352SOL    HW110915   4.324   3.640   1.946
  352SOL    HW210916   4.312   3.478   1.948
  353SOL     OW10917   3.124   7.447   1.738
  353SOL    HW110918   3.206   7.443   1.681
  353SOL    HW210919   3.057   7.508   1.695
  354SOL     OW10920   2.982   2.025   0.889
  354SOL    HW110921   2.963   2.121   0.912
  354SOL    HW210922   3.070   1.998   0.929
  355SOL     OW10923   4.002   0.074   1.718
  355SOL    HW110924   4.037   0.095   1.627
  355SOL    HW210925   3.961   9.983   1.718
  356SOL     OW10926   2.479   1.142   0.389
  356SOL    HW110927   2.385   1.134   0.421
  356SOL    HW210928   2.490   1.094   0.302
  357SOL     OW10929   3.513   3.412   1.072
  357SOL    HW110930   3.547   3.353   1.000
  357SOL    HW210931   3.478   3.497   1.032
  358SOL     OW10932   1.522   4.319   0.463
  358SOL    HW110933   1.482   4.230   0.445
  358SOL    HW210934   1.592   4.339   0.394
  359SOL     OW10935   4.607   1.394   1.299
  359SOL    HW110936   4.572   1.408   1.391
  359SOL    HW210937   4.621   1.296   1.283
  360SOL     OW10938   3.879   8.564   2.220
  360SOL    HW110939   3.862   8.475   2.262
  360SOL    HW210940   3.874   8.555   2.121
  361SOL     OW10941   2.383   4.959   1.820
  361SOL    HW110942   2.460   4.964   1.757
  361SOL    HW210943   2.301   4.929   1.770
  362SOL     OW10944   2.799   3.550   1.132
  362SOL    HW110945   2.756   3.630   1.174
  362SOL    HW210946   2.859   3.506   1.199
  363SOL     OW10947   3.172   0.402   0.834
  363SOL    HW110948   3.139   0.494   0.817
  363SOL    HW210949   3.129   0.365   0.916
  364SOL     OW10950   3.096   8.941   1.927
  364SOL    HW110951   3.163   8.897   1.988
  364SOL    HW210952   3.053   9.017   1.975
  365SOL     OW10953   3.970   0.216   0.937
  365SOL    HW110954   4.007   0.258   0.854
  365SOL    HW210955   3.898   0.151   0.912
  366SOL     OW10956   9.860   4.644   1.719
  366SOL    HW110957   9.799   4.605   1.788
  366SOL    HW210958   9.927   4.574   1.691
  367SOL     OW10959   2.586   2.365   1.446
  367SOL    HW110960   2.552   2.376   1.539
  367SOL    HW210961   2.600   2.268   1.427
  368SOL     OW10962   2.557   8.620   1.720
  368SOL    HW110963   2.544   8.712   1.755
  368SOL    HW210964   2.548   8.554   1.795
  369SOL     OW10965   4.877   1.867   1.868
  369SOL    HW110966   4.921   1.951   1.837
  369SOL    HW210967   4.778   1.876   1.860
  370SOL     OW10968   1.231   6.184   0.953
  370SOL    HW110969   1.261   6.198   1.048
  370SOL    HW210970   1.232   6.271   0.905
  371SOL     OW10971   4.414   4.041   1.706
  371SOL    HW110972   4.481   4.075   1.772
  371SOL    HW210973   4.403   4.108   1.632
  372SOL     OW10974   5.100   3.335   1.579
  372SOL    HW110975   5.140   3.422   1.551
  372SOL    HW210976   5.008   3.327   1.540
  373SOL     OW10977   4.204   0.613   2.241
  373SOL    HW110978   4.126   0.567   2.198
  373SOL    HW210979   4.176   0.704   2.270
  374SOL     OW10980   3.266   2.955   0.555
  374SOL    HW110981   3.343   2.899   0.587
  374SOL    HW210982   3.195   2.896   0.517
  375SOL     OW10983   1.903   3.988   0.990
  375SOL    HW110984   1.952   4.061   1.038
  375SOL    HW210985   1.923   3.900   1.034
  376SOL     OW10986   4.143   2.012   1.368
  376SOL    HW110987   4.055   2.020   1.417
  376SOL    HW210988   4.133   1.945   1.294
  377SOL     OW10989   3.753   1.611   1.399
  377SOL    HW110990   3.768   1.662   1.484
  377SOL    HW210991   3.790   1.519   1.409
  378SOL     OW10992   1.743   5.893   1.624
  378SOL    HW110993   1.691   5.972   1.589
  378SOL    HW210994   1.732   5.816   1.561
  379SOL     OW10995   1.312   5.371   1.867
  379SOL    HW110996   1.257   5.393   1.947
  379SOL    HW210997   1.358   5.283   1.881
  380SOL     OW10998   4.750   3.613   0.825
  380SOL    HW110999   4.697   3.529   0.810
  380SOL    HW211000   4.793   3.641   0.739
  381SOL     OW11001   2.891   7.792   2.293
  381SOL    HW111002   2.929   7.781   2.202
  381SOL    HW211003   2.963   7.778   2.361
  382SOL     OW11004   2.060   5.479   1.660
  382SOL    HW111005   1.962   5.483   1.639
  382SOL    HW211006   2.073   5.442   1.752
  383SOL     OW11007   1.857   3.642   1.703
  383SOL    HW111008   1.896   3.642   1.795
  383SOL    HW211009   1.758   3.634   1.709
  384SOL     OW11010   3.030   6.714   1.034
  384SOL    HW111011   2.999   6.777   0.963
  384SOL    HW211012   3.128   6.727   1.050
  385SOL     OW11013   3.329   0.059   0.891
  385SOL    HW111014   3.281   9.971   0.894
  385SOL    HW211015   3.262   0.133   0.897
  386SOL     OW11016   2.989   9.167   2.057
  386SOL    HW111017   3.036   9.252   2.032
  386SOL    HW211018   2.891   9.179   2.046
  387SOL     OW11019   2.775   4.067   1.824
  387SOL    HW111020   2.839   3.997   1.792
  387SOL    HW211021   2.686   4.053   1.780
  388SOL     OW11022   1.870   4.241   1.373
  388SOL    HW111023   1.777   4.232   1.337
  388SOL    HW211024   1.880   4.180   1.452
  389SOL     OW11025   0.859   5.414   0.839
  389SOL    HW111026   0.866   5.318   0.811
  389SOL    HW211027   0.942   5.463   0.813
  390SOL     OW11028   9.945   5.042   1.314
  390SOL    HW111029   9.955   4.943   1.329
  390SOL    HW211030   9.882   5.079   1.383
  391SOL     OW11031   0.332   5.531   0.593
  391SOL    HW111032   0.238   5.531   0.560
  391SOL    HW211033   0.363   5.436   0.606
  392SOL     OW11034   3.560   0.093   0.746
  392SOL    HW111035   3.540   0.077   0.649
  392SOL    HW211036   3.475   0.091   0.798
  393SOL     OW11037   4.382   1.762   1.894
  393SOL    HW111038   4.359   1.692   1.961
  393SOL    HW211039   4.324   1.842   1.910
  394SOL     OW11040   3.158   2.318   0.571
  394SOL    HW111041   3.172   2.399   0.513
  394SOL    HW211042   3.226   2.317   0.644
  395SOL     OW11043   4.468   4.851   2.219
  395SOL    HW111044   4.482   4.843   2.120
  395SOL    HW211045   4.502   4.768   2.264
  396SOL     OW11046   5.234   3.268   1.212
  396SOL    HW111047   5.212   3.214   1.293
  396SOL    HW211048   5.218   3.364   1.230
  397SOL     OW11049   2.495   8.566   1.169
  397SOL    HW111050   2.554   8.610   1.238
  397SOL    HW211051   2.434   8.635   1.130
  398SOL     OW11052   3.225   0.056   2.040
  398SOL    HW111053   3.245   0.124   1.970
  398SOL    HW211054   3.185   0.101   2.120
  399SOL     OW11055   2.342   2.575   2.269
  399SOL    HW111056   2.329   2.501   2.334
  399SOL    HW211057   2.387   2.540   2.187
  400SOL     OW11058   1.123   4.886   0.971
  400SOL    HW111059   1.110   4.790   0.944
  400SOL    HW211060   1.189   4.890   1.046
  401SOL     OW11061   2.538   6.459   1.595
  401SOL    HW111062   2.443   6.449   1.625
  401SOL    HW211063   2.595   6.485   1.673
  402SOL     OW11064   2.923   4.726   1.897
  402SOL    HW111065   2.904   4.705   1.801
  402SOL    HW211066   3.011   4.686   1.923
  403SOL     OW11067   3.850   9.209   1.739
  403SOL    HW111068   3.884   9.216   1.645
  403SOL    HW211069   3.758   9.248   1.744
  404SOL     OW11070   0.438   3.773   1.662
  404SOL    HW111071   0.375   3.705   1.623
  404SOL    HW211072   0.401   3.865   1.647
  405SOL     OW11073   4.036   0.321   0.690
  405SOL    HW111074   4.057   0.226   0.668
  405SOL    HW211075   4.059   0.379   0.612
  406SOL     OW11076   2.910   4.285   1.906
  406SOL    HW111077   2.853   4.353   1.952
  406SOL    HW211078   2.856   4.204   1.887
  407SOL     OW11079   2.603   1.422   1.426
  407SOL    HW111080   2.669   1.417   1.501
  407SOL    HW211081   2.511   1.408   1.461
  408SOL     OW11082   2.794   2.318   1.196
  408SOL    HW111083   2.699   2.350   1.195
  408SOL    HW211084   2.842   2.358   1.274
  409SOL     OW11085   4.001   1.770   1.810
  409SOL    HW111086   4.051   1.699   1.761
  409SOL    HW211087   3.998   1.748   1.908
  410SOL     OW11088   3.082   8.667   0.979
  410SOL    HW111089   3.143   8.590   0.993
  410SOL    HW211090   3.062   8.678   0.882
  411SOL     OW11091   3.790   4.827   0.666
  411SOL    HW111092   3.889   4.824   0.681
  411SOL    HW211093   3.761   4.921   0.650
  412SOL     OW11094   2.991   6.222   1.173
  412SOL    HW111095   3.012   6.232   1.270
  412SOL    HW211096   3.006   6.309   1.127
  413SOL     OW11097   2.199   2.820   1.696
  413SOL    HW111098   2.139   2.798   1.772
  413SOL    HW211099   2.269   2.750   1.686
  414SOL     OW11100   3.174   1.093   1.933
  414SOL    HW111101   3.136   1.061   2.021
  414SOL    HW211102   3.120   1.055   1.858
  415SOL     OW11103   9.174   4.199   1.836
  415SOL    HW111104   9.139   4.199   1.930
  415SOL    HW211105   9.259   4.251   1.832
  416SOL     OW11106   1.645   5.211   1.291
  416SOL    HW111107   1.610   5.275   1.223
  416SOL    HW211108   1.618   5.118   1.266
  417SOL     OW11109   4.250   2.968   0.500
  417SOL    HW111110   4.299   2.930   0.579
  417SOL    HW211111   4.278   3.062   0.485
  418SOL     OW11112   1.165   4.023   2.214
  418SOL    HW111113   1.129   4.115   2.197
  418SOL    HW211114   1.089   3.958   2.217
  419SOL     OW11115   0.273   4.581   1.634
  419SOL    HW111116   0.301   4.638   1.711
  419SOL    HW211117   0.321   4.611   1.551
  420SOL     OW11118   4.144   3.002   1.801
  420SOL    HW111119   4.186   3.000   1.891
  420SOL    HW211120   4.190   2.936   1.741
  421SOL     OW11121   3.019   0.976   1.377
  421SOL    HW111122   3.006   1.003   1.281
  421SOL    HW211123   3.047   0.881   1.381
  422SOL     OW11124   4.270   8.636   0.662
  422SOL    HW111125   4.271   8.632   0.761
  422SOL    HW211126   4.347   8.692   0.630
  423SOL     OW11127   2.723   3.780   1.263
  423SOL    HW111128   2.685   3.836   1.337
  423SOL    HW211129   2.760   3.840   1.192
  424SOL     OW11130   0.492   5.061   1.435
  424SOL    HW111131   0.436   5.059   1.353
  424SOL    HW211132   0.572   5.119   1.420
  425SOL     OW11133   2.679   4.562   1.762
  425SOL    HW111134   2.594   4.567   1.709
  425SOL    HW211135   2.756   4.590   1.705
  426SOL     OW11136   0.309   5.051   1.225
  426SOL    HW111137   0.375   5.069   1.152
  426SOL    HW211138   0.219   5.085   1.197
  427SOL     OW11139   3.853   9.199   1.068
  427SOL    HW111140   3.763   9.243   1.069
  427SOL    HW211141   3.924   9.270   1.073
  428SOL     OW11142   2.917   5.643   0.455
  428SOL    HW111143   2.871   5.665   0.541
  428SOL    HW211144   2.897   5.715   0.388
  429SOL     OW11145   3.180   4.570   0.795
  429SOL    HW111146   3.105   4.596   0.856
  429SOL    HW211147   3.164   4.608   0.704
  430SOL     OW11148   3.807   8.323   1.032
  430SOL    HW111149   3.779   8.238   1.077
  430SOL    HW211150   3.742   8.396   1.054
  431SOL     OW11151   2.798   7.471   0.434
  431SOL    HW111152   2.728   7.409   0.400
  431SOL    HW211153   2.850   7.426   0.506
  432SOL     OW11154   1.910   3.069   1.719
  432SOL    HW111155   1.859   2.985   1.735
  432SOL    HW211156   1.952   3.099   1.805
  433SOL     OW11157   2.308   4.450   1.001
  433SOL    HW111158   2.372   4.386   0.958
  433SOL    HW211159   2.215   4.414   0.993
  434SOL     OW11160   3.845   8.573   1.941
  434SOL    HW111161   3.921   8.619   1.894
  434SOL    HW211162   3.773   8.640   1.962
  435SOL     OW11163   0.573   4.796   2.197
  435SOL    HW111164   0.666   4.760   2.191
  435SOL    HW211165   0.551   4.814   2.293
  436SOL     OW11166   3.516   0.060   1.805
  436SOL    HW111167   3.604   0.093   1.771
  436SOL    HW211168   3.449   0.062   1.731
  437SOL     OW11169   3.318   6.269   1.380
  437SOL    HW111170   3.346   6.188   1.329
  437SOL    HW211171   3.314   6.347   1.319
  438SOL     OW11172   3.664   4.210   1.878
  438SOL    HW111173   3.610   4.165   1.949
  438SOL    HW211174   3.714   4.287   1.917
  439SOL     OW11175   3.907   4.872   0.986
  439SOL    HW111176   3.940   4.860   0.893
  439SOL    HW211177   3.808   4.858   0.989
  440SOL     OW11178   9.683   4.549   1.904
  440SOL    HW111179   9.695   4.617   1.976
  440SOL    HW211180   9.655   4.462   1.945
  441SOL     OW11181   2.495   5.900   0.867
  441SOL    HW111182   2.522   5.814   0.911
  441SOL    HW211183   2.529   5.977   0.922
  442SOL     OW11184   4.457   3.382   2.219
  442SOL    HW111185   4.377   3.354   2.167
  442SOL    HW211186   4.448   3.478   2.246
  443SOL     OW11187   3.386   4.274   1.432
  443SOL    HW111188   3.334   4.249   1.514
  443SOL    HW211189   3.377   4.202   1.363
  444SOL     OW11190   2.729   7.967   1.020
  444SOL    HW111191   2.771   8.050   1.056
  444SOL    HW211192   2.706   7.980   0.924
  445SOL     OW11193   2.745   0.325   1.397
  445SOL    HW111194   2.833   0.367   1.421
  445SOL    HW211195   2.719   0.259   1.467
  446SOL     OW11196   3.074   2.662   2.032
  446SOL    HW111197   2.995   2.699   1.984
  446SOL    HW211198   3.050   2.573   2.071
  447SOL     OW11199   2.587   1.977   0.593
  447SOL    HW111200   2.546   2.063   0.560
  447SOL    HW211201   2.527   1.937   0.662
  448SOL     OW11202   3.653   9.391   1.032
  448SOL    HW111203   3.630   9.452   0.956
  448SOL    HW211204   3.682   9.446   1.111
  449SOL     OW11205   3.280   6.466   1.195
  449SOL    HW111206   3.193   6.447   1.149
  449SOL    HW211207   3.317   6.553   1.162
  450SOL     OW11208   4.606   1.915   1.846
  450SOL    HW111209   4.594   1.987   1.915
  450SOL    HW211210   4.535   1.845   1.858
  451SOL     OW11211   2.649   3.135   0.813
  451SOL    HW111212   2.694   3.136   0.902
  451SOL    HW211213   2.554   3.106   0.824
  452SOL     OW11214   3.271   9.806   0.642
  452SOL    HW111215   3.222   9.799   0.729
  452SOL    HW211216   3.220   9.757   0.571
  453SOL     OW11217   2.308   5.289   1.479
  453SOL    HW111218   2.300   5.380   1.520
  453SOL    HW211219   2.381   5.238   1.525
  454SOL     OW11220   1.985   2.166   0.950
  454SOL    HW111221   2.070   2.132   0.910
  454SOL    HW211222   1.985   2.149   1.049
  455SOL     OW11223   0.509   4.306   1.022
  455SOL    HW111224   0.424   4.342   0.984
  455SOL    HW211225   0.548   4.371   1.086
  456SOL     OW11226   1.692   3.330   2.116
  456SOL    HW111227   1.635   3.380   2.052
  456SOL    HW211228   1.744   3.395   2.171
  457SOL     OW11229   5.126   2.410   0.402
  457SOL    HW111230   5.218   2.441   0.376
  457SOL    HW211231   5.125   2.310   0.407
  458SOL     OW11232   2.489   1.476   0.899
  458SOL    HW111233   2.460   1.511   0.810
  458SOL    HW211234   2.550   1.399   0.887
  459SOL     OW11235   2.756   3.728   2.248
  459SOL    HW111236   2.667   3.774   2.258
  459SOL    HW211237   2.800   3.759   2.164
  460SOL     OW11238   0.163   4.718   2.321
  460SOL    HW111239   0.169   4.643   2.387
  460SOL    HW211240   0.096   4.696   2.250
  461SOL     OW11241   2.628   6.933   1.119
  461SOL    HW111242   2.664   7.024   1.100
  461SOL    HW211243   2.703   6.872   1.145
  462SOL     OW11244   9.778   5.704   1.891
  462SOL    HW111245   9.757   5.718   1.794
  462SOL    HW211246   9.743   5.780   1.945
  463SOL     OW11247   3.990   8.154   1.252
  463SOL    HW111248   3.915   8.104   1.208
  463SOL    HW211249   3.960   8.188   1.341
  464SOL     OW11250   2.195   3.100   1.655
  464SOL    HW111251   2.222   3.006   1.676
  464SOL    HW211252   2.095   3.108   1.661
  465SOL     OW11253   2.872   3.762   2.003
  465SOL    HW111254   2.911   3.671   2.017
  465SOL    HW211255   2.946   3.826   1.981
  466SOL     OW11256   3.114   0.186   2.261
  466SOL    HW111257   3.188   0.185   2.328
  466SOL    HW211258   3.071   0.276   2.260
  467SOL     OW11259   1.381   5.026   1.604
  467SOL    HW111260   1.469   5.031   1.652
  467SOL    HW211261   1.331   4.946   1.635
  468SOL     OW11262   3.555   2.644   1.518
  468SOL    HW111263   3.619   2.705   1.471
  468SOL    HW211264   3.506   2.695   1.589
  469SOL     OW11265   3.008   8.590   2.253
  469SOL    HW111266   2.993   8.689   2.254
  469SOL    HW211267   2.933   8.545   2.205
  470SOL     OW11268   3.852   8.764   0.387
  470SOL    HW111269   3.911   8.776   0.467
  470SOL    HW211270   3.815   8.672   0.386
  471SOL     OW11271   3.287   0.958   2.216
  471SOL    HW111272   3.191   0.952   2.191
  471SOL    HW211273   3.307   1.051   2.249
  472SOL     OW11274   4.077   0.187   0.404
  472SOL    HW111275   4.096   0.122   0.478
  472SOL    HW211276   3.988   0.166   0.363
  473SOL     OW11277   2.516   1.687   1.070
  473SOL    HW111278   2.436   1.747   1.069
  473SOL    HW211279   2.500   1.610   1.008
  474SOL     OW11280   2.910   9.980   0.744
  474SOL    HW111281   2.877   9.993   0.650
  474SOL    HW211282   3.008   9.956   0.742
  475SOL     OW11283   0.878   5.812   1.607
  475SOL    HW111284   0.972   5.816   1.643
  475SOL    HW211285   0.815   5.849   1.675
  476SOL     OW11286   2.593   7.196   2.310
  476SOL    HW111287   2.498   7.224   2.327
  476SOL    HW211288   2.647   7.276   2.284
  477SOL     OW11289   3.419   1.219   1.929
  477SOL    HW111290   3.469   1.202   1.844
  477SOL    HW211291   3.331   1.173   1.925
  478SOL     OW11292   2.548   3.276   2.221
  478SOL    HW111293   2.462   3.230   2.201
  478SOL    HW211294   2.596   3.227   2.294
  479SOL     OW11295   4.956   2.682   2.211
  479SOL    HW111296   4.907   2.694   2.298
  479SOL    HW211297   4.891   2.689   2.135
  480SOL     OW11298   2.957   9.074   0.925
  480SOL    HW111299   2.888   9.019   0.971
  480SOL    HW211300   3.048   9.044   0.954
  481SOL     OW11301   2.656   3.937   1.477
  481SOL    HW111302   2.595   3.953   1.555
  481SOL    HW211303   2.738   3.993   1.488
  482SOL     OW11304   0.322   4.134   1.865
  482SOL    HW111305   0.319   4.080   1.781
  482SOL    HW211306   0.238   4.186   1.875
  483SOL     OW11307   2.119   7.058   1.373
  483SOL    HW111308   2.196   7.013   1.418
  483SOL    HW211309   2.038   7.052   1.431
  484SOL     OW11310   1.420   3.426   0.693
  484SOL    HW111311   1.444   3.481   0.772
  484SOL    HW211312   1.494   3.362   0.673
  485SOL     OW11313   0.664   5.180   0.592
  485SOL    HW111314   0.720   5.161   0.672
  485SOL    HW211315   0.721   5.218   0.519
  486SOL     OW11316   2.424   7.919   0.685
  486SOL    HW111317   2.449   7.831   0.644
  486SOL    HW211318   2.382   7.902   0.775
  487SOL     OW11319   1.460   5.251   2.222
  487SOL    HW111320   1.515   5.172   2.250
  487SOL    HW211321   1.515   5.334   2.229
  488SOL     OW11322   1.667   5.430   2.219
  488SOL    HW111323   1.748   5.483   2.245
  488SOL    HW211324   1.663   5.421   2.120
  489SOL     OW11325   2.379   4.693   0.694
  489SOL    HW111326   2.351   4.663   0.602
  489SOL    HW211327   2.424   4.782   0.687
  490SOL     OW11328   2.998   0.720   2.312
  490SOL    HW111329   3.023   0.753   2.403
  490SOL    HW211330   2.899   0.732   2.298
  491SOL     OW11331   4.054   0.609   1.624
  491SOL    HW111332   4.114   0.556   1.684
  491SOL    HW211333   4.019   0.550   1.551
  492SOL     OW11334   4.285   4.364   0.965
  492SOL    HW111335   4.297   4.366   1.065
  492SOL    HW211336   4.311   4.274   0.931
  493SOL     OW11337   3.248   3.937   2.149
  493SOL    HW111338   3.186   3.917   2.074
  493SOL    HW211339   3.309   4.012   2.122
  494SOL     OW11340   2.498   7.897   1.165
  494SOL    HW111341   2.481   7.974   1.226
  494SOL    HW211342   2.580   7.914   1.110
  495SOL     OW11343   0.764   4.012   2.044
  495SOL    HW111344   0.830   4.057   1.983
  495SOL    HW211345   0.679   4.065   2.046
  496SOL     OW11346   2.469   2.807   0.751
  496SOL    HW111347   2.465   2.796   0.651
  496SOL    HW211348   2.533   2.741   0.789
  497SOL     OW11349   2.705   5.888   0.465
  497SOL    HW111350   2.784   5.931   0.420
  497SOL    HW211351   2.654   5.956   0.517
  498SOL     OW11352   4.610   4.130   1.871
  498SOL    HW111353   4.675   4.058   1.849
  498SOL    HW211354   4.651   4.219   1.852
  499SOL     OW11355   1.421   4.065   0.432
  499SOL    HW111356   1.368   3.984   0.407
  499SOL    HW211357   1.473   4.047   0.516
  500SOL     OW11358   2.979   4.835   1.195
  500SOL    HW111359   2.919   4.866   1.121
  500SOL    HW211360   2.925   4.790   1.266
  501SOL     OW11361   1.101   4.722   2.168
  501SOL    HW111362   1.117   4.641   2.113
  501SOL    HW211363   1.188   4.755   2.206
  502SOL     OW11364   4.660   3.643   1.973
  502SOL    HW111365   4.577   3.695   1.993
  502SOL    HW211366   4.688   3.661   1.878
  503SOL     OW11367   2.999   3.462   0.724
  503SOL    HW111368   3.020   3.389   0.658
  503SOL    HW211369   2.965   3.421   0.809
  504SOL     OW11370   2.574   8.065   2.267
  504SOL    HW111371   2.612   7.979   2.233
  504SOL    HW211372   2.474   8.057   2.271
  505SOL     OW11373   3.734   0.527   1.159
  505SOL    HW111374   3.817   0.477   1.134
  505SOL    HW211375   3.666   0.463   1.196
  506SOL     OW11376   2.529   2.444   1.196
  506SOL    HW111377   2.432   2.454   1.175
  506SOL    HW211378   2.540   2.424   1.293
  507SOL     OW11379   0.821   4.695   2.166
  507SOL    HW111380   0.914   4.718   2.197
  507SOL    HW211381   0.827   4.641   2.082
  508SOL     OW11382   2.651   2.599   0.795
  508SOL    HW111383   2.616   2.506   0.785
  508SOL    HW211384   2.704   2.624   0.714
  509SOL     OW11385   3.852   2.084   0.612
  509SOL    HW111386   3.875   2.181   0.622
  509SOL    HW211387   3.756   2.076   0.585
  510SOL     OW11388   1.075   3.249   1.853
  510SOL    HW111389   1.172   3.259   1.833
  510SOL    HW211390   1.064   3.193   1.935
  511SOL     OW11391   2.586   0.749   1.644
  511SOL    HW111392   2.622   0.698   1.566
  511SOL    HW211393   2.636   0.721   1.727
  512SOL     OW11394   4.102   1.346   1.787
  512SOL    HW111395   4.077   1.407   1.862
  512SOL    HW211396   4.078   1.252   1.812
  513SOL     OW11397   2.954   5.196   0.634
  513SOL    HW111398   2.967   5.267   0.565
  513SOL    HW211399   3.035   5.138   0.639
  514SOL     OW11400   5.348   2.645   2.221
  514SOL    HW111401   5.286   2.720   2.196
  514SOL    HW211402   5.403   2.619   2.141
  515SOL     OW11403   2.356   6.271   0.442
  515SOL    HW111404   2.311   6.182   0.442
  515SOL    HW211405   2.449   6.262   0.408
  516SOL     OW11406   3.118   3.054   1.798
  516SOL    HW111407   3.158   2.977   1.850
  516SOL    HW211408   3.108   3.027   1.703
  517SOL     OW11409   2.472   0.475   1.811
  517SOL    HW111410   2.555   0.528   1.831
  517SOL    HW211411   2.402   0.536   1.774
  518SOL     OW11412   3.288   4.210   1.683
  518SOL    HW111413   3.228   4.194   1.761
  518SOL    HW211414   3.362   4.272   1.709
  519SOL     OW11415   2.995   5.870   1.828
  519SOL    HW111416   2.943   5.955   1.819
  519SOL    HW211417   2.975   5.809   1.751
  520SOL     OW11418   9.832   4.530   1.273
  520SOL    HW111419   9.900   4.479   1.326
  520SOL    HW211420   9.827   4.492   1.181
  521SOL     OW11421   4.373   3.075   1.187
  521SOL    HW111422   4.456   3.126   1.207
  521SOL    HW211423   4.390   3.011   1.112
  522SOL     OW11424   2.878   1.314   1.258
  522SOL    HW111425   2.930   1.330   1.342
  522SOL    HW211426   2.821   1.393   1.238
  523SOL     OW11427   3.708   3.569   0.399
  523SOL    HW111428   3.617   3.529   0.389
  523SOL    HW211429   3.772   3.521   0.340
  524SOL     OW11430   1.859   3.516   1.211
  524SOL    HW111431   1.790   3.505   1.282
  524SOL    HW211432   1.939   3.460   1.234
  525SOL     OW11433   3.312   4.543   1.096
  525SOL    HW111434   3.411   4.546   1.080
  525SOL    HW211435   3.270   4.629   1.069
  526SOL     OW11436   0.146   5.236   0.447
  526SOL    HW111437   0.098   5.185   0.519
  526SOL    HW211438   0.124   5.333   0.455
  527SOL     OW11439   3.941   0.915   0.295
  527SOL    HW111440   3.911   0.942   0.387
  527SOL    HW211441   4.011   0.979   0.263
  528SOL     OW11442   4.247   2.021   1.896
  528SOL    HW111443   4.319   2.081   1.862
  528SOL    HW211444   4.163   2.035   1.843
  529SOL     OW11445   9.701   5.054   0.753
  529SOL    HW111446   9.625   5.111   0.724
  529SOL    HW211447   9.769   5.110   0.800
  530SOL     OW11448   5.366   3.818   1.242
  530SOL    HW111449   5.456   3.840   1.281
  530SOL    HW211450   5.295   3.836   1.310
  531SOL     OW11451   2.703   1.464   2.261
  531SOL    HW111452   2.700   1.380   2.206
  531SOL    HW211453   2.797   1.480   2.291
  532SOL     OW11454   3.200   4.785   1.038
  532SOL    HW111455   3.119   4.797   1.095
  532SOL    HW211456   3.176   4.804   0.942
  533SOL     OW11457   3.783   0.405   1.560
  533SOL    HW111458   3.802   0.478   1.495
  533SOL    HW211459   3.805   0.436   1.652
  534SOL     OW11460   2.629   5.147   2.077
  534SOL    HW111461   2.533   5.152   2.050
  534SOL    HW211462   2.665   5.056   2.058
  535SOL     OW11463   2.798   3.104   1.045
  535SOL    HW111464   2.791   3.112   1.145
  535SOL    HW211465   2.829   3.012   1.021
  536SOL     OW11466   1.432   4.519   1.161
  536SOL    HW111467   1.515   4.464   1.171
  536SOL    HW211468   1.437   4.571   1.076
  537SOL     OW11469   2.494   4.274   0.886
  537SOL    HW111470   2.542   4.352   0.846
  537SOL    HW211471   2.520   4.191   0.837
  538SOL     OW11472   4.281   0.615   0.573
  538SOL    HW111473   4.223   0.559   0.514
  538SOL    HW211474   4.369   0.630   0.528
  539SOL     OW11475   2.367   3.657   2.242
  539SOL    HW111476   2.415   3.739   2.210
  539SOL    HW211477   2.379   3.648   2.341
  540SOL     OW11478   1.403   3.932   2.125
  540SOL    HW111479   1.315   3.960   2.164
  540SOL    HW211480   1.423   3.987   2.044
  541SOL     OW11481   3.303   7.757   2.105
  541SOL    HW111482   3.259   7.675   2.071
  541SOL    HW211483   3.257   7.838   2.068
  542SOL     OW11484   2.489   0.201   1.805
  542SOL    HW111485   2.551   0.187   1.728
  542SOL    HW211486   2.473   0.299   1.817
  543SOL     OW11487   3.477   1.834   1.047
  543SOL    HW111488   3.476   1.772   0.968
  543SOL    HW211489   3.494   1.782   1.130
  544SOL     OW11490   2.615   2.671   2.031
  544SOL    HW111491   2.553   2.592   2.034
  544SOL    HW211492   2.643   2.694   2.124
  545SOL     OW11493   0.843   4.030   1.508
  545SOL    HW111494   0.783   4.015   1.430
  545SOL    HW211495   0.811   4.107   1.562
  546SOL     OW11496   3.226   9.487   0.840
  546SOL    HW111497   3.272   9.401   0.815
  546SOL    HW211498   3.292   9.548   0.885
  547SOL     OW11499   0.099   4.265   0.497
  547SOL    HW111500   0.019   4.292   0.550
  547SOL    HW211501   0.162   4.343   0.489
  548SOL     OW11502   4.229   2.976   1.396
  548SOL    HW111503   4.220   3.051   1.461
  548SOL    HW211504   4.286   3.005   1.319
  549SOL     OW11505   4.909   4.443   2.003
  549SOL    HW111506   4.971   4.386   2.056
  549SOL    HW211507   4.823   4.454   2.051
  550SOL     OW11508   4.204   4.807   1.912
  550SOL    HW111509   4.161   4.725   1.950
  550SOL    HW211510   4.136   4.860   1.863
  551SOL     OW11511   3.922   3.224   2.313
  551SOL    HW111512   3.860   3.260   2.243
  551SOL    HW211513   3.951   3.298   2.374
  552SOL     OW11514   2.529   9.986   1.191
  552SOL    HW111515   2.438   9.981   1.150
  552SOL    HW211516   2.592   9.928   1.140
  553SOL     OW11517   2.289   6.539   0.427
  553SOL    HW111518   2.306   6.441   0.436
  553SOL    HW211519   2.254   6.559   0.335
  554SOL     OW11520   3.282   3.813   0.377
  554SOL    HW111521   3.324   3.749   0.441
  554SOL    HW211522   3.295   3.781   0.284
  555SOL     OW11523   2.272   3.354   1.017
  555SOL    HW111524   2.358   3.404   1.029
  555SOL    HW211525   2.264   3.324   0.922
  556SOL     OW11526   3.549   1.188   2.168
  556SOL    HW111527   3.612   1.264   2.179
  556SOL    HW211528   3.504   1.193   2.079
  557SOL     OW11529   4.168   2.645   2.280
  557SOL    HW111530   4.147   2.712   2.351
  557SOL    HW211531   4.102   2.571   2.284
  558SOL     OW11532   3.883   9.658   1.867
  558SOL    HW111533   3.927   9.568   1.860
  558SOL    HW211534   3.898   9.695   1.959
  559SOL     OW11535   3.971   9.659   1.051
  559SOL    HW111536   3.979   9.709   0.965
  559SOL    HW211537   3.981   9.723   1.128
  560SOL     OW11538   3.150   8.971   1.316
  560SOL    HW111539   3.195   8.902   1.373
  560SOL    HW211540   3.164   9.061   1.357
  561SOL     OW11541   0.226   4.984   0.908
  561SOL    HW111542   0.152   4.917   0.919
  561SOL    HW211543   0.193   5.074   0.938
  562SOL     OW11544   4.807   3.004   1.748
  562SOL    HW111545   4.781   3.041   1.659
  562SOL    HW211546   4.825   3.079   1.811
  563SOL     OW11547   2.796   4.763   1.389
  563SOL    HW111548   2.738   4.845   1.388
  563SOL    HW211549   2.746   4.688   1.346
  564SOL     OW11550   2.819   3.623   1.650
  564SOL    HW111551   2.881   3.572   1.710
  564SOL    HW211552   2.739   3.566   1.629
  565SOL     OW11553   4.522   4.592   2.320
  565SOL    HW111554   4.494   4.577   2.414
  565SOL    HW211555   4.447   4.568   2.258
  566SOL     OW11556   2.933   3.877   1.700
  566SOL    HW111557   2.932   3.937   1.621
  566SOL    HW211558   2.887   3.791   1.678
  567SOL     OW11559   3.046   2.141   1.928
  567SOL    HW111560   3.131   2.119   1.977
  567SOL    HW211561   3.047   2.097   1.839
  568SOL     OW11562   9.699   5.328   1.090
  568SOL    HW111563   9.760   5.310   1.013
  568SOL    HW211564   9.604   5.317   1.060
  569SOL     OW11565   1.418   5.758   0.472
  569SOL    HW111566   1.496   5.696   0.478
  569SOL    HW211567   1.379   5.753   0.380
  570SOL     OW11568   3.789   9.026   1.381
  570SOL    HW111569   3.720   9.037   1.309
  570SOL    HW211570   3.755   8.962   1.450
  571SOL     OW11571   4.067   2.768   1.307
  571SOL    HW111572   4.120   2.849   1.331
  571SOL    HW211573   4.054   2.766   1.207
  572SOL     OW11574   2.846   7.366   1.290
  572SOL    HW111575   2.800   7.414   1.365
  572SOL    HW211576   2.908   7.297   1.328
  573SOL     OW11577   3.343   9.246   0.791
  573SOL    HW111578   3.356   9.180   0.866
  573SOL    HW211579   3.307   9.199   0.711
  574SOL     OW11580   3.054   6.605   2.159
  574SOL    HW111581   3.115   6.645   2.090
  574SOL    HW211582   3.024   6.677   2.222
  575SOL     OW11583   0.068   5.509   0.519
  575SOL    HW111584   0.035   5.576   0.452
  575SOL    HW211585   0.003   5.505   0.595
  576SOL     OW11586   3.652   2.579   1.954
  576SOL    HW111587   3.675   2.662   1.903
  576SOL    HW211588   3.697   2.582   2.044
  577SOL     OW11589   2.434   6.630   2.119
  577SOL    HW111590   2.407   6.698   2.187
  577SOL    HW211591   2.401   6.540   2.146
  578SOL     OW11592   2.286   4.006   0.957
  578SOL    HW111593   2.240   4.072   0.897
  578SOL    HW211594   2.354   3.955   0.904
  579SOL     OW11595   5.035   2.768   0.938
  579SOL    HW111596   5.046   2.758   1.037
  579SOL    HW211597   5.125   2.760   0.894
  580SOL     OW11598   1.808   5.709   1.820
  580SOL    HW111599   1.733   5.707   1.887
  580SOL    HW211600   1.789   5.778   1.750
  581SOL     OW11601   4.738   2.858   0.607
  581SOL    HW111602   4.661   2.795   0.608
  581SOL    HW211603   4.758   2.888   0.701
  582SOL     OW11604   3.453   9.899   2.046
  582SOL    HW111605   3.370   9.953   2.057
  582SOL    HW211606   3.500   9.927   1.962
  583SOL     OW11607   3.400   9.015   2.244
  583SOL    HW111608   3.434   8.995   2.336
  583SOL    HW211609   3.301   9.030   2.248
  584SOL     OW11610   0.541   4.019   0.468
  584SOL    HW111611   0.443   4.037   0.472
  584SOL    HW211612   0.573   3.989   0.558
  585SOL     OW11613   1.612   6.948   0.888
  585SOL    HW111614   1.676   7.024   0.899
  585SOL    HW211615   1.633   6.900   0.803
  586SOL     OW11616   5.054   3.321   0.757
  586SOL    HW111617   5.076   3.274   0.843
  586SOL    HW211618   4.987   3.266   0.707
  587SOL     OW11619   3.466   0.923   1.401
  587SOL    HW111620   3.417   0.955   1.482
  587SOL    HW211621   3.420   0.841   1.365
  588SOL     OW11622   3.286   9.567   1.467
  588SOL    HW111623   3.356   9.600   1.531
  588SOL    HW211624   3.239   9.644   1.426
  589SOL     OW11625   2.142   3.734   1.350
  589SOL    HW111626   2.209   3.781   1.293
  589SOL    HW211627   2.181   3.648   1.384
  590SOL     OW11628   0.359   4.742   1.837
  590SOL    HW111629   0.434   4.802   1.808
  590SOL    HW211630   0.388   4.688   1.916
  591SOL     OW11631   3.944   0.969   2.084
  591SOL    HW111632   3.974   0.878   2.054
  591SOL    HW211633   3.846   0.967   2.103
  592SOL     OW11634   3.457   5.133   1.631
  592SOL    HW111635   3.533   5.092   1.581
  592SOL    HW211636   3.474   5.125   1.729
  593SOL     OW11637   2.809   9.605   1.748
  593SOL    HW111638   2.791   9.629   1.652
  593SOL    HW211639   2.863   9.521   1.752
  594SOL     OW11640   2.389   9.358   1.279
  594SOL    HW111641   2.424   9.431   1.220
  594SOL    HW211642   2.422   9.270   1.245
  595SOL     OW11643   9.943   5.738   1.435
  595SOL    HW111644   9.927   5.645   1.468
  595SOL    HW211645   9.879   5.801   1.479
  596SOL     OW11646   1.934   6.723   2.186
  596SOL    HW111647   1.857   6.787   2.189
  596SOL    HW211648   1.910   6.640   2.236
  597SOL     OW11649   1.338   3.308   1.811
  597SOL    HW111650   1.382   3.230   1.767
  597SOL    HW211651   1.403   3.350   1.875
  598SOL     OW11652   1.342   3.578   1.137
  598SOL    HW111653   1.379   3.628   1.215
  598SOL    HW211654   1.291   3.499   1.170
  599SOL     OW11655   0.264   4.485   0.520
  599SOL    HW111656   0.234   4.485   0.616
  599SOL    HW211657   0.308   4.572   0.499
  600SOL     OW11658   0.487   4.934   0.846
  600SOL    HW111659   0.388   4.943   0.860
  600SOL    HW211660   0.506   4.921   0.748
  601SOL     OW11661   2.018   2.419   0.481
  601SOL    HW111662   1.954   2.382   0.414
  601SOL    HW211663   2.039   2.350   0.550
  602SOL     OW11664   3.620   0.753   1.920
  602SOL    HW111665   3.623   0.661   1.958
  602SOL    HW211666   3.634   0.820   1.993
  603SOL     OW11667   4.465   4.798   1.418
  603SOL    HW111668   4.487   4.762   1.327
  603SOL    HW211669   4.369   4.826   1.420
  604SOL     OW11670   3.580   2.001   2.222
  604SOL    HW111671   3.489   1.963   2.236
  604SOL    HW211672   3.576   2.100   2.227
  605SOL     OW11673   1.945   7.456   0.554
  605SOL    HW111674   1.895   7.542   0.560
  605SOL    HW211675   2.017   7.464   0.486
  606SOL     OW11676   4.971   4.299   1.063
  606SOL    HW111677   4.932   4.349   1.141
  606SOL    HW211678   4.963   4.201   1.079
  607SOL     OW11679   1.873   5.859   2.257
  607SOL    HW111680   1.845   5.944   2.212
  607SOL    HW211681   1.972   5.849   2.250
  608SOL     OW11682   5.210   3.120   1.453
  608SOL    HW111683   5.168   3.191   1.508
  608SOL    HW211684   5.294   3.088   1.497
  609SOL     OW11685   2.980   9.657   1.206
  609SOL    HW111686   3.027   9.579   1.164
  609SOL    HW211687   2.884   9.634   1.221
  610SOL     OW11688   2.470   8.376   0.585
  610SOL    HW111689   2.456   8.285   0.546
  610SOL    HW211690   2.524   8.369   0.669
  611SOL     OW11691   5.111   3.173   0.980
  611SOL    HW111692   5.163   3.210   1.057
  611SOL    HW211693   5.050   3.101   1.013
  612SOL     OW11694   3.422   3.036   1.615
  612SOL    HW111695   3.404   3.127   1.651
  612SOL    HW211696   3.515   3.033   1.578
  613SOL     OW11697   3.510   5.088   1.903
  613SOL    HW111698   3.577   5.151   1.944
  613SOL    HW211699   3.553   5.000   1.886
  614SOL     OW11700   0.392   5.690   1.264
  614SOL    HW111701   0.365   5.595   1.279
  614SOL    HW211702   0.453   5.695   1.185
  615SOL     OW11703   5.291   2.836   1.896
  615SOL    HW111704   5.330   2.926   1.874
  615SOL    HW211705   5.236   2.844   1.979
  616SOL     OW11706   2.469   2.758   0.477
  616SOL    HW111707   2.376   2.735   0.451
  616SOL    HW211708   2.488   2.854   0.453
  617SOL     OW11709   3.660   2.327   1.836
  617SOL    HW111710   3.724   2.268   1.885
  617SOL    HW211711   3.654   2.415   1.883
  618SOL     OW11712   1.950   5.766   0.912
  618SOL    HW111713   2.005   5.683   0.921
  618SOL    HW211714   2.003   5.837   0.868
  619SOL     OW11715   1.373   5.983   0.820
  619SOL    HW111716   1.470   6.008   0.821
  619SOL    HW211717   1.321   6.051   0.872
  620SOL     OW11718   4.057   9.755   1.507
  620SOL    HW111719   4.089   9.667   1.543
  620SOL    HW211720   4.010   9.806   1.579
  621SOL     OW11721   0.173   4.088   2.330
  621SOL    HW111722   0.187   4.185   2.308
  621SOL    HW211723   0.075   4.070   2.341
  622SOL     OW11724   1.074   5.101   2.091
  622SOL    HW111725   1.091   5.026   2.028
  622SOL    HW211726   0.980   5.133   2.080
  623SOL     OW11727   2.750   5.061   0.772
  623SOL    HW111728   2.823   5.097   0.714
  623SOL    HW211729   2.688   5.136   0.797
  624SOL     OW11730   3.015   0.973   2.155
  624SOL    HW111731   3.004   0.883   2.196
  624SOL    HW211732   2.936   0.994   2.097
  625SOL     OW11733   4.153   4.054   1.484
  625SOL    HW111734   4.156   3.956   1.501
  625SOL    HW211735   4.068   4.092   1.520
  626SOL     OW11736   4.200   9.061   1.265
  626SOL    HW111737   4.189   9.159   1.282
  626SOL    HW211738   4.276   9.047   1.200
  627SOL     OW11739   3.672   0.936   2.136
  627SOL    HW111740   3.627   1.025   2.146
  627SOL    HW211741   3.637   0.873   2.206
  628SOL     OW11742   4.860   2.461   0.405
  628SOL    HW111743   4.835   2.541   0.351
  628SOL    HW211744   4.958   2.443   0.395
  629SOL     OW11745   2.272   2.483   1.080
  629SOL    HW111746   2.187   2.458   1.126
  629SOL    HW211747   2.267   2.578   1.050
  630SOL     OW11748   5.355   4.283   0.608
  630SOL    HW111749   5.299   4.366   0.612
  630SOL    HW211750   5.308   4.214   0.554
  631SOL     OW11751   2.304   3.168   2.158
  631SOL    HW111752   2.298   3.084   2.104
  631SOL    HW211753   2.264   3.244   2.106
  632SOL     OW11754   2.437   9.937   1.853
  632SOL    HW111755   2.464   9.913   1.946
  632SOL    HW211756   2.444   0.036   1.841
  633SOL     OW11757   2.771   9.602   1.474
  633SOL    HW111758   2.741   9.614   1.379
  633SOL    HW211759   2.749   9.510   1.505
  634SOL     OW11760   4.820   3.586   1.092
  634SOL    HW111761   4.783   3.587   0.999
  634SOL    HW211762   4.915   3.616   1.090
  635SOL     OW11763   3.663   5.368   0.980
  635SOL    HW111764   3.583   5.339   0.927
  635SOL    HW211765   3.719   5.429   0.925
  636SOL     OW11766   5.230   3.559   1.243
  636SOL    HW111767   5.162   3.582   1.174
  636SOL    HW211768   5.309   3.619   1.234
  637SOL     OW11769   3.973   1.407   1.248
  637SOL    HW111770   4.049   1.342   1.237
  637SOL    HW211771   3.933   1.396   1.339
  638SOL     OW11772   3.634   3.763   1.649
  638SOL    HW111773   3.579   3.739   1.569
  638SOL    HW211774   3.622   3.692   1.720
  639SOL     OW11775   2.596   7.048   2.083
  639SOL    HW111776   2.671   6.983   2.081
  639SOL    HW211777   2.595   7.096   2.171
  640SOL     OW11778   2.315   4.572   0.454
  640SOL    HW111779   2.382   4.500   0.464
  640SOL    HW211780   2.317   4.607   0.360
  641SOL     OW11781   4.237   1.234   0.697
  641SOL    HW111782   4.285   1.155   0.659
  641SOL    HW211783   4.242   1.310   0.633
  642SOL     OW11784   2.898   3.506   2.159
  642SOL    HW111785   2.856   3.579   2.214
  642SOL    HW211786   2.836   3.428   2.154
  643SOL     OW11787   3.538   8.474   0.591
  643SOL    HW111788   3.635   8.471   0.569
  643SOL    HW211789   3.485   8.453   0.509
  644SOL     OW11790   4.416   3.449   0.625
  644SOL    HW111791   4.435   3.546   0.639
  644SOL    HW211792   4.472   3.395   0.687
  645SOL     OW11793   0.088   4.577   1.000
  645SOL    HW111794   0.059   4.672   0.999
  645SOL    HW211795   0.181   4.571   1.034
  646SOL     OW11796   3.134   3.014   0.790
  646SOL    HW111797   3.196   3.006   0.713
  646SOL    HW211798   3.043   3.040   0.758
  647SOL     OW11799   3.174   9.784   1.350
  647SOL    HW111800   3.098   9.739   1.304
  647SOL    HW211801   3.140   9.860   1.406
  648SOL     OW11802   3.139   3.427   1.078
  648SOL    HW111803   3.048   3.430   1.035
  648SOL    HW211804   3.178   3.336   1.067
  649SOL     OW11805   3.438   5.317   0.829
  649SOL    HW111806   3.367   5.364   0.776
  649SOL    HW211807   3.400   5.232   0.866
  650SOL     OW11808   1.946   3.454   0.533
  650SOL    HW111809   1.912   3.548   0.530
  650SOL    HW211810   1.890   3.397   0.472
  651SOL     OW11811   0.209   4.863   1.406
  651SOL    HW111812   0.241   4.932   1.341
  651SOL    HW211813   0.283   4.799   1.425
  652SOL     OW11814   3.173   1.854   0.485
  652SOL    HW111815   3.077   1.883   0.483
  652SOL    HW211816   3.180   1.760   0.453
  653SOL     OW11817   1.782   3.145   0.840
  653SOL    HW111818   1.794   3.047   0.853
  653SOL    HW211819   1.768   3.189   0.929
  654SOL     OW11820   3.363   0.103   1.571
  654SOL    HW111821   3.350   0.194   1.532
  654SOL    HW211822   3.282   0.047   1.552
  655SOL     OW11823   1.350   4.498   0.595
  655SOL    HW111824   1.312   4.452   0.675
  655SOL    HW211825   1.409   4.435   0.545
  656SOL     OW11826   4.551   1.987   1.582
  656SOL    HW111827   4.579   1.964   1.675
  656SOL    HW211828   4.525   1.903   1.534
  657SOL     OW11829   1.136   6.039   0.607
  657SOL    HW111830   1.222   5.991   0.592
  657SOL    HW211831   1.105   6.022   0.701
  658SOL     OW11832   1.290   4.671   1.335
  658SOL    HW111833   1.346   4.620   1.270
  658SOL    HW211834   1.324   4.765   1.342
  659SOL     OW11835   0.222   4.732   0.707
  659SOL    HW111836   0.284   4.686   0.770
  659SOL    HW211837   0.267   4.747   0.619
  660SOL     OW11838   1.764   3.288   0.402
  660SOL    HW111839   1.739   3.192   0.389
  660SOL    HW211840   1.724   3.343   0.329
  661SOL     OW11841   4.115   3.429   1.593
  661SOL    HW111842   4.074   3.460   1.679
  661SOL    HW211843   4.204   3.473   1.581
  662SOL     OW11844   2.917   5.711   2.038
  662SOL    HW111845   2.951   5.774   1.968
  662SOL    HW211846   2.990   5.693   2.105
  663SOL     OW11847   1.453   4.639   0.919
  663SOL    HW111848   1.549   4.667   0.908
  663SOL    HW211849   1.396   4.686   0.852
  664SOL     OW11850   3.125   3.906   1.392
  664SOL    HW111851   3.059   3.832   1.407
  664SOL    HW211852   3.132   3.925   1.294
  665SOL     OW11853   9.442   5.266   0.991
  665SOL    HW111854   9.457   5.275   0.892
  665SOL    HW211855   9.345   5.279   1.011
  666SOL     OW11856   0.610   4.454   1.714
  666SOL    HW111857   0.601   4.547   1.676
  666SOL    HW211858   0.601   4.457   1.813
  667SOL     OW11859   0.385   5.337   0.883
  667SOL    HW111860   0.371   5.301   0.790
  667SOL    HW211861   0.461   5.402   0.882
  668SOL     OW11862   3.168   1.161   1.516
  668SOL    HW111863   3.119   1.090   1.465
  668SOL    HW211864   3.112   1.243   1.521
  669SOL     OW11865   0.772   5.450   2.003
  669SOL    HW111866   0.832   5.524   1.971
  669SOL    HW211867   0.677   5.483   2.007
  670SOL     OW11868   1.124   3.415   2.174
  670SOL    HW111869   1.149   3.452   2.084
  670SOL    HW211870   1.041   3.460   2.207
  671SOL     OW11871   0.874   3.585   2.123
  671SOL    HW111872   0.929   3.556   2.045
  671SOL    HW211873   0.794   3.636   2.091
  672SOL     OW11874   2.658   1.280   0.547
  672SOL    HW111875   2.671   1.376   0.523
  672SOL    HW211876   2.586   1.240   0.490
  673SOL     OW11877   4.845   3.111   2.203
  673SOL    HW111878   4.761   3.133   2.252
  673SOL    HW211879   4.832   3.128   2.106
  674SOL     OW11880   3.181   7.163   1.010
  674SOL    HW111881   3.083   7.159   0.988
  674SOL    HW211882   3.202   7.093   1.079
  675SOL     OW11883   1.375   3.183   1.223
  675SOL    HW111884   1.457   3.222   1.181
  675SOL    HW211885   1.296   3.240   1.201
  676SOL     OW11886   1.594   2.978   2.217
  676SOL    HW111887   1.586   3.054   2.282
  676SOL    HW211888   1.668   2.997   2.153
  677SOL     OW11889   3.880   8.714   1.106
  677SOL    HW111890   3.908   8.810   1.100
  677SOL    HW211891   3.910   8.676   1.194
  678SOL     OW11892   3.081   2.220   1.485
  678SOL    HW111893   3.138   2.201   1.405
  678SOL    HW211894   3.015   2.292   1.464
  679SOL     OW11895   1.285   4.463   1.516
  679SOL    HW111896   1.204   4.411   1.490
  679SOL    HW211897   1.292   4.545   1.459
  680SOL     OW11898   2.571   9.503   0.496
  680SOL    HW111899   2.478   9.528   0.523
  680SOL    HW211900   2.573   9.408   0.467
  681SOL     OW11901   3.579   2.265   0.866
  681SOL    HW111902   3.594   2.192   0.933
  681SOL    HW211903   3.663   2.319   0.857
  682SOL     OW11904   1.702   6.807   0.665
  682SOL    HW111905   1.710   6.711   0.693
  682SOL    HW211906   1.790   6.852   0.674
  683SOL     OW11907   3.156   5.340   1.810
  683SOL    HW111908   3.077   5.385   1.851
  683SOL    HW211909   3.239   5.367   1.859
  684SOL     OW11910   4.027   3.475   1.854
  684SOL    HW111911   4.114   3.520   1.871
  684SOL    HW211912   4.023   3.389   1.905
  685SOL     OW11913   4.858   3.317   1.455
  685SOL    HW111914   4.812   3.228   1.461
  685SOL    HW211915   4.802   3.379   1.399
  686SOL     OW11916   5.372   2.739   1.271
  686SOL    HW111917   5.412   2.770   1.357
  686SOL    HW211918   5.441   2.743   1.198
  687SOL     OW11919   3.404   3.098   1.137
  687SOL    HW111920   3.322   3.130   1.089
  687SOL    HW211921   3.425   3.161   1.211
  688SOL     OW11922   4.113   0.923   1.292
  688SOL    HW111923   4.099   0.968   1.204
  688SOL    HW211924   4.099   0.825   1.282
  689SOL     OW11925   1.211   4.462   0.061
  689SOL    HW111926   1.219   4.378   0.115
  689SOL    HW211927   1.189   4.539   0.121
  690SOL     OW11928   2.980   5.901   1.442
  690SOL    HW111929   2.931   5.985   1.464
  690SOL    HW211930   2.954   5.828   1.505
  691SOL     OW11931   2.146   4.643   1.343
  691SOL    HW111932   2.115   4.567   1.400
  691SOL    HW211933   2.236   4.623   1.305
  692SOL     OW11934   2.920   7.133   0.951
  692SOL    HW111935   2.836   7.158   0.998
  692SOL    HW211936   2.912   7.039   0.915
  693SOL     OW11937   2.421   8.058   1.751
  693SOL    HW111938   2.335   8.091   1.789
  693SOL    HW211939   2.446   8.113   1.672
  694SOL     OW11940   3.742   0.169   1.709
  694SOL    HW111941   3.835   0.136   1.723
  694SOL    HW211942   3.744   0.251   1.651
  695SOL     OW11943   1.192   5.374   1.467
  695SOL    HW111944   1.110   5.325   1.498
  695SOL    HW211945   1.272   5.316   1.479
  696SOL     OW11946   0.602   5.501   0.841
  696SOL    HW111947   0.592   5.550   0.754
  696SOL    HW211948   0.694   5.463   0.847
  697SOL     OW11949   2.270   6.419   1.645
  697SOL    HW111950   2.180   6.446   1.610
  697SOL    HW211951   2.259   6.381   1.737
  698SOL     OW11952   3.672   7.653   0.901
  698SOL    HW111953   3.767   7.683   0.890
  698SOL    HW211954   3.619   7.681   0.821
  699SOL     OW11955   3.965   4.094   2.105
  699SOL    HW111956   4.053   4.119   2.065
  699SOL    HW211957   3.929   4.013   2.060
  700SOL     OW11958   9.733   4.808   1.532
  700SOL    HW111959   9.764   4.750   1.607
  700SOL    HW211960   9.798   4.802   1.457
  701SOL     OW11961   3.984   8.420   0.740
  701SOL    HW111962   4.017   8.414   0.834
  701SOL    HW211963   4.060   8.407   0.676
  702SOL     OW11964   2.712   0.194   1.148
  702SOL    HW111965   2.642   0.126   1.168
  702SOL    HW211966   2.725   0.253   1.228
  703SOL     OW11967   4.685   3.463   1.292
  703SOL    HW111968   4.613   3.522   1.328
  703SOL    HW211969   4.734   3.511   1.219
  704SOL     OW11970   1.987   6.923   0.973
  704SOL    HW111971   2.002   6.827   0.997
  704SOL    HW211972   2.053   6.980   1.021
  705SOL     OW11973   1.330   6.199   1.213
  705SOL    HW111974   1.358   6.105   1.193
  705SOL    HW211975   1.409   6.253   1.239
  706SOL     OW11976   1.656   3.876   1.393
  706SOL    HW111977   1.651   3.975   1.377
  706SOL    HW211978   1.748   3.852   1.424
  707SOL     OW11979   4.758   1.952   0.904
  707SOL    HW111980   4.674   1.939   0.956
  707SOL    HW211981   4.810   2.028   0.943
  708SOL     OW11982   1.052   4.606   0.901
  708SOL    HW111983   1.010   4.615   0.810
  708SOL    HW211984   1.130   4.543   0.895
  709SOL     OW11985   2.911   5.706   1.622
  709SOL    HW111986   2.940   5.622   1.576
  709SOL    HW211987   2.830   5.688   1.677
  710SOL     OW11988   2.112   4.935   2.235
  710SOL    HW111989   2.128   4.886   2.320
  710SOL    HW211990   2.191   4.923   2.175
  711SOL     OW11991   3.763   2.880   2.227
  711SOL    HW111992   3.762   2.906   2.324
  711SOL    HW211993   3.698   2.937   2.177
  712SOL     OW11994   4.720   3.676   1.708
  712SOL    HW111995   4.637   3.722   1.673
  712SOL    HW211996   4.795   3.690   1.643
  713SOL     OW11997   1.909   7.020   1.546
  713SOL    HW111998   1.850   6.943   1.521
  713SOL    HW211999   1.919   7.023   1.646
  714SOL     OW12000   2.406   9.089   0.513
  714SOL    HW112001   2.404   8.995   0.481
  714SOL    HW212002   2.481   9.138   0.469
  715SOL     OW12003   4.526   3.061   2.091
  715SOL    HW112004   4.430   3.031   2.092
  715SOL    HW212005   4.552   3.092   2.182
  716SOL     OW12006   3.064   1.237   2.268
  716SOL    HW112007   3.030   1.148   2.237
  716SOL    HW212008   3.163   1.231   2.282
  717SOL     OW12009   2.843   6.904   2.099
  717SOL    HW112010   2.895   6.886   2.182
  717SOL    HW212011   2.797   6.820   2.070
  718SOL     OW12012   4.008   3.012   2.163
  718SOL    HW112013   3.989   3.088   2.226
  718SOL    HW212014   3.932   2.946   2.167
  719SOL     OW12015   1.897   5.160   0.634
  719SOL    HW112016   1.921   5.245   0.587
  719SOL    HW212017   1.976   5.099   0.635
  720SOL     OW12018   3.335   5.886   0.478
  720SOL    HW112019   3.385   5.851   0.399
  720SOL    HW212020   3.370   5.843   0.561
  721SOL     OW12021   2.936   4.678   0.905
  721SOL    HW112022   2.924   4.609   0.976
  721SOL    HW212023   2.892   4.763   0.933
  722SOL     OW12024   9.097   5.431   0.797
  722SOL    HW112025   9.181   5.477   0.769
  722SOL    HW212026   9.024   5.499   0.808
  723SOL     OW12027   3.641   4.678   2.059
  723SOL    HW112028   3.614   4.732   1.979
  723SOL    HW212029   3.698   4.733   2.119
  724SOL     OW12030   3.404   1.483   2.011
  724SOL    HW112031   3.491   1.529   1.992
  724SOL    HW212032   3.410   1.387   1.982
  725SOL     OW12033   0.492   5.135   1.034
  725SOL    HW112034   0.513   5.056   0.977
  725SOL    HW212035   0.454   5.208   0.978
  726SOL     OW12036   3.125   0.444   1.276
  726SOL    HW112037   3.104   0.394   1.192
  726SOL    HW212038   3.116   0.542   1.261
  727SOL     OW12039   2.933   9.091   1.688
  727SOL    HW112040   3.030   9.073   1.704
  727SOL    HW212041   2.904   9.046   1.604
  728SOL     OW12042   5.500   3.284   1.295
  728SOL    HW112043   5.415   3.269   1.244
  728SOL    HW212044   5.481   3.343   1.374
  729SOL     OW12045   4.785   0.849   1.005
  729SOL    HW112046   4.740   0.780   0.949
  729SOL    HW212047   4.821   0.807   1.088
  730SOL     OW12048   3.326   1.956   1.787
  730SOL    HW112049   3.374   2.033   1.744
  730SOL    HW212050   3.304   1.980   1.882
  731SOL     OW12051   1.109   3.540   0.960
  731SOL    HW112052   1.188   3.589   0.998
  731SOL    HW212053   1.045   3.605   0.921
  732SOL     OW12054   4.203   8.385   0.583
  732SOL    HW112055   4.236   8.477   0.605
  732SOL    HW212056   4.223   8.364   0.487
  733SOL     OW12057   2.851   7.890   1.263
  733SOL    HW112058   2.812   7.889   1.171
  733SOL    HW212059   2.833   7.978   1.307
  734SOL     OW12060   1.067   5.608   0.796
  734SOL    HW112061   0.994   5.638   0.735
  734SOL    HW212062   1.153   5.653   0.770
  735SOL     OW12063   3.386   2.539   2.011
  735SOL    HW112064   3.482   2.557   1.988
  735SOL    HW212065   3.358   2.598   2.087
  736SOL     OW12066   9.583   4.472   1.397
  736SOL    HW112067   9.672   4.501   1.362
  736SOL    HW212068   9.578   4.491   1.495
  737SOL     OW12069   3.608   8.627   0.811
  737SOL    HW112070   3.577   8.574   0.732
  737SOL    HW212071   3.706   8.646   0.803
  738SOL     OW12072   3.810   2.786   1.422
  738SOL    HW112073   3.828   2.734   1.505
  738SOL    HW212074   3.893   2.790   1.367
  739SOL     OW12075   3.215   8.320   1.738
  739SOL    HW112076   3.120   8.351   1.743
  739SOL    HW212077   3.269   8.366   1.809
  740SOL     OW12078   9.307   5.340   0.429
  740SOL    HW112079   9.352   5.274   0.369
  740SOL    HW212080   9.226   5.298   0.470
  741SOL     OW12081   5.033   4.226   0.737
  741SOL    HW112082   5.111   4.182   0.782
  741SOL    HW212083   5.016   4.315   0.779
  742SOL     OW12084   4.866   2.539   0.888
  742SOL    HW112085   4.921   2.622   0.887
  742SOL    HW212086   4.838   2.519   0.982
  743SOL     OW12087   3.050   8.725   0.712
  743SOL    HW112088   3.126   8.790   0.716
  743SOL    HW212089   2.967   8.772   0.684
  744SOL     OW12090   4.695   3.090   1.448
  744SOL    HW112091   4.672   3.118   1.355
  744SOL    HW212092   4.619   3.113   1.509
  745SOL     OW12093   3.964   3.373   0.702
  745SOL    HW112094   3.934   3.386   0.796
  745SOL    HW212095   4.016   3.288   0.694
  746SOL     OW12096   3.512   8.882   0.800
  746SOL    HW112097   3.583   8.931   0.749
  746SOL    HW212098   3.540   8.787   0.812
  747SOL     OW12099   4.070   9.710   0.395
  747SOL    HW112100   4.109   9.659   0.317
  747SOL    HW212101   4.010   9.781   0.361
  748SOL     OW12102   2.318   5.356   1.209
  748SOL    HW112103   2.313   5.454   1.192
  748SOL    HW212104   2.312   5.338   1.307
  749SOL     OW12105   4.151   4.578   0.868
  749SOL    HW112106   4.205   4.500   0.898
  749SOL    HW212107   4.076   4.547   0.811
  750SOL     OW12108   3.867   0.723   0.644
  750SOL    HW112109   3.895   0.658   0.715
  750SOL    HW212110   3.891   0.687   0.554
  751SOL     OW12111   2.384   6.337   0.711
  751SOL    HW112112   2.352   6.306   0.621
  751SOL    HW212113   2.477   6.371   0.703
  752SOL     OW12114   2.551   2.350   0.750
  752SOL    HW112115   2.618   2.279   0.729
  752SOL    HW212116   2.494   2.320   0.826
  753SOL     OW12117   3.811   1.301   1.927
  753SOL    HW112118   3.773   1.351   1.849
  753SOL    HW212119   3.845   1.213   1.896
  754SOL     OW12120   4.100   9.999   1.047
  754SOL    HW112121   4.051   0.082   1.020
  754SOL    HW212122   4.086   9.928   0.978
  755SOL     OW12123   2.720   9.021   1.306
  755SOL    HW112124   2.775   9.101   1.331
  755SOL    HW212125   2.738   8.947   1.370
  756SOL     OW12126   1.936   4.239   0.479
  756SOL    HW112127   1.893   4.252   0.389
  756SOL    HW212128   1.875   4.274   0.550
  757SOL     OW12129   3.290   5.095   0.913
  757SOL    HW112130   3.251   5.020   0.859
  757SOL    HW212131   3.218   5.159   0.939
  758SOL     OW12132   3.502   8.207   1.802
  758SOL    HW112133   3.461   8.292   1.833
  758SOL    HW212134   3.432   8.136   1.794
  759SOL     OW12135   3.169   7.706   1.466
  759SOL    HW112136   3.149   7.741   1.375
  759SOL    HW212137   3.084   7.676   1.510
  760SOL     OW12138   3.330   2.879   0.967
  760SOL    HW112139   3.267   2.916   0.899
  760SOL    HW212140   3.352   2.950   1.034
  761SOL     OW12141   3.328   0.349   1.448
  761SOL    HW112142   3.259   0.383   1.384
  761SOL    HW212143   3.365   0.425   1.501
  762SOL     OW12144   3.251   8.772   1.479
  762SOL    HW112145   3.338   8.757   1.525
  762SOL    HW212146   3.218   8.685   1.442
  763SOL     OW12147   3.595   2.034   0.530
  763SOL    HW112148   3.525   2.065   0.466
  763SOL    HW212149   3.571   1.944   0.565
  764SOL     OW12150   3.235   3.233   1.966
  764SOL    HW112151   3.275   3.172   2.033
  764SOL    HW212152   3.179   3.181   1.902
  765SOL     OW12153   1.423   6.719   0.316
  765SOL    HW112154   1.371   6.639   0.346
  765SOL    HW212155   1.520   6.706   0.339
  766SOL     OW12156   4.884   3.953   2.052
  766SOL    HW112157   4.943   3.903   2.116
  766SOL    HW212158   4.849   4.035   2.097
  767SOL     OW12159   2.079   3.886   2.304
  767SOL    HW112160   2.117   3.796   2.323
  767SOL    HW212161   2.142   3.938   2.246
  768SOL     OW12162   2.552   4.304   2.093
  768SOL    HW112163   2.632   4.358   2.067
  768SOL    HW212164   2.475   4.366   2.110
  769SOL     OW12165   3.110   4.508   1.539
  769SOL    HW112166   3.204   4.519   1.570
  769SOL    HW212167   3.110   4.488   1.441
  770SOL     OW12168   3.701   4.564   0.660
  770SOL    HW112169   3.727   4.660   0.656
  770SOL    HW212170   3.608   4.556   0.696
  771SOL     OW12171   3.054   2.025   1.682
  771SOL    HW112172   3.142   1.978   1.685
  771SOL    HW212173   3.054   2.091   1.608
  772SOL     OW12174   9.454   5.559   0.477
  772SOL    HW112175   9.450   5.623   0.400
  772SOL    HW212176   9.400   5.478   0.455
  773SOL     OW12177   9.309   4.877   2.203
  773SOL    HW112178   9.303   4.814   2.279
  773SOL    HW212179   9.372   4.951   2.226
  774SOL     OW12180   3.998   9.842   0.829
  774SOL    HW112181   3.982   9.775   0.756
  774SOL    HW212182   3.920   9.903   0.837
  775SOL     OW12183   0.321   4.018   1.603
  775SOL    HW112184   0.255   4.020   1.529
  775SOL    HW212185   0.387   4.092   1.592
  776SOL     OW12186   2.374   4.517   2.112
  776SOL    HW112187   2.301   4.495   2.176
  776SOL    HW212188   2.426   4.596   2.146
  777SOL     OW12189   3.332   2.336   0.784
  777SOL    HW112190   3.427   2.309   0.801
  777SOL    HW212191   3.277   2.317   0.866
  778SOL     OW12192   3.414   2.287   2.120
  778SOL    HW112193   3.392   2.371   2.071
  778SOL    HW212194   3.507   2.294   2.158
  779SOL     OW12195   2.617   6.217   1.825
  779SOL    HW112196   2.559   6.190   1.748
  779SOL    HW212197   2.595   6.161   1.905
  780SOL     OW12198   0.877   5.942   0.567
  780SOL    HW112199   0.970   5.978   0.561
  780SOL    HW212200   0.821   6.003   0.622
  781SOL     OW12201   3.246   0.788   0.966
  781SOL    HW112202   3.301   0.871   0.955
  781SOL    HW212203   3.203   0.765   0.879
  782SOL     OW12204   3.104   1.619   1.389
  782SOL    HW112205   3.165   1.695   1.412
  782SOL    HW212206   3.015   1.654   1.361
  783SOL     OW12207   4.188   4.087   1.220
  783SOL    HW112208   4.169   4.076   1.317
  783SOL    HW212209   4.257   4.021   1.191
  784SOL     OW12210   3.910   8.311   1.918
  784SOL    HW112211   3.928   8.288   1.822
  784SOL    HW212212   3.885   8.408   1.925
  785SOL     OW12213   4.889   4.810   0.606
  785SOL    HW112214   4.935   4.838   0.522
  785SOL    HW212215   4.824   4.737   0.586
  786SOL     OW12216   3.066   6.028   0.993
  786SOL    HW112217   3.143   5.974   1.025
  786SOL    HW212218   3.038   6.093   1.064
  787SOL     OW12219   1.061   3.148   2.111
  787SOL    HW112220   1.094   3.237   2.142
  787SOL    HW212221   0.972   3.129   2.154
  788SOL     OW12222   3.696   1.592   0.474
  788SOL    HW112223   3.771   1.655   0.492
  788SOL    HW212224   3.726   1.498   0.492
  789SOL     OW12225   2.778   0.494   0.955
  789SOL    HW112226   2.785   0.536   0.864
  789SOL    HW212227   2.784   0.394   0.945
  790SOL     OW12228   2.834   0.206   0.906
  790SOL    HW112229   2.853   0.117   0.865
  790SOL    HW212230   2.782   0.193   0.991
  791SOL     OW12231   0.886   5.438   2.253
  791SOL    HW112232   0.979   5.404   2.265
  791SOL    HW212233   0.856   5.422   2.159
  792SOL     OW12234   0.365   5.100   1.664
  792SOL    HW112235   0.267   5.077   1.659
  792SOL    HW212236   0.409   5.075   1.578
  793SOL     OW12237   3.765   4.439   1.989
  793SOL    HW112238   3.817   4.406   2.068
  793SOL    HW212239   3.714   4.522   2.015
  794SOL     OW12240   3.454   8.694   1.875
  794SOL    HW112241   3.538   8.722   1.921
  794SOL    HW212242   3.461   8.714   1.777
  795SOL     OW12243   5.144   2.493   1.327
  795SOL    HW112244   5.188   2.511   1.414
  795SOL    HW212245   5.123   2.580   1.281
  796SOL     OW12246   2.500   6.915   0.607
  796SOL    HW112247   2.495   6.989   0.540
  796SOL    HW212248   2.417   6.916   0.663
  797SOL     OW12249   0.116   5.740   1.221
  797SOL    HW112250   0.049   5.745   1.296
  797SOL    HW212251   0.208   5.746   1.259
  798SOL     OW12252   4.211   2.214   0.842
  798SOL    HW112253   4.280   2.143   0.851
  798SOL    HW212254   4.162   2.224   0.929
  799SOL     OW12255   0.747   4.190   0.413
  799SOL    HW112256   0.732   4.238   0.327
  799SOL    HW212257   0.668   4.133   0.434
  800SOL     OW12258   1.928   2.421   0.878
  800SOL    HW112259   1.936   2.324   0.902
  800SOL    HW212260   2.013   2.451   0.833
  801SOL     OW12261   3.880   1.374   1.504
  801SOL    HW112262   3.827   1.387   1.588
  801SOL    HW212263   3.928   1.286   1.509
  802SOL     OW12264   3.085   5.302   0.223
  802SOL    HW112265   3.035   5.334   0.142
  802SOL    HW212266   3.140   5.222   0.199
  803SOL     OW12267   2.918   8.853   2.204
  803SOL    HW112268   2.858   8.930   2.223
  803SOL    HW212269   2.891   8.809   2.118
  804SOL     OW12270   2.807   0.383   1.709
  804SOL    HW112271   2.865   0.413   1.634
  804SOL    HW212272   2.747   0.310   1.678
  805SOL     OW12273   3.571   4.828   1.838
  805SOL    HW112274   3.483   4.840   1.792
  805SOL    HW212275   3.641   4.808   1.770
  806SOL     OW12276   2.441   9.046   2.238
  806SOL    HW112277   2.482   9.031   2.328
  806SOL    HW212278   2.441   9.143   2.216
  807SOL     OW12279   1.248   2.966   2.015
  807SOL    HW112280   1.178   3.028   2.050
  807SOL    HW212281   1.290   2.918   2.092
  808SOL     OW12282   1.242   6.296   0.579
  808SOL    HW112283   1.192   6.209   0.581
  808SOL    HW212284   1.233   6.341   0.667
  809SOL     OW12285   1.158   4.163   0.500
  809SOL    HW112286   1.186   4.137   0.593
  809SOL    HW212287   1.236   4.153   0.438
  810SOL     OW12288   1.012   3.216   0.585
  810SOL    HW112289   0.947   3.153   0.627
  810SOL    HW212290   1.067   3.260   0.656
  811SOL     OW12291   2.745   5.324   1.664
  811SOL    HW112292   2.730   5.338   1.762
  811SOL    HW212293   2.673   5.369   1.612
  812SOL     OW12294   1.685   6.851   2.206
  812SOL    HW112295   1.597   6.835   2.251
  812SOL    HW212296   1.689   6.946   2.173
  813SOL     OW12297   1.982   5.060   1.823
  813SOL    HW112298   1.954   5.091   1.913
  813SOL    HW212299   1.930   5.108   1.753
  814SOL     OW12300   4.339   1.815   0.590
  814SOL    HW112301   4.379   1.724   0.599
  814SOL    HW212302   4.242   1.811   0.615
  815SOL     OW12303   2.305   6.231   1.447
  815SOL    HW112304   2.290   6.314   1.500
  815SOL    HW212305   2.339   6.255   1.356
  816SOL     OW12306   5.102   2.133   0.434
  816SOL    HW112307   5.008   2.108   0.411
  816SOL    HW212308   5.119   2.115   0.531
  817SOL     OW12309   4.592   4.100   1.065
  817SOL    HW112310   4.673   4.083   1.009
  817SOL    HW212311   4.601   4.053   1.153
  818SOL     OW12312   2.191   7.234   0.391
  818SOL    HW112313   2.106   7.186   0.369
  818SOL    HW212314   2.179   7.332   0.376
  819SOL     OW12315   4.618   3.204   1.208
  819SOL    HW112316   4.639   3.299   1.229
  819SOL    HW212317   4.640   3.185   1.112
  820SOL     OW12318   5.018   3.768   2.243
  820SOL    HW112319   4.952   3.700   2.210
  820SOL    HW212320   4.996   3.793   2.337
  821SOL     OW12321   4.997   3.540   0.432
  821SOL    HW112322   5.078   3.488   0.458
  821SOL    HW212323   4.924   3.478   0.404
  822SOL     OW12324   2.108   1.945   1.157
  822SOL    HW112325   2.100   2.037   1.195
  822SOL    HW212326   2.046   1.883   1.206
  823SOL     OW12327   2.291   3.134   0.485
  823SOL    HW112328   2.206   3.082   0.488
  823SOL    HW212329   2.293   3.199   0.561
  824SOL     OW12330   3.350   4.271   0.597
  824SOL    HW112331   3.317   4.176   0.590
  824SOL    HW212332   3.449   4.272   0.583
  825SOL     OW12333   2.890   2.360   1.883
  825SOL    HW112334   2.917   2.420   1.807
  825SOL    HW212335   2.952   2.282   1.888
  826SOL     OW12336   4.443   2.665   1.157
  826SOL    HW112337   4.362   2.640   1.212
  826SOL    HW212338   4.524   2.665   1.216
  827SOL     OW12339   2.490   3.443   1.271
  827SOL    HW112340   2.420   3.447   1.343
  827SOL    HW212341   2.573   3.400   1.309
  828SOL     OW12342   2.330   4.460   1.846
  828SOL    HW112343   2.351   4.493   1.938
  828SOL    HW212344   2.373   4.519   1.778
  829SOL     OW12345   3.288   2.054   2.037
  829SOL    HW112346   3.334   2.140   2.059
  829SOL    HW212347   3.294   1.992   2.115
  830SOL     OW12348   4.830   3.209   1.943
  830SOL    HW112349   4.741   3.255   1.948
  830SOL    HW212350   4.902   3.273   1.968
  831SOL     OW12351   4.574   0.499   1.039
  831SOL    HW112352   4.557   0.425   0.974
  831SOL    HW212353   4.654   0.478   1.094
  832SOL     OW12354   0.178   4.489   2.046
  832SOL    HW112355   0.267   4.534   2.042
  832SOL    HW212356   0.107   4.557   2.063
  833SOL     OW12357   1.806   5.531   1.251
  833SOL    HW112358   1.719   5.500   1.213
  833SOL    HW212359   1.867   5.453   1.263
  834SOL     OW12360   0.597   5.010   2.022
  834SOL    HW112361   0.591   4.933   2.085
  834SOL    HW212362   0.521   5.073   2.040
  835SOL     OW12363   1.738   4.356   0.637
  835SOL    HW112364   1.743   4.294   0.716
  835SOL    HW212365   1.650   4.342   0.591
  836SOL     OW12366   1.909   3.817   1.492
  836SOL    HW112367   1.892   3.752   1.567
  836SOL    HW212368   1.990   3.787   1.440
  837SOL     OW12369   2.077   2.494   1.862
  837SOL    HW112370   2.072   2.585   1.903
  837SOL    HW212371   2.129   2.434   1.922
  838SOL     OW12372   2.331   8.958   2.008
  838SOL    HW112373   2.378   8.985   2.093
  838SOL    HW212374   2.256   8.896   2.030
  839SOL     OW12375   2.434   7.426   1.305
  839SOL    HW112376   2.474   7.357   1.364
  839SOL    HW212377   2.383   7.382   1.231
  840SOL     OW12378   3.874   9.897   0.339
  840SOL    HW112379   3.858   9.992   0.314
  840SOL    HW212380   3.806   9.867   0.405
  841SOL     OW12381   2.277   7.351   1.649
  841SOL    HW112382   2.331   7.435   1.643
  841SOL    HW212383   2.224   7.340   1.566
  842SOL     OW12384   3.036   5.402   0.472
  842SOL    HW112385   3.054   5.364   0.382
  842SOL    HW212386   2.991   5.491   0.462
  843SOL     OW12387   3.961   8.657   1.368
  843SOL    HW112388   4.043   8.602   1.350
  843SOL    HW212389   3.987   8.747   1.401
  844SOL     OW12390   4.205   0.058   2.256
  844SOL    HW112391   4.183   0.028   2.348
  844SOL    HW212392   4.287   0.115   2.258
  845SOL     OW12393   4.297   2.462   0.756
  845SOL    HW112394   4.394   2.475   0.776
  845SOL    HW212395   4.268   2.372   0.789
  846SOL     OW12396   3.135   7.860   0.481
  846SOL    HW112397   3.041   7.888   0.461
  846SOL    HW212398   3.186   7.853   0.396
  847SOL     OW12399   3.631   4.832   1.010
  847SOL    HW112400   3.616   4.734   1.011
  847SOL    HW212401   3.565   4.877   1.071
  848SOL     OW12402   9.417   4.276   2.215
  848SOL    HW112403   9.423   4.201   2.281
  848SOL    HW212404   9.348   4.341   2.246
  849SOL     OW12405   5.081   3.593   0.784
  849SOL    HW112406   5.066   3.495   0.778
  849SOL    HW212407   5.017   3.641   0.724
  850SOL     OW12408   2.593   4.994   1.643
  850SOL    HW112409   2.679   5.018   1.687
  850SOL    HW212410   2.605   4.991   1.544
  851SOL     OW12411   0.711   3.386   2.231
  851SOL    HW112412   0.618   3.423   2.229
  851SOL    HW212413   0.775   3.455   2.198
  852SOL     OW12414   2.840   1.030   1.579
  852SOL    HW112415   2.895   1.016   1.497
  852SOL    HW212416   2.743   1.032   1.554
  853SOL     OW12417   4.408   0.649   1.439
  853SOL    HW112418   4.383   0.617   1.348
  853SOL    HW212419   4.337   0.710   1.474
  854SOL     OW12420   3.873   5.163   1.814
  854SOL    HW112421   3.966   5.133   1.790
  854SOL    HW212422   3.830   5.205   1.734
  855SOL     OW12423   3.656   5.366   1.531
  855SOL    HW112424   3.738   5.321   1.495
  855SOL    HW212425   3.591   5.379   1.456
  856SOL     OW12426   2.218   2.311   2.014
  856SOL    HW112427   2.189   2.295   2.109
  856SOL    HW212428   2.227   2.224   1.967
  857SOL     OW12429   3.080   1.531   0.909
  857SOL    HW112430   3.103   1.605   0.846
  857SOL    HW212431   2.981   1.525   0.919
  858SOL     OW12432   2.037   7.401   2.029
  858SOL    HW112433   2.034   7.497   2.057
  858SOL    HW212434   2.130   7.378   1.999
  859SOL     OW12435   0.587   5.638   0.591
  859SOL    HW112436   0.618   5.658   0.498
  859SOL    HW212437   0.493   5.604   0.588
  860SOL     OW12438   3.561   3.378   1.545
  860SOL    HW112439   3.497   3.346   1.615
  860SOL    HW212440   3.654   3.376   1.583
  861SOL     OW12441   0.673   3.754   2.049
  861SOL    HW112442   0.703   3.848   2.032
  861SOL    HW212443   0.608   3.753   2.124
  862SOL     OW12444   2.037   3.107   1.304
  862SOL    HW112445   2.066   3.201   1.283
  862SOL    HW212446   1.937   3.103   1.303
  863SOL     OW12447   2.489   8.680   0.843
  863SOL    HW112448   2.558   8.753   0.845
  863SOL    HW212449   2.426   8.691   0.920
  864SOL     OW12450   3.302   5.356   1.574
  864SOL    HW112451   3.239   5.353   1.651
  864SOL    HW212452   3.362   5.276   1.577
  865SOL     OW12453   0.930   4.011   0.521
  865SOL    HW112454   0.857   4.066   0.479
  865SOL    HW212455   1.018   4.056   0.508
  866SOL     OW12456   2.368   3.309   1.623
  866SOL    HW112457   2.304   3.232   1.631
  866SOL    HW212458   2.364   3.364   1.706
  867SOL     OW12459   3.112   9.451   1.086
  867SOL    HW112460   3.191   9.434   1.145
  867SOL    HW212461   3.144   9.463   0.992
  868SOL     OW12462   2.099   3.367   1.230
  868SOL    HW112463   2.153   3.407   1.304
  868SOL    HW212464   2.155   3.359   1.148
  869SOL     OW12465   1.450   4.097   1.908
  869SOL    HW112466   1.354   4.104   1.882
  869SOL    HW212467   1.508   4.109   1.827
  870SOL     OW12468   3.402   1.021   0.962
  870SOL    HW112469   3.429   1.032   0.867
  870SOL    HW212470   3.315   1.069   0.978
  871SOL     OW12471   3.858   3.049   1.759
  871SOL    HW112472   3.840   3.147   1.759
  871SOL    HW212473   3.955   3.033   1.773
  872SOL     OW12474   1.864   6.000   1.321
  872SOL    HW112475   1.786   6.007   1.382
  872SOL    HW212476   1.853   5.921   1.261
  873SOL     OW12477   9.762   4.442   0.430
  873SOL    HW112478   9.782   4.427   0.334
  873SOL    HW212479   9.669   4.478   0.439
  874SOL     OW12480   1.249   5.034   2.301
  874SOL    HW112481   1.293   5.117   2.333
  874SOL    HW212482   1.175   5.058   2.237
  875SOL     OW12483   3.047   6.291   1.428
  875SOL    HW112484   3.020   6.381   1.461
  875SOL    HW212485   3.147   6.282   1.432
  876SOL     OW12486   2.025   6.493   2.030
  876SOL    HW112487   1.986   6.516   1.940
  876SOL    HW212488   2.016   6.572   2.091
  877SOL     OW12489   2.488   4.235   1.831
  877SOL    HW112490   2.422   4.309   1.821
  877SOL    HW212491   2.524   4.235   1.924
  878SOL     OW12492   4.121   0.060   0.658
  878SOL    HW112493   4.091   9.974   0.699
  878SOL    HW212494   4.205   0.091   0.703
  879SOL     OW12495   2.175   3.667   1.784
  879SOL    HW112496   2.143   3.654   1.691
  879SOL    HW212497   2.098   3.657   1.848
  880SOL     OW12498   4.777   1.499   2.086
  880SOL    HW112499   4.763   1.491   1.988
  880SOL    HW212500   4.815   1.588   2.108
  881SOL     OW12501   2.070   2.870   1.455
  881SOL    HW112502   2.124   2.862   1.538
  881SOL    HW212503   2.075   2.963   1.420
  882SOL     OW12504   3.902   4.342   2.199
  882SOL    HW112505   3.918   4.248   2.169
  882SOL    HW212506   3.966   4.364   2.273
  883SOL     OW12507   3.666   8.222   2.017
  883SOL    HW112508   3.612   8.203   1.935
  883SOL    HW212509   3.759   8.249   1.991
  884SOL     OW12510   2.939   3.702   1.417
  884SOL    HW112511   2.901   3.676   1.506
  884SOL    HW212512   2.866   3.733   1.357
  885SOL     OW12513   9.835   4.203   1.956
  885SOL    HW112514   9.817   4.109   1.926
  885SOL    HW212515   9.749   4.249   1.978
  886SOL     OW12516   1.878   6.269   0.629
  886SOL    HW112517   1.940   6.338   0.666
  886SOL    HW212518   1.827   6.309   0.553
  887SOL     OW12519   4.519   3.813   1.600
  887SOL    HW112520   4.475   3.896   1.633
  887SOL    HW212521   4.470   3.778   1.520
  888SOL     OW12522   3.854   0.789   1.769
  888SOL    HW112523   3.887   0.712   1.714
  888SOL    HW212524   3.765   0.768   1.807
  889SOL     OW12525   2.701   7.804   1.479
  889SOL    HW112526   2.619   7.756   1.448
  889SOL    HW212527   2.761   7.820   1.401
  890SOL     OW12528   3.943   3.893   1.909
  890SOL    HW112529   3.875   3.928   1.844
  890SOL    HW212530   4.033   3.892   1.866
  891SOL     OW12531   0.622   3.946   0.716
  891SOL    HW112532   0.662   4.010   0.782
  891SOL    HW212533   0.687   3.873   0.697
  892SOL     OW12534   4.084   1.775   0.698
  892SOL    HW112535   3.995   1.770   0.654
  892SOL    HW212536   4.081   1.844   0.771
  893SOL     OW12537   4.097   4.510   1.335
  893SOL    HW112538   4.133   4.570   1.264
  893SOL    HW212539   3.997   4.509   1.330
  894SOL     OW12540   2.725   6.476   1.841
  894SOL    HW112541   2.821   6.464   1.866
  894SOL    HW212542   2.680   6.387   1.842
  895SOL     OW12543   9.538   5.045   1.114
  895SOL    HW112544   9.504   5.124   1.063
  895SOL    HW212545   9.487   4.963   1.087
  896SOL     OW12546   2.889   3.362   0.956
  896SOL    HW112547   2.840   3.430   1.010
  896SOL    HW212548   2.862   3.271   0.985
  897SOL     OW12549   0.883   5.407   1.111
  897SOL    HW112550   0.834   5.483   1.155
  897SOL    HW212551   0.861   5.406   1.013
  898SOL     OW12552   3.723   1.469   1.726
  898SOL    HW112553   3.623   1.468   1.716
  898SOL    HW212554   3.758   1.558   1.695
  899SOL     OW12555   2.113   4.983   0.648
  899SOL    HW112556   2.157   5.018   0.565
  899SOL    HW212557   2.178   4.986   0.724
  900SOL     OW12558   1.860   2.837   0.401
  900SOL    HW112559   1.870   2.768   0.473
  900SOL    HW212560   1.879   2.795   0.312
  901SOL     OW12561   1.496   6.768   1.054
  901SOL    HW112562   1.542   6.835   0.996
  901SOL    HW212563   1.433   6.815   1.117
  902SOL     OW12564   2.774   0.660   1.178
  902SOL    HW112565   2.755   0.590   1.109
  902SOL    HW212566   2.851   0.716   1.149
  903SOL     OW12567   1.906   3.964   1.911
  903SOL    HW112568   1.899   3.951   2.010
  903SOL    HW212569   1.826   3.925   1.867
  904SOL     OW12570   2.544   9.812   2.087
  904SOL    HW112571   2.495   9.774   2.165
  904SOL    HW212572   2.560   9.740   2.019
  905SOL     OW12573   2.916   5.451   2.272
  905SOL    HW112574   2.986   5.521   2.260
  905SOL    HW212575   2.947   5.365   2.230
  906SOL     OW12576   2.646   5.480   2.304
  906SOL    HW112577   2.607   5.396   2.267
  906SOL    HW212578   2.746   5.475   2.299
  907SOL     OW12579   0.914   4.775   1.737
  907SOL    HW112580   0.931   4.865   1.697
  907SOL    HW212581   0.902   4.708   1.664
  908SOL     OW12582   1.216   6.246   1.663
  908SOL    HW112583   1.177   6.212   1.577
  908SOL    HW212584   1.285   6.315   1.644
  909SOL     OW12585   9.425   4.305   1.773
  909SOL    HW112586   9.411   4.230   1.708
  909SOL    HW212587   9.461   4.385   1.725
  910SOL     OW12588   2.615   2.660   1.057
  910SOL    HW112589   2.588   2.578   1.109
  910SOL    HW212590   2.631   2.634   0.961
  911SOL     OW12591   2.403   6.752   1.869
  911SOL    HW112592   2.312   6.791   1.856
  911SOL    HW212593   2.408   6.707   1.958
  912SOL     OW12594   4.271   2.826   1.629
  912SOL    HW112595   4.268   2.870   1.539
  912SOL    HW212596   4.213   2.745   1.628
  913SOL     OW12597   2.941   5.449   1.941
  913SOL    HW112598   2.846   5.420   1.929
  913SOL    HW212599   2.943   5.543   1.975
  914SOL     OW12600   1.271   4.039   1.567
  914SOL    HW112601   1.205   3.997   1.505
  914SOL    HW212602   1.289   3.976   1.643
  915SOL     OW12603   9.755   4.981   1.969
  915SOL    HW112604   9.825   5.029   2.023
  915SOL    HW212605   9.670   5.033   1.971
  916SOL     OW12606   2.445   9.012   0.938
  916SOL    HW112607   2.405   9.080   0.877
  916SOL    HW212608   2.523   8.969   0.894
  917SOL     OW12609   2.296   7.320   1.090
  917SOL    HW112610   2.249   7.233   1.105
  917SOL    HW212611   2.313   7.331   0.992
  918SOL     OW12612   1.402   5.572   0.895
  918SOL    HW112613   1.461   5.627   0.954
  918SOL    HW212614   1.360   5.631   0.825
  919SOL     OW12615   0.859   5.162   1.229
  919SOL    HW112616   0.799   5.180   1.307
  919SOL    HW212617   0.877   5.247   1.180
  920SOL     OW12618   2.294   5.554   1.560
  920SOL    HW112619   2.201   5.535   1.591
  920SOL    HW212620   2.291   5.616   1.482
  921SOL     OW12621   2.730   8.506   1.536
  921SOL    HW112622   2.735   8.406   1.543
  921SOL    HW212623   2.667   8.541   1.604
  922SOL     OW12624   3.380   3.634   0.956
  922SOL    HW112625   3.315   3.630   0.880
  922SOL    HW212626   3.330   3.635   1.043
  923SOL     OW12627   1.622   3.478   1.352
  923SOL    HW112628   1.565   3.560   1.350
  923SOL    HW212629   1.607   3.429   1.438
  924SOL     OW12630   1.400   6.795   2.192
  924SOL    HW112631   1.411   6.857   2.115
  924SOL    HW212632   1.359   6.710   2.161
  925SOL     OW12633   2.209   2.657   0.460
  925SOL    HW112634   2.155   2.573   0.461
  925SOL    HW212635   2.152   2.733   0.490
  926SOL     OW12636   9.341   5.540   0.728
  926SOL    HW112637   9.363   5.617   0.787
  926SOL    HW212638   9.375   5.558   0.636
  927SOL     OW12639   4.165   3.840   0.253
  927SOL    HW112640   4.153   3.911   0.183
  927SOL    HW212641   4.257   3.845   0.289
  928SOL     OW12642   1.971   6.012   1.712
  928SOL    HW112643   2.027   6.020   1.630
  928SOL    HW212644   1.885   5.966   1.688
  929SOL     OW12645   4.023   3.923   1.072
  929SOL    HW112646   4.074   3.912   0.987
  929SOL    HW212647   4.065   3.995   1.127
  930SOL     OW12648   4.006   2.720   1.036
  930SOL    HW112649   4.050   2.721   0.947
  930SOL    HW212650   3.975   2.627   1.057
  931SOL     OW12651   2.938   1.083   1.133
  931SOL    HW112652   2.913   1.170   1.177
  931SOL    HW212653   2.857   1.025   1.126
  932SOL     OW12654   4.046   0.301   1.871
  932SOL    HW112655   4.122   0.360   1.843
  932SOL    HW212656   4.044   0.219   1.813
  933SOL     OW12657   0.547   5.319   1.232
  933SOL    HW112658   0.543   5.250   1.159
  933SOL    HW212659   0.458   5.364   1.241
  934SOL     OW12660   3.107   7.853   0.952
  934SOL    HW112661   3.178   7.857   0.882
  934SOL    HW212662   3.032   7.796   0.920
  935SOL     OW12663   1.273   4.178   0.980
  935SOL    HW112664   1.355   4.125   0.998
  935SOL    HW212665   1.249   4.232   1.061
  936SOL     OW12666   2.612   8.183   1.902
  936SOL    HW112667   2.540   8.133   1.854
  936SOL    HW212668   2.701   8.150   1.872
  937SOL     OW12669   2.844   8.641   1.113
  937SOL    HW112670   2.794   8.562   1.078
  937SOL    HW212671   2.934   8.646   1.070
  938SOL     OW12672   1.501   6.052   2.325
  938SOL    HW112673   1.523   6.110   2.247
  938SOL    HW212674   1.477   6.108   2.403
  939SOL     OW12675   2.335   2.142   1.656
  939SOL    HW112676   2.293   2.109   1.741
  939SOL    HW212677   2.264   2.175   1.594
  940SOL     OW12678   2.683   1.289   0.823
  940SOL    HW112679   2.674   1.289   0.724
  940SOL    HW212680   2.711   1.197   0.854
  941SOL     OW12681   1.681   4.930   2.045
  941SOL    HW112682   1.779   4.911   2.039
  941SOL    HW212683   1.631   4.843   2.052
  942SOL     OW12684   3.250   8.452   1.004
  942SOL    HW112685   3.329   8.441   1.064
  942SOL    HW212686   3.278   8.438   0.909
  943SOL     OW12687   0.211   5.624   0.997
  943SOL    HW112688   0.284   5.561   1.024
  943SOL    HW212689   0.180   5.675   1.077
  944SOL     OW12690   2.342   6.826   2.282
  944SOL    HW112691   2.353   6.898   2.350
  944SOL    HW212692   2.265   6.848   2.221
  945SOL     OW12693   4.362   1.781   1.191
  945SOL    HW112694   4.382   1.683   1.187
  945SOL    HW212695   4.264   1.796   1.178
  946SOL     OW12696   2.325   4.873   2.081
  946SOL    HW112697   2.344   4.897   1.986
  946SOL    HW212698   2.402   4.821   2.118
  947SOL     OW12699   1.690   6.762   0.395
  947SOL    HW112700   1.687   6.768   0.495
  947SOL    HW212701   1.677   6.853   0.356
  948SOL     OW12702   0.777   5.772   2.196
  948SOL    HW112703   0.845   5.723   2.141
  948SOL    HW212704   0.729   5.708   2.256
  949SOL     OW12705   2.030   2.775   1.920
  949SOL    HW112706   1.943   2.782   1.872
  949SOL    HW212707   2.018   2.801   2.016
  950SOL     OW12708   2.427   7.093   0.397
  950SOL    HW112709   2.416   7.016   0.334
  950SOL    HW212710   2.344   7.149   0.396
  951SOL     OW12711   1.507   3.020   1.402
  951SOL    HW112712   1.599   3.037   1.368
  951SOL    HW212713   1.440   3.066   1.344
  952SOL     OW12714   9.106   5.227   0.606
  952SOL    HW112715   9.093   5.300   0.673
  952SOL    HW212716   9.174   5.162   0.641
  953SOL     OW12717   2.622   2.100   1.369
  953SOL    HW112718   2.592   2.047   1.448
  953SOL    HW212719   2.714   2.072   1.343
  954SOL     OW12720   2.140   2.256   2.269
  954SOL    HW112721   2.061   2.317   2.276
  954SOL    HW212722   2.118   2.167   2.310
  955SOL     OW12723   0.756   4.226   1.677
  955SOL    HW112724   0.714   4.316   1.686
  955SOL    HW212725   0.814   4.208   1.757
  956SOL     OW12726   2.848   2.770   1.929
  956SOL    HW112727   2.824   2.832   1.854
  956SOL    HW212728   2.766   2.720   1.958
  957SOL     OW12729   2.234   5.621   0.621
  957SOL    HW112730   2.256   5.714   0.647
  957SOL    HW212731   2.294   5.592   0.546
  958SOL     OW12732   2.642   8.304   0.791
  958SOL    HW112733   2.627   8.205   0.795
  958SOL    HW212734   2.740   8.322   0.780
  959SOL     OW12735   3.789   1.722   1.645
  959SOL    HW112736   3.870   1.747   1.698
  959SOL    HW212737   3.711   1.774   1.678
  960SOL     OW12738   1.655   6.381   1.931
  960SOL    HW112739   1.667   6.377   1.831
  960SOL    HW212740   1.651   6.477   1.960
  961SOL     OW12741   2.385   2.012   0.288
  961SOL    HW112742   2.372   2.007   0.189
  961SOL    HW212743   2.303   2.051   0.330
  962SOL     OW12744   2.007   4.725   0.575
  962SOL    HW112745   2.049   4.676   0.651
  962SOL    HW212746   2.038   4.820   0.575
  963SOL     OW12747   3.273   3.947   1.615
  963SOL    HW112748   3.221   3.935   1.530
  963SOL    HW212749   3.282   4.045   1.635
  964SOL     OW12750   4.857   2.964   0.842
  964SOL    HW112751   4.916   2.892   0.880
  964SOL    HW212752   4.907   3.014   0.771
  965SOL     OW12753   4.457   5.169   1.011
  965SOL    HW112754   4.378   5.204   1.062
  965SOL    HW212755   4.507   5.104   1.069
  966SOL     OW12756   3.121   2.962   2.296
  966SOL    HW112757   3.093   2.994   2.387
  966SOL    HW212758   3.041   2.957   2.236
  967SOL     OW12759   5.761   3.385   1.354
  967SOL    HW112760   5.664   3.363   1.341
  967SOL    HW212761   5.812   3.361   1.271
  968SOL     OW12762   2.712   4.260   0.468
  968SOL    HW112763   2.701   4.161   0.464
  968SOL    HW212764   2.623   4.304   0.481
  969SOL     OW12765   2.883   4.987   1.969
  969SOL    HW112766   2.896   4.890   1.947
  969SOL    HW212767   2.868   5.039   1.885
  970SOL     OW12768   4.608   3.963   1.314
  970SOL    HW112769   4.628   3.870   1.344
  970SOL    HW212770   4.639   4.028   1.384
  971SOL     OW12771   2.929   7.378   0.665
  971SOL    HW112772   2.996   7.371   0.739
  971SOL    HW212773   2.841   7.405   0.702
  972SOL     OW12774   3.470   8.352   2.168
  972SOL    HW112775   3.468   8.310   2.258
  972SOL    HW212776   3.548   8.317   2.116
  973SOL     OW12777   1.818   6.492   2.276
  973SOL    HW112778   1.736   6.483   2.219
  973SOL    HW212779   1.872   6.408   2.272
  974SOL     OW12780   1.279   4.954   1.202
  974SOL    HW112781   1.304   5.046   1.172
  974SOL    HW212782   1.196   4.959   1.258
  975SOL     OW12783   3.716   2.805   1.806
  975SOL    HW112784   3.768   2.746   1.744
  975SOL    HW212785   3.756   2.897   1.806
  976SOL     OW12786   3.150   4.413   0.471
  976SOL    HW112787   3.151   4.374   0.378
  976SOL    HW212788   3.223   4.370   0.525
  977SOL     OW12789   4.942   2.298   0.777
  977SOL    HW112790   4.922   2.387   0.817
  977SOL    HW212791   4.878   2.280   0.702
  978SOL     OW12792   3.875   2.965   1.097
  978SOL    HW112793   3.920   2.882   1.064
  978SOL    HW212794   3.776   2.953   1.092
  979SOL     OW12795   3.708   9.819   0.544
  979SOL    HW112796   3.790   9.771   0.575
  979SOL    HW212797   3.636   9.809   0.613
  980SOL     OW12798   4.337   4.531   2.137
  980SOL    HW112799   4.243   4.549   2.106
  980SOL    HW212800   4.397   4.523   2.058
  981SOL     OW12801   4.753   4.135   0.416
  981SOL    HW112802   4.834   4.082   0.441
  981SOL    HW212803   4.671   4.090   0.453
  982SOL     OW12804   1.136   4.851   0.513
  982SOL    HW112805   1.213   4.842   0.450
  982SOL    HW212806   1.111   4.947   0.522
  983SOL     OW12807   2.437   1.581   0.654
  983SOL    HW112808   2.402   1.570   0.561
  983SOL    HW212809   2.422   1.676   0.684
  984SOL     OW12810   3.933   9.673   0.625
  984SOL    HW112811   3.879   9.589   0.615
  984SOL    HW212812   3.993   9.683   0.545
  985SOL     OW12813   1.625   5.062   1.730
  985SOL    HW112814   1.703   5.113   1.696
  985SOL    HW212815   1.592   5.103   1.815
  986SOL     OW12816   4.798   4.190   2.188
  986SOL    HW112817   4.892   4.222   2.198
  986SOL    HW212818   4.739   4.267   2.160
  987SOL     OW12819   3.227   0.981   0.598
  987SOL    HW112820   3.175   1.066   0.584
  987SOL    HW212821   3.317   1.003   0.635
  988SOL     OW12822   3.414   3.914   1.861
  988SOL    HW112823   3.373   3.929   1.771
  988SOL    HW212824   3.396   3.820   1.889
  989SOL     OW12825   3.645   0.495   2.016
  989SOL    HW112826   3.672   0.513   2.111
  989SOL    HW212827   3.604   0.403   2.011
  990SOL     OW12828   3.066   8.148   2.204
  990SOL    HW112829   3.118   8.232   2.222
  990SOL    HW212830   3.023   8.117   2.289
  991SOL     OW12831   5.398   3.081   1.850
  991SOL    HW112832   5.465   3.104   1.780
  991SOL    HW212833   5.383   3.161   1.909
  992SOL     OW12834   2.063   3.997   0.595
  992SOL    HW112835   2.014   4.063   0.539
  992SOL    HW212836   2.096   4.042   0.678
  993SOL     OW12837   1.274   6.503   0.398
  993SOL    HW112838   1.274   6.426   0.462
  993SOL    HW212839   1.186   6.507   0.351
  994SOL     OW12840   3.286   3.228   0.474
  994SOL    HW112841   3.191   3.254   0.495
  994SOL    HW212842   3.300   3.131   0.496
  995SOL     OW12843   3.566   0.040   1.394
  995SOL    HW112844   3.511   0.063   1.475
  995SOL    HW212845   3.508  10.000   1.324
  996SOL     OW12846   0.124   4.443   0.763
  996SOL    HW112847   0.120   4.494   0.849
  996SOL    HW212848   0.049   4.473   0.703
  997SOL     OW12849   2.679   0.604   1.429
  997SOL    HW112850   2.672   0.504   1.423
  997SOL    HW212851   2.711   0.641   1.342
  998SOL     OW12852   2.842   8.879   0.629
  998SOL    HW112853   2.828   8.976   0.610
  998SOL    HW212854   2.819   8.825   0.548
  999SOL     OW12855   2.663   8.026   0.762
  999SOL    HW112856   2.577   7.984   0.736
  999SOL    HW212857   2.713   8.055   0.680
 1000SOL     OW12858   3.753   3.306   2.113
 1000SOL    HW112859   3.714   3.397   2.125
 1000SOL    HW212860   3.681   3.237   2.120
 1001SOL     OW12861   2.813   3.067   1.321
 1001SOL    HW112862   2.912   3.055   1.309
 1001SOL    HW212863   2.773   2.983   1.358
 1002SOL     OW12864   2.005   6.501   0.728
 1002SOL    HW112865   2.072   6.473   0.796
 1002SOL    HW212866   2.041   6.578   0.675
 1003SOL     OW12867   9.891   4.228   0.860
 1003SOL    HW112868   9.849   4.227   0.769
 1003SOL    HW212869   9.981   4.185   0.856
 1004SOL     OW12870   4.198   1.643   0.908
 1004SOL    HW112871   4.123   1.618   0.969
 1004SOL    HW212872   4.159   1.681   0.823
 1005SOL     OW12873   1.459   3.661   2.148
 1005SOL    HW112874   1.434   3.756   2.134
 1005SOL    HW212875   1.421   3.628   2.234
 1006SOL     OW12876   2.587   6.122   0.999
 1006SOL    HW112877   2.654   6.105   1.071
 1006SOL    HW212878   2.615   6.202   0.946
 1007SOL     OW12879   2.996   2.539   1.681
 1007SOL    HW112880   3.089   2.547   1.716
 1007SOL    HW212881   2.959   2.630   1.664
 1008SOL     OW12882   3.966   1.265   0.971
 1008SOL    HW112883   4.062   1.293   0.967
 1008SOL    HW212884   3.915   1.330   1.027
 1009SOL     OW12885   3.157   9.357   0.465
 1009SOL    HW112886   3.100   9.405   0.533
 1009SOL    HW212887   3.185   9.269   0.502
 1010SOL     OW12888   0.640   5.557   2.297
 1010SOL    HW112889   0.589   5.538   2.213
 1010SOL    HW212890   0.723   5.502   2.299
 1011SOL     OW12891   3.007   1.383   1.495
 1011SOL    HW112892   2.932   1.399   1.559
 1011SOL    HW212893   3.048   1.471   1.468
 1012SOL     OW12894   4.728   1.111   1.020
 1012SOL    HW112895   4.759   1.016   1.011
 1012SOL    HW212896   4.683   1.125   1.108
 1013SOL     OW12897   3.867   5.218   1.441
 1013SOL    HW112898   3.963   5.200   1.461
 1013SOL    HW212899   3.855   5.231   1.342
 1014SOL     OW12900   2.751   8.989   1.873
 1014SOL    HW112901   2.817   9.017   1.803
 1014SOL    HW212902   2.736   9.065   1.937
 1015SOL     OW12903   2.298   4.105   1.561
 1015SOL    HW112904   2.223   4.103   1.627
 1015SOL    HW212905   2.378   4.059   1.600
 1016SOL     OW12906   1.787   6.765   1.573
 1016SOL    HW112907   1.754   6.770   1.667
 1016SOL    HW212908   1.884   6.743   1.573
 1017SOL     OW12909   3.160   4.187   1.923
 1017SOL    HW112910   3.227   4.244   1.969
 1017SOL    HW212911   3.071   4.232   1.924
 1018SOL     OW12912   3.015   3.256   0.539
 1018SOL    HW112913   2.975   3.183   0.595
 1018SOL    HW212914   2.958   3.271   0.458
 1019SOL     OW12915   1.514   3.470   1.955
 1019SOL    HW112916   1.555   3.520   1.879
 1019SOL    HW212917   1.484   3.534   2.026
 1020SOL     OW12918   2.884   9.773   1.953
 1020SOL    HW112919   2.828   9.855   1.968
 1020SOL    HW212920   2.855   9.728   1.869
 1021SOL     OW12921   0.828   4.404   1.348
 1021SOL    HW112922   0.746   4.348   1.343
 1021SOL    HW212923   0.841   4.452   1.261
 1022SOL     OW12924   1.773   2.804   1.796
 1022SOL    HW112925   1.691   2.850   1.832
 1022SOL    HW212926   1.759   2.705   1.799
 1023SOL     OW12927   9.684   5.188   0.411
 1023SOL    HW112928   9.684   5.270   0.468
 1023SOL    HW212929   9.772   5.141   0.419
 1024SOL     OW12930   4.300   0.183   1.047
 1024SOL    HW112931   4.334   0.214   1.136
 1024SOL    HW212932   4.239   0.105   1.059
 1025SOL     OW12933   2.132   5.805   2.178
 1025SOL    HW112934   2.199   5.874   2.148
 1025SOL    HW212935   2.106   5.748   2.101
 1026SOL     OW12936   4.130   3.783   1.520
 1026SOL    HW112937   4.041   3.747   1.550
 1026SOL    HW212938   4.148   3.754   1.427
 1027SOL     OW12939   2.689   0.644   1.883
 1027SOL    HW112940   2.668   0.619   1.977
 1027SOL    HW212941   2.788   0.637   1.868
 1028SOL     OW12942   1.406   6.447   1.615
 1028SOL    HW112943   1.430   6.508   1.540
 1028SOL    HW212944   1.489   6.403   1.650
 1029SOL     OW12945   3.075   9.415   1.982
 1029SOL    HW112946   3.020   9.471   2.043
 1029SOL    HW212947   3.163   9.460   1.965
 1030SOL     OW12948   2.249   2.713   1.303
 1030SOL    HW112949   2.306   2.774   1.248
 1030SOL    HW212950   2.174   2.765   1.344
 1031SOL     OW12951   0.707   5.898   1.809
 1031SOL    HW112952   0.794   5.913   1.856
 1031SOL    HW212953   0.639   5.963   1.844
 1032SOL     OW12954   3.691   5.511   0.725
 1032SOL    HW112955   3.652   5.429   0.685
 1032SOL    HW212956   3.619   5.580   0.737
 1033SOL     OW12957   2.669   9.472   2.130
 1033SOL    HW112958   2.759   9.506   2.157
 1033SOL    HW212959   2.639   9.521   2.048
 1034SOL     OW12960   1.014   5.749   1.207
 1034SOL    HW112961   1.068   5.681   1.157
 1034SOL    HW212962   0.920   5.716   1.216
 1035SOL     OW12963   3.816   4.512   1.322
 1035SOL    HW112964   3.743   4.498   1.389
 1035SOL    HW212965   3.796   4.459   1.240
 1036SOL     OW12966   3.972   0.502   2.140
 1036SOL    HW112967   3.886   0.522   2.187
 1036SOL    HW212968   3.988   0.403   2.139
 1037SOL     OW12969   4.811   4.059   0.738
 1037SOL    HW112970   4.892   4.117   0.732
 1037SOL    HW212971   4.729   4.115   0.725
 1038SOL     OW12972   2.057   6.713   1.607
 1038SOL    HW112973   2.118   6.772   1.660
 1038SOL    HW212974   2.098   6.693   1.518
 1039SOL     OW12975   1.644   5.618   0.522
 1039SOL    HW112976   1.647   5.630   0.621
 1039SOL    HW212977   1.728   5.656   0.482
 1040SOL     OW12978   3.617   9.239   0.797
 1040SOL    HW112979   3.646   9.283   0.882
 1040SOL    HW212980   3.519   9.255   0.783
 1041SOL     OW12981   3.024   9.516   0.652
 1041SOL    HW112982   3.083   9.505   0.732
 1041SOL    HW212983   2.929   9.512   0.681
 1042SOL     OW12984   3.520   9.799   0.741
 1042SOL    HW112985   3.429   9.797   0.700
 1042SOL    HW212986   3.532   9.883   0.793
 1043SOL     OW12987   2.251   3.259   0.751
 1043SOL    HW112988   2.155   3.236   0.735
 1043SOL    HW212989   2.299   3.178   0.785
 1044SOL     OW12990   2.798   1.915   1.739
 1044SOL    HW112991   2.792   1.884   1.834
 1044SOL    HW212992   2.888   1.955   1.723
 1045SOL     OW12993   3.097   0.306   0.583
 1045SOL    HW112994   3.141   0.332   0.670
 1045SOL    HW212995   3.155   0.240   0.536
 1046SOL     OW12996   4.615   3.376   1.985
 1046SOL    HW112997   4.635   3.474   1.986
 1046SOL    HW212998   4.561   3.352   2.065
 1047SOL     OW12999   3.994   3.248   2.000
 1047SOL    HW113000   3.904   3.278   2.031
 1047SOL    HW213001   4.006   3.150   2.021
 1048SOL     OW13002   9.936   4.901   1.777
 1048SOL    HW113003   9.914   4.808   1.750
 1048SOL    HW213004   9.864   4.937   1.836
 1049SOL     OW13005   1.316   4.570   1.769
 1049SOL    HW113006   1.311   4.525   1.680
 1049SOL    HW213007   1.403   4.549   1.813
 1050SOL     OW13008   9.582   4.310   1.998
 1050SOL    HW113009   9.528   4.299   2.081
 1050SOL    HW213010   9.523   4.300   1.918
 1051SOL     OW13011   2.187   2.164   0.399
 1051SOL    HW113012   2.135   2.149   0.483
 1051SOL    HW213013   2.184   2.262   0.376
 1052SOL     OW13014   1.876   6.265   1.276
 1052SOL    HW113015   1.878   6.167   1.298
 1052SOL    HW213016   1.898   6.278   1.180
 1053SOL     OW13017   3.835   0.477   1.817
 1053SOL    HW113018   3.766   0.483   1.889
 1053SOL    HW213019   3.909   0.417   1.846
 1054SOL     OW13020   3.589   9.776   1.112
 1054SOL    HW113021   3.642   9.697   1.143
 1054SOL    HW213022   3.646   9.857   1.114
 1055SOL     OW13023   2.135   2.271   1.508
 1055SOL    HW113024   2.190   2.352   1.487
 1055SOL    HW213025   2.058   2.299   1.567
 1056SOL     OW13026   9.674   5.410   0.573
 1056SOL    HW113027   9.747   5.456   0.624
 1056SOL    HW213028   9.612   5.478   0.535
 1057SOL     OW13029   1.740   4.154   0.820
 1057SOL    HW113030   1.793   4.092   0.877
 1057SOL    HW213031   1.664   4.104   0.778
 1058SOL     OW13032   2.830   0.317   0.643
 1058SOL    HW113033   2.925   0.312   0.614
 1058SOL    HW213034   2.822   0.281   0.737
 1059SOL     OW13035   3.612   3.276   0.854
 1059SOL    HW113036   3.620   3.332   0.772
 1059SOL    HW213037   3.596   3.181   0.828
 1060SOL     OW13038   2.822   4.632   0.662
 1060SOL    HW113039   2.861   4.659   0.750
 1060SOL    HW213040   2.852   4.540   0.639
 1061SOL     OW13041   4.841   4.710   1.263
 1061SOL    HW113042   4.859   4.786   1.200
 1061SOL    HW213043   4.789   4.744   1.342
 1062SOL     OW13044   3.829   1.809   0.606
 1062SOL    HW113045   3.851   1.907   0.603
 1062SOL    HW213046   3.732   1.797   0.629
 1063SOL     OW13047   3.181   1.589   0.400
 1063SOL    HW113048   3.230   1.513   0.444
 1063SOL    HW213049   3.212   1.597   0.306
 1064SOL     OW13050   3.150   4.191   1.179
 1064SOL    HW113051   3.056   4.164   1.199
 1064SOL    HW213052   3.157   4.223   1.084
 1065SOL     OW13053   3.753   3.628   0.890
 1065SOL    HW113054   3.713   3.597   0.803
 1065SOL    HW213055   3.800   3.551   0.934
 1066SOL     OW13056   3.278   7.962   1.528
 1066SOL    HW113057   3.282   7.989   1.624
 1066SOL    HW213058   3.248   7.866   1.521
 1067SOL     OW13059   1.741   6.432   0.458
 1067SOL    HW113060   1.714   6.479   0.374
 1067SOL    HW213061   1.722   6.491   0.537
 1068SOL     OW13062   0.472   3.521   2.210
 1068SOL    HW113063   0.479   3.618   2.235
 1068SOL    HW213064   0.385   3.506   2.162
 1069SOL     OW13065   2.271   2.501   1.469
 1069SOL    HW113066   2.316   2.542   1.548
 1069SOL    HW213067   2.260   2.570   1.398
 1070SOL     OW13068   3.095   4.693   0.565
 1070SOL    HW113069   2.996   4.698   0.571
 1070SOL    HW213070   3.121   4.617   0.505
 1071SOL     OW13071   4.086   1.197   2.147
 1071SOL    HW113072   4.032   1.118   2.119
 1071SOL    HW213073   4.031   1.256   2.207
 1072SOL     OW13074   1.847   7.231   1.939
 1072SOL    HW113075   1.815   7.278   1.857
 1072SOL    HW213076   1.919   7.285   1.983
 1073SOL     OW13077   4.420   3.756   2.046
 1073SOL    HW113078   4.413   3.856   2.042
 1073SOL    HW213079   4.427   3.727   2.142
 1074SOL     OW13080   2.759   7.668   0.932
 1074SOL    HW113081   2.831   7.692   0.868
 1074SOL    HW213082   2.721   7.751   0.972
 1075SOL     OW13083   1.894   5.583   2.220
 1075SOL    HW113084   1.949   5.587   2.137
 1075SOL    HW213085   1.881   5.676   2.255
 1076SOL     OW13086   3.470   4.388   1.783
 1076SOL    HW113087   3.558   4.340   1.788
 1076SOL    HW213088   3.426   4.385   1.873
 1077SOL     OW13089   4.251   8.626   0.936
 1077SOL    HW113090   4.223   8.722   0.940
 1077SOL    HW213091   4.179   8.568   0.973
 1078SOL     OW13092   3.684   3.002   1.541
 1078SOL    HW113093   3.727   2.934   1.482
 1078SOL    HW213094   3.746   3.026   1.615
 1079SOL     OW13095   2.946   7.610   1.603
 1079SOL    HW113096   2.906   7.690   1.648
 1079SOL    HW213097   2.874   7.553   1.565
 1080SOL     OW13098   4.201   3.351   0.900
 1080SOL    HW113099   4.181   3.274   0.840
 1080SOL    HW213100   4.197   3.321   0.995
 1081SOL     OW13101   4.513   8.522   0.981
 1081SOL    HW113102   4.424   8.566   0.965
 1081SOL    HW213103   4.499   8.425   0.996
 1082SOL     OW13104   3.212   1.896   0.983
 1082SOL    HW113105   3.198   1.839   0.902
 1082SOL    HW213106   3.308   1.891   1.011
 1083SOL     OW13107   1.239   5.556   1.667
 1083SOL    HW113108   1.263   5.499   1.746
 1083SOL    HW213109   1.205   5.497   1.593
 1084SOL     OW13110   1.573   4.779   1.452
 1084SOL    HW113111   1.561   4.790   1.550
 1084SOL    HW213112   1.611   4.688   1.433
 1085SOL     OW13113   1.596   5.936   0.604
 1085SOL    HW113114   1.535   5.875   0.554
 1085SOL    HW213115   1.561   6.029   0.600
 1086SOL     OW13116   4.438   2.178   1.780
 1086SOL    HW113117   4.484   2.138   1.701
 1086SOL    HW213118   4.457   2.277   1.783
 1087SOL     OW13119   3.184   2.316   1.017
 1087SOL    HW113120   3.203   2.414   1.031
 1087SOL    HW213121   3.088   2.304   0.994
 1088SOL     OW13122   3.169   8.517   1.396
 1088SOL    HW113123   3.133   8.461   1.322
 1088SOL    HW213124   3.242   8.468   1.443
 1089SOL     OW13125   2.752   9.524   0.700
 1089SOL    HW113126   2.719   9.449   0.756
 1089SOL    HW213127   2.699   9.529   0.615
 1090SOL     OW13128   2.044   3.132   1.948
 1090SOL    HW113129   2.114   3.062   1.962
 1090SOL    HW213130   2.084   3.223   1.960
 1091SOL     OW13131   4.467   3.618   1.388
 1091SOL    HW113132   4.401   3.594   1.317
 1091SOL    HW213133   4.433   3.587   1.477
 1092SOL     OW13134   2.128   9.159   1.683
 1092SOL    HW113135   2.125   9.150   1.584
 1092SOL    HW213136   2.036   9.146   1.720
 1093SOL     OW13137   3.752   4.030   0.613
 1093SOL    HW113138   3.662   3.990   0.634
 1093SOL    HW213139   3.803   3.967   0.555
 1094SOL     OW13140   4.247   2.557   1.331
 1094SOL    HW113141   4.273   2.532   1.425
 1094SOL    HW213142   4.176   2.627   1.334
 1095SOL     OW13143   3.184   2.915   1.550
 1095SOL    HW113144   3.265   2.968   1.575
 1095SOL    HW213145   3.207   2.854   1.475
 1096SOL     OW13146   2.963   6.536   1.506
 1096SOL    HW113147   3.018   6.546   1.588
 1096SOL    HW213148   2.888   6.602   1.508
 1097SOL     OW13149   3.181   4.708   2.240
 1097SOL    HW113150   3.152   4.638   2.306
 1097SOL    HW213151   3.116   4.783   2.240
 1098SOL     OW13152   2.892   4.074   1.512
 1098SOL    HW113153   2.903   4.161   1.559
 1098SOL    HW213154   2.920   4.084   1.416
 1099SOL     OW13155   4.132   0.874   2.287
 1099SOL    HW113156   4.227   0.900   2.272
 1099SOL    HW213157   4.072   0.929   2.228
 1100SOL     OW13158   2.287   6.066   2.000
 1100SOL    HW113159   2.241   5.993   1.949
 1100SOL    HW213160   2.263   6.154   1.958
 1101SOL     OW13161   0.904   3.576   1.665
 1101SOL    HW113162   0.892   3.478   1.651
 1101SOL    HW213163   0.816   3.616   1.694
 1102SOL     OW13164   3.760   3.996   1.733
 1102SOL    HW113165   3.698   3.921   1.711
 1102SOL    HW213166   3.710   4.067   1.783
 1103SOL     OW13167   2.930   9.586   2.145
 1103SOL    HW113168   3.001   9.618   2.208
 1103SOL    HW213169   2.912   9.657   2.077
 1104SOL     OW13170   1.840   3.905   2.176
 1104SOL    HW113171   1.923   3.905   2.231
 1104SOL    HW213172   1.762   3.934   2.232
 1105SOL     OW13173   0.123   5.239   1.944
 1105SOL    HW113174   0.060   5.181   1.997
 1105SOL    HW213175   0.076   5.274   1.863
 1106SOL     OW13176   2.883   9.319   1.024
 1106SOL    HW113177   2.965   9.367   1.056
 1106SOL    HW213178   2.910   9.232   0.984
 1107SOL     OW13179   0.190   4.964   2.204
 1107SOL    HW113180   0.189   4.884   2.263
 1107SOL    HW213181   0.180   4.936   2.108
 1108SOL     OW13182   4.787   2.488   1.137
 1108SOL    HW113183   4.841   2.420   1.187
 1108SOL    HW213184   4.735   2.544   1.203
 1109SOL     OW13185   1.073   3.876   1.934
 1109SOL    HW113186   1.038   3.852   2.025
 1109SOL    HW213187   1.000   3.871   1.867
 1110SOL     OW13188   1.893   4.660   1.239
 1110SOL    HW113189   1.988   4.656   1.269
 1110SOL    HW213190   1.873   4.752   1.205
 1111SOL     OW13191   3.111   0.722   1.425
 1111SOL    HW113192   3.204   0.708   1.390
 1111SOL    HW213193   3.113   0.727   1.524
 1112SOL     OW13194   4.275   3.528   1.219
 1112SOL    HW113195   4.200   3.593   1.223
 1112SOL    HW213196   4.239   3.436   1.204
 1113SOL     OW13197   4.008   4.830   1.239
 1113SOL    HW113198   3.965   4.846   1.150
 1113SOL    HW213199   3.937   4.820   1.309
 1114SOL     OW13200   4.876   0.768   1.260
 1114SOL    HW113201   4.798   0.737   1.314
 1114SOL    HW213202   4.917   0.848   1.304
 1115SOL     OW13203   1.358   5.298   0.865
 1115SOL    HW113204   1.452   5.268   0.848
 1115SOL    HW213205   1.355   5.397   0.873
 1116SOL     OW13206   1.288   4.355   2.155
 1116SOL    HW113207   1.280   4.341   2.254
 1116SOL    HW213208   1.381   4.333   2.126
 1117SOL     OW13209   5.021   1.843   0.607
 1117SOL    HW113210   5.060   1.767   0.660
 1117SOL    HW213211   5.062   1.929   0.637
 1118SOL     OW13212   0.865   4.979   1.012
 1118SOL    HW113213   0.859   5.039   1.092
 1118SOL    HW213214   0.959   4.947   1.002
 1119SOL     OW13215   3.395   0.752   1.764
 1119SOL    HW113216   3.481   0.759   1.814
 1119SOL    HW213217   3.374   0.839   1.720
 1120SOL     OW13218   3.551   1.773   0.620
 1120SOL    HW113219   3.509   1.733   0.702
 1120SOL    HW213220   3.580   1.701   0.558
 1121SOL     OW13221   3.239   5.138   0.604
 1121SOL    HW113222   3.236   5.232   0.638
 1121SOL    HW213223   3.326   5.121   0.559
 1122SOL     OW13224   1.191   5.595   2.075
 1122SOL    HW113225   1.195   5.501   2.110
 1122SOL    HW213226   1.225   5.658   2.144
 1123SOL     OW13227   4.224   3.615   0.862
 1123SOL    HW113228   4.189   3.635   0.771
 1123SOL    HW213229   4.204   3.520   0.886
 1124SOL     OW13230   0.819   3.137   2.238
 1124SOL    HW113231   0.758   3.074   2.287
 1124SOL    HW213232   0.778   3.228   2.235
 1125SOL     OW13233   2.225   2.100   0.825
 1125SOL    HW113234   2.256   2.009   0.852
 1125SOL    HW213235   2.285   2.169   0.865
 1126SOL     OW13236   4.272   2.301   1.233
 1126SOL    HW113237   4.312   2.245   1.306
 1126SOL    HW213238   4.259   2.395   1.267
 1127SOL     OW13239   1.988   3.225   0.678
 1127SOL    HW113240   1.970   3.311   0.631
 1127SOL    HW213241   1.913   3.204   0.740
 1128SOL     OW13242   3.073   7.038   0.411
 1128SOL    HW113243   3.093   7.126   0.453
 1128SOL    HW213244   3.027   7.052   0.323
 1129SOL     OW13245   2.805   4.905   0.993
 1129SOL    HW113246   2.718   4.909   1.042
 1129SOL    HW213247   2.799   4.960   0.909
 1130SOL     OW13248   1.605   6.299   1.248
 1130SOL    HW113249   1.590   6.395   1.224
 1130SOL    HW213250   1.702   6.284   1.268
 1131SOL     OW13251   2.332   7.285   2.277
 1131SOL    HW113252   2.374   7.364   2.231
 1131SOL    HW213253   2.307   7.216   2.209
 1132SOL     OW13254   2.867   9.231   1.397
 1132SOL    HW113255   2.798   9.277   1.453
 1132SOL    HW213256   2.957   9.273   1.415
 1133SOL     OW13257   2.514   3.993   1.714
 1133SOL    HW113258   2.494   4.079   1.761
 1133SOL    HW213259   2.523   3.919   1.781
 1134SOL     OW13260   4.182   3.274   1.161
 1134SOL    HW113261   4.243   3.197   1.177
 1134SOL    HW213262   4.087   3.243   1.166
 1135SOL     OW13263   2.630   4.083   2.233
 1135SOL    HW113264   2.605   4.168   2.187
 1135SOL    HW213265   2.726   4.088   2.262
 1136SOL     OW13266   0.950   3.729   0.833
 1136SOL    HW113267   0.894   3.697   0.756
 1136SOL    HW213268   0.937   3.827   0.845
 1137SOL     OW13269   2.840   2.792   1.114
 1137SOL    HW113270   2.896   2.801   1.031
 1137SOL    HW213271   2.753   2.748   1.091
 1138SOL     OW13272   1.310   5.461   1.238
 1138SOL    HW113273   1.248   5.500   1.170
 1138SOL    HW213274   1.257   5.434   1.320
 1139SOL     OW13275   2.097   6.047   1.481
 1139SOL    HW113276   2.167   6.112   1.452
 1139SOL    HW213277   2.034   6.030   1.405
 1140SOL     OW13278   0.532   5.836   0.799
 1140SOL    HW113279   0.433   5.822   0.790
 1140SOL    HW213280   0.579   5.790   0.724
 1141SOL     OW13281   3.853   3.814   0.452
 1141SOL    HW113282   3.902   3.826   0.366
 1141SOL    HW213283   3.791   3.736   0.446
 1142SOL     OW13284   2.248   7.585   0.962
 1142SOL    HW113285   2.274   7.515   0.896
 1142SOL    HW213286   2.237   7.544   1.052
 1143SOL     OW13287   3.295   8.823   2.062
 1143SOL    HW113288   3.350   8.880   2.123
 1143SOL    HW213289   3.355   8.770   2.003
 1144SOL     OW13290   4.920   2.740   1.765
 1144SOL    HW113291   4.880   2.830   1.749
 1144SOL    HW213292   5.011   2.736   1.723
 1145SOL     OW13293   4.838   3.577   2.168
 1145SOL    HW113294   4.897   3.507   2.128
 1145SOL    HW213295   4.774   3.610   2.099
 1146SOL     OW13296   1.570   4.793   1.739
 1146SOL    HW113297   1.612   4.884   1.735
 1146SOL    HW213298   1.501   4.791   1.811
 1147SOL     OW13299   2.076   2.821   0.735
 1147SOL    HW113300   2.083   2.897   0.670
 1147SOL    HW213301   2.025   2.746   0.692
 1148SOL     OW13302   2.478   7.686   1.371
 1148SOL    HW113303   2.463   7.592   1.340
 1148SOL    HW213304   2.472   7.748   1.293
 1149SOL     OW13305   3.675   5.025   1.482
 1149SOL    HW113306   3.715   4.935   1.463
 1149SOL    HW213307   3.746   5.095   1.475
 1150SOL     OW13308   1.561   5.719   1.089
 1150SOL    HW113309   1.561   5.624   1.120
 1150SOL    HW213310   1.650   5.760   1.108
 1151SOL     OW13311   4.182   3.913   1.768
 1151SOL    HW113312   4.160   3.853   1.691
 1151SOL    HW213313   4.270   3.956   1.752
 1152SOL     OW13314   4.378   3.907   1.160
 1152SOL    HW113315   4.455   3.923   1.222
 1152SOL    HW213316   4.411   3.865   1.076
 1153SOL     OW13317   2.797   1.675   1.596
 1153SOL    HW113318   2.790   1.758   1.652
 1153SOL    HW213319   2.821   1.700   1.502
 1154SOL     OW13320   3.875   3.649   2.011
 1154SOL    HW113321   3.925   3.587   1.951
 1154SOL    HW213322   3.894   3.743   1.985
 1155SOL     OW13323   1.670   7.111   2.109
 1155SOL    HW113324   1.739   7.152   2.049
 1155SOL    HW213325   1.644   7.176   2.180
 1156SOL     OW13326   3.555   0.356   1.276
 1156SOL    HW113327   3.545   0.281   1.210
 1156SOL    HW213328   3.483   0.349   1.345
 1157SOL     OW13329   0.152   5.236   1.001
 1157SOL    HW113330   0.232   5.282   0.963
 1157SOL    HW213331   0.118   5.288   1.079
 1158SOL     OW13332   1.975   9.222   2.039
 1158SOL    HW113333   1.964   9.259   2.131
 1158SOL    HW213334   2.071   9.225   2.013
 1159SOL     OW13335   4.372   2.740   2.128
 1159SOL    HW113336   4.456   2.687   2.137
 1159SOL    HW213337   4.299   2.697   2.181
 1160SOL     OW13338   3.327   1.883   2.251
 1160SOL    HW113339   3.264   1.915   2.322
 1160SOL    HW213340   3.320   1.784   2.244
 1161SOL     OW13341   1.022   3.510   1.909
 1161SOL    HW113342   1.039   3.414   1.891
 1161SOL    HW213343   0.990   3.555   1.826
 1162SOL     OW13344   0.527   4.154   2.049
 1162SOL    HW113345   0.457   4.148   1.978
 1162SOL    HW213346   0.491   4.117   2.134
 1163SOL     OW13347   3.466   2.804   0.664
 1163SOL    HW113348   3.501   2.869   0.732
 1163SOL    HW213349   3.540   2.775   0.604
 1164SOL     OW13350   9.894   5.191   0.905
 1164SOL    HW113351   9.862   5.123   0.970
 1164SOL    HW213352   9.986   5.221   0.930
 1165SOL     OW13353   2.466   9.820   0.675
 1165SOL    HW113354   2.550   9.805   0.725
 1165SOL    HW213355   2.479   9.895   0.609
 1166SOL     OW13356   0.952   3.852   2.182
 1166SOL    HW113357   0.872   3.906   2.152
 1166SOL    HW213358   0.926   3.756   2.188
 1167SOL     OW13359   1.752   3.114   1.295
 1167SOL    HW113360   1.773   3.159   1.382
 1167SOL    HW213361   1.704   3.178   1.235
 1168SOL     OW13362   1.973   3.600   0.869
 1168SOL    HW113363   2.052   3.578   0.813
 1168SOL    HW213364   2.004   3.644   0.954
 1169SOL     OW13365   3.725   0.014   1.129
 1169SOL    HW113366   3.777   0.027   1.213
 1169SOL    HW213367   3.653   0.083   1.123
 1170SOL     OW13368   3.365   0.673   1.345
 1170SOL    HW113369   3.417   0.624   1.416
 1170SOL    HW213370   3.394   0.642   1.255
 1171SOL     OW13371   4.555   0.925   1.784
 1171SOL    HW113372   4.585   0.981   1.862
 1171SOL    HW213373   4.458   0.943   1.766
 1172SOL     OW13374   3.266   5.401   2.166
 1172SOL    HW113375   3.254   5.308   2.202
 1172SOL    HW213376   3.320   5.397   2.082
 1173SOL     OW13377   0.702   5.273   1.446
 1173SOL    HW113378   0.675   5.328   1.525
 1173SOL    HW213379   0.651   5.304   1.365
 1174SOL     OW13380   2.708   0.816   0.576
 1174SOL    HW113381   2.616   0.843   0.606
 1174SOL    HW213382   2.762   0.898   0.558
 1175SOL     OW13383   2.321   5.710   1.345
 1175SOL    HW113384   2.308   5.687   1.249
 1175SOL    HW213385   2.359   5.802   1.354
 1176SOL     OW13386   2.078   2.654   2.309
 1176SOL    HW113387   2.175   2.642   2.288
 1176SOL    HW213388   2.043   2.733   2.259
 1177SOL     OW13389   2.575   4.506   0.750
 1177SOL    HW113390   2.502   4.575   0.750
 1177SOL    HW213391   2.662   4.551   0.728
 1178SOL     OW13392   3.423   0.626   1.084
 1178SOL    HW113393   3.511   0.666   1.058
 1178SOL    HW213394   3.349   0.682   1.047
 1179SOL     OW13395   1.914   6.986   1.822
 1179SOL    HW113396   1.890   7.066   1.877
 1179SOL    HW213397   1.853   6.911   1.845
 1180SOL     OW13398   2.899   4.493   1.097
 1180SOL    HW113399   2.815   4.509   1.148
 1180SOL    HW213400   2.974   4.474   1.162
 1181SOL     OW13401   2.661   3.274   0.574
 1181SOL    HW113402   2.679   3.371   0.590
 1181SOL    HW213403   2.653   3.226   0.661
 1182SOL     OW13404   1.845   5.207   1.638
 1182SOL    HW113405   1.825   5.305   1.648
 1182SOL    HW213406   1.919   5.195   1.572
 1183SOL     OW13407   3.654   8.554   1.073
 1183SOL    HW113408   3.729   8.615   1.099
 1183SOL    HW213409   3.621   8.579   0.982
 1184SOL     OW13410   3.854   2.639   1.643
 1184SOL    HW113411   3.951   2.621   1.657
 1184SOL    HW213412   3.807   2.553   1.621
 1185SOL     OW13413   0.954   5.278   1.576
 1185SOL    HW113414   0.870   5.266   1.523
 1185SOL    HW213415   0.947   5.362   1.630
 1186SOL     OW13416   4.683   0.692   1.432
 1186SOL    HW113417   4.584   0.696   1.415
 1186SOL    HW213418   4.699   0.684   1.530
 1187SOL     OW13419   2.482   6.638   0.602
 1187SOL    HW113420   2.410   6.606   0.540
 1187SOL    HW213421   2.490   6.737   0.595
 1188SOL     OW13422   0.602   5.437   1.660
 1188SOL    HW113423   0.586   5.364   1.726
 1188SOL    HW213424   0.592   5.526   1.705
 1189SOL     OW13425   4.014   0.728   1.986
 1189SOL    HW113426   3.957   0.735   1.904
 1189SOL    HW213427   3.998   0.640   2.030
 1190SOL     OW13428   3.600   2.995   0.824
 1190SOL    HW113429   3.690   2.970   0.786
 1190SOL    HW213430   3.598   2.973   0.921
 1191SOL     OW13431   4.161   9.791   2.193
 1191SOL    HW113432   4.191   9.736   2.272
 1191SOL    HW213433   4.191   9.885   2.205
 1192SOL     OW13434   1.809   3.241   1.530
 1192SOL    HW113435   1.845   3.180   1.600
 1192SOL    HW213436   1.724   3.283   1.562
 1193SOL     OW13437   5.459   3.454   1.498
 1193SOL    HW113438   5.525   3.468   1.573
 1193SOL    HW213439   5.374   3.500   1.520
 1194SOL     OW13440   4.506   3.796   0.935
 1194SOL    HW113441   4.503   3.702   0.968
 1194SOL    HW213442   4.599   3.832   0.942
 1195SOL     OW13443   3.810   2.411   0.841
 1195SOL    HW113444   3.864   2.425   0.924
 1195SOL    HW213445   3.870   2.385   0.766
 1196SOL     OW13446   2.024   6.406   1.467
 1196SOL    HW113447   1.966   6.360   1.400
 1196SOL    HW213448   2.065   6.487   1.425
 1197SOL     OW13449   5.065   2.878   1.450
 1197SOL    HW113450   5.106   2.827   1.526
 1197SOL    HW213451   5.109   2.968   1.443
 1198SOL     OW13452   3.447   3.739   2.149
 1198SOL    HW113453   3.415   3.693   2.066
 1198SOL    HW213454   3.378   3.805   2.179
 1199SOL     OW13455   1.913   5.275   1.271
 1199SOL    HW113456   1.967   5.238   1.346
 1199SOL    HW213457   1.817   5.247   1.281
 1200SOL     OW13458   4.475   2.400   1.074
 1200SOL    HW113459   4.396   2.353   1.113
 1200SOL    HW213460   4.470   2.497   1.098
 1201SOL     OW13461   2.981   2.811   0.892
 1201SOL    HW113462   3.044   2.882   0.863
 1201SOL    HW213463   2.984   2.735   0.826
 1202SOL     OW13464   4.784   4.390   1.519
 1202SOL    HW113465   4.723   4.468   1.535
 1202SOL    HW213466   4.820   4.395   1.426
 1203SOL     OW13467   2.354   5.701   1.789
 1203SOL    HW113468   2.286   5.771   1.810
 1203SOL    HW213469   2.329   5.654   1.705
 1204SOL     OW13470   3.400   4.093   1.226
 1204SOL    HW113471   3.307   4.119   1.200
 1204SOL    HW213472   3.463   4.114   1.150
 1205SOL     OW13473   2.046   7.667   2.095
 1205SOL    HW113474   1.975   7.730   2.124
 1205SOL    HW213475   2.124   7.718   2.059
 1206SOL     OW13476   2.386   3.042   0.859
 1206SOL    HW113477   2.365   3.024   0.955
 1206SOL    HW213478   2.411   2.956   0.814
 1207SOL     OW13479   2.278   5.601   2.305
 1207SOL    HW113480   2.365   5.647   2.327
 1207SOL    HW213481   2.209   5.670   2.285
 1208SOL     OW13482   4.093   0.457   0.454
 1208SOL    HW113483   4.024   0.516   0.411
 1208SOL    HW213484   4.088   0.366   0.413
 1209SOL     OW13485   4.594   3.415   1.714
 1209SOL    HW113486   4.600   3.387   1.810
 1209SOL    HW213487   4.656   3.491   1.696
 1210SOL     OW13488   2.547   8.640   0.584
 1210SOL    HW113489   2.523   8.545   0.564
 1210SOL    HW213490   2.528   8.660   0.680
 1211SOL     OW13491   3.800   8.455   0.521
 1211SOL    HW113492   3.785   8.361   0.491
 1211SOL    HW213493   3.869   8.457   0.594
 1212SOL     OW13494   2.701   7.692   1.919
 1212SOL    HW113495   2.675   7.600   1.890
 1212SOL    HW213496   2.745   7.740   1.843
 1213SOL     OW13497   1.516   4.032   0.691
 1213SOL    HW113498   1.531   3.946   0.739
 1213SOL    HW213499   1.421   4.061   0.705
 1214SOL     OW13500   2.341   7.092   1.721
 1214SOL    HW113501   2.427   7.105   1.770
 1214SOL    HW213502   2.309   7.180   1.686
 1215SOL     OW13503   3.570   9.182   2.092
 1215SOL    HW113504   3.504   9.131   2.146
 1215SOL    HW213505   3.562   9.280   2.114
 1216SOL     OW13506   2.789   6.485   1.280
 1216SOL    HW113507   2.733   6.414   1.321
 1216SOL    HW213508   2.866   6.506   1.340
 1217SOL     OW13509   4.207   0.813   1.530
 1217SOL    HW113510   4.168   0.858   1.450
 1217SOL    HW213511   4.143   0.743   1.563
 1218SOL     OW13512   4.193   4.128   1.954
 1218SOL    HW113513   4.177   4.058   1.885
 1218SOL    HW213514   4.279   4.110   2.002
 1219SOL     OW13515   3.339   3.636   1.915
 1219SOL    HW113516   3.315   3.648   1.819
 1219SOL    HW213517   3.266   3.586   1.962
 1220SOL     OW13518   2.073   2.898   1.126
 1220SOL    HW113519   1.981   2.862   1.142
 1220SOL    HW213520   2.089   2.977   1.185
 1221SOL     OW13521   2.659   0.239   0.446
 1221SOL    HW113522   2.642   0.312   0.380
 1221SOL    HW213523   2.713   0.275   0.522
 1222SOL     OW13524   2.581   7.176   1.836
 1222SOL    HW113525   2.591   7.134   1.926
 1222SOL    HW213526   2.632   7.124   1.768
 1223SOL     OW13527   2.439   4.583   1.624
 1223SOL    HW113528   2.408   4.670   1.586
 1223SOL    HW213529   2.412   4.508   1.563
 1224SOL     OW13530   4.095   1.572   1.637
 1224SOL    HW113531   4.097   1.487   1.690
 1224SOL    HW213532   4.040   1.557   1.554
 1225SOL     OW13533   3.707   2.421   1.581
 1225SOL    HW113534   3.680   2.376   1.666
 1225SOL    HW213535   3.634   2.483   1.552
 1226SOL     OW13536   4.023   5.117   1.024
 1226SOL    HW113537   3.986   5.025   1.022
 1226SOL    HW213538   4.010   5.160   0.935
 1227SOL     OW13539   2.045   2.189   0.639
 1227SOL    HW113540   2.120   2.160   0.698
 1227SOL    HW213541   1.958   2.173   0.686
 1228SOL     OW13542   4.498   0.384   2.072
 1228SOL    HW113543   4.502   0.380   1.973
 1228SOL    HW213544   4.492   0.480   2.101
 1229SOL     OW13545   2.230   8.861   1.553
 1229SOL    HW113546   2.177   8.788   1.597
 1229SOL    HW213547   2.318   8.824   1.523
 1230SOL     OW13548   1.931   2.425   2.279
 1230SOL    HW113549   1.868   2.441   2.203
 1230SOL    HW213550   1.978   2.511   2.301
 1231SOL     OW13551   3.498   5.133   1.302
 1231SOL    HW113552   3.560   5.095   1.371
 1231SOL    HW213553   3.463   5.060   1.244
 1232SOL     OW13554   3.154   1.502   1.854
 1232SOL    HW113555   3.177   1.567   1.782
 1232SOL    HW213556   3.237   1.475   1.903
 1233SOL     OW13557   3.121   4.450   1.269
 1233SOL    HW113558   3.195   4.493   1.217
 1233SOL    HW213559   3.131   4.350   1.264
 1234SOL     OW13560   0.009   4.069   0.325
 1234SOL    HW113561   0.040   4.145   0.381
 1234SOL    HW213562   0.079   3.997   0.325
 1235SOL     OW13563   4.938   4.017   1.102
 1235SOL    HW113564   5.030   3.983   1.086
 1235SOL    HW213565   4.873   3.963   1.048
 1236SOL     OW13566   3.576   0.371   0.709
 1236SOL    HW113567   3.530   0.401   0.792
 1236SOL    HW213568   3.596   0.273   0.716
 1237SOL     OW13569   3.137   3.484   2.020
 1237SOL    HW113570   3.067   3.487   2.090
 1237SOL    HW213571   3.175   3.391   2.015
 1238SOL     OW13572   4.358   2.406   1.548
 1238SOL    HW113573   4.352   2.312   1.516
 1238SOL    HW213574   4.453   2.435   1.551
 1239SOL     OW13575   0.708   5.636   1.475
 1239SOL    HW113576   0.766   5.703   1.521
 1239SOL    HW213577   0.685   5.562   1.539
 1240SOL     OW13578   2.900   4.664   1.625
 1240SOL    HW113579   2.861   4.704   1.542
 1240SOL    HW213580   2.978   4.607   1.601
 1241SOL     OW13581   4.194   3.895   0.854
 1241SOL    HW113582   4.228   3.806   0.886
 1241SOL    HW213583   4.144   3.883   0.768
 1242SOL     OW13584   1.392   3.195   0.490
 1242SOL    HW113585   1.478   3.187   0.539
 1242SOL    HW213586   1.345   3.279   0.516
 1243SOL     OW13587   3.833   9.528   2.181
 1243SOL    HW113588   3.904   9.459   2.164
 1243SOL    HW213589   3.865   9.618   2.151
 1244SOL     OW13590   2.502   4.944   0.698
 1244SOL    HW113591   2.593   4.969   0.732
 1244SOL    HW213592   2.433   4.982   0.759
 1245SOL     OW13593   5.079   3.667   1.044
 1245SOL    HW113594   5.083   3.635   0.950
 1245SOL    HW213595   5.111   3.762   1.049
 1246SOL     OW13596   3.060   8.124   0.913
 1246SOL    HW113597   3.056   8.027   0.938
 1246SOL    HW213598   3.151   8.146   0.880
 1247SOL     OW13599   3.811   4.784   1.706
 1247SOL    HW113600   3.840   4.839   1.784
 1247SOL    HW213601   3.831   4.687   1.723
 1248SOL     OW13602   3.390   9.673   2.194
 1248SOL    HW113603   3.422   9.755   2.148
 1248SOL    HW213604   3.300   9.689   2.234
 1249SOL     OW13605   4.586   2.509   0.847
 1249SOL    HW113606   4.685   2.521   0.853
 1249SOL    HW213607   4.553   2.463   0.929
 1250SOL     OW13608   3.380   9.916   1.222
 1250SOL    HW113609   3.449   9.860   1.177
 1250SOL    HW213610   3.314   9.857   1.269
 1251SOL     OW13611   0.087   4.286   1.885
 1251SOL    HW113612   9.997   4.255   1.916
 1251SOL    HW213613   0.120   4.358   1.947
 1252SOL     OW13614   3.655   1.597   1.995
 1252SOL    HW113615   3.705   1.557   1.918
 1252SOL    HW213616   3.672   1.696   1.997
 1253SOL     OW13617   2.972   2.428   2.137
 1253SOL    HW113618   2.936   2.400   2.048
 1253SOL    HW213619   2.897   2.437   2.202
 1254SOL     OW13620   2.616   7.455   1.794
 1254SOL    HW113621   2.601   7.359   1.816
 1254SOL    HW213622   2.539   7.490   1.741
 1255SOL     OW13623   3.126   9.662   0.451
 1255SOL    HW113624   3.078   9.613   0.524
 1255SOL    HW213625   3.165   9.596   0.386
 1256SOL     OW13626   0.000   5.337   1.714
 1256SOL    HW113627   0.017   5.252   1.663
 1256SOL    HW213628   0.067   5.406   1.686
 1257SOL     OW13629   4.528   1.968   0.465
 1257SOL    HW113630   4.452   1.913   0.500
 1257SOL    HW213631   4.611   1.944   0.516
 1258SOL     OW13632   4.093   4.585   2.027
 1258SOL    HW113633   4.071   4.499   1.980
 1258SOL    HW213634   4.013   4.615   2.079
 1259SOL     OW13635   1.557   2.756   1.478
 1259SOL    HW113636   1.657   2.755   1.486
 1259SOL    HW213637   1.526   2.847   1.450
 1260SOL     OW13638   2.545   3.036   0.466
 1260SOL    HW113639   2.601   3.114   0.494
 1260SOL    HW213640   2.449   3.064   0.462
 1261SOL     OW13641   2.471   3.819   0.398
 1261SOL    HW113642   2.384   3.799   0.443
 1261SOL    HW213643   2.498   3.741   0.341
 1262SOL     OW13644   2.822   3.295   0.347
 1262SOL    HW113645   2.808   3.383   0.301
 1262SOL    HW213646   2.753   3.284   0.419
 1263SOL     OW13647   4.045   7.994   0.775
 1263SOL    HW113648   4.127   8.050   0.779
 1263SOL    HW213649   3.968   8.050   0.746
 1264SOL     OW13650   1.645   5.317   0.917
 1264SOL    HW113651   1.651   5.230   0.867
 1264SOL    HW213652   1.714   5.380   0.883
 1265SOL     OW13653   4.457   3.647   2.304
 1265SOL    HW113654   4.400   3.696   2.370
 1265SOL    HW213655   4.550   3.639   2.340
 1266SOL     OW13656   2.809   9.156   0.683
 1266SOL    HW113657   2.739   9.212   0.726
 1266SOL    HW213658   2.878   9.130   0.751
 1267SOL     OW13659   2.671   7.015   1.633
 1267SOL    HW113660   2.658   6.926   1.676
 1267SOL    HW213661   2.735   7.006   1.557
 1268SOL     OW13662   1.708   5.734   0.769
 1268SOL    HW113663   1.785   5.763   0.827
 1268SOL    HW213664   1.665   5.815   0.729
 1269SOL     OW13665   2.829   6.775   1.209
 1269SOL    HW113666   2.796   6.692   1.255
 1269SOL    HW213667   2.903   6.751   1.147
 1270SOL     OW13668   1.020   4.712   1.305
 1270SOL    HW113669   1.116   4.683   1.314
 1270SOL    HW213670   1.015   4.812   1.306
 1271SOL     OW13671   3.494   0.060   0.483
 1271SOL    HW113672   3.397   0.072   0.464
 1271SOL    HW213673   3.522   9.967   0.459
 1272SOL     OW13674   2.776   2.786   1.378
 1272SOL    HW113675   2.802   2.792   1.281
 1272SOL    HW213676   2.705   2.717   1.389
 1273SOL     OW13677   4.641   2.194   1.172
 1273SOL    HW113678   4.725   2.185   1.118
 1273SOL    HW213679   4.588   2.272   1.139
 1274SOL     OW13680   2.859   6.133   1.536
 1274SOL    HW113681   2.867   6.125   1.635
 1274SOL    HW213682   2.933   6.191   1.501
 1275SOL     OW13683   2.688   5.630   1.751
 1275SOL    HW113684   2.641   5.625   1.839
 1275SOL    HW213685   2.636   5.579   1.683
 1276SOL     OW13686   2.453   1.830   0.781
 1276SOL    HW113687   2.542   1.787   0.796
 1276SOL    HW213688   2.409   1.849   0.869
 1277SOL     OW13689   3.809   1.036   1.637
 1277SOL    HW113690   3.835   0.962   1.699
 1277SOL    HW213691   3.892   1.074   1.595
 1278SOL     OW13692   2.154   4.184   0.789
 1278SOL    HW113693   2.178   4.235   0.707
 1278SOL    HW213694   2.103   4.244   0.851
 1279SOL     OW13695   2.285   5.881   0.692
 1279SOL    HW113696   2.362   5.888   0.755
 1279SOL    HW213697   2.204   5.921   0.734
 1280SOL     OW13698   1.666   5.426   1.949
 1280SOL    HW113699   1.628   5.397   1.861
 1280SOL    HW213700   1.645   5.523   1.964
 1281SOL     OW13701   9.980   4.826   0.974
 1281SOL    HW113702   9.915   4.885   1.022
 1281SOL    HW213703   9.967   4.835   0.875
 1282SOL     OW13704   2.913   5.461   1.491
 1282SOL    HW113705   2.958   5.396   1.430
 1282SOL    HW213706   2.870   5.411   1.567
 1283SOL     OW13707   4.248   1.439   0.522
 1283SOL    HW113708   4.329   1.485   0.559
 1283SOL    HW213709   4.179   1.508   0.498
 1284SOL     OW13710   1.655   5.071   2.272
 1284SOL    HW113711   1.747   5.107   2.291
 1284SOL    HW213712   1.658   5.016   2.188
 1285SOL     OW13713   3.922   1.347   2.312
 1285SOL    HW113714   3.834   1.376   2.273
 1285SOL    HW213715   3.906   1.304   2.401
 1286SOL     OW13716   0.903   6.015   2.184
 1286SOL    HW113717   0.850   5.934   2.205
 1286SOL    HW213718   0.843   6.086   2.146
 1287SOL     OW13719   5.034   4.479   0.853
 1287SOL    HW113720   5.025   4.428   0.938
 1287SOL    HW213721   4.985   4.566   0.860
 1288SOL     OW13722   1.627   6.097   1.461
 1288SOL    HW113723   1.603   6.170   1.397
 1288SOL    HW213724   1.557   6.026   1.458
 1289SOL     OW13725   2.169   6.896   1.810
 1289SOL    HW113726   2.076   6.931   1.809
 1289SOL    HW213727   2.232   6.967   1.780
 1290SOL     OW13728   1.929   5.146   2.269
 1290SOL    HW113729   1.962   5.209   2.339
 1290SOL    HW213730   1.995   5.071   2.257
 1291SOL     OW13731   3.054   9.925   0.407
 1291SOL    HW113732   3.075   9.827   0.413
 1291SOL    HW213733   2.957   9.939   0.429
 1292SOL     OW13734   3.134   7.544   2.004
 1292SOL    HW113735   3.142   7.504   1.912
 1292SOL    HW213736   3.099   7.476   2.067
 1293SOL     OW13737   5.054   4.296   2.198
 1293SOL    HW113738   5.087   4.378   2.244
 1293SOL    HW213739   5.128   4.230   2.186
 1294SOL     OW13740   4.216   3.171   1.591
 1294SOL    HW113741   4.183   3.124   1.673
 1294SOL    HW213742   4.175   3.262   1.586
 1295SOL     OW13743   1.584   6.134   1.017
 1295SOL    HW113744   1.526   6.058   1.047
 1295SOL    HW213745   1.599   6.197   1.093
 1296SOL     OW13746   3.368   4.326   2.033
 1296SOL    HW113747   3.423   4.248   2.063
 1296SOL    HW213748   3.386   4.404   2.092
 1297SOL     OW13749   2.705   2.620   0.519
 1297SOL    HW113750   2.714   2.525   0.489
 1297SOL    HW213751   2.615   2.655   0.492
 1298SOL     OW13752   2.626   2.276   1.923
 1298SOL    HW113753   2.724   2.296   1.913
 1298SOL    HW213754   2.613   2.177   1.932
 1299SOL     OW13755   2.620   6.518   1.062
 1299SOL    HW113756   2.637   6.445   0.997
 1299SOL    HW213757   2.684   6.510   1.139
 1300SOL     OW13758   2.519   2.087   1.113
 1300SOL    HW113759   2.591   2.028   1.078
 1300SOL    HW213760   2.537   2.107   1.209
 1301SOL     OW13761   4.513   4.572   0.729
 1301SOL    HW113762   4.489   4.494   0.671
 1301SOL    HW213763   4.437   4.637   0.731
 1302SOL     OW13764   3.150   0.074   1.211
 1302SOL    HW113765   3.123   0.071   1.307
 1302SOL    HW213766   3.241   0.034   1.202
 1303SOL     OW13767   4.476   2.688   1.767
 1303SOL    HW113768   4.409   2.738   1.712
 1303SOL    HW213769   4.527   2.753   1.823
 1304SOL     OW13770   3.590   7.871   1.214
 1304SOL    HW113771   3.500   7.905   1.238
 1304SOL    HW213772   3.584   7.773   1.192
 1305SOL     OW13773   2.164   5.360   0.420
 1305SOL    HW113774   2.238   5.425   0.404
 1305SOL    HW213775   2.089   5.406   0.468
 1306SOL     OW13776   3.266   0.275   1.872
 1306SOL    HW113777   3.216   0.341   1.928
 1306SOL    HW213778   3.364   0.286   1.886
 1307SOL     OW13779   3.084   3.040   1.274
 1307SOL    HW113780   3.142   2.962   1.297
 1307SOL    HW213781   3.116   3.121   1.323
 1308SOL     OW13782   4.269   1.233   1.602
 1308SOL    HW113783   4.217   1.286   1.670
 1308SOL    HW213784   4.345   1.287   1.569
 1309SOL     OW13785   2.673   2.078   2.312
 1309SOL    HW113786   2.705   2.145   2.379
 1309SOL    HW213787   2.735   2.077   2.233
 1310SOL     OW13788   2.384   5.533   0.407
 1310SOL    HW113789   2.429   5.585   0.334
 1310SOL    HW213790   2.443   5.457   0.434
 1311SOL     OW13791   9.810   5.010   1.084
 1311SOL    HW113792   9.711   5.017   1.098
 1311SOL    HW213793   9.857   5.028   1.170
 1312SOL     OW13794   5.364   2.546   0.376
 1312SOL    HW113795   5.332   2.602   0.453
 1312SOL    HW213796   5.451   2.582   0.343
 1313SOL     OW13797   3.181   4.908   0.739
 1313SOL    HW113798   3.203   4.986   0.681
 1313SOL    HW213799   3.154   4.830   0.682
 1314SOL     OW13800   2.770   5.726   0.673
 1314SOL    HW113801   2.804   5.780   0.750
 1314SOL    HW213802   2.735   5.787   0.602
 1315SOL     OW13803   2.968   8.641   1.536
 1315SOL    HW113804   2.884   8.588   1.537
 1315SOL    HW213805   3.037   8.592   1.482
 1316SOL     OW13806   3.658   3.555   2.146
 1316SOL    HW113807   3.587   3.624   2.163
 1316SOL    HW213808   3.737   3.600   2.103
 1317SOL     OW13809   1.580   3.229   2.345
 1317SOL    HW113810   1.616   3.262   2.258
 1317SOL    HW213811   1.484   3.256   2.353
 1318SOL     OW13812   2.949   9.364   1.743
 1318SOL    HW113813   2.936   9.267   1.726
 1318SOL    HW213814   2.999   9.377   1.829
 1319SOL     OW13815   2.925   2.284   0.952
 1319SOL    HW113816   2.866   2.312   1.028
 1319SOL    HW213817   2.896   2.331   0.869
 1320SOL     OW13818   3.426   0.402   0.934
 1320SOL    HW113819   3.431   0.478   0.998
 1320SOL    HW213820   3.336   0.399   0.891
 1321SOL     OW13821   2.799   9.994   0.491
 1321SOL    HW113822   2.776   0.087   0.464
 1321SOL    HW213823   2.716   9.938   0.493
 1322SOL     OW13824   0.495   5.263   1.840
 1322SOL    HW113825   0.444   5.287   1.923
 1322SOL    HW213826   0.441   5.199   1.785
 1323SOL     OW13827   2.327   8.232   2.193
 1323SOL    HW113828   2.301   8.269   2.283
 1323SOL    HW213829   2.416   8.267   2.167
 1324SOL     OW13830   3.264   4.028   0.932
 1324SOL    HW113831   3.355   3.987   0.935
 1324SOL    HW213832   3.272   4.128   0.931
 1325SOL     OW13833   4.497   3.179   1.603
 1325SOL    HW113834   4.527   3.266   1.642
 1325SOL    HW213835   4.397   3.177   1.598
 1326SOL     OW13836   1.380   4.876   1.958
 1326SOL    HW113837   1.282   4.877   1.939
 1326SOL    HW213838   1.395   4.842   2.051
 1327SOL     OW13839   2.873   6.114   1.805
 1327SOL    HW113840   2.943   6.152   1.865
 1327SOL    HW213841   2.784   6.155   1.826
 1328SOL     OW13842   2.851   8.091   1.796
 1328SOL    HW113843   2.894   8.142   1.871
 1328SOL    HW213844   2.862   8.141   1.710
 1329SOL     OW13845   4.440   4.888   0.317
 1329SOL    HW113846   4.430   4.798   0.360
 1329SOL    HW213847   4.353   4.936   0.319
 1330SOL     OW13848   3.327   1.485   1.283
 1330SOL    HW113849   3.305   1.438   1.198
 1330SOL    HW213850   3.244   1.528   1.319
 1331SOL     OW13851   4.336   2.837   0.736
 1331SOL    HW113852   4.407   2.780   0.695
 1331SOL    HW213853   4.255   2.782   0.754
 1332SOL     OW13854   4.065   3.705   1.248
 1332SOL    HW113855   4.055   3.779   1.181
 1332SOL    HW213856   3.975   3.667   1.269
 1333SOL     OW13857   4.319   2.163   0.423
 1333SOL    HW113858   4.401   2.105   0.422
 1333SOL    HW213859   4.250   2.122   0.483
 1334SOL     OW13860   9.435   5.698   1.647
 1334SOL    HW113861   9.390   5.611   1.669
 1334SOL    HW213862   9.366   5.768   1.629
 1335SOL     OW13863   2.528   4.730   2.205
 1335SOL    HW113864   2.621   4.722   2.170
 1335SOL    HW213865   2.530   4.755   2.302
 1336SOL     OW13866   1.981   6.289   1.713
 1336SOL    HW113867   1.993   6.317   1.618
 1336SOL    HW213868   1.968   6.190   1.717
 1337SOL     OW13869   2.777   7.715   0.544
 1337SOL    HW113870   2.787   7.628   0.497
 1337SOL    HW213871   2.810   7.789   0.486
 1338SOL     OW13872   4.574   4.348   1.196
 1338SOL    HW113873   4.583   4.269   1.136
 1338SOL    HW213874   4.478   4.361   1.219
 1339SOL     OW13875   3.168   8.921   1.043
 1339SOL    HW113876   3.157   8.945   1.140
 1339SOL    HW213877   3.135   8.828   1.028
 1340SOL     OW13878   1.127   6.155   1.424
 1340SOL    HW113879   1.168   6.186   1.338
 1340SOL    HW213880   1.035   6.120   1.407
 1341SOL     OW13881   3.241   2.764   1.334
 1341SOL    HW113882   3.324   2.714   1.310
 1341SOL    HW213883   3.161   2.715   1.300
 1342SOL     OW13884   2.744   6.100   1.219
 1342SOL    HW113885   2.702   6.154   1.292
 1342SOL    HW213886   2.838   6.131   1.204
 1343SOL     OW13887   4.892   1.709   0.928
 1343SOL    HW113888   4.843   1.653   0.996
 1343SOL    HW213889   4.845   1.796   0.918
 1344SOL     OW13890   3.519   1.305   0.662
 1344SOL    HW113891   3.445   1.340   0.605
 1344SOL    HW213892   3.511   1.341   0.755
 1345SOL     OW13893   2.638   6.754   1.739
 1345SOL    HW113894   2.548   6.760   1.781
 1345SOL    HW213895   2.694   6.689   1.790
 1346SOL     OW13896   3.521   7.857   2.246
 1346SOL    HW113897   3.442   7.826   2.193
 1346SOL    HW213898   3.566   7.777   2.288
 1347SOL     OW13899   4.371   2.000   0.856
 1347SOL    HW113900   4.434   1.974   0.930
 1347SOL    HW213901   4.376   1.931   0.783
 1348SOL     OW13902   3.499   4.075   2.059
 1348SOL    HW113903   3.548   4.019   2.125
 1348SOL    HW213904   3.468   4.018   1.982
 1349SOL     OW13905   4.390   1.007   1.252
 1349SOL    HW113906   4.412   0.961   1.166
 1349SOL    HW213907   4.294   0.989   1.275
 1350SOL     OW13908   0.034   5.388   1.196
 1350SOL    HW113909   9.965   5.354   1.260
 1350SOL    HW213910   9.992   5.450   1.130
 1351SOL     OW13911   2.302   5.610   1.088
 1351SOL    HW113912   2.384   5.628   1.034
 1351SOL    HW213913   2.226   5.588   1.028
 1352SOL     OW13914   3.061   1.210   0.561
 1352SOL    HW113915   3.023   1.301   0.546
 1352SOL    HW213916   2.988   1.142   0.560
 1353SOL     OW13917   4.260   2.982   2.060
 1353SOL    HW113918   4.171   2.987   2.106
 1353SOL    HW213919   4.300   2.892   2.074
 1354SOL     OW13920   2.256   7.825   2.009
 1354SOL    HW113921   2.318   7.800   1.935
 1354SOL    HW213922   2.235   7.923   2.003
 1355SOL     OW13923   3.464   0.552   1.575
 1355SOL    HW113924   3.557   0.518   1.592
 1355SOL    HW213925   3.440   0.620   1.644
 1356SOL     OW13926   2.193   6.304   1.887
 1356SOL    HW113927   2.109   6.293   1.834
 1356SOL    HW213928   2.176   6.363   1.966
 1357SOL     OW13929   3.128   0.450   2.029
 1357SOL    HW113930   3.197   0.523   2.031
 1357SOL    HW213931   3.082   0.445   2.118
 1358SOL     OW13932   2.462   7.472   2.115
 1358SOL    HW113933   2.431   7.562   2.147
 1358SOL    HW213934   2.404   7.442   2.039
 1359SOL     OW13935   4.363   4.664   0.460
 1359SOL    HW113936   4.386   4.567   0.466
 1359SOL    HW213937   4.328   4.696   0.548
 1360SOL     OW13938   2.984   6.446   1.942
 1360SOL    HW113939   2.996   6.491   2.031
 1360SOL    HW213940   3.025   6.355   1.945
 1361SOL     OW13941   2.375   9.204   0.756
 1361SOL    HW113942   2.307   9.278   0.751
 1361SOL    HW213943   2.380   9.157   0.668
 1362SOL     OW13944   2.698   1.717   0.804
 1362SOL    HW113945   2.775   1.758   0.754
 1362SOL    HW213946   2.731   1.636   0.853
 1363SOL     OW13947   3.704   9.024   0.663
 1363SOL    HW113948   3.674   9.110   0.705
 1363SOL    HW213949   3.719   9.038   0.565
 1364SOL     OW13950   4.937   3.964   1.375
 1364SOL    HW113951   4.929   3.986   1.278
 1364SOL    HW213952   4.879   4.024   1.428
 1365SOL     OW13953   5.188   2.457   0.782
 1365SOL    HW113954   5.184   2.432   0.878
 1365SOL    HW213955   5.126   2.398   0.730
 1366SOL     OW13956   2.793   4.718   2.135
 1366SOL    HW113957   2.831   4.719   2.043
 1366SOL    HW213958   2.852   4.772   2.196
 1367SOL     OW13959   2.555   3.048   1.570
 1367SOL    HW113960   2.535   3.027   1.475
 1367SOL    HW213961   2.493   3.119   1.603
 1368SOL     OW13962   0.366   4.754   0.476
 1368SOL    HW113963   0.352   4.778   0.380
 1368SOL    HW213964   0.440   4.809   0.514
 1369SOL     OW13965   9.997   4.686   2.104
 1369SOL    HW113966   9.898   4.698   2.103
 1369SOL    HW213967   0.040   4.756   2.048
 1370SOL     OW13968   2.327   4.381   1.468
 1370SOL    HW113969   2.354   4.289   1.493
 1370SOL    HW213970   2.227   4.390   1.473
 1371SOL     OW13971   0.438   4.047   2.294
 1371SOL    HW113972   0.338   4.051   2.299
 1371SOL    HW213973   0.477   4.095   2.373
 1372SOL     OW13974   3.081   3.925   1.924
 1372SOL    HW113975   3.114   4.020   1.922
 1372SOL    HW213976   3.044   3.901   1.835
 1373SOL     OW13977   1.893   5.252   2.015
 1373SOL    HW113978   1.891   5.217   2.108
 1373SOL    HW213979   1.809   5.303   1.997
 1374SOL     OW13980   2.909   2.364   0.681
 1374SOL    HW113981   2.840   2.358   0.609
 1374SOL    HW213982   2.997   2.335   0.646
 1375SOL     OW13983   0.244   4.342   2.266
 1375SOL    HW113984   0.205   4.386   2.185
 1375SOL    HW213985   0.339   4.369   2.276
 1376SOL     OW13986   3.674   8.778   2.012
 1376SOL    HW113987   3.689   8.772   2.110
 1376SOL    HW213988   3.697   8.870   1.980
 1377SOL     OW13989   2.983   7.205   1.693
 1377SOL    HW113990   3.034   7.288   1.718
 1377SOL    HW213991   2.945   7.163   1.775
 1378SOL     OW13992   4.793   3.947   1.793
 1378SOL    HW113993   4.838   3.947   1.882
 1378SOL    HW213994   4.780   3.853   1.762
 1379SOL     OW13995   1.822   3.809   0.789
 1379SOL    HW113996   1.874   3.727   0.813
 1379SOL    HW213997   1.860   3.888   0.837
 1380SOL     OW13998   1.565   4.860   0.665
 1380SOL    HW113999   1.471   4.829   0.680
 1380SOL    HW214000   1.591   4.843   0.570
 1381SOL     OW14001   3.407   9.052   0.989
 1381SOL    HW114002   3.325   9.006   1.022
 1381SOL    HW214003   3.457   8.991   0.927
 1382SOL     OW14004   4.537   1.494   2.232
 1382SOL    HW114005   4.622   1.497   2.180
 1382SOL    HW214006   4.461   1.522   2.173
 1383SOL     OW14007   9.848   4.443   1.012
 1383SOL    HW114008   9.859   4.357   0.962
 1383SOL    HW214009   9.933   4.496   1.008
 1384SOL     OW14010   4.037   8.918   1.429
 1384SOL    HW114011   3.950   8.956   1.397
 1384SOL    HW214012   4.112   8.961   1.380
 1385SOL     OW14013   1.673   7.049   0.417
 1385SOL    HW114014   1.587   7.043   0.366
 1385SOL    HW214015   1.654   7.044   0.516
 1386SOL     OW14016   5.064   2.435   2.256
 1386SOL    HW114017   5.033   2.527   2.230
 1386SOL    HW214018   5.157   2.441   2.293
 1387SOL     OW14019   4.044   1.085   1.846
 1387SOL    HW114020   4.009   1.038   1.927
 1387SOL    HW214021   4.122   1.035   1.809
 1388SOL     OW14022   2.948   7.738   0.753
 1388SOL    HW114023   2.883   7.725   0.678
 1388SOL    HW214024   3.037   7.765   0.715
 1389SOL     OW14025   3.005   7.186   1.423
 1389SOL    HW114026   2.992   7.190   1.522
 1389SOL    HW214027   3.100   7.207   1.401
 1390SOL     OW14028   2.601   0.922   2.094
 1390SOL    HW114029   2.684   0.959   2.052
 1390SOL    HW214030   2.539   0.889   2.023
 1391SOL     OW14031   4.135   3.160   0.709
 1391SOL    HW114032   4.187   3.183   0.627
 1391SOL    HW214033   4.132   3.060   0.719
 1392SOL     OW14034   1.268   3.607   0.546
 1392SOL    HW114035   1.334   3.551   0.596
 1392SOL    HW214036   1.207   3.548   0.494
 1393SOL     OW14037   4.369   9.000   1.057
 1393SOL    HW114038   4.297   8.959   1.001
 1393SOL    HW214039   4.458   8.979   1.016
 1394SOL     OW14040   2.919   4.321   1.633
 1394SOL    HW114041   2.989   4.383   1.598
 1394SOL    HW214042   2.926   4.315   1.732
 1395SOL     OW14043   1.158   3.134   0.356
 1395SOL    HW114044   1.252   3.136   0.390
 1395SOL    HW214045   1.094   3.145   0.432
 1396SOL     OW14046   3.155   9.806   1.936
 1396SOL    HW114047   3.056   9.797   1.940
 1396SOL    HW214048   3.182   9.896   1.971
 1397SOL     OW14049   2.322   9.614   0.575
 1397SOL    HW114050   2.271   9.655   0.500
 1397SOL    HW214051   2.374   9.685   0.624
 1398SOL     OW14052   0.347   5.326   2.064
 1398SOL    HW114053   0.262   5.304   2.016
 1398SOL    HW214054   0.345   5.288   2.156
 1399SOL     OW14055   3.138   7.964   2.012
 1399SOL    HW114056   3.119   8.033   2.082
 1399SOL    HW214057   3.064   7.897   2.011
 1400SOL     OW14058   2.476   6.677   0.885
 1400SOL    HW114059   2.485   6.652   0.789
 1400SOL    HW214060   2.536   6.620   0.941
 1401SOL     OW14061   0.275   5.742   0.760
 1401SOL    HW114062   0.296   5.666   0.698
 1401SOL    HW214063   0.247   5.706   0.849
 1402SOL     OW14064   5.489   2.827   1.504
 1402SOL    HW114065   5.554   2.903   1.494
 1402SOL    HW214066   5.502   2.784   1.593
 1403SOL     OW14067   1.337   5.205   1.123
 1403SOL    HW114068   1.342   5.231   1.027
 1403SOL    HW214069   1.322   5.287   1.179
 1404SOL     OW14070   3.305   6.717   1.069
 1404SOL    HW114071   3.327   6.707   0.972
 1404SOL    HW214072   3.327   6.810   1.099
 1405SOL     OW14073   5.122   2.082   0.708
 1405SOL    HW114074   5.064   2.151   0.750
 1405SOL    HW214075   5.177   2.037   0.778
 1406SOL     OW14076   4.060   1.951   0.907
 1406SOL    HW114077   4.115   2.029   0.878
 1406SOL    HW214078   3.979   1.983   0.955
 1407SOL     OW14079   9.508   5.116   1.973
 1407SOL    HW114080   9.465   5.061   1.901
 1407SOL    HW214081   9.549   5.198   1.933
 1408SOL     OW14082   4.237   0.487   1.798
 1408SOL    HW114083   4.248   0.580   1.833
 1408SOL    HW214084   4.326   0.441   1.798
 1409SOL     OW14085   4.761   1.921   0.621
 1409SOL    HW114086   4.744   1.932   0.719
 1409SOL    HW214087   4.850   1.877   0.608
 1410SOL     OW14088   1.697   4.554   1.674
 1410SOL    HW114089   1.698   4.537   1.575
 1410SOL    HW214090   1.652   4.641   1.693
 1411SOL     OW14091   3.317   7.482   1.526
 1411SOL    HW114092   3.413   7.507   1.525
 1411SOL    HW214093   3.261   7.561   1.502
 1412SOL     OW14094   5.168   2.838   2.145
 1412SOL    HW114095   5.149   2.927   2.188
 1412SOL    HW214096   5.090   2.777   2.158
 1413SOL     OW14097   4.264   3.288   2.050
 1413SOL    HW114098   4.300   3.196   2.034
 1413SOL    HW214099   4.165   3.288   2.039
 1414SOL     OW14100   2.910   4.387   0.607
 1414SOL    HW114101   2.998   4.385   0.559
 1414SOL    HW214102   2.843   4.334   0.555
 1415SOL     OW14103   4.054   8.991   0.438
 1415SOL    HW114104   4.009   8.945   0.362
 1415SOL    HW214105   4.055   8.932   0.519
 1416SOL     OW14106   4.650   2.626   1.332
 1416SOL    HW114107   4.702   2.705   1.365
 1416SOL    HW214108   4.636   2.562   1.408
 1417SOL     OW14109   2.621   9.310   0.817
 1417SOL    HW114110   2.621   9.337   0.913
 1417SOL    HW214111   2.532   9.273   0.792
 1418SOL     OW14112   2.352   8.783   1.065
 1418SOL    HW114113   2.280   8.807   1.131
 1418SOL    HW214114   2.383   8.866   1.018
 1419SOL     OW14115   1.210   5.333   2.139
 1419SOL    HW114116   1.158   5.250   2.118
 1419SOL    HW214117   1.300   5.308   2.174
 1420SOL     OW14118   0.368   5.356   1.536
 1420SOL    HW114119   0.357   5.264   1.574
 1420SOL    HW214120   0.454   5.395   1.569
 1421SOL     OW14121   4.467   1.669   0.887
 1421SOL    HW114122   4.368   1.663   0.903
 1421SOL    HW214123   4.515   1.678   0.974
 1422SOL     OW14124   3.121   0.714   1.697
 1422SOL    HW114125   3.215   0.715   1.730
 1422SOL    HW214126   3.065   0.658   1.758
 1423SOL     OW14127   2.510   0.007   0.476
 1423SOL    HW114128   2.555   0.096   0.473
 1423SOL    HW214129   2.450   9.997   0.396
 1424SOL     OW14130   3.706   3.460   0.659
 1424SOL    HW114131   3.800   3.427   0.664
 1424SOL    HW214132   3.691   3.503   0.570
 1425SOL     OW14133   3.078   8.468   0.628
 1425SOL    HW114134   3.168   8.441   0.662
 1425SOL    HW214135   3.062   8.564   0.650
 1426SOL     OW14136   2.257   4.093   1.287
 1426SOL    HW114137   2.271   4.098   1.386
 1426SOL    HW214138   2.278   4.000   1.255
 1427SOL     OW14139   2.648   7.812   2.169
 1427SOL    HW114140   2.730   7.804   2.227
 1427SOL    HW214141   2.666   7.771   2.080
 1428SOL     OW14142   2.356   2.425   0.571
 1428SOL    HW114143   2.433   2.413   0.635
 1428SOL    HW214144   2.357   2.519   0.536
 1429SOL     OW14145   1.700   5.690   1.453
 1429SOL    HW114146   1.753   5.632   1.392
 1429SOL    HW214147   1.607   5.654   1.462
 1430SOL     OW14148   2.988   0.943   1.783
 1430SOL    HW114149   3.039   0.862   1.752
 1430SOL    HW214150   2.936   0.981   1.707
 1431SOL     OW14151   9.867   5.804   0.640
 1431SOL    HW114152   9.797   5.872   0.619
 1431SOL    HW214153   9.956   5.849   0.647
 1432SOL     OW14154   4.555   0.649   1.690
 1432SOL    HW114155   4.489   0.653   1.615
 1432SOL    HW214156   4.556   0.737   1.739
 1433SOL     OW14157   2.454   1.162   2.125
 1433SOL    HW114158   2.406   1.177   2.038
 1433SOL    HW214159   2.480   1.065   2.132
 1434SOL     OW14160   2.886   3.059   0.685
 1434SOL    HW114161   2.805   3.089   0.734
 1434SOL    HW214162   2.860   2.990   0.617
 1435SOL     OW14163   2.323   4.823   1.056
 1435SOL    HW114164   2.240   4.863   1.094
 1435SOL    HW214165   2.317   4.723   1.062
 1436SOL     OW14166   2.877   7.933   0.404
 1436SOL    HW114167   2.864   7.939   0.305
 1436SOL    HW214168   2.831   8.009   0.449
 1437SOL     OW14169   1.245   4.067   0.735
 1437SOL    HW114170   1.243   4.106   0.827
 1437SOL    HW214171   1.227   3.969   0.741
 1438SOL     OW14172   1.120   3.415   0.418
 1438SOL    HW114173   1.067   3.361   0.484
 1438SOL    HW214174   1.145   3.358   0.340
 1439SOL     OW14175   2.437   9.306   2.161
 1439SOL    HW114176   2.384   9.310   2.077
 1439SOL    HW214177   2.514   9.370   2.156
 1440SOL     OW14178   2.372   3.480   1.831
 1440SOL    HW114179   2.315   3.561   1.817
 1440SOL    HW214180   2.431   3.494   1.911
 1441SOL     OW14181   3.344   9.440   1.232
 1441SOL    HW114182   3.394   9.354   1.246
 1441SOL    HW214183   3.325   9.483   1.320
 1442SOL     OW14184   2.798   1.811   2.000
 1442SOL    HW114185   2.725   1.782   2.063
 1442SOL    HW214186   2.870   1.742   1.999
 1443SOL     OW14187   3.471   4.886   2.253
 1443SOL    HW114188   3.412   4.850   2.325
 1443SOL    HW214189   3.416   4.912   2.174
 1444SOL     OW14190   1.739   4.386   0.300
 1444SOL    HW114191   1.738   4.416   0.205
 1444SOL    HW214192   1.763   4.463   0.360
 1445SOL     OW14193   4.072   3.804   0.625
 1445SOL    HW114194   4.102   3.710   0.606
 1445SOL    HW214195   3.987   3.821   0.575
 1446SOL     OW14196   4.025   8.774   0.612
 1446SOL    HW114197   4.114   8.728   0.623
 1446SOL    HW214198   3.968   8.756   0.692
 1447SOL     OW14199   3.646   8.105   2.263
 1447SOL    HW114200   3.653   8.136   2.168
 1447SOL    HW214201   3.600   8.016   2.266
 1448SOL     OW14202   3.509   3.913   0.665
 1448SOL    HW114203   3.504   3.901   0.764
 1448SOL    HW214204   3.424   3.955   0.632
 1449SOL     OW14205   1.883   9.132   1.799
 1449SOL    HW114206   1.908   9.164   1.890
 1449SOL    HW214207   1.784   9.119   1.793
 1450SOL     OW14208   2.825   1.064   0.514
 1450SOL    HW114209   2.844   1.058   0.417
 1450SOL    HW214210   2.766   1.144   0.532
 1451SOL     OW14211   4.232   0.375   2.394
 1451SOL    HW114212   4.305   0.320   2.353
 1451SOL    HW214213   4.229   0.464   2.349
 1452SOL     OW14214   3.473   1.034   0.701
 1452SOL    HW114215   3.544   0.964   0.704
 1452SOL    HW214216   3.514   1.123   0.679
 1453SOL     OW14217   0.373   4.027   0.807
 1453SOL    HW114218   0.457   3.994   0.763
 1453SOL    HW214219   0.381   4.013   0.906
 1454SOL     OW14220   2.485   2.366   1.706
 1454SOL    HW114221   2.424   2.290   1.685
 1454SOL    HW214222   2.541   2.343   1.786
 1455SOL     OW14223   2.064   5.503   0.953
 1455SOL    HW114224   2.088   5.414   0.991
 1455SOL    HW214225   1.977   5.496   0.904
 1456SOL     OW14226   2.583   6.054   0.643
 1456SOL    HW114227   2.555   5.995   0.719
 1456SOL    HW214228   2.572   6.149   0.669
 1457SOL     OW14229   2.081   4.360   1.850
 1457SOL    HW114230   2.015   4.435   1.846
 1457SOL    HW214231   2.173   4.397   1.846
 1458SOL     OW14232   3.269   8.055   1.785
 1458SOL    HW114233   3.225   8.016   1.866
 1458SOL    HW214234   3.233   8.147   1.768
 1459SOL     OW14235   2.981   0.775   1.041
 1459SOL    HW114236   3.079   0.794   1.043
 1459SOL    HW214237   2.958   0.723   0.959
 1460SOL     OW14238   0.726   3.588   0.397
 1460SOL    HW114239   0.721   3.494   0.430
 1460SOL    HW214240   0.751   3.589   0.301
 1461SOL     OW14241   3.315   0.641   2.013
 1461SOL    HW114242   3.371   0.679   2.086
 1461SOL    HW214243   3.341   0.682   1.926
 1462SOL     OW14244   3.985   8.955   1.696
 1462SOL    HW114245   3.962   9.050   1.719
 1462SOL    HW214246   4.024   8.952   1.604
 1463SOL     OW14247   3.833   2.144   1.956
 1463SOL    HW114248   3.904   2.121   1.889
 1463SOL    HW214249   3.774   2.065   1.971
 1464SOL     OW14250   2.388   9.538   1.732
 1464SOL    HW114251   2.291   9.555   1.752
 1464SOL    HW214252   2.395   9.473   1.657
 1465SOL     OW14253   3.946   2.221   2.198
 1465SOL    HW114254   3.907   2.204   2.108
 1465SOL    HW214255   4.024   2.160   2.213
 1466SOL     OW14256   2.694   0.152   1.618
 1466SOL    HW114257   2.659   0.079   1.560
 1466SOL    HW214258   2.762   0.115   1.681
 1467SOL     OW14259   9.840   5.442   1.925
 1467SOL    HW114260   9.903   5.411   1.853
 1467SOL    HW214261   9.828   5.541   1.917
 1468SOL     OW14262   2.417   2.844   1.105
 1468SOL    HW114263   2.344   2.810   1.045
 1468SOL    HW214264   2.498   2.786   1.094
 1469SOL     OW14265   2.660   3.990   0.484
 1469SOL    HW114266   2.746   3.942   0.467
 1469SOL    HW214267   2.584   3.936   0.448
 1470SOL     OW14268   1.350   3.530   1.641
 1470SOL    HW114269   1.323   3.456   1.703
 1470SOL    HW214270   1.267   3.576   1.608
 1471SOL     OW14271   2.999   0.440   2.272
 1471SOL    HW114272   3.008   0.538   2.288
 1471SOL    HW214273   2.907   0.411   2.299
 1472SOL     OW14274   2.671   4.554   1.261
 1472SOL    HW114275   2.685   4.459   1.291
 1472SOL    HW214276   2.573   4.569   1.244
 1473SOL     OW14277   2.503   2.210   0.455
 1473SOL    HW114278   2.430   2.271   0.486
 1473SOL    HW214279   2.466   2.145   0.389
 1474SOL     OW14280   2.514   3.860   2.147
 1474SOL    HW114281   2.539   3.844   2.052
 1474SOL    HW214282   2.558   3.944   2.179
 1475SOL     OW14283   4.792   2.446   2.343
 1475SOL    HW114284   4.763   2.374   2.406
 1475SOL    HW214285   4.885   2.427   2.312
 1476SOL     OW14286   3.086   0.021   1.477
 1476SOL    HW114287   3.083   0.095   1.544
 1476SOL    HW214288   3.001   9.969   1.481
 1477SOL     OW14289   1.786   5.476   1.667
 1477SOL    HW114290   1.689   5.452   1.664
 1477SOL    HW214291   1.798   5.562   1.718
 1478SOL     OW14292   3.884   3.685   1.563
 1478SOL    HW114293   3.862   3.643   1.475
 1478SOL    HW214294   3.800   3.719   1.605
 1479SOL     OW14295   4.494   1.400   1.551
 1479SOL    HW114296   4.549   1.358   1.624
 1479SOL    HW214297   4.455   1.486   1.584
 1480SOL     OW14298   3.988   8.966   1.114
 1480SOL    HW114299   3.926   9.044   1.105
 1480SOL    HW214300   4.066   8.992   1.172
 1481SOL     OW14301   1.813   4.523   1.017
 1481SOL    HW114302   1.848   4.575   1.095
 1481SOL    HW214303   1.774   4.586   0.949
 1482SOL     OW14304   2.300   6.864   0.973
 1482SOL    HW114305   2.274   6.899   0.883
 1482SOL    HW214306   2.376   6.800   0.964
 1483SOL     OW14307   1.530   5.392   1.701
 1483SOL    HW114308   1.450   5.398   1.761
 1483SOL    HW214309   1.504   5.346   1.616
 1484SOL     OW14310   3.169   2.118   0.372
 1484SOL    HW114311   3.202   2.031   0.409
 1484SOL    HW214312   3.180   2.190   0.441
 1485SOL     OW14313   3.081   3.920   0.761
 1485SOL    HW114314   2.989   3.956   0.775
 1485SOL    HW214315   3.143   3.960   0.828
 1486SOL     OW14316   1.772   2.490   2.065
 1486SOL    HW114317   1.779   2.487   1.965
 1486SOL    HW214318   1.694   2.548   2.091
 1487SOL     OW14319   3.233   0.124   0.419
 1487SOL    HW114320   3.228   0.170   0.330
 1487SOL    HW214321   3.171   0.046   0.419
 1488SOL     OW14322   1.944   7.098   0.412
 1488SOL    HW114323   1.848   7.087   0.388
 1488SOL    HW214324   1.951   7.134   0.505
 1489SOL     OW14325   0.417   4.056   1.089
 1489SOL    HW114326   0.462   4.143   1.070
 1489SOL    HW214327   0.329   4.073   1.134
 1490SOL     OW14328   3.192   2.539   0.418
 1490SOL    HW114329   3.150   2.629   0.430
 1490SOL    HW214330   3.259   2.544   0.345
 1491SOL     OW14331   1.135   3.688   1.563
 1491SOL    HW114332   1.114   3.764   1.502
 1491SOL    HW214333   1.049   3.648   1.596
 1492SOL     OW14334   3.296   1.347   0.488
 1492SOL    HW114335   3.216   1.297   0.521
 1492SOL    HW214336   3.343   1.293   0.418
 1493SOL     OW14337   3.589   3.555   1.818
 1493SOL    HW114338   3.641   3.484   1.865
 1493SOL    HW214339   3.504   3.574   1.869
 1494SOL     OW14340   4.509   4.538   1.925
 1494SOL    HW114341   4.521   4.636   1.909
 1494SOL    HW214342   4.487   4.493   1.839
 1495SOL     OW14343   1.320   4.745   0.699
 1495SOL    HW114344   1.245   4.794   0.653
 1495SOL    HW214345   1.333   4.656   0.655
 1496SOL     OW14346   2.643   4.282   1.593
 1496SOL    HW114347   2.593   4.271   1.679
 1496SOL    HW214348   2.739   4.303   1.612
 1497SOL     OW14349   2.911   8.314   0.783
 1497SOL    HW114350   2.969   8.374   0.728
 1497SOL    HW214351   2.967   8.239   0.820
 1498SOL     OW14352   3.415   2.356   1.363
 1498SOL    HW114353   3.387   2.368   1.459
 1498SOL    HW214354   3.350   2.296   1.317
 1499SOL     OW14355   2.923   8.267   2.003
 1499SOL    HW114356   2.876   8.344   2.045
 1499SOL    HW214357   2.976   8.218   2.072
 1500SOL     OW14358   0.876   4.566   1.122
 1500SOL    HW114359   0.923   4.624   1.189
 1500SOL    HW214360   0.920   4.576   1.032
 1501SOL     OW14361   3.016   6.152   2.224
 1501SOL    HW114362   3.051   6.161   2.317
 1501SOL    HW214363   2.923   6.115   2.227
 1502SOL     OW14364   1.621   4.121   1.688
 1502SOL    HW114365   1.715   4.114   1.653
 1502SOL    HW214366   1.564   4.169   1.622
 1503SOL     OW14367   9.644   4.719   1.026
 1503SOL    HW114368   9.671   4.742   0.932
 1503SOL    HW214369   9.722   4.683   1.076
 1504SOL     OW14370   4.899   4.723   0.870
 1504SOL    HW114371   4.902   4.754   0.775
 1504SOL    HW214372   4.904   4.802   0.932
 1505SOL     OW14373   3.560   0.232   2.014
 1505SOL    HW114374   3.538   0.169   1.939
 1505SOL    HW214375   3.629   0.191   2.073
 1506SOL     OW14376   1.803   3.081   2.068
 1506SOL    HW114377   1.758   3.170   2.082
 1506SOL    HW214378   1.892   3.096   2.025
 1507SOL     OW14379   1.702   4.538   1.397
 1507SOL    HW114380   1.671   4.460   1.341
 1507SOL    HW214381   1.777   4.584   1.349
 1508SOL     OW14382   4.031   1.135   1.491
 1508SOL    HW114383   4.046   1.077   1.411
 1508SOL    HW214384   4.118   1.169   1.525
 1509SOL     OW14385   3.673   2.314   2.218
 1509SOL    HW114386   3.762   2.270   2.223
 1509SOL    HW214387   3.684   2.413   2.218
 1510SOL     OW14388   2.739   3.103   1.958
 1510SOL    HW114389   2.729   3.200   1.938
 1510SOL    HW214390   2.753   3.052   1.873
 1511SOL     OW14391   2.765   1.415   1.655
 1511SOL    HW114392   2.824   1.387   1.731
 1511SOL    HW214393   2.769   1.515   1.644
 1512SOL     OW14394   0.951   5.933   1.923
 1512SOL    HW114395   0.942   5.970   2.016
 1512SOL    HW214396   1.032   5.973   1.879
 1513SOL     OW14397   2.123   6.660   1.032
 1513SOL    HW114398   2.188   6.735   1.021
 1513SOL    HW214399   2.158   6.579   0.985
 1514SOL     OW14400   4.132   2.087   0.606
 1514SOL    HW114401   4.033   2.072   0.604
 1514SOL    HW214402   4.155   2.144   0.684
 1515SOL     OW14403   0.762   5.635   1.211
 1515SOL    HW114404   0.684   5.660   1.155
 1515SOL    HW214405   0.735   5.631   1.307
 1516SOL     OW14406   3.232   2.190   1.253
 1516SOL    HW114407   3.202   2.095   1.247
 1516SOL    HW214408   3.220   2.235   1.164
 1517SOL     OW14409   2.249   5.101   0.448
 1517SOL    HW114410   2.348   5.098   0.435
 1517SOL    HW214411   2.215   5.194   0.428
 1518SOL     OW14412   3.679   1.428   2.219
 1518SOL    HW114413   3.599   1.447   2.276
 1518SOL    HW214414   3.679   1.489   2.140
 1519SOL     OW14415   4.447   3.537   1.001
 1519SOL    HW114416   4.374   3.562   0.938
 1519SOL    HW214417   4.410   3.524   1.093
 1520SOL     OW14418   0.891   3.304   1.658
 1520SOL    HW114419   0.841   3.223   1.628
 1520SOL    HW214420   0.959   3.278   1.726
 1521SOL     OW14421   1.884   5.748   0.463
 1521SOL    HW114422   1.888   5.831   0.519
 1521SOL    HW214423   1.919   5.768   0.372
 1522SOL     OW14424   4.652   4.623   0.956
 1522SOL    HW114425   4.598   4.603   0.874
 1522SOL    HW214426   4.741   4.660   0.930
 1523SOL     OW14427   2.887   8.251   1.568
 1523SOL    HW114428   2.912   8.319   1.637
 1523SOL    HW214429   2.970   8.218   1.523
 1524SOL     OW14430   3.832   5.247   1.172
 1524SOL    HW114431   3.904   5.199   1.122
 1524SOL    HW214432   3.768   5.288   1.108
 1525SOL     OW14433   2.425   7.584   1.635
 1525SOL    HW114434   2.421   7.662   1.698
 1525SOL    HW214435   2.443   7.617   1.543
 1526SOL     OW14436   1.165   3.361   1.167
 1526SOL    HW114437   1.134   3.409   1.085
 1526SOL    HW214438   1.087   3.332   1.221
 1527SOL     OW14439   3.850   3.371   0.949
 1527SOL    HW114440   3.886   3.318   1.026
 1527SOL    HW214441   3.762   3.334   0.921
 1528SOL     OW14442   3.728   9.032   1.932
 1528SOL    HW114443   3.671   9.089   1.991
 1528SOL    HW214444   3.779   9.089   1.869
 1529SOL     OW14445   2.674   3.666   0.880
 1529SOL    HW114446   2.616   3.611   0.940
 1529SOL    HW214447   2.762   3.682   0.925
 1530SOL     OW14448   2.510   8.872   1.816
 1530SOL    HW114449   2.445   8.903   1.885
 1530SOL    HW214450   2.599   8.915   1.832
 1531SOL     OW14451   3.088   0.228   1.659
 1531SOL    HW114452   3.163   0.241   1.724
 1531SOL    HW214453   3.071   0.314   1.611
 1532SOL     OW14454   4.275   3.249   0.487
 1532SOL    HW114455   4.248   3.282   0.397
 1532SOL    HW214456   4.336   3.316   0.530
 1533SOL     OW14457   2.629   3.412   1.621
 1533SOL    HW114458   2.534   3.383   1.625
 1533SOL    HW214459   2.672   3.375   1.539
 1534SOL     OW14460   4.949   2.309   1.267
 1534SOL    HW114461   5.023   2.375   1.281
 1534SOL    HW214462   4.945   2.247   1.345
 1535SOL     OW14463   2.403   2.629   1.686
 1535SOL    HW114464   2.428   2.534   1.704
 1535SOL    HW214465   2.480   2.689   1.708
 1536SOL     OW14466   3.586   1.859   1.753
 1536SOL    HW114467   3.631   1.876   1.841
 1536SOL    HW214468   3.491   1.889   1.758
 1537SOL     OW14469   3.251   2.851   1.926
 1537SOL    HW114470   3.321   2.817   1.863
 1537SOL    HW214471   3.194   2.775   1.957
 1538SOL     OW14472   5.537   2.756   1.051
 1538SOL    HW114473   5.507   2.682   0.990
 1538SOL    HW214474   5.538   2.842   1.000
 1539SOL     OW14475   5.365   3.308   2.005
 1539SOL    HW114476   5.303   3.301   2.084
 1539SOL    HW214477   5.444   3.365   2.030
 1540SOL     OW14478   2.542   1.258   1.692
 1540SOL    HW114479   2.629   1.304   1.677
 1540SOL    HW214480   2.543   1.169   1.646
 1541SOL     OW14481   9.840   5.501   1.543
 1541SOL    HW114482   9.818   5.443   1.465
 1541SOL    HW214483   9.888   5.448   1.612
 1542SOL     OW14484   3.041   0.541   0.443
 1542SOL    HW114485   3.110   0.608   0.469
 1542SOL    HW214486   3.062   0.453   0.487
 1543SOL     OW14487   2.979   5.223   2.096
 1543SOL    HW114488   2.974   5.306   2.039
 1543SOL    HW214489   2.926   5.150   2.053
 1544SOL     OW14490   2.451   7.792   1.817
 1544SOL    HW114491   2.540   7.771   1.858
 1544SOL    HW214492   2.450   7.886   1.785
 1545SOL     OW14493   3.816   3.324   1.724
 1545SOL    HW114494   3.865   3.392   1.778
 1545SOL    HW214495   3.839   3.335   1.627
 1546SOL     OW14496   2.942   2.444   1.407
 1546SOL    HW114497   2.978   2.512   1.344
 1546SOL    HW214498   2.943   2.481   1.500
 1547SOL     OW14499   3.720   2.663   0.786
 1547SOL    HW114500   3.641   2.679   0.845
 1547SOL    HW214501   3.752   2.569   0.799
 1548SOL     OW14502   2.049   4.887   1.435
 1548SOL    HW114503   2.096   4.806   1.400
 1548SOL    HW214504   1.962   4.897   1.387
 1549SOL     OW14505   2.535   5.074   0.460
 1549SOL    HW114506   2.519   5.024   0.546
 1549SOL    HW214507   2.587   5.016   0.397
 1550SOL     OW14508   2.645   1.727   2.221
 1550SOL    HW114509   2.686   1.772   2.300
 1550SOL    HW214510   2.657   1.628   2.228
 1551SOL     OW14511   2.682   4.289   1.323
 1551SOL    HW114512   2.604   4.260   1.268
 1551SOL    HW214513   2.661   4.278   1.420
 1552SOL     OW14514   3.923   9.083   0.825
 1552SOL    HW114515   3.882   9.109   0.913
 1552SOL    HW214516   3.853   9.043   0.766
 1553SOL     OW14517   0.748   6.185   2.039
 1553SOL    HW114518   0.663   6.146   2.004
 1553SOL    HW214519   0.773   6.265   1.984
 1554SOL     OW14520   2.796   8.908   1.070
 1554SOL    HW114521   2.766   8.953   1.154
 1554SOL    HW214522   2.813   8.811   1.089
 1555SOL     OW14523   3.099   8.161   1.434
 1555SOL    HW114524   3.168   8.093   1.461
 1555SOL    HW214525   3.131   8.210   1.353
 1556SOL     OW14526   4.006   9.408   1.843
 1556SOL    HW114527   4.038   9.386   1.936
 1556SOL    HW214528   3.946   9.335   1.810
 1557SOL     OW14529   3.147   1.121   0.966
 1557SOL    HW114530   3.109   1.120   0.874
 1557SOL    HW214531   3.075   1.101   1.032
 1558SOL     OW14532   2.148   5.870   1.864
 1558SOL    HW114533   2.085   5.924   1.809
 1558SOL    HW214534   2.101   5.788   1.898
 1559SOL     OW14535   3.235   6.383   0.423
 1559SOL    HW114536   3.227   6.283   0.429
 1559SOL    HW214537   3.221   6.411   0.328
 1560SOL     OW14538   2.250   4.019   2.132
 1560SOL    HW114539   2.251   3.975   2.042
 1560SOL    HW214540   2.343   4.019   2.169
 1561SOL     OW14541   1.977   3.744   1.115
 1561SOL    HW114542   2.044   3.765   1.187
 1561SOL    HW214543   1.918   3.669   1.145
 1562SOL     OW14544   0.612   4.705   1.591
 1562SOL    HW114545   0.606   4.785   1.650
 1562SOL    HW214546   0.707   4.690   1.565
 1563SOL     OW14547   2.134   3.036   2.330
 1563SOL    HW114548   2.180   3.004   2.412
 1563SOL    HW214549   2.197   3.092   2.276
 1564SOL     OW14550   0.576   3.805   0.291
 1564SOL    HW114551   0.559   3.886   0.347
 1564SOL    HW214552   0.609   3.731   0.349
 1565SOL     OW14553   2.866   9.866   1.468
 1565SOL    HW114554   2.776   9.908   1.458
 1565SOL    HW214555   2.856   9.767   1.474
 1566SOL     OW14556   3.879   0.983   0.548
 1566SOL    HW114557   3.904   1.059   0.608
 1566SOL    HW214558   3.880   0.897   0.600
 1567SOL     OW14559   5.211   3.409   0.551
 1567SOL    HW114560   5.274   3.480   0.584
 1567SOL    HW214561   5.159   3.372   0.627
 1568SOL     OW14562   3.515   0.180   1.069
 1568SOL    HW114563   3.453   0.108   1.037
 1568SOL    HW214564   3.496   0.265   1.019
 1569SOL     OW14565   2.709   9.840   1.050
 1569SOL    HW114566   2.696   9.816   0.954
 1569SOL    HW214567   2.802   9.874   1.064
 1570SOL     OW14568   4.539   1.950   1.071
 1570SOL    HW114569   4.563   2.031   1.125
 1570SOL    HW214570   4.479   1.891   1.124
 1571SOL     OW14571   4.460   5.415   1.736
 1571SOL    HW114572   4.527   5.490   1.737
 1571SOL    HW214573   4.397   5.426   1.812
 1572SOL     OW14574   2.049   3.003   0.530
 1572SOL    HW114575   1.975   2.965   0.475
 1572SOL    HW214576   2.017   3.086   0.576
 1573SOL     OW14577   3.217   5.413   0.678
 1573SOL    HW114578   3.193   5.463   0.761
 1573SOL    HW214579   3.140   5.416   0.614
 1574SOL     OW14580   3.460   3.446   0.416
 1574SOL    HW114581   3.404   3.365   0.432
 1574SOL    HW214582   3.432   3.518   0.479
 1575SOL     OW14583   3.183   9.824   0.906
 1575SOL    HW114584   3.101   9.843   0.960
 1575SOL    HW214585   3.239   9.756   0.953
 1576SOL     OW14586   1.075   3.920   1.417
 1576SOL    HW114587   0.989   3.954   1.455
 1576SOL    HW214588   1.082   3.947   1.321
 1577SOL     OW14589   3.166   2.254   2.254
 1577SOL    HW114590   3.257   2.274   2.217
 1577SOL    HW214591   3.099   2.317   2.214
 1578SOL     OW14592   2.559   1.974   1.597
 1578SOL    HW114593   2.636   1.971   1.661
 1578SOL    HW214594   2.487   2.032   1.634
 1579SOL     OW14595   3.252   1.839   1.447
 1579SOL    HW114596   3.200   1.885   1.375
 1579SOL    HW214597   3.346   1.875   1.448
 1580SOL     OW14598   9.720   5.089   1.476
 1580SOL    HW114599   9.735   5.003   1.526
 1580SOL    HW214600   9.626   5.093   1.444
 1581SOL     OW14601   1.599   5.694   1.992
 1581SOL    HW114602   1.509   5.714   1.953
 1581SOL    HW214603   1.602   5.728   2.086
 1582SOL     OW14604   3.756   9.576   1.205
 1582SOL    HW114605   3.833   9.598   1.145
 1582SOL    HW214606   3.777   9.608   1.298
 1583SOL     OW14607   2.235   3.773   0.538
 1583SOL    HW114608   2.211   3.695   0.596
 1583SOL    HW214609   2.173   3.849   0.556
 1584SOL     OW14610   3.880   8.664   0.828
 1584SOL    HW114611   3.919   8.575   0.805
 1584SOL    HW214612   3.889   8.681   0.926
 1585SOL     OW14613   0.143   4.863   1.953
 1585SOL    HW114614   0.221   4.823   1.906
 1585SOL    HW214615   0.075   4.892   1.886
 1586SOL     OW14616   4.638   3.107   0.942
 1586SOL    HW114617   4.565   3.040   0.955
 1586SOL    HW214618   4.720   3.061   0.909
 1587SOL     OW14619   2.410   8.825   0.431
 1587SOL    HW114620   2.346   8.766   0.381
 1587SOL    HW214621   2.469   8.768   0.489
 1588SOL     OW14622   0.864   4.624   1.513
 1588SOL    HW114623   0.841   4.532   1.481
 1588SOL    HW214624   0.924   4.667   1.446
 1589SOL     OW14625   3.100   8.331   1.203
 1589SOL    HW114626   3.150   8.369   1.125
 1589SOL    HW214627   3.016   8.289   1.171
 1590SOL     OW14628   3.481   1.395   0.920
 1590SOL    HW114629   3.393   1.385   0.966
 1590SOL    HW214630   3.552   1.351   0.974
 1591SOL     OW14631   2.454   8.116   0.497
 1591SOL    HW114632   2.391   8.102   0.421
 1591SOL    HW214633   2.437   8.047   0.567
 1592SOL     OW14634   2.291   7.345   1.935
 1592SOL    HW114635   2.286   7.344   1.835
 1592SOL    HW214636   2.305   7.252   1.969
 1593SOL     OW14637   1.446   5.897   1.450
 1593SOL    HW114638   1.358   5.907   1.403
 1593SOL    HW214639   1.467   5.800   1.461
 1594SOL     OW14640   2.559   1.012   1.559
 1594SOL    HW114641   2.571   0.922   1.600
 1594SOL    HW214642   2.506   1.004   1.474
 1595SOL     OW14643   2.273   6.013   0.449
 1595SOL    HW114644   2.284   5.966   0.537
 1595SOL    HW214645   2.279   5.945   0.375
 1596SOL     OW14646   9.319   4.105   1.616
 1596SOL    HW114647   9.275   4.125   1.529
 1596SOL    HW214648   9.251   4.107   1.689
 1597SOL     OW14649   0.106   5.931   0.660
 1597SOL    HW114650   0.169   5.863   0.697
 1597SOL    HW214651   0.150   6.021   0.660
 1598SOL     OW14652   1.434   6.597   0.844
 1598SOL    HW114653   1.511   6.604   0.780
 1598SOL    HW214654   1.451   6.655   0.924
 1599SOL     OW14655   1.911   2.649   0.592
 1599SOL    HW114656   1.846   2.635   0.666
 1599SOL    HW214657   1.950   2.561   0.565
 1600SOL     OW14658   3.125   9.721   2.298
 1600SOL    HW114659   3.075   9.804   2.274
 1600SOL    HW214660   3.127   9.711   2.397
 1601SOL     OW14661   2.262   2.058   1.908
 1601SOL    HW114662   2.217   1.988   1.963
 1601SOL    HW214663   2.361   2.047   1.914
 1602SOL     OW14664   3.929   2.452   1.092
 1602SOL    HW114665   3.990   2.373   1.079
 1602SOL    HW214666   3.875   2.439   1.175
 1603SOL     OW14667   1.412   5.945   1.138
 1603SOL    HW114668   1.463   5.863   1.114
 1603SOL    HW214669   1.334   5.920   1.196
 1604SOL     OW14670   2.711   2.781   2.260
 1604SOL    HW114671   2.780   2.847   2.229
 1604SOL    HW214672   2.653   2.825   2.329
 1605SOL     OW14673   3.494   3.878   0.934
 1605SOL    HW114674   3.461   3.784   0.944
 1605SOL    HW214675   3.589   3.884   0.967
 1606SOL     OW14676   2.207   6.427   0.900
 1606SOL    HW114677   2.275   6.412   0.829
 1606SOL    HW214678   2.210   6.351   0.966
 1607SOL     OW14679   3.409   8.407   0.356
 1607SOL    HW114680   3.334   8.469   0.332
 1607SOL    HW214681   3.474   8.402   0.279
 1608SOL     OW14682   4.116   2.670   0.779
 1608SOL    HW114683   4.039   2.660   0.716
 1608SOL    HW214684   4.175   2.589   0.771
 1609SOL     OW14685   9.954   5.096   2.113
 1609SOL    HW114686   0.024   5.057   2.173
 1609SOL    HW214687   9.918   5.180   2.154
 1610SOL     OW14688   2.896   4.299   0.875
 1610SOL    HW114689   2.894   4.368   0.947
 1610SOL    HW214690   2.904   4.343   0.786
 1611SOL     OW14691   2.192   3.357   1.995
 1611SOL    HW114692   2.165   3.438   2.048
 1611SOL    HW214693   2.255   3.384   1.923
 1612SOL     OW14694   4.173   0.683   0.806
 1612SOL    HW114695   4.086   0.634   0.817
 1612SOL    HW214696   4.215   0.657   0.719
 1613SOL     OW14697   3.466   2.172   1.712
 1613SOL    HW114698   3.405   2.239   1.670
 1613SOL    HW214699   3.540   2.220   1.760
 1614SOL     OW14700   2.731   7.441   1.538
 1614SOL    HW114701   2.709   7.456   1.634
 1614SOL    HW214702   2.674   7.366   1.503
 1615SOL     OW14703   3.457   1.496   1.688
 1615SOL    HW114704   3.392   1.572   1.690
 1615SOL    HW214705   3.429   1.430   1.618
 1616SOL     OW14706   4.366   3.534   1.631
 1616SOL    HW114707   4.329   3.574   1.715
 1616SOL    HW214708   4.449   3.483   1.652
 1617SOL     OW14709   3.989   1.509   1.978
 1617SOL    HW114710   3.921   1.436   1.984
 1617SOL    HW214711   4.023   1.530   2.069
 1618SOL     OW14712   3.116   7.828   1.223
 1618SOL    HW114713   3.022   7.847   1.250
 1618SOL    HW214714   3.121   7.825   1.123
 1619SOL     OW14715   3.189   7.368   0.820
 1619SOL    HW114716   3.187   7.439   0.891
 1619SOL    HW214717   3.190   7.278   0.864
 1620SOL     OW14718   1.711   4.732   0.859
 1620SOL    HW114719   1.804   4.770   0.861
 1620SOL    HW214720   1.658   4.777   0.787
 1621SOL     OW14721   2.383   1.577   0.386
 1621SOL    HW114722   2.365   1.539   0.296
 1621SOL    HW214723   2.442   1.657   0.378
 1622SOL     OW14724   3.198   8.974   1.681
 1622SOL    HW114725   3.178   8.894   1.624
 1622SOL    HW214726   3.166   8.957   1.774
 1623SOL     OW14727   3.952   1.847   2.107
 1623SOL    HW114728   4.032   1.906   2.119
 1623SOL    HW214729   3.905   1.837   2.195
 1624SOL     OW14730   2.320   7.100   2.066
 1624SOL    HW114731   2.415   7.067   2.066
 1624SOL    HW214732   2.258   7.023   2.077
 1625SOL     OW14733   1.551   6.198   2.098
 1625SOL    HW114734   1.590   6.266   2.036
 1625SOL    HW214735   1.452   6.193   2.082
 1626SOL     OW14736   2.392   2.271   0.954
 1626SOL    HW114737   2.348   2.347   1.001
 1626SOL    HW214738   2.440   2.214   1.021
 1627SOL     OW14739   1.089   4.865   1.936
 1627SOL    HW114740   1.010   4.839   1.880
 1627SOL    HW214741   1.084   4.818   2.024
 1628SOL     OW14742   2.819   8.740   1.970
 1628SOL    HW114743   2.895   8.707   1.913
 1628SOL    HW214744   2.786   8.827   1.934
 1629SOL     OW14745   4.786   2.696   1.998
 1629SOL    HW114746   4.715   2.765   1.980
 1629SOL    HW214747   4.848   2.691   1.919
 1630SOL     OW14748   2.570   4.040   0.742
 1630SOL    HW114749   2.592   4.031   0.646
 1630SOL    HW214750   2.524   3.957   0.774
 1631SOL     OW14751   2.159   2.500   0.763
 1631SOL    HW114752   2.206   2.560   0.829
 1631SOL    HW214753   2.226   2.464   0.698
 1632SOL     OW14754   4.084   5.040   0.516
 1632SOL    HW114755   4.040   5.059   0.429
 1632SOL    HW214756   4.170   5.091   0.523
 1633SOL     OW14757   1.495   6.184   0.600
 1633SOL    HW114758   1.545   6.240   0.666
 1633SOL    HW214759   1.409   6.228   0.577
 1634SOL     OW14760   2.651   5.009   1.368
 1634SOL    HW114761   2.670   5.107   1.360
 1634SOL    HW214762   2.612   4.975   1.282
 1635SOL     OW14763   1.964   3.630   1.958
 1635SOL    HW114764   2.033   3.616   2.029
 1635SOL    HW214765   1.874   3.638   1.999
 1636SOL     OW14766   0.955   4.355   0.521
 1636SOL    HW114767   1.036   4.297   0.512
 1636SOL    HW214768   0.874   4.303   0.492
 1637SOL     OW14769   9.707   5.726   1.630
 1637SOL    HW114770   9.746   5.641   1.593
 1637SOL    HW214771   9.607   5.719   1.629
 1638SOL     OW14772   2.587   9.611   1.906
 1638SOL    HW114773   2.670   9.611   1.851
 1638SOL    HW214774   2.508   9.593   1.848
 1639SOL     OW14775   3.024   8.668   1.804
 1639SOL    HW114776   3.092   8.734   1.835
 1639SOL    HW214777   3.015   8.675   1.704
 1640SOL     OW14778   3.346   0.992   1.643
 1640SOL    HW114779   3.423   1.050   1.670
 1640SOL    HW214780   3.271   1.049   1.611
 1641SOL     OW14781   9.538   4.534   1.670
 1641SOL    HW114782   9.501   4.624   1.649
 1641SOL    HW214783   9.595   4.540   1.752
 1642SOL     OW14784   2.560   5.493   1.548
 1642SOL    HW114785   2.601   5.535   1.467
 1642SOL    HW214786   2.463   5.518   1.554
 1643SOL     OW14787   3.959   1.195   0.705
 1643SOL    HW114788   4.058   1.207   0.690
 1643SOL    HW214789   3.937   1.217   0.800
 1644SOL     OW14790   3.794   0.018   0.869
 1644SOL    HW114791   3.767   0.007   0.964
 1644SOL    HW214792   3.715   0.046   0.815
 1645SOL     OW14793   2.616   3.792   1.895
 1645SOL    HW114794   2.709   3.797   1.930
 1645SOL    HW214795   2.607   3.712   1.835
 1646SOL     OW14796   2.787   8.663   0.460
 1646SOL    HW114797   2.819   8.569   0.450
 1646SOL    HW214798   2.696   8.663   0.502
 1647SOL     OW14799   3.630   0.297   0.443
 1647SOL    HW114800   3.578   0.212   0.445
 1647SOL    HW214801   3.625   0.341   0.533
 1648SOL     OW14802   3.437   5.643   0.718
 1648SOL    HW114803   3.373   5.616   0.791
 1648SOL    HW214804   3.420   5.587   0.637
 1649SOL     OW14805   3.294   2.352   1.608
 1649SOL    HW114806   3.277   2.433   1.665
 1649SOL    HW214807   3.207   2.312   1.581
 1650SOL     OW14808   3.769   2.595   2.198
 1650SOL    HW114809   3.853   2.556   2.236
 1650SOL    HW214810   3.769   2.694   2.210
 1651SOL     OW14811   3.243   8.911   0.764
 1651SOL    HW114812   3.342   8.895   0.766
 1651SOL    HW214813   3.209   8.923   0.857
 1652SOL     OW14814   4.067   2.216   1.076
 1652SOL    HW114815   4.140   2.232   1.142
 1652SOL    HW214816   4.007   2.143   1.109
 1653SOL     OW14817   2.560   4.951   1.113
 1653SOL    HW114818   2.539   5.047   1.095
 1653SOL    HW214819   2.479   4.895   1.094
 1654SOL     OW14820   1.496   3.562   0.914
 1654SOL    HW114821   1.441   3.567   0.997
 1654SOL    HW214822   1.587   3.528   0.937
 1655SOL     OW14823   1.481   6.953   1.981
 1655SOL    HW114824   1.516   6.925   1.892
 1655SOL    HW214825   1.545   7.017   2.024
 1656SOL     OW14826   0.494   4.225   1.580
 1656SOL    HW114827   0.584   4.199   1.615
 1656SOL    HW214828   0.468   4.313   1.619
 1657SOL     OW14829   2.914   1.843   0.706
 1657SOL    HW114830   2.933   1.918   0.769
 1657SOL    HW214831   2.901   1.880   0.614
 1658SOL     OW14832   1.362   4.884   0.358
 1658SOL    HW114833   1.366   4.972   0.312
 1658SOL    HW214834   1.454   4.847   0.368
 1659SOL     OW14835   0.605   4.251   1.328
 1659SOL    HW114836   0.622   4.159   1.295
 1659SOL    HW214837   0.549   4.247   1.411
 1660SOL     OW14838   9.843   5.331   2.181
 1660SOL    HW114839   9.846   5.380   2.094
 1660SOL    HW214840   9.754   5.344   2.224
 1661SOL     OW14841   1.013   5.007   1.608
 1661SOL    HW114842   0.997   5.105   1.614
 1661SOL    HW214843   1.109   4.987   1.631
 1662SOL     OW14844   3.843   0.612   1.388
 1662SOL    HW114845   3.795   0.585   1.305
 1662SOL    HW214846   3.806   0.698   1.421
 1663SOL     OW14847   1.824   5.787   1.152
 1663SOL    HW114848   1.830   5.697   1.196
 1663SOL    HW214849   1.872   5.783   1.064
 1664SOL     OW14850   1.760   6.755   1.852
 1664SOL    HW114851   1.825   6.683   1.831
 1664SOL    HW214852   1.696   6.724   1.922
 1665SOL     OW14853   4.373   4.108   0.884
 1665SOL    HW114854   4.309   4.031   0.884
 1665SOL    HW214855   4.440   4.095   0.957
 1666SOL     OW14856   9.725   4.743   2.094
 1666SOL    HW114857   9.665   4.756   2.173
 1666SOL    HW214858   9.732   4.829   2.043
 1667SOL     OW14859   2.894   2.953   2.135
 1667SOL    HW114860   2.904   2.877   2.069
 1667SOL    HW214861   2.846   3.029   2.091
 1668SOL     OW14862   2.505   5.566   1.965
 1668SOL    HW114863   2.448   5.513   2.028
 1668SOL    HW214864   2.446   5.617   1.902
 1669SOL     OW14865   1.118   5.540   1.063
 1669SOL    HW114866   1.115   5.563   0.966
 1669SOL    HW214867   1.041   5.480   1.085
 1670SOL     OW14868   4.607   4.597   1.552
 1670SOL    HW114869   4.541   4.542   1.603
 1670SOL    HW214870   4.558   4.672   1.506
 1671SOL     OW14871   2.836   4.039   0.827
 1671SOL    HW114872   2.863   4.134   0.846
 1671SOL    HW214873   2.742   4.037   0.794
 1672SOL     OW14874   2.160   6.625   1.363
 1672SOL    HW114875   2.254   6.641   1.393
 1672SOL    HW214876   2.151   6.649   1.266
 1673SOL     OW14877   2.954   3.441   1.329
 1673SOL    HW114878   3.035   3.382   1.335
 1673SOL    HW214879   2.976   3.531   1.366
 1674SOL     OW14880   1.269   4.432   0.857
 1674SOL    HW114881   1.346   4.486   0.889
 1674SOL    HW214882   1.273   4.341   0.897
 1675SOL     OW14883   3.901   0.646   0.375
 1675SOL    HW114884   3.805   0.623   0.357
 1675SOL    HW214885   3.922   0.734   0.334
 1676SOL     OW14886   4.764   4.338   1.791
 1676SOL    HW114887   4.827   4.385   1.854
 1676SOL    HW214888   4.784   4.365   1.697
 1677SOL     OW14889   2.289   5.015   0.861
 1677SOL    HW114890   2.243   5.090   0.909
 1677SOL    HW214891   2.302   4.939   0.924
 1678SOL     OW14892   2.951   1.452   0.498
 1678SOL    HW114893   3.018   1.517   0.463
 1678SOL    HW214894   2.862   1.497   0.506
 1679SOL     OW14895   3.265   1.702   1.691
 1679SOL    HW114896   3.287   1.782   1.747
 1679SOL    HW214897   3.248   1.731   1.596
 1680SOL     OW14898   2.701   1.540   1.205
 1680SOL    HW114899   2.631   1.594   1.159
 1680SOL    HW214900   2.662   1.495   1.285
 1681SOL     OW14901   2.148   6.877   2.093
 1681SOL    HW114902   2.073   6.824   2.131
 1681SOL    HW214903   2.147   6.870   1.993
 1682SOL     OW14904   2.717   3.318   1.380
 1682SOL    HW114905   2.801   3.369   1.361
 1682SOL    HW214906   2.736   3.220   1.369
 1683SOL     OW14907   1.162   3.351   0.763
 1683SOL    HW114908   1.257   3.369   0.738
 1683SOL    HW214909   1.134   3.414   0.836
 1684SOL     OW14910   1.227   4.824   1.699
 1684SOL    HW114911   1.171   4.844   1.779
 1684SOL    HW214912   1.266   4.732   1.707
 1685SOL     OW14913   4.435   4.036   2.060
 1685SOL    HW114914   4.479   4.039   2.150
 1685SOL    HW214915   4.496   4.076   1.992
 1686SOL     OW14916   1.224   6.426   0.821
 1686SOL    HW114917   1.143   6.483   0.838
 1686SOL    HW214918   1.306   6.483   0.828
 1687SOL     OW14919   4.586   4.966   1.137
 1687SOL    HW114920   4.541   4.878   1.147
 1687SOL    HW214921   4.681   4.952   1.108
 1688SOL     OW14922   4.738   4.360   0.922
 1688SOL    HW114923   4.823   4.340   0.971
 1688SOL    HW214924   4.701   4.447   0.953
 1689SOL     OW14925   3.397   3.663   0.576
 1689SOL    HW114926   3.462   3.733   0.606
 1689SOL    HW214927   3.325   3.653   0.644
 1690SOL     OW14928   4.556   0.405   1.392
 1690SOL    HW114929   4.642   0.424   1.344
 1690SOL    HW214930   4.513   0.491   1.418
 1691SOL     OW14931   0.565   4.917   0.578
 1691SOL    HW114932   0.650   4.865   0.576
 1691SOL    HW214933   0.586   5.015   0.571
 1692SOL     OW14934   3.401   1.312   1.493
 1692SOL    HW114935   3.322   1.251   1.498
 1692SOL    HW214936   3.394   1.369   1.411
 1693SOL     OW14937   4.008   0.225   2.129
 1693SOL    HW114938   4.084   0.176   2.171
 1693SOL    HW214939   4.031   0.246   2.034
 1694SOL     OW14940   2.688   8.422   1.038
 1694SOL    HW114941   2.659   8.394   0.946
 1694SOL    HW214942   2.612   8.466   1.085
 1695SOL     OW14943   2.753   2.946   1.733
 1695SOL    HW114944   2.680   2.981   1.675
 1695SOL    HW214945   2.821   2.899   1.676
 1696SOL     OW14946   2.251   2.956   1.992
 1696SOL    HW114947   2.203   2.872   1.969
 1696SOL    HW214948   2.350   2.941   1.985
 1697SOL     OW14949   2.856   3.918   1.071
 1697SOL    HW114950   2.845   3.957   0.979
 1697SOL    HW214951   2.952   3.894   1.085
 1698SOL     OW14952   0.520   3.784   2.279
 1698SOL    HW114953   0.483   3.877   2.273
 1698SOL    HW214954   0.552   3.767   2.372
 1699SOL     OW14955   2.166   3.530   0.684
 1699SOL    HW114956   2.221   3.449   0.705
 1699SOL    HW214957   2.094   3.506   0.619
 1700SOL     OW14958   2.974   9.944   2.246
 1700SOL    HW114959   2.891   9.951   2.190
 1700SOL    HW214960   3.018   0.033   2.252
 1701SOL     OW14961   4.752   1.535   1.091
 1701SOL    HW114962   4.708   1.496   1.172
 1701SOL    HW214963   4.766   1.463   1.023
 1702SOL     OW14964   3.534   9.543   1.826
 1702SOL    HW114965   3.604   9.557   1.897
 1702SOL    HW214966   3.443   9.549   1.867
 1703SOL     OW14967   2.629   9.235   0.424
 1703SOL    HW114968   2.668   9.228   0.333
 1703SOL    HW214969   2.699   9.215   0.493
 1704SOL     OW14970   5.188   3.918   1.054
 1704SOL    HW114971   5.225   3.981   0.985
 1704SOL    HW214972   5.262   3.887   1.113
 1705SOL     OW14973   2.981   0.453   1.506
 1705SOL    HW114974   3.034   0.436   1.424
 1705SOL    HW214975   2.976   0.552   1.523
 1706SOL     OW14976   2.959   8.407   1.775
 1706SOL    HW114977   2.976   8.504   1.792
 1706SOL    HW214978   2.942   8.360   1.862
 1707SOL     OW14979   2.687   9.357   1.563
 1707SOL    HW114980   2.706   9.328   1.657
 1707SOL    HW214981   2.588   9.355   1.547
 1708SOL     OW14982   2.868   6.456   0.484
 1708SOL    HW114983   2.940   6.507   0.435
 1708SOL    HW214984   2.905   6.421   0.570
 1709SOL     OW14985   9.476   5.295   0.721
 1709SOL    HW114986   9.555   5.321   0.666
 1709SOL    HW214987   9.410   5.370   0.723
 1710SOL     OW14988   1.819   7.139   0.930
 1710SOL    HW114989   1.876   7.059   0.949
 1710SOL    HW214990   1.812   7.194   1.013
 1711SOL     OW14991   1.081   4.024   1.166
 1711SOL    HW114992   1.150   4.011   1.095
 1711SOL    HW214993   1.029   4.107   1.148
 1712SOL     OW14994   3.603   2.152   1.331
 1712SOL    HW114995   3.542   2.228   1.351
 1712SOL    HW214996   3.572   2.070   1.381
 1713SOL     OW14997   5.173   2.638   0.574
 1713SOL    HW114998   5.183   2.586   0.659
 1713SOL    HW214999   5.130   2.581   0.505
 1714SOL     OW15000   0.902   6.001   1.397
 1714SOL    HW115001   0.856   5.966   1.316
 1714SOL    HW215002   0.893   5.936   1.472
 1715SOL     OW15003   3.577   9.071   1.213
 1715SOL    HW115004   3.527   9.069   1.126
 1715SOL    HW215005   3.525   9.124   1.280
 1716SOL     OW15006   5.580   3.170   1.667
 1716SOL    HW115007   5.614   3.264   1.672
 1716SOL    HW215008   5.619   3.125   1.586
 1717SOL     OW15009   4.592   4.219   0.747
 1717SOL    HW115010   4.645   4.282   0.805
 1717SOL    HW215011   4.510   4.190   0.796
 1718SOL     OW15012   3.081   6.189   1.967
 1718SOL    HW115013   3.153   6.124   1.939
 1718SOL    HW215014   3.062   6.176   2.064
 1719SOL     OW15015   2.155   4.898   1.690
 1719SOL    HW115016   2.091   4.951   1.746
 1719SOL    HW215017   2.116   4.886   1.598
 1720SOL     OW15018   2.481   6.711   1.200
 1720SOL    HW115019   2.517   6.797   1.162
 1720SOL    HW215020   2.517   6.634   1.148
 1721SOL     OW15021   2.387   4.542   1.246
 1721SOL    HW115022   2.367   4.502   1.156
 1721SOL    HW215023   2.381   4.471   1.316
 1722SOL     OW15024   3.845   8.300   2.295
 1722SOL    HW115025   3.929   8.257   2.261
 1722SOL    HW215026   3.773   8.231   2.302
 1723SOL     OW15027   1.056   5.994   0.862
 1723SOL    HW115028   1.112   6.064   0.906
 1723SOL    HW215029   1.046   5.916   0.924
 1724SOL     OW15030   4.697   2.183   1.443
 1724SOL    HW115031   4.652   2.104   1.485
 1724SOL    HW215032   4.679   2.183   1.345
 1725SOL     OW15033   5.099   1.636   0.774
 1725SOL    HW115034   5.025   1.665   0.835
 1725SOL    HW215035   5.075   1.549   0.731
 1726SOL     OW15036   1.835   2.876   0.878
 1726SOL    HW115037   1.792   2.789   0.856
 1726SOL    HW215038   1.931   2.873   0.851
 1727SOL     OW15039   0.521   6.060   1.944
 1727SOL    HW115040   0.433   6.109   1.948
 1727SOL    HW215041   0.517   5.979   2.003
 1728SOL     OW15042   3.383   8.432   1.918
 1728SOL    HW115043   3.403   8.407   2.013
 1728SOL    HW215044   3.404   8.528   1.904
 1729SOL     OW15045   4.369   1.617   1.658
 1729SOL    HW115046   4.270   1.611   1.641
 1729SOL    HW215047   4.385   1.669   1.742
 1730SOL     OW15048   2.685   8.683   1.333
 1730SOL    HW115049   2.709   8.618   1.404
 1730SOL    HW215050   2.752   8.676   1.258
 1731SOL     OW15051   3.615   2.072   1.066
 1731SOL    HW115052   3.599   2.107   1.159
 1731SOL    HW215053   3.559   1.991   1.051
 1732SOL     OW15054   9.784   4.230   0.608
 1732SOL    HW115055   9.743   4.148   0.570
 1732SOL    HW215056   9.770   4.307   0.545
 1733SOL     OW15057   2.233   9.212   1.940
 1733SOL    HW115058   2.202   9.210   1.845
 1733SOL    HW215059   2.277   9.125   1.963
 1734SOL     OW15060   0.297   5.432   1.282
 1734SOL    HW115061   0.201   5.419   1.258
 1734SOL    HW215062   0.314   5.400   1.375
 1735SOL     OW15063   1.967   6.274   2.189
 1735SOL    HW115064   1.982   6.343   2.118
 1735SOL    HW215065   1.911   6.200   2.152
 1736SOL     OW15066   2.963   3.458   1.810
 1736SOL    HW115067   3.029   3.471   1.885
 1736SOL    HW215068   2.881   3.413   1.846
 1737SOL     OW15069   1.662   6.355   1.650
 1737SOL    HW115070   1.683   6.266   1.609
 1737SOL    HW215071   1.672   6.427   1.581
 1738SOL     OW15072   1.349   6.541   2.074
 1738SOL    HW115073   1.344   6.452   2.119
 1738SOL    HW215074   1.303   6.536   1.985
 1739SOL     OW15075   3.966   5.222   0.787
 1739SOL    HW115076   3.971   5.317   0.757
 1739SOL    HW215077   3.893   5.175   0.737
 1740SOL     OW15078   2.515   1.771   1.791
 1740SOL    HW115079   2.506   1.671   1.788
 1740SOL    HW215080   2.523   1.806   1.697
 1741SOL     OW15081   9.162   5.274   1.016
 1741SOL    HW115082   9.128   5.338   0.947
 1741SOL    HW215083   9.144   5.180   0.988
 1742SOL     OW15084   1.292   5.747   0.716
 1742SOL    HW115085   1.330   5.747   0.623
 1742SOL    HW215086   1.317   5.833   0.761
 1743SOL     OW15087   3.991   9.839   1.250
 1743SOL    HW115088   4.043   9.910   1.203
 1743SOL    HW215089   4.029   9.824   1.341
 1744SOL     OW15090   3.619   4.290   0.589
 1744SOL    HW115091   3.681   4.212   0.587
 1744SOL    HW215092   3.672   4.374   0.599
 1745SOL     OW15093   9.943   4.774   1.358
 1745SOL    HW115094   0.041   4.773   1.377
 1745SOL    HW215095   9.916   4.684   1.322
 1746SOL     OW15096   1.563   3.351   1.584
 1746SOL    HW115097   1.498   3.424   1.609
 1746SOL    HW215098   1.527   3.263   1.615
 1747SOL     OW15099   1.562   3.823   0.861
 1747SOL    HW115100   1.658   3.815   0.833
 1747SOL    HW215101   1.522   3.732   0.873
 1748SOL     OW15102   1.926   6.551   1.783
 1748SOL    HW115103   1.979   6.602   1.715
 1748SOL    HW215104   1.925   6.454   1.758
 1749SOL     OW15105   1.830   5.489   0.806
 1749SOL    HW115106   1.775   5.573   0.801
 1749SOL    HW215107   1.881   5.478   0.721
 1750SOL     OW15108   3.544   5.008   0.813
 1750SOL    HW115109   3.454   5.033   0.849
 1750SOL    HW215110   3.585   4.939   0.873
 1751SOL     OW15111   4.091   1.024   1.042
 1751SOL    HW115112   4.150   0.994   0.967
 1751SOL    HW215113   4.032   1.098   1.009
 1752SOL     OW15114   1.543   4.291   2.078
 1752SOL    HW115115   1.638   4.288   2.109
 1752SOL    HW215116   1.522   4.209   2.024
 1753SOL     OW15117   2.493   3.024   1.302
 1753SOL    HW115118   2.502   3.113   1.258
 1753SOL    HW215119   2.464   2.956   1.235
 1754SOL     OW15120   2.682   0.506   2.133
 1754SOL    HW115121   2.716   0.441   2.065
 1754SOL    HW215122   2.674   0.460   2.222
 1755SOL     OW15123   1.312   3.302   2.349
 1755SOL    HW115124   1.259   3.241   2.408
 1755SOL    HW215125   1.251   3.346   2.284
 1756SOL     OW15126   3.323   8.138   0.831
 1756SOL    HW115127   3.363   8.066   0.774
 1756SOL    HW215128   3.367   8.138   0.920
 1757SOL     OW15129   3.613   9.555   0.823
 1757SOL    HW115130   3.577   9.646   0.801
 1757SOL    HW215131   3.658   9.516   0.743
 1758SOL     OW15132   3.235   0.710   0.558
 1758SOL    HW115133   3.232   0.810   0.560
 1758SOL    HW215134   3.331   0.680   0.562
 1759SOL     OW15135   0.551   5.688   1.038
 1759SOL    HW115136   0.569   5.607   0.981
 1759SOL    HW215137   0.548   5.769   0.980
 1760SOL     OW15138   2.742   4.474   2.009
 1760SOL    HW115139   2.761   4.551   2.069
 1760SOL    HW215140   2.716   4.507   1.918
 1761SOL     OW15141   1.568   5.446   1.144
 1761SOL    HW115142   1.581   5.401   1.056
 1761SOL    HW215143   1.471   5.445   1.169
 1762SOL     OW15144   2.256   3.912   1.884
 1762SOL    HW115145   2.236   3.820   1.849
 1762SOL    HW215146   2.204   3.980   1.832
 1763SOL     OW15147   1.545   4.502   1.904
 1763SOL    HW115148   1.613   4.493   1.830
 1763SOL    HW215149   1.550   4.421   1.962
 1764SOL     OW15150   3.280   2.706   2.206
 1764SOL    HW115151   3.199   2.690   2.150
 1764SOL    HW215152   3.263   2.781   2.269
 1765SOL     OW15153   2.608   9.957   1.454
 1765SOL    HW115154   2.571   9.967   1.362
 1765SOL    HW215155   2.551   9.894   1.506
 1766SOL     OW15156   1.299   5.777   2.242
 1766SOL    HW115157   1.260   5.867   2.262
 1766SOL    HW215158   1.398   5.779   2.256
 1767SOL     OW15159   1.586   3.636   1.747
 1767SOL    HW115160   1.496   3.624   1.706
 1767SOL    HW215161   1.598   3.731   1.775
 1768SOL     OW15162   2.087   4.101   1.766
 1768SOL    HW115163   2.023   4.050   1.824
 1768SOL    HW215164   2.088   4.197   1.794
 1769SOL     OW15165   3.115   1.946   1.235
 1769SOL    HW115166   3.143   1.916   1.144
 1769SOL    HW215167   3.019   1.975   1.233
 1770SOL     OW15168   4.187   2.399   0.506
 1770SOL    HW115169   4.236   2.327   0.457
 1770SOL    HW215170   4.243   2.433   0.581
 1771SOL     OW15171   2.572   7.228   1.467
 1771SOL    HW115172   2.533   7.173   1.393
 1771SOL    HW215173   2.603   7.167   1.540
 1772SOL     OW15174   3.740   5.117   0.664
 1772SOL    HW115175   3.705   5.186   0.601
 1772SOL    HW215176   3.666   5.085   0.722
 1773SOL     OW15177   3.130   9.034   2.255
 1773SOL    HW115178   3.086   9.099   2.193
 1773SOL    HW215179   3.078   8.949   2.256
 1774SOL     OW15180   3.348   7.014   0.477
 1774SOL    HW115181   3.253   7.005   0.447
 1774SOL    HW215182   3.370   7.110   0.488
 1775SOL     OW15183   2.124   6.703   0.578
 1775SOL    HW115184   2.188   6.642   0.531
 1775SOL    HW215185   2.063   6.746   0.512
 1776SOL     OW15186   0.882   4.560   1.932
 1776SOL    HW115187   0.977   4.535   1.950
 1776SOL    HW215188   0.879   4.631   1.861
 1777SOL     OW15189   4.429   0.217   2.271
 1777SOL    HW115190   4.514   0.190   2.317
 1777SOL    HW215191   4.451   0.274   2.192
 1778SOL     OW15192   3.757   3.876   1.007
 1778SOL    HW115193   3.850   3.898   1.038
 1778SOL    HW215194   3.758   3.785   0.965
 1779SOL     OW15195   2.949   7.547   1.107
 1779SOL    HW115196   2.873   7.581   1.052
 1779SOL    HW215197   2.915   7.481   1.175
 1780SOL     OW15198   3.493   5.380   1.197
 1780SOL    HW115199   3.498   5.291   1.242
 1780SOL    HW215200   3.565   5.387   1.128
 1781SOL     OW15201   4.372   4.216   1.503
 1781SOL    HW115202   4.383   4.271   1.420
 1781SOL    HW215203   4.288   4.162   1.497
 1782SOL     OW15204   3.448   4.498   0.769
 1782SOL    HW115205   3.357   4.535   0.786
 1782SOL    HW215206   3.440   4.413   0.717
 1783SOL     OW15207   3.365   3.286   1.719
 1783SOL    HW115208   3.290   3.337   1.676
 1783SOL    HW215209   3.343   3.271   1.815
 1784SOL     OW15210   1.593   5.812   2.243
 1784SOL    HW115211   1.557   5.899   2.277
 1784SOL    HW215212   1.691   5.806   2.264
 1785SOL     OW15213   1.958   4.841   0.865
 1785SOL    HW115214   1.982   4.911   0.798
 1785SOL    HW215215   2.023   4.765   0.857
 1786SOL     OW15216   1.095   5.125   0.536
 1786SOL    HW115217   1.115   5.119   0.633
 1786SOL    HW215218   1.158   5.189   0.492
 1787SOL     OW15219   0.196   4.217   0.900
 1787SOL    HW115220   0.176   4.297   0.843
 1787SOL    HW215221   0.258   4.156   0.851
 1788SOL     OW15222   1.277   3.834   1.751
 1788SOL    HW115223   1.220   3.839   1.833
 1788SOL    HW215224   1.235   3.772   1.685
 1789SOL     OW15225   1.933   7.215   0.681
 1789SOL    HW115226   1.882   7.213   0.767
 1789SOL    HW215227   1.926   7.306   0.640
 1790SOL     OW15228   3.811   0.166   1.393
 1790SOL    HW115229   3.799   0.256   1.434
 1790SOL    HW215230   3.725   0.116   1.397
 1791SOL     OW15231   2.745   3.529   0.639
 1791SOL    HW115232   2.841   3.512   0.662
 1791SOL    HW215233   2.702   3.585   0.710
 1792SOL     OW15234   1.446   4.235   1.509
 1792SOL    HW115235   1.379   4.163   1.528
 1792SOL    HW215236   1.401   4.324   1.512
 1793SOL     OW15237   2.522   3.491   2.060
 1793SOL    HW115238   2.536   3.410   2.117
 1793SOL    HW215239   2.481   3.564   2.115
 1794SOL     OW15240   2.159   7.512   0.378
 1794SOL    HW115241   2.164   7.599   0.425
 1794SOL    HW215242   2.218   7.514   0.298
 1795SOL     OW15243   3.525   1.684   1.275
 1795SOL    HW115244   3.611   1.650   1.310
 1795SOL    HW215245   3.456   1.611   1.277
 1796SOL     OW15246   4.047   9.396   1.054
 1796SOL    HW115247   4.072   9.367   0.962
 1796SOL    HW215248   4.023   9.493   1.054
 1797SOL     OW15249   2.701   5.288   1.295
 1797SOL    HW115250   2.682   5.384   1.315
 1797SOL    HW215251   2.800   5.272   1.299
 1798SOL     OW15252   3.713   5.223   2.032
 1798SOL    HW115253   3.721   5.148   2.097
 1798SOL    HW215254   3.782   5.213   1.960
 1799SOL     OW15255   2.029   5.643   1.971
 1799SOL    HW115256   1.947   5.660   1.917
 1799SOL    HW215257   2.063   5.551   1.951
 1800SOL     OW15258   2.248   6.927   0.713
 1800SOL    HW115259   2.219   7.019   0.689
 1800SOL    HW215260   2.186   6.860   0.670
 1801SOL     OW15261   3.705   1.885   2.003
 1801SOL    HW115262   3.653   1.922   2.080
 1801SOL    HW215263   3.799   1.867   2.031
 1802SOL     OW15264   3.188   8.383   2.249
 1802SOL    HW115265   3.279   8.409   2.217
 1802SOL    HW215266   3.131   8.465   2.257
 1803SOL     OW15267   3.953   4.464   0.719
 1803SOL    HW115268   3.870   4.510   0.688
 1803SOL    HW215269   3.934   4.367   0.736
 1804SOL     OW15270   4.036   8.708   1.810
 1804SOL    HW115271   4.026   8.801   1.774
 1804SOL    HW215272   4.134   8.685   1.813
 1805SOL     OW15273   4.445   2.900   0.986
 1805SOL    HW115274   4.450   2.814   1.037
 1805SOL    HW215275   4.404   2.884   0.897
 1806SOL     OW15276   2.211   7.205   0.662
 1806SOL    HW115277   2.220   7.217   0.563
 1806SOL    HW215278   2.115   7.215   0.689
 1807SOL     OW15279   2.880   8.388   0.452
 1807SOL    HW115280   2.922   8.377   0.362
 1807SOL    HW215281   2.951   8.413   0.518
 1808SOL     OW15282   1.876   6.521   1.054
 1808SOL    HW115283   1.897   6.429   1.019
 1808SOL    HW215284   1.958   6.578   1.048
 1809SOL     OW15285   3.522   1.908   1.444
 1809SOL    HW115286   3.533   1.827   1.386
 1809SOL    HW215287   3.564   1.891   1.534
 1810SOL     OW15288   3.284   2.611   0.765
 1810SOL    HW115289   3.354   2.676   0.733
 1810SOL    HW215290   3.322   2.519   0.765
 1811SOL     OW15291   0.952   5.654   1.950
 1811SOL    HW115292   1.039   5.628   1.993
 1811SOL    HW215293   0.954   5.751   1.927
 1812SOL     OW15294   2.453   2.447   2.048
 1812SOL    HW115295   2.363   2.407   2.033
 1812SOL    HW215296   2.523   2.386   2.011
 1813SOL     OW15297   2.961   7.751   2.033
 1813SOL    HW115298   2.874   7.729   1.989
 1813SOL    HW215299   3.026   7.677   2.017
 1814SOL     OW15300   1.615   3.301   1.147
 1814SOL    HW115301   1.610   3.365   1.223
 1814SOL    HW215302   1.650   3.348   1.065
 1815SOL     OW15303   4.842   2.058   0.390
 1815SOL    HW115304   4.759   2.087   0.342
 1815SOL    HW215305   4.816   2.009   0.474
 1816SOL     OW15306   3.571   4.563   1.010
 1816SOL    HW115307   3.638   4.498   1.045
 1816SOL    HW215308   3.540   4.535   0.920
 1817SOL     OW15309   4.497   0.399   1.797
 1817SOL    HW115310   4.534   0.485   1.762
 1817SOL    HW215311   4.491   0.332   1.722
 1818SOL     OW15312   2.855   5.865   0.891
 1818SOL    HW115313   2.791   5.856   0.968
 1818SOL    HW215314   2.931   5.924   0.918
 1819SOL     OW15315   2.819   0.597   0.701
 1819SOL    HW115316   2.816   0.512   0.648
 1819SOL    HW215317   2.780   0.672   0.647
 1820SOL     OW15318   3.318   8.396   0.742
 1820SOL    HW115319   3.402   8.425   0.695
 1820SOL    HW215320   3.324   8.299   0.764
 1821SOL     OW15321   3.366   8.373   1.509
 1821SOL    HW115322   3.315   8.342   1.590
 1821SOL    HW215323   3.460   8.339   1.514
 1822SOL     OW15324   0.558   4.915   1.764
 1822SOL    HW115325   0.502   4.987   1.723
 1822SOL    HW215326   0.596   4.949   1.851
 1823SOL     OW15327   0.512   5.548   2.037
 1823SOL    HW115328   0.444   5.475   2.043
 1823SOL    HW215329   0.510   5.587   1.945
 1824SOL     OW15330   3.657   0.746   1.014
 1824SOL    HW115331   3.664   0.832   1.064
 1824SOL    HW215332   3.702   0.673   1.066
 1825SOL     OW15333   2.413   6.676   1.456
 1825SOL    HW115334   2.449   6.689   1.364
 1825SOL    HW215335   2.472   6.611   1.505
 1826SOL     OW15336   3.629   0.568   0.361
 1826SOL    HW115337   3.633   0.468   0.365
 1826SOL    HW215338   3.579   0.603   0.440
 1827SOL     OW15339   1.864   5.996   0.612
 1827SOL    HW115340   1.876   6.095   0.602
 1827SOL    HW215341   1.767   5.973   0.605
 1828SOL     OW15342   2.710   3.372   1.885
 1828SOL    HW115343   2.646   3.419   1.946
 1828SOL    HW215344   2.679   3.381   1.791
 1829SOL     OW15345   4.876   2.179   1.022
 1829SOL    HW115346   4.907   2.221   0.937
 1829SOL    HW215347   4.924   2.221   1.099
 1830SOL     OW15348   4.614   2.576   2.174
 1830SOL    HW115349   4.669   2.536   2.247
 1830SOL    HW215350   4.673   2.618   2.106
 1831SOL     OW15351   5.110   2.746   1.208
 1831SOL    HW115352   5.210   2.746   1.219
 1831SOL    HW215353   5.069   2.798   1.283
 1832SOL     OW15354   4.298   4.335   1.246
 1832SOL    HW115355   4.255   4.246   1.230
 1832SOL    HW215356   4.230   4.398   1.284
 1833SOL     OW15357   3.238   2.580   1.044
 1833SOL    HW115358   3.255   2.618   0.954
 1833SOL    HW215359   3.320   2.590   1.101
 1834SOL     OW15360   2.698   6.678   2.037
 1834SOL    HW115361   2.716   6.599   1.979
 1834SOL    HW215362   2.607   6.670   2.077
 1835SOL     OW15363   2.600   7.306   0.337
 1835SOL    HW115364   2.547   7.230   0.373
 1835SOL    HW215365   2.576   7.321   0.241
 1836SOL     OW15366   4.445   4.402   0.522
 1836SOL    HW115367   4.412   4.312   0.554
 1836SOL    HW215368   4.530   4.390   0.472
 1837SOL     OW15369   3.437   3.301   1.311
 1837SOL    HW115370   3.469   3.351   1.230
 1837SOL    HW215371   3.495   3.325   1.390
 1838SOL     OW15372   4.326   4.154   0.609
 1838SOL    HW115373   4.335   4.143   0.708
 1838SOL    HW215374   4.229   4.163   0.585
 1839SOL     OW15375   3.165   3.154   1.029
 1839SOL    HW115376   3.145   3.112   0.941
 1839SOL    HW215377   3.113   3.108   1.101
 1840SOL     OW15378   2.080   4.242   2.107
 1840SOL    HW115379   2.136   4.160   2.115
 1840SOL    HW215380   2.081   4.274   2.012
 1841SOL     OW15381   2.549   9.287   1.820
 1841SOL    HW115382   2.499   9.214   1.774
 1841SOL    HW215383   2.500   9.374   1.808
 1842SOL     OW15384   4.001   2.040   1.766
 1842SOL    HW115385   3.966   2.063   1.675
 1842SOL    HW215386   3.999   1.940   1.777
 1843SOL     OW15387   1.235   6.489   1.831
 1843SOL    HW115388   1.180   6.408   1.815
 1843SOL    HW215389   1.300   6.501   1.755
 1844SOL     OW15390   2.715   9.783   0.786
 1844SOL    HW115391   2.793   9.843   0.769
 1844SOL    HW215392   2.738   9.690   0.756
 1845SOL     OW15393   1.851   2.627   1.278
 1845SOL    HW115394   1.846   2.648   1.376
 1845SOL    HW215395   1.824   2.708   1.225
 1846SOL     OW15396   3.456   8.401   1.183
 1846SOL    HW115397   3.444   8.405   1.282
 1846SOL    HW215398   3.531   8.462   1.157
 1847SOL     OW15399   4.317   1.547   2.063
 1847SOL    HW115400   4.323   1.451   2.038
 1847SOL    HW215401   4.238   1.561   2.123
 1848SOL     OW15402   1.979   3.462   1.540
 1848SOL    HW115403   1.925   3.379   1.529
 1848SOL    HW215404   1.930   3.526   1.600
 1849SOL     OW15405   4.458   1.569   0.635
 1849SOL    HW115406   4.465   1.604   0.728
 1849SOL    HW215407   4.549   1.543   0.602
 1850SOL     OW15408   2.772   8.140   1.345
 1850SOL    HW115409   2.811   8.179   1.428
 1850SOL    HW215410   2.815   8.182   1.265
 1851SOL     OW15411   4.256   0.934   0.839
 1851SOL    HW115412   4.285   0.967   0.749
 1851SOL    HW215413   4.220   0.841   0.830
 1852SOL     OW15414   2.338   1.904   1.020
 1852SOL    HW115415   2.249   1.908   1.066
 1852SOL    HW215416   2.398   1.974   1.058
 1853SOL     OW15417   9.315   5.071   0.704
 1853SOL    HW115418   9.378   5.150   0.702
 1853SOL    HW215419   9.368   4.987   0.701
 1854SOL     OW15420   2.707   9.613   1.210
 1854SOL    HW115421   2.674   9.530   1.165
 1854SOL    HW215422   2.692   9.691   1.150
 1855SOL     OW15423   5.423   2.597   0.851
 1855SOL    HW115424   5.405   2.686   0.809
 1855SOL    HW215425   5.353   2.532   0.824
 1856SOL     OW15426   2.469   4.364   0.539
 1856SOL    HW115427   2.383   4.317   0.561
 1856SOL    HW215428   2.507   4.404   0.623
 1857SOL     OW15429   5.176   2.737   1.662
 1857SOL    HW115430   5.221   2.777   1.742
 1857SOL    HW215431   5.227   2.656   1.632
 1858SOL     OW15432   1.806   4.310   2.139
 1858SOL    HW115433   1.896   4.267   2.135
 1858SOL    HW215434   1.816   4.409   2.143
 1859SOL     OW15435   2.722   9.222   2.017
 1859SOL    HW115436   2.661   9.241   1.940
 1859SOL    HW215437   2.714   9.296   2.084
 1860SOL     OW15438   1.749   3.466   0.971
 1860SOL    HW115439   1.813   3.497   0.901
 1860SOL    HW215440   1.786   3.486   1.062
 1861SOL     OW15441   3.556   1.161   1.686
 1861SOL    HW115442   3.529   1.221   1.611
 1861SOL    HW215443   3.646   1.123   1.668
 1862SOL     OW15444   0.282   4.061   0.538
 1862SOL    HW115445   0.294   4.045   0.636
 1862SOL    HW215446   0.214   4.134   0.525
 1863SOL     OW15447   3.265   4.007   0.571
 1863SOL    HW115448   3.191   3.978   0.631
 1863SOL    HW215449   3.267   3.949   0.490
 1864SOL     OW15450   2.060   5.163   1.469
 1864SOL    HW115451   2.150   5.206   1.477
 1864SOL    HW215452   2.071   5.064   1.461
 1865SOL     OW15453   3.838   8.180   0.736
 1865SOL    HW115454   3.886   8.267   0.750
 1865SOL    HW215455   3.769   8.168   0.807
 1866SOL     OW15456   9.460   4.785   1.593
 1866SOL    HW115457   9.397   4.759   1.520
 1866SOL    HW215458   9.550   4.804   1.554
 1867SOL     OW15459   2.632   9.373   1.091
 1867SOL    HW115460   2.729   9.356   1.072
 1867SOL    HW215461   2.589   9.290   1.126
 1868SOL     OW15462   2.807   1.506   0.944
 1868SOL    HW115463   2.767   1.425   0.902
 1868SOL    HW215464   2.778   1.510   1.040
 1869SOL     OW15465   2.765   6.044   2.222
 1869SOL    HW115466   2.695   6.066   2.154
 1869SOL    HW215467   2.746   5.954   2.262
 1870SOL     OW15468   3.158   3.435   1.616
 1870SOL    HW115469   3.198   3.527   1.623
 1870SOL    HW215470   3.079   3.429   1.677
 1871SOL     OW15471   4.666   4.435   2.132
 1871SOL    HW115472   4.632   4.490   2.209
 1871SOL    HW215473   4.614   4.457   2.050
 1872SOL     OW15474   4.202   4.666   1.127
 1872SOL    HW115475   4.137   4.736   1.159
 1872SOL    HW215476   4.179   4.639   1.034
 1873SOL     OW15477   4.461   0.899   1.015
 1873SOL    HW115478   4.388   0.918   0.949
 1873SOL    HW215479   4.538   0.856   0.969
 1874SOL     OW15480   3.165   1.747   0.751
 1874SOL    HW115481   3.216   1.781   0.672
 1874SOL    HW215482   3.068   1.770   0.740
 1875SOL     OW15483   3.189   3.661   0.756
 1875SOL    HW115484   3.120   3.589   0.744
 1875SOL    HW215485   3.143   3.750   0.755
 1876SOL     OW15486   1.162   6.024   2.268
 1876SOL    HW115487   1.162   6.075   2.354
 1876SOL    HW215488   1.068   6.013   2.235
 1877SOL     OW15489   2.209   2.734   0.960
 1877SOL    HW115490   2.179   2.765   0.870
 1877SOL    HW215491   2.158   2.782   1.031
 1878SOL     OW15492   1.152   4.525   1.990
 1878SOL    HW115493   1.199   4.457   2.047
 1878SOL    HW215494   1.209   4.546   1.910
 1879SOL     OW15495   1.635   4.799   0.406
 1879SOL    HW115496   1.701   4.857   0.358
 1879SOL    HW215497   1.678   4.713   0.431
 1880SOL     OW15498   3.419   4.554   2.172
 1880SOL    HW115499   3.355   4.625   2.203
 1880SOL    HW215500   3.503   4.598   2.138
 1881SOL     OW15501   3.020   2.618   0.705
 1881SOL    HW115502   3.117   2.608   0.726
 1881SOL    HW215503   2.977   2.528   0.700
 1882SOL     OW15504   3.636   5.321   0.495
 1882SOL    HW115505   3.722   5.361   0.464
 1882SOL    HW215506   3.562   5.387   0.484
 1883SOL     OW15507   2.204   9.412   0.719
 1883SOL    HW115508   2.105   9.427   0.712
 1883SOL    HW215509   2.252   9.485   0.671
 1884SOL     OW15510   5.244   1.955   0.273
 1884SOL    HW115511   5.339   1.962   0.304
 1884SOL    HW215512   5.187   2.019   0.323
 1885SOL     OW15513   1.199   3.799   0.737
 1885SOL    HW115514   1.232   3.734   0.669
 1885SOL    HW215515   1.111   3.769   0.773
 1886SOL     OW15516   2.938   2.798   1.595
 1886SOL    HW115517   3.026   2.842   1.578
 1886SOL    HW215518   2.886   2.794   1.509
 1887SOL     OW15519   2.815   7.828   1.720
 1887SOL    HW115520   2.835   7.921   1.749
 1887SOL    HW215521   2.768   7.830   1.632
 1888SOL     OW15522   3.401   4.951   1.122
 1888SOL    HW115523   3.338   4.874   1.114
 1888SOL    HW215524   3.375   5.024   1.059
 1889SOL     OW15525   1.042   5.480   0.485
 1889SOL    HW115526   0.972   5.410   0.464
 1889SOL    HW215527   0.998   5.559   0.526
 1890SOL     OW15528   1.657   5.104   0.754
 1890SOL    HW115529   1.621   5.017   0.722
 1890SOL    HW215530   1.742   5.124   0.706
 1891SOL     OW15531   2.345   7.840   0.935
 1891SOL    HW115532   2.301   7.750   0.944
 1891SOL    HW215533   2.389   7.864   1.022
 1892SOL     OW15534   4.357   2.149   1.452
 1892SOL    HW115535   4.425   2.091   1.496
 1892SOL    HW215536   4.278   2.094   1.424
 1893SOL     OW15537   3.813   4.783   1.431
 1893SOL    HW115538   3.804   4.689   1.396
 1893SOL    HW215539   3.818   4.781   1.530
 1894SOL     OW15540   3.716   4.982   2.173
 1894SOL    HW115541   3.632   4.948   2.215
 1894SOL    HW215542   3.790   4.981   2.240
 1895SOL     OW15543   1.830   2.757   1.524
 1895SOL    HW115544   1.917   2.797   1.495
 1895SOL    HW215545   1.816   2.775   1.622
 1896SOL     OW15546   4.423   4.438   1.678
 1896SOL    HW115547   4.437   4.347   1.639
 1896SOL    HW215548   4.333   4.472   1.653
 1897SOL     OW15549   3.276   7.245   1.383
 1897SOL    HW115550   3.312   7.265   1.292
 1897SOL    HW215551   3.291   7.323   1.443
 1898SOL     OW15552   0.879   5.258   0.425
 1898SOL    HW115553   0.948   5.201   0.470
 1898SOL    HW215554   0.878   5.238   0.327
 1899SOL     OW15555   1.642   6.558   1.460
 1899SOL    HW115556   1.692   6.637   1.497
 1899SOL    HW215557   1.643   6.562   1.360
 1900SOL     OW15558   3.938   2.349   0.607
 1900SOL    HW115559   4.031   2.361   0.574
 1900SOL    HW215560   3.873   2.368   0.533
 1901SOL     OW15561   2.840   2.063   2.099
 1901SOL    HW115562   2.820   1.973   2.060
 1901SOL    HW215563   2.916   2.105   2.049
 1902SOL     OW15564   3.772   1.341   0.553
 1902SOL    HW115565   3.843   1.289   0.601
 1902SOL    HW215566   3.683   1.320   0.593
 1903SOL     OW15567   3.241   4.311   0.945
 1903SOL    HW115568   3.274   4.386   1.003
 1903SOL    HW215569   3.206   4.349   0.858
 1904SOL     OW15570   0.048   4.443   1.662
 1904SOL    HW115571   0.055   4.378   1.738
 1904SOL    HW215572   0.133   4.495   1.654
 1905SOL     OW15573   2.588   8.308   2.138
 1905SOL    HW115574   2.607   8.235   2.204
 1905SOL    HW215575   2.598   8.272   2.045
 1906SOL     OW15576   0.177   5.522   1.631
 1906SOL    HW115577   0.248   5.463   1.593
 1906SOL    HW215578   0.205   5.617   1.625
 1907SOL     OW15579   3.429   1.654   0.839
 1907SOL    HW115580   3.455   1.562   0.866
 1907SOL    HW215581   3.331   1.657   0.818
 1908SOL     OW15582   0.542   5.673   1.788
 1908SOL    HW115583   0.469   5.701   1.727
 1908SOL    HW215584   0.606   5.749   1.801
 1909SOL     OW15585   0.878   3.887   1.748
 1909SOL    HW115586   0.870   3.936   1.661
 1909SOL    HW215587   0.804   3.820   1.755
 1910SOL     OW15588   2.980   9.897   1.081
 1910SOL    HW115589   2.980   9.811   1.133
 1910SOL    HW215590   3.031   9.966   1.131
 1911SOL     OW15591   0.678   3.702   1.774
 1911SOL    HW115592   0.665   3.705   1.873
 1911SOL    HW215593   0.591   3.726   1.729
 1912SOL     OW15594   2.399   7.722   2.223
 1912SOL    HW115595   2.340   7.763   2.153
 1912SOL    HW215596   2.492   7.756   2.212
 1913SOL     OW15597   2.640   6.422   0.634
 1913SOL    HW115598   2.719   6.422   0.572
 1913SOL    HW215599   2.588   6.507   0.622
 1914SOL     OW15600   1.450   2.903   1.836
 1914SOL    HW115601   1.430   2.811   1.801
 1914SOL    HW215602   1.378   2.931   1.900
 1915SOL     OW15603   9.870   5.544   0.716
 1915SOL    HW115604   9.889   5.535   0.813
 1915SOL    HW215605   9.865   5.641   0.692
 1916SOL     OW15606   0.986   4.606   0.632
 1916SOL    HW115607   1.054   4.656   0.578
 1916SOL    HW215608   0.975   4.514   0.593
 1917SOL     OW15609   1.454   3.697   1.361
 1917SOL    HW115610   1.526   3.766   1.370
 1917SOL    HW215611   1.393   3.704   1.440
 1918SOL     OW15612   1.671   3.036   0.377
 1918SOL    HW115613   1.576   3.005   0.374
 1918SOL    HW215614   1.732   2.957   0.387
 1919SOL     OW15615   1.607   3.953   2.310
 1919SOL    HW115616   1.572   3.995   2.394
 1919SOL    HW215617   1.532   3.945   2.243
 1920SOL     OW15618   1.799   2.867   1.155
 1920SOL    HW115619   1.795   2.883   1.056
 1920SOL    HW215620   1.772   2.951   1.203
 1921SOL     OW15621   1.735   3.664   2.097
 1921SOL    HW115622   1.637   3.659   2.120
 1921SOL    HW215623   1.772   3.752   2.129
 1922SOL     OW15624   0.822   5.178   2.035
 1922SOL    HW115625   0.796   5.271   2.008
 1922SOL    HW215626   0.744   5.117   2.023
 1923SOL     OW15627   2.547   1.800   0.387
 1923SOL    HW115628   2.585   1.846   0.467
 1923SOL    HW215629   2.491   1.864   0.335
 1924SOL     OW15630   4.615   2.883   1.906
 1924SOL    HW115631   4.677   2.928   1.841
 1924SOL    HW215632   4.581   2.950   1.971
 1925SOL     OW15633   2.457   7.075   1.278
 1925SOL    HW115634   2.508   7.012   1.219
 1925SOL    HW215635   2.405   7.022   1.345
 1926SOL     OW15636   1.439   6.988   0.296
 1926SOL    HW115637   1.425   6.890   0.303
 1926SOL    HW215638   1.367   7.028   0.239
 1927SOL     OW15639   4.813   5.021   0.763
 1927SOL    HW115640   4.843   4.946   0.703
 1927SOL    HW215641   4.747   5.078   0.714
  10.00000  10.00000   2.84200
