chitosan Film  in water:acetic acid 2%
14447
    1CHTO  H203    1   5.531   6.918   2.089 -0.2996  0.3137  0.1446
    1CHTO   O82    2   5.544   6.834   2.048  0.1361  0.2284  0.4592
    1CHTO  C123    3   5.659   6.769   2.110 -0.4049 -0.0786 -0.4617
    1CHTO  H227    4   5.668   6.810   2.211  2.9120 -0.5229 -0.5300
    1CHTO   O77    5   5.624   6.626   2.126 -0.7122  0.1021  0.4585
    1CHTO  C118    6   5.719   6.550   2.202 -0.0488 -0.7908 -0.1650
    1CHTO  H222    7   5.735   6.608   2.294  0.7255 -0.3216 -0.5865
    1CHTO  C125    8   5.641   6.411   2.236  0.2245 -0.2275 -0.1530
    1CHTO   O84    9   5.686   6.340   2.349 -0.3481  0.3129  0.0654
    1CHTO  H205   10   5.617   6.281   2.372  0.3337 -0.0447  1.2241
    1CHTO  C114   11   5.852   6.549   2.126  0.8949 -0.1841  0.2399
    1CHTO  H218   12   5.846   6.488   2.037 -1.2082 -0.3339  0.4546
    1CHTO  C116   13   5.902   6.693   2.092 -0.5676  0.0435  0.8865
    1CHTO  H220   14   5.952   6.745   2.177 -0.5286  3.0537 -0.9152
    1CHTO   O79   15   6.010   6.668   1.998  0.3206  0.2522 -0.2640
    1CHTO  H201   16   6.006   6.720   1.920 -0.3769 -1.0673 -1.1405
    1CHTO  C120   17   5.790   6.778   2.021  1.2560  0.1804 -0.0217
    1CHTO  H224   18   5.778   6.726   1.924 -1.0218  2.4762 -1.0398
    1CHTO   N21   19   5.836   6.919   1.996  0.8266  0.3205 -0.3561
    1CHTO  H211   20   5.785   6.954   1.908 -2.3606  0.3502  1.4301
    1CHTO  H212   21   5.794   6.974   2.079  1.5707  1.2509 -0.5923
    1CHTO   O75   22   5.948   6.495   2.215 -0.5648  0.8425  0.1040
    1CHTO  C112   23   5.999   6.348   2.167  0.3519  0.2148 -0.0254
    1CHTO  H216   24   5.968   6.335   2.062  1.9373  0.1345 -0.4949
    1CHTO   O73   25   5.940   6.249   2.255 -0.6620  0.2364 -0.3189
    1CHTO  C113   26   5.958   6.111   2.219  0.6486 -0.1530 -0.6876
    1CHTO  H217   27   5.931   6.092   2.113 -1.6888  0.2861 -0.1989
    1CHTO  C124   28   5.861   6.026   2.307 -0.0476  0.1994 -0.3390
    1CHTO   O83   29   5.852   5.887   2.261 -0.2356 -0.1037 -0.4907
    1CHTO  H204   30   5.766   5.857   2.284 -1.0893  0.5577 -2.7306
    1CHTO  C109   31   6.110   6.084   2.244 -0.3503 -0.4403  0.5292
    1CHTO  H213   32   6.124   6.098   2.352  0.2916 -2.6066  0.7443
    1CHTO  C110   33   6.188   6.183   2.146 -0.3313  0.1279 -0.5025
    1CHTO  H214   34   6.167   6.160   2.042  2.0190  0.3881 -1.0749
    1CHTO   O78   35   6.325   6.154   2.155 -0.5181  0.3734  0.5380
    1CHTO  H200   36   6.368   6.205   2.090 -0.9476 -0.1750 -0.1815
    1CHTO  C111   37   6.155   6.338   2.181 -1.0319 -0.5088  0.3815
    1CHTO  H215   38   6.186   6.358   2.285  2.1796 -0.9271 -0.4647
    1CHTO   N19   39   6.232   6.431   2.095  0.4671 -0.5008  0.5480
    1CHTO  H207   40   6.172   6.494   2.032 -0.9032 -1.1183  1.2165
    1CHTO  H208   41   6.300   6.493   2.152 -1.6923  1.6244  0.8764
    1CHTO   O74   42   6.150   5.945   2.209 -0.1545  0.3374 -0.0564
    1CHTO  C115   43   6.223   5.878   2.324  0.8151 -0.2513 -0.3227
    1CHTO  H219   44   6.214   5.938   2.414 -0.0785 -0.5081 -0.2374
    1CHTO   O76   45   6.160   5.741   2.367  0.3888 -0.9462  0.0765
    1CHTO  C122   46   6.146   5.645   2.258  0.3656  0.5378  0.0036
    1CHTO  H226   47   6.052   5.667   2.207  0.2283 -0.6874 -0.2877
    1CHTO  C126   48   6.135   5.510   2.326 -0.0138 -0.4527 -0.2280
    1CHTO   O85   49   6.250   5.467   2.401 -0.1719  0.0673  0.0872
    1CHTO  H206   50   6.306   5.417   2.344 -1.3813 -1.7128  0.4271
    1CHTO  C121   51   6.266   5.652   2.159 -0.2994  0.2866  0.4690
    1CHTO  H225   52   6.288   5.546   2.134  1.8172  1.0601 -1.1903
    1CHTO   O81   53   6.242   5.725   2.035  0.3625 -0.3461 -0.3605
    1CHTO  H202   54   6.185   5.799   2.045  0.8593 -0.2283  1.9255
    1CHTO  C119   55   6.392   5.715   2.227 -0.0416 -0.2096 -0.2443
    1CHTO  H223   56   6.413   5.648   2.310  0.4349 -0.7356 -0.7899
    1CHTO  C117   57   6.369   5.863   2.283 -0.0154 -0.3227 -0.0137
    1CHTO  H221   58   6.382   5.939   2.205 -2.3028  0.6650  0.5183
    1CHTO   N20   59   6.469   5.900   2.386 -0.0308 -0.0529 -0.1455
    1CHTO  H209   60   6.497   5.811   2.440  0.1771 -1.1015 -1.9433
    1CHTO  H210   61   6.556   5.946   2.342 -0.4621  2.3421  1.4485
    1CHTO   O80   62   6.517   5.703   2.144  0.2949  0.5385 -0.0793
    1CHTO  C103   63   6.615   5.591   2.173 -0.8574 -0.3384  0.6194
    1CHTO  H190   64   6.630   5.578   2.280  1.4121 -0.9098  0.2545
    1CHTO  C101   65   6.590   5.452   2.088  0.1417  0.4776 -0.8689
    1CHTO  H188   66   6.557   5.490   1.992  1.3735 -0.6743 -1.7732
    1CHTO   O68   67   6.470   5.367   2.148  0.0163  0.1829  0.3084
    1CHTO  H168   68   6.394   5.422   2.146 -0.0851  0.0850  1.4463
    1CHTO   C99   69   6.718   5.362   2.084  0.3416 -0.0119 -0.4478
    1CHTO  H186   70   6.739   5.323   2.186 -1.6455 -0.4433 -0.1755
    1CHTO   N17   71   6.702   5.236   2.001 -0.1894 -0.0422 -0.6649
    1CHTO  H174   72   6.668   5.270   1.904  1.1501  0.2607 -1.0483
    1CHTO  H175   73   6.644   5.153   2.039 -0.8262  0.0310 -1.4550
    1CHTO   C97   74   6.843   5.442   2.045 -0.8156  0.6661  0.6275
    1CHTO  H184   75   6.839   5.460   1.937 -0.0809 -0.7260  0.3603
    1CHTO   O64   76   6.855   5.559   2.118  0.4691  0.0931  0.4107
    1CHTO  C104   77   6.748   5.651   2.114 -0.1232 -0.1631 -0.3677
    1CHTO  H191   78   6.736   5.685   2.011  0.2662  1.7265  0.1905
    1CHTO  C108   79   6.794   5.778   2.195  0.4737  0.6064  0.3799
    1CHTO   O71   80   6.916   5.835   2.153  0.3080 -0.1070  0.9089
    1CHTO  H171   81   6.916   5.928   2.165 -1.9210  0.3663 -2.3124
    1CHTO   O62   82   6.968   5.373   2.070 -0.8232  0.2997  0.4115
    1CHTO   C91   83   7.076   5.354   1.973 -0.1195 -0.5944  0.3036
    1CHTO  H178   84   7.030   5.346   1.875 -0.3233  1.7669  0.1691
    1CHTO   C92   85   7.148   5.225   2.023  0.5497  0.1053 -0.3103
    1CHTO  H179   86   7.161   5.237   2.131  1.1413  2.7933 -0.6407
    1CHTO   O66   87   7.055   5.115   2.007  0.0691  0.0544  0.3202
    1CHTO  H166   88   7.045   5.071   2.090 -1.1047 -0.7366 -0.2246
    1CHTO   C93   89   7.286   5.183   1.943  0.0658 -0.2282 -0.4136
    1CHTO  H180   90   7.257   5.142   1.845  0.9325  2.0607 -1.6589
    1CHTO   N16   91   7.352   5.062   2.001 -0.1198  0.4526  0.4992
    1CHTO  H172   92   7.284   4.979   1.992  0.5756 -0.3138  2.0857
    1CHTO  H173   93   7.389   5.078   2.101 -2.0020  0.5693  1.2068
    1CHTO   C94   94   7.377   5.301   1.930  0.3477 -0.3144  0.5394
    1CHTO  H181   95   7.419   5.333   2.025 -2.3225  0.6869  1.4301
    1CHTO   O61   96   7.302   5.409   1.872  0.2173  0.5084  0.4476
    1CHTO   C95   97   7.188   5.461   1.943  0.4604  0.0428  0.0702
    1CHTO  H182   98   7.222   5.499   2.039  0.1775 -1.5952  0.8340
    1CHTO  C106   99   7.130   5.586   1.860  0.6267  0.2166  0.4594
    1CHTO   O69  100   7.225   5.688   1.817  0.2404  1.3045  0.0393
    1CHTO  H169  101   7.183   5.772   1.807 -2.1970 -0.0633 -1.6708
    1CHTO   O63  102   7.496   5.274   1.834 -0.3231  0.4319 -0.0282
    1CHTO   C96  103   7.632   5.357   1.894 -0.6923 -0.0351  0.7046
    1CHTO  H183  104   7.597   5.435   1.961  1.1540  2.0864 -0.7082
    1CHTO   C98  105   7.718   5.429   1.788 -0.1313 -0.1118  0.3225
    1CHTO  H185  106   7.654   5.498   1.730 -1.0423 -1.1990  0.0202
    1CHTO   O67  107   7.814   5.511   1.858 -0.3153  0.1382 -0.2068
    1CHTO  H167  108   7.890   5.464   1.886 -1.0695 -0.4222  0.9275
    1CHTO  C102  109   7.791   5.324   1.691  0.7891 -0.8645 -0.2076
    1CHTO  H189  110   7.872   5.379   1.642  0.0112 -0.4416 -1.0329
    1CHTO   N18  111   7.694   5.290   1.583  0.1598  0.1133 -0.2163
    1CHTO  H176  112   7.658   5.377   1.531 -0.7977  0.4363  0.9598
    1CHTO  H177  113   7.737   5.213   1.521  0.4580 -0.3138  0.5141
    1CHTO  C105  114   7.843   5.201   1.771 -0.4540 -0.2384 -0.6908
    1CHTO  H192  115   7.779   5.115   1.753  0.3549 -0.6213 -1.7356
    1CHTO   O65  116   7.854   5.226   1.911  0.7911 -0.1519 -0.2057
    1CHTO  C100  117   7.726   5.263   1.977  0.7344 -0.2153 -0.6985
    1CHTO  H187  118   7.661   5.177   1.996  0.7033 -0.3348 -1.3366
    1CHTO  C107  119   7.752   5.324   2.121 -0.6916 -0.8073  0.2126
    1CHTO   O70  120   7.806   5.461   2.118  0.0751 -0.2222 -0.0610
    1CHTO  H170  121   7.882   5.467   2.064 -0.2857 -2.4853 -0.8725
    1CHTO   O57  122   7.986   5.186   1.696 -0.0956 -0.1781  0.2527
    1CHTO   C85  123   8.036   5.055   1.661  0.1203 -0.9268 -0.3320
    1CHTO  H157  124   7.972   5.021   1.576  1.3495 -0.6224 -1.3892
    1CHTO   C83  125   8.024   4.958   1.781 -0.4058  0.6902  0.6103
    1CHTO  H155  126   7.918   4.952   1.807 -0.2264 -1.4772  0.9919
    1CHTO   O56  127   8.100   5.011   1.892 -0.2753  0.2744 -0.0814
    1CHTO  H135  128   8.063   5.090   1.925  0.5948  0.0816  1.3980
    1CHTO   C81  129   8.070   4.820   1.723  0.5425  0.0560 -0.0416
    1CHTO  H153  130   8.020   4.799   1.629  0.5853  1.6290 -0.4211
    1CHTO   N14  131   8.031   4.704   1.807 -0.5059 -0.8175  0.1579
    1CHTO  H141  132   8.071   4.611   1.771 -1.0489 -0.2055 -2.0608
    1CHTO  H142  133   8.071   4.727   1.904 -1.9444 -0.2026  0.6254
    1CHTO   C79  134   8.225   4.820   1.686 -0.1995 -0.3800  0.8335
    1CHTO  H151  135   8.250   4.722   1.644  1.8917  0.6254 -0.3585
    1CHTO   O52  136   8.252   4.921   1.584  0.3432  0.0471 -0.9000
    1CHTO   C86  137   8.190   5.055   1.616 -0.7566  0.0499  0.0537
    1CHTO  H158  138   8.250   5.099   1.697  1.3483 -0.8065 -0.9957
    1CHTO   C90  139   8.210   5.155   1.496 -0.7099  0.9483 -0.3778
    1CHTO   O60  140   8.351   5.166   1.462 -0.0871  0.1998 -0.0602
    1CHTO  H138  141   8.359   5.096   1.399  0.9375 -1.2658  1.6526
    1CHTO   O50  142   8.307   4.843   1.801  0.1462  0.1481  0.5219
    1CHTO   C73  143   8.445   4.802   1.821 -0.0908  0.1613  0.1712
    1CHTO  H145  144   8.502   4.850   1.739 -2.3918  2.5054 -0.1100
    1CHTO   C74  145   8.465   4.646   1.821  0.0905 -0.1144 -0.0043
    1CHTO  H146  146   8.427   4.601   1.728 -0.8703  0.3228  0.1696
    1CHTO   O54  147   8.607   4.613   1.818 -0.1894 -0.4828 -0.0087
    1CHTO  H133  148   8.627   4.539   1.764  0.9287  0.5745 -1.0844
    1CHTO   C75  149   8.397   4.593   1.943  0.1752 -0.0571 -0.1255
    1CHTO  H147  150   8.292   4.625   1.944  0.2485  0.1763  0.0354
    1CHTO   N13  151   8.378   4.449   1.947 -0.0361  0.4214  0.1494
    1CHTO  H139  152   8.474   4.404   1.968  0.4545  2.5191  2.7855
    1CHTO  H140  153   8.311   4.415   2.024  1.4563  0.3676  1.4679
    1CHTO   C76  154   8.457   4.655   2.078 -0.4108  0.5884 -0.3142
    1CHTO  H148  155   8.564   4.632   2.069 -0.1559  0.3273  2.9670
    1CHTO   O49  156   8.439   4.799   2.082  0.0064  0.6617 -0.1488
    1CHTO   C77  157   8.501   4.855   1.962  0.5492 -0.4178 -0.5671
    1CHTO  H149  158   8.608   4.832   1.967  0.9471  0.7358 -2.9977
    1CHTO   C88  159   8.492   5.010   1.960 -0.7695  0.5980 -0.2803
    1CHTO   O58  160   8.572   5.083   2.062  0.1492 -0.4575  0.2741
    1CHTO  H136  161   8.662   5.063   2.043 -0.4694 -2.7447 -0.3286
    1CHTO   O51  162   8.382   4.593   2.205  0.4085 -0.2346 -0.4082
    1CHTO   C78  163   8.293   4.704   2.297 -0.5935 -0.2007 -0.5228
    1CHTO  H150  164   8.260   4.787   2.232 -0.3833 -1.0808 -1.7653
    1CHTO   C80  165   8.364   4.765   2.416 -0.0093  0.1697 -0.3378
    1CHTO  H152  166   8.386   4.681   2.486  0.7393  1.1727  0.6609
    1CHTO   O55  167   8.490   4.815   2.374 -0.1389  0.4874  0.6818
    1CHTO  H134  168   8.485   4.899   2.332 -0.6116 -0.0523 -0.3554
    1CHTO   C84  169   8.274   4.872   2.498 -0.0837  0.1732  0.1185
    1CHTO  H156  170   8.254   4.955   2.431 -0.8510  0.0891  0.2334
    1CHTO   N15  171   8.345   4.925   2.616  0.1770  0.2945 -0.2162
    1CHTO  H143  172   8.445   4.887   2.619 -0.2174 -0.6528  1.1205
    1CHTO  H144  173   8.345   5.031   2.634  0.9281  0.1783  0.4925
    1CHTO   C87  174   8.140   4.813   2.530  0.3832  0.1734 -0.0877
    1CHTO  H159  175   8.142   4.739   2.610  1.8297 -2.3756 -2.4132
    1CHTO   O53  176   8.073   4.731   2.397 -0.5401 -0.0836  0.5644
    1CHTO   C82  177   8.161   4.637   2.339 -0.1853 -0.6401  0.4876
    1CHTO  H154  178   8.170   4.565   2.420 -0.2928 -0.7497  0.4025
    1CHTO   C89  179   8.076   4.567   2.225 -0.2254  0.0350  0.2230
    1CHTO   O59  180   8.014   4.659   2.132  0.2784 -0.2106 -0.1761
    1CHTO  H137  181   7.974   4.611   2.061  0.5505 -1.4668  0.4957
    1CHTO   O45  182   8.042   4.918   2.573  0.2837 -0.2556 -0.2052
    1CHTO   C67  183   7.994   5.012   2.472  0.3129  0.6136 -0.3022
    1CHTO  H124  184   8.036   4.991   2.374 -0.4097  3.6139 -1.3212
    1CHTO   C65  185   7.836   5.012   2.471  0.1233 -0.1318  0.7346
    1CHTO  H122  186   7.800   4.910   2.465 -2.3720  0.7178  0.7902
    1CHTO   O44  187   7.797   5.083   2.354 -0.1664  0.4235 -0.1267
    1CHTO  H102  188   7.824   5.029   2.282  1.2188  1.4550 -0.4133
    1CHTO   C63  189   7.783   5.068   2.606  0.1845 -0.0852  0.2837
    1CHTO  H120  190   7.819   5.006   2.688 -1.4232 -0.3637  0.8075
    1CHTO   N11  191   7.634   5.058   2.636  0.2669  0.6022 -0.2337
    1CHTO  H108  192   7.597   5.155   2.661 -0.4204  0.4487 -0.6268
    1CHTO  H109  193   7.611   4.998   2.722  1.3864 -0.2071 -0.4895
    1CHTO   C61  194   7.831   5.216   2.622 -0.7186 -0.2001  0.3797
    1CHTO  H118  195   7.811   5.242   2.727  0.0175  2.7071 -0.1556
    1CHTO   O40  196   7.974   5.228   2.606 -0.0499 -0.2135  0.7238
    1CHTO   C68  197   8.056   5.156   2.513 -0.5530  0.4112  0.4831
    1CHTO  H125  198   8.153   5.141   2.564 -0.3823 -0.8374 -0.2015
    1CHTO   C72  199   8.088   5.243   2.392 -0.2350  0.2016  0.1780
    1CHTO   O48  200   8.182   5.182   2.305 -0.0407 -0.0609 -0.0993
    1CHTO  H105  201   8.237   5.252   2.276  0.3408  1.3294  3.7064
    1CHTO   O38  202   7.778   5.317   2.524  0.7784  0.3833 -0.2210
    1CHTO   C55  203   7.757   5.446   2.582  0.4737 -1.2268  0.3289
    1CHTO  H112  204   7.825   5.465   2.666 -0.3088  0.7864  0.5386
    1CHTO   C56  205   7.603   5.465   2.623 -0.8086  0.0249  0.6502
    1CHTO  H113  206   7.541   5.422   2.542 -0.4098  0.0612  0.3269
    1CHTO   O42  207   7.572   5.380   2.736 -0.3655 -0.1657  0.4839
    1CHTO  H100  208   7.479   5.369   2.739 -0.2755 -0.9708  0.5993
    1CHTO   C57  209   7.564   5.614   2.660  0.4517 -0.6069 -0.3115
    1CHTO  H114  210   7.615   5.636   2.754  1.7953 -0.3915 -1.0711
    1CHTO   N10  211   7.414   5.637   2.667 -0.1240  0.4431  0.5676
    1CHTO  H106  212   7.381   5.618   2.768  0.3972 -0.4675  0.5734
    1CHTO  H107  213   7.362   5.575   2.596  1.9279 -0.6263 -0.0301
    1CHTO   C58  214   7.626   5.712   2.557  0.2721  0.1848  0.6928
    1CHTO  H115  215   7.559   5.716   2.469 -0.3016  1.6239  1.1834
    1CHTO   O37  216   7.760   5.689   2.515 -0.1440  0.3324 -0.0826
    1CHTO   C59  217   7.787   5.558   2.470 -0.2685 -0.1712  0.7312
    1CHTO  H116  218   7.737   5.539   2.375 -1.2430  0.5679  1.0793
    1CHTO   C70  219   7.935   5.561   2.426 -0.3471  0.1147 -0.3416
    1CHTO   O46  220   7.948   5.626   2.302  0.2947 -0.3391 -0.0613
    1CHTO  H103  221   8.037   5.628   2.275  0.4875 -1.1933  0.4858
    1CHTO   O39  222   7.629   5.866   2.638  0.0028  0.2302 -0.3304
    1CHTO   C60  223   7.612   5.970   2.540  0.6654 -0.1446 -0.4011
    1CHTO  H117  224   7.634   5.938   2.438  0.1990 -1.8388  0.0086
    1CHTO   C62  225   7.460   6.005   2.550  0.2941  0.0733 -0.6922
    1CHTO  H119  226   7.398   5.923   2.508  0.0303  0.2304 -0.6110
    1CHTO   O43  227   7.422   6.032   2.685  0.1781 -0.1899 -0.2352
    1CHTO  H101  228   7.462   6.114   2.709 -0.4063 -0.0149  0.1454
    1CHTO   C66  229   7.437   6.130   2.449 -0.3354 -0.6344 -0.2601
    1CHTO  H123  230   7.474   6.096   2.352 -2.2211  2.1365 -2.0242
    1CHTO   N12  231   7.296   6.181   2.439  0.1211 -0.4287 -0.4246
    1CHTO  H110  232   7.234   6.099   2.405  2.1363 -1.7191 -1.1011
    1CHTO  H111  233   7.293   6.269   2.377  0.6909 -0.4437 -0.4785
    1CHTO   C69  234   7.531   6.251   2.484 -0.2604 -0.3192 -0.1979
    1CHTO  H126  235   7.526   6.277   2.592  1.7893 -0.3039 -0.0783
    1CHTO   O41  236   7.676   6.201   2.466 -0.1628  0.1916 -0.1578
    1CHTO   C64  237   7.703   6.094   2.569  0.6130 -0.5372 -0.4406
    1CHTO  H121  238   7.675   6.144   2.664 -0.1863 -0.1838 -0.8534
    1CHTO   C71  239   7.852   6.060   2.572 -0.6603 -0.2441  0.3639
    1CHTO   O47  240   7.932   6.163   2.624  0.6152 -0.2250  0.4743
    1CHTO  H104  241   7.996   6.121   2.678 -0.0407 -1.8450  0.0020
    1CHTO   O34  242   7.507   6.391   2.394  0.1355 -0.2359 -0.5989
    1CHTO   C49  243   7.450   6.496   2.441 -0.0252  0.0195  0.7597
    1CHTO   H91  244   7.377   6.466   2.517 -1.6588  0.5289 -0.5725
    1CHTO   C47  245   7.379   6.575   2.329 -0.4199 -0.0311 -0.1229
    1CHTO   H89  246   7.328   6.657   2.383  0.5587 -0.1082  0.9219
    1CHTO   O33  247   7.287   6.491   2.263 -0.0965  0.4402 -0.7734
    1CHTO   H70  248   7.306   6.475   2.172  0.9637  1.5521 -0.7570
    1CHTO   C45  249   7.494   6.635   2.226 -0.2536 -0.3788 -0.2556
    1CHTO   H87  250   7.574   6.563   2.205 -1.4211 -1.7246 -0.1599
    1CHTO    N8  251   7.440   6.696   2.103  0.4263  0.1881  0.2327
    1CHTO   H75  252   7.460   6.637   2.015 -1.9568 -1.1935  0.5830
    1CHTO   H76  253   7.335   6.718   2.112  0.5679  0.9746 -0.0022
    1CHTO   C43  254   7.580   6.743   2.310  0.8907 -0.4111 -0.0561
    1CHTO   H85  255   7.662   6.776   2.246 -0.0146 -2.0998 -2.1214
    1CHTO   O29  256   7.631   6.680   2.427 -0.4456  0.9071  0.7871
    1CHTO   C50  257   7.546   6.592   2.506 -0.7070  0.6037 -0.2511
    1CHTO   H92  258   7.615   6.529   2.565 -1.8728 -1.8184 -1.4003
    1CHTO   C54  259   7.479   6.668   2.625  0.2858  0.1136  0.3412
    1CHTO   O36  260   7.574   6.703   2.725  0.4552 -0.0943  0.0358
    1CHTO   H72  261   7.588   6.625   2.776 -1.2796  0.5265  1.5229
    1CHTO   O27  262   7.502   6.863   2.336  0.1405 -0.0810  0.5221
    1CHTO   C37  263   7.454   6.992   2.369  0.5725 -0.1178 -0.1264
    1CHTO   H79  264   7.421   7.037   2.274 -0.2546 -1.8576 -0.6706
    1CHTO   C38  265   7.328   6.978   2.465  0.6157  0.3172  0.1234
    1CHTO   H80  266   7.347   6.903   2.543 -1.5686 -0.3205  0.0953
    1CHTO   O31  267   7.215   6.927   2.391  0.2415  0.7917  0.1888
    1CHTO   H68  268   7.230   6.838   2.365 -0.2959  1.0290 -0.9876
    1CHTO   C39  269   7.283   7.115   2.539 -0.3612  0.4621 -0.2392
    1CHTO   H81  270   7.245   7.178   2.458 -1.6655 -0.2298 -0.1818
    1CHTO    N7  271   7.181   7.102   2.647  0.1698 -0.4885  0.0486
    1CHTO   H73  272   7.193   7.017   2.712  1.7923 -0.2692  0.0542
    1CHTO   H74  273   7.080   7.095   2.608 -0.4360  0.7214  1.3563
    1CHTO   C40  274   7.400   7.200   2.594 -0.6394 -0.5614  0.1376
    1CHTO   H82  275   7.441   7.158   2.686 -1.0947  0.0195  0.6113
    1CHTO   O26  276   7.495   7.205   2.488 -0.4564 -0.2802 -0.3660
    1CHTO   C41  277   7.558   7.082   2.438  0.6210 -0.1920 -0.0845
    1CHTO   H83  278   7.603   7.025   2.521  0.5621  1.6625  1.2405
    1CHTO   C52  279   7.677   7.119   2.350  0.1682 -0.0409 -0.2966
    1CHTO   O35  280   7.786   7.214   2.423 -0.3815 -0.3204 -0.1448
    1CHTO   H71  281   7.762   7.301   2.398  2.9129  0.5795 -0.4432
    1CHTO   O28  282   7.368   7.340   2.625  0.1016  0.2919 -0.1364
    1CHTO   C42  283   7.343   7.448   2.519 -0.1315 -0.2348  0.1512
    1CHTO   H84  284   7.339   7.402   2.420 -0.2684 -1.3117  0.6582
    1CHTO   C44  285   7.461   7.548   2.515 -0.2920 -0.0568  0.1739
    1CHTO   H86  286   7.499   7.563   2.616  2.3297 -0.9980 -0.6195
    1CHTO   O32  287   7.574   7.478   2.457  0.4853  0.7492 -0.4832
    1CHTO   H69  288   7.637   7.535   2.417 -0.5979  1.2585 -1.4704
    1CHTO   C48  289   7.435   7.683   2.442  0.4116  0.6346  0.4714
    1CHTO   H90  290   7.430   7.672   2.333 -3.3101  1.4341  0.4925
    1CHTO    N9  291   7.553   7.771   2.461  0.4013  0.3136 -0.6062
    1CHTO   H77  292   7.568   7.797   2.564  0.9704 -2.2137 -0.0089
    1CHTO   H78  293   7.545   7.860   2.402 -1.1416 -0.7774 -2.0957
    1CHTO   C51  294   7.298   7.741   2.480 -0.7229 -0.2441  0.4583
    1CHTO   H93  295   7.308   7.759   2.587  1.8471 -2.8625  0.7157
    1CHTO   O30  296   7.202   7.635   2.453  0.1027 -0.3607  0.0281
    1CHTO   C46  297   7.213   7.521   2.539  0.4991  0.0682 -0.0153
    1CHTO   H88  298   7.209   7.558   2.641  1.5737  2.1146 -0.6708
    1CHTO   C53  299   7.100   7.428   2.505 -0.0891 -0.7821  0.2530
    1CHTO   O72  300   6.972   7.499   2.511 -0.2326  0.0127  0.0116
    1CHTO  H199  301   6.923   7.470   2.436  0.7655  0.6494 -0.8987
    1CHTO   O22  302   7.258   7.869   2.429 -0.5122  0.0774 -0.0592
    1CHTO   C31  303   7.209   7.909   2.293  0.3339 -0.1525 -0.5320
    1CHTO   H59  304   7.182   8.016   2.309  2.3472  0.2551  0.3086
    1CHTO   C29  305   7.306   7.908   2.175  0.5578 -0.6631 -0.5505
    1CHTO   H57  306   7.364   7.815   2.173  0.8286 -0.4925 -0.5369
    1CHTO   O21  307   7.406   8.006   2.216  0.0049  0.2923 -0.0172
    1CHTO   H37  308   7.468   8.030   2.149  0.4558 -1.2644 -0.1886
    1CHTO   C27  309   7.238   7.938   2.034  0.0496  0.2265 -0.3588
    1CHTO   H55  310   7.193   8.039   2.040  1.3334  0.7177  1.6036
    1CHTO    N5  311   7.337   7.942   1.923 -0.0309  0.4956  0.0757
    1CHTO   H43  312   7.421   8.010   1.928  0.3013 -0.0584  3.0379
    1CHTO   H44  313   7.284   7.960   1.831  1.8217 -1.3970 -1.3896
    1CHTO   C25  314   7.118   7.842   2.018  0.2840  0.4959 -0.2982
    1CHTO   H53  315   7.152   7.739   2.002  0.0482  0.4330 -0.3857
    1CHTO   O17  316   7.026   7.859   2.129 -0.1413 -0.0322 -0.2930
    1CHTO   C32  317   7.081   7.830   2.257  0.0086  0.4988 -0.2212
    1CHTO   H60  318   7.100   7.723   2.265  1.0747  0.6032 -1.2340
    1CHTO   C36  319   6.968   7.865   2.357  0.0717 -0.1120 -0.2717
    1CHTO   O25  320   6.947   8.006   2.379 -0.1712  0.0767  0.3987
    1CHTO   H40  321   6.861   8.028   2.348 -0.1690  0.0108  0.3488
    1CHTO   O15  322   7.049   7.879   1.875  0.4211 -0.4265  0.2686
    1CHTO   C19  323   6.957   7.844   1.771 -0.4842 -0.5117  0.2294
    1CHTO   H47  324   6.875   7.912   1.801 -0.1775  0.2379 -0.6311
    1CHTO   C20  325   6.998   7.895   1.633 -0.2396 -0.4978  0.1259
    1CHTO   H48  326   7.106   7.885   1.616 -0.3581  0.3680 -1.1630
    1CHTO   O19  327   6.980   8.040   1.637 -0.5101  0.1544  0.0295
    1CHTO   H35  328   6.891   8.067   1.632 -1.1374 -1.8565  0.0048
    1CHTO   C21  329   6.909   7.839   1.521  0.0919  0.2278 -0.1886
    1CHTO   H49  330   6.807   7.878   1.532  0.0626  1.0086 -2.9306
    1CHTO    N4  331   6.966   7.876   1.385  0.6366  0.2640 -0.3367
    1CHTO   H41  332   6.960   7.983   1.376 -1.6023  0.1396 -0.8050
    1CHTO   H42  333   6.900   7.835   1.309  1.5397  0.2844 -1.1419
    1CHTO   C22  334   6.894   7.685   1.544 -0.0037  0.0957 -0.2297
    1CHTO   H50  335   6.994   7.643   1.530 -0.4547 -0.5499 -1.6517
    1CHTO   O14  336   6.840   7.655   1.674 -0.0047 -0.3754 -0.1920
    1CHTO   C23  337   6.911   7.699   1.786 -0.2542  0.3251 -0.5841
    1CHTO   H51  338   6.997   7.630   1.794  0.2517  0.9791 -0.3077
    1CHTO   C34  339   6.814   7.692   1.906 -0.4603 -0.4627 -0.1875
    1CHTO   O23  340   6.755   7.564   1.927  0.5969 -0.0325  0.1932
    1CHTO   H38  341   6.673   7.566   1.881  0.3053  1.9149  0.7668
    1CHTO   O16  342   6.801   7.621   1.454  0.0942 -0.0295  0.5165
    1CHTO   C24  343   6.874   7.489   1.378  0.5445 -0.1732 -0.2009
    1CHTO   H52  344   6.980   7.476   1.401  0.4248  1.8850  1.6465
    1CHTO   C26  345   6.836   7.498   1.233 -0.5875  0.3265 -0.1694
    1CHTO   H54  346   6.726   7.513   1.228 -0.3242  2.7344  0.4828
    1CHTO   O20  347   6.896   7.617   1.180  0.0451 -0.3407  0.3418
    1CHTO   H36  348   6.847   7.689   1.216  2.4852  0.9800  1.1589
    1CHTO   C30  349   6.867   7.366   1.159  0.0677 -0.4635  0.4136
    1CHTO   H58  350   6.977   7.356   1.150  0.3195  1.0021  1.7544
    1CHTO    N6  351   6.818   7.367   1.014 -0.0656  0.5359 -0.7009
    1CHTO   H45  352   6.714   7.338   1.016  0.2892 -0.7025  0.6178
    1CHTO   H46  353   6.875   7.304   0.948 -0.9765 -0.2732 -0.7178
    1CHTO   C33  354   6.817   7.239   1.235  0.1424 -0.0252 -0.0302
    1CHTO   H61  355   6.710   7.221   1.216  0.0870 -1.3116  1.4416
    1CHTO   O18  356   6.842   7.243   1.379  0.0211  0.0239  0.1306
    1CHTO   C28  357   6.797   7.367   1.434  0.0105  0.1045 -0.5673
    1CHTO   H56  358   6.690   7.377   1.415 -0.3957 -0.8189  1.1738
    1CHTO   C35  359   6.810   7.353   1.587 -0.2307 -0.4808  0.0396
    1CHTO   O24  360   6.926   7.299   1.625 -0.0030  0.0644 -0.5436
    1CHTO   H39  361   6.937   7.230   1.562  1.6118 -0.6017  0.4187
    1CHTO    O9  362   6.886   7.133   1.174 -0.0370 -0.6562 -0.0859
    1CHTO   C13  363   6.820   6.973   1.221  0.1137  0.3245  0.6240
    1CHTO   H26  364   6.710   6.984   1.215  0.3003  0.6033 -3.3890
    1CHTO   C11  365   6.875   6.929   1.358  0.1637  0.1534  0.3235
    1CHTO   H24  366   6.822   6.980   1.440 -0.6312 -1.8079  1.0782
    1CHTO    O8  367   7.019   6.954   1.379 -0.1489  0.5152 -0.1900
    1CHTO    H3  368   7.070   6.929   1.305 -1.7268  0.6193 -1.3306
    1CHTO    C9  369   6.851   6.779   1.383  0.1331 -0.1344  1.2971
    1CHTO   H22  370   6.751   6.754   1.346  0.2351 -1.1356  1.6618
    1CHTO    N2  371   6.863   6.744   1.527  0.2460 -0.0798  0.1242
    1CHTO   H10  372   6.965   6.760   1.560 -0.1045  1.7381  0.3871
    1CHTO   H11  373   6.790   6.800   1.583  0.1527 -0.0087 -0.0678
    1CHTO    C7  374   6.950   6.705   1.279  0.2424  0.1494 -0.0669
    1CHTO   H20  375   6.893   6.614   1.251 -0.1070  0.3289  0.0694
    1CHTO    O4  376   6.967   6.774   1.151 -0.7661  0.3998 -0.2549
    1CHTO   C14  377   6.858   6.862   1.111 -0.3245 -0.4471 -0.0778
    1CHTO   H27  378   6.773   6.794   1.095 -0.3623  0.1778 -2.6392
    1CHTO   C18  379   6.887   6.926   0.978 -0.3669  0.6172  0.5031
    1CHTO   O13  380   6.888   6.832   0.870 -0.2394  0.7280  0.4303
    1CHTO    H7  381   6.802   6.831   0.832  0.2622  1.1256 -0.7661
    1CHTO    O2  382   7.083   6.665   1.319  0.2017  0.3133  0.3562
    1CHTO    C1  383   7.128   6.544   1.254  0.9996 -0.0241  0.4087
    1CHTO   H14  384   7.059   6.518   1.171  0.5705 -2.0463  1.3544
    1CHTO    C2  385   7.131   6.418   1.350 -0.5657 -0.0299  0.4568
    1CHTO   H15  386   7.188   6.445   1.440  2.0498  0.1919 -1.2137
    1CHTO    O6  387   6.997   6.389   1.389  0.1344  0.2144  0.0107
    1CHTO    H1  388   6.998   6.398   1.483  2.1099  0.0203  0.0160
    1CHTO    C3  389   7.202   6.287   1.277 -0.0607  0.3349 -0.1017
    1CHTO   H16  390   7.144   6.251   1.191  0.7148  1.1726 -0.9980
    1CHTO    N1  391   7.216   6.176   1.375  0.6281 -0.1729  0.2580
    1CHTO    H8  392   7.137   6.191   1.447 -0.8677 -1.4494 -1.0739
    1CHTO    H9  393   7.302   6.187   1.439  0.1586  0.7135  0.7436
    1CHTO    C4  394   7.341   6.340   1.212  0.2410 -0.1621  0.2582
    1CHTO   H17  395   7.405   6.379   1.291  2.4038 -0.7101 -1.1616
    1CHTO    O1  396   7.303   6.446   1.118  0.2379 -0.0288 -0.6150
    1CHTO    C5  397   7.263   6.567   1.184  0.2365  0.0365 -0.2720
    1CHTO   H18  398   7.346   6.595   1.249  0.7957 -0.5913 -0.7096
    1CHTO   C16  399   7.250   6.676   1.071 -0.6387 -0.0469 -0.0199
    1CHTO   O11  400   7.150   6.631   0.980 -0.1918  0.1872 -0.5670
    1CHTO    H5  401   7.166   6.640   0.887  1.1308 -2.4995 -0.6305
    1CHTO    O3  402   7.403   6.233   1.140 -0.4191 -0.0116 -0.1603
    1CHTO    C6  403   7.528   6.258   1.074  0.2753  0.2760  0.1286
    1CHTO   H19  404   7.530   6.364   1.047  1.9053  0.9348  2.6536
    1CHTO    C8  405   7.654   6.228   1.168 -0.2613 -0.3456  0.2486
    1CHTO   H21  406   7.635   6.133   1.218  1.8886 -0.9034  0.0652
    1CHTO    O7  407   7.662   6.334   1.263 -0.0581  0.1583  0.4824
    1CHTO    H2  408   7.584   6.341   1.314 -0.0476 -0.6223  0.6107
    1CHTO   C12  409   7.779   6.218   1.076 -0.6323 -0.4479  0.4886
    1CHTO   H25  410   7.813   6.320   1.049 -1.3747 -0.4238 -0.3594
    1CHTO    N3  411   7.898   6.165   1.151 -0.7023 -0.1564 -0.0226
    1CHTO   H12  412   7.864   6.077   1.205  0.2333 -0.0436  0.7725
    1CHTO   H13  413   7.979   6.140   1.085 -0.9418  0.9905 -0.7600
    1CHTO   C15  414   7.753   6.146   0.944 -0.1186 -0.4587  0.0111
    1CHTO   H28  415   7.738   6.039   0.962  1.4657 -0.8706 -1.0999
    1CHTO   O10  416   7.862   6.155   0.849  0.1295 -0.3755  0.5663
    1CHTO    H4  417   7.937   6.106   0.876 -0.0202  0.0882  1.8272
    1CHTO    O5  418   7.641   6.213   0.874 -0.2726  0.2171 -1.0694
    1CHTO   C10  419   7.521   6.180   0.943 -0.0689 -0.2516  0.7304
    1CHTO   H23  420   7.506   6.073   0.957 -2.2382 -0.1672 -0.6090
    1CHTO   C17  421   7.415   6.232   0.843 -0.0372  0.0063  0.3879
    1CHTO   O12  422   7.286   6.193   0.879  0.0276 -0.0919  0.1126
    1CHTO    H6  423   7.231   6.176   0.805 -1.5956 -2.6564  1.8481
    2CHTO  H203  424   6.656   4.214   2.537 -0.5638 -0.8065  0.0702
    2CHTO   O82  425   6.621   4.235   2.453  0.0678  0.1686  0.0487
    2CHTO  C123  426   6.523   4.344   2.456  0.3868  0.4258 -0.1015
    2CHTO  H227  427   6.580   4.438   2.465  0.5541  0.5057 -1.8298
    2CHTO   O77  428   6.461   4.332   2.324 -0.0091 -0.0274  0.1251
    2CHTO  C118  429   6.359   4.426   2.300  0.3087 -0.9204  0.0389
    2CHTO  H222  430   6.400   4.528   2.305 -1.3560 -0.3415  3.0942
    2CHTO  C125  431   6.311   4.388   2.155 -0.7854 -0.6137 -0.2275
    2CHTO   O84  432   6.225   4.489   2.096  0.1862 -0.5218 -0.8869
    2CHTO  H205  433   6.147   4.484   2.149  0.4035 -0.9976 -0.6121
    2CHTO  C114  434   6.241   4.400   2.397 -0.5792 -0.4193  0.0050
    2CHTO  H218  435   6.205   4.300   2.374 -0.5877  0.0011 -1.8628
    2CHTO  C116  436   6.289   4.416   2.545 -0.1882  0.0254  0.3946
    2CHTO  H220  437   6.314   4.522   2.567  3.3216 -0.6030 -0.2306
    2CHTO   O79  438   6.185   4.386   2.636 -0.2714 -0.0904 -0.0858
    2CHTO  H201  439   6.148   4.301   2.625  0.2655 -0.4435  0.7901
    2CHTO  C120  440   6.417   4.334   2.573  0.3220  0.3127 -0.2461
    2CHTO  H224  441   6.379   4.230   2.583 -1.0824  1.0112  2.1177
    2CHTO   N21  442   6.480   4.359   2.707 -0.2791 -0.1795  0.2913
    2CHTO  H211  443   6.415   4.378   2.791 -1.7013  2.0010 -1.2636
    2CHTO  H212  444   6.541   4.274   2.737  0.0255  0.4956  1.6242
    2CHTO   O75  445   6.152   4.506   2.366 -0.2422 -0.3590  0.2162
    2CHTO  C112  446   5.993   4.460   2.363  0.0914 -1.1233 -0.2801
    2CHTO  H216  447   5.975   4.385   2.441 -1.2507  0.0561  0.5750
    2CHTO   O73  448   5.964   4.413   2.236  0.0067  0.4218 -0.1848
    2CHTO  C113  449   5.841   4.342   2.221 -0.7824 -0.5129  0.5717
    2CHTO  H217  450   5.844   4.247   2.277 -3.2924 -0.7752  0.3124
    2CHTO  C124  451   5.826   4.304   2.077  0.2018  0.1272  0.4161
    2CHTO   O83  452   5.928   4.227   2.024 -0.7183 -0.0810 -0.5191
    2CHTO  H204  453   6.010   4.267   2.047 -1.1666  1.2217 -1.1592
    2CHTO  C109  454   5.720   4.432   2.268 -0.3710 -0.3179  0.5730
    2CHTO  H213  455   5.704   4.505   2.187  0.0772 -0.3262  0.4753
    2CHTO  C110  456   5.747   4.515   2.395  0.9374  0.0462  0.1614
    2CHTO  H214  457   5.742   4.444   2.477  0.8200  0.7062  0.7301
    2CHTO   O78  458   5.648   4.624   2.413 -0.0355 -0.0900  0.5121
    2CHTO  H200  459   5.567   4.599   2.451 -0.3772 -2.2492 -1.5448
    2CHTO  C111  460   5.890   4.572   2.406 -0.7067 -0.0510 -0.0414
    2CHTO  H215  461   5.899   4.657   2.336  1.9262  0.2355  0.5643
    2CHTO   N19  462   5.922   4.630   2.542  0.3634  0.0882 -0.2571
    2CHTO  H207  463   5.836   4.694   2.559  0.3665 -0.2247  1.0083
    2CHTO  H208  464   5.922   4.563   2.626 -1.0897  1.1065  0.5967
    2CHTO   O74  465   5.597   4.351   2.283  0.1493 -0.1746 -0.4374
    2CHTO  C115  466   5.472   4.432   2.207  0.6988 -0.1125 -0.5034
    2CHTO  H219  467   5.483   4.541   2.212  1.0276 -0.1056 -1.2664
    2CHTO   O76  468   5.473   4.406   2.049  0.4702 -0.0272  0.2037
    2CHTO  C122  469   5.413   4.278   2.013 -0.2924 -0.0590 -0.5738
    2CHTO  H226  470   5.472   4.195   2.053 -0.7934 -0.2275 -0.1749
    2CHTO  C126  471   5.408   4.263   1.861  0.4975  0.4232  0.1623
    2CHTO   O85  472   5.354   4.364   1.775 -0.5509 -0.2505 -0.2769
    2CHTO  H206  473   5.280   4.414   1.803  0.4144  1.1214 -0.0799
    2CHTO  C121  474   5.267   4.265   2.072  0.2504  0.3249 -0.2559
    2CHTO  H225  475   5.197   4.263   1.985 -0.6556 -0.6559  0.4822
    2CHTO   O81  476   5.247   4.148   2.147  0.2196 -0.7129  0.1362
    2CHTO  H202  477   5.192   4.095   2.093  1.7652  0.0602 -2.2906
    2CHTO  C119  478   5.232   4.384   2.166  0.0777 -1.0113 -0.1179
    2CHTO  H223  479   5.245   4.471   2.101  2.4758 -3.0955 -2.4896
    2CHTO  C117  480   5.338   4.394   2.279 -0.4540  0.4029  0.2633
    2CHTO  H221  481   5.355   4.302   2.337  2.3821  2.0915  2.2417
    2CHTO   N20  482   5.296   4.496   2.386 -0.2931  0.2599 -0.4685
    2CHTO  H209  483   5.350   4.483   2.479 -1.1734  0.4352  0.0618
    2CHTO  H210  484   5.189   4.507   2.383 -0.2202  0.6232 -3.6352
    2CHTO   O80  485   5.066   4.406   2.202  0.8626  0.8584 -0.0670
    2CHTO  C103  486   4.992   4.526   2.153 -0.0045  0.6971 -0.4352
    2CHTO  H190  487   5.053   4.616   2.151 -0.4321  1.0116  0.4074
    2CHTO  C101  488   4.939   4.516   2.007 -0.6515 -0.2623  0.0623
    2CHTO  H188  489   4.901   4.416   1.985 -0.1308 -0.6538  0.9082
    2CHTO   O68  490   5.049   4.519   1.911  0.4575  0.4272  0.2630
    2CHTO  H168  491   5.085   4.605   1.909  2.2358 -0.2542  1.5615
    2CHTO   C99  492   4.831   4.629   1.979  0.1294 -0.1640  0.1226
    2CHTO  H186  493   4.890   4.723   1.976  0.3298 -0.2895  0.1561
    2CHTO   N17  494   4.765   4.611   1.851  0.4332 -0.3294  0.0620
    2CHTO  H174  495   4.841   4.634   1.778  1.8232  0.1623  1.6348
    2CHTO  H175  496   4.688   4.684   1.829 -0.0973 -1.1477 -0.8525
    2CHTO   C97  497   4.737   4.651   2.104 -0.0753 -0.1816  0.6604
    2CHTO  H184  498   4.665   4.568   2.104 -0.4609  0.1499 -0.1814
    2CHTO   O64  499   4.811   4.662   2.230 -0.2261 -0.6038 -0.3593
    2CHTO  C104  500   4.883   4.544   2.263  0.6201 -0.1982 -0.4112
    2CHTO  H191  501   4.824   4.453   2.271 -0.8379  0.9480  3.0056
    2CHTO  C108  502   4.936   4.570   2.404 -0.1140  0.0438 -0.2728
    2CHTO   O71  503   4.850   4.615   2.508 -0.2305  0.5067  0.1999
    2CHTO  H171  504   4.763   4.585   2.492 -0.7727  1.5630  1.0714
    2CHTO   O62  505   4.676   4.784   2.106 -0.6017  0.2925 -0.5470
    2CHTO   C91  506   4.552   4.815   2.176 -0.3201  0.2601  0.5630
    2CHTO  H178  507   4.525   4.730   2.238 -1.9555 -0.5415 -1.2152
    2CHTO   C92  508   4.432   4.824   2.080 -0.2037  0.1266  0.4482
    2CHTO  H179  509   4.435   4.735   2.015  1.8989  0.7167 -0.3244
    2CHTO   O66  510   4.318   4.833   2.167 -0.3952 -0.0605 -0.1222
    2CHTO  H166  511   4.240   4.830   2.114  0.0468  0.2404 -0.8013
    2CHTO   C93  512   4.435   4.962   1.990 -0.3256 -0.2073  0.5453
    2CHTO  H180  513   4.336   4.968   1.944 -1.1901  0.7907  2.4977
    2CHTO   N16  514   4.529   4.963   1.872 -0.3299 -0.6251  1.0175
    2CHTO  H172  515   4.471   4.963   1.781  1.6244 -2.2985 -0.2514
    2CHTO  H173  516   4.594   4.877   1.879  0.6096  0.0483  0.7116
    2CHTO   C94  517   4.453   5.086   2.086  0.5504  0.1091 -0.3450
    2CHTO  H181  518   4.536   5.151   2.059 -2.1873  2.5945 -3.1914
    2CHTO   O61  519   4.472   5.053   2.225  0.0205 -0.9351  0.1530
    2CHTO   C95  520   4.575   4.957   2.245 -0.6413  0.0818  0.9625
    2CHTO  H182  521   4.670   4.999   2.213  0.2522 -3.8884 -2.0140
    2CHTO  C106  522   4.603   4.938   2.396  0.4893  0.2730 -0.5470
    2CHTO   O69  523   4.483   4.910   2.474  0.5894 -0.0626  0.2372
    2CHTO  H169  524   4.416   4.971   2.449 -1.2035 -2.5687 -1.2821
    2CHTO   O63  525   4.312   5.164   2.071 -0.1119 -0.5905  0.5333
    2CHTO   C96  526   4.327   5.322   2.103  0.1515 -0.0467 -0.1357
    2CHTO  H183  527   4.428   5.353   2.133 -0.2068  0.4657  0.5573
    2CHTO   C98  528   4.221   5.366   2.219  0.6229  0.3798 -0.7022
    2CHTO  H185  529   4.120   5.331   2.191  1.2426 -1.7119 -0.3965
    2CHTO   O67  530   4.257   5.304   2.341 -0.1497  0.4618  0.3087
    2CHTO  H167  531   4.181   5.304   2.396 -1.0975  0.0673 -0.9882
    2CHTO  C102  532   4.209   5.524   2.233 -0.6737  0.3157  0.4710
    2CHTO  H189  533   4.302   5.557   2.281 -0.7973  0.0638  0.8826
    2CHTO   N18  534   4.103   5.584   2.324  0.3985  0.2233 -0.5463
    2CHTO  H176  535   4.014   5.609   2.268  0.1520  0.8756  0.1270
    2CHTO  H177  536   4.149   5.658   2.388  0.0638 -0.6132  0.6716
    2CHTO  C105  537   4.202   5.588   2.089 -0.7382  0.4471 -0.1974
    2CHTO  H192  538   4.102   5.582   2.046 -0.0447  0.0065 -1.7854
    2CHTO   O65  539   4.294   5.540   1.988 -0.0827 -0.1302  0.4174
    2CHTO  C100  540   4.297   5.401   1.973  0.4672  0.8095  0.6056
    2CHTO  H187  541   4.204   5.369   1.923  0.2931  0.8770  0.8894
    2CHTO  C107  542   4.409   5.373   1.870 -0.5076  0.0831 -0.2028
    2CHTO   O70  543   4.372   5.421   1.735 -0.4615 -0.6658 -0.2220
    2CHTO  H170  544   4.289   5.385   1.710 -0.4306 -2.1143  1.6373
    2CHTO   O57  545   4.229   5.751   2.111  0.7558  0.6100  0.5127
    2CHTO   C85  546   4.184   5.854   2.021  0.6604  0.6029 -0.2190
    2CHTO  H157  547   4.085   5.827   1.980 -0.4561  1.8433  1.5919
    2CHTO   C83  548   4.280   5.859   1.902 -0.0780  0.7854 -0.1443
    2CHTO  H155  549   4.263   5.764   1.852 -1.0693  1.0600 -0.3409
    2CHTO   O56  550   4.419   5.872   1.949 -0.3322 -0.3352 -0.3148
    2CHTO  H135  551   4.471   5.898   1.876 -2.0188 -0.7522 -1.7206
    2CHTO   C81  552   4.232   5.968   1.807 -0.9096  0.3073  0.2610
    2CHTO  H153  553   4.128   5.951   1.777 -0.2023 -0.9255 -1.5852
    2CHTO   N14  554   4.311   5.954   1.684 -0.0126 -0.4019  0.3377
    2CHTO  H141  555   4.411   5.987   1.704 -0.0630  0.0875 -0.1972
    2CHTO  H142  556   4.318   5.852   1.655 -0.0261 -0.9122  2.1019
    2CHTO   C79  557   4.240   6.112   1.878  0.0735  0.7200 -0.3443
    2CHTO  H151  558   4.200   6.187   1.810  1.2046 -0.1083 -1.9811
    2CHTO   O52  559   4.154   6.112   2.001  0.0722  0.1147 -0.0612
    2CHTO   C86  560   4.176   5.996   2.091 -0.2713  0.3801 -0.2646
    2CHTO  H158  561   4.278   6.026   2.120 -0.1099 -1.2526  0.9153
    2CHTO   C90  562   4.085   6.014   2.215 -0.2274  0.4463 -0.2536
    2CHTO   O60  563   4.114   5.909   2.308  0.1649  0.0382 -0.1676
    2CHTO  H138  564   4.124   5.829   2.260 -0.8873  1.2534 -2.4803
    2CHTO   O50  565   4.376   6.159   1.909  0.2513  0.0389  0.1773
    2CHTO   C73  566   4.457   6.264   1.956  0.0554  0.4421 -0.3813
    2CHTO  H145  567   4.405   6.332   2.026  0.7642  2.1044 -1.4232
    2CHTO   C74  568   4.521   6.347   1.841  0.2662 -0.0344  0.4853
    2CHTO  H146  569   4.440   6.390   1.781  0.8258 -0.9481 -0.9695
    2CHTO   O54  570   4.589   6.458   1.897 -0.1073 -0.1343  0.3438
    2CHTO  H133  571   4.641   6.430   1.969 -0.4400 -2.6107 -0.3100
    2CHTO   C75  572   4.612   6.250   1.746  0.5217 -0.2010  0.2125
    2CHTO  H147  573   4.544   6.179   1.696  1.3744 -0.1376 -1.0431
    2CHTO   N13  574   4.686   6.325   1.636 -0.0071  0.1655 -0.3392
    2CHTO  H139  575   4.621   6.392   1.582  0.7688  1.9681  0.8958
    2CHTO  H140  576   4.772   6.383   1.665  0.8590 -1.1790 -0.1664
    2CHTO   C76  577   4.713   6.164   1.829 -0.5171 -0.7110  0.8066
    2CHTO  H148  578   4.793   6.230   1.863 -0.9097 -0.1699  0.6863
    2CHTO   O49  579   4.648   6.108   1.948  0.1183 -0.8625 -0.5138
    2CHTO   C77  580   4.579   6.201   2.030 -0.3402  0.1518 -0.8651
    2CHTO  H149  581   4.637   6.283   2.073  1.3460 -0.9939 -0.9040
    2CHTO   C88  582   4.548   6.117   2.157 -0.4796 -0.0880  0.7550
    2CHTO   O58  583   4.454   6.188   2.260  0.3857 -0.2575  0.1354
    2CHTO  H136  584   4.476   6.279   2.265 -0.0254 -0.0781 -1.0957
    2CHTO   O51  585   4.760   6.019   1.746  0.3927  0.1937  0.6227
    2CHTO   C78  586   4.869   5.931   1.836 -0.1841  0.8752 -0.1594
    2CHTO  H150  587   4.839   5.919   1.942 -0.4587 -1.8682 -0.5131
    2CHTO   C80  588   5.016   5.984   1.824 -0.1206 -0.2103  0.4041
    2CHTO  H152  589   5.049   5.969   1.719 -2.1921 -0.1862 -0.2746
    2CHTO   O55  590   5.025   6.125   1.860  0.2238  0.1207  0.3485
    2CHTO  H134  591   4.955   6.178   1.827 -0.9543 -0.7549  1.4060
    2CHTO   C84  592   5.110   5.896   1.911  0.1901  0.4015  0.0300
    2CHTO  H156  593   5.075   5.926   2.010  0.1715  2.9382 -0.7043
    2CHTO   N15  594   5.253   5.944   1.910  0.5793 -0.3833 -0.3599
    2CHTO  H143  595   5.262   6.051   1.911 -0.8682 -0.2503 -0.4978
    2CHTO  H144  596   5.300   5.899   1.995 -1.3184 -1.1299  0.3141
    2CHTO   C87  597   5.102   5.745   1.876 -0.6333 -0.0747 -0.2799
    2CHTO  H159  598   5.160   5.725   1.786 -2.4554  0.4275 -1.5923
    2CHTO   O53  599   4.947   5.702   1.862 -0.6795  0.3281  0.1668
    2CHTO   C82  600   4.873   5.788   1.779 -0.0792  0.7795  0.0078
    2CHTO  H154  601   4.922   5.793   1.681  1.0083 -0.1461  0.4939
    2CHTO   C89  602   4.732   5.731   1.758 -0.1780 -0.4937 -0.6110
    2CHTO   O59  603   4.741   5.596   1.718 -0.4738 -0.3906  0.7295
    2CHTO  H137  604   4.762   5.541   1.791 -1.8751 -0.6271  0.9722
    2CHTO   O45  605   5.171   5.663   1.989 -0.0342  0.0924 -0.3007
    2CHTO   C67  606   5.084   5.593   2.087  0.1724  0.2351 -0.4385
    2CHTO  H124  607   4.984   5.635   2.093 -0.0035 -0.0491 -1.3653
    2CHTO   C65  608   5.066   5.435   2.059 -0.3665 -0.7691  0.7343
    2CHTO  H122  609   5.158   5.405   2.009 -0.6333  0.2544 -0.3899
    2CHTO   O44  610   4.954   5.441   1.963 -0.2587  0.1315 -0.0345
    2CHTO  H102  611   4.983   5.495   1.892 -3.1686  0.0362 -1.3509
    2CHTO   C63  612   5.057   5.342   2.187 -0.0002  0.6741  0.2411
    2CHTO  H120  613   5.160   5.320   2.218  0.8342  0.0090 -2.7988
    2CHTO   N11  614   5.009   5.198   2.167  0.6881 -0.1923  1.0676
    2CHTO  H108  615   4.905   5.189   2.142  0.5803  2.6178  0.3625
    2CHTO  H109  616   5.068   5.157   2.088 -2.5277  0.6543 -1.8516
    2CHTO   C61  617   4.988   5.424   2.295  0.7557 -0.2942  0.0200
    2CHTO  H118  618   5.003   5.361   2.383  0.5092 -0.6978 -0.2240
    2CHTO   O40  619   5.044   5.553   2.323 -0.3031 -0.3956 -0.3329
    2CHTO   C68  620   5.143   5.612   2.237  0.1767 -0.0680  0.1195
    2CHTO  H125  621   5.237   5.555   2.254  1.1677  1.8281  1.1391
    2CHTO   C72  622   5.164   5.761   2.276 -0.0276  0.1179  0.0212
    2CHTO   O48  623   5.274   5.816   2.213  0.3109 -0.1463  0.5428
    2CHTO  H105  624   5.256   5.813   2.121  0.6156  0.0552  0.4753
    2CHTO   O38  625   4.851   5.435   2.259 -0.4521  0.0269  0.3474
    2CHTO   C55  626   4.764   5.468   2.365  0.0890  0.0280  0.1166
    2CHTO  H112  627   4.828   5.524   2.434  1.8180  0.1272 -1.5468
    2CHTO   C56  628   4.697   5.337   2.419  0.1610  0.1891 -0.5947
    2CHTO  H113  629   4.637   5.302   2.333  2.2097  0.2188 -2.0814
    2CHTO   O42  630   4.784   5.231   2.432 -0.0701  0.7862 -0.2012
    2CHTO  H100  631   4.846   5.231   2.503  1.1950 -0.8129 -1.2593
    2CHTO   C57  632   4.617   5.368   2.553  0.5174 -0.0814 -0.3014
    2CHTO  H114  633   4.680   5.409   2.633 -1.3180  0.8690  0.6962
    2CHTO   N10  634   4.551   5.244   2.613 -0.0088  0.7547  0.4831
    2CHTO  H106  635   4.537   5.256   2.720  0.1982 -1.5146  0.7848
    2CHTO  H107  636   4.457   5.231   2.563 -1.1675  0.8788  2.5622
    2CHTO   C58  637   4.516   5.473   2.514 -0.3245  0.2306  0.2445
    2CHTO  H115  638   4.436   5.426   2.452  1.3789  1.6219 -3.1089
    2CHTO   O37  639   4.565   5.587   2.438  0.1863 -0.0210 -0.5543
    2CHTO   C59  640   4.646   5.566   2.328 -0.0550  0.5336 -0.2628
    2CHTO  H116  641   4.585   5.521   2.250 -1.3576 -0.2262  1.1627
    2CHTO   C70  642   4.696   5.710   2.294 -0.0226 -0.1367  0.4142
    2CHTO   O46  643   4.725   5.728   2.151  0.7344 -0.1411  0.3477
    2CHTO  H103  644   4.723   5.657   2.090  0.2882  0.4980 -0.3876
    2CHTO   O39  645   4.450   5.535   2.644  0.3660 -0.0128 -0.7922
    2CHTO   C60  646   4.308   5.552   2.647  0.1057  0.2730 -0.0105
    2CHTO  H117  647   4.268   5.521   2.550  0.4518 -3.1151  0.8745
    2CHTO   C62  648   4.250   5.461   2.759  0.0186  0.1979  0.4007
    2CHTO  H119  649   4.277   5.358   2.727  2.4716  0.8935  0.0862
    2CHTO   O43  650   4.305   5.486   2.888  0.0853  0.5147  0.2973
    2CHTO  H101  651   4.284   5.576   2.906 -2.1740  0.5314 -2.0804
    2CHTO   C66  652   4.090   5.469   2.755 -0.2982 -0.4883  0.3758
    2CHTO  H123  653   4.061   5.436   2.655  1.2402 -1.1104  0.1127
    2CHTO   N12  654   4.041   5.377   2.860  0.7356  0.8013 -0.3748
    2CHTO  H110  655   4.074   5.281   2.823  0.2417  0.2411  0.6019
    2CHTO  H111  656   4.098   5.399   2.949 -2.0334 -1.4306  2.0486
    2CHTO   C69  657   4.043   5.618   2.774 -0.2770 -0.5196 -0.5394
    2CHTO  H126  658   4.071   5.655   2.874  2.0292 -0.5734 -1.1410
    2CHTO   O41  659   4.116   5.723   2.680 -0.2057 -0.4085  0.1560
    2CHTO   C64  660   4.267   5.698   2.683 -0.1217  0.4243 -0.1954
    2CHTO  H121  661   4.309   5.724   2.783 -1.7633 -0.5108  0.7538
    2CHTO   C71  662   4.323   5.793   2.573 -0.2321  0.4185  0.2704
    2CHTO   O47  663   4.466   5.810   2.591 -0.3399 -0.0473 -0.0762
    2CHTO  H104  664   4.501   5.881   2.541 -2.6831  1.0051 -0.2729
    2CHTO   O34  665   3.924   5.637   2.765  0.6595  0.3193  0.0071
    2CHTO   C49  666   3.827   5.776   2.783  0.4165 -0.2146  0.7656
    2CHTO   H91  667   3.756   5.747   2.861 -1.1165 -0.8464 -0.8416
    2CHTO   C47  668   3.755   5.813   2.647  0.0738  0.4682 -0.3549
    2CHTO   H89  669   3.681   5.893   2.668 -0.0597  0.0502  0.7865
    2CHTO   O33  670   3.684   5.701   2.599  0.1185  0.1739  0.7002
    2CHTO   H70  671   3.720   5.619   2.627  0.2609 -0.3051 -0.8575
    2CHTO   C45  672   3.866   5.868   2.547 -0.3429 -0.2405  0.3315
    2CHTO   H87  673   3.948   5.797   2.531 -1.2084 -0.3538 -4.2338
    2CHTO    N8  674   3.808   5.878   2.413  0.0449  0.1504  0.4553
    2CHTO   H75  675   3.786   5.779   2.377  1.3206  0.5852 -1.6235
    2CHTO   H76  676   3.866   5.933   2.340 -2.0402  0.3269 -1.1240
    2CHTO   C43  677   3.921   6.005   2.611  0.4921 -0.1808  0.7421
    2CHTO   H85  678   3.986   6.049   2.536 -0.7842  0.5192  0.0341
    2CHTO   O29  679   3.995   5.969   2.732  0.5515  0.3123  0.3355
    2CHTO   C50  680   3.917   5.896   2.833  0.2387  0.4739  0.3106
    2CHTO   H92  681   3.986   5.853   2.908 -1.0144  0.9084  1.7414
    2CHTO   C54  682   3.827   5.983   2.925 -0.9026 -0.5436 -0.2146
    2CHTO   O36  683   3.909   6.065   2.999  0.4714 -0.1189  0.1243
    2CHTO   H72  684   3.866   6.111   3.069  1.2853  1.3552 -0.3105
    2CHTO   O27  685   3.817   6.099   2.639  0.0882 -0.1842  0.3152
    2CHTO   C37  686   3.777   6.208   2.560 -0.2301  0.1400  0.2667
    2CHTO   H79  687   3.794   6.187   2.453 -1.9049  0.8098 -0.1423
    2CHTO   C38  688   3.622   6.217   2.573  1.1920  0.2007 -0.2716
    2CHTO   H80  689   3.602   6.220   2.681 -0.4190 -0.2208 -0.5392
    2CHTO   O31  690   3.552   6.100   2.514  0.4532 -0.0885 -0.4800
    2CHTO   H68  691   3.471   6.094   2.562  0.7975  3.4863  0.7106
    2CHTO   C39  692   3.563   6.359   2.517  0.0089 -0.4215 -0.1303
    2CHTO   H81  693   3.576   6.369   2.410 -0.5765 -0.9218 -0.2506
    2CHTO    N7  694   3.417   6.380   2.555 -0.2890  0.4288  0.1899
    2CHTO   H73  695   3.385   6.479   2.525 -0.7672  0.8272  2.0027
    2CHTO   H74  696   3.365   6.286   2.560  2.9106 -1.4034  0.3605
    2CHTO   C40  697   3.650   6.482   2.565  0.2411  0.2314 -0.0425
    2CHTO   H82  698   3.653   6.492   2.673 -0.8417 -0.7909  0.0982
    2CHTO   O26  699   3.783   6.455   2.510  0.6068  0.2930 -0.0977
    2CHTO   C41  700   3.840   6.349   2.590 -0.2459 -0.6231  0.3311
    2CHTO   H83  701   3.824   6.355   2.698  0.3207 -0.5143  0.4111
    2CHTO   C52  702   3.991   6.353   2.563  0.1149  0.1972  0.1548
    2CHTO   O35  703   4.046   6.488   2.593 -0.2581 -0.6515  0.9689
    2CHTO   H71  704   4.124   6.479   2.645 -0.8840 -1.3518  1.7796
    2CHTO   O28  705   3.615   6.606   2.504 -0.3658 -0.3410 -0.3650
    2CHTO   C42  706   3.653   6.737   2.564 -0.3259  0.3367  0.5040
    2CHTO   H84  707   3.614   6.808   2.492  1.0606  2.2322  1.5829
    2CHTO   C44  708   3.809   6.755   2.578 -0.2069 -0.0620 -0.2640
    2CHTO   H86  709   3.851   6.679   2.645 -1.0580  0.8946  1.3918
    2CHTO   O32  710   3.867   6.743   2.448  0.1593 -0.3737  0.2247
    2CHTO   H69  711   3.875   6.657   2.411  0.0037 -1.1158  1.8916
    2CHTO   C48  712   3.849   6.894   2.638 -0.4765 -0.0176 -0.3895
    2CHTO   H90  713   3.827   6.967   2.560  2.0236  1.1584 -0.0336
    2CHTO    N9  714   3.998   6.907   2.652 -0.3495  0.5612 -0.2404
    2CHTO   H77  715   4.043   6.933   2.557  1.1054  1.6405  0.7165
    2CHTO   H78  716   4.045   6.815   2.685 -0.4246  0.4720 -0.3829
    2CHTO   C51  717   3.779   6.919   2.778  0.3618 -0.6438 -0.5625
    2CHTO   H93  718   3.817   6.844   2.846  1.5850  0.0672 -0.4519
    2CHTO   O30  719   3.635   6.911   2.755  0.0629 -0.6899 -0.3111
    2CHTO   C46  720   3.584   6.774   2.703  0.0229  0.1660 -0.2344
    2CHTO   H88  721   3.612   6.698   2.776  0.9221  1.5391  0.8777
    2CHTO   C53  722   3.435   6.786   2.683  0.1429 -0.0453  0.0151
    2CHTO   O72  723   3.386   6.909   2.623 -0.5519 -0.3071  0.0213
    2CHTO  H199  724   3.293   6.903   2.617 -0.4079 -1.2135 -1.6586
    2CHTO   O22  725   3.795   7.050   2.839  0.5618  0.2334 -0.1013
    2CHTO   C31  726   3.775   7.065   2.986  0.3637  0.5154 -0.0778
    2CHTO   H59  727   3.790   7.173   3.009  2.8385 -0.4484  3.2108
    2CHTO   C29  728   3.645   7.021   3.051 -0.8772 -0.7955  1.2058
    2CHTO   H57  729   3.635   6.913   3.033  0.8522 -1.2804  2.8737
    2CHTO   O21  730   3.533   7.079   2.983  0.2914 -0.0399 -0.1009
    2CHTO   H37  731   3.548   7.171   2.973  0.5408  0.3465  3.2298
    2CHTO   C27  732   3.648   7.050   3.201 -1.0126 -0.7068  0.0655
    2CHTO   H55  733   3.668   7.157   3.215 -0.3335 -0.6810 -1.1403
    2CHTO    N5  734   3.523   7.014   3.272 -0.2826 -0.8153  0.2903
    2CHTO   H43  735   3.505   6.908   3.280 -2.2282 -0.4523  1.1364
    2CHTO   H44  736   3.506   7.074   3.360 -2.3717  0.2741 -0.8065
    2CHTO   C25  737   3.770   6.981   3.268  0.2293 -0.0673 -0.0682
    2CHTO   H53  738   3.757   6.878   3.233 -3.0284  0.5607 -0.8262
    2CHTO   O17  739   3.888   7.029   3.198 -0.2058  0.6181 -0.0097
    2CHTO   C32  740   3.893   6.993   3.059  0.2173  0.6981 -0.2864
    2CHTO   H60  741   3.895   6.887   3.035  0.1705  0.7773 -0.6420
    2CHTO   C36  742   4.026   7.060   3.008  0.2973 -0.1601 -0.0468
    2CHTO   O25  743   4.129   6.969   3.044  0.4661  0.1762  0.3302
    2CHTO   H40  744   4.210   7.009   3.070  0.1045 -0.2312  2.1320
    2CHTO   O15  745   3.793   6.985   3.424 -0.1089  0.2298 -0.1656
    2CHTO   C19  746   3.727   6.907   3.535 -0.1564 -0.3549 -0.2679
    2CHTO   H47  747   3.623   6.888   3.505 -0.3068  0.4401 -0.2476
    2CHTO   C20  748   3.797   6.766   3.562  0.1769  0.3812  1.1828
    2CHTO   H48  749   3.906   6.774   3.571  0.1328  0.9209  1.2551
    2CHTO   O19  750   3.769   6.694   3.438 -0.0595  0.3839  0.2520
    2CHTO   H35  751   3.847   6.650   3.413  0.0750 -0.4311  2.0062
    2CHTO   C21  752   3.736   6.689   3.678  0.0929  0.7292 -0.1307
    2CHTO   H49  753   3.639   6.650   3.646  1.0976 -2.8799  0.9644
    2CHTO    N4  754   3.809   6.562   3.713 -0.6596 -0.6373 -0.3524
    2CHTO   H41  755   3.836   6.572   3.817 -2.5001 -0.2401  0.1118
    2CHTO   H42  756   3.742   6.477   3.717  1.3082 -2.2697 -1.1648
    2CHTO   C22  757   3.724   6.787   3.800  0.0651  0.5024 -0.2701
    2CHTO   H50  758   3.824   6.804   3.839 -0.3497  1.6866  0.3031
    2CHTO   O14  759   3.657   6.907   3.770 -0.5946  0.2259 -0.3147
    2CHTO   C23  760   3.722   6.988   3.668 -0.7675  0.0113 -0.2504
    2CHTO   H51  761   3.825   7.014   3.700 -0.9913 -0.3082  0.7509
    2CHTO   C34  762   3.640   7.121   3.668  0.2596  0.7278 -0.1819
    2CHTO   O23  763   3.697   7.215   3.576 -0.3601 -0.2537 -0.0712
    2CHTO   H38  764   3.774   7.259   3.606 -0.0776 -0.0943 -1.0214
    2CHTO   O16  765   3.644   6.720   3.902  0.6012 -0.0987  0.0853
    2CHTO   C24  766   3.681   6.755   4.050 -1.0937 -1.0650 -0.2940
    2CHTO   H52  767   3.748   6.841   4.059 -0.1035 -2.0541  2.5341
    2CHTO   C26  768   3.745   6.633   4.117  1.6597 -0.1311 -0.1959
    2CHTO   H54  769   3.668   6.554   4.128  1.3530  0.4851  2.5115
    2CHTO   O20  770   3.850   6.581   4.033  0.1492  0.0655 -0.3271
    2CHTO   H36  771   3.846   6.488   4.032  0.2397  0.0199  1.7811
    2CHTO   C30  772   3.788   6.668   4.263 -0.9547 -0.2713 -0.5904
    2CHTO   H58  773   3.861   6.750   4.252 -0.6704 -0.2788  1.0648
    2CHTO    N6  774   3.848   6.553   4.333 -0.0156  1.0336 -0.2718
    2CHTO   H45  775   3.914   6.601   4.404  0.5461 -0.8107  0.4747
    2CHTO   H46  776   3.905   6.493   4.263  0.8569  0.5616  0.8267
    2CHTO   C33  777   3.672   6.728   4.340 -0.1116 -0.6739 -0.4082
    2CHTO   H61  778   3.598   6.649   4.361 -3.0003  2.2434  0.8375
    2CHTO   O18  779   3.607   6.835   4.269 -0.1954  0.5012 -0.3057
    2CHTO   C28  780   3.560   6.787   4.141  0.2231  0.4264 -0.3415
    2CHTO   H56  781   3.495   6.700   4.155  1.9250 -1.2420 -2.4657
    2CHTO   C35  782   3.466   6.884   4.068  0.0108  0.1889 -0.2570
    2CHTO   O24  783   3.341   6.903   4.138 -0.1289  0.1616  0.0820
    2CHTO   H39  784   3.289   6.951   4.076  2.7211  1.1260 -1.6161
    2CHTO    O9  785   3.712   6.776   4.476  0.2819 -0.0183 -0.2283
    2CHTO   C13  786   3.615   6.748   4.589  0.8845  0.0470 -0.4997
    2CHTO   H26  787   3.582   6.643   4.573 -0.3430 -0.0877  2.4572
    2CHTO   C11  788   3.494   6.850   4.582 -0.5853 -0.6919  0.4928
    2CHTO   H24  789   3.435   6.824   4.493  1.5476  1.3633 -1.6048
    2CHTO    O8  790   3.538   6.989   4.564 -0.4353  0.6388 -0.2508
    2CHTO    H3  791   3.558   7.028   4.647  1.0450 -1.6942  0.5388
    2CHTO    C9  792   3.402   6.822   4.707  1.1865 -0.0637 -0.3796
    2CHTO   H22  793   3.390   6.713   4.718 -1.5267  0.4197  2.0295
    2CHTO    N2  794   3.270   6.882   4.719 -0.1976  0.2305 -0.6854
    2CHTO   H10  795   3.197   6.805   4.697  0.5578 -0.4967 -0.6715
    2CHTO   H11  796   3.259   6.924   4.818 -0.0240  1.9440 -1.3805
    2CHTO    C7  797   3.494   6.859   4.834 -0.2307  0.6153 -0.0396
    2CHTO   H20  798   3.428   6.852   4.923  1.0022  1.3486  0.9497
    2CHTO    O4  799   3.600   6.760   4.840 -0.0247  0.1952 -0.2378
    2CHTO   C14  800   3.686   6.748   4.726 -0.4390  0.8202 -0.5138
    2CHTO   H27  801   3.723   6.644   4.724  3.5897  2.1311  1.3952
    2CHTO   C18  802   3.817   6.831   4.740 -0.2844 -0.3422 -0.2425
    2CHTO   O13  803   3.889   6.811   4.861 -0.2963 -0.4579 -0.7194
    2CHTO    H7  804   3.961   6.871   4.854 -0.0434 -0.5217  1.0039
    2CHTO    O2  805   3.564   7.001   4.826 -0.4788  0.2751 -0.1934
    2CHTO    C1  806   3.515   7.084   4.927 -0.0296  0.1359 -0.9034
    2CHTO   H14  807   3.415   7.059   4.968  0.8282  0.0290  1.1776
    2CHTO    C2  808   3.501   7.227   4.867  0.1973  0.4145  0.9525
    2CHTO   H15  809   3.591   7.247   4.808 -0.9243 -0.5594 -1.1605
    2CHTO    O6  810   3.388   7.218   4.772  0.7832  0.2898 -0.0466
    2CHTO    H1  811   3.320   7.280   4.789  0.9146  0.8320 -1.4389
    2CHTO    C3  812   3.476   7.338   4.981 -0.6754  0.4914  0.4456
    2CHTO   H16  813   3.386   7.310   5.038 -0.2060 -2.3193 -0.1373
    2CHTO    N1  814   3.458   7.476   4.934 -0.3103 -0.4863  0.4314
    2CHTO    H8  815   3.496   7.547   5.006  0.4674  1.0298 -1.4414
    2CHTO    H9  816   3.517   7.487   4.844  1.2494 -2.9276  1.0891
    2CHTO    C4  817   3.595   7.325   5.081  0.1529  0.8261 -0.0517
    2CHTO   H17  818   3.684   7.342   5.021  1.5419 -0.5752  1.5774
    2CHTO    O1  819   3.601   7.192   5.141 -0.3114  0.0125  0.1052
    2CHTO    C5  820   3.624   7.086   5.050  0.1259 -0.2661 -0.4718
    2CHTO   H18  821   3.720   7.108   5.004  0.4179 -1.9317 -0.6925
    2CHTO   C16  822   3.630   6.947   5.116 -0.0825 -1.1741  0.7800
    2CHTO   O11  823   3.506   6.906   5.168 -0.6489 -0.2599  0.3050
    2CHTO    H5  824   3.485   6.829   5.119 -1.3754  0.0113  0.1817
    2CHTO    O3  825   3.599   7.410   5.202  0.8642  0.2548 -0.3288
    2CHTO    C6  826   3.729   7.455   5.243  0.5264 -0.6050 -0.0857
    2CHTO   H19  827   3.815   7.402   5.201  1.2791  0.1316  0.4917
    2CHTO    C8  828   3.759   7.610   5.205  1.0201 -0.0086 -0.4923
    2CHTO   H21  829   3.672   7.668   5.236  1.9750  0.9084  0.4852
    2CHTO    O7  830   3.771   7.621   5.067  0.0001  0.2496 -0.2276
    2CHTO    H2  831   3.689   7.656   5.037  1.7254  3.4686 -1.4400
    2CHTO   C12  832   3.895   7.660   5.270  0.5138  0.0085  0.2022
    2CHTO   H25  833   3.976   7.598   5.226 -0.7354 -0.4480 -1.4566
    2CHTO    N3  834   3.939   7.802   5.232  0.1814  0.3239  0.2508
    2CHTO   H12  835   3.884   7.881   5.281  0.8805  0.5187  0.7206
    2CHTO   H13  836   3.942   7.809   5.124  1.2016 -1.0745  0.1710
    2CHTO   C15  837   3.897   7.636   5.423 -0.1379 -0.6182 -0.2685
    2CHTO   H28  838   3.829   7.708   5.469  0.5632  0.0079 -0.2041
    2CHTO   O10  839   4.050   7.647   5.483  0.4814  0.2963 -0.6088
    2CHTO    H4  840   4.044   7.656   5.576  1.5531 -1.6089 -0.3303
    2CHTO    O5  841   3.862   7.502   5.456 -0.2846 -0.6001  0.1862
    2CHTO   C10  842   3.740   7.445   5.397  0.5774 -0.1473 -0.3016
    2CHTO   H23  843   3.665   7.510   5.444 -0.3898 -1.0254 -0.6049
    2CHTO   C17  844   3.724   7.302   5.449 -0.1842  0.7658 -0.0080
    2CHTO   O12  845   3.635   7.291   5.559  0.1952  0.0389 -0.2826
    2CHTO    H6  846   3.588   7.369   5.581  1.1542  1.2892 -2.4744
    3CHTO  H203  847   7.960   1.539   1.395  0.6013 -0.1375 -0.1344
    3CHTO   O82  848   7.902   1.506   1.328  0.7188 -0.6615  0.0215
    3CHTO  C123  849   7.819   1.409   1.394 -0.4490 -0.1847  0.7408
    3CHTO  H227  850   7.859   1.386   1.494  0.2392 -1.9955  0.0563
    3CHTO   O77  851   7.688   1.473   1.396  0.2865 -0.8329  0.3737
    3CHTO  C118  852   7.596   1.408   1.483 -0.6808 -0.6151 -0.2531
    3CHTO  H222  853   7.636   1.392   1.584 -1.5392 -3.8591 -0.3822
    3CHTO  C125  854   7.473   1.500   1.489 -0.2104 -0.6622  0.7244
    3CHTO   O84  855   7.507   1.614   1.566 -0.3820 -0.0852 -0.3799
    3CHTO  H205  856   7.456   1.691   1.547  1.8222  1.7641  0.9721
    3CHTO  C114  857   7.572   1.269   1.412  0.1975 -0.2534 -0.3679
    3CHTO  H218  858   7.529   1.286   1.313 -1.4056  0.1265  0.3749
    3CHTO  C116  859   7.706   1.191   1.396  0.2351  0.1740  0.1323
    3CHTO  H220  860   7.742   1.159   1.495 -0.6804 -1.2791  0.0108
    3CHTO   O79  861   7.662   1.072   1.331 -0.0015  0.0600  0.2910
    3CHTO  H201  862   7.611   1.022   1.392  0.5803 -0.1530  0.6071
    3CHTO  C120  863   7.806   1.272   1.312 -0.1582  0.1543  1.1722
    3CHTO  H224  864   7.750   1.289   1.218 -0.8792 -1.2571  1.3379
    3CHTO   N21  865   7.936   1.211   1.290  0.3009 -0.3532  0.2577
    3CHTO  H211  866   7.929   1.108   1.258 -1.6974 -0.1652 -0.0058
    3CHTO  H212  867   8.009   1.221   1.369  0.2211  1.6044  0.0934
    3CHTO   O75  868   7.472   1.211   1.503 -0.2137 -0.3785 -0.4345
    3CHTO  C112  869   7.340   1.143   1.415 -0.3192 -0.1650 -0.4403
    3CHTO  H216  870   7.377   1.120   1.314  0.5163  1.9116 -0.6310
    3CHTO   O73  871   7.242   1.242   1.412 -0.0629 -0.0790  0.4312
    3CHTO  C113  872   7.129   1.201   1.334  0.3369  0.1653 -0.3355
    3CHTO  H217  873   7.169   1.164   1.237  3.3950 -0.1832  0.9756
    3CHTO  C124  874   7.031   1.317   1.310 -0.1698 -0.3256 -0.2655
    3CHTO   O83  875   6.970   1.304   1.179 -0.0663 -0.0128 -0.5744
    3CHTO  H204  876   6.912   1.375   1.161 -1.4423 -1.1250 -0.5774
    3CHTO  C109  877   7.052   1.089   1.407 -0.2693  0.0982 -0.0516
    3CHTO  H213  878   7.026   1.130   1.506 -0.5330  1.5365 -0.6945
    3CHTO  C110  879   7.146   0.967   1.426  0.6313  0.7710  0.3406
    3CHTO  H214  880   7.169   0.925   1.328 -2.6019 -0.9114  0.2289
    3CHTO   O78  881   7.089   0.856   1.497  0.4718 -0.3144  0.6127
    3CHTO  H200  882   7.145   0.781   1.498 -1.3875 -1.7668  0.4366
    3CHTO  C111  883   7.275   1.021   1.490 -0.1473  0.0017 -0.2434
    3CHTO  H215  884   7.248   1.054   1.591  1.5240 -0.7074  0.4594
    3CHTO   N19  885   7.379   0.912   1.510  0.0056  0.3044  0.0895
    3CHTO  H207  886   7.409   0.872   1.414  2.0851  0.5947  0.5983
    3CHTO  H208  887   7.468   0.959   1.550  0.9690 -0.1547 -1.4607
    3CHTO   O74  888   6.930   1.048   1.341 -0.2175  0.1831 -0.1990
    3CHTO  C115  889   6.820   1.002   1.469 -0.5608  0.4965 -0.4120
    3CHTO  H219  890   6.870   0.941   1.544 -0.3384 -1.7236 -2.2733
    3CHTO   O76  891   6.771   1.121   1.551  0.1131 -0.0795 -1.0585
    3CHTO  C122  892   6.685   1.210   1.482  0.0121  0.1634 -0.9197
    3CHTO  H226  893   6.742   1.252   1.399  1.1867  0.8035  0.1811
    3CHTO  C126  894   6.647   1.331   1.567  0.2744  0.0557  0.2993
    3CHTO   O85  895   6.739   1.435   1.600 -0.1717 -0.4680 -0.6886
    3CHTO  H206  896   6.751   1.509   1.545  0.5083 -1.2972 -1.6727
    3CHTO  C121  897   6.555   1.143   1.427  0.5262  0.0701 -0.0376
    3CHTO  H225  898   6.471   1.183   1.488  0.3169 -0.1121 -0.2017
    3CHTO   O81  899   6.547   1.184   1.287  0.2567 -0.4216 -0.4141
    3CHTO  H202  900   6.464   1.198   1.245  0.8276 -0.1895 -1.4846
    3CHTO  C119  901   6.555   0.990   1.447  0.3061 -0.7076 -0.5646
    3CHTO  H223  902   6.543   0.968   1.553  3.8273 -1.2526 -0.2146
    3CHTO  C117  903   6.691   0.929   1.401 -0.1604 -0.0665 -0.2537
    3CHTO  H221  904   6.714   0.936   1.295 -0.8902  2.6106 -0.2678
    3CHTO   N20  905   6.696   0.782   1.431  0.1852 -0.5791  0.4075
    3CHTO  H209  906   6.689   0.762   1.537 -0.1833  0.5716  0.6116
    3CHTO  H210  907   6.787   0.741   1.389 -1.1101 -3.0963  0.0027
    3CHTO   O80  908   6.428   0.923   1.381  0.0312 -0.2029 -0.0996
    3CHTO  C103  909   6.287   0.928   1.446  0.6084 -0.2414 -1.2918
    3CHTO  H190  910   6.294   0.997   1.530  0.2290  0.0925 -1.5319
    3CHTO  C101  911   6.166   0.982   1.352 -0.4243 -0.8433  0.6230
    3CHTO  H188  912   6.173   0.932   1.256 -1.3183  2.8145 -1.4481
    3CHTO   O68  913   6.177   1.144   1.311  0.1873  0.1754 -0.9782
    3CHTO  H168  914   6.095   1.186   1.328  0.4032  2.1181 -4.2932
    3CHTO   C99  915   6.028   0.947   1.420  0.0379  0.2103  0.3953
    3CHTO  H186  916   6.027   0.999   1.518 -1.2731 -2.1439  1.6677
    3CHTO   N17  917   5.914   0.989   1.337 -0.4330 -0.2094  0.2004
    3CHTO  H174  918   5.947   1.086   1.305  2.7564 -0.5710  2.0910
    3CHTO  H175  919   5.820   0.985   1.390 -0.8918 -1.1327 -0.6515
    3CHTO   C97  920   6.027   0.795   1.445 -0.1877 -0.2512  0.5366
    3CHTO  H184  921   6.042   0.741   1.350  1.0309  1.3776 -0.2229
    3CHTO   O64  922   6.128   0.765   1.542 -0.0309 -0.0452  0.2090
    3CHTO  C104  923   6.267   0.784   1.503  0.4320  0.4108  0.6098
    3CHTO  H191  924   6.296   0.711   1.428  0.3303  0.7555  0.2367
    3CHTO  C108  925   6.352   0.767   1.627 -0.1621  0.3542 -0.3518
    3CHTO   O71  926   6.408   0.636   1.643  0.4449  0.0352 -0.2079
    3CHTO  H171  927   6.434   0.627   1.733  0.6061  0.1641 -0.2405
    3CHTO   O62  928   5.908   0.758   1.524  0.1708  0.0482  0.4663
    3CHTO   C91  929   5.846   0.632   1.502 -0.0664 -0.3426  0.4851
    3CHTO  H178  930   5.901   0.593   1.417 -0.1258 -1.9911  1.1761
    3CHTO   C92  931   5.695   0.664   1.462 -0.1463  0.5738 -0.3534
    3CHTO  H179  932   5.637   0.711   1.543 -1.7814 -3.5690  1.0232
    3CHTO   O66  933   5.704   0.758   1.352  0.1226  0.2784  0.2409
    3CHTO  H166  934   5.738   0.841   1.378  2.7053 -0.8208  0.5363
    3CHTO   C93  935   5.622   0.532   1.421 -0.0506  0.2825 -0.2314
    3CHTO  H180  936   5.668   0.498   1.328  0.6494  0.2668  0.1149
    3CHTO   N16  937   5.482   0.553   1.384 -0.0105 -0.6617  0.4026
    3CHTO  H172  938   5.428   0.467   1.346  0.8965  0.5822 -3.9677
    3CHTO  H173  939   5.422   0.602   1.460  1.0282 -0.2871  0.9878
    3CHTO   C94  940   5.639   0.422   1.536  0.1400  0.2609  0.0798
    3CHTO  H181  941   5.544   0.385   1.573  0.7977 -1.1471  0.4104
    3CHTO   O61  942   5.722   0.468   1.650 -0.5734 -0.1087  0.5210
    3CHTO   C95  943   5.854   0.531   1.624 -0.6735 -0.0340  0.1516
    3CHTO  H182  944   5.881   0.593   1.710 -1.7114 -0.4324  0.7888
    3CHTO  C106  945   5.969   0.429   1.605  0.1217 -0.5916  0.1713
    3CHTO   O69  946   5.979   0.363   1.732 -0.0149  0.5258  0.3599
    3CHTO  H169  947   6.015   0.420   1.797  0.5235 -1.0017  1.4317
    3CHTO   O63  948   5.714   0.291   1.468 -0.1723  0.0627 -0.4084
    3CHTO   C96  949   5.628   0.152   1.466  0.2843 -0.3529 -0.4730
    3CHTO  H183  950   5.687   0.088   1.401 -0.1390 -0.6852 -0.5306
    3CHTO   C98  951   5.479   0.160   1.423  1.1158  0.2067  0.3055
    3CHTO  H185  952   5.420   0.229   1.484  0.1707  0.7584 -1.1975
    3CHTO   O67  953   5.481   0.204   1.287  0.2014 -0.1708  0.0589
    3CHTO  H167  954   5.468   0.293   1.262  2.0101 -0.6737 -3.0440
    3CHTO  C102  955   5.413   0.006   1.426  0.4084 -0.1160  0.0111
    3CHTO  H189  956   5.461  -0.045   1.341  1.0147 -0.3548  0.4983
    3CHTO   N18  957   5.265   0.006   1.400  0.1671 -0.3884 -0.1524
    3CHTO  H176  958   5.221   0.104   1.404 -0.2047 -0.6368  3.2668
    3CHTO  H177  959   5.225  -0.050   1.317  0.4519 -0.0309 -0.5342
    3CHTO  C105  960   5.445  -0.064   1.559  0.5834 -0.2235 -0.1195
    3CHTO  H192  961   5.389  -0.017   1.640 -1.3531 -0.2061 -1.4237
    3CHTO   O65  962   5.586  -0.048   1.591  0.1202 -0.6212  0.1430
    3CHTO  C100  963   5.638   0.086   1.609 -0.1666  0.3690  0.0761
    3CHTO  H187  964   5.589   0.140   1.691 -0.8195 -0.6238  0.3477
    3CHTO  C107  965   5.785   0.074   1.654 -0.2223 -0.2639 -0.2542
    3CHTO   O70  966   5.814  -0.009   1.767 -0.3806 -0.3014  0.2338
    3CHTO  H170  967   5.905  -0.018   1.786 -0.5196 -0.5888  0.7728
    3CHTO   O57  968   5.415  -0.229   1.536  0.5610  0.2065  0.0196
    3CHTO   C85  969   5.370  -0.322   1.634 -0.5113  0.5109 -0.4314
    3CHTO  H157  970   5.357  -0.413   1.572 -0.5636  0.2203  0.0046
    3CHTO   C83  971   5.225  -0.282   1.677  0.6720 -0.2322 -0.3678
    3CHTO  H155  972   5.159  -0.298   1.591  0.6342 -0.1179 -0.3605
    3CHTO   O56  973   5.208  -0.145   1.714  0.1609 -0.7499  0.8315
    3CHTO  H135  974   5.204  -0.082   1.644  0.5441  0.9778  2.3098
    3CHTO   C81  975   5.179  -0.376   1.794 -0.8726 -0.6339  0.2637
    3CHTO  H153  976   5.188  -0.479   1.759  1.7686 -1.0474  2.0341
    3CHTO   N14  977   5.034  -0.357   1.832  0.4894  0.1839 -0.8311
    3CHTO  H141  978   4.964  -0.390   1.758 -1.1383  0.9325  0.3501
    3CHTO  H142  979   5.011  -0.259   1.868  0.4012  0.7707 -2.4201
    3CHTO   C79  980   5.285  -0.363   1.917  0.6082 -0.6210  0.0210
    3CHTO  H151  981   5.246  -0.425   1.998 -0.7641  1.7457  1.2452
    3CHTO   O52  982   5.412  -0.415   1.870  0.5794  0.4162  0.2367
    3CHTO   C86  983   5.467  -0.343   1.753  0.0927 -0.3483  0.0520
    3CHTO  H158  984   5.489  -0.248   1.805 -1.3567 -0.2057  0.4456
    3CHTO   C90  985   5.598  -0.412   1.704 -0.7007 -0.2572  0.0287
    3CHTO   O60  986   5.668  -0.339   1.609  0.3701  0.1697 -0.4199
    3CHTO  H138  987   5.731  -0.385   1.556  0.4615 -1.9432  1.4827
    3CHTO   O50  988   5.293  -0.231   1.972  0.9910 -0.1856  0.2301
    3CHTO   C73  989   5.280  -0.156   2.089 -0.0855  0.1406  0.4890
    3CHTO  H145  990   5.338  -0.217   2.161 -0.4254  0.7205  1.2515
    3CHTO   C74  991   5.131  -0.150   2.135  0.4152 -0.5965 -0.0908
    3CHTO  H146  992   5.084  -0.249   2.139 -1.6847  0.3936  0.6109
    3CHTO   O54  993   5.118  -0.103   2.270  0.1056  0.3197 -0.0187
    3CHTO  H133  994   5.027  -0.089   2.286 -0.1569 -0.8805 -0.4443
    3CHTO   C75  995   5.050  -0.056   2.035  0.5077 -0.3394 -0.1424
    3CHTO  H147  996   5.048  -0.102   1.935 -0.3048  0.2716 -0.4126
    3CHTO   N13  997   4.905  -0.047   2.058  0.0338 -0.1190 -0.2932
    3CHTO  H139  998   4.865   0.030   1.994  0.4399  1.6897  1.5292
    3CHTO  H140  999   4.883  -0.023   2.161 -0.5411  0.5091 -0.5601
    3CHTO   C76 1000   5.126   0.084   2.023  0.9278 -0.2332 -0.4708
    3CHTO  H148 1001   5.103   0.139   2.114 -1.9723 -2.0585 -0.0128
    3CHTO   O49 1002   5.272   0.074   1.995  0.1004  0.0921 -0.3013
    3CHTO   C77 1003   5.347  -0.017   2.077 -0.2632  0.1184  0.0143
    3CHTO  H149 1004   5.337   0.035   2.173  0.5018  0.8279 -0.2855
    3CHTO   C88 1005   5.493  -0.027   2.032  0.0476 -0.1030  0.0404
    3CHTO   O58 1006   5.566  -0.129   2.113  0.2724  0.3919  0.0260
    3CHTO  H136 1007   5.633  -0.095   2.169 -0.5253  0.3863  1.0225
    3CHTO   O51 1008   5.066   0.156   1.900  0.3591 -0.0155  0.1129
    3CHTO   C78 1009   5.094   0.317   1.897 -0.4507  1.0524 -0.0157
    3CHTO  H150 1010   5.191   0.346   1.941 -1.4802  1.4008  2.0642
    3CHTO   C80 1011   4.978   0.387   1.970 -0.1153 -0.1060  0.4623
    3CHTO  H152 1012   4.886   0.341   1.930 -0.4604  1.6527 -0.7996
    3CHTO   O55 1013   4.987   0.356   2.115 -0.4182 -0.2279  0.3405
    3CHTO  H134 1014   5.055   0.404   2.158  1.5617 -1.4198 -1.3322
    3CHTO   C84 1015   4.981   0.544   1.939 -0.1633  0.4663  0.1950
    3CHTO  H156 1016   5.063   0.586   1.997  0.9080  0.0801 -1.0145
    3CHTO   N15 1017   4.860   0.601   2.005  0.9624  0.2899  0.1633
    3CHTO  H143 1018   4.796   0.649   1.934  2.3387 -0.6951 -1.8205
    3CHTO  H144 1019   4.889   0.667   2.084  0.8828 -0.2967  0.6835
    3CHTO   C87 1020   4.990   0.577   1.790  0.0639 -0.2900 -0.0990
    3CHTO  H159 1021   4.901   0.546   1.734 -0.6473  1.6833 -0.1182
    3CHTO   O53 1022   5.104   0.501   1.731 -0.0329  0.5321  0.0812
    3CHTO   C82 1023   5.097   0.354   1.746  0.8458  0.5924 -0.0044
    3CHTO  H154 1024   5.006   0.324   1.696  0.4750  0.4749  0.7378
    3CHTO   C89 1025   5.212   0.278   1.674  0.3065  0.2124  0.2864
    3CHTO   O59 1026   5.207   0.317   1.532  0.1903 -0.3911  0.0174
    3CHTO  H137 1027   5.261   0.255   1.486  1.3055  1.3413 -1.0699
    3CHTO   O45 1028   5.018   0.741   1.764  0.5015  0.0540 -0.2112
    3CHTO   C67 1029   5.156   0.780   1.766  0.2725 -0.6462 -0.1536
    3CHTO  H124 1030   5.211   0.702   1.819 -0.4502 -0.5929  0.6770
    3CHTO   C65 1031   5.212   0.802   1.623  0.2869 -0.2888  0.5693
    3CHTO  H122 1032   5.118   0.834   1.580 -0.7216 -1.8069  1.5986
    3CHTO   O44 1033   5.252   0.676   1.580  0.7263 -0.2153  0.0374
    3CHTO  H102 1034   5.345   0.672   1.587  0.6341  0.4877  1.9361
    3CHTO   C63 1035   5.308   0.923   1.608 -0.1907  0.1905 -0.7226
    3CHTO  H120 1036   5.245   1.010   1.591 -0.8151 -0.2447 -0.6456
    3CHTO   N11 1037   5.387   0.930   1.480  0.1276  0.6784 -0.2973
    3CHTO  H108 1038   5.319   0.943   1.398 -0.1226 -0.9150 -0.3569
    3CHTO  H109 1039   5.443   0.839   1.472 -0.1438  0.5358 -0.5613
    3CHTO   C61 1040   5.392   0.933   1.736  0.7881  0.7707 -0.4672
    3CHTO  H118 1041   5.451   1.025   1.720 -0.7239  1.8250 -0.0326
    3CHTO   O40 1042   5.309   0.957   1.847  0.5391  0.3375  0.0748
    3CHTO   C68 1043   5.173   0.914   1.851  0.4483  0.3678  0.6801
    3CHTO  H125 1044   5.101   0.987   1.809 -0.5797 -0.2638  1.3254
    3CHTO   C72 1045   5.136   0.894   1.996  0.2535 -0.0993 -0.0060
    3CHTO   O48 1046   5.178   1.007   2.078  0.1752  0.2386 -0.1813
    3CHTO  H105 1047   5.148   1.002   2.167 -2.1935  0.7675 -0.9412
    3CHTO   O38 1048   5.468   0.816   1.759 -0.3285 -0.5213  0.3503
    3CHTO   C55 1049   5.546   0.797   1.878  0.0336  0.5679 -0.2735
    3CHTO  H112 1050   5.526   0.864   1.963  2.1954  2.2345 -1.0290
    3CHTO   C56 1051   5.704   0.825   1.827 -0.1571 -0.7924 -0.6617
    3CHTO  H113 1052   5.725   0.770   1.734 -2.2389 -0.8498 -1.1384
    3CHTO   O42 1053   5.715   0.966   1.795  0.3448 -0.1673  0.2348
    3CHTO  H100 1054   5.806   0.988   1.790  0.9097 -2.5369 -0.5852
    3CHTO   C57 1055   5.803   0.778   1.950 -0.6123 -0.1601 -0.8731
    3CHTO  H114 1056   5.793   0.836   2.041  2.0815 -1.2984  0.1910
    3CHTO   N10 1057   5.945   0.792   1.912 -0.3846  0.6705 -0.3361
    3CHTO  H106 1058   5.985   0.890   1.932 -1.6263  1.4851 -1.7771
    3CHTO  H107 1059   6.001   0.717   1.966 -0.0803  0.9237 -0.3039
    3CHTO   C58 1060   5.772   0.630   1.986 -0.4485  0.3915  0.3020
    3CHTO  H115 1061   5.790   0.568   1.896 -2.3357  0.3528 -0.0659
    3CHTO   O37 1062   5.638   0.614   2.025  0.1880  0.2066 -0.2695
    3CHTO   C59 1063   5.545   0.647   1.921 -0.6197 -1.3160 -0.2230
    3CHTO  H116 1064   5.565   0.585   1.833  0.9603 -1.1792  0.0225
    3CHTO   C70 1065   5.411   0.601   1.975 -0.0015  0.2205  0.3635
    3CHTO   O46 1066   5.395   0.459   1.977 -0.5519 -0.3449 -0.2590
    3CHTO  H103 1067   5.375   0.430   1.890 -2.4066  2.2602 -0.7416
    3CHTO   O39 1068   5.858   0.577   2.113 -0.3740  0.2682 -0.0739
    3CHTO   C60 1069   5.910   0.445   2.097 -0.0576 -0.3406  0.4597
    3CHTO  H117 1070   5.857   0.402   2.012  1.8687  0.7493 -1.3318
    3CHTO   C62 1071   6.065   0.437   2.057  0.1344 -0.1577 -0.2053
    3CHTO  H119 1072   6.073   0.492   1.961  1.3356  0.6612  0.3568
    3CHTO   O43 1073   6.148   0.504   2.143 -0.1506  0.1412 -0.4923
    3CHTO  H101 1074   6.125   0.594   2.155 -0.6563  0.0327 -0.6255
    3CHTO   C66 1075   6.111   0.282   2.036 -0.3227  0.6202  0.5783
    3CHTO  H123 1076   6.047   0.244   1.956  2.9922 -1.4744 -1.1900
    3CHTO   N12 1077   6.247   0.259   1.984 -0.6746  0.7554  0.3333
    3CHTO  H110 1078   6.281   0.338   1.918  0.7777  0.4483  0.6863
    3CHTO  H111 1079   6.320   0.205   2.042  1.2153  3.0448  0.1721
    3CHTO   C69 1080   6.082   0.204   2.170  0.0570 -0.4446  0.1158
    3CHTO  H126 1081   6.127   0.247   2.262 -0.5948  1.3419 -0.3879
    3CHTO   O41 1082   5.934   0.211   2.181 -0.2222  0.4375 -0.0172
    3CHTO   C64 1083   5.884   0.358   2.217 -0.5063 -0.0778 -0.8173
    3CHTO  H121 1084   5.946   0.391   2.303  0.4337 -0.1310 -1.4749
    3CHTO   C71 1085   5.732   0.348   2.260 -0.0266  0.4334 -0.0918
    3CHTO   O47 1086   5.649   0.286   2.163  0.3636 -0.1237  0.5169
    3CHTO  H104 1087   5.575   0.244   2.202 -0.3505  0.1707 -0.5099
    3CHTO   O34 1088   6.128   0.049   2.166  0.0987 -0.3897 -0.2504
    3CHTO   C49 1089   6.175  -0.076   2.091 -0.1730  0.0745 -0.1758
    3CHTO   H91 1090   6.229  -0.043   2.002 -1.6123 -0.9062 -1.4420
    3CHTO   C47 1091   6.045  -0.148   2.053 -0.1418 -0.0846  0.3714
    3CHTO   H89 1092   6.018  -0.090   1.962 -1.8433  0.3170  1.1124
    3CHTO   O33 1093   5.942  -0.146   2.154 -0.1442 -0.7652  0.6246
    3CHTO   H70 1094   5.937  -0.058   2.187 -0.3325 -0.2237 -0.8290
    3CHTO   C45 1095   6.072  -0.300   2.015  0.8795  0.3789  0.2013
    3CHTO   H87 1096   6.035  -0.358   2.101  0.3050  0.5329  0.0568
    3CHTO    N8 1097   5.994  -0.343   1.896  0.5085  0.1527 -0.3295
    3CHTO   H75 1098   6.035  -0.299   1.806  1.5383 -0.3952 -0.1324
    3CHTO   H76 1099   6.008  -0.450   1.884  0.8470  0.3265 -1.5903
    3CHTO   C43 1100   6.232  -0.343   2.006 -0.2422 -1.1478 -0.7996
    3CHTO   H85 1101   6.222  -0.452   2.003 -1.7941 -1.0019 -1.5922
    3CHTO   O29 1102   6.300  -0.297   2.132 -0.3436  0.3470 -0.0209
    3CHTO   C50 1103   6.269  -0.164   2.178  0.1655 -0.1303  0.1051
    3CHTO   H92 1104   6.228  -0.174   2.280  1.0719 -0.7199  0.4225
    3CHTO   C54 1105   6.399  -0.081   2.201 -0.1672  0.1336 -0.3514
    3CHTO   O36 1106   6.395   0.035   2.281 -0.1491 -0.4959  0.3552
    3CHTO   H72 1107   6.464   0.096   2.261 -0.7612 -0.5111 -1.9029
    3CHTO   O27 1108   6.297  -0.283   1.891 -0.3135  0.0558  0.1641
    3CHTO   C37 1109   6.396  -0.206   1.823 -0.4512  0.1092  0.2146
    3CHTO   H79 1110   6.408  -0.109   1.873  1.5149 -0.4258  0.8139
    3CHTO   C38 1111   6.538  -0.285   1.828  0.6765 -0.3393 -0.1828
    3CHTO   H80 1112   6.517  -0.388   1.794 -0.2341 -0.5042  0.8470
    3CHTO   O31 1113   6.573  -0.295   1.968  0.1892  0.2972  0.1308
    3CHTO   H68 1114   6.560  -0.220   2.023 -1.1321 -0.2118  0.5432
    3CHTO   C39 1115   6.654  -0.212   1.747  0.3517 -0.1565 -0.6384
    3CHTO   H81 1116   6.671  -0.115   1.792  1.8917 -1.1844  1.0274
    3CHTO    N7 1117   6.779  -0.297   1.749  0.0486  0.4478 -0.1404
    3CHTO   H73 1118   6.796  -0.357   1.838  0.3824  0.7678  0.0091
    3CHTO   H74 1119   6.860  -0.230   1.726 -0.4799  0.9267 -0.5872
    3CHTO   C40 1120   6.600  -0.176   1.607  0.0547 -0.3022  0.3432
    3CHTO   H82 1121   6.592  -0.272   1.558 -2.1938 -0.2398  0.5285
    3CHTO   O26 1122   6.468  -0.111   1.609 -0.2541  0.3075  0.3002
    3CHTO   C41 1123   6.360  -0.186   1.671  0.3679  0.0901 -0.6800
    3CHTO   H83 1124   6.342  -0.280   1.615  0.9984  0.7008 -1.9222
    3CHTO   C52 1125   6.226  -0.111   1.659 -0.2642 -0.0970 -0.5250
    3CHTO   O35 1126   6.138  -0.177   1.541  0.0117  0.8484  0.3691
    3CHTO   H71 1127   6.179  -0.171   1.457  0.2606 -1.5494  0.3000
    3CHTO   O28 1128   6.687  -0.102   1.521 -0.4363  0.3925  0.4097
    3CHTO   C42 1129   6.700   0.039   1.464 -0.0895 -0.2412 -0.4328
    3CHTO   H84 1130   6.801   0.050   1.425  0.6713  0.6180  1.7130
    3CHTO   C44 1131   6.684   0.160   1.565 -0.0765 -0.4431  0.9020
    3CHTO   H86 1132   6.590   0.151   1.620 -0.3687  0.7075  0.5990
    3CHTO   O32 1133   6.788   0.133   1.662 -0.1313  0.0893  0.2139
    3CHTO   H69 1134   6.875   0.133   1.627  0.9002 -0.7510  2.6922
    3CHTO   C48 1135   6.697   0.296   1.491  0.8271  0.5047 -0.6737
    3CHTO   H90 1136   6.799   0.299   1.453  1.4111 -2.7201  0.5367
    3CHTO    N9 1137   6.680   0.418   1.584 -0.5248 -0.1598  0.7766
    3CHTO   H77 1138   6.694   0.495   1.510  2.3019 -2.4693 -1.2267
    3CHTO   H78 1139   6.583   0.414   1.631 -1.3329 -0.8331 -0.9045
    3CHTO   C51 1140   6.598   0.293   1.372 -0.1002 -0.7300 -0.4320
    3CHTO   H93 1141   6.496   0.281   1.409  0.5413 -0.0614  1.6445
    3CHTO   O30 1142   6.630   0.184   1.292  0.1072 -0.6857 -0.5540
    3CHTO   C46 1143   6.601   0.060   1.348  0.4229  0.4694 -0.7005
    3CHTO   H88 1144   6.501   0.056   1.390 -0.0366  0.4397 -1.8026
    3CHTO   C53 1145   6.589  -0.044   1.245 -0.1908  0.0402  0.5200
    3CHTO   O72 1146   6.559  -0.169   1.311  0.3872  0.0075  0.2755
    3CHTO  H199 1147   6.479  -0.153   1.358  0.2066  1.5200 -0.5255
    3CHTO   O22 1148   6.613   0.403   1.282 -0.2683  0.6719  0.5412
    3CHTO   C31 1149   6.529   0.443   1.165  0.1731 -0.0075  0.4670
    3CHTO   H59 1150   6.486   0.349   1.126 -1.4413  0.1571  1.7867
    3CHTO   C29 1151   6.406   0.534   1.199 -1.0746 -0.4768  0.3190
    3CHTO   H57 1152   6.460   0.617   1.247  0.0693 -0.8977 -0.2153
    3CHTO   O21 1153   6.328   0.466   1.298 -0.0940 -0.1109  0.5378
    3CHTO   H37 1154   6.342   0.498   1.385 -0.3344 -0.3193  0.6540
    3CHTO   C27 1155   6.333   0.587   1.076 -0.1873  0.6460  0.2983
    3CHTO   H55 1156   6.287   0.501   1.025 -0.6902  0.8429  0.4187
    3CHTO    N5 1157   6.229   0.686   1.103 -0.3600  0.9302  0.2081
    3CHTO   H43 1158   6.236   0.727   1.203 -0.4339  0.9603  0.2012
    3CHTO   H44 1159   6.130   0.643   1.097 -1.3752  2.9705  1.5428
    3CHTO   C25 1160   6.428   0.629   0.962 -0.1957 -0.0239  0.0229
    3CHTO   H53 1161   6.482   0.720   0.992  0.6733 -0.2789 -0.7501
    3CHTO   O17 1162   6.530   0.526   0.943  0.0451 -0.3175 -0.5530
    3CHTO   C32 1163   6.611   0.508   1.058  0.0490  0.2628  0.2869
    3CHTO   H60 1164   6.648   0.604   1.093 -0.0154  0.3690  0.0680
    3CHTO   C36 1165   6.726   0.414   1.009  0.0572 -0.0962 -0.9169
    3CHTO   O25 1166   6.857   0.421   1.068  0.0096 -0.1685  0.3689
    3CHTO   H40 1167   6.850   0.393   1.157 -1.0523  1.2377  0.7401
    3CHTO   O15 1168   6.353   0.641   0.828  0.9937  0.5520  0.2413
    3CHTO   C19 1169   6.318   0.741   0.724 -0.3119  0.9928  0.1187
    3CHTO   H47 1170   6.235   0.696   0.668  1.2539 -0.3528 -1.1922
    3CHTO   C20 1171   6.264   0.876   0.773  0.1310  0.3048 -0.0176
    3CHTO   H48 1172   6.331   0.930   0.840 -1.6157  1.3618  0.9155
    3CHTO   O19 1173   6.148   0.852   0.853 -0.0038 -0.3360 -0.1158
    3CHTO   H35 1174   6.079   0.812   0.804 -1.5183  1.1358  0.7363
    3CHTO   C21 1175   6.231   0.974   0.650  0.0525 -0.0858  0.4897
    3CHTO   H49 1176   6.153   0.927   0.590  0.4697 -1.5665  1.0995
    3CHTO    N4 1177   6.178   1.107   0.686 -0.1504 -0.0198 -0.0018
    3CHTO   H41 1178   6.073   1.110   0.709 -0.0906  0.4561  0.2054
    3CHTO   H42 1179   6.236   1.146   0.769 -1.3783  0.4950  0.6326
    3CHTO   C22 1180   6.354   0.982   0.551  0.0035  0.4156 -0.0993
    3CHTO   H50 1181   6.432   1.031   0.609 -0.5414 -0.6031  1.5334
    3CHTO   O14 1182   6.400   0.854   0.510  0.1430 -0.4041 -0.5181
    3CHTO   C23 1183   6.431   0.771   0.619  0.1201 -0.9936  0.2184
    3CHTO   H51 1184   6.521   0.816   0.664 -0.1033 -0.1371 -0.1846
    3CHTO   C34 1185   6.486   0.641   0.557  0.3566 -0.5971  0.0799
    3CHTO   O23 1186   6.614   0.657   0.493 -0.4598  0.3431 -0.7232
    3CHTO   H38 1187   6.686   0.612   0.534 -0.6807  0.4166 -0.2477
    3CHTO   O16 1188   6.326   1.048   0.427 -0.8081  0.2980  0.5353
    3CHTO   C24 1189   6.396   1.173   0.393  0.4615 -0.2880  0.3555
    3CHTO   H52 1190   6.427   1.228   0.481 -0.3079 -1.0998  1.1395
    3CHTO   C26 1191   6.296   1.253   0.308 -0.3482 -0.0361 -0.0535
    3CHTO   H54 1192   6.258   1.183   0.230 -1.0109  0.0375  0.1961
    3CHTO   O20 1193   6.183   1.294   0.387  0.0472  0.1037  0.4760
    3CHTO   H36 1194   6.202   1.318   0.476  0.3398  0.4944  0.3092
    3CHTO   C30 1195   6.365   1.378   0.242  0.4881 -0.5372  1.0966
    3CHTO   H58 1196   6.388   1.449   0.322  3.5607 -1.5916  1.2192
    3CHTO    N6 1197   6.275   1.445   0.146 -1.1949  0.2200  0.0966
    3CHTO   H45 1198   6.289   1.406   0.046 -0.3406  2.5022 -0.7152
    3CHTO   H46 1199   6.290   1.552   0.140  1.8318 -0.2048 -0.6977
    3CHTO   C33 1200   6.506   1.349   0.179  0.1254  0.1560 -0.5458
    3CHTO   H61 1201   6.492   1.298   0.082  1.8071  1.3791 -1.4576
    3CHTO   O18 1202   6.581   1.265   0.264  0.3565 -0.5451  0.0210
    3CHTO   C28 1203   6.521   1.141   0.309  0.3927 -0.1287 -0.1666
    3CHTO   H56 1204   6.496   1.082   0.221 -0.1518 -0.7520  0.4004
    3CHTO   C35 1205   6.628   1.061   0.388 -0.2870 -0.0280 -0.2564
    3CHTO   O24 1206   6.673   1.129   0.505 -0.0939  0.3864 -0.1883
    3CHTO   H39 1207   6.759   1.099   0.529 -0.0833 -0.4250 -1.2021
    3CHTO    O9 1208   6.579   1.467   0.146 -0.2259 -0.0331  0.0308
    3CHTO   C13 1209   6.669   1.541   0.269 -0.1266  0.6973  0.3993
    3CHTO   H26 1210   6.615   1.518   0.363 -0.3345 -0.5360 -0.0159
    3CHTO   C11 1211   6.693   1.702   0.244  0.6994 -0.6940 -0.3384
    3CHTO   H24 1212   6.596   1.752   0.257  0.6808 -1.4760  2.9161
    3CHTO    O8 1213   6.751   1.733   0.112 -0.1087  0.0247  0.0755
    3CHTO    H3 1214   6.750   1.825   0.093  1.7890 -0.2229 -1.3322
    3CHTO    C9 1215   6.776   1.749   0.359 -0.0246  0.4384 -0.1762
    3CHTO   H22 1216   6.723   1.720   0.451  2.3573 -2.6527  0.3013
    3CHTO    N2 1217   6.790   1.896   0.359 -0.1908 -0.2339  0.5202
    3CHTO   H10 1218   6.744   1.955   0.281 -0.9306  0.5790  1.5616
    3CHTO   H11 1219   6.884   1.929   0.400  1.1890 -0.3665 -2.3640
    3CHTO    C7 1220   6.914   1.674   0.360  0.0617 -0.1922  0.2531
    3CHTO   H20 1221   6.953   1.702   0.460  0.0386  0.0351  0.1991
    3CHTO    O4 1222   6.919   1.531   0.349  0.0598 -0.0977 -0.4271
    3CHTO   C14 1223   6.807   1.467   0.285  0.4105 -0.0292 -0.0210
    3CHTO   H27 1224   6.781   1.385   0.355 -0.1177 -0.3492 -0.5811
    3CHTO   C18 1225   6.845   1.400   0.153 -0.4361  0.3773  0.0675
    3CHTO   O13 1226   6.929   1.283   0.161 -0.6828  0.0870  0.2713
    3CHTO    H7 1227   6.918   1.225   0.089 -1.3286 -1.6807  1.7403
    3CHTO    O2 1228   7.026   1.731   0.233 -0.2324  0.5174  0.9590
    3CHTO    C1 1229   7.147   1.655   0.222  0.3912 -0.4355  0.0341
    3CHTO   H14 1230   7.120   1.548   0.212 -0.2041 -0.4695  1.8585
    3CHTO    C2 1231   7.241   1.671   0.349 -0.0702  0.4341 -0.7027
    3CHTO   H15 1232   7.244   1.779   0.369 -1.3455  0.1135  1.3202
    3CHTO    O6 1233   7.190   1.601   0.465 -0.4995  0.2985 -0.5095
    3CHTO    H1 1234   7.230   1.638   0.542 -1.6688  0.2080  0.1525
    3CHTO    C3 1235   7.398   1.628   0.326 -0.1857  0.2615 -0.0614
    3CHTO   H16 1236   7.410   1.518   0.330 -0.8823  0.2047  0.8248
    3CHTO    N1 1237   7.499   1.667   0.437  0.1924  0.0367  0.3685
    3CHTO    H8 1238   7.589   1.608   0.424  0.9380  1.4363 -1.0263
    3CHTO    H9 1239   7.453   1.648   0.532 -0.7831 -3.1171 -0.6588
    3CHTO    C4 1240   7.445   1.670   0.187  0.0009  0.0910 -0.4967
    3CHTO   H17 1241   7.465   1.777   0.188  0.1358  0.0610 -0.1440
    3CHTO    O1 1242   7.345   1.626   0.091 -0.1956  0.0401  0.1166
    3CHTO    C5 1243   7.219   1.701   0.095  0.3939 -0.0809  0.0582
    3CHTO   H18 1244   7.239   1.808   0.101  0.2893 -0.1034  0.8242
    3CHTO   C16 1245   7.134   1.680  -0.033 -0.3648  0.0312 -0.1407
    3CHTO   O11 1246   7.067   1.552  -0.054 -0.7584  0.0810  0.0648
    3CHTO    H5 1247   7.016   1.558  -0.133 -0.0792  0.0015 -0.3900
    3CHTO    O3 1248   7.568   1.603   0.139  0.1557 -0.3210 -0.7276
    3CHTO    C6 1249   7.651   1.685   0.050 -0.1119 -0.0645 -0.4113
    3CHTO   H19 1250   7.591   1.770   0.016 -0.0872 -0.2342 -0.8728
    3CHTO    C8 1251   7.776   1.753   0.124 -0.1930 -0.3386 -0.2511
    3CHTO   H21 1252   7.834   1.678   0.177 -0.2381  1.4282  2.3851
    3CHTO    O7 1253   7.723   1.847   0.226  0.1935  0.1289  0.0090
    3CHTO    H2 1254   7.652   1.896   0.189 -1.4667 -1.4563  1.0258
    3CHTO   C12 1255   7.867   1.824   0.024  0.0206  0.3555  0.5211
    3CHTO   H25 1256   7.810   1.901  -0.032  1.5594  0.8612 -0.3951
    3CHTO    N3 1257   7.992   1.885   0.088  0.2064 -0.1934 -0.2421
    3CHTO   H12 1258   7.975   1.988   0.115  1.7886 -0.5809  2.4035
    3CHTO   H13 1259   8.035   1.829   0.170  2.6116  1.6157 -0.2054
    3CHTO   C15 1260   7.912   1.719  -0.084  0.7573  0.3100 -0.8467
    3CHTO   H28 1261   7.970   1.640  -0.035 -1.2021 -1.3847 -1.2178
    3CHTO   O10 1262   7.995   1.769  -0.199 -0.3758  0.1403  0.2817
    3CHTO    H4 1263   8.017   1.702  -0.262 -0.6077 -0.1181  0.4724
    3CHTO    O5 1264   7.800   1.670  -0.151 -0.6245 -0.1186  0.4688
    3CHTO   C10 1265   7.691   1.607  -0.083 -0.1057 -1.1496  0.1735
    3CHTO   H23 1266   7.728   1.505  -0.070 -0.0192 -1.3219 -1.3327
    3CHTO   C17 1267   7.569   1.595  -0.175 -0.4026  0.0480 -0.5200
    3CHTO   O12 1268   7.616   1.537  -0.299 -0.0350 -0.0179  0.2386
    3CHTO    H6 1269   7.629   1.445  -0.286 -0.3930 -0.1978 -0.6577
    4CHTO  H203 1270   6.291   6.919   1.988 -0.0520  0.2652  0.4550
    4CHTO   O82 1271   6.338   7.000   1.977  0.4985 -0.1483 -0.2903
    4CHTO  C123 1272   6.261   7.118   2.004 -0.1566  1.1071  0.2136
    4CHTO  H227 1273   6.160   7.090   2.038 -0.0895 -0.5578 -0.9230
    4CHTO   O77 1274   6.342   7.175   2.106 -0.6965  0.1026 -0.7107
    4CHTO  C118 1275   6.290   7.294   2.172  0.0071 -0.3010  0.1285
    4CHTO  H222 1276   6.200   7.276   2.232 -1.6562 -1.3373 -2.5749
    4CHTO  C125 1277   6.398   7.340   2.270 -0.1991  0.4860  0.2200
    4CHTO   O84 1278   6.358   7.431   2.373 -0.4880  0.5417 -0.1706
    4CHTO  H205 1279   6.285   7.401   2.422 -0.6590 -0.6700 -1.1172
    4CHTO  C114 1280   6.262   7.404   2.068  0.1309  0.1198  0.0138
    4CHTO  H218 1281   6.360   7.427   2.025  0.8134 -1.4737  0.6600
    4CHTO  C116 1282   6.176   7.349   1.951 -0.2665 -0.7557  0.2295
    4CHTO  H220 1283   6.081   7.307   1.991 -0.3694 -1.9352 -1.2389
    4CHTO   O79 1284   6.149   7.452   1.849  0.6445  0.3094 -0.0414
    4CHTO  H201 1285   6.089   7.419   1.785  0.3337 -0.6860  0.7397
    4CHTO  C120 1286   6.252   7.225   1.888 -0.5249  0.0524  0.0185
    4CHTO  H224 1287   6.355   7.257   1.860 -0.6816 -1.1219 -1.9836
    4CHTO   N21 1288   6.206   7.176   1.756  0.5009  0.5632  0.7490
    4CHTO  H211 1289   6.231   7.075   1.729 -2.1989  0.1382 -0.2988
    4CHTO  H212 1290   6.238   7.251   1.685 -2.2352  2.4133  1.3753
    4CHTO   O75 1291   6.205   7.517   2.137 -0.2519  0.5662  0.4512
    4CHTO  C112 1292   6.268   7.660   2.079 -0.7789  0.1533 -0.3523
    4CHTO  H216 1293   6.288   7.642   1.973 -2.5427 -0.3596 -0.6155
    4CHTO   O73 1294   6.385   7.689   2.153 -0.3676 -0.6849 -0.5835
    4CHTO  C113 1295   6.458   7.792   2.097  0.1837 -0.6954  0.5788
    4CHTO  H217 1296   6.487   7.765   1.994 -0.0646 -1.4997  0.7194
    4CHTO  C124 1297   6.590   7.823   2.176  0.3417  0.4486  0.0355
    4CHTO   O83 1298   6.672   7.706   2.193 -0.2501 -0.3823  0.3689
    4CHTO  H204 1299   6.624   7.647   2.247 -3.5693  3.1517  1.5274
    4CHTO  C109 1300   6.368   7.924   2.093  0.1439 -0.3960 -0.2427
    4CHTO  H213 1301   6.359   7.959   2.197 -1.7347  0.0461 -0.5346
    4CHTO  C110 1302   6.233   7.904   2.027 -0.2841  0.5577 -0.2176
    4CHTO  H214 1303   6.260   7.881   1.924  2.6940 -1.9856  1.0526
    4CHTO   O78 1304   6.156   8.021   2.025 -0.0217 -0.2011  0.1843
    4CHTO  H200 1305   6.207   8.092   1.991  0.8059 -0.6936  0.3771
    4CHTO  C111 1306   6.170   7.778   2.096 -0.7881 -0.1836 -0.0351
    4CHTO  H215 1307   6.160   7.792   2.204 -0.9822 -2.3888  0.2659
    4CHTO   N19 1308   6.033   7.754   2.046  0.5746 -0.3240  0.5277
    4CHTO  H207 1309   5.963   7.832   2.071  0.1386 -0.9666  1.3151
    4CHTO  H208 1310   6.006   7.653   2.074 -0.0291  0.1107  1.4992
    4CHTO   O74 1311   6.439   8.021   2.017  0.2451 -0.2380  0.0353
    4CHTO  C115 1312   6.512   8.148   2.112 -0.0848  0.3206  0.0991
    4CHTO  H219 1313   6.483   8.140   2.217  2.2150  0.9416  0.7966
    4CHTO   O76 1314   6.667   8.140   2.114 -0.4166 -0.6881  0.8300
    4CHTO  C122 1315   6.728   8.162   1.988  0.1125 -0.4853  0.2364
    4CHTO  H226 1316   6.698   8.078   1.925  0.7058 -0.1252 -0.5467
    4CHTO  C126 1317   6.886   8.154   1.999  0.6330 -0.1765  0.0653
    4CHTO   O85 1318   6.944   8.269   2.054 -0.3451  0.2265 -0.1786
    4CHTO  H206 1319   6.984   8.316   1.983  0.4560  0.6735  0.5611
    4CHTO  C121 1320   6.682   8.298   1.918 -0.2809 -0.3308 -0.0350
    4CHTO  H225 1321   6.770   8.363   1.901 -1.0091  0.4337 -0.9298
    4CHTO   O81 1322   6.648   8.261   1.786  0.1814 -0.4309  0.1430
    4CHTO  H202 1323   6.605   8.331   1.741 -1.4336 -1.8807 -0.6264
    4CHTO  C119 1324   6.574   8.373   1.994  0.3213 -0.5223 -0.1763
    4CHTO  H223 1325   6.628   8.417   2.078  1.5309 -1.3172 -0.5368
    4CHTO  C117 1326   6.457   8.277   2.044  0.2724 -0.0438  0.8075
    4CHTO  H221 1327   6.398   8.240   1.960  0.5886  0.9978  0.1142
    4CHTO   N20 1328   6.357   8.355   2.123  0.0705  0.1143 -0.1696
    4CHTO  H209 1329   6.265   8.385   2.074  0.5364 -0.5894 -1.5058
    4CHTO  H210 1330   6.341   8.310   2.220 -1.8493 -0.0017 -0.5228
    4CHTO   O80 1331   6.524   8.509   1.917 -0.9294 -0.5999  0.2326
    4CHTO  C103 1332   6.580   8.647   1.965  0.0628  0.3383 -0.3853
    4CHTO  H190 1333   6.546   8.675   2.065  1.3514 -0.1477  0.2031
    4CHTO  C101 1334   6.744   8.675   1.951 -0.6275  0.4040  0.2419
    4CHTO  H188 1335   6.783   8.652   1.852 -0.7642 -0.5546  0.4058
    4CHTO   O68 1336   6.833   8.581   2.058 -0.0191 -0.3194 -0.1110
    4CHTO  H168 1337   6.809   8.491   2.045 -0.0593 -0.4135  0.6489
    4CHTO   C99 1338   6.779   8.826   1.957  0.1068  0.1854 -0.6663
    4CHTO  H186 1339   6.759   8.867   2.059 -0.1917 -0.2432 -0.5517
    4CHTO   N17 1340   6.923   8.849   1.932  0.2565  0.8737 -0.5202
    4CHTO  H174 1341   6.961   8.792   1.849 -1.4108  0.1439 -0.8128
    4CHTO  H175 1342   6.961   8.813   2.027 -0.0386 -1.9124 -1.4204
    4CHTO   C97 1343   6.691   8.906   1.860 -0.6972 -0.0557  0.0305
    4CHTO  H184 1344   6.717   8.873   1.758 -1.4320 -0.2765 -0.0901
    4CHTO   O64 1345   6.554   8.881   1.888  0.2117 -0.1778 -0.3333
    4CHTO  C104 1346   6.510   8.746   1.859  0.3953  0.4796 -0.8353
    4CHTO  H191 1347   6.543   8.724   1.757  1.8968 -1.2218 -0.0210
    4CHTO  C108 1348   6.356   8.740   1.859  0.4777 -0.5978 -0.4413
    4CHTO   O71 1349   6.292   8.829   1.766 -0.2082 -0.0755  0.4286
    4CHTO  H171 1350   6.199   8.830   1.779 -0.3972  0.3057 -0.9491
    4CHTO   O62 1351   6.703   9.053   1.880 -0.1447 -0.3981 -0.0252
    4CHTO   C91 1352   6.680   9.135   1.757  0.8048  0.6448  0.4570
    4CHTO  H178 1353   6.639   9.077   1.674 -0.5361 -0.0660  1.5794
    4CHTO   C92 1354   6.815   9.196   1.711 -0.1068 -0.4057  0.5274
    4CHTO  H179 1355   6.858   9.248   1.798 -1.5836  0.9115  0.4970
    4CHTO   O66 1356   6.908   9.093   1.688  0.6222 -0.1184  0.7125
    4CHTO  H166 1357   6.881   9.054   1.607 -0.5809  1.6652  0.2335
    4CHTO   C93 1358   6.797   9.284   1.580  0.2047  0.2780 -0.4370
    4CHTO  H180 1359   6.815   9.212   1.499  1.7632  0.2323 -0.0627
    4CHTO   N16 1360   6.901   9.382   1.560 -1.1839 -0.1076 -0.2364
    4CHTO  H172 1361   6.990   9.345   1.511  1.4778  1.4423  3.2113
    4CHTO  H173 1362   6.861   9.470   1.512 -1.3943 -0.6696 -1.1047
    4CHTO   C94 1363   6.653   9.343   1.572  0.5893  0.5447  0.4550
    4CHTO  H181 1364   6.646   9.441   1.525 -1.3359  0.3758  0.3440
    4CHTO   O61 1365   6.570   9.353   1.695 -0.0167 -0.4858  0.0277
    4CHTO   C95 1366   6.582   9.254   1.795 -0.6996 -0.5662 -0.0474
    4CHTO  H182 1367   6.611   9.295   1.892 -0.4598 -1.0023  0.0630
    4CHTO  C106 1368   6.437   9.190   1.806  0.3804  0.1461 -0.2832
    4CHTO   O69 1369   6.349   9.279   1.866  0.2704  0.2119  0.2172
    4CHTO  H169 1370   6.264   9.241   1.847  0.7674 -1.2170  0.7438
    4CHTO   O63 1371   6.575   9.253   1.474  0.1518  0.4203  0.2585
    4CHTO   C96 1372   6.623   9.242   1.318 -0.4287  0.1177 -0.5888
    4CHTO  H183 1373   6.731   9.233   1.314 -0.3447  0.6774  0.1642
    4CHTO   C98 1374   6.575   9.361   1.225 -0.1795  0.1276  0.6991
    4CHTO  H185 1375   6.469   9.378   1.245  0.0663  0.3239  1.8611
    4CHTO   O67 1376   6.644   9.485   1.252  0.4483 -0.4144 -0.1243
    4CHTO  H167 1377   6.582   9.554   1.243  1.3336  0.4258  0.1359
    4CHTO  C102 1378   6.591   9.325   1.063 -0.6498 -0.7740 -0.0000
    4CHTO  H189 1379   6.697   9.345   1.041 -0.2865 -1.0734  1.4161
    4CHTO   N18 1380   6.518   9.422   0.974 -0.1022  0.4353  0.2832
    4CHTO  H176 1381   6.543   9.521   1.010 -0.0699  1.1109 -1.5239
    4CHTO  H177 1382   6.556   9.415   0.873 -1.3463  1.2389 -0.2528
    4CHTO  C105 1383   6.563   9.176   1.033  0.1124  0.2552  0.5243
    4CHTO  H192 1384   6.458   9.163   1.009  0.6112  0.6319 -2.0449
    4CHTO   O65 1385   6.606   9.085   1.128  0.3949  0.4215  0.0978
    4CHTO  C100 1386   6.566   9.104   1.266  0.4784  0.0173 -0.4570
    4CHTO  H187 1387   6.456   9.102   1.272  0.3481 -3.6298 -2.5269
    4CHTO  C107 1388   6.612   8.988   1.351 -0.0575  0.0939 -0.4885
    4CHTO   O70 1389   6.755   8.982   1.345  0.5723 -0.1277  0.2155
    4CHTO  H170 1390   6.788   8.895   1.351 -1.4188 -0.9351 -0.3266
    4CHTO   O57 1391   6.639   9.155   0.911 -0.4175 -0.2990  0.1626
    4CHTO   C85 1392   6.608   9.074   0.792  0.2566  0.0387 -0.2999
    4CHTO  H157 1393   6.503   9.096   0.765  0.6215  2.9149  0.5187
    4CHTO   C83 1394   6.610   8.921   0.825  0.5884 -0.1781  0.2366
    4CHTO  H155 1395   6.526   8.899   0.892  0.8383 -0.0229  0.6002
    4CHTO   O56 1396   6.733   8.907   0.897 -0.2360  0.2063  0.0959
    4CHTO  H135 1397   6.805   8.872   0.849  0.3861 -0.8108  1.7061
    4CHTO   C81 1398   6.600   8.835   0.692  0.2829  0.3246  0.1365
    4CHTO  H153 1399   6.504   8.857   0.646  0.1618  0.3886  0.4247
    4CHTO   N14 1400   6.612   8.692   0.725  0.6801 -0.5270 -0.1553
    4CHTO  H141 1401   6.571   8.645   0.638  0.6443  1.6028 -1.3058
    4CHTO  H142 1402   6.714   8.662   0.734  0.0899 -2.3714  0.7886
    4CHTO   C79 1403   6.717   8.880   0.587  0.3572 -0.8965  0.5241
    4CHTO  H151 1404   6.704   8.827   0.493  0.4113  3.5816 -2.1347
    4CHTO   O52 1405   6.706   9.021   0.560  0.0697  0.3079  0.4879
    4CHTO   C86 1406   6.712   9.104   0.677 -0.0002  0.5283  0.6098
    4CHTO  H158 1407   6.815   9.084   0.712 -0.1338 -2.3658 -0.5402
    4CHTO   C90 1408   6.705   9.255   0.637  0.7175 -0.0266 -0.3421
    4CHTO   O60 1409   6.793   9.283   0.532  0.4044  0.5697  0.4266
    4CHTO  H138 1410   6.758   9.324   0.456  1.5940  1.2801  0.2506
    4CHTO   O50 1411   6.851   8.846   0.631  0.5363  0.1608 -0.2730
    4CHTO   C73 1412   6.976   8.898   0.578  0.0124 -0.5907 -0.5225
    4CHTO  H145 1413   6.959   9.004   0.556 -0.3630 -0.4841  0.2643
    4CHTO   C74 1414   7.020   8.820   0.451 -0.6811  0.1603  0.4792
    4CHTO  H146 1415   6.927   8.816   0.393 -0.5219  0.8293  0.1755
    4CHTO   O54 1416   7.129   8.891   0.380 -0.5161  0.2533 -0.3074
    4CHTO  H133 1417   7.097   8.914   0.295  0.5359  0.2155 -0.7244
    4CHTO   C75 1418   7.061   8.669   0.497 -0.1526 -0.4001  0.2682
    4CHTO  H147 1419   6.972   8.618   0.537  0.2399 -1.0721  0.2766
    4CHTO   N13 1420   7.106   8.574   0.392 -0.2622 -0.9096 -0.4905
    4CHTO  H139 1421   7.140   8.484   0.442 -1.8113 -0.9064  0.5732
    4CHTO  H140 1422   7.184   8.624   0.336 -0.5910 -0.0149 -0.1478
    4CHTO   C76 1423   7.170   8.665   0.617 -0.5373  0.3568  0.5342
    4CHTO  H148 1424   7.267   8.671   0.567 -0.5569  0.1050  0.4691
    4CHTO   O49 1425   7.140   8.764   0.720  0.1790 -0.0239  0.6016
    4CHTO   C77 1426   7.095   8.892   0.680  0.1079  0.3836 -0.2416
    4CHTO  H149 1427   7.183   8.939   0.636  0.7216 -0.8440 -0.3680
    4CHTO   C88 1428   7.065   8.972   0.803 -0.3657 -0.3241 -0.2809
    4CHTO   O58 1429   7.048   9.092   0.793  0.0155 -0.3516  0.0356
    4CHTO  H136 1430   6.976   9.126   0.841  0.2334  1.5208 -0.8999
    4CHTO   O51 1431   7.158   8.528   0.687  0.4734  0.3618  0.0331
    4CHTO   C78 1432   7.285   8.431   0.719  0.1875  0.3298 -0.4758
    4CHTO  H150 1433   7.311   8.432   0.827 -0.7567  0.7406 -0.2459
    4CHTO   C80 1434   7.407   8.473   0.635  0.1093 -0.5742  0.0071
    4CHTO  H152 1435   7.382   8.500   0.530 -1.7417 -0.3126  0.5098
    4CHTO   O55 1436   7.451   8.592   0.700 -0.4184  0.2838  0.5810
    4CHTO  H134 1437   7.528   8.619   0.655 -0.0497 -1.3394  0.2073
    4CHTO   C84 1438   7.517   8.361   0.635  0.0197 -0.4829  0.5035
    4CHTO  H156 1439   7.558   8.358   0.736  0.4384 -0.3632  0.3381
    4CHTO   N15 1440   7.639   8.398   0.556 -0.5176 -0.3145  0.0768
    4CHTO  H143 1441   7.702   8.314   0.536 -0.4699 -0.1409 -0.4967
    4CHTO  H144 1442   7.611   8.447   0.465  2.1465  3.0062  0.9664
    4CHTO   C87 1443   7.463   8.226   0.601 -0.0394  0.3924 -0.8142
    4CHTO  H159 1444   7.432   8.220   0.497 -1.3485  0.5412 -0.4391
    4CHTO   O53 1445   7.347   8.193   0.702  0.0633 -0.1742  0.8358
    4CHTO   C82 1446   7.240   8.282   0.695 -0.6619  0.4890  0.4564
    4CHTO  H154 1447   7.183   8.264   0.605  1.0505 -3.4906  0.0766
    4CHTO   C89 1448   7.142   8.239   0.810  0.5499  0.2781 -0.2117
    4CHTO   O59 1449   7.022   8.319   0.825  0.2768 -0.2687 -0.2444
    4CHTO  H137 1450   6.980   8.338   0.744 -0.3208 -1.5946 -0.2681
    4CHTO   O45 1451   7.591   8.110   0.618 -0.3142 -0.3497  0.5053
    4CHTO   C67 1452   7.606   8.037   0.495 -0.1492 -0.0719  0.2184
    4CHTO  H124 1453   7.601   8.096   0.404  0.1761  0.6201  0.6463
    4CHTO   C65 1454   7.744   7.955   0.498  0.0132  0.4484  0.0297
    4CHTO  H122 1455   7.823   8.029   0.513  0.4229 -0.2249  1.2462
    4CHTO   O44 1456   7.776   7.891   0.373 -0.0704  0.0304 -0.0740
    4CHTO  H102 1457   7.868   7.871   0.373 -0.1976 -0.5577 -1.5424
    4CHTO   C63 1458   7.743   7.866   0.627 -0.2241  0.2463  0.3664
    4CHTO  H120 1459   7.714   7.926   0.713 -1.1451 -2.3244  1.9179
    4CHTO   N11 1460   7.872   7.810   0.676 -0.1964  0.3559  0.5510
    4CHTO  H108 1461   7.897   7.730   0.609  0.1944  2.2619 -1.6025
    4CHTO  H109 1462   7.948   7.885   0.685 -0.0980  0.5303 -1.5154
    4CHTO   C61 1463   7.631   7.755   0.606  0.7042  0.4860 -0.7710
    4CHTO  H118 1464   7.616   7.723   0.710  2.5613  2.9070  0.2968
    4CHTO   O40 1465   7.506   7.809   0.565  0.0303  0.4568  0.2491
    4CHTO   C68 1466   7.486   7.932   0.485 -0.1402  0.4178 -0.2699
    4CHTO  H125 1467   7.393   7.982   0.519 -0.5673  0.2202 -1.1301
    4CHTO   C72 1468   7.455   7.896   0.340  0.3210  0.3134  0.3817
    4CHTO   O48 1469   7.363   7.787   0.306 -0.5882 -0.1708 -0.3869
    4CHTO  H105 1470   7.287   7.794   0.362 -0.0217  0.4881  0.3045
    4CHTO   O38 1471   7.670   7.645   0.523 -0.0273  0.1200  0.4480
    4CHTO   C55 1472   7.622   7.516   0.556  0.9418  0.1791 -0.2352
    4CHTO  H112 1473   7.519   7.523   0.596  0.9580  1.1665 -0.3676
    4CHTO   C56 1474   7.714   7.436   0.658  0.5708 -0.5522 -0.3737
    4CHTO  H113 1475   7.815   7.430   0.614  0.8988  2.0726 -0.1124
    4CHTO   O42 1476   7.727   7.513   0.777 -0.6865 -0.2125  0.0191
    4CHTO  H100 1477   7.777   7.589   0.754 -0.1752 -0.4828  0.2337
    4CHTO   C57 1478   7.667   7.289   0.693  0.2709  0.3277  0.1922
    4CHTO  H114 1479   7.575   7.288   0.752 -1.1086 -2.4191 -1.9141
    4CHTO   N10 1480   7.762   7.205   0.774  0.1659  0.0860  0.6323
    4CHTO  H106 1481   7.735   7.102   0.788 -0.5976  0.3097  0.8054
    4CHTO  H107 1482   7.861   7.208   0.731 -0.2800  0.0336 -0.3866
    4CHTO   C58 1483   7.645   7.221   0.554  0.0692 -0.6907 -0.0009
    4CHTO  H115 1484   7.740   7.193   0.503 -0.1371  2.0536 -2.0148
    4CHTO   O37 1485   7.554   7.300   0.475  0.0629  0.0597  0.4681
    4CHTO   C59 1486   7.608   7.427   0.432 -0.0309 -0.1203  0.3790
    4CHTO  H116 1487   7.702   7.416   0.379 -0.0327  1.9116 -0.1121
    4CHTO   C70 1488   7.519   7.497   0.327  0.4156  0.0371 -0.1739
    4CHTO   O46 1489   7.478   7.424   0.215 -0.7009 -0.4810 -0.1971
    4CHTO  H103 1490   7.428   7.479   0.159 -0.9652  0.2504  0.7468
    4CHTO   O39 1491   7.563   7.081   0.578  0.2048 -0.0205 -0.4097
    4CHTO   C60 1492   7.459   7.031   0.490  0.4742  0.5110  0.6300
    4CHTO  H117 1493   7.380   7.106   0.489 -0.5412 -0.5212  1.6166
    4CHTO   C62 1494   7.508   7.009   0.340  0.0945  0.4082  0.0883
    4CHTO  H119 1495   7.526   7.108   0.294 -0.3178  0.8620  0.8874
    4CHTO   O43 1496   7.613   6.915   0.349  0.5769  0.1764  0.1001
    4CHTO  H101 1497   7.696   6.957   0.362  0.8828 -0.1183 -0.8523
    4CHTO   C66 1498   7.390   6.954   0.251 -0.2598  0.1787 -0.6262
    4CHTO  H123 1499   7.311   7.029   0.251 -0.1181  0.3593 -3.0814
    4CHTO   N12 1500   7.431   6.938   0.111  0.4855  0.1980 -0.1801
    4CHTO  H110 1501   7.525   6.891   0.089  0.2588 -0.7230  0.7755
    4CHTO  H111 1502   7.429   7.034   0.062 -2.6284  0.0139 -0.5289
    4CHTO   C69 1503   7.335   6.823   0.312 -0.0916 -0.0680  0.1751
    4CHTO  H126 1504   7.415   6.746   0.314  0.6230  0.6961  1.4629
    4CHTO   O41 1505   7.291   6.860   0.463  0.1861  0.5318 -0.1768
    4CHTO   C64 1506   7.395   6.900   0.546  0.8570  0.6065  0.3203
    4CHTO  H121 1507   7.466   6.816   0.532 -1.5179 -1.2408 -0.9579
    4CHTO   C71 1508   7.328   6.908   0.687 -0.5235  0.7201  0.4556
    4CHTO   O47 1509   7.429   6.862   0.779  0.1466  0.0169 -0.4923
    4CHTO  H104 1510   7.390   6.841   0.861 -1.8496 -2.4614 -1.9886
    4CHTO   O34 1511   7.219   6.771   0.240  0.1471  0.1028  0.0213
    4CHTO   C49 1512   7.204   6.625   0.189  0.5065 -0.1229 -0.1279
    4CHTO   H91 1513   7.298   6.572   0.205 -1.1103 -3.1223 -0.2175
    4CHTO   C47 1514   7.167   6.617   0.042  0.5315 -0.1320 -1.1468
    4CHTO   H89 1515   7.254   6.663  -0.010  1.0431 -0.4630 -0.5790
    4CHTO   O33 1516   7.051   6.703   0.025  0.1023 -1.1852  0.0926
    4CHTO   H70 1517   7.077   6.792   0.035  0.3555 -1.2954  0.4201
    4CHTO   C45 1518   7.132   6.466  -0.008  0.0380 -0.1719 -0.7118
    4CHTO   H87 1519   7.026   6.474  -0.037 -0.1791  0.0073  0.1127
    4CHTO    N8 1520   7.203   6.426  -0.130  0.1514 -0.4711 -0.3498
    4CHTO   H75 1521   7.215   6.321  -0.152  0.9390 -0.4312 -0.1013
    4CHTO   H76 1522   7.147   6.459  -0.217 -0.3531 -0.3879  0.0076
    4CHTO   C43 1523   7.142   6.365   0.117  0.1490 -0.3745  0.1062
    4CHTO   H85 1524   7.103   6.267   0.088 -1.5319  0.2091  0.3527
    4CHTO   O29 1525   7.068   6.424   0.226  0.5056  0.1796 -0.4969
    4CHTO   C50 1526   7.096   6.554   0.276  0.3136 -0.1461 -0.1268
    4CHTO   H92 1527   7.008   6.620   0.282 -0.2862 -0.9844  0.4459
    4CHTO   C54 1528   7.138   6.555   0.426 -0.0423  0.2754 -0.1899
    4CHTO   O36 1529   7.040   6.496   0.511 -0.1728  0.1321 -0.1186
    4CHTO   H72 1530   7.076   6.527   0.592 -0.2379  0.1334 -0.0900
    4CHTO   O27 1531   7.280   6.357   0.153 -0.4712  0.0179 -0.2931
    4CHTO   C37 1532   7.362   6.242   0.168  0.1102 -0.3919 -0.6296
    4CHTO   H79 1533   7.333   6.160   0.100 -1.6395 -0.7793  0.5709
    4CHTO   C38 1534   7.508   6.277   0.129 -0.4228 -0.5347  0.4842
    4CHTO   H80 1535   7.545   6.349   0.203  0.3102  0.2514 -0.6292
    4CHTO   O31 1536   7.495   6.324  -0.012 -0.2440 -0.4284 -0.5642
    4CHTO   H68 1537   7.576   6.340  -0.055 -1.0242  0.7258 -1.6178
    4CHTO   C39 1538   7.603   6.154   0.133  0.2314  0.3424  0.3345
    4CHTO   H81 1539   7.567   6.089   0.053  2.0547  1.6844 -1.6190
    4CHTO    N7 1540   7.746   6.174   0.099 -0.0088 -0.0238  0.2574
    4CHTO   H73 1541   7.773   6.118   0.011 -1.1537 -0.9523  0.4922
    4CHTO   H74 1542   7.811   6.171   0.186 -0.0534  0.6443  0.3165
    4CHTO   C40 1543   7.588   6.076   0.276  0.1770 -0.0889 -0.0370
    4CHTO   H82 1544   7.648   6.121   0.355 -2.1166  0.6167  1.3564
    4CHTO   O26 1545   7.454   6.062   0.323  0.1590  0.4132 -0.0131
    4CHTO   C41 1546   7.369   6.185   0.314  0.0955 -0.6382 -0.2450
    4CHTO   H83 1547   7.406   6.270   0.373  0.4864 -1.8532  1.2653
    4CHTO   C52 1548   7.223   6.155   0.365 -0.0366 -0.7193 -0.0850
    4CHTO   O35 1549   7.225   6.126   0.497  0.4565  0.2936 -0.2969
    4CHTO   H71 1550   7.157   6.178   0.536 -0.8211 -0.5604 -1.3070
    4CHTO   O28 1551   7.632   5.939   0.263 -0.7979  0.1129  0.4150
    4CHTO   C42 1552   7.725   5.876   0.353  0.5201 -0.1691 -0.2448
    4CHTO   H84 1553   7.800   5.949   0.385  0.5244 -0.4397  0.3844
    4CHTO   C44 1554   7.797   5.762   0.276 -0.3180  0.4587 -0.1763
    4CHTO   H86 1555   7.718   5.696   0.239  0.1282 -0.6460  0.8107
    4CHTO   O32 1556   7.869   5.830   0.172  0.1670  0.3646 -0.0043
    4CHTO   H69 1557   7.935   5.781   0.126 -0.6023 -2.4785  1.7559
    4CHTO   C48 1558   7.896   5.681   0.363 -0.0981  0.3067  0.4058
    4CHTO   H90 1559   7.983   5.743   0.383  0.9516 -0.9192 -0.2418
    4CHTO    N9 1560   7.955   5.563   0.294 -0.7323  0.1643  0.0230
    4CHTO   H77 1561   8.010   5.597   0.208 -0.7393  0.2316  0.0459
    4CHTO   H78 1562   8.021   5.506   0.358 -2.5968 -1.2828  0.7151
    4CHTO   C51 1563   7.827   5.643   0.498  0.2450 -0.1061 -0.0867
    4CHTO   H93 1564   7.750   5.571   0.470  0.8794 -1.3771  1.3528
    4CHTO   O30 1565   7.770   5.760   0.553  0.0488 -0.4095 -0.1844
    4CHTO   C46 1566   7.662   5.820   0.482  0.5310 -0.2159 -0.3810
    4CHTO   H88 1567   7.588   5.747   0.450 -0.3312 -0.1159  1.2890
    4CHTO   C53 1568   7.596   5.917   0.567 -0.1636  0.5258 -0.8873
    4CHTO   O72 1569   7.530   5.854   0.679 -0.6419 -0.9907 -0.0472
    4CHTO  H199 1570   7.479   5.920   0.722  2.0530  0.6891  0.7096
    4CHTO   O22 1571   7.916   5.592   0.598 -0.0585 -0.0828  0.6559
    4CHTO   C31 1572   7.878   5.566   0.740 -0.3860  0.5117  0.4531
    4CHTO   H59 1573   7.779   5.613   0.757  0.2663  1.6023  1.3413
    4CHTO   C29 1574   7.868   5.421   0.775  0.1527  0.2613  0.1600
    4CHTO   H57 1575   7.970   5.381   0.772 -0.1424 -0.4530 -0.5568
    4CHTO   O21 1576   7.787   5.354   0.676 -0.0597  0.3843  0.0651
    4CHTO   H37 1577   7.816   5.264   0.677 -1.5200 -0.1019 -0.4249
    4CHTO   C27 1578   7.820   5.411   0.927 -0.5272 -0.2198  0.4642
    4CHTO   H55 1579   7.726   5.468   0.938  0.8790  2.1791  0.2616
    4CHTO    N5 1580   7.803   5.273   0.982  0.6599 -0.3969  0.5567
    4CHTO   H43 1581   7.832   5.188   0.921 -3.0946 -1.4216  0.0345
    4CHTO   H44 1582   7.710   5.267   1.037 -0.1240  1.4551 -0.5254
    4CHTO   C25 1583   7.912   5.496   1.029 -0.1422 -0.3371  0.3144
    4CHTO   H53 1584   8.006   5.439   1.030 -0.3291 -0.6580 -0.0624
    4CHTO   O17 1585   7.939   5.624   0.975 -0.5578 -0.2931 -0.0186
    4CHTO   C32 1586   7.978   5.638   0.837 -0.1534 -0.1186  0.3890
    4CHTO   H60 1587   8.079   5.602   0.818 -0.3642 -0.5922  0.1436
    4CHTO   C36 1588   7.990   5.793   0.804 -0.3183  0.5284  0.2938
    4CHTO   O25 1589   8.064   5.819   0.684  0.2379  0.3297 -0.1510
    4CHTO   H40 1590   8.055   5.910   0.663  2.7079  0.5021 -0.6816
    4CHTO   O15 1591   7.831   5.514   1.157 -0.2578  0.2785  0.1009
    4CHTO   C19 1592   7.817   5.603   1.278 -0.1931  0.7662  0.9333
    4CHTO   H47 1593   7.724   5.567   1.326  1.5813 -2.7800  1.8702
    4CHTO   C20 1594   7.930   5.594   1.374  0.2796 -0.4960 -0.2194
    4CHTO   H48 1595   8.027   5.626   1.333  0.8358 -1.6504  0.1597
    4CHTO   O19 1596   7.942   5.454   1.411 -0.5440  0.2890  0.0568
    4CHTO   H35 1597   8.025   5.416   1.389 -0.2700  0.5962  0.5358
    4CHTO   C21 1598   7.897   5.679   1.498 -0.0745  0.1623 -0.3083
    4CHTO   H49 1599   7.807   5.639   1.544  0.0700  0.2265  0.0334
    4CHTO    N4 1600   8.004   5.667   1.604  0.1309 -0.5696  0.7746
    4CHTO   H41 1601   8.093   5.623   1.561 -0.2862 -0.7628  0.0983
    4CHTO   H42 1602   8.026   5.763   1.648  4.2993 -0.8417 -0.4740
    4CHTO   C22 1603   7.867   5.823   1.444  0.4515  0.0589 -0.2230
    4CHTO   H50 1604   7.960   5.857   1.398  0.5342  2.9645  1.9362
    4CHTO   O14 1605   7.756   5.824   1.357 -0.2086  0.3572 -0.4694
    4CHTO   C23 1606   7.790   5.754   1.232  0.3384  0.2630  0.2782
    4CHTO   H51 1607   7.879   5.800   1.187  0.7522 -0.3538  0.4582
    4CHTO   C34 1608   7.662   5.779   1.148 -0.5619  0.1410  0.2463
    4CHTO   O23 1609   7.662   5.715   1.025 -0.1653  0.6926  0.0989
    4CHTO   H38 1610   7.580   5.739   0.985 -0.1645  1.4498  0.5442
    4CHTO   O16 1611   7.845   5.907   1.558 -0.0788 -0.2571 -0.2892
    4CHTO   C24 1612   7.827   6.053   1.528 -0.2609 -0.3550  0.7120
    4CHTO   H52 1613   7.816   6.073   1.422  2.4096 -0.1725  0.4302
    4CHTO   C26 1614   7.944   6.144   1.576 -0.6153 -0.4061 -0.1391
    4CHTO   H54 1615   7.962   6.122   1.683 -3.6596 -0.4609  0.4133
    4CHTO   O20 1616   8.053   6.098   1.493  0.0798  0.4558  0.1323
    4CHTO   H36 1617   8.081   6.015   1.526 -1.5557 -1.3693 -2.9021
    4CHTO   C30 1618   7.923   6.294   1.546  0.0917  0.2088  0.4644
    4CHTO   H58 1619   7.939   6.314   1.439 -0.1728 -2.6342 -0.1447
    4CHTO    N6 1620   8.020   6.375   1.629  0.4341  0.2776 -0.0799
    4CHTO   H45 1621   8.122   6.363   1.597  0.4043  2.3384 -1.0005
    4CHTO   H46 1622   8.009   6.344   1.732  1.7753  0.2287  0.0575
    4CHTO   C33 1623   7.783   6.346   1.579 -0.1437 -0.7285  0.3220
    4CHTO   H61 1624   7.783   6.372   1.686  2.9143 -1.0727  0.4568
    4CHTO   O18 1625   7.687   6.241   1.555  0.1812 -0.1147 -0.3196
    4CHTO   C28 1626   7.696   6.102   1.595  0.5405  1.1784  0.0575
    4CHTO   H56 1627   7.701   6.089   1.703 -1.9155 -0.8429 -0.0251
    4CHTO   C35 1628   7.573   6.023   1.541  0.4178 -0.0771  0.4151
    4CHTO   O24 1629   7.448   6.043   1.612 -0.0540  0.4658 -0.1355
    4CHTO   H39 1630   7.396   6.113   1.577 -0.1838 -0.4775 -1.9161
    4CHTO    O9 1631   7.752   6.466   1.504  0.1918 -0.2650  0.2537
    4CHTO   C13 1632   7.627   6.558   1.553 -0.0524  0.7053 -0.4800
    4CHTO   H26 1633   7.537   6.495   1.567 -0.1864  1.3339  1.7128
    4CHTO   C11 1634   7.605   6.671   1.453 -0.3558  0.2381  0.3822
    4CHTO   H24 1635   7.578   6.614   1.363  0.4405  1.2231 -0.4910
    4CHTO    O8 1636   7.727   6.736   1.433  0.2652 -0.3754  0.8690
    4CHTO    H3 1637   7.800   6.714   1.488  0.6364  0.6027  0.7739
    4CHTO    C9 1638   7.484   6.760   1.504  0.2627  0.0830  0.2098
    4CHTO   H22 1639   7.404   6.686   1.520  4.3899 -4.1699  2.3460
    4CHTO    N2 1640   7.434   6.857   1.402  0.2543  0.2961  0.5081
    4CHTO   H10 1641   7.501   6.941   1.386 -0.4482  0.9725  1.0810
    4CHTO   H11 1642   7.332   6.890   1.417 -0.3696 -0.2876 -2.2572
    4CHTO    C7 1643   7.520   6.833   1.640  0.6066  1.1163 -0.3081
    4CHTO   H20 1644   7.434   6.893   1.675  0.2508  0.1667  0.4573
    4CHTO    O4 1645   7.552   6.726   1.738  0.4333 -0.3428  0.2637
    4CHTO   C14 1646   7.648   6.619   1.707  0.1612  0.3449 -0.3366
    4CHTO   H27 1647   7.624   6.540   1.781 -2.6754  0.4353 -1.1322
    4CHTO   C18 1648   7.787   6.679   1.744 -0.3666  0.4096  0.9222
    4CHTO   O13 1649   7.794   6.692   1.886 -0.2662 -0.0068 -0.5533
    4CHTO    H7 1650   7.804   6.610   1.930 -0.7233  0.8493  1.2190
    4CHTO    O2 1651   7.648   6.937   1.634 -0.4727  0.0357 -0.5545
    4CHTO    C1 1652   7.612   7.075   1.662  0.4756 -0.5000 -0.2796
    4CHTO   H14 1653   7.503   7.088   1.645  0.2851 -0.6866  0.7768
    4CHTO    C2 1654   7.690   7.171   1.565  0.7032 -0.3534 -0.2419
    4CHTO   H15 1655   7.796   7.143   1.575  0.7605  0.3738  1.3150
    4CHTO    O6 1656   7.641   7.144   1.432  0.3561  0.9667  0.2868
    4CHTO    H1 1657   7.684   7.172   1.354 -0.0913  0.1186 -0.2763
    4CHTO    C3 1658   7.663   7.323   1.599  0.5344 -0.1048  0.3874
    4CHTO   H16 1659   7.559   7.354   1.587 -0.1299 -2.5676 -0.5262
    4CHTO    N1 1660   7.745   7.410   1.511 -0.0809 -0.9312  0.5403
    4CHTO    H8 1661   7.716   7.394   1.408  0.6825  0.0965  0.1524
    4CHTO    H9 1662   7.851   7.404   1.530  0.3439  2.2646 -0.3825
    4CHTO    C4 1663   7.692   7.343   1.748  0.1084 -0.2870  0.3547
    4CHTO   H17 1664   7.794   7.316   1.774 -0.1223 -0.9222  0.6215
    4CHTO    O1 1665   7.602   7.257   1.821  0.2746 -0.1744  0.1075
    4CHTO    C5 1666   7.635   7.117   1.808  0.4634  0.2106 -0.1999
    4CHTO   H18 1667   7.736   7.084   1.829 -0.2258 -0.4722  2.2252
    4CHTO   C16 1668   7.548   7.044   1.910 -0.0826 -0.7528  0.2534
    4CHTO   O11 1669   7.551   7.105   2.036 -0.2829  0.2610  0.5136
    4CHTO    H5 1670   7.640   7.130   2.048 -0.2195  0.9322 -1.2454
    4CHTO    O3 1671   7.656   7.471   1.798  0.7241 -0.1713 -0.5894
    4CHTO    C6 1672   7.723   7.524   1.912  0.4626 -0.1356 -0.5149
    4CHTO   H19 1673   7.783   7.451   1.967  0.2150  0.3888  0.4737
    4CHTO    C8 1674   7.820   7.637   1.864 -0.1879  0.6083 -0.4329
    4CHTO   H21 1675   7.761   7.722   1.830 -2.2679 -1.4347 -2.0834
    4CHTO    O7 1676   7.905   7.567   1.761  0.2854 -0.4769 -0.1537
    4CHTO    H2 1677   7.982   7.614   1.734  0.7041 -1.9770 -1.6058
    4CHTO   C12 1678   7.908   7.694   1.986 -0.1675 -0.6474 -0.2233
    4CHTO   H25 1679   7.965   7.607   2.026  0.3353 -0.0774  0.3049
    4CHTO    N3 1680   8.014   7.790   1.946 -0.7091  0.1941  0.5946
    4CHTO   H12 1681   7.968   7.875   1.898  2.7488  2.2675  0.8030
    4CHTO   H13 1682   8.081   7.825   2.023 -1.5437  2.2646  0.3977
    4CHTO   C15 1683   7.810   7.751   2.096 -1.1780 -0.1972 -0.5239
    4CHTO   H28 1684   7.759   7.840   2.059  1.0465  0.2600 -2.5601
    4CHTO   O10 1685   7.872   7.770   2.236 -0.4194  0.1445 -0.7613
    4CHTO    H4 1686   7.918   7.852   2.235 -0.6574  0.2737 -1.4936
    4CHTO    O5 1687   7.711   7.651   2.122 -0.5178  0.2751  0.3022
    4CHTO   C10 1688   7.631   7.590   2.016  0.5035  0.1388  0.9689
    4CHTO   H23 1689   7.563   7.665   1.975 -0.2594 -0.6793  0.7309
    4CHTO   C17 1690   7.522   7.496   2.074  0.1821 -0.3176  0.2150
    4CHTO   O12 1691   7.581   7.382   2.139 -0.2433 -0.0528 -0.2101
    4CHTO    H6 1692   7.517   7.318   2.164 -1.2983  0.5036 -1.4018
    5CHTO  H203 1693   7.932   3.605   0.496 -0.3781  0.7328 -0.2086
    5CHTO   O82 1694   7.896   3.535   0.547  0.1142  0.4282 -0.2757
    5CHTO  C123 1695   7.979   3.499   0.657  0.0287  0.2353 -0.2219
    5CHTO  H227 1696   8.081   3.534   0.638  0.4072 -0.0334  1.2872
    5CHTO   O77 1697   7.918   3.576   0.765  0.1114 -0.0788 -0.2054
    5CHTO  C118 1698   7.967   3.560   0.904 -0.1640  0.2102  0.5541
    5CHTO  H222 1699   8.076   3.576   0.902 -0.0983 -0.4079 -1.3965
    5CHTO  C125 1700   7.902   3.665   0.998 -0.1149  0.1963 -0.1575
    5CHTO   O84 1701   7.762   3.663   0.993  0.5695 -0.3375 -0.1922
    5CHTO  H205 1702   7.730   3.747   1.020 -1.3843 -0.8745 -0.7649
    5CHTO  C114 1703   7.933   3.417   0.945 -0.2823  0.2556  0.2220
    5CHTO  H218 1704   7.825   3.406   0.948 -0.5109  1.6478 -2.0073
    5CHTO  C116 1705   8.000   3.322   0.842  0.2440 -0.0922  0.2626
    5CHTO  H220 1706   8.110   3.320   0.859 -0.1092  1.6498  3.1287
    5CHTO   O79 1707   7.971   3.187   0.882  0.6763 -1.0246 -0.9519
    5CHTO  H201 1708   8.044   3.151   0.929  1.5936  1.0106 -0.7653
    5CHTO  C120 1709   7.964   3.345   0.694 -0.4993 -0.0061 -0.0788
    5CHTO  H224 1710   7.857   3.317   0.684 -0.0966 -2.1386  1.3003
    5CHTO   N21 1711   8.040   3.252   0.606  0.1151 -0.2106 -0.2547
    5CHTO  H211 1712   8.126   3.307   0.570 -1.3780  0.6515 -2.5582
    5CHTO  H212 1713   8.060   3.161   0.661  2.7253 -0.3677 -1.3552
    5CHTO   O75 1714   7.991   3.402   1.076 -0.6796  0.0607  0.2899
    5CHTO  C112 1715   7.897   3.338   1.194 -0.0635 -0.7295 -0.1136
    5CHTO  H216 1716   7.817   3.282   1.143  1.3842 -1.4347 -1.6546
    5CHTO   O73 1717   7.839   3.448   1.271 -0.2284  0.1363  0.2119
    5CHTO  C113 1718   7.738   3.399   1.361 -0.3233 -0.4441 -0.0352
    5CHTO  H217 1719   7.652   3.356   1.306  0.0451 -2.4438  0.9103
    5CHTO  C124 1720   7.694   3.519   1.440 -0.2606 -0.5238 -0.3463
    5CHTO   O83 1721   7.632   3.621   1.356 -0.1760 -0.1365  0.0847
    5CHTO  H204 1722   7.579   3.673   1.413  2.8062  2.8503  0.2608
    5CHTO  C109 1723   7.799   3.301   1.462  0.0569  0.8072  0.2418
    5CHTO  H213 1724   7.872   3.355   1.525  0.1131 -0.5417  1.3530
    5CHTO  C110 1725   7.877   3.181   1.384  0.1060  0.1798  0.0495
    5CHTO  H214 1726   7.795   3.134   1.329 -0.6513 -0.5183  1.7101
    5CHTO   O78 1727   7.947   3.110   1.483  0.1458  0.4080 -0.1020
    5CHTO  H200 1728   8.003   3.041   1.453  0.5086  0.4787  0.4032
    5CHTO  C111 1729   7.976   3.238   1.282 -0.0957 -0.5660 -0.1165
    5CHTO  H215 1730   8.053   3.293   1.338  0.5697 -0.4815 -1.1049
    5CHTO   N19 1731   8.048   3.138   1.199  0.4417  0.7462  0.0758
    5CHTO  H207 1732   7.972   3.080   1.148 -1.0406  2.4771  0.2724
    5CHTO  H208 1733   8.115   3.184   1.128  0.1017 -0.1561 -0.8315
    5CHTO   O74 1734   7.693   3.252   1.542 -0.2419  0.1367 -0.1151
    5CHTO  C115 1735   7.726   3.184   1.684 -0.7129  0.0358  0.9199
    5CHTO  H219 1736   7.815   3.122   1.681 -1.1361 -0.5499 -0.0404
    5CHTO   O76 1737   7.753   3.292   1.793 -0.0403 -0.5601 -0.3823
    5CHTO  C122 1738   7.651   3.391   1.805  0.1614  0.4570  0.4881
    5CHTO  H226 1739   7.669   3.460   1.722 -1.3793  1.5391  1.0407
    5CHTO  C126 1740   7.693   3.468   1.939 -0.2780 -0.3191  0.3402
    5CHTO   O85 1741   7.823   3.514   1.937 -0.5329  0.0787 -0.4843
    5CHTO  H206 1742   7.836   3.578   2.005  0.5078  1.8905 -2.3079
    5CHTO  C121 1743   7.505   3.323   1.802 -0.4555  0.0872  0.0029
    5CHTO  H225 1744   7.440   3.365   1.882  0.5758 -1.6341  1.7661
    5CHTO   O81 1745   7.441   3.353   1.675  0.0378 -0.8615 -0.3898
    5CHTO  H202 1746   7.365   3.298   1.667  1.0658 -2.5027  0.7140
    5CHTO  C119 1747   7.511   3.166   1.828 -0.3905 -0.3816 -0.0782
    5CHTO  H223 1748   7.564   3.149   1.921  1.0466  0.2254 -0.7764
    5CHTO  C117 1749   7.601   3.097   1.717 -0.3588  0.0732 -0.0006
    5CHTO  H221 1750   7.552   3.070   1.624 -1.7364  0.7239  0.5188
    5CHTO   N20 1751   7.648   2.962   1.768 -0.0241 -0.0114  0.3274
    5CHTO  H209 1752   7.562   2.917   1.816  1.6163 -0.6476  2.7538
    5CHTO  H210 1753   7.687   2.897   1.691 -1.5565  0.1511 -0.6146
    5CHTO   O80 1754   7.361   3.095   1.868 -0.1786  0.1668  0.6247
    5CHTO  C103 1755   7.258   3.099   1.775 -0.0016 -0.0437 -0.1343
    5CHTO  H190 1756   7.271   3.177   1.701 -2.4169 -0.8204 -1.4230
    5CHTO  C101 1757   7.225   2.964   1.696 -0.0693  0.2243 -0.3379
    5CHTO  H188 1758   7.221   2.884   1.770 -1.1588  0.6348  0.0537
    5CHTO   O68 1759   7.344   2.927   1.609 -0.3893 -0.3695  0.4535
    5CHTO  H168 1760   7.346   2.837   1.584  0.7219  0.0571 -1.0553
    5CHTO   C99 1761   7.093   2.972   1.607  0.4583  0.0080 -0.2093
    5CHTO  H186 1762   7.093   3.054   1.533 -1.7454  0.6763  0.4892
    5CHTO   N17 1763   7.057   2.841   1.540 -0.5595 -0.2668 -0.3935
    5CHTO  H174 1764   7.147   2.794   1.504 -2.1632 -2.9102 -1.0555
    5CHTO  H175 1765   6.976   2.839   1.468 -1.0007 -1.5270  0.1348
    5CHTO   C97 1766   6.984   3.012   1.712  0.2128 -0.4259 -0.5742
    5CHTO  H184 1767   6.992   2.935   1.790  0.0626  0.7154  0.6018
    5CHTO   O64 1768   7.017   3.143   1.769  0.1659 -0.1145  0.5372
    5CHTO  C104 1769   7.133   3.136   1.858  0.3057 -0.1513 -0.5226
    5CHTO  H191 1770   7.123   3.066   1.941  1.1785 -0.8577 -1.0067
    5CHTO  C108 1771   7.153   3.275   1.918  0.2005  0.1836  0.2791
    5CHTO   O71 1772   7.209   3.270   2.051 -0.1696 -0.4342  0.3893
    5CHTO  H171 1773   7.283   3.213   2.055  0.7950  0.8993  2.0789
    5CHTO   O62 1774   6.853   3.027   1.646 -0.1891  0.1299 -0.1037
    5CHTO   C91 1775   6.739   3.000   1.728  0.1430  0.7713 -0.1694
    5CHTO  H178 1776   6.766   3.006   1.834  0.3274 -2.6101  0.0278
    5CHTO   C92 1777   6.688   2.854   1.693  0.4527  0.9085 -0.9371
    5CHTO  H179 1778   6.687   2.845   1.583 -0.9056 -0.4086 -0.8400
    5CHTO   O66 1779   6.782   2.759   1.747  0.4729 -0.1956 -0.4430
    5CHTO  H166 1780   6.856   2.765   1.689  1.4582 -1.1034  0.7028
    5CHTO   C93 1781   6.544   2.820   1.765  0.3666 -0.0442 -0.3954
    5CHTO  H180 1782   6.570   2.813   1.872 -1.6062  1.0246  0.1790
    5CHTO   N16 1783   6.490   2.687   1.716 -0.1124  0.2182 -0.9522
    5CHTO  H172 1784   6.577   2.633   1.682 -0.8306  0.1463 -2.7214
    5CHTO  H173 1785   6.423   2.697   1.632 -3.1719  0.0194  1.3878
    5CHTO   C94 1786   6.453   2.945   1.751  0.0879  0.3705  0.0545
    5CHTO  H181 1787   6.427   2.964   1.647  1.4958 -0.7899 -0.5317
    5CHTO   O61 1788   6.520   3.057   1.808 -0.0862  0.4129  0.0498
    5CHTO   C95 1789   6.622   3.105   1.718 -0.3544  0.6874 -0.9510
    5CHTO  H182 1790   6.587   3.123   1.616  2.8316 -1.8534 -2.6065
    5CHTO  C106 1791   6.654   3.241   1.785 -0.2815  0.2254  0.2486
    5CHTO   O69 1792   6.756   3.307   1.713  0.1420  0.1251 -0.6454
    5CHTO  H169 1793   6.757   3.395   1.746 -3.2935  0.0694 -0.1935
    5CHTO   O63 1794   6.326   2.930   1.823 -0.1485 -0.9339  0.5380
    5CHTO   C96 1795   6.206   2.887   1.724  0.1839 -0.0753  0.2814
    5CHTO  H183 1796   6.252   2.815   1.656  0.7513  0.3388  0.2225
    5CHTO   C98 1797   6.144   3.000   1.634 -0.2674  0.2861 -0.4504
    5CHTO  H185 1798   6.101   3.075   1.701 -2.6575 -2.1514  0.8402
    5CHTO   O67 1799   6.239   3.074   1.556  0.5443 -0.3541 -0.0739
    5CHTO  H167 1800   6.274   3.018   1.489  0.6509 -0.3859  0.0095
    5CHTO  C102 1801   6.021   2.956   1.547  0.0528  0.6665  0.3267
    5CHTO  H189 1802   6.061   2.921   1.451 -1.6470 -0.1977 -0.0925
    5CHTO   N18 1803   5.940   3.081   1.518 -0.0769  0.4045  0.2788
    5CHTO  H176 1804   5.854   3.063   1.455  0.1924  0.0326  0.0176
    5CHTO  H177 1805   6.004   3.159   1.481  0.4381  0.0864  0.5009
    5CHTO  C105 1806   5.926   2.853   1.618  0.5387 -0.4553 -0.5983
    5CHTO  H192 1807   5.850   2.903   1.678  0.1189 -1.9555  0.1520
    5CHTO   O65 1808   5.994   2.757   1.700 -0.5047  0.7241 -0.0539
    5CHTO  C100 1809   6.092   2.805   1.795 -0.8180 -0.1467 -0.3352
    5CHTO  H187 1810   6.038   2.873   1.862  0.9816  0.5975  0.3756
    5CHTO  C107 1811   6.142   2.688   1.880  0.0547 -0.3287 -0.9252
    5CHTO   O70 1812   6.199   2.716   2.005 -0.5499 -0.1877 -0.7325
    5CHTO  H170 1813   6.229   2.638   2.047  3.3145  0.5262 -1.8721
    5CHTO   O57 1814   5.847   2.790   1.486 -0.2401 -0.6765  0.7104
    5CHTO   C85 1815   5.731   2.715   1.502 -0.5228 -0.7674  0.1927
    5CHTO  H157 1816   5.661   2.767   1.571 -2.6611  0.3567 -2.7542
    5CHTO   C83 1817   5.761   2.588   1.570  0.1547  0.4926 -0.5251
    5CHTO  H155 1818   5.782   2.616   1.673  0.4312 -0.6952 -0.2450
    5CHTO   O56 1819   5.871   2.524   1.502  0.0437  0.2449 -0.5295
    5CHTO  H135 1820   5.891   2.439   1.538  0.2972  0.8546  0.7827
    5CHTO   C81 1821   5.635   2.495   1.572 -0.3436 -0.2216  0.4207
    5CHTO  H153 1822   5.553   2.550   1.619  1.1263  0.9269  1.7315
    5CHTO   N14 1823   5.655   2.378   1.662  0.7865  0.4108 -0.3481
    5CHTO  H141 1824   5.629   2.291   1.606  1.9005  0.3693 -0.8152
    5CHTO  H142 1825   5.760   2.371   1.681  0.7676 -1.2599 -0.7808
    5CHTO   C79 1826   5.596   2.456   1.421 -0.0207 -0.0480  0.6102
    5CHTO  H151 1827   5.503   2.401   1.431 -0.0361  0.2040  1.9747
    5CHTO   O52 1828   5.575   2.573   1.346 -0.5642  0.4894 -0.1191
    5CHTO   C86 1829   5.666   2.690   1.351 -0.1422 -0.5097 -0.0710
    5CHTO  H158 1830   5.733   2.666   1.266 -0.3719  1.7131 -0.9174
    5CHTO   C90 1831   5.591   2.819   1.306 -0.8765 -0.1619 -0.1227
    5CHTO   O60 1832   5.545   2.818   1.168 -0.6182 -0.2380  0.4635
    5CHTO  H138 1833   5.538   2.907   1.140  0.6313  0.0204  0.9290
    5CHTO   O50 1834   5.704   2.378   1.362 -0.3474  0.5135 -0.0886
    5CHTO   C73 1835   5.730   2.297   1.245  0.0632  0.2470  0.3281
    5CHTO  H145 1836   5.654   2.321   1.169  0.4211  1.0492  0.2159
    5CHTO   C74 1837   5.727   2.141   1.280 -0.0422 -0.8608 -0.0445
    5CHTO  H146 1838   5.630   2.100   1.313 -0.7213  1.7638  1.3088
    5CHTO   O54 1839   5.747   2.061   1.155 -0.0738 -0.0803 -0.1187
    5CHTO  H133 1840   5.836   2.069   1.126 -0.4125  3.4224 -0.4232
    5CHTO   C75 1841   5.849   2.105   1.374 -0.3885 -1.3399  0.6916
    5CHTO  H147 1842   5.832   2.151   1.473  0.1281 -1.1480  0.6929
    5CHTO   N13 1843   5.861   1.966   1.408  1.1970  0.0626  0.1938
    5CHTO  H139 1844   5.911   1.913   1.328 -1.1646 -0.4094 -1.0020
    5CHTO  H140 1845   5.912   1.939   1.500 -0.7870 -0.6758  1.1010
    5CHTO   C76 1846   5.991   2.169   1.312  0.3967 -0.2125  0.5475
    5CHTO  H148 1847   6.001   2.119   1.215  1.1836  0.6255  0.1870
    5CHTO   O49 1848   5.976   2.314   1.282  0.2802 -0.4277 -0.4759
    5CHTO   C77 1849   5.872   2.330   1.186  0.3884  0.1658  0.4285
    5CHTO  H149 1850   5.890   2.261   1.104  1.7202 -0.7166  1.4389
    5CHTO   C88 1851   5.890   2.474   1.139 -0.5600  0.0002 -0.0020
    5CHTO   O58 1852   5.996   2.491   1.031  0.5867  0.1977  0.3942
    5CHTO  H136 1853   6.025   2.580   1.032 -0.8312  0.6731  0.2440
    5CHTO   O51 1854   6.110   2.152   1.423 -0.9348  0.0206  0.6343
    5CHTO   C78 1855   6.233   2.197   1.364 -0.2023 -0.5615  0.1474
    5CHTO  H150 1856   6.211   2.253   1.271 -2.0809  0.0036  0.9204
    5CHTO   C80 1857   6.318   2.072   1.323  0.4759  0.0008 -0.3424
    5CHTO  H152 1858   6.320   2.006   1.413 -0.8461  0.9978  0.4314
    5CHTO   O55 1859   6.249   1.996   1.224 -0.1038  0.0381  0.0077
    5CHTO  H134 1860   6.297   1.918   1.205 -1.0128 -0.4014 -0.5249
    5CHTO   C84 1861   6.464   2.100   1.288  0.4922 -0.1674  0.1844
    5CHTO  H156 1862   6.467   2.164   1.200 -0.3090  1.6140  1.4176
    5CHTO   N15 1863   6.546   1.971   1.266 -0.4450 -0.5696 -0.1008
    5CHTO  H143 1864   6.508   1.902   1.192  0.3684 -3.0309  1.7170
    5CHTO  H144 1865   6.556   1.921   1.360 -0.2989  2.6865  1.6885
    5CHTO   C87 1866   6.529   2.199   1.387 -0.2565 -0.5998  0.2519
    5CHTO  H159 1867   6.556   2.138   1.474 -1.1873 -2.9340 -1.0355
    5CHTO   O53 1868   6.435   2.323   1.418  0.2646  0.8531  0.2330
    5CHTO   C82 1869   6.303   2.296   1.468  0.2386  0.5359 -0.0790
    5CHTO  H154 1870   6.306   2.250   1.567  0.9645  1.9574  0.5830
    5CHTO   C89 1871   6.216   2.427   1.472 -0.3654  0.0450 -0.7656
    5CHTO   O59 1872   6.213   2.471   1.610  0.1740  0.6833  0.3231
    5CHTO  H137 1873   6.131   2.445   1.648  0.9406 -0.2512  1.3857
    5CHTO   O45 1874   6.675   2.270   1.316  0.0612 -0.3222  0.2928
    5CHTO   C67 1875   6.768   2.314   1.422 -0.0138 -0.4907  0.3182
    5CHTO  H124 1876   6.710   2.322   1.514 -1.4141  0.4252 -0.6231
    5CHTO   C65 1877   6.890   2.220   1.441 -0.1571 -0.0246  0.5538
    5CHTO  H122 1878   6.901   2.162   1.349 -0.3740 -0.5330  0.8471
    5CHTO   O44 1879   6.858   2.117   1.531 -0.5930  0.0607  0.5519
    5CHTO  H102 1880   6.844   2.142   1.620  1.4504 -0.0885  0.9281
    5CHTO   C63 1881   7.022   2.305   1.452 -0.3428 -0.6058  0.3338
    5CHTO  H120 1882   7.036   2.359   1.358  2.5661 -1.8156  0.0183
    5CHTO   N11 1883   7.141   2.225   1.463  0.3967  0.5092  0.2582
    5CHTO  H108 1884   7.131   2.155   1.543  0.9714  0.6904  0.4862
    5CHTO  H109 1885   7.145   2.163   1.375 -0.9595  1.1368 -0.2670
    5CHTO   C61 1886   7.007   2.423   1.544  0.0554  0.0649  0.1867
    5CHTO  H118 1887   7.096   2.485   1.522  2.4899 -2.5512  2.2511
    5CHTO   O40 1888   6.890   2.502   1.507  0.5409 -0.2369  0.1642
    5CHTO   C68 1889   6.805   2.462   1.392  0.3264  0.0210  0.1732
    5CHTO  H125 1890   6.866   2.473   1.300 -2.0747 -0.5631 -1.5394
    5CHTO   C72 1891   6.676   2.562   1.378  0.4133 -0.1428 -0.4414
    5CHTO   O48 1892   6.709   2.705   1.348 -0.3139  0.0096  0.4391
    5CHTO  H105 1893   6.693   2.747   1.430 -1.4760 -0.2083  0.3352
    5CHTO   O38 1894   6.996   2.381   1.681  0.2671  0.5396 -0.3329
    5CHTO   C55 1895   6.979   2.495   1.772 -0.0898 -0.2827 -0.5343
    5CHTO  H112 1896   6.924   2.577   1.724 -1.1385  1.3238  3.2429
    5CHTO   C56 1897   7.115   2.544   1.831 -0.0729 -0.6452 -0.3494
    5CHTO  H113 1898   7.162   2.455   1.874  0.5955  0.0255  0.3319
    5CHTO   O42 1899   7.196   2.590   1.721  1.0762  0.6614  0.3809
    5CHTO  H100 1900   7.276   2.629   1.749  2.1320  0.1330 -1.7772
    5CHTO   C57 1901   7.087   2.660   1.942 -0.3573  0.1495 -0.7240
    5CHTO  H114 1902   7.053   2.756   1.901  0.6382  1.2823  1.0315
    5CHTO   N10 1903   7.215   2.699   2.010  0.1642  0.1241 -0.2607
    5CHTO  H106 1904   7.276   2.615   2.039  0.3368  0.1834 -0.4436
    5CHTO  H107 1905   7.186   2.743   2.104  0.1863 -1.5937  0.5518
    5CHTO   C58 1906   6.982   2.607   2.039  0.3659 -1.2067  0.9010
    5CHTO  H115 1907   7.020   2.526   2.105 -0.1288 -0.8620  1.6211
    5CHTO   O37 1908   6.867   2.556   1.979  0.5029 -0.3515  0.6253
    5CHTO   C59 1909   6.893   2.444   1.895 -0.0456 -0.1173 -0.2060
    5CHTO  H116 1910   6.948   2.370   1.953  1.6888  1.9558  0.8425
    5CHTO   C70 1911   6.757   2.395   1.845 -0.1850 -0.0689 -0.4287
    5CHTO   O46 1912   6.764   2.263   1.795  0.3963  0.2828 -0.3573
    5CHTO  H103 1913   6.677   2.227   1.792  0.1780  0.6993  0.8019
    5CHTO   O39 1914   6.926   2.731   2.146  0.3889 -0.1134 -0.3308
    5CHTO   C60 1915   6.792   2.782   2.128 -0.7371  0.0336  0.2201
    5CHTO  H117 1916   6.765   2.769   2.023 -0.6726  0.2714  0.1758
    5CHTO   C62 1917   6.705   2.683   2.203 -0.1984 -0.0365  0.0134
    5CHTO  H119 1918   6.710   2.589   2.145  2.7657  1.3455 -2.1078
    5CHTO   O43 1919   6.752   2.681   2.340  0.4537 -0.0812 -0.4304
    5CHTO  H101 1920   6.746   2.769   2.371 -3.2261 -0.7048  0.9362
    5CHTO   C66 1921   6.558   2.738   2.175 -0.9070  0.1037 -0.0574
    5CHTO  H123 1922   6.539   2.730   2.068  0.8192  1.4462 -0.4774
    5CHTO   N12 1923   6.460   2.650   2.246 -0.3257 -0.1059  1.0337
    5CHTO  H110 1924   6.447   2.553   2.199  0.4904 -0.5773  1.7585
    5CHTO  H111 1925   6.366   2.703   2.252 -0.6819 -0.6735  0.5400
    5CHTO   C69 1926   6.541   2.888   2.212 -0.7957  0.0287 -0.3111
    5CHTO  H126 1927   6.561   2.901   2.320  3.0803 -1.2090 -0.8015
    5CHTO   O41 1928   6.642   2.971   2.128 -0.0290 -0.0352  0.2286
    5CHTO   C64 1929   6.776   2.933   2.164 -0.4283  0.2285  0.3899
    5CHTO  H121 1930   6.796   2.944   2.272 -1.6315 -0.4442  0.6866
    5CHTO   C71 1931   6.872   3.017   2.078 -0.4222  0.2719  0.1590
    5CHTO   O47 1932   6.865   3.156   2.105 -0.1402 -0.1856  0.4827
    5CHTO  H104 1933   6.850   3.203   2.025  0.0575 -0.6818  0.1503
    5CHTO   O34 1934   6.394   2.942   2.176  0.5473 -0.3966  0.7687
    5CHTO   C49 1935   6.345   3.109   2.162  0.1822  0.3941 -0.2534
    5CHTO   H91 1936   6.384   3.148   2.068 -0.8170 -1.2119 -1.3662
    5CHTO   C47 1937   6.389   3.201   2.282 -0.5603 -0.3396 -0.5440
    5CHTO   H89 1938   6.355   3.304   2.261 -1.0369 -0.3552  0.1382
    5CHTO   O33 1939   6.534   3.192   2.277  0.8723 -0.3950 -0.3474
    5CHTO   H70 1940   6.568   3.280   2.275 -1.2419  0.4969  1.0462
    5CHTO   C45 1941   6.323   3.146   2.418  0.9493  0.2744 -0.4475
    5CHTO   H87 1942   6.346   3.039   2.429  0.6382  0.3821  1.3676
    5CHTO    N8 1943   6.379   3.214   2.537  0.3734  0.1514  0.6422
    5CHTO   H75 1944   6.367   3.321   2.524  2.2981  0.0865 -2.1052
    5CHTO   H76 1945   6.481   3.179   2.544 -0.8726 -3.9950 -0.4739
    5CHTO   C43 1946   6.162   3.165   2.404  0.1113  0.3614 -0.0482
    5CHTO   H85 1947   6.122   3.120   2.494 -1.6265 -1.7766 -1.8161
    5CHTO   O29 1948   6.119   3.097   2.282 -0.7632 -0.3122  0.5976
    5CHTO   C50 1949   6.194   3.113   2.161  0.1894  0.1515 -0.2513
    5CHTO   H92 1950   6.172   3.031   2.091  1.1162  0.5612 -1.0213
    5CHTO   C54 1951   6.137   3.238   2.095  0.3102 -0.7371  0.1499
    5CHTO   O36 1952   6.175   3.243   1.958 -0.2143  0.1529 -0.1962
    5CHTO   H72 1953   6.151   3.329   1.928  3.2283  1.3313  0.2690
    5CHTO   O27 1954   6.119   3.301   2.397 -0.3908  0.5978  0.6938
    5CHTO   C37 1955   6.007   3.382   2.425 -0.3475  0.1925  0.1374
    5CHTO   H79 1956   5.999   3.462   2.350 -1.3477 -1.4980 -1.5972
    5CHTO   C38 1957   5.871   3.311   2.417 -0.5647 -0.6662  0.6482
    5CHTO   H80 1958   5.867   3.244   2.504  0.6010  0.5682  1.6922
    5CHTO   O31 1959   5.856   3.240   2.299  0.7215 -0.1453 -0.5300
    5CHTO   H68 1960   5.837   3.149   2.311 -0.3192  0.1307  0.0273
    5CHTO   C39 1961   5.760   3.420   2.446  0.2226 -0.5855  0.7419
    5CHTO   H81 1962   5.766   3.486   2.358  0.8165 -1.5322  0.0608
    5CHTO    N7 1963   5.624   3.362   2.442 -0.3085  0.1256 -0.0422
    5CHTO   H73 1964   5.613   3.273   2.503 -0.7999  0.4589  0.3649
    5CHTO   H74 1965   5.545   3.435   2.457 -1.8150 -1.0540 -1.9022
    5CHTO   C40 1966   5.790   3.505   2.575 -0.2361 -0.2029 -0.3215
    5CHTO   H82 1967   5.776   3.446   2.665 -0.1229 -1.1400 -0.9118
    5CHTO   O26 1968   5.922   3.562   2.567  0.1208  0.0664 -0.0253
    5CHTO   C41 1969   6.023   3.459   2.561 -0.3130 -0.0146 -0.0879
    5CHTO   H83 1970   6.010   3.398   2.651 -1.3587 -0.1338 -0.3129
    5CHTO   C52 1971   6.165   3.518   2.563 -0.0089 -0.5900 -0.5648
    5CHTO   O35 1972   6.183   3.602   2.680 -0.2042  0.6795  0.1083
    5CHTO   H71 1973   6.271   3.635   2.680  0.0148  0.1268 -1.1419
    5CHTO   O28 1974   5.713   3.624   2.593  0.0818  0.1313  0.1770
    5CHTO   C42 1975   5.685   3.682   2.731  0.5084 -0.0393  0.1776
    5CHTO   H84 1976   5.612   3.760   2.711  1.2236  0.6287  0.1708
    5CHTO   C44 1977   5.803   3.757   2.802  0.2497 -0.6689  0.5041
    5CHTO   H86 1978   5.890   3.742   2.737  0.8760  1.2086  0.8725
    5CHTO   O32 1979   5.767   3.899   2.819  0.3835  0.2338 -0.1389
    5CHTO   H69 1980   5.846   3.943   2.845 -0.2945  1.1042  0.4833
    5CHTO   C48 1981   5.848   3.695   2.938  0.3872 -0.1961 -0.0917
    5CHTO   H90 1982   5.784   3.712   3.024  1.6188  1.0357  0.6019
    5CHTO    N9 1983   5.987   3.736   2.975 -1.0705  0.4956  0.6708
    5CHTO   H77 1984   6.008   3.832   2.930  1.4878 -0.5116 -0.3613
    5CHTO   H78 1985   5.992   3.759   3.080 -2.0317  2.6764  0.2774
    5CHTO   C51 1986   5.841   3.537   2.929 -0.1844 -0.4666 -0.1429
    5CHTO   H93 1987   5.902   3.513   2.842  3.2581  1.1528  1.7200
    5CHTO   O30 1988   5.702   3.498   2.913 -0.1174  0.4163  0.2733
    5CHTO   C46 1989   5.608   3.578   2.826 -0.7017  0.0847 -0.3598
    5CHTO   H88 1990   5.555   3.507   2.763  2.0233 -1.8655 -0.5415
    5CHTO   C53 1991   5.509   3.645   2.918 -0.2533 -0.5944 -0.0406
    5CHTO   O72 1992   5.432   3.549   2.990  0.1464  0.3783 -0.1275
    5CHTO  H199 1993   5.369   3.508   2.934  0.5314 -0.7643  0.2598
    5CHTO   O22 1994   5.890   3.474   3.049 -0.0844  0.6635  0.6187
    5CHTO   C31 1995   5.910   3.327   3.064  1.0161  0.0205 -0.2105
    5CHTO   H59 1996   5.951   3.310   3.166  3.1999 -2.6319 -1.4825
    5CHTO   C29 1997   5.787   3.237   3.045 -0.6538  0.1748 -0.2881
    5CHTO   H57 1998   5.747   3.253   2.944 -1.2467  1.6333  0.1637
    5CHTO   O21 1999   5.681   3.278   3.132  0.2180  0.2059  0.3722
    5CHTO   H37 2000   5.611   3.215   3.135  0.2019  0.1864 -0.2877
    5CHTO   C27 2001   5.831   3.090   3.058 -0.3525  0.2313 -0.3518
    5CHTO   H55 2002   5.855   3.070   3.163 -2.0678  2.1652  0.4444
    5CHTO    N5 2003   5.714   3.006   3.023  0.2690  0.3442  0.2896
    5CHTO   H43 2004   5.733   2.901   3.038  3.2760  0.7140 -0.6318
    5CHTO   H44 2005   5.675   3.039   2.928 -0.6037  0.3615  0.6464
    5CHTO   C25 2006   5.950   3.058   2.954  0.2353  0.2052  0.3517
    5CHTO   H53 2007   5.906   3.081   2.856  0.4990 -1.3864 -0.1614
    5CHTO   O17 2008   6.059   3.144   2.984 -0.2266 -0.8289  0.4374
    5CHTO   C32 2009   6.029   3.287   2.967 -0.3114  0.0305 -0.1363
    5CHTO   H60 2010   5.993   3.296   2.865 -0.5850  1.8044  0.1007
    5CHTO   C36 2011   6.153   3.373   3.002 -0.1834  0.1966  0.1032
    5CHTO   O25 2012   6.268   3.344   2.916 -0.0431  0.3982  0.1844
    5CHTO   H40 2013   6.256   3.351   2.823  0.2251 -0.3913  0.0873
    5CHTO   O15 2014   5.998   2.906   2.949 -0.3476  0.0588  0.1366
    5CHTO   C19 2015   6.107   2.807   2.949  0.2407  0.4962 -0.3506
    5CHTO   H47 2016   6.191   2.852   3.003  1.2171 -2.0205  0.2882
    5CHTO   C20 2017   6.066   2.669   3.019  0.1428 -1.1864  0.2822
    5CHTO   H48 2018   5.988   2.618   2.960  1.1870 -0.8506 -1.4373
    5CHTO   O19 2019   6.007   2.704   3.146 -0.0930  0.1414 -0.6490
    5CHTO   H35 2020   5.997   2.622   3.192  2.3796 -0.2300 -0.7321
    5CHTO   C21 2021   6.198   2.581   3.025  0.4263  0.6469  0.5434
    5CHTO   H49 2022   6.265   2.630   3.096 -1.2073  2.9434  0.5877
    5CHTO    N4 2023   6.178   2.447   3.083  0.1793  0.1933 -0.0694
    5CHTO   H41 2024   6.097   2.391   3.040 -1.9355  0.7476  3.0469
    5CHTO   H42 2025   6.270   2.390   3.087 -0.1552 -0.4205 -1.0799
    5CHTO   C22 2026   6.276   2.570   2.892  0.2746 -0.9574  0.0773
    5CHTO   H50 2027   6.236   2.485   2.837  1.0236 -0.3422 -1.4463
    5CHTO   O14 2028   6.266   2.691   2.816  0.3590  0.1457 -0.3106
    5CHTO   C23 2029   6.157   2.772   2.807  0.7975  0.0545 -0.5707
    5CHTO   H51 2030   6.079   2.724   2.746 -0.5927 -0.3074  1.4290
    5CHTO   C34 2031   6.205   2.892   2.730 -0.0665 -0.2446 -0.2030
    5CHTO   O23 2032   6.239   2.856   2.592  0.4170  0.0706  0.1806
    5CHTO   H38 2033   6.188   2.900   2.527 -1.2839 -1.2215  0.6174
    5CHTO   O16 2034   6.415   2.570   2.927  0.6076  0.4927  0.0662
    5CHTO   C24 2035   6.495   2.461   2.839 -0.6989  0.2978  0.1951
    5CHTO   H52 2036   6.428   2.406   2.773 -0.7693 -1.2367  1.5067
    5CHTO   C26 2037   6.558   2.357   2.928 -0.1514  0.1218  0.6497
    5CHTO   H54 2038   6.600   2.409   3.018  0.0274 -1.4632  1.5013
    5CHTO   O20 2039   6.466   2.269   2.996 -0.1203 -0.7774  0.2007
    5CHTO   H36 2040   6.422   2.212   2.936  1.7477 -2.2585  0.2053
    5CHTO   C30 2041   6.668   2.269   2.858  0.0002 -1.0102  0.9978
    5CHTO   H58 2042   6.621   2.195   2.791  1.2482 -0.4651 -0.5174
    5CHTO    N6 2043   6.751   2.196   2.956 -0.2511 -0.4227  0.0661
    5CHTO   H45 2044   6.694   2.180   3.046 -0.1726  0.5052  0.2897
    5CHTO   H46 2045   6.791   2.103   2.921 -0.7730 -0.7157  0.2393
    5CHTO   C33 2046   6.756   2.358   2.768 -0.5060  0.6082  0.2182
    5CHTO   H61 2047   6.812   2.420   2.840  0.7552 -1.1767  0.8312
    5CHTO   O18 2048   6.679   2.438   2.683  0.2021  0.1015 -0.3434
    5CHTO   C28 2049   6.599   2.536   2.747  0.1434 -0.7432  0.1643
    5CHTO   H56 2050   6.662   2.600   2.809 -0.0790 -0.8126  0.4640
    5CHTO   C35 2051   6.537   2.624   2.638  0.0082 -0.2071 -0.3631
    5CHTO   O24 2052   6.584   2.762   2.652  0.4493  0.0359  0.0325
    5CHTO   H39 2053   6.525   2.816   2.603 -0.0532 -1.9924 -1.6346
    5CHTO    O9 2054   6.861   2.286   2.697  0.8821 -0.2108 -0.3217
    5CHTO   C13 2055   6.826   2.222   2.565 -0.8711 -0.0453  0.1283
    5CHTO   H26 2056   6.721   2.188   2.565 -0.4130 -1.6394 -2.8141
    5CHTO   C11 2057   6.921   2.108   2.557  0.0698 -0.0075  0.1926
    5CHTO   H24 2058   6.901   2.035   2.637 -2.6336 -0.9963 -1.3301
    5CHTO    O8 2059   7.058   2.147   2.561 -0.0469 -0.7789  0.1678
    5CHTO    H3 2060   7.119   2.084   2.528 -0.6891 -1.1439 -0.3281
    5CHTO    C9 2061   6.886   2.038   2.422  0.0756  0.7705 -0.1910
    5CHTO   H22 2062   6.780   2.009   2.422  0.4721 -0.7635 -1.4008
    5CHTO    N2 2063   6.942   1.903   2.402 -0.3639 -0.5991  0.0552
    5CHTO   H10 2064   6.883   1.831   2.457  0.5413 -1.2706  0.1648
    5CHTO   H11 2065   7.044   1.889   2.432 -0.9686 -1.0826  1.9382
    5CHTO    C7 2066   6.922   2.132   2.302  0.1948  0.0822 -0.1822
    5CHTO   H20 2067   6.877   2.078   2.216 -1.0183 -0.9013  1.0523
    5CHTO    O4 2068   6.871   2.262   2.320  0.4695  0.4364 -0.4088
    5CHTO   C14 2069   6.851   2.323   2.445 -0.0513  0.1978 -0.0564
    5CHTO   H27 2070   6.761   2.386   2.424 -0.1287  0.8022  1.9511
    5CHTO   C18 2071   6.966   2.421   2.470 -0.7136  0.2526  1.3301
    5CHTO   O13 2072   6.983   2.511   2.357 -0.5626  0.4189  0.2578
    5CHTO    H7 2073   7.023   2.593   2.380 -0.2366 -0.1747  1.8448
    5CHTO    O2 2074   7.101   2.148   2.298 -0.1339  0.0875 -0.2020
    5CHTO    C1 2075   7.147   2.205   2.171 -0.8567  0.1684  0.2923
    5CHTO   H14 2076   7.099   2.303   2.150  0.8194  0.7469 -0.9948
    5CHTO    C2 2077   7.141   2.103   2.044 -0.2700 -0.0359 -0.2350
    5CHTO   H15 2078   7.188   2.012   2.082  1.2999  1.1762  0.7746
    5CHTO    O6 2079   7.001   2.078   2.008  0.2075 -0.0091 -0.3619
    5CHTO    H1 2080   6.946   2.153   2.024 -0.9294 -1.2040  1.5063
    5CHTO    C3 2081   7.220   2.162   1.916  0.8424 -0.1174  0.0463
    5CHTO   H16 2082   7.164   2.245   1.871  1.3404  0.9630  1.3966
    5CHTO    N1 2083   7.230   2.063   1.805  0.1167 -0.1789  0.4536
    5CHTO    H8 2084   7.134   2.034   1.764  1.1164 -0.2649 -1.9097
    5CHTO    H9 2085   7.282   1.976   1.842  0.0957  0.0092  0.9261
    5CHTO    C4 2086   7.358   2.218   1.958 -0.4997 -0.3954  0.4478
    5CHTO   H17 2087   7.430   2.138   1.972  0.4121  0.4099  0.4623
    5CHTO    O1 2088   7.355   2.293   2.080  0.3791  0.0296  0.5600
    5CHTO    C5 2089   7.297   2.237   2.195  0.4167 -0.1263 -0.0229
    5CHTO   H18 2090   7.351   2.147   2.224 -0.2731 -1.1994 -2.0122
    5CHTO   C16 2091   7.304   2.339   2.311  0.2903 -0.5481  0.4411
    5CHTO   O11 2092   7.438   2.378   2.339  0.0721  0.0929  0.2374
    5CHTO    H5 2093   7.450   2.459   2.293 -0.9513  0.3707  0.4574
    5CHTO    O3 2094   7.416   2.302   1.862 -0.0649 -0.3785  0.0241
    5CHTO    C6 2095   7.558   2.296   1.850  0.3004 -0.0549 -0.0386
    5CHTO   H19 2096   7.617   2.245   1.926  0.8216  2.8944  1.6131
    5CHTO    C8 2097   7.588   2.238   1.707  0.1520  0.3597 -0.6687
    5CHTO   H21 2098   7.528   2.291   1.634 -0.7454 -0.5360 -0.5866
    5CHTO    O7 2099   7.548   2.104   1.719  0.4456 -0.0858 -0.2725
    5CHTO    H2 2100   7.614   2.044   1.746 -1.1090 -0.3201  3.2645
    5CHTO   C12 2101   7.738   2.247   1.659 -0.4926  0.2488  0.0656
    5CHTO   H25 2102   7.807   2.188   1.723  0.7547  1.5402 -0.0572
    5CHTO    N3 2103   7.751   2.197   1.517 -0.3950 -0.4652 -0.2311
    5CHTO   H12 2104   7.838   2.134   1.507 -0.1659 -0.4161  1.2979
    5CHTO   H13 2105   7.661   2.157   1.474 -0.4219  1.8532 -2.4113
    5CHTO   C15 2106   7.780   2.392   1.671 -0.3067  0.5134 -0.0247
    5CHTO   H28 2107   7.723   2.450   1.598  0.2485 -2.3118 -2.8012
    5CHTO   O10 2108   7.928   2.409   1.646  0.2157  0.0391  0.2759
    5CHTO    H4 2109   7.937   2.493   1.606  0.7069 -0.3996 -0.5608
    5CHTO    O5 2110   7.755   2.438   1.812  0.5509 -0.4294  0.2172
    5CHTO   C10 2111   7.616   2.440   1.839  0.0066 -0.0174  0.3428
    5CHTO   H23 2112   7.566   2.493   1.758  1.7373 -1.0534 -1.4415
    5CHTO   C17 2113   7.590   2.537   1.953  0.4863  0.2299  0.2913
    5CHTO   O12 2114   7.653   2.488   2.073  0.5096 -0.3437 -0.0652
    5CHTO    H6 2115   7.594   2.426   2.112  0.9120 -2.3468 -2.5328
    6CHTO  H203 2116   7.029   4.393   2.729  0.8167 -1.1710 -1.4417
    6CHTO   O82 2117   7.086   4.457   2.692  0.1503 -0.1037 -0.6406
    6CHTO  C123 2118   7.036   4.588   2.725  0.2667  0.1350  0.1263
    6CHTO  H227 2119   7.097   4.664   2.673  0.7392  0.0235  0.5153
    6CHTO   O77 2120   6.895   4.593   2.676 -0.1139 -0.6775  0.1967
    6CHTO  C118 2121   6.835   4.721   2.687  0.2547  0.6458  0.2946
    6CHTO  H222 2122   6.896   4.796   2.635  0.6435  0.9308  1.1561
    6CHTO  C125 2123   6.694   4.703   2.616 -0.5348  0.3474 -0.7896
    6CHTO   O84 2124   6.703   4.683   2.473  0.1766  0.1261  0.7235
    6CHTO  H205 2125   6.710   4.765   2.427 -2.6406 -0.7879 -1.4403
    6CHTO  C114 2126   6.811   4.765   2.830  0.3913  0.1462 -0.1480
    6CHTO  H218 2127   6.752   4.689   2.880 -0.9820  0.1062 -1.7985
    6CHTO  C116 2128   6.952   4.760   2.904 -0.5688 -0.2028 -0.8636
    6CHTO  H220 2129   7.005   4.846   2.860 -1.0311 -0.9714 -2.9942
    6CHTO   O79 2130   6.923   4.779   3.044 -0.1811  0.0770 -0.4739
    6CHTO  H201 2131   6.993   4.745   3.096  0.3997  0.3798 -1.0515
    6CHTO  C120 2132   7.031   4.618   2.878  0.6297 -0.2898  0.2010
    6CHTO  H224 2133   6.960   4.552   2.932 -0.0223 -0.6194 -1.0589
    6CHTO   N21 2134   7.162   4.618   2.951 -0.0517 -0.2697  0.1525
    6CHTO  H211 2135   7.243   4.661   2.895 -1.6675  2.5095 -0.1526
    6CHTO  H212 2136   7.167   4.651   3.053 -1.1265 -0.2533  0.2127
    6CHTO   O75 2137   6.739   4.890   2.819  0.2905 -0.2191 -0.0235
    6CHTO  C112 2138   6.626   4.904   2.935  0.2783  0.1270  0.2807
    6CHTO  H216 2139   6.655   4.838   3.018  1.7903 -2.7540 -2.4309
    6CHTO   O73 2140   6.507   4.860   2.874  0.2850 -0.1045  0.1199
    6CHTO  C113 2141   6.394   4.851   2.962  0.2026 -0.2637 -0.2318
    6CHTO  H217 2142   6.425   4.788   3.048 -1.7880 -0.0213  0.6801
    6CHTO  C124 2143   6.285   4.779   2.884  0.1410  0.0945 -0.1251
    6CHTO   O83 2144   6.320   4.649   2.848  0.1950 -0.2179  0.1024
    6CHTO  H204 2145   6.327   4.653   2.754 -0.9395  1.3340  0.0691
    6CHTO  C109 2146   6.352   4.995   3.008  0.4342 -0.0268 -0.0355
    6CHTO  H213 2147   6.330   5.055   2.918  1.5176  2.3869  1.2664
    6CHTO  C110 2148   6.472   5.062   3.085  0.4982 -0.1625  0.5828
    6CHTO  H214 2149   6.482   5.016   3.183 -0.5552  1.8973  1.6969
    6CHTO   O78 2150   6.443   5.199   3.114  0.3426  0.0011  0.0637
    6CHTO  H200 2151   6.355   5.198   3.147  0.7669 -1.7826  1.2086
    6CHTO  C111 2152   6.595   5.054   2.995 -0.1231  0.1700 -0.1138
    6CHTO  H215 2153   6.574   5.110   2.903 -0.5531 -0.6252 -0.4973
    6CHTO   N19 2154   6.727   5.105   3.053  0.3585 -0.4280  0.0974
    6CHTO  H207 2155   6.711   5.208   3.081 -1.0327 -0.4456 -0.5732
    6CHTO  H208 2156   6.811   5.095   2.987 -1.2916  0.8906 -2.3046
    6CHTO   O74 2157   6.229   4.992   3.093 -0.4202  0.0348 -0.1818
    6CHTO  C115 2158   6.248   5.012   3.273 -0.5171 -0.3689  0.1744
    6CHTO  H219 2159   6.349   4.997   3.311 -0.6161 -1.1334  0.1441
    6CHTO   O76 2160   6.191   5.172   3.329  0.0811 -0.4564 -0.2003
    6CHTO  C122 2161   6.056   5.196   3.296  0.5255 -0.8038 -0.5010
    6CHTO  H226 2162   6.057   5.251   3.202  0.2806 -0.8071 -0.5065
    6CHTO  C126 2163   6.010   5.307   3.399 -0.3620  0.0908  0.1065
    6CHTO   O85 2164   5.992   5.268   3.534  0.0688 -0.3828 -0.2523
    6CHTO  H206 2165   5.902   5.239   3.539  0.2884 -1.2790 -1.2540
    6CHTO  C121 2166   5.956   5.071   3.291 -0.2616  0.6661 -0.7086
    6CHTO  H225 2167   5.855   5.100   3.327  0.3061  1.5908  0.1640
    6CHTO   O81 2168   5.930   5.024   3.161  0.1658 -0.0870 -0.0175
    6CHTO  H202 2169   5.878   5.086   3.114 -1.0912 -2.6185 -2.1110
    6CHTO  C119 2170   6.009   4.959   3.390  0.3338 -0.4233 -0.2009
    6CHTO  H223 2171   6.021   5.017   3.482  0.4013 -0.0013 -0.4757
    6CHTO  C117 2172   6.158   4.899   3.348  0.3414  0.2853  0.2278
    6CHTO  H221 2173   6.160   4.813   3.281 -0.5585 -0.3610  1.0273
    6CHTO   N20 2174   6.214   4.843   3.477 -0.2125 -0.2766  0.0650
    6CHTO  H209 2175   6.161   4.753   3.503  0.1286 -0.7269 -0.7433
    6CHTO  H210 2176   6.322   4.844   3.490 -0.2387 -0.0321  0.2733
    6CHTO   O80 2177   5.887   4.859   3.433 -0.4926  0.6414  0.8036
    6CHTO  C103 2178   5.848   4.844   3.573 -0.1165  0.7523  0.8207
    6CHTO  H190 2179   5.935   4.840   3.639 -1.2331 -0.0014  2.2475
    6CHTO  C101 2180   5.745   4.949   3.626 -0.3744  0.4594  0.5021
    6CHTO  H188 2181   5.665   4.953   3.552 -0.6884  0.0874  0.8159
    6CHTO   O68 2182   5.824   5.085   3.642  0.0540 -0.2282 -0.2786
    6CHTO  H168 2183   5.901   5.068   3.693 -0.9706 -1.7200  0.8187
    6CHTO   C99 2184   5.667   4.905   3.763  0.2707  0.5430  0.3191
    6CHTO  H186 2185   5.746   4.893   3.840  1.6984  1.1011 -1.0363
    6CHTO   N17 2186   5.568   5.007   3.814 -0.3375 -0.0819 -0.4015
    6CHTO  H174 2187   5.528   5.062   3.731 -0.2688 -0.4024 -0.6445
    6CHTO  H175 2188   5.614   5.070   3.889 -0.6775 -0.2888 -0.0175
    6CHTO   C97 2189   5.604   4.768   3.741 -0.6883 -0.1533 -0.1924
    6CHTO  H184 2190   5.533   4.774   3.658 -0.1284 -0.4098 -0.6907
    6CHTO   O64 2191   5.709   4.684   3.712 -0.1867  0.3382  0.6316
    6CHTO  C104 2192   5.780   4.701   3.589 -0.5801  0.1841 -0.1930
    6CHTO  H191 2193   5.712   4.685   3.506 -0.6802 -1.3774  0.1782
    6CHTO  C108 2194   5.878   4.580   3.579 -0.5708 -0.2303 -0.8903
    6CHTO   O71 2195   5.975   4.574   3.689  0.2872  0.0137 -0.0392
    6CHTO  H171 2196   5.961   4.640   3.754  0.3670 -0.9189  0.9463
    6CHTO   O62 2197   5.539   4.722   3.865 -0.0701  0.4774  1.0038
    6CHTO   C91 2198   5.433   4.627   3.863  0.8105 -0.8528 -0.1819
    6CHTO  H178 2199   5.337   4.677   3.873 -0.0801 -2.2211 -1.6883
    6CHTO   C92 2200   5.456   4.551   3.999  0.6242 -0.3077  0.8349
    6CHTO  H179 2201   5.472   4.622   4.081 -0.8077 -0.9220  1.6757
    6CHTO   O66 2202   5.341   4.476   4.026  0.4665  0.1659 -0.5103
    6CHTO  H166 2203   5.280   4.542   4.053  0.2906  0.9226 -2.6484
    6CHTO   C93 2204   5.584   4.459   3.985 -0.4209 -0.2332 -0.4796
    6CHTO  H180 2205   5.572   4.378   4.059 -2.0501 -1.1317 -1.6865
    6CHTO   N16 2206   5.717   4.508   4.020 -0.4984  0.1590 -0.0379
    6CHTO  H172 2207   5.715   4.615   4.005 -1.5224 -0.1478 -2.2648
    6CHTO  H173 2208   5.746   4.485   4.122  1.4284 -0.8357 -0.7862
    6CHTO   C94 2209   5.593   4.392   3.842  0.4862  0.1523  0.9848
    6CHTO  H181 2210   5.660   4.446   3.775  1.7115 -0.8241  1.4054
    6CHTO   O61 2211   5.464   4.389   3.775 -0.4403  0.4594 -0.2417
    6CHTO   C95 2212   5.420   4.523   3.742  0.5581  0.1255 -0.6718
    6CHTO  H182 2213   5.480   4.554   3.656  0.6610  0.3403 -0.5224
    6CHTO  C106 2214   5.272   4.501   3.688  0.5280  0.3132  0.7358
    6CHTO   O69 2215   5.236   4.620   3.620 -0.3187  0.3659  0.5476
    6CHTO  H169 2216   5.144   4.616   3.600 -0.4062 -0.0649  1.0035
    6CHTO   O63 2217   5.652   4.248   3.863  0.6633  0.1948  0.8360
    6CHTO   C96 2218   5.638   4.136   3.764  0.3317  0.0577  0.0006
    6CHTO  H183 2219   5.598   4.175   3.670 -1.8439  0.5044  1.0980
    6CHTO   C98 2220   5.528   4.032   3.808 -0.0947 -0.1063 -0.4251
    6CHTO  H185 2221   5.545   4.012   3.915  1.2539  1.5213 -0.3095
    6CHTO   O67 2222   5.398   4.092   3.786 -0.4548  0.0575  0.2589
    6CHTO  H167 2223   5.396   4.179   3.819 -1.5802 -0.4398  1.5401
    6CHTO  C102 2224   5.547   3.898   3.719 -0.3839  0.3639  0.2977
    6CHTO  H189 2225   5.532   3.928   3.614 -0.4157  0.4409  0.3244
    6CHTO   N18 2226   5.439   3.800   3.756 -0.6971 -0.3462  0.2288
    6CHTO  H176 2227   5.463   3.703   3.798 -3.3682 -0.7033  1.0207
    6CHTO  H177 2228   5.346   3.797   3.702  0.8628  0.0923 -2.5304
    6CHTO  C105 2229   5.690   3.848   3.729  0.3142  0.3093  0.3768
    6CHTO  H192 2230   5.710   3.824   3.834 -1.3046  2.1651  1.1443
    6CHTO   O65 2231   5.791   3.945   3.685 -0.0564  0.6311  0.2357
    6CHTO  C100 2232   5.780   4.073   3.748  0.3123 -0.3113  0.0165
    6CHTO  H187 2233   5.816   4.058   3.850 -0.1255 -2.0292 -0.0750
    6CHTO  C107 2234   5.871   4.175   3.673  0.5122  0.5284  0.5199
    6CHTO   O70 2235   5.848   4.157   3.531 -0.4820 -0.2199  0.6391
    6CHTO  H170 2236   5.760   4.184   3.516 -0.5652  0.2482  1.8793
    6CHTO   O57 2237   5.678   3.722   3.620 -0.1093  0.2470 -0.2069
    6CHTO   C85 2238   5.778   3.659   3.538  0.3705 -0.3443 -0.2470
    6CHTO  H157 2239   5.708   3.594   3.480 -0.0642  0.0756 -0.2010
    6CHTO   C83 2240   5.869   3.570   3.623  1.1800  0.5806 -0.0446
    6CHTO  H155 2241   5.809   3.502   3.683  0.7701  1.4796  0.5802
    6CHTO   O56 2242   5.940   3.641   3.722  0.4443 -0.4695  0.5749
    6CHTO  H135 2243   6.006   3.692   3.679  0.3734 -1.3370 -0.5583
    6CHTO   C81 2244   5.964   3.491   3.529 -0.5034  0.0327  0.3836
    6CHTO  H153 2245   5.902   3.442   3.453  0.1595 -0.6257  0.2615
    6CHTO   N14 2246   6.035   3.379   3.599 -0.1516 -0.0251 -0.3056
    6CHTO  H141 2247   6.029   3.379   3.706  0.1148  1.2925 -0.2796
    6CHTO  H142 2248   5.991   3.289   3.563  0.3229 -0.8151  1.0441
    6CHTO   C79 2249   6.061   3.591   3.454  0.5241  0.3484  0.1213
    6CHTO  H151 2250   6.118   3.536   3.380 -1.0384 -1.0435 -0.0884
    6CHTO   O52 2251   5.981   3.691   3.383  0.1456  0.2799 -0.7072
    6CHTO   C86 2252   5.867   3.754   3.443  0.0875 -0.0457 -1.0300
    6CHTO  H158 2253   5.913   3.833   3.506  1.6381 -0.8496 -1.1261
    6CHTO   C90 2254   5.778   3.824   3.345 -0.4557  0.5878 -0.2459
    6CHTO   O60 2255   5.834   3.940   3.277 -0.1993  0.0131  0.0704
    6CHTO  H138 2256   5.863   3.918   3.191  1.9183 -0.0977  0.7817
    6CHTO   O50 2257   6.149   3.659   3.543  0.1042  0.3438  0.2085
    6CHTO   C73 2258   6.289   3.678   3.542 -0.0468 -0.1930 -0.3641
    6CHTO  H145 2259   6.334   3.595   3.484  0.8577 -0.6697  1.0018
    6CHTO   C74 2260   6.355   3.678   3.682  0.2618  0.3760  0.5815
    6CHTO  H146 2261   6.314   3.588   3.729 -0.1973 -0.3022 -1.0757
    6CHTO   O54 2262   6.499   3.658   3.664  0.3121 -0.2559 -0.5762
    6CHTO  H133 2263   6.534   3.737   3.626 -0.4703 -0.2270 -1.2528
    6CHTO   C75 2264   6.315   3.804   3.759 -0.3247  0.2959  0.5628
    6CHTO  H147 2265   6.207   3.800   3.781 -0.3000  1.3146  0.9007
    6CHTO   N13 2266   6.371   3.808   3.898  0.2461  0.1527  0.2671
    6CHTO  H139 2267   6.415   3.711   3.916 -0.4248 -0.3112 -0.5118
    6CHTO  H140 2268   6.451   3.878   3.915 -0.5390  1.6328 -1.9504
    6CHTO   C76 2269   6.341   3.944   3.682 -0.0976  0.4651 -0.2668
    6CHTO  H148 2270   6.449   3.952   3.668 -0.2104 -2.3824 -3.5280
    6CHTO   O49 2271   6.285   3.930   3.544  0.9423  0.4149 -0.6702
    6CHTO   C77 2272   6.319   3.814   3.470  0.6840  0.2478  0.3159
    6CHTO  H149 2273   6.426   3.814   3.451  0.7943 -0.1476  0.9365
    6CHTO   C88 2274   6.262   3.837   3.330  0.1018 -0.4720 -0.0269
    6CHTO   O58 2275   6.306   3.730   3.237 -0.3986 -0.3896 -0.0637
    6CHTO  H136 2276   6.398   3.724   3.219 -0.4491 -0.5595 -0.2615
    6CHTO   O51 2277   6.267   4.072   3.730 -0.5788  0.4540  0.0255
    6CHTO   C78 2278   6.343   4.211   3.722 -0.4790 -0.5544  0.2377
    6CHTO  H150 2279   6.432   4.192   3.659 -1.3316 -1.6377 -0.6555
    6CHTO   C80 2280   6.391   4.255   3.863  0.9508 -0.2052 -0.2530
    6CHTO  H152 2281   6.303   4.242   3.930  0.0766  3.3137 -0.6118
    6CHTO   O55 2282   6.503   4.174   3.894  0.5013 -0.2115 -0.3001
    6CHTO  H134 2283   6.512   4.159   3.986  1.4230 -2.0634 -0.6733
    6CHTO   C84 2284   6.433   4.402   3.870  0.1369  0.2721 -0.0100
    6CHTO  H156 2285   6.526   4.404   3.814  1.1676  2.6647  1.7354
    6CHTO   N15 2286   6.447   4.468   4.005  0.2118 -0.1807  0.0214
    6CHTO  H143 2287   6.551   4.491   4.012  0.1539  1.5921 -3.5516
    6CHTO  H144 2288   6.419   4.397   4.080  0.6867 -2.5033 -1.9758
    6CHTO   C87 2289   6.343   4.497   3.782  0.1872  0.0795 -0.4357
    6CHTO  H159 2290   6.241   4.508   3.817 -0.3475 -1.1721 -1.5747
    6CHTO   O53 2291   6.334   4.433   3.640 -0.2598 -0.3802  0.4264
    6CHTO   C82 2292   6.249   4.319   3.650 -0.3331  0.0311  0.1799
    6CHTO  H154 2293   6.158   4.343   3.706 -0.2135 -0.8654  0.7737
    6CHTO   C89 2294   6.202   4.276   3.506 -0.5299 -0.4554 -0.5719
    6CHTO   O59 2295   6.133   4.373   3.431  0.1145  0.1796 -0.0572
    6CHTO  H137 2296   6.046   4.345   3.411 -0.0800  1.4587 -1.1157
    6CHTO   O45 2297   6.411   4.656   3.762  0.0500  0.0886  0.0213
    6CHTO   C67 2298   6.544   4.664   3.704 -0.3992 -0.3414  0.1018
    6CHTO  H124 2299   6.606   4.583   3.743  0.2699  0.6606  1.1450
    6CHTO   C65 2300   6.548   4.662   3.548  0.1780 -0.4908  0.0387
    6CHTO  H122 2301   6.448   4.675   3.507  0.9713 -0.3582 -1.9157
    6CHTO   O44 2302   6.607   4.537   3.500 -0.2803  0.6974 -0.3801
    6CHTO  H102 2303   6.590   4.468   3.561  0.9552  0.5639 -0.1889
    6CHTO   C63 2304   6.625   4.786   3.485  0.0009 -0.4183  0.8578
    6CHTO  H120 2305   6.563   4.875   3.498 -0.7858 -1.2869  3.2907
    6CHTO   N11 2306   6.648   4.798   3.338 -0.0488 -0.6547  0.3349
    6CHTO  H108 2307   6.570   4.843   3.280  0.2120 -0.5887  0.0336
    6CHTO  H109 2308   6.691   4.708   3.299  0.7461 -0.3001  0.3855
    6CHTO   C61 2309   6.756   4.830   3.557 -0.0843  0.2615 -0.4215
    6CHTO  H118 2310   6.783   4.934   3.534  2.9547 -0.5166 -0.5532
    6CHTO   O40 2311   6.742   4.823   3.697 -0.6122 -0.1358 -0.1471
    6CHTO   C68 2312   6.616   4.797   3.759 -0.3711  0.6789 -0.3980
    6CHTO  H125 2313   6.547   4.882   3.740  1.4822  2.1526 -0.7026
    6CHTO   C72 2314   6.632   4.786   3.914  0.1139 -0.8247 -0.2970
    6CHTO   O48 2315   6.503   4.783   3.971 -0.2221  0.0993 -0.2879
    6CHTO  H105 2316   6.507   4.837   4.048 -0.2336  2.0326 -1.6295
    6CHTO   O38 2317   6.874   4.748   3.533  0.4629 -0.2014  0.0050
    6CHTO   C55 2318   7.000   4.809   3.571 -0.2992  0.1535  0.1303
    6CHTO  H112 2319   6.989   4.879   3.655 -2.0251  1.0503 -0.8186
    6CHTO   C56 2320   7.073   4.876   3.438  0.5639 -0.2146  0.2797
    6CHTO  H113 2321   7.077   4.798   3.361  0.7239 -0.9826  1.0624
    6CHTO   O42 2322   6.986   4.976   3.384  0.4080 -0.2684 -0.5168
    6CHTO  H100 2323   7.018   5.007   3.302 -1.0570  1.7435 -0.3733
    6CHTO   C57 2324   7.208   4.937   3.483  0.0171 -0.9332 -0.3884
    6CHTO  H114 2325   7.182   5.023   3.546  1.8077 -2.3245  2.3281
    6CHTO   N10 2326   7.298   4.980   3.375 -0.0242 -0.2552 -0.9227
    6CHTO  H106 2327   7.250   4.998   3.280 -0.1721 -0.0195 -0.8034
    6CHTO  H107 2328   7.352   5.069   3.405  0.9437 -1.3179  0.5428
    6CHTO   C58 2329   7.288   4.842   3.575 -0.1769  0.0786 -0.1542
    6CHTO  H115 2330   7.336   4.764   3.512 -0.2343 -0.7668  0.8160
    6CHTO   O37 2331   7.209   4.787   3.680 -0.3079  0.0257  0.0939
    6CHTO   C59 2332   7.099   4.710   3.633  0.2653 -0.2185 -0.5077
    6CHTO  H116 2333   7.142   4.644   3.557 -0.9016 -0.0769 -1.3147
    6CHTO   C70 2334   7.043   4.641   3.756  0.1191  0.5435  0.7613
    6CHTO   O46 2335   6.957   4.532   3.727 -0.0403  0.0844  0.0806
    6CHTO  H103 2336   6.929   4.500   3.810  0.1417 -0.3605 -0.0310
    6CHTO   O39 2337   7.391   4.920   3.653  0.6401 -0.2564 -0.6438
    6CHTO   C60 2338   7.520   4.852   3.656  0.2847  0.0614 -0.4791
    6CHTO  H117 2339   7.512   4.745   3.637 -1.3593  0.2910 -1.1881
    6CHTO   C62 2340   7.613   4.902   3.539  0.1360  0.0135 -0.0617
    6CHTO  H119 2341   7.560   4.875   3.445 -1.4366  0.1092  0.7763
    6CHTO   O43 2342   7.614   5.047   3.546  0.3915  0.0572 -0.1688
    6CHTO  H101 2343   7.680   5.074   3.607  0.0334 -0.1444  0.3139
    6CHTO   C66 2344   7.762   4.842   3.543 -0.1471 -0.2700 -0.6627
    6CHTO  H123 2345   7.756   4.734   3.536  2.9152 -0.4291 -1.2504
    6CHTO   N12 2346   7.839   4.900   3.428 -0.2279 -0.0610  0.3595
    6CHTO  H110 2347   7.896   4.986   3.460 -0.1599 -0.7428  2.1116
    6CHTO  H111 2348   7.891   4.835   3.359  2.6589 -0.6305  2.9822
    6CHTO   C69 2349   7.835   4.873   3.678 -0.3713  0.7716  0.4228
    6CHTO  H126 2350   7.841   4.982   3.698  2.5655  0.4808  1.2963
    6CHTO   O41 2351   7.750   4.811   3.791 -0.1510  0.2286 -0.0134
    6CHTO   C64 2352   7.589   4.873   3.792 -0.0400 -0.1838  0.0494
    6CHTO  H121 2353   7.609   4.980   3.814  0.3552 -0.3500  0.5043
    6CHTO   C71 2354   7.508   4.806   3.908 -0.1509 -0.3291 -0.0558
    6CHTO   O47 2355   7.529   4.666   3.921 -0.9075 -0.0603  0.4033
    6CHTO  H104 2356   7.510   4.623   3.841 -1.5863  0.9059  0.0329
    6CHTO   O34 2357   7.989   4.817   3.679 -0.1009 -0.1129  0.7310
    6CHTO   C49 2358   8.105   4.888   3.629 -0.1679  0.8918  0.8103
    6CHTO   H91 2359   8.122   4.858   3.525 -0.4686  0.8726  0.7686
    6CHTO   C47 2360   8.235   4.839   3.702 -0.3032  0.3376  0.4672
    6CHTO   H89 2361   8.316   4.882   3.639 -1.2711  1.6887  0.1187
    6CHTO   O33 2362   8.252   4.698   3.704 -0.3760  0.4772  0.8819
    6CHTO   H70 2363   8.337   4.673   3.736  0.6184  0.7463 -1.4860
    6CHTO   C45 2364   8.232   4.902   3.850  0.1658 -0.1392 -0.4906
    6CHTO   H87 2365   8.141   4.864   3.897 -0.1137  1.2206  0.1134
    6CHTO    N8 2366   8.346   4.857   3.938 -0.1043 -0.1770  0.5276
    6CHTO   H75 2367   8.348   4.898   4.038 -0.8804  1.2377 -0.0288
    6CHTO   H76 2368   8.440   4.887   3.895 -0.1677  1.4839  1.5163
    6CHTO   C43 2369   8.225   5.069   3.854  0.3620 -0.9512  0.0183
    6CHTO   H85 2370   8.208   5.101   3.957 -2.4400  4.1358 -1.8333
    6CHTO   O29 2371   8.117   5.110   3.768 -0.2956  0.9134 -0.0368
    6CHTO   C50 2372   8.098   5.042   3.642 -0.4435  0.6929 -0.4266
    6CHTO   H92 2373   7.995   5.062   3.607 -0.3535  0.7643 -0.6469
    6CHTO   C54 2374   8.192   5.118   3.546  0.2338  0.7562 -0.1842
    6CHTO   O36 2375   8.179   5.084   3.407  0.1859 -0.0748 -0.1524
    6CHTO   H72 2376   8.103   5.118   3.364  2.0188 -0.4649 -3.8818
    6CHTO   O27 2377   8.350   5.137   3.827  0.2761 -0.2338  0.8755
    6CHTO   C37 2378   8.412   5.258   3.861  0.1261  0.7389 -0.0007
    6CHTO   H79 2379   8.491   5.278   3.788  1.5839 -1.7458  0.8284
    6CHTO   C38 2380   8.312   5.376   3.853  0.1641 -0.4538 -0.2453
    6CHTO   H80 2381   8.222   5.346   3.908  1.5385 -1.3524  1.5967
    6CHTO   O31 2382   8.281   5.404   3.719  0.0924  0.4232  0.4170
    6CHTO   H68 2383   8.362   5.434   3.682 -1.0331  0.5356 -2.0184
    6CHTO   C39 2384   8.360   5.508   3.932 -0.2351 -0.3503 -0.1210
    6CHTO   H81 2385   8.441   5.547   3.870 -0.1671 -1.0205 -0.4600
    6CHTO    N7 2386   8.253   5.615   3.937  0.6486  0.0058  0.0045
    6CHTO   H73 2387   8.220   5.630   4.039  0.0692 -0.0267 -0.1760
    6CHTO   H74 2388   8.278   5.704   3.882  1.6156  0.7161  1.5578
    6CHTO   C40 2389   8.420   5.469   4.073 -0.3104  0.6233 -0.0293
    6CHTO   H82 2390   8.342   5.429   4.138 -0.8512  1.2963 -0.2594
    6CHTO   O26 2391   8.520   5.373   4.048  0.2075 -0.3499 -0.1567
    6CHTO   C41 2392   8.477   5.244   4.002 -0.2224 -0.1014  0.2951
    6CHTO   H83 2393   8.418   5.196   4.081  0.2729 -0.1531  0.6431
    6CHTO   C52 2394   8.603   5.152   3.989  0.3085  0.2523 -0.1856
    6CHTO   O35 2395   8.668   5.140   4.115 -0.0572 -0.3348  0.0396
    6CHTO   H71 2396   8.698   5.222   4.149  1.0443  0.4356 -2.6821
    6CHTO   O28 2397   8.487   5.575   4.140 -0.2463 -0.1246 -0.0377
    6CHTO   C42 2398   8.490   5.587   4.285 -0.4051 -0.8763  0.1288
    6CHTO   H84 2399   8.570   5.656   4.309 -1.3595 -0.0802  1.0773
    6CHTO   C44 2400   8.518   5.463   4.372  0.0851  0.4718 -0.0080
    6CHTO   H86 2401   8.443   5.388   4.347 -0.3008  1.3463 -1.5217
    6CHTO   O32 2402   8.646   5.407   4.338  0.1440  0.6440 -0.0903
    6CHTO   H69 2403   8.650   5.319   4.369  1.8635  0.6560 -0.1982
    6CHTO   C48 2404   8.508   5.493   4.526  0.2319 -0.7430 -0.7021
    6CHTO   H90 2405   8.591   5.562   4.541 -2.1141  1.7699  1.2168
    6CHTO    N9 2406   8.527   5.370   4.619 -0.2783  0.2437 -0.1887
    6CHTO   H77 2407   8.588   5.398   4.704  0.4815  1.1999 -1.0283
    6CHTO   H78 2408   8.441   5.310   4.643  0.1729  0.4465  2.0132
    6CHTO   C51 2409   8.380   5.577   4.568 -0.1053 -0.4948 -0.0385
    6CHTO   H93 2410   8.296   5.509   4.571 -1.3351  0.8825 -1.9540
    6CHTO   O30 2411   8.357   5.688   4.477 -0.4199 -0.1913  0.1898
    6CHTO   C46 2412   8.358   5.662   4.328 -0.3096  0.0599 -0.1628
    6CHTO   H88 2413   8.270   5.606   4.298 -1.7815  1.1783  1.9314
    6CHTO   C53 2414   8.363   5.805   4.269  0.7339  0.4594  0.3392
    6CHTO   O72 2415   8.231   5.860   4.274 -0.4074  0.2000 -0.1374
    6CHTO  H199 2416   8.179   5.820   4.207  1.1105 -2.1107 -0.0011
    6CHTO   O22 2417   8.404   5.634   4.699  0.6583 -0.0503 -0.6717
    6CHTO   C31 2418   8.294   5.700   4.775 -0.2501 -0.5882 -0.4577
    6CHTO   H59 2419   8.335   5.715   4.877  0.0509 -1.5586 -0.4324
    6CHTO   C29 2420   8.254   5.837   4.721 -0.0249 -0.2631 -0.8085
    6CHTO   H57 2421   8.218   5.822   4.618 -1.7439  0.3750 -0.3209
    6CHTO   O21 2422   8.371   5.921   4.728  0.1145  0.3775 -0.0617
    6CHTO   H37 2423   8.424   5.903   4.653  2.3575  0.4118  1.4484
    6CHTO   C27 2424   8.133   5.900   4.804  0.4222  0.5402 -0.2264
    6CHTO   H55 2425   8.174   5.915   4.905  0.4097  0.7818 -0.2562
    6CHTO    N5 2426   8.094   6.032   4.748 -0.0421  0.1212 -0.5732
    6CHTO   H43 2427   8.049   6.080   4.834  1.6425  0.1200  0.3445
    6CHTO   H44 2428   8.181   6.091   4.720 -0.8096  1.5763  0.0373
    6CHTO   C25 2429   8.014   5.798   4.819  0.3986  0.2413  0.2666
    6CHTO   H53 2430   7.947   5.788   4.732  1.5733  1.1636 -0.7721
    6CHTO   O17 2431   8.064   5.667   4.860  0.8027 -0.1464  0.1045
    6CHTO   C32 2432   8.168   5.603   4.783  0.3011 -0.4159  0.5171
    6CHTO   H60 2433   8.134   5.583   4.681 -0.3677 -1.9465  1.0324
    6CHTO   C36 2434   8.207   5.473   4.853 -0.2348  0.2192  0.0833
    6CHTO   O25 2435   8.112   5.368   4.866 -0.2009 -0.0851 -0.0697
    6CHTO   H40 2436   8.046   5.392   4.928 -1.3384  1.0158 -1.6744
    6CHTO   O15 2437   7.939   5.849   4.951  0.1570  0.1474 -0.5279
    6CHTO   C19 2438   7.813   5.932   4.974  0.0217 -0.4180 -0.4063
    6CHTO   H47 2439   7.774   5.897   5.071  0.5049  1.8665  0.6467
    6CHTO   C20 2440   7.834   6.085   4.985 -0.1449 -0.1892  0.3262
    6CHTO   H48 2441   7.878   6.129   4.894  0.6089  2.1017  1.7526
    6CHTO   O19 2442   7.925   6.099   5.090  0.2425  0.4017  0.2962
    6CHTO   H35 2443   7.880   6.135   5.164  1.5670  1.2696  0.6895
    6CHTO   C21 2444   7.705   6.175   4.982 -0.6774  0.0756  0.1954
    6CHTO   H49 2445   7.662   6.163   5.081 -1.1155 -0.9721 -0.1206
    6CHTO    N4 2446   7.748   6.322   4.982  0.3984  0.1116  0.5917
    6CHTO   H41 2447   7.781   6.365   4.889  0.0863  1.6073  1.1476
    6CHTO   H42 2448   7.657   6.377   5.004  0.0368 -1.2589  2.6539
    6CHTO   C22 2449   7.603   6.127   4.875 -0.8667  0.0983 -0.4039
    6CHTO   H50 2450   7.640   6.154   4.776 -1.6114 -1.5915 -1.1650
    6CHTO   O14 2451   7.583   5.985   4.881  0.0392  0.1963 -0.2441
    6CHTO   C23 2452   7.701   5.905   4.869  0.4250  0.6521 -0.0762
    6CHTO   H51 2453   7.736   5.924   4.767  0.1252  1.4499 -0.0339
    6CHTO   C34 2454   7.656   5.761   4.888 -0.2450 -0.6120  0.2003
    6CHTO   O23 2455   7.586   5.739   5.012  0.6362  0.0751 -0.4264
    6CHTO   H38 2456   7.517   5.802   5.026  0.0899 -0.5472 -0.2971
    6CHTO   O16 2457   7.473   6.177   4.899 -0.0448 -0.5135 -0.4316
    6CHTO   C24 2458   7.367   6.182   4.767 -0.0482  0.5350 -0.1698
    6CHTO   H52 2459   7.401   6.114   4.689  3.2011 -0.7334  2.2242
    6CHTO   C26 2460   7.373   6.323   4.717  0.5054 -0.1275  0.2201
    6CHTO   H54 2461   7.365   6.395   4.802  2.1775 -1.3942  1.4914
    6CHTO   O20 2462   7.504   6.341   4.651 -0.3482 -0.6473 -0.0959
    6CHTO   H36 2463   7.508   6.288   4.574 -1.1400 -1.5881  0.5051
    6CHTO   C30 2464   7.262   6.354   4.610  0.2555 -0.0810 -0.6305
    6CHTO   H58 2465   7.274   6.296   4.518 -0.7027  0.1337 -0.8881
    6CHTO    N6 2466   7.257   6.499   4.567 -0.6914  0.6587 -0.3526
    6CHTO   H45 2467   7.176   6.523   4.500 -2.3140  0.0073  1.3277
    6CHTO   H46 2468   7.250   6.559   4.656 -1.8041  0.9640 -0.6473
    6CHTO   C33 2469   7.122   6.302   4.660  0.0075  0.1590  0.5184
    6CHTO   H61 2470   7.095   6.365   4.746  0.0680  0.4630  0.3174
    6CHTO   O18 2471   7.130   6.166   4.702 -0.9703 -0.6912  0.8889
    6CHTO   C28 2472   7.223   6.139   4.807  0.0125  0.2709  0.2265
    6CHTO   H56 2473   7.190   6.202   4.890 -1.2722  0.1955 -0.2199
    6CHTO   C35 2474   7.213   5.994   4.863  0.0048  0.0740 -0.3241
    6CHTO   O24 2475   7.297   5.978   4.972 -0.8417  0.0663  0.3500
    6CHTO   H39 2476   7.289   5.888   4.998  1.1289 -0.3366 -0.3503
    6CHTO    O9 2477   7.013   6.310   4.558  0.6199 -0.1680  0.7750
    6CHTO   C13 2478   6.876   6.358   4.625 -0.1849 -0.7597  0.4463
    6CHTO   H26 2479   6.893   6.458   4.669 -0.9021  0.1148 -1.2164
    6CHTO   C11 2480   6.817   6.253   4.731 -0.1433  0.2785  0.6210
    6CHTO   H24 2481   6.883   6.256   4.819 -0.1934 -1.3865  0.7314
    6CHTO    O8 2482   6.826   6.122   4.674 -0.3560  0.0742  0.1056
    6CHTO    H3 2483   6.899   6.073   4.705 -1.4887 -0.8918  1.3195
    6CHTO    C9 2484   6.677   6.294   4.775 -0.1747  0.5257 -0.7759
    6CHTO   H22 2485   6.691   6.393   4.819 -0.5705  0.0584  0.4323
    6CHTO    N2 2486   6.627   6.218   4.891 -0.4363 -0.1725 -0.5302
    6CHTO   H10 2487   6.525   6.248   4.909 -0.1924  0.3118  0.0768
    6CHTO   H11 2488   6.632   6.112   4.872 -3.2723 -0.4521  0.1156
    6CHTO    C7 2489   6.577   6.308   4.657 -0.5136 -0.1579 -0.3728
    6CHTO   H20 2490   6.481   6.340   4.701  0.1641  1.4483 -0.0062
    6CHTO    O4 2491   6.629   6.396   4.558 -0.4176  0.0635 -0.6071
    6CHTO   C14 2492   6.761   6.385   4.504  0.3392 -0.6544  0.1338
    6CHTO   H27 2493   6.787   6.482   4.456 -2.2275  0.5809  1.1059
    6CHTO   C18 2494   6.760   6.279   4.387  0.0019 -0.7917 -0.0547
    6CHTO   O13 2495   6.687   6.337   4.275 -0.6517  0.2824  0.2113
    6CHTO    H7 2496   6.595   6.329   4.290 -0.5269 -2.0022  0.0436
    6CHTO    O2 2497   6.537   6.142   4.583  0.0123 -0.3446  0.3420
    6CHTO    C1 2498   6.402   6.127   4.536  0.0027  0.5354 -0.1280
    6CHTO   H14 2499   6.395   6.042   4.465 -1.2021  1.4247 -1.0957
    6CHTO    C2 2500   6.342   6.256   4.461  0.0030  0.1544  0.4414
    6CHTO   H15 2501   6.360   6.344   4.524 -1.7408  0.3203  0.7322
    6CHTO    O6 2502   6.409   6.283   4.330 -0.2577  0.5262  0.0504
    6CHTO    H1 2503   6.503   6.282   4.332 -0.2909 -0.5201  2.6103
    6CHTO    C3 2504   6.184   6.241   4.450  0.3933  0.3486 -0.8323
    6CHTO   H16 2505   6.167   6.178   4.362  1.5928 -0.1180 -0.7276
    6CHTO    N1 2506   6.115   6.372   4.426 -0.3983  0.4831 -0.3711
    6CHTO    H8 2507   6.010   6.353   4.405 -0.8819  3.4184 -0.8334
    6CHTO    H9 2508   6.163   6.420   4.342 -0.4896 -1.0538 -1.3234
    6CHTO    C4 2509   6.122   6.169   4.573  0.7463 -0.2098 -0.4141
    6CHTO   H17 2510   6.125   6.239   4.657  0.0220 -1.0128  0.2882
    6CHTO    O1 2511   6.195   6.059   4.616  0.2614 -0.3296 -0.0753
    6CHTO    C5 2512   6.327   6.081   4.657  0.0725 -0.3169 -0.6817
    6CHTO   H18 2513   6.336   6.158   4.734 -0.1631  0.3345 -1.2986
    6CHTO   C16 2514   6.380   5.943   4.714  0.3751 -0.1812  0.6131
    6CHTO   O11 2515   6.508   5.930   4.775  0.1537  0.2764  0.3325
    6CHTO    H5 2516   6.551   5.856   4.738 -0.9671  0.3818 -1.2412
    6CHTO    O3 2517   5.992   6.121   4.539 -0.3182  0.2942  0.2726
    6CHTO    C6 2518   5.894   6.123   4.653  0.0283 -0.8180  0.1166
    6CHTO   H19 2519   5.937   6.155   4.748 -0.9409 -0.7424  0.5294
    6CHTO    C8 2520   5.774   6.223   4.622  0.2346 -0.0883 -0.5423
    6CHTO   H21 2521   5.712   6.180   4.543 -2.6575  0.5598  1.2542
    6CHTO    O7 2522   5.829   6.347   4.583  0.3706 -0.4155 -0.4602
    6CHTO    H2 2523   5.772   6.390   4.523  1.2163  1.3840 -0.0286
    6CHTO   C12 2524   5.682   6.228   4.750 -0.6539 -0.0980  0.1627
    6CHTO   H25 2525   5.744   6.265   4.834 -0.0939 -1.3375  0.3085
    6CHTO    N3 2526   5.568   6.318   4.730 -0.0453 -0.0472  0.5155
    6CHTO   H12 2527   5.493   6.304   4.806 -0.0861  1.4092  0.7450
    6CHTO   H13 2528   5.602   6.420   4.728  0.4921 -0.2194  0.8675
    6CHTO   C15 2529   5.637   6.084   4.788 -0.5648 -0.6245  0.1502
    6CHTO   H28 2530   5.567   6.045   4.714 -0.7951 -1.2753  0.6978
    6CHTO   O10 2531   5.572   6.082   4.935 -0.0929  0.8452  0.0470
    6CHTO    H4 2532   5.635   6.100   5.003  0.8143  0.0340 -0.5597
    6CHTO    O5 2533   5.743   5.989   4.792 -0.5647  0.8116 -0.2662
    6CHTO   C10 2534   5.827   5.985   4.676 -0.2178 -0.3612 -0.4125
    6CHTO   H23 2535   5.767   5.959   4.589  0.4515 -0.2452 -0.9130
    6CHTO   C17 2536   5.932   5.878   4.700 -0.6489 -0.5678  0.4096
    6CHTO   O12 2537   6.007   5.915   4.816 -0.1973 -0.1699  0.3429
    6CHTO    H6 2538   6.096   5.944   4.803 -0.9711  1.7984 -0.8154
    7CHTO  H203 2539   5.094   2.209   2.419 -0.4298 -1.6230 -0.6879
    7CHTO   O82 2540   5.110   2.219   2.327 -0.4879  0.2368 -0.5054
    7CHTO  C123 2541   5.217   2.315   2.307  0.1511  0.3266  0.2051
    7CHTO  H227 2542   5.187   2.413   2.347 -1.5537 -0.1288  0.1223
    7CHTO   O77 2543   5.328   2.261   2.388  0.1234  0.2197 -1.0069
    7CHTO  C118 2544   5.447   2.342   2.381 -0.1795 -0.2920 -0.0658
    7CHTO  H222 2545   5.412   2.446   2.391  2.0553  0.3903  0.9920
    7CHTO  C125 2546   5.544   2.320   2.500  0.5182 -0.0818  0.7566
    7CHTO   O84 2547   5.616   2.198   2.504  1.0231  0.0578 -0.0156
    7CHTO  H205 2548   5.597   2.136   2.436 -0.8358 -0.0342  0.5555
    7CHTO  C114 2549   5.516   2.323   2.243 -0.0977  0.2882 -0.2021
    7CHTO  H218 2550   5.527   2.217   2.222  3.1010  0.3127  0.9579
    7CHTO  C116 2551   5.415   2.375   2.136  0.0272  0.5083  0.1307
    7CHTO  H220 2552   5.430   2.484   2.144  0.2633  0.4855 -0.0013
    7CHTO   O79 2553   5.460   2.326   2.008  0.3643  0.4791  0.1699
    7CHTO  H201 2554   5.499   2.241   2.018  0.4447  0.5192  0.2014
    7CHTO  C120 2555   5.266   2.332   2.155  0.3478  0.0107  0.2277
    7CHTO  H224 2556   5.252   2.231   2.110  0.3053 -0.2645  0.8558
    7CHTO   N21 2557   5.177   2.414   2.078 -0.4626  0.1313 -0.1715
    7CHTO  H211 2558   5.098   2.353   2.037 -0.3911  0.7128 -1.1986
    7CHTO  H212 2559   5.143   2.503   2.130 -0.0817 -0.8089  1.7342
    7CHTO   O75 2560   5.646   2.382   2.250 -0.1782 -0.2686 -0.3186
    7CHTO  C112 2561   5.775   2.310   2.205 -0.1369 -0.5938  0.9167
    7CHTO  H216 2562   5.751   2.254   2.113  1.1501  0.5578 -0.1310
    7CHTO   O73 2563   5.814   2.224   2.313 -0.1912  0.0584 -0.5178
    7CHTO  C113 2564   5.931   2.148   2.285 -0.5716  0.1230  0.0378
    7CHTO  H217 2565   5.908   2.084   2.197  0.2593  1.4290 -1.1442
    7CHTO  C124 2566   5.950   2.056   2.397  0.1601  0.1973  0.2512
    7CHTO   O83 2567   5.973   2.115   2.526 -0.1713  0.0583 -0.3209
    7CHTO  H204 2568   6.023   2.056   2.579 -0.6321 -1.6285 -1.7187
    7CHTO  C109 2569   6.052   2.234   2.258 -0.0447 -0.6040  0.4716
    7CHTO  H213 2570   6.061   2.304   2.342 -1.2678  1.7397 -1.2607
    7CHTO  C110 2571   6.017   2.317   2.133 -0.2303 -1.3596  0.6134
    7CHTO  H214 2572   5.990   2.249   2.052  1.0795  0.3929 -1.3498
    7CHTO   O78 2573   6.126   2.405   2.095 -0.1252 -0.3638  0.2626
    7CHTO  H200 2574   6.202   2.369   2.052  0.7854  0.2840  1.3167
    7CHTO  C111 2575   5.889   2.406   2.164 -0.2772  0.1418 -0.2387
    7CHTO  H215 2576   5.913   2.479   2.243 -0.6292  0.4524 -0.4178
    7CHTO   N19 2577   5.842   2.488   2.047 -0.1336 -0.3200  0.4111
    7CHTO  H207 2578   5.747   2.462   2.002 -0.8297  0.4909  1.4110
    7CHTO  H208 2579   5.848   2.592   2.075  1.4292 -0.5099  0.8617
    7CHTO   O74 2580   6.165   2.147   2.244 -0.5177 -0.2989  0.0476
    7CHTO  C115 2581   6.302   2.204   2.285  0.0150 -0.6014  0.2633
    7CHTO  H219 2582   6.317   2.303   2.243  2.5655 -0.4968  1.3337
    7CHTO   O76 2583   6.318   2.230   2.451  0.2896  0.3273 -0.5756
    7CHTO  C122 2584   6.320   2.111   2.528 -0.4665 -0.1905 -0.7172
    7CHTO  H226 2585   6.227   2.059   2.506 -0.4745 -0.4892  0.0104
    7CHTO  C126 2586   6.313   2.138   2.682 -0.0587  0.3199 -0.0010
    7CHTO   O85 2587   6.212   2.060   2.749  0.4698  0.1752  0.3395
    7CHTO  H206 2588   6.173   2.001   2.688  1.3435 -0.9186  0.8242
    7CHTO  C121 2589   6.458   2.035   2.481  0.0965 -0.7284 -0.6552
    7CHTO  H225 2590   6.540   2.110   2.483 -1.0275  0.5494 -1.2075
    7CHTO   O81 2591   6.494   1.936   2.582 -0.0051 -0.0529  0.4659
    7CHTO  H202 2592   6.509   1.985   2.661 -2.0295 -0.5134  1.1607
    7CHTO  C119 2593   6.443   1.988   2.334 -0.3118  0.7046 -0.3386
    7CHTO  H223 2594   6.539   1.941   2.312 -0.4418 -0.3956  1.3353
    7CHTO  C117 2595   6.416   2.108   2.231 -0.1052  0.3967  0.0769
    7CHTO  H221 2596   6.375   2.081   2.134  2.4234 -0.5941 -0.7596
    7CHTO   N20 2597   6.540   2.178   2.184  0.0284  0.3345 -0.4709
    7CHTO  H209 2598   6.575   2.244   2.262  0.7220 -0.5130 -0.0527
    7CHTO  H210 2599   6.517   2.234   2.095  0.8884 -0.5887 -1.2942
    7CHTO   O80 2600   6.336   1.865   2.315 -0.7047  0.5472  0.2305
    7CHTO  C103 2601   6.329   1.795   2.171 -0.3556 -0.4224  0.0649
    7CHTO  H190 2602   6.281   1.859   2.097  1.5208  1.1985  0.2053
    7CHTO  C101 2603   6.474   1.745   2.120  0.1346  0.2179 -0.0860
    7CHTO  H188 2604   6.524   1.692   2.201 -0.3416  0.8241  0.6101
    7CHTO   O68 2605   6.572   1.869   2.072  0.1052 -0.7907 -0.3380
    7CHTO  H168 2606   6.649   1.839   2.026  0.1943 -1.6683  0.3474
    7CHTO   C99 2607   6.447   1.631   2.000 -0.1264  0.9357 -0.3511
    7CHTO  H186 2608   6.411   1.685   1.911 -1.6875  0.0867 -0.2433
    7CHTO   N17 2609   6.579   1.567   1.960  0.7494  0.0028 -0.2738
    7CHTO  H174 2610   6.582   1.468   2.002  0.7187  0.4158  0.7291
    7CHTO  H175 2611   6.655   1.623   2.012  2.4387 -0.5804 -2.0674
    7CHTO   C97 2612   6.334   1.534   2.038  0.6357  0.4021 -0.0797
    7CHTO  H184 2613   6.376   1.480   2.124  0.5732 -0.7534 -0.7749
    7CHTO   O64 2614   6.218   1.610   2.073 -0.3098 -0.0607 -0.4266
    7CHTO  C104 2615   6.236   1.676   2.200 -0.0300 -0.3207  0.9471
    7CHTO  H191 2616   6.277   1.607   2.274 -1.5497 -2.1267  0.1793
    7CHTO  C108 2617   6.102   1.723   2.257  0.0155  0.7827 -0.6340
    7CHTO   O71 2618   6.043   1.597   2.298  0.0599 -0.4521 -0.2303
    7CHTO  H171 2619   5.953   1.599   2.274 -0.2613 -0.8013  0.9394
    7CHTO   O62 2620   6.283   1.458   1.928 -0.7209  0.2629  0.1722
    7CHTO   C91 2621   6.283   1.315   1.932 -0.4095 -0.0260 -0.3155
    7CHTO  H178 2622   6.386   1.288   1.911 -0.6416  1.0292 -2.9385
    7CHTO   C92 2623   6.204   1.259   1.802  0.5220 -0.0504  0.1367
    7CHTO  H179 2624   6.245   1.312   1.714 -1.4616  2.1269  0.4563
    7CHTO   O66 2625   6.233   1.118   1.782 -0.9646 -0.5938  0.0239
    7CHTO  H166 2626   6.202   1.088   1.699 -0.9957 -0.9172  0.1521
    7CHTO   C93 2627   6.048   1.279   1.820  0.0650  0.7620 -0.7218
    7CHTO  H180 2628   5.994   1.208   1.755  1.8059  0.1804 -1.5680
    7CHTO   N16 2629   5.998   1.406   1.770 -0.3302 -0.5305 -0.7324
    7CHTO  H172 2630   6.009   1.405   1.663  1.4211  1.4755 -0.5998
    7CHTO  H173 2631   6.051   1.495   1.802  0.3758 -0.8113 -1.1212
    7CHTO   C94 2632   6.007   1.260   1.969 -0.4952  0.4751  0.1567
    7CHTO  H181 2633   5.994   1.356   2.020 -0.1480 -1.0022  3.0941
    7CHTO   O61 2634   6.107   1.182   2.038 -0.2841 -0.0761  1.2575
    7CHTO   C95 2635   6.227   1.252   2.058 -0.1473  0.5666 -0.3514
    7CHTO  H182 2636   6.215   1.327   2.136  0.3569  0.0910  0.1900
    7CHTO  C106 2637   6.326   1.148   2.121 -0.0879 -0.2920 -0.0324
    7CHTO   O69 2638   6.372   1.050   2.029  0.0731  0.4058  0.2687
    7CHTO  H169 2639   6.465   1.060   2.034  0.0468  0.5484  0.4568
    7CHTO   O63 2640   5.863   1.182   1.986 -0.3691  0.0205  0.5995
    7CHTO   C96 2641   5.776   1.245   2.097  0.3559 -0.2455  0.4982
    7CHTO  H183 2642   5.773   1.352   2.078 -0.7362  0.0040  1.9892
    7CHTO   C98 2643   5.829   1.229   2.244  0.6621 -0.4779  0.1449
    7CHTO  H185 2644   5.935   1.256   2.257 -0.0134  2.3409  0.0099
    7CHTO   O67 2645   5.757   1.329   2.322 -0.4938 -0.2801 -0.2654
    7CHTO  H167 2646   5.770   1.320   2.414 -0.1178 -0.9616 -0.3785
    7CHTO  C102 2647   5.802   1.082   2.308  0.9802  0.4904  0.3446
    7CHTO  H189 2648   5.802   1.096   2.417  2.4146 -0.0199  0.4172
    7CHTO   N18 2649   5.899   0.973   2.281  0.2138  0.0527  0.3435
    7CHTO  H176 2650   5.952   0.978   2.187  1.9108 -2.2072  1.1353
    7CHTO  H177 2651   5.864   0.872   2.292 -0.6984  0.7398  4.9310
    7CHTO  C105 2652   5.653   1.034   2.274  0.4394  0.0066  0.2917
    7CHTO  H192 2653   5.652   0.954   2.201 -0.7131 -0.1017  0.4129
    7CHTO   O65 2654   5.571   1.135   2.205  0.7436  0.5010 -0.0657
    7CHTO  C100 2655   5.626   1.187   2.088 -0.0912  0.9368  0.2879
    7CHTO  H187 2656   5.632   1.107   2.013 -0.5205  1.6252 -0.4853
    7CHTO  C107 2657   5.533   1.295   2.024  0.0909  0.4167  0.3225
    7CHTO   O70 2658   5.493   1.400   2.115 -0.3005 -0.0721  0.0239
    7CHTO  H170 2659   5.569   1.454   2.126 -0.8059  0.6928 -0.2146
    7CHTO   O57 2660   5.583   0.979   2.410 -0.0658 -0.2496 -0.0069
    7CHTO   C85 2661   5.543   0.840   2.390  0.4277  0.0543 -0.2736
    7CHTO  H157 2662   5.587   0.807   2.293 -0.6696 -0.2672 -0.6624
    7CHTO   C83 2663   5.392   0.813   2.368  0.6032 -0.2402 -0.2269
    7CHTO  H155 2664   5.360   0.888   2.294  1.3129 -0.1817 -0.4797
    7CHTO   O56 2665   5.317   0.837   2.496  0.0637  0.0512 -0.1452
    7CHTO  H135 2666   5.277   0.756   2.524  0.5962 -0.9362 -2.1735
    7CHTO   C81 2667   5.375   0.672   2.315  0.5292 -0.3977  0.4383
    7CHTO  H153 2668   5.422   0.670   2.217 -0.0940 -0.1025  0.1324
    7CHTO   N14 2669   5.236   0.634   2.284  0.3149 -0.4892  0.3544
    7CHTO  H141 2670   5.166   0.679   2.352  1.7118  0.9173  0.9136
    7CHTO  H142 2671   5.216   0.661   2.183  1.3438 -0.5144  0.1378
    7CHTO   C79 2672   5.452   0.562   2.408  0.8198 -0.2010 -0.5606
    7CHTO  H151 2673   5.471   0.475   2.344  0.3158 -1.6404  1.1946
    7CHTO   O52 2674   5.582   0.607   2.454 -0.1202  0.3490  0.3098
    7CHTO   C86 2675   5.576   0.743   2.508 -0.2004 -0.4945 -0.0282
    7CHTO  H158 2676   5.505   0.745   2.593  0.8235  2.1827  0.8218
    7CHTO   C90 2677   5.714   0.782   2.572  0.6601  0.0685  0.4234
    7CHTO   O60 2678   5.719   0.740   2.717  0.1805 -0.0197 -0.0137
    7CHTO  H138 2679   5.637   0.756   2.760 -0.8033  0.1150 -1.8899
    7CHTO   O50 2680   5.366   0.519   2.520 -0.0135  0.0917  0.0144
    7CHTO   C73 2681   5.395   0.389   2.580  0.2345 -0.3134 -0.2559
    7CHTO  H145 2682   5.495   0.354   2.550  0.1818  0.5221 -1.4239
    7CHTO   C74 2683   5.292   0.286   2.521  0.3897  0.1874 -0.3012
    7CHTO  H146 2684   5.303   0.288   2.412  2.0990 -0.0770 -0.1374
    7CHTO   O54 2685   5.328   0.155   2.581  0.2036 -0.1280  1.0900
    7CHTO  H133 2686   5.274   0.090   2.539 -1.0437  0.5935  1.5518
    7CHTO   C75 2687   5.149   0.331   2.565 -0.1659  0.4281  0.3846
    7CHTO  H147 2688   5.121   0.425   2.514  0.0347  0.4770  0.3638
    7CHTO   N13 2689   5.046   0.232   2.521  0.8806  0.2173  0.7285
    7CHTO  H139 2690   5.086   0.132   2.529 -0.2461 -0.4602 -1.7265
    7CHTO  H140 2691   5.003   0.263   2.427 -1.0779  1.9134  2.1278
    7CHTO   C76 2692   5.149   0.349   2.730  0.4952 -0.3996 -0.4368
    7CHTO  H148 2693   5.163   0.251   2.774 -1.0306 -0.6418 -0.4421
    7CHTO   O49 2694   5.251   0.444   2.772 -0.1798 -0.0165  0.0450
    7CHTO   C77 2695   5.379   0.401   2.734 -0.4296 -0.0158  0.0608
    7CHTO  H149 2696   5.414   0.309   2.781  1.0826  0.3086 -0.3889
    7CHTO   C88 2697   5.472   0.511   2.784  0.0569  0.1807 -0.1875
    7CHTO   O58 2698   5.482   0.496   2.938  0.0534  0.0225 -0.3229
    7CHTO  H136 2699   5.534   0.421   2.962 -0.2545 -0.3260 -0.7502
    7CHTO   O51 2700   5.031   0.426   2.774  0.3927  0.0242  0.1403
    7CHTO   C78 2701   4.999   0.433   2.940  0.5926 -0.5392  0.0630
    7CHTO  H150 2702   5.092   0.413   2.997  0.0901 -0.2837  0.9854
    7CHTO   C80 2703   4.898   0.321   2.975  0.4514 -0.3702 -0.4907
    7CHTO  H152 2704   4.822   0.321   2.894  0.7938  0.5394 -0.8107
    7CHTO   O55 2705   4.971   0.193   2.979 -0.2220 -0.7181  0.0300
    7CHTO  H134 2706   4.902   0.130   2.976 -0.0297 -0.9790  0.8326
    7CHTO   C84 2707   4.829   0.344   3.118 -0.3526  0.5814 -0.4139
    7CHTO  H156 2708   4.896   0.310   3.197  0.0034  1.1465 -0.4755
    7CHTO   N15 2709   4.709   0.258   3.136  0.0142 -0.1481 -0.1205
    7CHTO  H143 2710   4.742   0.158   3.114  0.6443  0.5362 -2.4856
    7CHTO  H144 2711   4.680   0.264   3.239  0.4005  0.3981 -0.0437
    7CHTO   C87 2712   4.793   0.491   3.143  0.3470 -0.1801 -0.0229
    7CHTO  H159 2713   4.708   0.528   3.086 -0.4955  0.1337  1.4214
    7CHTO   O53 2714   4.923   0.578   3.114 -0.3429 -0.3860  0.4525
    7CHTO   C82 2715   4.952   0.574   2.971  0.1157 -0.1055 -0.2156
    7CHTO  H154 2716   4.867   0.603   2.910  0.4280  0.6545 -0.3009
    7CHTO   C89 2717   5.067   0.674   2.932 -0.3695  0.2044  0.2054
    7CHTO   O59 2718   5.022   0.799   2.988 -0.1483  0.2721  0.3718
    7CHTO  H137 2719   5.033   0.795   3.081  1.4900 -0.2308  0.1769
    7CHTO   O45 2720   4.745   0.509   3.316  0.0068  0.2145 -0.1650
    7CHTO   C67 2721   4.799   0.619   3.391 -0.4630 -0.2523 -0.5572
    7CHTO  H124 2722   4.889   0.659   3.344 -0.3621  0.8871  0.5792
    7CHTO   C65 2723   4.701   0.738   3.406 -1.1686 -0.6633  0.0281
    7CHTO  H122 2724   4.602   0.695   3.393 -0.4149 -2.4256  0.0330
    7CHTO   O44 2725   4.736   0.818   3.291  0.1015 -0.2479 -0.3661
    7CHTO  H102 2726   4.692   0.901   3.290  0.4674 -0.0454  0.1385
    7CHTO   C63 2727   4.707   0.813   3.542  0.1955  0.3108  0.2364
    7CHTO  H120 2728   4.659   0.745   3.611 -1.6368 -1.2380 -2.4536
    7CHTO   N11 2729   4.630   0.927   3.561 -0.2895  0.4229 -0.4717
    7CHTO  H108 2730   4.630   0.974   3.658 -0.3287 -0.6224  0.0453
    7CHTO  H109 2731   4.638   0.991   3.476 -1.4474  0.9469 -0.2004
    7CHTO   C61 2732   4.858   0.820   3.591 -0.1537 -0.3157  0.0824
    7CHTO  H118 2733   4.855   0.862   3.692 -0.3888  3.7952 -1.5118
    7CHTO   O40 2734   4.922   0.687   3.594  0.2384 -0.0300 -0.5692
    7CHTO   C68 2735   4.856   0.570   3.530  0.7727 -0.1573  1.0653
    7CHTO  H125 2736   4.787   0.533   3.609  0.2946 -0.6659  0.4090
    7CHTO   C72 2737   4.960   0.453   3.494 -0.1488 -0.4298 -0.3975
    7CHTO   O48 2738   5.047   0.412   3.600 -0.4733  0.0670 -0.1566
    7CHTO  H105 2739   5.130   0.384   3.566  0.2105  2.7837 -0.8258
    7CHTO   O38 2740   4.936   0.902   3.506 -0.2069 -0.2572 -0.6231
    7CHTO   C55 2741   5.070   0.937   3.547 -0.4660  0.4213 -0.1526
    7CHTO  H112 2742   5.106   0.854   3.610 -0.4877  1.1000  0.7715
    7CHTO   C56 2743   5.093   1.077   3.618  0.4446  0.0314 -0.3061
    7CHTO  H113 2744   5.064   1.160   3.553  0.8113  0.3411 -0.0775
    7CHTO   O42 2745   4.999   1.072   3.720 -0.1685  0.2921  0.4390
    7CHTO  H100 2746   5.041   1.051   3.801 -1.6200  0.5353  1.2743
    7CHTO   C57 2747   5.240   1.093   3.659 -0.2017 -0.7397  0.3416
    7CHTO  H114 2748   5.264   1.006   3.718  2.0558  0.3994  1.1593
    7CHTO   N10 2749   5.269   1.219   3.732  0.0065  0.2288 -0.2927
    7CHTO  H106 2750   5.195   1.291   3.702  0.1245  0.4110 -0.1528
    7CHTO  H107 2751   5.263   1.210   3.840  0.6016  0.1528 -0.2599
    7CHTO   C58 2752   5.328   1.077   3.536  0.0659  0.3222 -0.4637
    7CHTO  H115 2753   5.327   1.168   3.474  1.6187  1.4871  1.1728
    7CHTO   O37 2754   5.302   0.953   3.459  0.4464 -0.0331  0.4008
    7CHTO   C59 2755   5.163   0.941   3.420 -1.1423  0.0621  0.1858
    7CHTO  H116 2756   5.142   1.023   3.351  2.5215  0.9512  0.0323
    7CHTO   C70 2757   5.158   0.807   3.349 -0.4573 -0.1022  0.0252
    7CHTO   O46 2758   5.232   0.692   3.398  0.0726  0.2830 -0.0047
    7CHTO  H103 2759   5.178   0.652   3.463  1.9626 -1.5562  0.4924
    7CHTO   O39 2760   5.505   1.072   3.592  0.1535  0.4133 -0.3253
    7CHTO   C60 2761   5.606   1.001   3.507  0.0107  0.2333  0.3895
    7CHTO  H117 2762   5.579   0.896   3.501 -2.3842  0.8711 -0.2466
    7CHTO   C62 2763   5.601   1.070   3.363 -0.3177 -0.1713 -1.0950
    7CHTO  H119 2764   5.503   1.047   3.315 -0.7553  1.7756 -1.1879
    7CHTO   O43 2765   5.616   1.215   3.370  0.1168 -0.5260 -0.3678
    7CHTO  H101 2766   5.562   1.269   3.316  0.7089 -0.3143 -0.7450
    7CHTO   C66 2767   5.700   0.996   3.264 -0.2130  0.2624 -0.1432
    7CHTO  H123 2768   5.662   0.894   3.258 -0.6713  0.3058  1.5656
    7CHTO   N12 2769   5.691   1.035   3.123  0.2053  0.1631  0.1325
    7CHTO  H110 2770   5.659   1.135   3.097 -1.2227 -0.2256  0.3426
    7CHTO  H111 2771   5.639   0.956   3.071  1.7816 -1.2666  0.7174
    7CHTO   C69 2772   5.846   1.000   3.319  0.4921 -0.3094 -0.7483
    7CHTO  H126 2773   5.868   1.109   3.316 -1.8701  0.1840 -1.1473
    7CHTO   O41 2774   5.847   0.943   3.465 -0.3060  0.1710 -0.5625
    7CHTO   C64 2775   5.752   1.012   3.560 -1.1045  0.4441  0.7181
    7CHTO  H121 2776   5.775   1.120   3.576 -0.1651  0.4964 -0.9056
    7CHTO   C71 2777   5.776   0.951   3.700 -0.0713 -0.1779 -0.1689
    7CHTO   O47 2778   5.890   1.002   3.766  0.2034 -0.6392  0.3782
    7CHTO  H104 2779   5.874   1.090   3.792  2.5598  0.1405 -0.6820
    7CHTO   O34 2780   5.939   0.917   3.217  0.3388  0.2460  0.3901
    7CHTO   C49 2781   6.003   0.867   3.090  0.1165 -0.3586  0.4196
    7CHTO   H91 2782   6.073   0.797   3.135  0.6261  0.4682  0.9335
    7CHTO   C47 2783   6.078   0.985   3.026 -0.3696 -0.2681  0.9522
    7CHTO   H89 2784   6.168   0.985   3.092 -0.4219  1.1064  1.0432
    7CHTO   O33 2785   6.010   1.109   3.030 -0.1605  0.1783  0.2153
    7CHTO   H70 2786   5.939   1.120   2.970 -1.3810  1.9008  1.8868
    7CHTO   C45 2787   6.126   0.958   2.873  0.3393 -0.4776  0.1287
    7CHTO   H87 2788   6.043   0.994   2.811 -1.8073 -2.4809  1.7427
    7CHTO    N8 2789   6.251   1.033   2.835 -0.7677 -0.4548 -0.1884
    7CHTO   H75 2790   6.341   0.974   2.835 -0.6147 -0.2289 -1.6153
    7CHTO   H76 2791   6.243   1.066   2.733  1.3420 -2.0488 -0.8979
    7CHTO   C43 2792   6.118   0.799   2.833  0.0820  0.3156  0.0304
    7CHTO   H85 2793   6.127   0.798   2.725 -0.7757 -0.0301 -0.0389
    7CHTO   O29 2794   5.987   0.741   2.872 -0.2905 -0.9622 -0.1298
    7CHTO   C50 2795   5.913   0.793   2.981 -0.1716  0.2304  0.7151
    7CHTO   H92 2796   5.841   0.859   2.932  2.7532 -0.0159 -4.1916
    7CHTO   C54 2797   5.830   0.690   3.057 -0.0162 -0.0322 -0.4676
    7CHTO   O36 2798   5.750   0.619   2.962 -0.0041 -0.0248  0.4570
    7CHTO   H72 2799   5.716   0.545   3.009 -0.8845 -0.0513 -0.2213
    7CHTO   O27 2800   6.233   0.718   2.870 -0.0401  0.5868  0.1793
    7CHTO   C37 2801   6.279   0.623   2.969 -0.4022 -0.4286  0.3711
    7CHTO   H79 2802   6.250   0.654   3.070  0.3280  1.1751  0.1070
    7CHTO   C38 2803   6.229   0.475   2.947  0.1275 -0.0390 -0.1231
    7CHTO   H80 2804   6.231   0.450   2.840  1.6547  2.5622 -0.7565
    7CHTO   O31 2805   6.090   0.456   2.993 -0.1358 -0.3611 -0.3992
    7CHTO   H68 2806   6.078   0.451   3.086 -1.3136  0.4991 -0.4998
    7CHTO   C39 2807   6.312   0.373   3.027 -0.5315 -0.6236  0.5908
    7CHTO   H81 2808   6.285   0.386   3.132  1.7625 -1.3225  1.3081
    7CHTO    N7 2809   6.279   0.225   3.006  0.4186  0.3778  0.1798
    7CHTO   H73 2810   6.357   0.171   2.954  1.2633  0.6848  1.1206
    7CHTO   H74 2811   6.181   0.216   2.961 -0.1930  1.3877  1.2869
    7CHTO   C40 2812   6.467   0.401   3.012 -0.0851  0.1966 -0.4197
    7CHTO   H82 2813   6.491   0.385   2.907 -0.5549  0.3103 -0.5461
    7CHTO   O26 2814   6.487   0.535   3.052 -0.3956 -0.0230  0.0523
    7CHTO   C41 2815   6.429   0.637   2.967 -0.5304  0.2442  0.1943
    7CHTO   H83 2816   6.451   0.622   2.860 -0.1722 -0.9435  0.4267
    7CHTO   C52 2817   6.473   0.779   3.010 -0.7345  0.6792  0.4553
    7CHTO   O35 2818   6.621   0.784   3.020 -0.1502  0.0492  0.1031
    7CHTO   H71 2819   6.646   0.857   2.967  0.1852  1.1783  1.8003
    7CHTO   O28 2820   6.555   0.311   3.090  0.4652  0.2264 -0.4719
    7CHTO   C42 2821   6.677   0.246   3.037  0.5124  0.1560  0.3696
    7CHTO   H84 2822   6.723   0.200   3.125 -1.0873  0.0968  1.2015
    7CHTO   C44 2823   6.780   0.345   2.984  0.1302  0.3726  0.5618
    7CHTO   H86 2824   6.734   0.402   2.904 -0.0583  0.8560  1.0075
    7CHTO   O32 2825   6.806   0.434   3.095  0.1901  0.0660  0.1516
    7CHTO   H69 2826   6.865   0.503   3.070 -2.4997  2.4695  0.2256
    7CHTO   C48 2827   6.914   0.282   2.924  0.0614 -0.2118 -0.1313
    7CHTO   H90 2828   6.965   0.232   3.006 -1.5176  0.2959  1.1747
    7CHTO    N9 2829   7.001   0.395   2.879 -0.2661 -0.0831  0.4529
    7CHTO   H77 2830   7.086   0.408   2.944 -2.0615  1.4423  2.5763
    7CHTO   H78 2831   7.037   0.377   2.778  1.2179 -1.0502  1.1458
    7CHTO   C51 2832   6.868   0.178   2.814 -0.4246  0.4905  0.9911
    7CHTO   H93 2833   6.813   0.234   2.737 -2.6304 -0.8305  1.5747
    7CHTO   O30 2834   6.789   0.074   2.865  0.5074 -0.4859  0.1176
    7CHTO   C46 2835   6.648   0.132   2.935 -0.5538  0.1363  0.0535
    7CHTO   H88 2836   6.584   0.161   2.851  0.5827  2.6100 -0.0001
    7CHTO   C53 2837   6.579   0.019   3.008 -0.6050 -0.3114 -0.1367
    7CHTO   O72 2838   6.660  -0.025   3.119 -0.4795 -0.8985  0.1273
    7CHTO  H199 2839   6.675  -0.117   3.110  2.9593 -0.3613 -0.2342
    7CHTO   O22 2840   6.982   0.113   2.756  0.3546  0.0125 -0.1227
    7CHTO   C31 2841   6.989   0.095   2.609 -0.1563 -0.1990 -0.0081
    7CHTO   H59 2842   7.076   0.030   2.587 -0.4273  0.1687 -2.3163
    7CHTO   C29 2843   6.865   0.022   2.554  0.0339 -0.9082 -0.3966
    7CHTO   H57 2844   6.768   0.070   2.575  1.1153  1.1566  0.0273
    7CHTO   O21 2845   6.876  -0.108   2.620 -0.2567 -0.8074 -0.2736
    7CHTO   H37 2846   6.921  -0.108   2.702 -2.6312  1.3670  1.1025
    7CHTO   C27 2847   6.863   0.002   2.398 -0.0813 -0.1501  0.4623
    7CHTO   H55 2848   6.947  -0.060   2.364 -0.2899 -0.1337 -0.0892
    7CHTO    N5 2849   6.740  -0.063   2.349  0.2173 -0.4108  0.2390
    7CHTO   H43 2850   6.731  -0.035   2.244 -0.3979 -1.3315  0.0412
    7CHTO   H44 2851   6.655  -0.045   2.412  0.7202 -0.0701  0.8279
    7CHTO   C25 2852   6.891   0.144   2.333  0.2985 -0.0551 -0.1092
    7CHTO   H53 2853   6.815   0.217   2.367  1.0194  0.3353  0.6722
    7CHTO   O17 2854   7.007   0.208   2.385 -0.3474  0.1501 -0.1800
    7CHTO   C32 2855   7.019   0.223   2.529  0.0915  0.3978  0.8246
    7CHTO   H60 2856   6.952   0.302   2.564  0.2810  0.6178  0.6870
    7CHTO   C36 2857   7.164   0.277   2.563  0.4623  0.3679 -0.5505
    7CHTO   O25 2858   7.186   0.405   2.517  0.5126  0.3242  0.4155
    7CHTO   H40 2859   7.271   0.417   2.480  1.1100 -0.2309  1.5692
    7CHTO   O15 2860   6.906   0.136   2.178  0.1790  0.0456 -0.2316
    7CHTO   C19 2861   6.865   0.240   2.085 -0.1884  0.0647 -0.6341
    7CHTO   H47 2862   6.902   0.194   1.992 -0.4948 -0.4944 -0.4760
    7CHTO   C20 2863   6.719   0.277   2.065 -0.9876 -0.0708  0.9430
    7CHTO   H48 2864   6.672   0.323   2.154  0.4728  3.6380 -0.1124
    7CHTO   O19 2865   6.654   0.152   2.030 -0.3307  0.0508  0.1232
    7CHTO   H35 2866   6.562   0.165   2.045 -0.4130  1.9907 -1.8257
    7CHTO   C21 2867   6.699   0.383   1.946 -0.1479 -0.0866 -0.2474
    7CHTO   H49 2868   6.734   0.338   1.853  0.7394  0.8177 -0.3530
    7CHTO    N4 2869   6.557   0.426   1.932  0.1891  0.2604 -0.0094
    7CHTO   H41 2870   6.522   0.375   1.844 -0.1338  1.9496 -0.8950
    7CHTO   H42 2871   6.557   0.533   1.915  0.6891  0.3613  0.5934
    7CHTO   C22 2872   6.795   0.505   1.957 -0.4802  0.1230 -0.3304
    7CHTO   H50 2873   6.754   0.566   2.038  2.2196  0.7149  0.6468
    7CHTO   O14 2874   6.932   0.468   1.991 -0.0246 -0.4493  0.8368
    7CHTO   C23 2875   6.949   0.375   2.099  0.0271 -0.0108 -0.6557
    7CHTO   H51 2876   6.919   0.435   2.186  1.0612  1.9420 -1.6028
    7CHTO   C34 2877   7.102   0.344   2.096  0.1623  0.2451  0.2475
    7CHTO   O23 2878   7.167   0.459   2.147 -0.0805 -0.9966 -0.0655
    7CHTO   H38 2879   7.227   0.439   2.217  1.4451  1.0646 -0.7161
    7CHTO   O16 2880   6.824   0.582   1.842  0.5284 -0.1379  0.7316
    7CHTO   C24 2881   6.856   0.740   1.889 -0.3501  0.0174  0.3027
    7CHTO   H52 2882   6.880   0.750   1.995  1.8429 -1.9626  0.0334
    7CHTO   C26 2883   6.728   0.829   1.858  0.2230  0.0934 -0.1243
    7CHTO   H54 2884   6.714   0.829   1.748  0.3754  0.1677 -0.1442
    7CHTO   O20 2885   6.614   0.779   1.927  0.2736  0.1088 -0.0780
    7CHTO   H36 2886   6.603   0.686   1.936 -1.1226 -0.1353 -3.4248
    7CHTO   C30 2887   6.751   0.976   1.892 -0.2415 -0.0230 -0.3998
    7CHTO   H58 2888   6.755   0.989   2.001 -0.3490 -1.8423 -0.1577
    7CHTO    N6 2889   6.638   1.066   1.847  0.3214 -0.2219  0.4191
    7CHTO   H45 2890   6.612   1.051   1.743 -1.1028 -0.2523  0.7592
    7CHTO   H46 2891   6.550   1.034   1.901 -0.7236 -0.0282 -1.1111
    7CHTO   C33 2892   6.890   1.031   1.839 -0.3722  0.4020 -0.4529
    7CHTO   H61 2893   6.884   1.048   1.731 -0.5138 -0.3750 -0.5703
    7CHTO   O18 2894   7.004   0.936   1.861 -0.1752  0.0627 -0.3636
    7CHTO   C28 2895   6.981   0.802   1.812  0.5688  0.1217  0.2034
    7CHTO   H56 2896   6.960   0.804   1.705  0.5580 -3.1239  0.1043
    7CHTO   C35 2897   7.103   0.709   1.831  0.0841 -0.3226  0.2607
    7CHTO   O24 2898   7.144   0.694   1.967 -0.0744 -0.2123 -1.0709
    7CHTO   H39 2899   7.073   0.706   2.028  0.2329  2.5304 -1.1633
    7CHTO    O9 2900   6.918   1.156   1.897  0.3936 -0.7285  0.4741
    7CHTO   C13 2901   7.019   1.253   1.823 -0.3928 -0.0847  0.0063
    7CHTO   H26 2902   6.994   1.250   1.715 -3.2779  1.7736  0.5590
    7CHTO   C11 2903   7.174   1.196   1.857  0.3994 -0.7615 -0.2417
    7CHTO   H24 2904   7.190   1.102   1.803  0.8585 -1.5414  1.2320
    7CHTO    O8 2905   7.176   1.165   1.996 -0.1576  0.5743  0.1697
    7CHTO    H3 2906   7.103   1.119   2.031 -0.5228  0.9868 -0.0529
    7CHTO    C9 2907   7.278   1.303   1.813 -0.3533  0.0962  0.1523
    7CHTO   H22 2908   7.268   1.310   1.704  0.3390 -3.2175 -0.1726
    7CHTO    N2 2909   7.421   1.262   1.828 -0.1339 -0.4376 -0.3255
    7CHTO   H10 2910   7.427   1.178   1.896 -0.4198  0.4246  0.7766
    7CHTO   H11 2911   7.471   1.239   1.735 -1.2623  1.6606 -1.4901
    7CHTO    C7 2912   7.238   1.445   1.861 -0.6389 -0.2661  0.0411
    7CHTO   H20 2913   7.305   1.505   1.796  0.5240 -0.2727  1.2123
    7CHTO    O4 2914   7.104   1.485   1.837  0.4755 -0.2713 -0.8422
    7CHTO   C14 2915   6.993   1.398   1.876 -0.0356 -0.6061 -0.2817
    7CHTO   H27 2916   6.901   1.438   1.827 -0.6904  0.8565  2.0701
    7CHTO   C18 2917   6.964   1.411   2.025  0.1944 -0.2504  0.7660
    7CHTO   O13 2918   6.913   1.541   2.063  0.8843 -0.0706  0.0003
    7CHTO    H7 2919   6.974   1.606   2.034  3.0297 -1.3480  1.4956
    7CHTO    O2 2920   7.276   1.478   2.029  0.2538 -0.2027 -0.4680
    7CHTO    C1 2921   7.310   1.610   2.062  0.0997 -0.4319 -0.5427
    7CHTO   H14 2922   7.215   1.665   2.047 -1.3673 -2.8038 -0.0854
    7CHTO    C2 2923   7.421   1.686   1.985  0.0204 -0.1977  0.5993
    7CHTO   H15 2924   7.499   1.609   1.976 -0.1103 -0.1084 -1.3487
    7CHTO    O6 2925   7.365   1.724   1.857  0.2648 -0.3340  0.1847
    7CHTO    H1 2926   7.275   1.700   1.844  0.9185 -4.5319  2.4783
    7CHTO    C3 2927   7.478   1.816   2.048 -0.7506  0.7300 -0.0692
    7CHTO   H16 2928   7.400   1.891   2.031 -0.3897  1.1622  0.1721
    7CHTO    N1 2929   7.606   1.855   1.983  0.2297 -0.7940  0.0482
    7CHTO    H8 2930   7.688   1.785   1.993  1.0814  0.1312 -0.3675
    7CHTO    H9 2931   7.600   1.885   1.879 -0.3022 -1.9133 -0.2589
    7CHTO    C4 2932   7.481   1.808   2.203  0.4901  0.4032  0.0621
    7CHTO   H17 2933   7.568   1.749   2.231 -0.7034 -1.5802 -0.3430
    7CHTO    O1 2934   7.363   1.737   2.251  0.2852 -0.4483  0.4614
    7CHTO    C5 2935   7.344   1.604   2.209  0.0700 -0.3675  0.4794
    7CHTO   H18 2936   7.442   1.561   2.228  1.0943  1.8800  0.4561
    7CHTO   C16 2937   7.239   1.536   2.306 -0.2021 -0.3097 -0.3329
    7CHTO   O11 2938   7.106   1.576   2.276  0.0713  0.6059  0.0539
    7CHTO    H5 2939   7.040   1.529   2.323  0.4937  0.8578  0.9020
    7CHTO    O3 2940   7.483   1.934   2.273  0.2083 -0.1330 -0.6802
    7CHTO    C6 2941   7.571   1.927   2.391 -0.1307  0.6873  0.0702
    7CHTO   H19 2942   7.593   1.825   2.423  0.1228  0.9070  0.6020
    7CHTO    C8 2943   7.706   2.014   2.371 -0.0211  0.4564  0.1663
    7CHTO   H21 2944   7.683   2.112   2.328  0.3160  0.3140 -0.3423
    7CHTO    O7 2945   7.786   1.947   2.276  0.5309  0.4398 -0.6254
    7CHTO    H2 2946   7.776   1.987   2.192 -2.6169  2.2210  0.5017
    7CHTO   C12 2947   7.785   2.045   2.501 -0.2679 -0.0214 -0.6054
    7CHTO   H25 2948   7.806   1.944   2.542 -0.3674 -0.4248 -1.5349
    7CHTO    N3 2949   7.928   2.102   2.493 -0.1244  0.0304  0.2600
    7CHTO   H12 2950   7.969   2.120   2.591  0.1915 -0.2545  0.1834
    7CHTO   H13 2951   7.923   2.186   2.425 -1.2423 -0.8681 -0.7912
    7CHTO   C15 2952   7.680   2.124   2.593  0.1886 -0.8523 -0.4895
    7CHTO   H28 2953   7.649   2.221   2.556 -0.3746 -1.5963 -2.0234
    7CHTO   O10 2954   7.737   2.147   2.738  0.3992  0.2047  0.1537
    7CHTO    H4 2955   7.719   2.070   2.789 -1.1335 -0.4524 -1.3229
    7CHTO    O5 2956   7.577   2.034   2.620  0.0296  0.3037 -0.4752
    7CHTO   C10 2957   7.491   1.996   2.511 -0.3546 -0.4860 -0.4081
    7CHTO   H23 2958   7.437   2.078   2.463 -0.6388  0.6024  1.7225
    7CHTO   C17 2959   7.378   1.910   2.569  0.0965  0.3506 -0.1870
    7CHTO   O12 2960   7.276   1.881   2.465 -0.6531  0.2087  0.6856
    7CHTO    H6 2961   7.307   1.835   2.390  1.9071  0.8635  1.2703
    8CHTO  H203 2962   7.513   8.308   0.948  0.2551 -0.1962 -1.4501
    8CHTO   O82 2963   7.457   8.241   0.983 -0.0109  0.5608 -0.4079
    8CHTO  C123 2964   7.407   8.297   1.106  0.2317  0.0792 -0.4195
    8CHTO  H227 2965   7.491   8.333   1.167  0.2985  0.4281 -0.7153
    8CHTO   O77 2966   7.330   8.409   1.069  0.3442  0.4925  0.0014
    8CHTO  C118 2967   7.261   8.475   1.179  0.7142 -0.0268  0.5221
    8CHTO  H222 2968   7.331   8.495   1.260  0.6872  1.0196  0.2841
    8CHTO  C125 2969   7.192   8.614   1.140  0.1430  0.2641  0.4360
    8CHTO   O84 2970   7.119   8.598   1.020  0.4234 -0.0227 -0.1205
    8CHTO  H205 2971   7.162   8.537   0.963 -0.0416  0.1056 -0.6054
    8CHTO  C114 2972   7.161   8.378   1.243  0.7110  0.4448 -0.1080
    8CHTO  H218 2973   7.096   8.338   1.165 -0.6499  1.1002  0.6632
    8CHTO  C116 2974   7.239   8.261   1.302 -0.0370  0.2386 -0.2115
    8CHTO  H220 2975   7.308   8.301   1.379 -0.6914  0.1301  0.4365
    8CHTO   O79 2976   7.138   8.180   1.372 -0.2923 -0.0876  0.2104
    8CHTO  H201 2977   7.179   8.141   1.446  0.5594  1.7451  0.7444
    8CHTO  C120 2978   7.318   8.190   1.184 -0.1502  0.3081 -0.2550
    8CHTO  H224 2979   7.241   8.155   1.112  0.0889 -1.9798  0.5854
    8CHTO   N21 2980   7.386   8.072   1.239  0.3154  0.3641  0.0613
    8CHTO  H211 2981   7.417   7.996   1.169  0.0690  2.0519 -1.8983
    8CHTO  H212 2982   7.477   8.104   1.289 -0.7031  2.3463  0.6938
    8CHTO   O75 2983   7.085   8.455   1.344  0.3077 -0.3406 -0.1480
    8CHTO  C112 2984   6.936   8.441   1.337  1.1176 -0.8913 -0.0808
    8CHTO  H216 2985   6.910   8.334   1.334 -1.5027 -0.2386 -3.4622
    8CHTO   O73 2986   6.891   8.505   1.213  0.9474 -0.0887 -1.0667
    8CHTO  C113 2987   6.752   8.494   1.188  0.2075 -1.0200  0.2275
    8CHTO  H217 2988   6.707   8.394   1.202 -1.1754 -0.5407 -0.6636
    8CHTO  C124 2989   6.725   8.543   1.047 -0.0238 -0.1321 -0.3242
    8CHTO   O83 2990   6.769   8.456   0.941  0.0267  0.3802  0.2050
    8CHTO  H204 2991   6.848   8.413   0.966 -0.0278 -1.2026 -2.2322
    8CHTO  C109 2992   6.684   8.589   1.290  0.1954  0.3186 -0.1975
    8CHTO  H213 2993   6.740   8.684   1.286 -0.5006  0.7484  0.1974
    8CHTO  C110 2994   6.703   8.530   1.434 -0.1053  0.2346  0.1458
    8CHTO  H214 2995   6.661   8.431   1.449 -1.0653  0.3359 -1.7457
    8CHTO   O78 2996   6.630   8.609   1.533  0.2145  0.0051 -0.2735
    8CHTO  H200 2997   6.550   8.564   1.554 -1.8600  1.8834 -3.5642
    8CHTO  C111 2998   6.857   8.517   1.458 -0.4263  0.0687  0.3020
    8CHTO  H215 2999   6.899   8.618   1.460  0.1832 -0.1713 -0.3671
    8CHTO   N19 3000   6.895   8.451   1.584 -0.3196  0.1064 -0.1435
    8CHTO  H207 3001   6.808   8.440   1.646  0.9052  1.1977  1.8338
    8CHTO  H208 3002   6.967   8.517   1.630  1.3629 -3.0610  1.9611
    8CHTO   O74 3003   6.538   8.620   1.263  0.2070 -0.3236 -0.1875
    8CHTO  C115 3004   6.436   8.504   1.243  0.3971  0.5878  0.4393
    8CHTO  H219 3005   6.477   8.428   1.176 -0.6157 -0.3664  0.8812
    8CHTO   O76 3006   6.395   8.435   1.381 -0.0996  0.1760 -0.2445
    8CHTO  C122 3007   6.313   8.515   1.471  0.1506 -0.4506  0.4163
    8CHTO  H226 3008   6.381   8.587   1.517 -0.6674 -0.9855  2.4815
    8CHTO  C126 3009   6.249   8.432   1.582  0.6364 -0.4565 -0.1605
    8CHTO   O85 3010   6.351   8.376   1.661  0.1711  0.5010  0.6441
    8CHTO  H206 3011   6.333   8.290   1.695 -0.0317 -0.7443 -2.4259
    8CHTO  C121 3012   6.194   8.588   1.401 -0.4305 -0.1275  0.5555
    8CHTO  H225 3013   6.111   8.520   1.374 -0.5332  0.6049 -1.0255
    8CHTO   O81 3014   6.137   8.689   1.494  0.2040  0.0138  0.0957
    8CHTO  H202 3015   6.186   8.769   1.488  0.8422 -0.4276 -0.6129
    8CHTO  C119 3016   6.237   8.655   1.267  0.8065  0.0695  0.2421
    8CHTO  H223 3017   6.144   8.683   1.217  2.5832  0.8837 -2.7464
    8CHTO  C117 3018   6.307   8.558   1.170  0.1046  0.2447  0.0169
    8CHTO  H221 3019   6.350   8.601   1.079 -0.0738  1.9029  0.6954
    8CHTO   N20 3020   6.221   8.447   1.126 -0.2542  0.4557  0.4832
    8CHTO  H209 3021   6.277   8.373   1.070 -1.3424  1.3927 -1.9336
    8CHTO  H210 3022   6.177   8.399   1.212 -0.8429 -0.3745 -0.2643
    8CHTO   O80 3023   6.297   8.793   1.275 -0.1040  0.1614 -0.2318
    8CHTO  C103 3024   6.192   8.933   1.296 -0.7367 -0.5296 -0.4111
    8CHTO  H190 3025   6.089   8.902   1.314 -0.3431 -0.3320  2.3865
    8CHTO  C101 3026   6.220   9.029   1.414  0.1381 -0.5218 -0.2823
    8CHTO  H188 3027   6.325   9.056   1.420 -0.4467  1.5435  0.9449
    8CHTO   O68 3028   6.169   8.954   1.547 -0.0571  0.5050 -0.6822
    8CHTO  H168 3029   6.238   8.937   1.609 -0.1358  2.2125 -0.0900
    8CHTO   C99 3030   6.137   9.164   1.391 -0.1901  0.0327  0.2549
    8CHTO  H186 3031   6.029   9.142   1.381 -0.0562 -0.6527  0.3157
    8CHTO   N17 3032   6.161   9.265   1.504 -0.0263  1.0981  0.0578
    8CHTO  H174 3033   6.181   9.203   1.590 -1.2690 -1.5244 -1.4704
    8CHTO  H175 3034   6.063   9.311   1.508 -1.0867 -1.0953  0.4693
    8CHTO   C97 3035   6.180   9.221   1.252 -0.7294 -0.0064  0.0833
    8CHTO  H184 3036   6.288   9.241   1.250 -0.7122 -0.1510 -0.4657
    8CHTO   O64 3037   6.141   9.129   1.151 -0.3147  0.6034  0.3464
    8CHTO  C104 3038   6.207   9.005   1.152  0.3998 -0.8486  0.7374
    8CHTO  H191 3039   6.313   9.014   1.125  0.1680  2.0858  0.6606
    8CHTO  C108 3040   6.137   8.927   1.036 -0.9065 -0.2322  0.0810
    8CHTO   O71 3041   6.231   8.845   0.958 -0.2546  0.1437 -0.0981
    8CHTO  H171 3042   6.208   8.828   0.869 -1.9773 -0.3154  0.4249
    8CHTO   O62 3043   6.108   9.334   1.209  0.1531 -0.0964 -0.1843
    8CHTO   C91 3044   6.160   9.432   1.122  0.1147  0.1922 -0.1079
    8CHTO  H178 3045   6.257   9.394   1.092 -0.4201 -0.4163 -1.0988
    8CHTO   C92 3046   6.176   9.557   1.216 -0.1059 -0.5258  0.2835
    8CHTO  H179 3047   6.085   9.578   1.275 -0.7975 -1.0112 -0.6056
    8CHTO   O66 3048   6.275   9.522   1.310  0.0538  0.5900  0.2267
    8CHTO  H166 3049   6.358   9.511   1.268 -0.4491  0.6698 -0.7999
    8CHTO   C93 3050   6.223   9.685   1.132 -0.6650 -0.1749  0.0551
    8CHTO  H180 3051   6.325   9.663   1.098 -1.4538 -1.5496 -1.5160
    8CHTO   N16 3052   6.233   9.810   1.212  0.2215  0.2977 -0.9675
    8CHTO  H172 3053   6.165   9.888   1.183  2.6557  2.4442 -1.0973
    8CHTO  H173 3054   6.205   9.782   1.312 -3.0476  0.9967 -1.6155
    8CHTO   C94 3055   6.142   9.705   1.004  0.2453  0.5666  0.9793
    8CHTO  H181 3056   6.039   9.733   1.026 -0.5527 -1.1330 -0.4134
    8CHTO   O61 3057   6.151   9.579   0.933 -0.2430  0.3002 -0.2243
    8CHTO   C95 3058   6.083   9.470   0.992 -0.4924 -0.0243 -1.0033
    8CHTO  H182 3059   5.978   9.492   1.008  0.0976  0.2431  2.8319
    8CHTO  C106 3060   6.101   9.350   0.899 -0.0276  0.9396  0.0881
    8CHTO   O69 3061   6.036   9.358   0.778  0.2033  0.3259  0.0938
    8CHTO  H169 3062   6.093   9.340   0.706  1.6241  0.4415  1.1753
    8CHTO   O63 3063   6.203   9.813   0.910  0.3466  0.0253 -0.1221
    8CHTO   C96 3064   6.126   9.813   0.764  0.3729  0.1267 -0.7197
    8CHTO  H183 3065   6.056   9.730   0.762  0.8364 -0.3118  0.6705
    8CHTO   C98 3066   6.231   9.815   0.647 -0.4300  0.7288 -0.0646
    8CHTO  H185 3067   6.317   9.880   0.673  0.3221 -0.3601  0.1990
    8CHTO   O67 3068   6.290   9.685   0.647  0.1040 -0.3696  0.3046
    8CHTO  H167 3069   6.265   9.630   0.576 -0.3829 -0.4140  0.5051
    8CHTO  C102 3070   6.180   9.840   0.502  0.1564 -0.2081  0.6669
    8CHTO  H189 3071   6.143   9.743   0.468  1.1322 -1.1274  2.1654
    8CHTO   N18 3072   6.278   9.882   0.402  0.4631 -0.4838  0.3394
    8CHTO  H176 3073   6.301   9.804   0.331 -0.5936 -2.2774  1.9073
    8CHTO  H177 3074   6.365   9.914   0.459 -0.0202  0.8776  0.3273
    8CHTO  C105 3075   6.062   9.947   0.511 -0.7693  0.5008  0.6989
    8CHTO  H192 3076   6.100  10.048   0.505  1.4275 -0.2789  1.0466
    8CHTO   O65 3077   5.973   9.944   0.623  0.4789  0.3139 -0.3074
    8CHTO  C100 3078   6.040   9.941   0.746  0.2591 -0.1891 -0.4754
    8CHTO  H187 3079   6.110  10.026   0.751  0.4947 -0.4424  0.9288
    8CHTO  C107 3080   5.936   9.949   0.861  0.8642 -0.1078 -0.7985
    8CHTO   O70 3081   5.865   9.828   0.880 -0.1595 -0.1868  0.2618
    8CHTO  H170 3082   5.804   9.839   0.950 -0.7843 -2.6572  0.1790
    8CHTO   O57 3083   5.980   9.904   0.374  0.1093  0.4562  0.6967
    8CHTO   C85 3084   5.935   9.995   0.271  0.2348  0.1018  0.1547
    8CHTO  H157 3085   6.036  10.036   0.250  1.3907 -1.2880  2.7827
    8CHTO   C83 3086   5.855  10.122   0.324  0.0288  0.8132 -0.0186
    8CHTO  H155 3087   5.926  10.186   0.376  2.1461  0.9449 -2.9767
    8CHTO   O56 3088   5.752  10.076   0.424  0.1732 -0.2189 -0.5132
    8CHTO  H135 3089   5.677  10.132   0.416  0.7752  0.9951  1.9336
    8CHTO   C81 3090   5.794  10.203   0.204  0.3431  0.0866 -1.1107
    8CHTO  H153 3091   5.878  10.234   0.141 -0.2169  0.2025 -1.8076
    8CHTO   N14 3092   5.728  10.324   0.254  0.3741 -0.5227 -0.4185
    8CHTO  H141 3093   5.686  10.364   0.164  1.2574  0.2870 -0.4839
    8CHTO  H142 3094   5.801  10.390   0.296  0.9727 -0.6767 -1.1893
    8CHTO   C79 3095   5.698  10.110   0.120  0.3132 -0.0438 -0.8546
    8CHTO  H151 3096   5.663  10.170   0.036  1.3603 -1.2999 -2.2174
    8CHTO   O52 3097   5.779  10.003   0.062  0.5857 -0.2277  0.0631
    8CHTO   C86 3098   5.869   9.921   0.147 -0.7753  0.0037 -0.1290
    8CHTO  H158 3099   5.805   9.838   0.182  0.6959 -1.5353 -1.0186
    8CHTO   C90 3100   5.982   9.849   0.056 -0.4392 -0.0750  0.3526
    8CHTO   O60 3101   6.056   9.740   0.104 -0.2284  0.6413 -0.0992
    8CHTO  H138 3102   6.146   9.743   0.077 -0.6634  1.5238 -1.4668
    8CHTO   O50 3103   5.585  10.043   0.190 -0.3731  0.1427 -0.0623
    8CHTO   C73 3104   5.457   9.992   0.170  0.3502 -0.0280 -0.6105
    8CHTO  H145 3105   5.445   9.950   0.069  1.9990  0.3027 -0.9453
    8CHTO   C74 3106   5.347  10.101   0.187 -0.5681  0.3806 -0.2411
    8CHTO  H146 3107   5.369  10.174   0.107 -1.8034  0.4385 -0.5387
    8CHTO   O54 3108   5.220  10.038   0.149  0.1887 -0.1644  0.3976
    8CHTO  H133 3109   5.149  10.097   0.128  1.4461  1.4212  0.4656
    8CHTO   C75 3110   5.344  10.163   0.329 -0.2813 -0.4528 -1.2514
    8CHTO  H147 3111   5.437  10.221   0.340 -1.3395  1.5821 -2.7573
    8CHTO   N13 3112   5.239  10.266   0.360 -0.6924  0.0021 -0.0840
    8CHTO  H139 3113   5.243  10.340   0.281 -1.9536  1.5017  1.2303
    8CHTO  H140 3114   5.139  10.224   0.365 -0.7374  0.2354  1.1816
    8CHTO   C76 3115   5.354  10.051   0.443 -0.0128 -0.0499 -0.1395
    8CHTO  H148 3116   5.251  10.017   0.452 -0.2482  1.4710  3.5291
    8CHTO   O49 3117   5.445   9.940   0.408  0.4995  0.2565  0.0051
    8CHTO   C77 3118   5.430   9.886   0.273  0.1696  0.7661 -0.7658
    8CHTO  H149 3119   5.325   9.856   0.266  0.1008  0.9393 -0.4588
    8CHTO   C88 3120   5.515   9.759   0.251 -0.5546  0.0201  0.1986
    8CHTO   O58 3121   5.487   9.702   0.123  0.4130  0.4847  0.4361
    8CHTO  H136 3122   5.540   9.747   0.061 -0.6327  0.0460 -0.8126
    8CHTO   O51 3123   5.400  10.106   0.572 -0.8784 -0.1844  0.2944
    8CHTO   C78 3124   5.397  10.001   0.698 -0.1617 -0.1005 -0.2536
    8CHTO  H150 3125   5.428   9.896   0.678  1.3716  0.1465  0.8005
    8CHTO   C80 3126   5.258   9.996   0.765  0.0236 -0.4127  0.8609
    8CHTO  H152 3127   5.222  10.099   0.787 -0.8220 -0.8332  1.4991
    8CHTO   O55 3128   5.167   9.948   0.660 -0.2983  1.2414 -0.9726
    8CHTO  H134 3129   5.159  10.019   0.600  1.2865  0.8619 -1.6526
    8CHTO   C84 3130   5.265   9.922   0.899 -0.4375  0.2847  0.5133
    8CHTO  H156 3131   5.283   9.817   0.872 -0.7231 -0.1235  1.8895
    8CHTO   N15 3132   5.136   9.917   0.972 -0.2012 -0.4293  0.3586
    8CHTO  H143 3133   5.058   9.860   0.924 -1.5460  1.6654  0.0075
    8CHTO  H144 3134   5.137   9.885   1.074 -0.6297  1.5696  1.0000
    8CHTO   C87 3135   5.384   9.978   0.990  0.3803 -0.0888  0.0647
    8CHTO  H159 3136   5.352  10.081   1.007  0.8699  0.8519 -4.1226
    8CHTO   O53 3137   5.516   9.975   0.902 -0.2900 -0.5899 -0.5288
    8CHTO   C82 3138   5.503  10.064   0.795 -0.4236 -0.3679 -0.3539
    8CHTO  H154 3139   5.457  10.157   0.828 -1.4497 -1.3071  0.9116
    8CHTO   C89 3140   5.631  10.098   0.719 -1.1276  0.6143  0.4648
    8CHTO   O59 3141   5.722  10.176   0.796 -0.2721  0.1914  0.0105
    8CHTO  H137 3142   5.811  10.171   0.767 -0.0500  0.4660  0.6230
    8CHTO   O45 3143   5.404   9.901   1.120  0.1649  0.2650 -0.8925
    8CHTO   C67 3144   5.460   9.766   1.102 -0.2892 -0.4269  0.7471
    8CHTO  H124 3145   5.424   9.720   1.010  2.6318  0.9778 -1.2008
    8CHTO   C65 3146   5.621   9.764   1.106 -0.4503 -0.0713 -0.0972
    8CHTO  H122 3147   5.659   9.864   1.084 -2.4590  1.0769  1.3880
    8CHTO   O44 3148   5.666   9.666   1.006 -0.3449  0.6105  0.7392
    8CHTO  H102 3149   5.665   9.697   0.917  1.1098  0.3291  0.6110
    8CHTO   C63 3150   5.668   9.728   1.255 -0.7316 -0.2195  0.0877
    8CHTO  H120 3151   5.618   9.791   1.329 -2.2292 -2.4728  1.0374
    8CHTO   N11 3152   5.812   9.754   1.290  0.6180 -0.2253 -0.1593
    8CHTO  H108 3153   5.860   9.759   1.195 -1.5154  1.3273 -1.2148
    8CHTO  H109 3154   5.839   9.671   1.352  0.4883  0.5704  0.9902
    8CHTO   C61 3155   5.626   9.580   1.287  0.1416  0.1790  0.5577
    8CHTO  H118 3156   5.626   9.572   1.397  2.2269  1.5515  0.6968
    8CHTO   O40 3157   5.493   9.553   1.238  0.1452 -0.3470 -0.2757
    8CHTO   C68 3158   5.405   9.672   1.215 -0.3640  0.8940 -0.0350
    8CHTO  H125 3159   5.389   9.720   1.314  0.0330 -0.5579  0.7464
    8CHTO   C72 3160   5.270   9.612   1.169 -0.4021  0.0371  0.2938
    8CHTO   O48 3161   5.284   9.531   1.053  0.3865 -0.1380  0.9488
    8CHTO  H105 3162   5.312   9.445   1.078  0.1387 -0.6476 -0.4740
    8CHTO   O38 3163   5.712   9.474   1.242 -0.3581 -0.1038 -0.1855
    8CHTO   C55 3164   5.675   9.338   1.272 -0.0956 -0.1152 -0.3530
    8CHTO  H112 3165   5.568   9.334   1.294  0.2135 -1.0759  1.0534
    8CHTO   C56 3166   5.756   9.282   1.391 -0.2397  0.2241 -0.5788
    8CHTO  H113 3167   5.864   9.297   1.373 -0.3079  2.2384  0.5693
    8CHTO   O42 3168   5.727   9.364   1.504 -0.2106  0.4646 -0.1241
    8CHTO  H100 3169   5.662   9.321   1.556 -0.8764  0.3761 -1.0229
    8CHTO   C57 3170   5.719   9.127   1.413 -0.1226  0.6530  0.2646
    8CHTO  H114 3171   5.616   9.133   1.449 -0.3063  3.1414 -0.5490
    8CHTO   N10 3172   5.797   9.060   1.523 -0.0607 -0.1672  0.4162
    8CHTO  H106 3173   5.744   8.969   1.547 -1.3870  0.7619  1.0597
    8CHTO  H107 3174   5.894   9.034   1.483  2.2043 -1.0732  6.0522
    8CHTO   C58 3175   5.723   9.048   1.280 -0.6161  0.3682 -0.8615
    8CHTO  H115 3176   5.828   9.043   1.244 -0.0023 -0.3124  0.9796
    8CHTO   O37 3177   5.642   9.117   1.179  0.1231  0.0429 -0.0024
    8CHTO   C59 3178   5.692   9.249   1.149  0.2150 -0.0587 -0.0255
    8CHTO  H116 3179   5.800   9.243   1.132  0.0849 -2.1541 -0.2799
    8CHTO   C70 3180   5.611   9.290   1.025  0.7820 -0.1486  0.8804
    8CHTO   O46 3181   5.471   9.281   1.046  0.7398 -0.6648  0.0445
    8CHTO  H103 3182   5.439   9.192   1.042  0.3775 -0.5725  0.8381
    8CHTO   O39 3183   5.656   8.897   1.306 -0.2137 -0.4868  0.2533
    8CHTO   C60 3184   5.515   8.880   1.310  0.0120 -0.4247 -0.2303
    8CHTO  H117 3185   5.461   8.960   1.361 -0.8570 -1.2262  0.1280
    8CHTO   C62 3186   5.457   8.872   1.170 -0.2035  0.2823  0.8667
    8CHTO  H119 3187   5.479   8.970   1.121  0.0836 -0.3133 -0.2294
    8CHTO   O43 3188   5.537   8.774   1.104 -0.1128  0.4295  0.6406
    8CHTO  H101 3189   5.481   8.718   1.054  1.2143  0.3961 -0.8641
    8CHTO   C66 3190   5.297   8.850   1.164 -0.8591 -0.1984 -0.0096
    8CHTO  H123 3191   5.251   8.935   1.215 -0.6237 -0.2074  0.2185
    8CHTO   N12 3192   5.242   8.847   1.025  0.4313 -0.2763  0.3947
    8CHTO  H110 3193   5.198   8.753   0.994  1.3759 -0.4894 -0.3079
    8CHTO  H111 3194   5.308   8.889   0.951 -1.1349  2.5069  0.4947
    8CHTO   C69 3195   5.265   8.722   1.244 -0.6745  0.2325 -0.2557
    8CHTO  H126 3196   5.299   8.635   1.185 -0.1439 -0.8643  1.6302
    8CHTO   O41 3197   5.337   8.734   1.397  0.4659 -0.7734 -0.5707
    8CHTO   C64 3198   5.483   8.750   1.392 -0.1704 -0.0665 -0.3200
    8CHTO  H121 3199   5.533   8.669   1.334  0.5757  1.1112 -1.3423
    8CHTO   C71 3200   5.541   8.749   1.539 -0.4810 -0.2020 -0.4845
    8CHTO   O47 3201   5.686   8.731   1.540  0.6475 -0.8692  0.3429
    8CHTO  H104 3202   5.715   8.706   1.625  1.4525 -1.8411 -0.2038
    8CHTO   O34 3203   5.107   8.684   1.265 -0.0541 -0.3506  0.2680
    8CHTO   C49 3204   5.008   8.743   1.372 -0.6873  0.5769 -0.6026
    8CHTO   H91 3205   5.007   8.669   1.452  1.2842 -2.7596 -3.5594
    8CHTO   C47 3206   4.871   8.747   1.303 -0.9453 -0.1470 -0.2482
    8CHTO   H89 3207   4.808   8.782   1.387  0.7086  0.6848  0.6678
    8CHTO   O33 3208   4.833   8.621   1.261 -0.6364 -0.3042 -0.2188
    8CHTO   H70 3209   4.747   8.629   1.223 -0.7445  1.6142  0.3520
    8CHTO   C45 3210   4.882   8.854   1.182 -0.2337 -0.3938  0.3350
    8CHTO   H87 3211   4.974   8.832   1.126 -0.2059  2.4290 -0.7680
    8CHTO    N8 3212   4.769   8.858   1.091 -0.3668 -1.3991  0.1271
    8CHTO   H75 3213   4.773   8.761   1.042  0.2242 -2.1515  1.6341
    8CHTO   H76 3214   4.679   8.854   1.151 -0.5001  1.0695  0.1185
    8CHTO   C43 3215   4.907   8.997   1.249 -1.4980 -0.5259 -0.4474
    8CHTO   H85 3216   4.924   9.059   1.161  1.6755 -0.4643  0.1393
    8CHTO   O29 3217   5.023   8.996   1.338  0.5218  0.1972  0.0018
    8CHTO   C50 3218   5.038   8.886   1.424  0.3078  0.4319 -0.1298
    8CHTO   H92 3219   5.143   8.897   1.456  1.0558 -0.9818 -2.0323
    8CHTO   C54 3220   4.973   8.915   1.564  0.5580 -0.0811  0.4106
    8CHTO   O36 3221   5.063   9.009   1.629  0.5972  0.4446  0.6598
    8CHTO   H72 3222   5.043   9.021   1.719  0.6552 -3.2158  1.2492
    8CHTO   O27 3223   4.808   9.055   1.334  0.4300  0.3182 -0.0299
    8CHTO   C37 3224   4.772   9.195   1.352  0.0664 -0.0796 -0.2489
    8CHTO   H79 3225   4.697   9.195   1.432  0.0824 -0.8013 -0.2343
    8CHTO   C38 3226   4.883   9.291   1.401 -0.3016  0.1217 -0.5729
    8CHTO   H80 3227   4.956   9.302   1.320  1.0421 -1.5289  0.3802
    8CHTO   O31 3228   4.941   9.238   1.523  0.2536  0.4533  0.5202
    8CHTO   H68 3229   5.006   9.299   1.553 -1.2764  0.7351  3.3962
    8CHTO   C39 3230   4.834   9.435   1.426 -0.6051 -0.3708  0.5154
    8CHTO   H81 3231   4.769   9.428   1.514 -2.0589 -2.2372 -0.6629
    8CHTO    N7 3232   4.951   9.529   1.460 -0.8328 -0.1529  0.0195
    8CHTO   H73 3233   4.947   9.623   1.407 -2.2366 -0.6550 -0.8168
    8CHTO   H74 3234   5.048   9.483   1.453  0.6962  3.2186 -1.6280
    8CHTO   C40 3235   4.754   9.483   1.305  0.5764  0.1027  0.5540
    8CHTO   H82 3236   4.823   9.508   1.224  1.4055 -1.3034  0.8081
    8CHTO   O26 3237   4.653   9.384   1.271 -0.1129 -0.0656 -0.6908
    8CHTO   C41 3238   4.703   9.253   1.227  0.5277  0.1669  0.4415
    8CHTO   H83 3239   4.771   9.249   1.140  0.7358 -1.8238  0.6835
    8CHTO   C52 3240   4.580   9.172   1.188 -0.4820  0.2562  0.3696
    8CHTO   O35 3241   4.489   9.236   1.098  0.5556 -0.1837  0.3077
    8CHTO   H71 3242   4.462   9.165   1.043 -1.2581  1.1416 -0.5648
    8CHTO   O28 3243   4.685   9.601   1.342 -0.3693  0.4193  0.7285
    8CHTO   C42 3244   4.619   9.688   1.250  0.1116  0.3254  1.1066
    8CHTO   H84 3245   4.578   9.770   1.309 -0.0908  0.3605  0.9191
    8CHTO   C44 3246   4.494   9.625   1.180  0.0650 -0.7830 -0.2095
    8CHTO   H86 3247   4.522   9.536   1.124 -0.1030 -0.3801 -0.9460
    8CHTO   O32 3248   4.404   9.578   1.277  0.0585 -0.7980  0.3752
    8CHTO   H69 3249   4.439   9.507   1.327  2.1827 -0.3890 -0.4736
    8CHTO   C48 3250   4.433   9.733   1.073 -0.7912 -0.0784 -0.2751
    8CHTO   H90 3251   4.418   9.827   1.125 -0.1252 -0.0117 -0.1920
    8CHTO    N9 3252   4.309   9.666   1.012 -0.5057  0.3703 -0.3832
    8CHTO   H77 3253   4.249   9.619   1.089  0.4961 -0.9121 -0.3688
    8CHTO   H78 3254   4.339   9.593   0.939  0.4416  0.9693 -0.6030
    8CHTO   C51 3255   4.534   9.790   0.965  0.5128  0.5157  0.5488
    8CHTO   H93 3256   4.557   9.701   0.907 -2.9950 -0.9920  1.3500
    8CHTO   O30 3257   4.644   9.846   1.038 -0.1174 -0.2044  0.0063
    8CHTO   C46 3258   4.720   9.758   1.148  0.2920 -0.1234  0.4295
    8CHTO   H88 3259   4.784   9.690   1.091  1.7352  0.4547  1.3159
    8CHTO   C53 3260   4.809   9.860   1.229  0.5898 -0.4104  0.1547
    8CHTO   O72 3261   4.724   9.967   1.291  0.3672  0.0739  0.2740
    8CHTO  H199 3262   4.653   9.979   1.231 -0.5013 -0.8398  1.1078
    8CHTO   O22 3263   4.476   9.896   0.879  0.3304  0.2666 -0.6365
    8CHTO   C31 3264   4.531   9.926   0.747 -0.2600  0.0549  1.0723
    8CHTO   H59 3265   4.468  10.009   0.708 -2.8936 -2.5151 -0.2401
    8CHTO   C29 3266   4.672   9.976   0.739  0.4043 -0.1288  0.4283
    8CHTO   H57 3267   4.731   9.896   0.787 -0.7408 -0.2195  1.6892
    8CHTO   O21 3268   4.679  10.093   0.827 -0.0673  0.0561  0.0184
    8CHTO   H37 3269   4.759  10.140   0.814  0.4860 -1.3877 -2.0133
    8CHTO   C27 3270   4.726  10.000   0.595 -0.1562 -0.1876 -1.0702
    8CHTO   H55 3271   4.670  10.086   0.554  0.4312  1.3203  1.1673
    8CHTO    N5 3272   4.867  10.040   0.604  0.4864  0.2732 -0.4120
    8CHTO   H43 3273   4.887  10.118   0.533  0.5270 -0.1271 -0.8481
    8CHTO   H44 3274   4.943   9.963   0.595  1.9621  1.7842 -1.0937
    8CHTO   C25 3275   4.708   9.863   0.523 -0.9421  0.0453  0.5889
    8CHTO   H53 3276   4.770   9.784   0.568  0.7020  1.1921  0.3699
    8CHTO   O17 3277   4.567   9.831   0.514 -0.2755  0.2203  0.9722
    8CHTO   C32 3278   4.514   9.809   0.651  0.4518  0.0175  0.9509
    8CHTO   H60 3279   4.559   9.718   0.690  0.8269 -0.7174 -1.1136
    8CHTO   C36 3280   4.359   9.784   0.627  0.3641 -0.0522  0.0713
    8CHTO   O25 3281   4.340   9.657   0.554  0.8372 -0.4057 -0.4659
    8CHTO   H40 3282   4.278   9.670   0.486 -0.5665  1.3724  1.1113
    8CHTO   O15 3283   4.766   9.863   0.374  0.5883 -0.0171 -0.3052
    8CHTO   C19 3284   4.816   9.808   0.243  0.4312  0.1400 -0.5263
    8CHTO   H47 3285   4.761   9.714   0.231 -2.2682  1.5757  0.2268
    8CHTO   C20 3286   4.767   9.890   0.113 -0.0144 -0.2325 -0.4090
    8CHTO   H48 3287   4.810   9.992   0.108  0.1985 -0.3565 -1.2489
    8CHTO   O19 3288   4.624   9.896   0.122  0.2266  0.5805 -0.4135
    8CHTO   H35 3289   4.582   9.813   0.110  0.1360  0.0151  3.1221
    8CHTO   C21 3290   4.805   9.822  -0.020 -0.9127 -0.2024  0.2022
    8CHTO   H49 3291   4.758   9.724  -0.031 -1.2313  0.1050 -1.2661
    8CHTO    N4 3292   4.777   9.907  -0.141  0.1574  0.3169 -0.6102
    8CHTO   H41 3293   4.673   9.937  -0.146  0.0513  0.0360 -0.1645
    8CHTO   H42 3294   4.842   9.993  -0.146 -1.2591  1.3728 -0.9830
    8CHTO   C22 3295   4.953   9.782  -0.013 -0.2533 -0.2845 -0.0663
    8CHTO   H50 3296   5.012   9.874  -0.012 -2.3086  1.1528 -2.4229
    8CHTO   O14 3297   4.988   9.711   0.104 -0.2019  0.4857 -0.0076
    8CHTO   C23 3298   4.973   9.778   0.229  0.1285  0.4175  0.0182
    8CHTO   H51 3299   5.036   9.868   0.229  1.4497 -0.4481  1.6253
    8CHTO   C34 3300   5.015   9.674   0.331  0.7912 -0.2634  0.1898
    8CHTO   O23 3301   5.046   9.733   0.456 -0.8110  0.5717  1.1429
    8CHTO   H38 3302   5.012   9.673   0.520 -3.3344  0.6978 -0.0423
    8CHTO   O16 3303   4.986   9.688  -0.127 -0.5638  0.1129 -0.1011
    8CHTO   C24 3304   5.131   9.649  -0.137 -0.9355  0.0243  0.4519
    8CHTO   H52 3305   5.180   9.656  -0.040 -1.2283 -1.9994  0.7653
    8CHTO   C26 3306   5.192   9.748  -0.240  0.3129  0.4414  0.0047
    8CHTO   H54 3307   5.126   9.753  -0.329  1.9958  2.9844 -1.1239
    8CHTO   O20 3308   5.199   9.877  -0.174  0.2524  0.4624 -0.4653
    8CHTO   H36 3309   5.205   9.946  -0.237  1.2101  1.6052  0.8654
    8CHTO   C30 3310   5.324   9.693  -0.284  0.4242 -0.8435  0.2689
    8CHTO   H58 3311   5.399   9.689  -0.204 -0.7656 -0.3180  1.4183
    8CHTO    N6 3312   5.383   9.790  -0.384 -0.3376 -0.4347  0.2155
    8CHTO   H45 3313   5.487   9.813  -0.365 -0.0659  0.2526 -1.9137
    8CHTO   H46 3314   5.328   9.881  -0.401 -0.1309 -0.1433  1.0760
    8CHTO   C33 3315   5.316   9.553  -0.351  0.2832  0.3714 -0.6369
    8CHTO   H61 3316   5.243   9.558  -0.433  1.7507  0.1926 -1.9611
    8CHTO   O18 3317   5.272   9.465  -0.244  0.3875 -0.1849 -0.2223
    8CHTO   C28 3318   5.144   9.501  -0.185 -0.0115 -0.3862  0.6829
    8CHTO   H56 3319   5.065   9.477  -0.256  1.7690 -0.6820 -1.2427
    8CHTO   C35 3320   5.105   9.404  -0.068 -0.0211  0.0469  0.2624
    8CHTO   O24 3321   5.212   9.390   0.033  0.2145  0.5749  0.4464
    8CHTO   H39 3322   5.213   9.452   0.103  1.8425  1.7871 -0.5999
    8CHTO    O9 3323   5.442   9.509  -0.406  1.1339 -0.5086 -0.1707
    8CHTO   C13 3324   5.420   9.399  -0.516  0.6939  0.1982 -0.5747
    8CHTO   H26 3325   5.330   9.429  -0.575  1.0353 -1.2654 -1.8629
    8CHTO   C11 3326   5.395   9.257  -0.439 -0.5542 -0.8829 -0.4674
    8CHTO   H24 3327   5.289   9.248  -0.412  0.0492  0.0602  2.3810
    8CHTO    O8 3328   5.462   9.251  -0.314 -0.9796 -0.5941  0.2314
    8CHTO    H3 3329   5.419   9.210  -0.241 -0.2059 -0.8154  0.5627
    8CHTO    C9 3330   5.433   9.136  -0.528 -0.4086 -0.6482 -0.4070
    8CHTO   H22 3331   5.381   9.159  -0.622  0.8676  3.6402 -0.1611
    8CHTO    N2 3332   5.388   9.005  -0.473  0.8289 -0.6360 -0.1048
    8CHTO   H10 3333   5.360   9.010  -0.369  0.0077 -0.2017 -0.3450
    8CHTO   H11 3334   5.461   8.925  -0.482  1.8910  0.3799 -0.6142
    8CHTO    C7 3335   5.591   9.148  -0.560 -0.2028 -0.3717 -0.1425
    8CHTO   H20 3336   5.599   9.090  -0.654  2.2499  0.3146 -0.3964
    8CHTO    O4 3337   5.640   9.285  -0.549 -0.1525  0.0625 -0.2232
    8CHTO   C14 3338   5.552   9.382  -0.610  0.0522  0.0323  0.2591
    8CHTO   H27 3339   5.517   9.351  -0.710  0.4531 -0.1392  0.1735
    8CHTO   C18 3340   5.627   9.512  -0.633 -0.3270  0.1364  0.5006
    8CHTO   O13 3341   5.523   9.598  -0.672 -0.0583 -0.3062  0.5848
    8CHTO    H7 3342   5.553   9.655  -0.740  0.2224 -1.5434 -0.3630
    8CHTO    O2 3343   5.684   9.061  -0.461 -0.4494  0.3889 -0.5672
    8CHTO    C1 3344   5.825   9.082  -0.476 -0.0908 -0.1839 -0.2275
    8CHTO   H14 3345   5.864   9.184  -0.457  2.5493 -1.2780  0.4323
    8CHTO    C2 3346   5.891   9.018  -0.606  0.4748 -0.0903 -0.5071
    8CHTO   H15 3347   5.861   8.914  -0.590  2.3027 -0.4741  0.5823
    8CHTO    O6 3348   5.834   9.086  -0.727  0.1616  0.1021  0.1561
    8CHTO    H1 3349   5.744   9.060  -0.730  0.6185 -1.6798  1.4113
    8CHTO    C3 3350   6.048   9.031  -0.594 -0.1573 -0.2169  0.5371
    8CHTO   H16 3351   6.054   9.138  -0.571 -0.8140 -0.1856  0.5678
    8CHTO    N1 3352   6.128   8.988  -0.711 -0.4204  0.3785 -0.1197
    8CHTO    H8 3353   6.213   8.938  -0.666 -0.7366  0.9438  1.1326
    8CHTO    H9 3354   6.161   9.074  -0.768 -1.2187 -0.2138 -1.5108
    8CHTO    C4 3355   6.097   8.959  -0.461 -0.3294  0.1342 -0.2461
    8CHTO   H17 3356   6.076   8.853  -0.468 -1.8703  0.4305 -0.3596
    8CHTO    O1 3357   6.031   9.022  -0.351  0.2274 -0.3067  0.0822
    8CHTO    C5 3358   5.884   9.012  -0.351 -0.2739  0.5278  0.1104
    8CHTO   H18 3359   5.860   8.906  -0.358  0.9172  0.2112  0.7022
    8CHTO   C16 3360   5.823   9.074  -0.214 -0.2264 -0.1759 -0.3278
    8CHTO   O11 3361   5.862   9.008  -0.093  0.0742  0.0384  0.3868
    8CHTO    H5 3362   5.827   9.058  -0.022  0.0458  0.0221  0.3838
    8CHTO    O3 3363   6.239   8.985  -0.430 -0.1217 -0.5476 -0.5311
    8CHTO    C6 3364   6.299   8.881  -0.353  0.2326  0.1568  0.1883
    8CHTO   H19 3365   6.225   8.817  -0.304  2.3033 -1.1101  1.7319
    8CHTO    C8 3366   6.396   8.797  -0.435  0.3086 -0.3638  0.3791
    8CHTO   H21 3367   6.454   8.870  -0.491 -0.6606  0.6933  0.7475
    8CHTO    O7 3368   6.319   8.729  -0.531 -0.2815  0.1529  0.6913
    8CHTO    H2 3369   6.372   8.697  -0.602 -0.9032 -1.1674  0.8013
    8CHTO   C12 3370   6.485   8.695  -0.349 -0.4559  0.4685  0.0109
    8CHTO   H25 3371   6.417   8.611  -0.325  0.1933  0.1831  0.8455
    8CHTO    N3 3372   6.591   8.627  -0.435  0.3066  0.5704 -0.1921
    8CHTO   H12 3373   6.647   8.563  -0.368 -3.5850 -3.0670 -0.2151
    8CHTO   H13 3374   6.550   8.570  -0.517 -0.2695  2.2015 -1.0543
    8CHTO   C15 3375   6.540   8.770  -0.219  0.8377 -0.0186 -0.0805
    8CHTO   H28 3376   6.624   8.838  -0.233  0.0184  0.8897 -0.6257
    8CHTO   O10 3377   6.589   8.673  -0.109 -0.6886 -0.2430 -0.0195
    8CHTO    H4 3378   6.556   8.588  -0.130 -0.2351  0.0742 -2.0950
    8CHTO    O5 3379   6.435   8.845  -0.155 -0.1708 -0.3710 -1.1072
    8CHTO   C10 3380   6.378   8.956  -0.233  0.5054  0.0328 -0.4460
    8CHTO   H23 3381   6.459   9.018  -0.269  0.7909 -0.0078  0.1284
    8CHTO   C17 3382   6.288   9.026  -0.134 -0.5312  0.5029 -0.7464
    8CHTO   O12 3383   6.355   9.116  -0.048  0.4344  0.1148 -0.2205
    8CHTO    H6 3384   6.290   9.150   0.010 -0.4573 -2.3899  0.2968
    9CHTO  H203 3385   8.014   3.864   0.740 -0.6351  1.2269 -0.5980
    9CHTO   O82 3386   8.080   3.923   0.770  0.3539 -0.1316 -0.0076
    9CHTO  C123 3387   8.191   3.919   0.674 -0.0295  0.2560 -0.2300
    9CHTO  H227 3388   8.272   3.979   0.718 -0.0574 -0.5301  0.9054
    9CHTO   O77 3389   8.238   3.778   0.682  0.4026 -0.3748  0.1586
    9CHTO  C118 3390   8.358   3.756   0.601 -0.3289  0.8258  0.0629
    9CHTO  H222 3391   8.439   3.822   0.635 -0.4647  0.6901  0.6658
    9CHTO  C125 3392   8.399   3.608   0.635  1.2977 -0.1235 -0.3524
    9CHTO   O84 3393   8.453   3.620   0.769  0.1149 -0.0556 -0.5795
    9CHTO  H205 3394   8.533   3.572   0.771  0.9383  1.3495  1.1701
    9CHTO  C114 3395   8.325   3.780   0.452 -0.3182  0.1906 -0.3543
    9CHTO  H218 3396   8.244   3.714   0.420  0.4907 -1.5176  0.9894
    9CHTO  C116 3397   8.270   3.927   0.424 -0.6376  0.0310 -0.0488
    9CHTO  H220 3398   8.358   3.994   0.437 -0.5756 -0.1683  0.5671
    9CHTO   O79 3399   8.204   3.942   0.294 -0.2357  0.1891 -0.4303
    9CHTO  H201 3400   8.256   3.903   0.227  1.7033  0.7903  0.6842
    9CHTO  C120 3401   8.158   3.965   0.532  0.8909  0.1789  0.2049
    9CHTO  H224 3402   8.061   3.920   0.502  0.0108  1.9612  0.3704
    9CHTO   N21 3403   8.126   4.114   0.530 -0.2126  0.6183  0.0731
    9CHTO  H211 3404   8.066   4.140   0.445  0.6208  1.6990 -0.1928
    9CHTO  H212 3405   8.219   4.169   0.531  0.3015 -0.2357 -0.3776
    9CHTO   O75 3406   8.462   3.769   0.402 -0.0284 -0.3806 -0.2973
    9CHTO  C112 3407   8.477   3.687   0.256 -0.0782 -0.2862 -0.0720
    9CHTO  H216 3408   8.384   3.686   0.198 -0.3946  1.9061  0.3697
    9CHTO   O73 3409   8.520   3.554   0.291  0.2071 -0.7914 -0.3690
    9CHTO  C113 3410   8.535   3.472   0.173 -0.5031  0.3468 -0.3176
    9CHTO  H217 3411   8.434   3.472   0.128 -0.4193  0.4929 -0.5078
    9CHTO  C124 3412   8.571   3.335   0.231 -0.6926 -0.1501 -0.1082
    9CHTO   O83 3413   8.524   3.235   0.138 -0.2879  0.0372  0.4242
    9CHTO  H204 3414   8.533   3.152   0.182 -1.0421 -0.5674 -0.5604
    9CHTO  C109 3415   8.640   3.527   0.079  0.5679  0.3511  0.3644
    9CHTO  H213 3416   8.739   3.512   0.126  0.8606 -0.6716 -0.5476
    9CHTO  C110 3417   8.618   3.680   0.041 -0.7684 -0.8515 -0.4503
    9CHTO  H214 3418   8.532   3.685  -0.026 -0.1260  1.8315 -1.1371
    9CHTO   O78 3419   8.722   3.739  -0.036  0.0206  0.5030 -0.0852
    9CHTO  H200 3420   8.707   3.727  -0.127  0.2031  0.3276 -0.0916
    9CHTO  C111 3421   8.584   3.758   0.173  0.2717  0.6893 -0.4495
    9CHTO  H215 3422   8.673   3.772   0.236  0.1053  1.3885 -0.3688
    9CHTO   N19 3423   8.537   3.892   0.145 -1.0522 -0.1254  0.0019
    9CHTO  H207 3424   8.615   3.967   0.142 -0.2509 -0.8925  1.4109
    9CHTO  H208 3425   8.481   3.899   0.053  2.3694 -1.6232 -2.3331
    9CHTO   O74 3426   8.641   3.443  -0.038 -0.3455  0.0921  0.2565
    9CHTO  C115 3427   8.789   3.398  -0.093  0.4053  0.4099  0.5120
    9CHTO  H219 3428   8.868   3.428  -0.025  2.7852  2.2694 -2.9200
    9CHTO   O76 3429   8.800   3.242  -0.101  0.3197  0.1338  0.0959
    9CHTO  C122 3430   8.719   3.177  -0.198  0.1111  0.2605  0.3362
    9CHTO  H226 3431   8.618   3.195  -0.162  0.1314 -0.5249  0.7971
    9CHTO  C126 3432   8.746   3.016  -0.190 -0.6282 -0.0798  0.3533
    9CHTO   O85 3433   8.645   2.936  -0.253  0.0368  0.2527  0.4678
    9CHTO  H206 3434   8.693   2.878  -0.309 -0.5234  0.9920 -0.8175
    9CHTO  C121 3435   8.739   3.231  -0.349 -0.2564  0.2337  0.1739
    9CHTO  H225 3436   8.844   3.209  -0.378 -0.2186  0.7069 -0.0538
    9CHTO   O81 3437   8.653   3.162  -0.436 -0.2609  0.1031  1.1130
    9CHTO  H202 3438   8.697   3.087  -0.471 -1.3923  0.0718 -0.2712
    9CHTO  C119 3439   8.723   3.388  -0.337  0.5165  0.1043  0.3502
    9CHTO  H223 3440   8.742   3.426  -0.437 -0.6114  3.4358  1.3350
    9CHTO  C117 3441   8.816   3.462  -0.234  0.8828 -0.4344 -0.6054
    9CHTO  H221 3442   8.791   3.568  -0.234 -1.4586 -0.9601 -0.4660
    9CHTO   N20 3443   8.956   3.459  -0.272 -0.4645 -0.1886 -0.3123
    9CHTO  H209 3444   8.984   3.506  -0.365 -0.9016  3.0997  1.1728
    9CHTO  H210 3445   9.001   3.361  -0.260  0.7948  0.5914  1.5373
    9CHTO   O80 3446   8.573   3.435  -0.324 -0.0926 -0.0955 -0.5957
    9CHTO  C103 3447   8.516   3.570  -0.404  0.0740  0.3202  0.1573
    9CHTO  H190 3448   8.441   3.624  -0.346 -1.2465 -0.5594 -0.6906
    9CHTO  C101 3449   8.615   3.682  -0.445 -0.2106  0.0312  0.4554
    9CHTO  H188 3450   8.705   3.628  -0.475 -0.0132  0.8877 -0.5143
    9CHTO   O68 3451   8.654   3.771  -0.321  0.0906 -0.0911 -0.4702
    9CHTO  H168 3452   8.740   3.806  -0.319 -0.1440  0.4288  1.4776
    9CHTO   C99 3453   8.569   3.767  -0.572  0.9427  0.1950  0.3833
    9CHTO  H186 3454   8.488   3.837  -0.541  0.0052 -1.5076  1.9131
    9CHTO   N17 3455   8.684   3.855  -0.621 -0.2723  0.0975 -0.3990
    9CHTO  H174 3456   8.670   3.949  -0.569  1.2978 -0.1303  0.4585
    9CHTO  H175 3457   8.787   3.823  -0.613  0.4454  2.1543 -1.0085
    9CHTO   C97 3458   8.503   3.682  -0.678  0.9359  0.5123 -0.6114
    9CHTO  H184 3459   8.581   3.621  -0.726  0.5679  0.3762 -1.0320
    9CHTO   O64 3460   8.394   3.600  -0.622 -0.0930 -0.1731  0.1269
    9CHTO  C104 3461   8.433   3.503  -0.523 -0.2935  0.1488 -0.2701
    9CHTO  H191 3462   8.492   3.429  -0.578 -0.7104  0.5752 -1.3044
    9CHTO  C108 3463   8.310   3.423  -0.468 -0.1743 -0.0777  0.4243
    9CHTO   O71 3464   8.237   3.353  -0.569  0.4459 -0.0468  0.2735
    9CHTO  H171 3465   8.160   3.318  -0.529  2.3568 -2.1461  2.2486
    9CHTO   O62 3466   8.438   3.765  -0.776  0.7302 -0.3306  0.2424
    9CHTO   C91 3467   8.402   3.715  -0.901  0.5166 -0.3414 -0.1723
    9CHTO  H178 3468   8.455   3.622  -0.919 -0.7465 -0.9310 -0.8709
    9CHTO   C92 3469   8.439   3.823  -1.009  0.1446 -0.3115  0.2154
    9CHTO  H179 3470   8.546   3.840  -0.990  0.0614  1.5803 -0.8398
    9CHTO   O66 3471   8.421   3.760  -1.140  0.5348 -0.2059  0.0092
    9CHTO  H166 3472   8.464   3.808  -1.207  2.0305  1.1854  1.9116
    9CHTO   C93 3473   8.345   3.947  -1.006 -0.1830 -0.4245 -0.1364
    9CHTO  H180 3474   8.347   3.987  -1.109  1.7766  0.8432  0.3645
    9CHTO   N16 3475   8.392   4.061  -0.921 -0.4075  0.0572  0.1173
    9CHTO  H172 3476   8.338   4.151  -0.946  1.6282  1.2427 -0.1805
    9CHTO  H173 3477   8.376   4.044  -0.816 -2.3302 -2.0884 -0.4885
    9CHTO   C94 3478   8.193   3.898  -0.976  0.4522 -0.2801  0.4077
    9CHTO  H181 3479   8.167   3.897  -0.870 -0.2744  0.1613  0.2404
    9CHTO   O61 3480   8.163   3.757  -1.006  0.0503 -0.3027 -0.2853
    9CHTO   C95 3481   8.246   3.668  -0.924  0.4200  0.8340  0.0571
    9CHTO  H182 3482   8.196   3.667  -0.827 -1.3387  5.2844 -0.6467
    9CHTO  C106 3483   8.260   3.520  -0.987  0.1171  0.1705 -0.4535
    9CHTO   O69 3484   8.314   3.424  -0.897 -0.0099 -0.1776  0.7422
    9CHTO  H169 3485   8.269   3.342  -0.903  0.9939 -0.7890  1.3634
    9CHTO   O63 3486   8.089   4.010  -1.058 -0.3711 -0.7682 -0.1977
    9CHTO   C96 3487   7.943   4.009  -1.005 -0.4527 -0.1660 -0.4108
    9CHTO  H183 3488   7.946   3.982  -0.899  0.9091 -0.9321 -0.6290
    9CHTO   C98 3489   7.846   3.919  -1.086 -0.4600  0.3813 -0.0203
    9CHTO  H185 3490   7.863   3.933  -1.194  0.8495  0.9499  0.2556
    9CHTO   O67 3491   7.884   3.780  -1.065 -0.2427 -0.1839  0.0811
    9CHTO  H167 3492   7.917   3.745  -1.145  0.0316  0.9128 -0.3015
    9CHTO  C102 3493   7.688   3.944  -1.044  0.4438 -0.1342  0.4085
    9CHTO  H189 3494   7.677   3.907  -0.941  1.2474  2.4184  1.4642
    9CHTO   N18 3495   7.600   3.862  -1.134  0.4927 -0.1680  0.5833
    9CHTO  H176 3496   7.504   3.841  -1.089  0.1108  0.4949  0.0962
    9CHTO  H177 3497   7.596   3.922  -1.224 -1.1447  1.1033  1.4915
    9CHTO  C105 3498   7.655   4.098  -1.035 -0.2193  0.3431  0.1824
    9CHTO  H192 3499   7.646   4.132  -1.138  1.2878 -1.1119 -0.4527
    9CHTO   O65 3500   7.765   4.173  -0.971  0.0898  0.1192 -0.4458
    9CHTO  C100 3501   7.900   4.157  -1.019  0.6774 -0.8595 -0.3399
    9CHTO  H187 3502   7.900   4.179  -1.127 -0.9690 -0.3142 -0.2445
    9CHTO  C107 3503   7.991   4.258  -0.938 -0.1452 -0.1447  0.1513
    9CHTO   O70 3504   7.978   4.391  -0.984  0.0615  0.0008  0.1407
    9CHTO  H170 3505   8.031   4.457  -0.945  1.9411 -0.6872 -1.1353
    9CHTO   O57 3506   7.523   4.128  -0.932  0.4495  0.2370  0.0527
    9CHTO   C85 3507   7.455   4.254  -0.941 -0.1590  0.8292 -0.1315
    9CHTO  H157 3508   7.451   4.260  -1.052  0.7896 -0.3121 -0.2290
    9CHTO   C83 3509   7.537   4.378  -0.894  0.1282 -0.3905 -0.3018
    9CHTO  H155 3510   7.625   4.389  -0.958  0.9623  0.9232  1.0452
    9CHTO   O56 3511   7.583   4.362  -0.755 -0.3242 -0.1995 -0.4645
    9CHTO  H135 3512   7.619   4.444  -0.729  0.6167  0.0437 -2.4502
    9CHTO   C81 3513   7.453   4.506  -0.914  0.3168  0.3080  0.1646
    9CHTO  H153 3514   7.426   4.506  -1.020  0.1311  0.4526  0.2129
    9CHTO   N14 3515   7.538   4.633  -0.884 -0.0735  0.4037  0.3179
    9CHTO  H141 3516   7.464   4.710  -0.880 -0.9002 -0.4488  2.4610
    9CHTO  H142 3517   7.583   4.624  -0.787  0.4475  1.4847  0.1759
    9CHTO   C79 3518   7.315   4.504  -0.836  0.2562  0.4050 -0.0475
    9CHTO  H151 3519   7.264   4.598  -0.858 -0.6221  0.0982  0.6000
    9CHTO   O52 3520   7.241   4.387  -0.890 -0.1777 -0.0242 -0.6883
    9CHTO   C86 3521   7.311   4.257  -0.879  0.1970 -0.0112  0.4279
    9CHTO  H158 3522   7.307   4.229  -0.771  1.7529  1.5887  0.9290
    9CHTO   C90 3523   7.230   4.155  -0.956  0.3113  0.2523 -0.1270
    9CHTO   O60 3524   7.093   4.135  -0.903 -0.7462 -0.3917 -0.1653
    9CHTO  H138 3525   7.061   4.217  -0.871  1.5168 -0.2281  1.8025
    9CHTO   O50 3526   7.324   4.498  -0.690 -1.2870  0.5148  0.2763
    9CHTO   C73 3527   7.250   4.535  -0.573 -0.6906  0.6169 -0.4789
    9CHTO  H145 3528   7.142   4.526  -0.591 -0.5780 -0.0665 -0.8183
    9CHTO   C74 3529   7.267   4.687  -0.534  0.7875  0.1791  0.2360
    9CHTO  H146 3530   7.233   4.738  -0.626  1.4698 -1.0857 -0.7317
    9CHTO   O54 3531   7.163   4.712  -0.435  0.2413 -0.2091  0.0255
    9CHTO  H133 3532   7.161   4.803  -0.411  0.6211 -0.0157 -0.6546
    9CHTO   C75 3533   7.415   4.710  -0.502 -0.3669  0.3079 -0.6126
    9CHTO  H147 3534   7.472   4.697  -0.595 -0.7737 -0.7614 -0.7123
    9CHTO   N13 3535   7.437   4.850  -0.447 -0.6361 -0.4210  0.0984
    9CHTO  H139 3536   7.505   4.855  -0.364 -0.3829 -0.5231 -0.1006
    9CHTO  H140 3537   7.470   4.908  -0.532  0.0314  0.3022  0.8458
    9CHTO   C76 3538   7.476   4.598  -0.400  0.0159  0.1560 -0.3578
    9CHTO  H148 3539   7.438   4.620  -0.301 -0.2211  0.4998 -0.5234
    9CHTO   O49 3540   7.435   4.463  -0.444 -0.6214 -0.3647 -0.5687
    9CHTO   C77 3541   7.295   4.446  -0.456 -0.4448 -0.4405 -0.1657
    9CHTO  H149 3542   7.237   4.480  -0.370 -0.8526  0.4632 -0.7846
    9CHTO   C88 3543   7.268   4.297  -0.483  0.3398 -0.2771  0.1657
    9CHTO   O58 3544   7.126   4.275  -0.482 -0.5031 -0.2959  0.7109
    9CHTO  H136 3545   7.103   4.243  -0.397 -1.0563 -0.6201  0.4426
    9CHTO   O51 3546   7.645   4.597  -0.410  0.5831  0.0984 -0.8050
    9CHTO   C78 3547   7.694   4.525  -0.311  0.5897 -0.5101 -0.4192
    9CHTO  H150 3548   7.620   4.447  -0.282  1.0829 -1.0719 -0.6658
    9CHTO   C80 3549   7.734   4.609  -0.182  0.5039  0.0327 -0.5086
    9CHTO  H152 3550   7.793   4.696  -0.218  1.3214 -0.3011  0.0223
    9CHTO   O55 3551   7.609   4.655  -0.120  0.0887 -0.4019 -0.7009
    9CHTO  H134 3552   7.587   4.745  -0.136  1.8268  0.1764  0.0724
    9CHTO   C84 3553   7.812   4.518  -0.082 -0.1108  0.3127  0.3579
    9CHTO  H156 3554   7.744   4.440  -0.048  0.5650 -0.2524  0.4138
    9CHTO   N15 3555   7.854   4.610   0.036  0.3842  1.0744 -0.1723
    9CHTO  H143 3556   7.776   4.681   0.054  0.5552  1.2089  0.0375
    9CHTO  H144 3557   7.872   4.553   0.124 -1.0044  3.8903  2.0061
    9CHTO   C87 3558   7.932   4.459  -0.160 -0.7410  0.0156 -0.6716
    9CHTO  H159 3559   7.986   4.539  -0.210  0.2635 -0.6065 -0.5783
    9CHTO   O53 3560   7.874   4.368  -0.261  0.1588 -0.3928  0.1008
    9CHTO   C82 3561   7.815   4.444  -0.368  0.2464 -0.8689 -0.0213
    9CHTO  H154 3562   7.891   4.510  -0.410 -0.0049 -1.1833 -0.9702
    9CHTO   C89 3563   7.776   4.348  -0.478  0.2490 -0.4103 -0.2366
    9CHTO   O59 3564   7.877   4.268  -0.529 -0.2641 -0.9889  0.1650
    9CHTO  H137 3565   7.847   4.232  -0.611 -1.1510 -0.2098  0.1412
    9CHTO   O45 3566   8.043   4.389  -0.046 -0.2147  0.0544 -0.1424
    9CHTO   C67 3567   8.141   4.296  -0.090  0.1696  0.3500  0.1133
    9CHTO  H124 3568   8.097   4.197  -0.101  1.5923 -0.4624  1.5905
    9CHTO   C65 3569   8.206   4.342  -0.228  0.3361  0.8475 -0.4539
    9CHTO  H122 3570   8.189   4.450  -0.231 -0.6314  0.7222  0.2777
    9CHTO   O44 3571   8.127   4.280  -0.327  0.5661  0.1714 -0.0911
    9CHTO  H102 3572   8.151   4.191  -0.346  0.3239 -0.4516  2.3308
    9CHTO   C63 3573   8.361   4.319  -0.239  0.0745 -0.0695 -0.6828
    9CHTO  H120 3574   8.411   4.403  -0.190  1.3643 -0.4404 -1.3644
    9CHTO   N11 3575   8.418   4.340  -0.376 -0.1832  0.4351 -0.3876
    9CHTO  H108 3576   8.494   4.265  -0.384  1.1355  1.4453  2.0631
    9CHTO  H109 3577   8.357   4.347  -0.464  1.5364 -0.1258 -1.6626
    9CHTO   C61 3578   8.402   4.186  -0.163 -0.5689 -0.4396  0.0732
    9CHTO  H118 3579   8.512   4.188  -0.158 -0.5889  2.9067  0.4162
    9CHTO   O40 3580   8.354   4.185  -0.031 -0.6469  0.4351  0.6664
    9CHTO   C68 3581   8.255   4.284   0.013  0.2481 -0.9878  0.0989
    9CHTO  H125 3582   8.315   4.378   0.022 -0.1770 -0.6213 -0.8354
    9CHTO   C72 3583   8.216   4.242   0.158 -0.0605 -0.8767 -0.5059
    9CHTO   O48 3584   8.126   4.338   0.217 -0.5078  0.1695  0.3453
    9CHTO  H105 3585   8.175   4.388   0.280 -0.7093  1.7799 -0.7490
    9CHTO   O38 3586   8.372   4.059  -0.232  0.1014  0.5141 -0.2163
    9CHTO   C55 3587   8.246   3.986  -0.248  0.3136  0.8614  0.3081
    9CHTO  H112 3588   8.168   4.062  -0.236 -0.6358 -0.0088 -0.2839
    9CHTO   C56 3589   8.238   3.876  -0.139  0.1441  0.4165  0.0653
    9CHTO  H113 3590   8.331   3.817  -0.137 -1.9203 -2.8972  1.4974
    9CHTO   O42 3591   8.229   3.934  -0.009 -0.3309 -0.0684  0.0692
    9CHTO  H100 3592   8.308   3.978   0.016 -0.3653  0.8618 -1.4189
    9CHTO   C57 3593   8.114   3.777  -0.158  0.6509  0.0033 -0.3737
    9CHTO  H114 3594   8.029   3.820  -0.105  0.5546 -2.3762  1.4941
    9CHTO   N10 3595   8.117   3.647  -0.085 -0.4849  0.7707 -0.3711
    9CHTO  H106 3596   8.167   3.578  -0.150 -1.4692  0.0346 -0.3610
    9CHTO  H107 3597   8.172   3.666   0.006 -1.8173  0.5229  0.4913
    9CHTO   C58 3598   8.077   3.757  -0.313  0.4884  0.2953 -0.3833
    9CHTO  H115 3599   8.142   3.678  -0.356 -1.1709 -2.0945  1.3444
    9CHTO   O37 3600   8.097   3.878  -0.390  0.4335  0.2151  0.2853
    9CHTO   C59 3601   8.238   3.916  -0.383  0.3047 -0.1387 -0.5737
    9CHTO  H116 3602   8.298   3.826  -0.393 -1.6200 -1.6305  0.7014
    9CHTO   C70 3603   8.273   4.016  -0.499  0.4369  0.5259  0.6099
    9CHTO   O46 3604   8.220   3.965  -0.622  0.4194 -0.0916  0.2460
    9CHTO  H103 3605   8.265   4.007  -0.693 -1.8508  2.3075  0.1370
    9CHTO   O39 3606   7.908   3.719  -0.332  0.4323 -0.0458 -0.3261
    9CHTO   C60 3607   7.887   3.586  -0.386  0.0027 -0.3973 -0.4079
    9CHTO  H117 3608   7.979   3.527  -0.387  1.1302  1.3360 -0.8283
    9CHTO   C62 3609   7.788   3.504  -0.293  0.1675 -0.0390  0.4320
    9CHTO  H119 3610   7.832   3.493  -0.192  1.5949  0.6860 -0.0928
    9CHTO   O43 3611   7.670   3.577  -0.262 -0.3155 -0.0080 -0.1628
    9CHTO  H101 3612   7.691   3.656  -0.215  1.8753 -0.8519  0.2904
    9CHTO   C66 3613   7.774   3.358  -0.354  0.2591  0.5974  0.0780
    9CHTO  H123 3614   7.871   3.310  -0.364 -0.9423 -2.1796  1.2224
    9CHTO   N12 3615   7.698   3.270  -0.258 -0.2777 -0.2176 -0.0900
    9CHTO  H110 3616   7.755   3.178  -0.254  0.4706  0.2964  1.4268
    9CHTO  H111 3617   7.678   3.308  -0.158 -1.0322 -0.3333 -0.1942
    9CHTO   C69 3618   7.716   3.352  -0.499 -0.6098 -0.3875  0.2847
    9CHTO  H126 3619   7.615   3.398  -0.493 -0.3155  0.3108 -0.0945
    9CHTO   O41 3620   7.819   3.453  -0.585  0.2003 -0.1901 -0.3435
    9CHTO   C64 3621   7.841   3.594  -0.532  0.0987 -0.3874  0.0330
    9CHTO  H121 3622   7.750   3.657  -0.547  0.0372 -0.0685  1.6635
    9CHTO   C71 3623   7.946   3.657  -0.620 -0.3981 -0.3085 -0.5852
    9CHTO   O47 3624   8.066   3.577  -0.641 -0.1528 -0.0023  0.0815
    9CHTO  H104 3625   8.129   3.589  -0.573  0.6874  0.7278 -0.8095
    9CHTO   O34 3626   7.724   3.203  -0.559  0.1269 -0.4473 -0.0500
    9CHTO   C49 3627   7.801   3.148  -0.663  0.3139  0.5383 -0.3930
    9CHTO   H91 3628   7.774   3.206  -0.751 -1.5962 -0.6340 -0.6057
    9CHTO   C47 3629   7.763   2.999  -0.668 -0.2706 -0.1250 -0.6387
    9CHTO   H89 3630   7.819   2.969  -0.758  1.0589 -1.5774  0.6507
    9CHTO   O33 3631   7.625   2.982  -0.695  1.1630 -0.5713  0.1791
    9CHTO   H70 3632   7.594   2.896  -0.717 -0.3024  0.4417 -1.8646
    9CHTO   C45 3633   7.809   2.919  -0.537  0.3071  0.5229 -0.3883
    9CHTO   H87 3634   7.723   2.906  -0.470 -0.4215 -1.9119 -1.7057
    9CHTO    N8 3635   7.852   2.782  -0.578  1.1103  1.0912  0.0911
    9CHTO   H75 3636   7.839   2.707  -0.501 -0.3453  1.7827  0.5464
    9CHTO   H76 3637   7.789   2.743  -0.656  0.7146  3.3634 -0.7622
    9CHTO   C43 3638   7.921   2.993  -0.455 -0.4557 -0.2580 -0.5458
    9CHTO   H85 3639   7.868   3.067  -0.396  1.4771  3.5483 -3.3581
    9CHTO   O29 3640   8.009   3.059  -0.550  0.2259  0.4194 -0.0408
    9CHTO   C50 3641   7.954   3.161  -0.636  0.7470  0.0260 -0.3956
    9CHTO   H92 3642   7.969   3.262  -0.594  0.0419 -0.2225  0.4715
    9CHTO   C54 3643   8.038   3.159  -0.770  0.1834 -0.0195  0.3666
    9CHTO   O36 3644   8.009   3.269  -0.859 -0.5824 -0.6207 -0.4595
    9CHTO   H72 3645   7.918   3.264  -0.882 -0.3455  0.2510 -1.5946
    9CHTO   O27 3646   7.998   2.914  -0.367 -0.2199 -0.1136 -0.0871
    9CHTO   C37 3647   8.067   2.940  -0.249 -0.3069 -0.2050  0.6951
    9CHTO   H79 3648   8.127   2.852  -0.221 -0.6264 -0.7293 -0.2460
    9CHTO   C38 3649   8.170   3.060  -0.263 -0.1143  0.3917 -0.8870
    9CHTO   H80 3650   8.123   3.140  -0.324 -2.5307 -1.1203 -1.0773
    9CHTO   O31 3651   8.285   3.015  -0.340 -0.3919  0.6371 -0.6293
    9CHTO   H68 3652   8.338   2.947  -0.304 -0.8448  0.8019  0.3702
    9CHTO   C39 3653   8.211   3.120  -0.129 -0.1014 -0.0149 -0.0856
    9CHTO   H81 3654   8.282   3.050  -0.086  2.4038  1.4773 -1.7113
    9CHTO    N7 3655   8.283   3.253  -0.142  0.8900  0.1976 -0.3662
    9CHTO   H73 3656   8.305   3.297  -0.046  0.1572 -1.3711  0.5408
    9CHTO   H74 3657   8.221   3.321  -0.198 -0.1047  0.7511  1.3695
    9CHTO   C40 3658   8.090   3.134  -0.034  0.3515 -0.5394  0.4979
    9CHTO   H82 3659   8.019   3.208  -0.071  0.0508 -0.8282  0.4956
    9CHTO   O26 3660   8.028   3.006  -0.020 -0.0777  0.0173 -0.0385
    9CHTO   C41 3661   7.969   2.957  -0.135 -0.1757 -0.0995 -1.0940
    9CHTO   H83 3662   7.887   3.025  -0.164  0.4386  0.9899 -0.3307
    9CHTO   C52 3663   7.903   2.831  -0.089 -0.4246 -0.0698 -0.1509
    9CHTO   O35 3664   7.803   2.865   0.017 -0.1046  0.2211 -0.6417
    9CHTO   H71 3665   7.737   2.798   0.021  1.5565 -1.5295 -1.4908
    9CHTO   O28 3666   8.115   3.157   0.104 -0.2546 -0.1417 -0.6478
    9CHTO   C42 3667   8.021   3.231   0.191  0.0864  0.1424 -0.1346
    9CHTO   H84 3668   8.062   3.199   0.287 -2.0676 -0.0669  0.7288
    9CHTO   C44 3669   7.871   3.187   0.189 -0.1573 -0.3567 -0.7670
    9CHTO   H86 3670   7.835   3.179   0.086 -0.7439 -0.9704 -0.5220
    9CHTO   O32 3671   7.869   3.049   0.233  0.6067 -0.0163 -0.0164
    9CHTO   H69 3672   7.936   2.997   0.193 -0.8299 -1.3535 -0.7628
    9CHTO   C48 3673   7.774   3.285   0.266 -0.6643 -0.4704 -0.0008
    9CHTO   H90 3674   7.782   3.275   0.374 -0.5325  0.9754  0.1255
    9CHTO    N9 3675   7.632   3.251   0.240 -0.2493 -0.0874  0.1898
    9CHTO   H77 3676   7.567   3.325   0.285 -1.4108 -0.7227 -0.4307
    9CHTO   H78 3677   7.618   3.253   0.133  1.9041  0.7996 -0.1039
    9CHTO   C51 3678   7.804   3.433   0.225 -0.2712 -0.2577  0.5249
    9CHTO   H93 3679   7.795   3.429   0.117  1.3409 -1.1770  0.4133
    9CHTO   O30 3680   7.937   3.466   0.262 -0.0716  0.3616 -0.3579
    9CHTO   C46 3681   8.035   3.392   0.181  0.1629  0.4547  0.2746
    9CHTO   H88 3682   8.027   3.422   0.076 -1.0137  0.8915  0.4857
    9CHTO   C53 3683   8.175   3.433   0.228 -0.5184  0.1166 -0.2833
    9CHTO   O72 3684   8.193   3.407   0.366 -0.3072 -0.0811  0.3643
    9CHTO  H199 3685   8.149   3.474   0.416  1.4975  1.3622  0.0733
    9CHTO   O22 3686   7.728   3.527   0.300  0.1884 -0.5775 -0.3993
    9CHTO   C31 3687   7.702   3.660   0.240 -0.4054  0.3400  0.0692
    9CHTO   H59 3688   7.636   3.713   0.312  0.5064 -0.3043  1.3931
    9CHTO   C29 3689   7.827   3.747   0.222  0.0739  0.2341  0.4783
    9CHTO   H57 3690   7.895   3.694   0.153  1.9233  2.1072  0.8265
    9CHTO   O21 3691   7.898   3.772   0.344  0.3176 -0.6843 -0.0117
    9CHTO   H37 3692   7.964   3.837   0.330 -0.3146  0.5328  2.3906
    9CHTO   C27 3693   7.784   3.885   0.154 -0.6822 -0.4061  0.1389
    9CHTO   H55 3694   7.707   3.929   0.218  0.0679 -0.0879  0.8314
    9CHTO    N5 3695   7.900   3.977   0.139 -0.1337 -0.1513  0.3709
    9CHTO   H43 3696   7.853   4.068   0.104 -0.5383 -0.8137 -0.8284
    9CHTO   H44 3697   7.953   3.997   0.231  0.0598  1.7510 -0.1243
    9CHTO   C25 3698   7.719   3.860   0.016  0.8922  0.0019  0.0027
    9CHTO   H53 3699   7.786   3.795  -0.042  1.4645 -0.8772  1.5991
    9CHTO   O17 3700   7.599   3.777   0.041 -0.1889  0.2056  0.1043
    9CHTO   C32 3701   7.623   3.651   0.107 -0.5157  0.2519 -0.5883
    9CHTO   H60 3702   7.670   3.581   0.038 -0.2856 -1.4003  1.2005
    9CHTO   C36 3703   7.484   3.586   0.139 -0.0359  0.3382 -0.2520
    9CHTO   O25 3704   7.426   3.555   0.016 -0.5344  0.4287  0.0023
    9CHTO   H40 3705   7.426   3.630  -0.039 -1.8726 -0.1791 -0.8671
    9CHTO   O15 3706   7.665   3.990  -0.062 -0.1284 -0.0441  0.4633
    9CHTO   C19 3707   7.612   4.020  -0.195  0.5855  0.0827  0.0448
    9CHTO   H47 3708   7.605   4.130  -0.190 -0.5303 -0.0388  1.2838
    9CHTO   C20 3709   7.707   3.976  -0.314  0.4048 -0.2911  0.8328
    9CHTO   H48 3710   7.726   3.868  -0.315 -1.3794 -0.6200  0.0405
    9CHTO   O19 3711   7.825   4.045  -0.289 -0.1227 -0.4626 -0.1334
    9CHTO   H35 3712   7.897   4.008  -0.336  0.5732 -0.4284  0.8987
    9CHTO   C21 3713   7.649   4.008  -0.458  0.5157  0.0966  0.6299
    9CHTO   H49 3714   7.627   4.115  -0.463  1.3833  0.2069 -1.3559
    9CHTO    N4 3715   7.737   3.974  -0.572  0.4665  0.2425 -0.0552
    9CHTO   H41 3716   7.689   3.908  -0.642  0.1601  1.3883 -0.9400
    9CHTO   H42 3717   7.765   4.064  -0.625  1.1745 -1.2309 -2.2303
    9CHTO   C22 3718   7.509   3.944  -0.458  0.2894  0.0268  0.8833
    9CHTO   H50 3719   7.531   3.837  -0.457 -0.8353 -0.2236  0.1789
    9CHTO   O14 3720   7.424   3.996  -0.354 -0.1372  0.6126 -0.5458
    9CHTO   C23 3721   7.466   3.963  -0.221 -0.2288  0.0254 -0.8856
    9CHTO   H51 3722   7.457   3.856  -0.195 -1.3912  0.5519  0.9938
    9CHTO   C34 3723   7.363   4.029  -0.129  0.4974  0.0347 -0.5978
    9CHTO   O23 3724   7.329   4.165  -0.143 -0.2113  0.2168 -0.7507
    9CHTO   H38 3725   7.307   4.182  -0.233 -0.3275 -0.5669 -0.8784
    9CHTO   O16 3726   7.450   3.965  -0.589  0.1103  0.4194 -0.3612
    9CHTO   C24 3727   7.339   3.851  -0.643  0.1065 -0.0667  0.1790
    9CHTO   H52 3728   7.338   3.762  -0.580  1.7419 -1.0292 -1.1029
    9CHTO   C26 3729   7.372   3.789  -0.776  0.4390 -0.1595 -0.0806
    9CHTO   H54 3730   7.370   3.871  -0.850 -0.2574 -0.9961 -1.0066
    9CHTO   O20 3731   7.495   3.720  -0.767  0.0655 -0.4783 -0.0038
    9CHTO   H36 3732   7.487   3.659  -0.696  0.0206 -1.4125 -0.7980
    9CHTO   C30 3733   7.262   3.693  -0.828 -0.6089 -0.5477  0.6029
    9CHTO   H58 3734   7.275   3.600  -0.770  0.0718  0.9789  2.9552
    9CHTO    N6 3735   7.286   3.651  -0.973  0.3830 -0.1052  0.0534
    9CHTO   H45 3736   7.388   3.615  -0.976  1.3124  2.4584 -4.6831
    9CHTO   H46 3737   7.221   3.568  -0.993  2.7058 -1.9444 -0.1492
    9CHTO   C33 3738   7.118   3.747  -0.805  0.2021  0.4238  0.1498
    9CHTO   H61 3739   7.100   3.837  -0.866  0.7654 -0.8565 -1.9196
    9CHTO   O18 3740   7.104   3.789  -0.669 -0.2851 -0.2605  0.3035
    9CHTO   C28 3741   7.188   3.905  -0.644  0.0871 -0.1164 -0.1753
    9CHTO   H56 3742   7.178   3.981  -0.720  0.0008  1.0922  1.0209
    9CHTO   C35 3743   7.147   3.952  -0.501  0.1437 -0.1562 -0.6626
    9CHTO   O24 3744   7.019   4.011  -0.495  0.6076 -0.1513  0.0321
    9CHTO   H39 3745   6.983   3.990  -0.411  0.9717 -0.3564  0.1383
    9CHTO    O9 3746   7.013   3.658  -0.838  0.0381 -0.4574  0.3878
    9CHTO   C13 3747   6.861   3.732  -0.877  0.0945 -0.1797  0.0786
    9CHTO   H26 3748   6.866   3.773  -0.980 -0.2489  1.3981  0.6887
    9CHTO   C11 3749   6.826   3.845  -0.762  0.3129 -0.8968 -0.0703
    9CHTO   H24 3750   6.908   3.919  -0.756 -0.0568 -0.4496 -0.5529
    9CHTO    O8 3751   6.822   3.784  -0.629  0.2236  0.0373 -0.3831
    9CHTO    H3 3752   6.904   3.789  -0.585 -0.4588  0.6488  0.8287
    9CHTO    C9 3753   6.693   3.907  -0.814 -0.2766 -0.0165  0.1175
    9CHTO   H22 3754   6.709   3.923  -0.921 -0.6205 -2.8774 -0.3941
    9CHTO    N2 3755   6.664   4.039  -0.761  0.3313 -0.2850 -0.5258
    9CHTO   H10 3756   6.556   4.049  -0.762  0.4140  0.5244 -1.9038
    9CHTO   H11 3757   6.718   4.118  -0.810  2.0003 -0.0771  1.5720
    9CHTO    C7 3758   6.582   3.800  -0.812  0.0037 -0.0792  0.5286
    9CHTO   H20 3759   6.488   3.846  -0.851  0.4733  1.2260  0.8894
    9CHTO    O4 3760   6.610   3.688  -0.899  0.0040 -0.2027 -0.4388
    9CHTO   C14 3761   6.741   3.622  -0.888 -0.6272 -0.3738  0.5666
    9CHTO   H27 3762   6.758   3.573  -0.986  1.9329 -1.7568  1.6476
    9CHTO   C18 3763   6.746   3.501  -0.780  0.0219 -0.1306 -0.0318
    9CHTO   O13 3764   6.634   3.415  -0.796  0.1445  0.4958  0.0888
    9CHTO    H7 3765   6.630   3.376  -0.881 -1.2346 -1.0651  0.8495
    9CHTO    O2 3766   6.539   3.748  -0.668 -0.3280 -0.1483  0.2840
    9CHTO    C1 3767   6.399   3.709  -0.646  0.2234  0.2821 -0.2197
    9CHTO   H14 3768   6.397   3.631  -0.567 -0.8281 -1.0350 -1.5279
    9CHTO    C2 3769   6.304   3.651  -0.774  0.3015  0.1712  0.3981
    9CHTO   H15 3770   6.315   3.736  -0.844  0.1980  2.3057  2.9039
    9CHTO    O6 3771   6.353   3.529  -0.822 -0.0824  0.1512 -0.0960
    9CHTO    H1 3772   6.436   3.534  -0.866  0.4341 -0.0204  0.8528
    9CHTO    C3 3773   6.150   3.651  -0.725  0.0289  0.1888 -0.0636
    9CHTO   H16 3774   6.140   3.560  -0.664 -2.2564 -0.6289 -1.5709
    9CHTO    N1 3775   6.057   3.651  -0.842 -0.0200  0.2771  0.5522
    9CHTO    H8 3776   6.093   3.728  -0.908 -0.1280  1.0001  1.3358
    9CHTO    H9 3777   6.081   3.560  -0.895 -1.3197  0.4439 -0.3584
    9CHTO    C4 3778   6.102   3.773  -0.630  0.0161 -0.2443 -0.3931
    9CHTO   H17 3779   6.095   3.864  -0.690  3.6446  0.8099  0.6565
    9CHTO    O1 3780   6.199   3.793  -0.531 -0.4559 -0.1107 -0.2544
    9CHTO    C5 3781   6.329   3.832  -0.580  0.7461  0.4083  0.1124
    9CHTO   H18 3782   6.310   3.919  -0.643 -1.1695 -0.7971 -1.0481
    9CHTO   C16 3783   6.409   3.879  -0.455 -0.1396  0.2819  0.0315
    9CHTO   O11 3784   6.359   4.000  -0.407 -0.2693  0.4129 -0.1855
    9CHTO    H5 3785   6.330   4.055  -0.477  0.8112  0.8836 -0.2733
    9CHTO    O3 3786   5.977   3.758  -0.552 -0.1104  0.0050  0.2665
    9CHTO    C6 3787   5.897   3.889  -0.538  0.3524  0.1236 -0.5789
    9CHTO   H19 3788   5.948   3.976  -0.579  1.9753  0.7587  2.6077
    9CHTO    C8 3789   5.760   3.883  -0.607  0.1131  0.4002  0.4681
    9CHTO   H21 3790   5.724   3.780  -0.598  2.4505 -0.5238 -0.5320
    9CHTO    O7 3791   5.778   3.908  -0.748  0.4099 -0.4837  0.0844
    9CHTO    H2 3792   5.779   3.832  -0.804 -1.6554 -0.3790 -0.1307
    9CHTO   C12 3793   5.648   3.988  -0.556  0.4765  0.1412  0.0300
    9CHTO   H25 3794   5.666   4.087  -0.602 -2.0434 -0.6978 -2.9316
    9CHTO    N3 3795   5.515   3.934  -0.598 -0.0433  0.1095  0.4332
    9CHTO   H12 3796   5.447   3.939  -0.515 -0.0558  3.5186  0.2807
    9CHTO   H13 3797   5.480   3.991  -0.683 -1.7724 -2.0109 -0.3041
    9CHTO   C15 3798   5.666   4.003  -0.398  0.2854  0.1830 -0.5984
    9CHTO   H28 3799   5.637   3.911  -0.348  1.1444 -0.3002 -0.9885
    9CHTO   O10 3800   5.590   4.123  -0.335 -0.0592  0.1819  0.4137
    9CHTO    H4 3801   5.586   4.186  -0.405  0.5466 -0.3831 -0.1407
    9CHTO    O5 3802   5.799   4.035  -0.359  0.0586 -0.4788  0.2650
    9CHTO   C10 3803   5.884   3.920  -0.380  0.0837 -0.4346  0.0125
    9CHTO   H23 3804   5.840   3.830  -0.337 -2.5228  1.0336  0.4939
    9CHTO   C17 3805   6.020   3.947  -0.315  0.0697  0.3430  0.1321
    9CHTO   O12 3806   6.076   4.074  -0.365 -0.0866  0.1476 -0.1354
    9CHTO    H6 3807   6.006   4.135  -0.374 -1.1892 -0.8400  1.4710
   10CHTO  H203 3808   5.435   6.344   2.118  1.6625 -1.7224  1.1405
   10CHTO   O82 3809   5.360   6.290   2.132  0.0174  0.2638  0.2633
   10CHTO  C123 3810   5.230   6.344   2.102 -0.0777 -0.0599 -0.1026
   10CHTO  H227 3811   5.213   6.322   1.996 -0.7410 -1.2891  0.2542
   10CHTO   O77 3812   5.158   6.248   2.174 -0.5005 -0.4291 -0.1035
   10CHTO  C118 3813   5.013   6.257   2.182 -0.9599  0.8370 -0.1018
   10CHTO  H222 3814   4.983   6.264   2.076  1.9759  2.4391 -0.8822
   10CHTO  C125 3815   4.953   6.141   2.253  0.0972 -0.2385  0.1531
   10CHTO   O84 3816   4.986   6.014   2.194  0.3590  0.1210 -0.2287
   10CHTO  H205 3817   4.923   5.952   2.226 -0.3079  1.3212  0.8519
   10CHTO  C114 3818   4.972   6.395   2.250 -0.0649  0.1651  0.0133
   10CHTO  H218 3819   5.003   6.396   2.354  1.6032 -3.7355 -0.3517
   10CHTO  C116 3820   5.038   6.509   2.163  0.1042  0.3107 -0.4541
   10CHTO  H220 3821   4.993   6.501   2.062 -0.0991  0.7802 -0.3982
   10CHTO   O79 3822   5.005   6.636   2.221  0.3848 -0.7344  0.2567
   10CHTO  H201 3823   5.030   6.633   2.312  1.9607  1.5542 -0.0577
   10CHTO  C120 3824   5.201   6.491   2.161 -0.2622 -0.1997 -0.5729
   10CHTO  H224 3825   5.234   6.501   2.266  0.0184 -0.2701 -0.6526
   10CHTO   N21 3826   5.274   6.597   2.082  0.2383 -0.0197 -0.2703
   10CHTO  H211 3827   5.293   6.558   1.983  0.3877 -1.9136  0.4981
   10CHTO  H212 3828   5.371   6.622   2.124  1.4873 -2.0824 -1.8598
   10CHTO   O75 3829   4.827   6.405   2.227  0.2852 -0.1904 -0.1728
   10CHTO  C112 3830   4.744   6.436   2.363 -0.2205  1.0224 -0.0710
   10CHTO  H216 3831   4.810   6.481   2.438 -1.5413  0.2930  1.5592
   10CHTO   O73 3832   4.693   6.310   2.409  0.3913  0.0673  0.4077
   10CHTO  C113 3833   4.660   6.303   2.553 -0.3360 -0.8042  0.1783
   10CHTO  H217 3834   4.747   6.336   2.613 -0.0966 -1.2549  0.0866
   10CHTO  C124 3835   4.616   6.161   2.592  0.1587 -0.5204 -0.7495
   10CHTO   O83 3836   4.608   6.148   2.732 -0.0318 -0.3448 -0.4035
   10CHTO  H204 3837   4.577   6.063   2.760  2.3664 -0.9096  0.6580
   10CHTO  C109 3838   4.537   6.405   2.560 -0.1644 -0.6589 -0.3117
   10CHTO  H213 3839   4.457   6.346   2.514  0.1459 -2.0402  0.8866
   10CHTO  C110 3840   4.554   6.538   2.481  0.4685 -0.2896 -0.3875
   10CHTO  H214 3841   4.627   6.592   2.542  0.7376 -0.2294 -0.7581
   10CHTO   O78 3842   4.428   6.607   2.462 -0.0302  0.3406 -0.6346
   10CHTO  H200 3843   4.353   6.555   2.438  0.1998  0.3050 -1.3001
   10CHTO  C111 3844   4.618   6.524   2.341  0.4575  0.3739 -0.2592
   10CHTO  H215 3845   4.552   6.467   2.275 -2.5964  0.2325  2.8164
   10CHTO   N19 3846   4.656   6.650   2.268  0.6091 -0.0531 -0.0436
   10CHTO  H207 3847   4.577   6.676   2.199  0.2782 -1.6903 -0.2900
   10CHTO  H208 3848   4.668   6.726   2.344 -0.6476 -1.1170  1.2462
   10CHTO   O74 3849   4.511   6.429   2.697 -0.0347 -0.0096 -0.6187
   10CHTO  C115 3850   4.352   6.402   2.742 -0.2026  0.0782  0.0912
   10CHTO  H219 3851   4.285   6.425   2.659 -0.2960 -0.4841  0.0110
   10CHTO   O76 3852   4.328   6.265   2.783 -0.6326 -0.1822 -0.5097
   10CHTO  C122 3853   4.343   6.221   2.921 -0.1804 -0.2557  0.5369
   10CHTO  H226 3854   4.448   6.229   2.948 -0.3093  0.9047  0.6865
   10CHTO  C126 3855   4.309   6.073   2.918  0.6978  0.3756  0.1141
   10CHTO   O85 3856   4.354   6.005   3.032 -0.4297 -0.5232 -0.1960
   10CHTO  H206 3857   4.383   5.918   3.011 -1.0553 -1.1394  1.4111
   10CHTO  C121 3858   4.249   6.306   3.017 -0.4625 -0.3649 -0.0602
   10CHTO  H225 3859   4.158   6.248   3.044 -0.7245 -1.1208 -2.4376
   10CHTO   O81 3860   4.321   6.332   3.138  0.0893  0.4534  0.0318
   10CHTO  H202 3861   4.387   6.397   3.127  0.9834 -0.3941  0.2474
   10CHTO  C119 3862   4.204   6.441   2.956  0.1540 -0.0316 -0.0289
   10CHTO  H223 3863   4.118   6.418   2.893  1.4610 -0.7876 -1.5850
   10CHTO  C117 3864   4.311   6.506   2.858 -0.3981 -0.8523  0.0442
   10CHTO  H221 3865   4.405   6.541   2.900  0.7016 -0.1510 -2.8776
   10CHTO   N20 3866   4.249   6.629   2.797 -0.8113  0.0001 -0.5592
   10CHTO  H209 3867   4.259   6.627   2.690 -0.1853  1.7315 -0.5483
   10CHTO  H210 3868   4.287   6.723   2.834 -0.7578  0.6653 -2.2603
   10CHTO   O80 3869   4.140   6.544   3.063  0.4700 -0.3283  0.3533
   10CHTO  C103 3870   3.972   6.538   3.100 -0.2086 -0.4249 -0.2372
   10CHTO  H190 3871   3.947   6.641   3.126  0.9812  0.1255 -1.1844
   10CHTO  C101 3872   3.871   6.495   2.985  0.0458 -0.0222 -0.1611
   10CHTO  H188 3873   3.893   6.392   2.956  1.0983  0.7971 -2.3838
   10CHTO   O68 3874   3.889   6.566   2.871 -0.3528  0.6286 -0.4632
   10CHTO  H168 3875   3.850   6.521   2.798 -2.1741 -0.5786  1.2059
   10CHTO   C99 3876   3.724   6.481   3.047 -0.2602 -0.2863  0.0656
   10CHTO  H186 3877   3.692   6.580   3.085 -1.9666 -0.0314 -1.9600
   10CHTO   N17 3878   3.628   6.429   2.953 -0.4803  0.0921  0.7579
   10CHTO  H174 3879   3.648   6.325   2.934 -0.9498  0.0764  0.3540
   10CHTO  H175 3880   3.623   6.488   2.863  0.5890  0.0461  0.6684
   10CHTO   C97 3881   3.725   6.389   3.172  0.1296 -0.3489  0.1161
   10CHTO  H184 3882   3.761   6.288   3.143 -3.1211 -1.8888  1.2243
   10CHTO   O64 3883   3.814   6.451   3.262 -0.0856  0.0935  0.0673
   10CHTO  C104 3884   3.958   6.462   3.232 -0.4566 -0.1595  0.3020
   10CHTO  H191 3885   4.001   6.363   3.220  0.0040  0.4148 -3.4765
   10CHTO  C108 3886   4.030   6.533   3.346  0.2891  0.3604  0.1595
   10CHTO   O71 3887   3.994   6.467   3.463 -0.4939  0.6838  0.3289
   10CHTO  H171 3888   3.989   6.539   3.523 -1.3669  0.3524  0.6591
   10CHTO   O62 3889   3.601   6.393   3.248  0.3780 -0.1917 -0.1518
   10CHTO   C91 3890   3.555   6.267   3.306  0.1050  0.6728  0.2228
   10CHTO  H178 3891   3.569   6.186   3.234  0.4539 -0.1899  1.2509
   10CHTO   C92 3892   3.405   6.282   3.352 -0.0330  0.5427  0.6320
   10CHTO  H179 3893   3.353   6.341   3.275  0.7972 -1.1032 -1.2540
   10CHTO   O66 3894   3.346   6.150   3.359 -0.3693  0.0040 -0.3108
   10CHTO  H166 3895   3.308   6.137   3.444  1.5275 -0.4500  0.5009
   10CHTO   C93 3896   3.379   6.355   3.493  0.5738  0.1531 -0.3502
   10CHTO  H180 3897   3.283   6.309   3.522 -0.7155  1.5749 -2.2585
   10CHTO   N16 3898   3.348   6.497   3.487 -0.5112  0.0870  0.7880
   10CHTO  H172 3899   3.318   6.517   3.589 -1.0267  2.6409  0.1830
   10CHTO  H173 3900   3.437   6.556   3.468 -0.4826 -0.0392  0.5299
   10CHTO   C94 3901   3.487   6.307   3.590 -0.1338 -0.0611  0.6026
   10CHTO  H181 3902   3.556   6.388   3.615  0.2871 -0.5408  1.0247
   10CHTO   O61 3903   3.569   6.203   3.538  0.0763 -1.0337  0.2123
   10CHTO   C95 3904   3.644   6.215   3.426 -0.0766  0.2592 -0.3752
   10CHTO  H182 3905   3.726   6.284   3.446  2.2784 -2.3601 -0.6542
   10CHTO  C106 3906   3.701   6.079   3.405  0.2196  0.2247 -0.6951
   10CHTO   O69 3907   3.788   6.077   3.292 -0.6663 -0.4402  0.4454
   10CHTO  H169 3908   3.857   6.141   3.285 -0.5792 -0.7979 -2.4059
   10CHTO   O63 3909   3.424   6.252   3.714 -0.3232 -0.1252 -0.4348
   10CHTO   C96 3910   3.522   6.245   3.835  0.0392 -0.2267 -0.7716
   10CHTO  H183 3911   3.615   6.301   3.826 -0.1831 -0.1428 -2.6777
   10CHTO   C98 3912   3.565   6.092   3.875 -0.3853 -0.1367  0.2153
   10CHTO  H185 3913   3.476   6.029   3.883  0.3386 -1.1103  0.7357
   10CHTO   O67 3914   3.655   6.047   3.770  0.3652  0.3904  0.2007
   10CHTO  H167 3915   3.603   6.042   3.692  0.5585 -0.2285  0.1072
   10CHTO  C102 3916   3.643   6.097   4.014  0.4566 -0.0324  0.4648
   10CHTO  H189 3917   3.736   6.151   3.997  1.4898 -1.5040  1.2930
   10CHTO   N18 3918   3.699   5.962   4.057 -0.0120  0.1933 -0.6122
   10CHTO  H176 3919   3.763   5.974   4.144  0.5499  0.9749 -1.1303
   10CHTO  H177 3920   3.625   5.887   4.083  0.2115 -0.9878 -3.2888
   10CHTO  C105 3921   3.533   6.155   4.112  0.2399  0.0018 -0.1322
   10CHTO  H192 3922   3.442   6.095   4.102  0.1849  0.3985 -2.1139
   10CHTO   O65 3923   3.500   6.295   4.082  0.6050  0.4124  0.4150
   10CHTO  C100 3924   3.442   6.310   3.954 -0.5079 -0.0633 -0.4816
   10CHTO  H187 3925   3.341   6.268   3.947  0.1571 -1.9426  0.8163
   10CHTO  C107 3926   3.430   6.458   3.915  0.3239  0.3623 -0.3299
   10CHTO   O70 3927   3.317   6.513   3.989  0.3488 -0.4164  0.4761
   10CHTO  H170 3928   3.336   6.520   4.080  0.1622  1.0816  0.4151
   10CHTO   O57 3929   3.583   6.145   4.246  0.2190  0.1738 -0.1138
   10CHTO   C85 3930   3.489   6.150   4.359  0.2392  0.4095 -0.0345
   10CHTO  H157 3931   3.390   6.172   4.315  0.2417 -1.2033 -0.8957
   10CHTO   C83 3932   3.521   6.281   4.437  0.4343 -0.2940  0.0882
   10CHTO  H155 3933   3.497   6.366   4.373 -0.0760 -1.1185 -0.8209
   10CHTO   O56 3934   3.667   6.289   4.459 -0.2745  0.6570  0.1851
   10CHTO  H135 3935   3.682   6.341   4.536 -0.6732  2.3265 -0.8267
   10CHTO   C81 3936   3.431   6.290   4.561 -0.6490  0.4004  0.7852
   10CHTO  H153 3937   3.327   6.276   4.530 -0.2247 -2.5377  0.5080
   10CHTO   N14 3938   3.450   6.424   4.627  0.2514  0.1774  0.3500
   10CHTO  H141 3939   3.490   6.397   4.722  1.5532 -0.2554 -0.3091
   10CHTO  H142 3940   3.350   6.463   4.634 -0.2785 -1.3187  1.3227
   10CHTO   C79 3941   3.473   6.167   4.652  1.1304  0.3928 -0.4670
   10CHTO  H151 3942   3.410   6.174   4.740  2.7263  0.0379  0.7192
   10CHTO   O52 3943   3.433   6.042   4.583 -0.3238 -0.1939 -0.3517
   10CHTO   C86 3944   3.491   6.020   4.451 -0.4465  0.3221 -0.5688
   10CHTO  H158 3945   3.593   5.978   4.463 -1.1454 -0.9061  1.2577
   10CHTO   C90 3946   3.414   5.904   4.381 -0.1660  0.3137 -0.6494
   10CHTO   O60 3947   3.266   5.915   4.375 -0.4699  0.6191  0.3414
   10CHTO  H138 3948   3.235   5.827   4.365 -1.3330  0.5899  3.0840
   10CHTO   O50 3949   3.610   6.172   4.697  0.2218 -0.0727 -0.4404
   10CHTO   C73 3950   3.669   6.122   4.820 -0.6802  0.1116 -0.2062
   10CHTO  H145 3951   3.625   6.023   4.842 -1.0299  0.2219 -0.4048
   10CHTO   C74 3952   3.662   6.223   4.939 -0.5898 -0.4451  0.0771
   10CHTO  H146 3953   3.557   6.241   4.966 -0.3673 -0.3740  0.9248
   10CHTO   O54 3954   3.723   6.162   5.055 -0.3114 -0.2824  0.2144
   10CHTO  H133 3955   3.689   6.214   5.125  2.6676 -2.0197  3.0702
   10CHTO   C75 3956   3.741   6.360   4.895  0.0193 -0.0381  0.4141
   10CHTO  H147 3957   3.691   6.401   4.805 -3.3766 -2.2041  1.2122
   10CHTO   N13 3958   3.727   6.470   4.991  0.7280  0.2200  0.6852
   10CHTO  H139 3959   3.702   6.437   5.091 -0.7229 -2.3047 -0.4844
   10CHTO  H140 3960   3.652   6.543   4.964  0.4228 -0.4649 -0.3383
   10CHTO   C76 3961   3.882   6.323   4.857  0.0033  0.6399  0.1920
   10CHTO  H148 3962   3.930   6.284   4.947 -0.0499 -1.1424 -0.5428
   10CHTO   O49 3963   3.883   6.218   4.753 -0.6786  0.3193  0.2432
   10CHTO   C77 3964   3.819   6.098   4.788 -0.4869  0.0039  0.2958
   10CHTO  H149 3965   3.868   6.063   4.879 -0.6829  0.3510  0.5347
   10CHTO   C88 3966   3.852   5.996   4.681  0.1136  0.2250 -0.5326
   10CHTO   O58 3967   3.772   5.868   4.695  0.2454  0.0386 -0.3430
   10CHTO  H136 3968   3.682   5.879   4.674 -0.3987 -2.6044  0.8397
   10CHTO   O51 3969   3.964   6.441   4.793 -1.4352  0.1292  0.4026
   10CHTO   C78 3970   4.094   6.486   4.840  0.1884 -0.4164  0.3023
   10CHTO  H150 3971   4.161   6.398   4.845 -1.6278 -1.7799  1.2720
   10CHTO   C80 3972   4.085   6.555   4.975 -0.0728  0.5658 -0.2748
   10CHTO  H152 3973   3.991   6.613   4.969 -0.5193 -0.1551 -0.3352
   10CHTO   O55 3974   4.055   6.450   5.074 -0.5532  0.2347 -0.0346
   10CHTO  H134 3975   4.137   6.414   5.102  0.9710  2.3037 -1.7406
   10CHTO   C84 3976   4.221   6.639   5.005 -0.9717 -0.2411  0.1142
   10CHTO  H156 3977   4.284   6.561   5.047  0.0200 -0.0455 -0.9794
   10CHTO   N15 3978   4.205   6.741   5.114 -0.3468  0.1242 -0.4633
   10CHTO  H143 3979   4.216   6.843   5.084 -1.4209 -0.3408 -2.5283
   10CHTO  H144 3980   4.276   6.717   5.191  0.4263 -1.7021 -1.6927
   10CHTO   C87 3981   4.282   6.715   4.882  0.0960 -0.0615  0.0755
   10CHTO  H159 3982   4.215   6.796   4.855 -1.3556 -1.8143 -1.8098
   10CHTO   O53 3983   4.286   6.627   4.784 -0.3481 -0.7173  0.9773
   10CHTO   C82 3984   4.153   6.585   4.734  0.0900  0.2207  0.0124
   10CHTO  H154 3985   4.092   6.672   4.713 -0.6173  0.1685  1.8087
   10CHTO   C89 3986   4.161   6.502   4.602  0.4106 -0.3495  0.0541
   10CHTO   O59 3987   4.235   6.567   4.503 -0.1687 -0.6412  0.1021
   10CHTO  H137 3988   4.321   6.587   4.532 -0.3914 -0.8437  0.9007
   10CHTO   O45 3989   4.445   6.765   4.898 -0.6647 -0.0428 -0.5607
   10CHTO   C67 3990   4.488   6.901   4.859  0.2047 -0.0096 -0.0558
   10CHTO  H124 3991   4.418   6.944   4.787 -0.5830 -2.2775 -0.6805
   10CHTO   C65 3992   4.493   6.993   4.990  0.1823 -0.6169 -0.0610
   10CHTO  H122 3993   4.527   6.933   5.074  0.0590 -0.6883 -0.0617
   10CHTO   O44 3994   4.357   7.035   5.011 -0.6675  0.2945 -0.2385
   10CHTO  H102 3995   4.306   6.956   5.019  1.8202 -1.3121  0.3663
   10CHTO   C63 3996   4.607   7.107   4.991  0.6997 -0.3664  0.0938
   10CHTO  H120 3997   4.701   7.059   5.018  1.9104  2.0185  0.2553
   10CHTO   N11 3998   4.591   7.219   5.090  0.1238  0.3668 -0.5553
   10CHTO  H108 3999   4.490   7.239   5.118 -1.1199 -3.7543 -1.6836
   10CHTO  H109 4000   4.637   7.305   5.046  1.2275  0.5522  0.9458
   10CHTO   C61 4001   4.634   7.154   4.849 -0.0675 -0.2936  0.2950
   10CHTO  H118 4002   4.725   7.215   4.853 -1.3115  1.8866 -3.0639
   10CHTO   O40 4003   4.666   7.047   4.754  0.3428 -0.7615  0.1524
   10CHTO   C68 4004   4.627   6.902   4.786  0.4769 -0.3312  0.6509
   10CHTO  H125 4005   4.699   6.851   4.852  3.6639 -0.0055 -2.4215
   10CHTO   C72 4006   4.633   6.824   4.649  0.1305 -0.0711 -0.0141
   10CHTO   O48 4007   4.767   6.837   4.596 -0.4554  0.5108  0.6528
   10CHTO  H105 4008   4.824   6.899   4.639  0.0794  2.4239 -2.6329
   10CHTO   O38 4009   4.513   7.233   4.798 -0.0067  0.3966 -0.1255
   10CHTO   C55 4010   4.528   7.341   4.698  0.0632  0.3751 -0.8175
   10CHTO  H112 4011   4.432   7.337   4.646  0.1637 -0.0980 -0.9629
   10CHTO   C56 4012   4.654   7.328   4.602  0.4481  0.2948 -0.1609
   10CHTO  H113 4013   4.738   7.304   4.669 -1.9602 -0.1063  2.8525
   10CHTO   O42 4014   4.631   7.210   4.519 -0.3541  0.3438  0.2474
   10CHTO  H100 4015   4.713   7.164   4.519  0.5090  1.8143  1.6833
   10CHTO   C57 4016   4.687   7.458   4.520  0.3940 -0.1762 -0.5992
   10CHTO  H114 4017   4.608   7.471   4.446  1.1205  0.0278 -1.3385
   10CHTO   N10 4018   4.818   7.446   4.456  0.1273 -0.3475  0.1819
   10CHTO  H106 4019   4.806   7.511   4.371 -0.9315 -1.5216 -0.5849
   10CHTO  H107 4020   4.907   7.475   4.509  0.1653 -0.4774  0.1887
   10CHTO   C58 4021   4.681   7.576   4.615 -0.6989 -0.3296 -0.8103
   10CHTO  H115 4022   4.761   7.567   4.692 -3.6730 -1.1966  2.2702
   10CHTO   O37 4023   4.553   7.578   4.677  0.1119 -0.0375 -0.0343
   10CHTO   C59 4024   4.529   7.473   4.779 -0.2073  0.3214  0.1176
   10CHTO  H116 4025   4.602   7.485   4.859 -1.2973 -1.9829  1.5140
   10CHTO   C70 4026   4.392   7.503   4.850  0.3516  0.0931 -0.6871
   10CHTO   O46 4027   4.401   7.621   4.933 -0.0432  0.0295  0.6815
   10CHTO  H103 4028   4.329   7.614   4.992 -0.8487 -0.0320 -0.3023
   10CHTO   O39 4029   4.702   7.727   4.522 -0.2028  0.0506 -0.1525
   10CHTO   C60 4030   4.709   7.851   4.596  1.0989  0.5771 -0.6571
   10CHTO  H117 4031   4.656   7.927   4.539 -1.1293  0.1547  0.7836
   10CHTO   C62 4032   4.628   7.865   4.728 -1.4045  0.3195 -0.5454
   10CHTO  H119 4033   4.521   7.847   4.707 -1.2796  0.0682 -0.9561
   10CHTO   O43 4034   4.672   7.772   4.837  0.1158 -0.0554 -0.0195
   10CHTO  H101 4035   4.673   7.687   4.796 -2.6385  0.5317 -1.3963
   10CHTO   C66 4036   4.619   8.017   4.775 -0.4469 -1.1858 -0.5325
   10CHTO  H123 4037   4.583   8.072   4.688  0.5878  0.2384 -0.0774
   10CHTO   N12 4038   4.525   8.045   4.893  0.1293 -0.3764  0.2783
   10CHTO  H110 4039   4.453   7.968   4.916 -1.3050  0.9360  0.2578
   10CHTO  H111 4040   4.479   8.142   4.884  0.3193 -0.3224 -0.1436
   10CHTO   C69 4041   4.763   8.071   4.795  0.6503 -0.4097  0.1276
   10CHTO  H126 4042   4.811   8.017   4.879 -0.0944  1.4806  1.8074
   10CHTO   O41 4043   4.851   8.047   4.675  0.2372  0.2302 -0.0543
   10CHTO   C64 4044   4.855   7.897   4.621  0.2250  0.1935 -0.4072
   10CHTO  H121 4045   4.899   7.836   4.703 -1.0733 -0.0335  0.1446
   10CHTO   C71 4046   4.946   7.882   4.500  0.1597 -0.3587  0.3395
   10CHTO   O47 4047   5.083   7.903   4.527  0.4437  0.0098 -0.7531
   10CHTO  H104 4048   5.118   7.831   4.575  0.1514  0.3785  0.0299
   10CHTO   O34 4049   4.768   8.227   4.828  0.6153  0.2238 -0.1794
   10CHTO   C49 4050   4.802   8.355   4.760  0.2782 -0.2266  0.5567
   10CHTO   H91 4051   4.911   8.355   4.755  0.1957 -1.0003 -1.4944
   10CHTO   C47 4052   4.739   8.471   4.845 -0.8606  0.5838  0.3548
   10CHTO   H89 4053   4.777   8.564   4.799  0.9792  0.6030  1.8611
   10CHTO   O33 4054   4.793   8.466   4.982  0.7180  0.2512  0.5281
   10CHTO   H70 4055   4.789   8.380   5.020  0.6756  0.7619  1.6893
   10CHTO   C45 4056   4.584   8.468   4.835 -0.1720 -0.0633 -0.0561
   10CHTO   H87 4057   4.552   8.365   4.858  0.6401 -0.4795 -0.7521
   10CHTO    N8 4058   4.520   8.557   4.933  0.7929  0.1579  0.4454
   10CHTO   H75 4059   4.414   8.550   4.915  0.5238  0.5802  1.8595
   10CHTO   H76 4060   4.535   8.538   5.038 -2.0267  0.9222  1.0037
   10CHTO   C43 4061   4.547   8.493   4.685 -0.1667 -0.2556 -0.3871
   10CHTO   H85 4062   4.439   8.479   4.680 -0.0213 -2.3695  1.7557
   10CHTO   O29 4063   4.611   8.391   4.604 -0.0448 -0.3799 -0.0683
   10CHTO   C50 4064   4.751   8.371   4.621  0.6902  0.6116 -0.2606
   10CHTO   H92 4065   4.772   8.276   4.570 -3.2495 -0.7466  0.4874
   10CHTO   C54 4066   4.824   8.471   4.528  0.8396 -1.2399  0.1401
   10CHTO   O36 4067   4.970   8.462   4.524  0.7583 -0.0710  0.5690
   10CHTO   H72 4068   5.010   8.497   4.601  2.8607 -0.9134 -0.1203
   10CHTO   O27 4069   4.581   8.624   4.637 -0.1136  0.2218  0.0571
   10CHTO   C37 4070   4.612   8.736   4.551 -0.7430  0.5512 -0.0160
   10CHTO   H79 4071   4.715   8.735   4.512 -0.3647 -2.5944  0.9044
   10CHTO   C38 4072   4.515   8.724   4.424 -0.3128 -0.3425 -0.1702
   10CHTO   H80 4073   4.417   8.690   4.461 -0.0196 -0.4307  0.5315
   10CHTO   O31 4074   4.562   8.626   4.337 -0.4985 -0.5312 -0.0360
   10CHTO   H68 4075   4.544   8.540   4.371 -1.0958 -0.1894  0.5039
   10CHTO   C39 4076   4.500   8.862   4.345 -0.0202  0.5259 -0.2850
   10CHTO   H81 4077   4.594   8.883   4.295  0.6986  0.0169  0.8373
   10CHTO    N7 4078   4.395   8.851   4.235 -0.1178  0.4765 -0.2769
   10CHTO   H73 4079   4.356   8.750   4.244 -0.7840  0.7848  0.3665
   10CHTO   H74 4080   4.311   8.917   4.248 -0.8948  0.1778 -3.4204
   10CHTO   C40 4081   4.482   8.970   4.450 -0.6371 -0.9368 -0.0376
   10CHTO   H82 4082   4.385   8.966   4.501 -0.9742 -2.4875 -0.7698
   10CHTO   O26 4083   4.588   8.973   4.542  0.6069  0.4079 -0.0521
   10CHTO   C41 4084   4.591   8.865   4.632 -0.4080  0.8820 -0.3216
   10CHTO   H83 4085   4.503   8.853   4.697 -0.8064 -0.6169 -1.1072
   10CHTO   C52 4086   4.709   8.885   4.729  0.0672 -0.4210  0.6842
   10CHTO   O35 4087   4.695   9.001   4.809 -0.3202  0.4459 -0.2640
   10CHTO   H71 4088   4.718   8.981   4.897  0.1813  3.4103  0.3597
   10CHTO   O28 4089   4.499   9.094   4.386 -0.2731  0.2658  0.0377
   10CHTO   C42 4090   4.419   9.206   4.427 -0.2728  0.5048 -0.2112
   10CHTO   H84 4091   4.353   9.165   4.503 -1.6902  2.1751 -0.4981
   10CHTO   C44 4092   4.321   9.262   4.311  0.0775 -0.6761  0.7133
   10CHTO   H86 4093   4.387   9.293   4.230 -0.3229  0.2425  0.7357
   10CHTO   O32 4094   4.241   9.152   4.260  0.2991 -0.0373  0.4678
   10CHTO   H69 4095   4.203   9.185   4.181  2.1731 -0.0856 -0.4759
   10CHTO   C48 4096   4.236   9.386   4.365  0.8113  0.1391  0.1180
   10CHTO   H90 4097   4.170   9.339   4.438  0.7998  0.7504  0.5047
   10CHTO    N9 4098   4.140   9.442   4.265 -0.0074  0.3224 -0.1760
   10CHTO   H77 4099   4.073   9.363   4.236  0.4480 -0.9350  2.0629
   10CHTO   H78 4100   4.081   9.521   4.309  0.0485  1.1388 -1.5550
   10CHTO   C51 4101   4.323   9.499   4.425  0.1808  0.6396  0.4774
   10CHTO   H93 4102   4.385   9.543   4.347 -0.8157 -0.6627 -1.0821
   10CHTO   O30 4103   4.405   9.441   4.528 -1.1238  0.2670 -0.0884
   10CHTO   C46 4104   4.499   9.323   4.488  0.0978  0.5563  0.1265
   10CHTO   H88 4105   4.568   9.362   4.413 -0.1187  2.0641  0.6941
   10CHTO   C53 4106   4.576   9.266   4.616 -0.1319 -0.3243 -0.3731
   10CHTO   O72 4107   4.669   9.361   4.672  0.3168 -0.5251  0.1607
   10CHTO  H199 4108   4.750   9.318   4.689 -0.0029 -0.9996  0.4944
   10CHTO   O22 4109   4.248   9.603   4.497  0.4957  0.2836 -0.2558
   10CHTO   C31 4110   4.310   9.743   4.508 -0.3064 -0.2389  0.3094
   10CHTO   H59 4111   4.234   9.801   4.564  0.9646  0.2762  1.5119
   10CHTO   C29 4112   4.437   9.751   4.593  0.9345  0.1035  0.2602
   10CHTO   H57 4113   4.510   9.685   4.546 -0.3470 -0.7678 -0.5459
   10CHTO   O21 4114   4.410   9.695   4.723 -0.5479  0.4013 -0.1799
   10CHTO   H37 4115   4.491   9.652   4.744 -1.2165  0.1552  2.0849
   10CHTO   C27 4116   4.492   9.897   4.622 -0.1469 -0.3910  0.4462
   10CHTO   H55 4117   4.423   9.954   4.686 -1.2116 -2.3871  1.1354
   10CHTO    N5 4118   4.626   9.893   4.678 -0.5563  0.3533  0.1299
   10CHTO   H43 4119   4.623   9.946   4.773  1.2590  0.0340  0.3815
   10CHTO   H44 4120   4.703   9.937   4.616 -1.9640  1.4127 -0.8821
   10CHTO   C25 4121   4.495   9.970   4.480  0.2198 -1.3477 -0.2822
   10CHTO   H53 4122   4.568   9.926   4.410 -0.5218 -0.8536 -1.3929
   10CHTO   O17 4123   4.366   9.961   4.408 -0.3801 -0.4057  0.3480
   10CHTO   C32 4124   4.332   9.825   4.368  0.4940  0.4659 -0.3989
   10CHTO   H60 4125   4.416   9.789   4.310  0.7020  0.1291  0.1129
   10CHTO   C36 4126   4.203   9.823   4.284  1.0306  0.2891  0.6149
   10CHTO   O25 4127   4.226   9.891   4.158  0.5186  0.3568  0.0508
   10CHTO   H40 4128   4.316   9.906   4.134  0.4946 -0.7799 -0.7669
   10CHTO   O15 4129   4.536  10.125   4.497  0.0261  0.3874  0.3739
   10CHTO   C19 4130   4.588  10.214   4.397  0.9214  0.0539  0.2048
   10CHTO   H47 4131   4.555  10.163   4.305  1.4573  1.0091 -0.5308
   10CHTO   C20 4132   4.512  10.356   4.407 -0.1806  0.5548 -0.3062
   10CHTO   H48 4133   4.542  10.416   4.494 -1.6682  1.8560 -0.6683
   10CHTO   O19 4134   4.371  10.337   4.405 -0.2980 -0.0188 -0.1800
   10CHTO   H35 4135   4.354  10.268   4.343  0.9382 -0.9127  0.4335
   10CHTO   C21 4136   4.548  10.446   4.284  0.5919  0.0645 -0.5497
   10CHTO   H49 4137   4.500  10.408   4.194 -0.0752  1.0775 -0.6227
   10CHTO    N4 4138   4.494  10.589   4.300  0.5565  0.4547 -0.0141
   10CHTO   H41 4139   4.528  10.651   4.219 -1.0964  2.3390  0.7007
   10CHTO   H42 4140   4.387  10.587   4.295  0.6585 -2.7095 -1.9671
   10CHTO   C22 4141   4.703  10.439   4.261  0.6817  0.4957 -0.3927
   10CHTO   H50 4142   4.753  10.492   4.341 -2.0951  1.6014  0.6738
   10CHTO   O14 4143   4.749  10.305   4.259 -0.2542  0.5525  0.6129
   10CHTO   C23 4144   4.747  10.244   4.390  0.6083 -0.2737 -0.4080
   10CHTO   H51 4145   4.775  10.319   4.466 -0.3419  1.5036 -1.7665
   10CHTO   C34 4146   4.836  10.116   4.387  0.3507  0.3989 -0.2394
   10CHTO   O23 4147   4.889  10.090   4.513  0.0844  0.4408 -0.3028
   10CHTO   H38 4148   4.814  10.066   4.564 -0.2217  1.3282 -0.3379
   10CHTO   O16 4149   4.745  10.491   4.132  0.4664  0.1946  0.0369
   10CHTO   C24 4150   4.908  10.545   4.125 -0.0021 -0.1565  0.6122
   10CHTO   H52 4151   4.974  10.486   4.188  0.2158 -1.0461 -0.4210
   10CHTO   C26 4152   4.920  10.691   4.159 -0.1941 -0.1929  0.0098
   10CHTO   H54 4153   4.835  10.745   4.112 -0.1189 -1.0525 -1.1380
   10CHTO   O20 4154   4.900  10.720   4.297  0.3693  0.2059 -0.3631
   10CHTO   H36 4155   4.938  10.657   4.355 -1.9388 -1.5292 -0.6787
   10CHTO   C30 4156   5.056  10.743   4.116  0.1402  0.4852 -0.1058
   10CHTO   H58 4157   5.120  10.724   4.203 -1.3975 -1.1805  0.6962
   10CHTO    N6 4158   5.063  10.892   4.103  0.0127  0.6149 -0.3259
   10CHTO   H45 4159   5.115  10.931   4.189  2.7978 -0.4426 -1.4710
   10CHTO   H46 4160   4.969  10.945   4.101  1.5984  3.5122 -0.3480
   10CHTO   C33 4161   5.111  10.682   3.982 -0.2404 -0.0185  0.4781
   10CHTO   H61 4162   5.073  10.738   3.896 -1.0803  1.1633  1.5976
   10CHTO   O18 4163   5.085  10.545   3.973  0.2245  0.1757 -0.3565
   10CHTO   C28 4164   4.946  10.511   3.989  0.2187  0.4514  0.1374
   10CHTO   H56 4165   4.882  10.560   3.915  0.9314 -1.7079 -1.9619
   10CHTO   C35 4166   4.928  10.360   3.952 -0.0895  0.5308  0.2123
   10CHTO   O24 4167   5.019  10.308   3.856  0.2568  0.9320 -0.3161
   10CHTO   H39 4168   5.054  10.225   3.883 -1.1377  0.2461 -0.5480
   10CHTO    O9 4169   5.253  10.700   3.980  0.4280 -0.5778  0.1387
   10CHTO   C13 4170   5.329  10.721   3.829 -0.4887 -0.6830  0.2886
   10CHTO   H26 4171   5.267  10.788   3.766  0.3869 -1.3303 -1.2991
   10CHTO   C11 4172   5.342  10.575   3.765  0.2491 -0.0065  0.0416
   10CHTO   H24 4173   5.244  10.537   3.734  0.5356 -2.0908  1.5545
   10CHTO    O8 4174   5.381  10.486   3.862 -0.0253  0.3224 -0.6273
   10CHTO    H3 4175   5.345  10.499   3.947  0.4472  1.7292 -0.6318
   10CHTO    C9 4176   5.449  10.589   3.655  0.0122 -0.6674  0.7336
   10CHTO   H22 4177   5.415  10.666   3.585  0.7906 -2.6135 -1.8807
   10CHTO    N2 4178   5.450  10.474   3.558  0.1760  0.4058  0.9105
   10CHTO   H10 4179   5.344  10.453   3.551 -0.4871  3.6290  0.6358
   10CHTO   H11 4180   5.507  10.392   3.599 -1.8189 -1.2852  0.3880
   10CHTO    C7 4181   5.584  10.630   3.717 -0.7352  0.4433 -0.8090
   10CHTO   H20 4182   5.628  10.695   3.640 -1.6351  1.8924 -0.1186
   10CHTO    O4 4183   5.573  10.712   3.840  0.2286  0.2009  0.1547
   10CHTO   C14 4184   5.463  10.806   3.835  0.6466  0.3138  0.3485
   10CHTO   H27 4185   5.481  10.871   3.747 -1.3910  0.1441 -0.2046
   10CHTO   C18 4186   5.459  10.902   3.962  0.3174 -0.4335  0.2981
   10CHTO   O13 4187   5.583  10.968   3.966 -0.3503  0.2017  0.2091
   10CHTO    H7 4188   5.660  10.915   3.956 -1.0953 -0.7615 -0.4419
   10CHTO    O2 4189   5.669  10.512   3.749 -0.1043  0.2268 -0.1672
   10CHTO    C1 4190   5.812  10.534   3.715  0.2776  0.1991 -0.5378
   10CHTO   H14 4191   5.842  10.636   3.747  2.7163 -0.4930 -0.5596
   10CHTO    C2 4192   5.855  10.518   3.558 -0.0457  0.4664  0.7901
   10CHTO   H15 4193   5.813  10.426   3.515  0.0208  1.3818 -1.2740
   10CHTO    O6 4194   5.795  10.632   3.496  0.1632  0.0974  0.2411
   10CHTO    H1 4195   5.826  10.715   3.526 -0.3590  0.2907  0.2532
   10CHTO    C3 4196   6.017  10.513   3.545  0.3661  0.4486  0.3412
   10CHTO   H16 4197   6.057  10.608   3.582 -0.7147  0.7173  0.8267
   10CHTO    N1 4198   6.050  10.501   3.396  0.2493 -0.2248 -0.0138
   10CHTO    H8 4199   6.134  10.437   3.372  1.1616  0.2685  1.7797
   10CHTO    H9 4200   6.050  10.600   3.352 -1.2491 -0.7152 -1.1669
   10CHTO    C4 4201   6.075  10.402   3.636  0.3800 -1.2726  0.3084
   10CHTO   H17 4202   6.044  10.303   3.603  1.9900 -2.1651  1.3657
   10CHTO    O1 4203   6.034  10.428   3.778  0.1960 -0.1621  0.2060
   10CHTO    C5 4204   5.893  10.439   3.814 -0.1374  0.1303  0.3715
   10CHTO   H18 4205   5.842  10.343   3.799 -0.2451  0.0139  1.4289
   10CHTO   C16 4206   5.873  10.476   3.965 -0.4968  0.0525  0.0790
   10CHTO   O11 4207   5.940  10.391   4.060 -0.6743  0.3907 -0.1084
   10CHTO    H5 4208   5.900  10.400   4.144 -3.0732 -0.7860 -1.0779
   10CHTO    O3 4209   6.217  10.403   3.649  0.2678 -0.6909 -0.7168
   10CHTO    C6 4210   6.280  10.271   3.628  0.1500  0.0363  0.1261
   10CHTO   H19 4211   6.212  10.195   3.590 -0.5867  0.7883 -0.0694
   10CHTO    C8 4212   6.403  10.276   3.528  0.2541  0.3068  0.4659
   10CHTO   H21 4213   6.465  10.361   3.554  1.7342 -0.9690  1.1631
   10CHTO    O7 4214   6.347  10.304   3.396 -0.3399 -0.0013 -0.0674
   10CHTO    H2 4215   6.303  10.238   3.346  0.2362 -0.1225 -0.4303
   10CHTO   C12 4216   6.480  10.135   3.527  0.1160  0.4319 -0.4748
   10CHTO   H25 4217   6.412  10.061   3.479 -0.0820 -0.5756  1.3104
   10CHTO    N3 4218   6.604  10.144   3.444 -0.0881  0.6996  0.7105
   10CHTO   H12 4219   6.666  10.230   3.467  2.6059 -0.7506 -0.8763
   10CHTO   H13 4220   6.662  10.055   3.460  0.3150  0.1164 -3.4110
   10CHTO   C15 4221   6.504  10.086   3.674  0.3661  0.4713 -0.2360
   10CHTO   H28 4222   6.589  10.142   3.714  1.3098  0.1768 -1.7716
   10CHTO   O10 4223   6.523   9.937   3.677 -0.0506 -0.0533 -0.2986
   10CHTO    H4 4224   6.606   9.918   3.638 -0.3117 -0.2505 -0.7716
   10CHTO    O5 4225   6.387  10.088   3.755  0.3803 -0.0861 -0.3599
   10CHTO   C10 4226   6.325  10.218   3.769 -0.4677 -0.2000 -0.7789
   10CHTO   H23 4227   6.393  10.294   3.807 -1.9051  0.2773  0.9047
   10CHTO   C17 4228   6.221  10.183   3.882 -0.0047 -0.0630  1.1000
   10CHTO   O12 4229   6.295  10.158   4.003 -0.5398  0.5861  0.5646
   10CHTO    H6 4230   6.246  10.194   4.075  0.4943  1.1745  0.9822
   11CHTO  H203 4231   7.601   4.844   0.144 -1.8806  0.5851 -0.9300
   11CHTO   O82 4232   7.587   4.903   0.216 -0.7275 -0.2263 -0.0303
   11CHTO  C123 4233   7.555   5.034   0.163  0.0606  0.5089 -0.1618
   11CHTO  H227 4234   7.600   5.042   0.063  0.7085 -0.0903  0.0737
   11CHTO   O77 4235   7.411   5.025   0.150 -0.1504 -0.0140 -0.1577
   11CHTO  C118 4236   7.337   5.147   0.109  0.0149 -0.2655 -0.0886
   11CHTO  H222 4237   7.377   5.165   0.008 -0.4905  0.9752 -0.0709
   11CHTO  C125 4238   7.182   5.110   0.095 -0.6377 -0.5941  0.5058
   11CHTO   O84 4239   7.127   5.066   0.219  0.0512  0.3353 -0.2683
   11CHTO  H205 4240   7.105   4.979   0.191 -0.3992 -0.1779  1.6022
   11CHTO  C114 4241   7.362   5.260   0.216  0.0381 -0.3672  0.0366
   11CHTO  H218 4242   7.305   5.232   0.304  0.5122 -0.5584  0.2826
   11CHTO  C116 4243   7.513   5.282   0.236 -0.1681 -0.2913 -0.2067
   11CHTO  H220 4244   7.552   5.312   0.136  0.0746 -2.3959 -0.7767
   11CHTO   O79 4245   7.533   5.387   0.338 -0.1243 -0.0494  0.1122
   11CHTO  H201 4246   7.563   5.463   0.292 -0.1660 -0.6458 -0.9245
   11CHTO  C120 4247   7.596   5.147   0.264  0.7605 -0.3205 -0.0727
   11CHTO  H224 4248   7.570   5.118   0.367 -3.2314  1.7904 -0.3858
   11CHTO   N21 4249   7.739   5.173   0.267  0.1113  0.1145  0.2920
   11CHTO  H211 4250   7.781   5.074   0.260 -2.0958 -0.7761 -0.9684
   11CHTO  H212 4251   7.774   5.233   0.349  0.8983 -0.6758  0.5361
   11CHTO   O75 4252   7.296   5.374   0.159  0.1038 -0.1237 -0.2048
   11CHTO  C112 4253   7.220   5.467   0.280 -0.9150  0.1672  1.1443
   11CHTO  H216 4254   7.266   5.454   0.379  0.9706 -1.6322  0.0695
   11CHTO   O73 4255   7.081   5.435   0.277 -0.5273  0.4352 -0.0732
   11CHTO  C113 4256   7.000   5.524   0.355 -0.2364 -0.3801 -0.1850
   11CHTO  H217 4257   7.033   5.536   0.460 -4.9454  2.3609  1.1173
   11CHTO  C124 4258   6.862   5.465   0.355 -0.2434  0.6469  0.3980
   11CHTO   O83 4259   6.806   5.458   0.218 -0.6405 -0.2987 -0.6261
   11CHTO  H204 4260   6.714   5.443   0.224 -0.2048 -3.0760 -0.3122
   11CHTO  C109 4261   7.002   5.665   0.303 -0.0282  0.0536  0.3750
   11CHTO  H213 4262   6.974   5.662   0.196  0.1848  0.3039  0.3127
   11CHTO  C110 4263   7.144   5.719   0.313 -0.7924  0.7447 -0.5707
   11CHTO  H214 4264   7.172   5.719   0.419 -1.0339 -1.5248 -0.4880
   11CHTO   O78 4265   7.148   5.851   0.257 -0.0577 -0.3493 -0.4044
   11CHTO  H200 4266   7.096   5.915   0.302  1.1056 -0.5225  1.2515
   11CHTO  C111 4267   7.240   5.623   0.237 -0.1614  0.1005 -0.2625
   11CHTO  H215 4268   7.211   5.624   0.131 -0.7021  0.2313 -0.1150
   11CHTO   N19 4269   7.380   5.660   0.247 -0.7202  0.1371  0.5239
   11CHTO  H207 4270   7.382   5.757   0.200  1.8159 -0.1744 -0.0781
   11CHTO  H208 4271   7.407   5.656   0.352 -2.9589 -2.9228  1.0416
   11CHTO   O74 4272   6.908   5.757   0.371  0.2702 -0.3518 -0.3083
   11CHTO  C115 4273   6.826   5.858   0.272  0.6880 -0.6646 -0.3060
   11CHTO  H219 4274   6.878   5.873   0.178 -0.8861 -0.5177 -1.1591
   11CHTO   O76 4275   6.694   5.797   0.226  0.4119 -0.3115 -0.2041
   11CHTO  C122 4276   6.612   5.758   0.330 -1.0311  0.6393  0.4159
   11CHTO  H226 4277   6.655   5.666   0.370 -1.1099  1.2286  1.8869
   11CHTO  C126 4278   6.492   5.719   0.260  0.2136 -0.4029 -0.5767
   11CHTO   O85 4279   6.508   5.597   0.184  0.1702  0.2735 -0.3606
   11CHTO  H206 4280   6.548   5.537   0.244  0.2603 -0.7323 -1.4102
   11CHTO  C121 4281   6.590   5.874   0.432  0.2910  0.4098  0.2693
   11CHTO  H225 4282   6.480   5.879   0.448  0.0133 -2.2283 -0.4912
   11CHTO   O81 4283   6.655   5.842   0.559 -0.2235  0.2268 -1.1838
   11CHTO  H202 4284   6.696   5.758   0.558 -2.3276 -0.8487 -0.9419
   11CHTO  C119 4285   6.641   6.011   0.380  0.6651 -0.7726 -0.1348
   11CHTO  H223 4286   6.584   6.022   0.288  0.4871 -0.3238  0.0255
   11CHTO  C117 4287   6.795   5.992   0.356 -0.5375 -0.4483  0.1284
   11CHTO  H221 4288   6.856   5.988   0.446 -0.3741  1.7155  0.1328
   11CHTO   N20 4289   6.845   6.115   0.287  0.0120 -0.3856 -0.4156
   11CHTO  H209 4290   6.827   6.108   0.181 -1.1585  1.1816 -0.3415
   11CHTO  H210 4291   6.949   6.136   0.307  0.3197 -2.2387  0.0248
   11CHTO   O80 4292   6.592   6.140   0.466  0.2523  0.1341  0.0990
   11CHTO  C103 4293   6.622   6.155   0.616 -0.6714 -0.2744 -0.5667
   11CHTO  H190 4294   6.614   6.061   0.670  2.1167  0.5507  1.3787
   11CHTO  C101 4295   6.764   6.217   0.646 -0.5276 -0.6842 -0.0300
   11CHTO  H188 4296   6.789   6.293   0.573  1.6000 -0.8964  0.4275
   11CHTO   O68 4297   6.872   6.108   0.648 -0.0336  0.2855 -0.3015
   11CHTO  H168 4298   6.946   6.145   0.603  1.0169 -0.4469  0.8330
   11CHTO   C99 4299   6.773   6.300   0.783  0.6215 -0.4748 -0.4849
   11CHTO  H186 4300   6.779   6.222   0.861 -1.4624  0.0632  0.2384
   11CHTO   N17 4301   6.901   6.383   0.797 -0.2108 -0.4600  0.1828
   11CHTO  H174 4302   6.881   6.465   0.729  0.8039 -1.7564 -1.7134
   11CHTO  H175 4303   6.912   6.413   0.900 -0.2148  0.8841 -0.2018
   11CHTO   C97 4304   6.639   6.381   0.809 -0.0815  0.0149 -0.6124
   11CHTO  H184 4305   6.640   6.462   0.733  3.3052 -0.7056 -1.3918
   11CHTO   O64 4306   6.525   6.293   0.795 -0.4485 -0.4963 -0.4808
   11CHTO  C104 4307   6.502   6.247   0.665  0.0062  0.5645  0.6290
   11CHTO  H191 4308   6.491   6.328   0.592 -1.2887 -1.8834 -1.9616
   11CHTO  C108 4309   6.369   6.169   0.663  0.0024  0.0693  0.4888
   11CHTO   O71 4310   6.335   6.126   0.532  0.2768  0.3014  0.6705
   11CHTO  H171 4311   6.387   6.059   0.493  1.7377  1.8148 -0.0002
   11CHTO   O62 4312   6.640   6.447   0.941 -0.0513  0.3062  0.3678
   11CHTO   C91 4313   6.522   6.520   0.975  0.8141  0.0860  0.5715
   11CHTO  H178 4314   6.444   6.475   0.913  0.6572  1.2783 -0.1084
   11CHTO   C92 4315   6.547   6.668   0.926 -0.2464 -0.1833 -0.5883
   11CHTO  H179 4316   6.655   6.689   0.921 -0.3147  0.0272 -1.1072
   11CHTO   O66 4317   6.515   6.676   0.787 -0.0154  0.3089  0.1972
   11CHTO  H166 4318   6.460   6.606   0.759 -0.4598  1.3366 -1.5336
   11CHTO   C93 4319   6.462   6.770   1.014 -0.1373 -0.5281 -0.4002
   11CHTO  H180 4320   6.358   6.759   0.980 -0.1013  0.5162 -0.8407
   11CHTO   N16 4321   6.498   6.912   0.987 -0.0616  0.0850 -0.1243
   11CHTO  H172 4322   6.605   6.922   0.977 -0.1501  0.5761 -0.6063
   11CHTO  H173 4323   6.466   6.984   1.060  0.7614 -0.6001  0.9256
   11CHTO   C94 4324   6.479   6.743   1.164 -0.2739  0.3926  0.2443
   11CHTO  H181 4325   6.583   6.728   1.193 -0.8323  0.2242  2.2616
   11CHTO   O61 4326   6.420   6.614   1.187  0.6788  0.1003  0.3707
   11CHTO   C95 4327   6.488   6.504   1.129 -0.2645  0.1623  0.7928
   11CHTO  H182 4328   6.582   6.492   1.183  0.2200 -0.8224 -0.2529
   11CHTO  C106 4329   6.403   6.377   1.167  0.0253 -0.0730  0.0628
   11CHTO   O69 4330   6.483   6.261   1.137 -0.1598 -0.1009  0.0280
   11CHTO  H169 4331   6.509   6.274   1.048  1.7994 -0.7842  0.4860
   11CHTO   O63 4332   6.412   6.854   1.267 -0.4982  0.5928 -0.0364
   11CHTO   C96 4333   6.455   6.835   1.419 -0.0956  0.9088  0.4259
   11CHTO  H183 4334   6.557   6.797   1.410 -0.0117  1.1864  0.2028
   11CHTO   C98 4335   6.384   6.735   1.519  0.3271 -0.6154  0.6945
   11CHTO  H185 4336   6.276   6.759   1.517  0.4569 -0.1006 -1.6082
   11CHTO   O67 4337   6.384   6.599   1.476 -0.0506 -0.0692  0.0558
   11CHTO  H167 4338   6.362   6.538   1.543  1.5553 -1.1536 -0.3769
   11CHTO  C102 4339   6.459   6.734   1.667  0.8881 -0.2116 -0.0265
   11CHTO  H189 4340   6.550   6.674   1.657  1.6763  0.4957  2.5725
   11CHTO   N18 4341   6.382   6.670   1.776  0.4448 -0.2424  0.2138
   11CHTO  H176 4342   6.325   6.586   1.740 -1.1170  0.5421  0.8345
   11CHTO  H177 4343   6.323   6.752   1.814  0.2691  0.2897 -1.1639
   11CHTO  C105 4344   6.507   6.876   1.706  0.2870 -0.1370 -0.0439
   11CHTO  H192 4345   6.434   6.924   1.770 -2.7657  0.4364 -3.7524
   11CHTO   O65 4346   6.552   6.962   1.596 -0.6918  0.1091 -0.2099
   11CHTO  C100 4347   6.458   6.976   1.489  0.1853  0.1739 -0.3118
   11CHTO  H187 4348   6.357   6.989   1.529  0.2387  0.5870 -0.3087
   11CHTO  C107 4349   6.492   7.095   1.394 -0.1769 -0.0478  0.2607
   11CHTO   O70 4350   6.487   7.221   1.459  0.3155  0.9493 -0.4387
   11CHTO  H170 4351   6.414   7.235   1.516  0.1903 -2.5227  0.3444
   11CHTO   O57 4352   6.632   6.844   1.784 -0.3365 -0.5490 -0.5362
   11CHTO   C85 4353   6.653   6.900   1.918 -0.0750  0.2382  0.4480
   11CHTO  H157 4354   6.556   6.882   1.969 -0.0554 -1.2968 -0.0392
   11CHTO   C83 4355   6.678   7.052   1.918  0.3553 -0.1864 -0.5387
   11CHTO  H155 4356   6.588   7.098   1.877 -1.1086 -2.2178  0.3202
   11CHTO   O56 4357   6.783   7.069   1.820  0.2350 -0.2147  0.0756
   11CHTO  H135 4358   6.868   7.075   1.859  0.1734  0.2538  0.1420
   11CHTO   C81 4359   6.702   7.107   2.058  0.3680  0.4465  0.0548
   11CHTO  H153 4360   6.615   7.087   2.120  0.4158  0.8062  0.2389
   11CHTO   N14 4361   6.711   7.259   2.045  0.1781 -0.2503 -0.1265
   11CHTO  H141 4362   6.811   7.298   2.048 -0.8794  2.5068  0.6498
   11CHTO  H142 4363   6.648   7.309   2.115  0.0105  0.3524 -0.7070
   11CHTO   C79 4364   6.826   7.038   2.121 -0.1092 -0.0614  0.4949
   11CHTO  H151 4365   6.841   7.079   2.221  0.0196  0.0867  0.4162
   11CHTO   O52 4366   6.798   6.887   2.130  0.6206  0.0248 -0.2773
   11CHTO   C86 4367   6.778   6.830   2.000 -0.3518  0.4016 -0.0697
   11CHTO  H158 4368   6.875   6.849   1.951 -0.0618  0.6517  0.5878
   11CHTO   C90 4369   6.770   6.673   2.000 -0.6614  0.2137  0.0764
   11CHTO   O60 4370   6.901   6.623   2.053  0.8665  0.0601  0.2209
   11CHTO  H138 4371   6.921   6.538   2.020  0.8317  0.3942 -0.6765
   11CHTO   O50 4372   6.954   7.063   2.056 -0.6385 -0.0561  0.0953
   11CHTO   C73 4373   7.096   7.079   2.072  0.2797 -1.2684  0.3514
   11CHTO  H145 4374   7.131   7.004   2.144 -0.2600 -1.1635  0.7311
   11CHTO   C74 4375   7.122   7.217   2.142  0.7628 -0.5587  0.4522
   11CHTO  H146 4376   7.047   7.212   2.222 -0.5319  0.1621 -0.6911
   11CHTO   O54 4377   7.251   7.210   2.198 -0.2906 -0.3911 -0.4101
   11CHTO  H133 4378   7.277   7.292   2.235  2.4456 -0.8814 -1.1210
   11CHTO   C75 4379   7.092   7.332   2.041  0.0733 -0.1796 -0.4926
   11CHTO  H147 4380   6.984   7.327   2.020 -0.1462  1.2385  0.2271
   11CHTO   N13 4381   7.123   7.471   2.083 -0.1290 -0.0202  0.1304
   11CHTO  H139 4382   7.092   7.542   2.009 -0.4346 -1.9927 -1.6972
   11CHTO  H140 4383   7.058   7.495   2.166  1.7947  2.5251  0.9468
   11CHTO   C76 4384   7.171   7.304   1.905  0.0736  0.3586  0.3375
   11CHTO  H148 4385   7.278   7.303   1.926  0.1899  0.8397 -0.2298
   11CHTO   O49 4386   7.135   7.174   1.850  0.4520 -0.0252 -0.3821
   11CHTO   C77 4387   7.172   7.061   1.936  0.2049  0.0823 -0.2102
   11CHTO  H149 4388   7.281   7.063   1.945  0.3242  0.9156 -1.6787
   11CHTO   C88 4389   7.144   6.929   1.865 -0.2301 -0.2930 -0.1269
   11CHTO   O58 4390   7.185   6.947   1.711  0.2477 -0.2527  0.3797
   11CHTO  H136 4391   7.170   6.869   1.661  0.2296 -0.1275  0.1910
   11CHTO   O51 4392   7.138   7.404   1.789 -0.0371 -0.4575  0.1778
   11CHTO   C78 4393   7.273   7.434   1.683 -0.3292 -0.2392 -0.6771
   11CHTO  H150 4394   7.366   7.395   1.728 -0.7693 -1.6917 -0.9893
   11CHTO   C80 4395   7.294   7.586   1.669 -0.0030  0.4013  0.0053
   11CHTO  H152 4396   7.200   7.636   1.641 -1.1550 -1.0006  1.2461
   11CHTO   O55 4397   7.320   7.640   1.798 -0.3329 -0.2509 -0.3063
   11CHTO  H134 4398   7.408   7.669   1.814 -0.4944 -1.2166  2.4833
   11CHTO   C84 4399   7.403   7.618   1.560  0.1425 -0.0326  0.3196
   11CHTO  H156 4400   7.493   7.563   1.587  0.7925 -0.2234 -2.0876
   11CHTO   N15 4401   7.444   7.766   1.550 -0.1466  0.2030 -0.6962
   11CHTO  H143 4402   7.495   7.782   1.458  1.7519 -0.4516  0.2105
   11CHTO  H144 4403   7.509   7.800   1.629 -0.4578 -0.7895 -0.0006
   11CHTO   C87 4404   7.360   7.553   1.427 -0.2036  0.0071 -0.4493
   11CHTO  H159 4405   7.267   7.597   1.394 -0.7891 -0.0057  1.1521
   11CHTO   O53 4406   7.349   7.404   1.458 -0.5018  0.4608 -0.4874
   11CHTO   C82 4407   7.241   7.370   1.546  0.0008 -0.2291  0.3217
   11CHTO  H154 4408   7.146   7.409   1.510 -0.4550  1.8950  3.6255
   11CHTO   C89 4409   7.230   7.217   1.563 -0.1390 -0.6603  0.5701
   11CHTO   O59 4410   7.198   7.158   1.434 -0.1469 -0.0151 -0.3611
   11CHTO  H137 4411   7.105   7.153   1.428 -0.2115  0.5013  0.1509
   11CHTO   O45 4412   7.461   7.570   1.314 -0.9558 -0.4793 -0.2892
   11CHTO   C67 4413   7.408   7.549   1.185  0.4208  0.0548 -0.2115
   11CHTO  H124 4414   7.338   7.465   1.191  1.2177 -0.5661  0.4854
   11CHTO   C65 4415   7.328   7.670   1.128  0.2887 -0.1332  0.2422
   11CHTO  H122 4416   7.368   7.753   1.186  0.7984  0.2889 -0.7008
   11CHTO   O44 4417   7.193   7.636   1.155 -0.0233  0.1178  0.2706
   11CHTO  H102 4418   7.146   7.697   1.102  0.2523  0.1025  0.0030
   11CHTO   C63 4419   7.369   7.716   0.984 -0.2530  0.1543  0.4305
   11CHTO  H120 4420   7.470   7.754   0.991 -0.3252  1.2206 -3.2019
   11CHTO   N11 4421   7.297   7.843   0.937 -0.6715  0.4718  0.0133
   11CHTO  H108 4422   7.338   7.874   0.844  3.5599  0.0905  1.6434
   11CHTO  H109 4423   7.194   7.818   0.922 -0.1157 -0.9736 -1.5414
   11CHTO   C61 4424   7.379   7.594   0.888  0.3456  0.1410 -0.3769
   11CHTO  H118 4425   7.431   7.632   0.799 -0.6077 -1.5941 -1.6898
   11CHTO   O40 4426   7.453   7.486   0.940  0.5689  0.0537 -0.1316
   11CHTO   C68 4427   7.512   7.503   1.078  0.0931 -0.7086  0.4232
   11CHTO  H125 4428   7.589   7.582   1.074 -0.9746  0.3414  0.4551
   11CHTO   C72 4429   7.590   7.372   1.121 -0.2091 -0.5484 -0.1038
   11CHTO   O48 4430   7.506   7.261   1.143  0.3328  0.7374 -0.2744
   11CHTO  H105 4431   7.540   7.214   1.217 -0.3469  0.6438 -0.0218
   11CHTO   O38 4432   7.253   7.536   0.843  0.5332 -0.3998  0.2609
   11CHTO   C55 4433   7.261   7.442   0.733 -0.6163  0.5924 -0.1640
   11CHTO  H112 4434   7.368   7.420   0.724 -0.6614  0.3111 -0.0064
   11CHTO   C56 4435   7.206   7.514   0.603 -0.1403  0.4961  0.0018
   11CHTO  H113 4436   7.109   7.555   0.634  0.6388  1.6866  0.9128
   11CHTO   O42 4437   7.285   7.627   0.571  0.0065  0.2995 -0.1530
   11CHTO  H100 4438   7.347   7.644   0.639  0.0480  2.2834 -0.6731
   11CHTO   C57 4439   7.205   7.406   0.480  0.3039  0.4601 -0.5146
   11CHTO  H114 4440   7.308   7.375   0.468  0.9084  1.2795  2.0982
   11CHTO   N10 4441   7.151   7.469   0.353 -0.3524  0.5342 -0.0906
   11CHTO  H106 4442   7.044   7.465   0.347 -0.3985  0.4012  0.7994
   11CHTO  H107 4443   7.199   7.415   0.272 -0.9399  0.0935 -0.1427
   11CHTO   C58 4444   7.131   7.274   0.521  0.0681 -0.2211 -0.1951
   11CHTO  H115 4445   7.025   7.301   0.538  0.4805  0.4212  1.5223
   11CHTO   O37 4446   7.194   7.223   0.642 -0.1419 -0.0395 -0.2096
   11CHTO   C59 4447   7.184   7.305   0.764  0.3315  0.2488  0.0269
   11CHTO  H116 4448   7.082   7.319   0.802  0.6579  0.4795  0.8423
   11CHTO   C70 4449   7.262   7.233   0.876  0.5987  0.2056  0.0443
   11CHTO   O46 4450   7.205   7.268   0.998  0.0342 -0.2502 -0.2195
   11CHTO  H103 4451   7.249   7.232   1.072 -2.3074 -2.5894  0.1014
   11CHTO   O39 4452   7.127   7.156   0.399  0.0295 -0.1683 -0.1623
   11CHTO   C60 4453   7.000   7.130   0.341 -0.1942 -0.2326  0.6546
   11CHTO  H117 4454   6.925   7.197   0.382 -1.1025 -0.5050 -0.5427
   11CHTO   C62 4455   7.005   7.163   0.185 -0.3288  0.6969 -0.1935
   11CHTO  H119 4456   7.034   7.269   0.198 -0.9826  0.9064 -0.4452
   11CHTO   O43 4457   7.109   7.089   0.121  0.2025  0.1805 -0.1688
   11CHTO  H101 4458   7.099   7.105   0.029  2.6899  0.2416 -0.4652
   11CHTO   C66 4459   6.857   7.145   0.126 -0.2955 -0.2643 -0.3383
   11CHTO  H123 4460   6.791   7.215   0.177 -1.3047 -0.8208 -0.8770
   11CHTO   N12 4461   6.858   7.201  -0.009  0.3537  0.3144 -0.9270
   11CHTO  H110 4462   6.870   7.308  -0.001 -1.7577  0.4633  1.0179
   11CHTO  H111 4463   6.767   7.175  -0.061 -0.9160 -0.5849  1.6160
   11CHTO   C69 4464   6.832   6.993   0.130 -0.4790 -0.7380 -0.0796
   11CHTO  H126 4465   6.909   6.934   0.077  1.0706  1.8263 -0.7861
   11CHTO   O41 4466   6.826   6.943   0.301 -0.1613  0.1501 -0.4318
   11CHTO   C64 4467   6.954   6.979   0.372  0.3521  1.0369 -0.2234
   11CHTO  H121 4468   7.036   6.917   0.331 -0.3521  0.6859 -1.1126
   11CHTO   C71 4469   6.941   6.946   0.526 -0.0362 -0.0664  0.1675
   11CHTO   O47 4470   6.917   6.807   0.560 -0.0267 -0.0857  0.4652
   11CHTO  H104 4471   6.872   6.805   0.642  0.2968 -1.1849  0.6281
   11CHTO   O34 4472   6.695   6.945   0.056  0.4568  0.3887  0.6919
   11CHTO   C49 4473   6.636   6.819   0.024 -0.2583  0.0732  0.0479
   11CHTO   H91 4474   6.649   6.806  -0.084  0.1849  0.4201  0.0599
   11CHTO   C47 4475   6.488   6.835   0.069 -0.0533  0.2725  0.2633
   11CHTO   H89 4476   6.440   6.739   0.042  0.3420 -0.9010  3.5549
   11CHTO   O33 4477   6.425   6.941  -0.002  0.0753 -0.7718 -0.3950
   11CHTO   H70 4478   6.448   7.028   0.023 -0.4767 -0.7379  0.0275
   11CHTO   C45 4479   6.479   6.838   0.229 -0.8137 -0.3138  0.2771
   11CHTO   H87 4480   6.544   6.922   0.258 -0.7944 -0.1183 -0.3197
   11CHTO    N8 4481   6.347   6.871   0.283  0.4749  0.2810  0.0792
   11CHTO   H75 4482   6.276   6.793   0.259  0.2022  1.1218 -1.8980
   11CHTO   H76 4483   6.309   6.967   0.252  1.5041  0.2689 -1.2412
   11CHTO   C43 4484   6.539   6.706   0.284 -0.2709 -0.2153  0.0458
   11CHTO   H85 4485   6.530   6.706   0.393  0.5784  0.2853  0.1189
   11CHTO   O29 4486   6.675   6.694   0.245 -0.0347  0.0420 -0.1669
   11CHTO   C50 4487   6.713   6.707   0.105  0.2842 -0.0161  0.3834
   11CHTO   H92 4488   6.821   6.724   0.095  0.1607 -0.0877 -1.1216
   11CHTO   C54 4489   6.702   6.575   0.023 -0.2044 -0.0934 -0.1194
   11CHTO   O36 4490   6.815   6.488   0.045  0.3408  0.0943  0.5186
   11CHTO   H72 4491   6.813   6.409  -0.006  0.0306  0.8551 -0.6716
   11CHTO   O27 4492   6.470   6.588   0.238 -0.0494 -0.4202 -1.0261
   11CHTO   C37 4493   6.393   6.482   0.303 -0.0385  0.2331 -0.0504
   11CHTO   H79 4494   6.471   6.429   0.359  1.0883  2.1580  0.2272
   11CHTO   C38 4495   6.272   6.533   0.396  0.2400  0.1291 -0.4965
   11CHTO   H80 4496   6.220   6.608   0.335  0.6714  2.0147  1.3845
   11CHTO   O31 4497   6.322   6.590   0.519 -0.4183  0.6154 -0.4839
   11CHTO   H68 4498   6.378   6.665   0.507  0.0852  0.3678  0.2399
   11CHTO   C39 4499   6.161   6.424   0.441 -0.2869  0.7180 -0.5968
   11CHTO   H81 4500   6.203   6.374   0.527 -0.6790 -0.6921 -1.2109
   11CHTO    N7 4501   6.032   6.483   0.493 -0.6300  0.2477 -0.3401
   11CHTO   H73 4502   5.993   6.552   0.419 -1.0308 -0.4716 -0.8035
   11CHTO   H74 4503   6.019   6.508   0.597 -1.6717 -1.0571 -0.1343
   11CHTO   C40 4504   6.135   6.310   0.334 -0.0529 -0.3885 -0.0938
   11CHTO   H82 4505   6.056   6.344   0.267  0.6848 -0.6837 -1.1140
   11CHTO   O26 4506   6.253   6.279   0.263  0.1189  0.1772 -0.1389
   11CHTO   C41 4507   6.327   6.387   0.198  0.0282  0.1874 -0.0785
   11CHTO   H83 4508   6.253   6.447   0.143 -0.4541  0.6614  1.0719
   11CHTO   C52 4509   6.438   6.337   0.106  0.2843  0.2206  0.3733
   11CHTO   O35 4510   6.553   6.243   0.168  0.3354 -0.2368  0.4152
   11CHTO   H71 4511   6.591   6.295   0.236  0.4000 -2.0243  1.8060
   11CHTO   O28 4512   6.090   6.186   0.392  0.3612 -0.7494  0.3172
   11CHTO   C42 4513   5.981   6.111   0.335 -0.3725  0.5795 -0.6684
   11CHTO   H84 4514   5.990   6.131   0.229  1.0679  3.5079 -0.0606
   11CHTO   C44 4515   5.843   6.160   0.379  0.5421  0.5207 -0.1941
   11CHTO   H86 4516   5.846   6.177   0.486 -0.7301 -1.3026  0.1525
   11CHTO   O32 4517   5.821   6.287   0.322  0.1169  0.2598  0.3243
   11CHTO   H69 4518   5.766   6.334   0.381  0.6182 -0.0795  1.0826
   11CHTO   C48 4519   5.722   6.070   0.339 -0.4998 -0.1167  0.1983
   11CHTO   H90 4520   5.693   6.074   0.233 -0.5122 -1.1547  0.1526
   11CHTO    N9 4521   5.600   6.117   0.411 -0.2484  0.3648  0.0758
   11CHTO   H77 4522   5.509   6.082   0.366  0.5572 -1.8463  0.1108
   11CHTO   H78 4523   5.599   6.122   0.519  0.4339 -0.5902  0.1356
   11CHTO   C51 4524   5.761   5.925   0.384  0.4872 -0.4152  0.1115
   11CHTO   H93 4525   5.767   5.927   0.493 -0.5981  0.8582  0.1633
   11CHTO   O30 4526   5.880   5.887   0.321 -0.2767 -0.5776 -0.0880
   11CHTO   C46 4527   6.000   5.958   0.365 -0.6402  0.3061 -0.6666
   11CHTO   H88 4528   6.020   5.951   0.472 -1.1394  1.5167 -0.4867
   11CHTO   C53 4529   6.119   5.898   0.280 -0.1032 -0.5659  0.0386
   11CHTO   O72 4530   6.140   5.760   0.320 -0.3228  0.0087 -0.5072
   11CHTO  H199 4531   6.190   5.754   0.399 -0.3635 -0.2850 -0.5035
   11CHTO   O22 4532   5.656   5.830   0.348 -0.3904  0.2565 -0.1807
   11CHTO   C31 4533   5.622   5.722   0.441 -0.2190 -0.5970 -0.2979
   11CHTO   H59 4534   5.719   5.698   0.490  0.2887  2.2818  0.2408
   11CHTO   C29 4535   5.524   5.760   0.555  0.0481  0.7375  0.5261
   11CHTO   H57 4536   5.440   5.811   0.504 -1.8178 -2.0763  0.6627
   11CHTO   O21 4537   5.591   5.857   0.635 -0.4264  0.0514 -0.4636
   11CHTO   H37 4538   5.535   5.894   0.701 -0.4526 -0.4107 -0.2201
   11CHTO   C27 4539   5.471   5.639   0.642  0.4599  0.7415 -0.0454
   11CHTO   H55 4540   5.547   5.622   0.720  0.6820 -1.5922 -0.7360
   11CHTO    N5 4541   5.337   5.669   0.702  0.4810  0.4363  0.1647
   11CHTO   H43 4542   5.344   5.767   0.746 -0.0877 -0.1715  1.6239
   11CHTO   H44 4543   5.261   5.680   0.625  0.4683 -1.8905 -0.1843
   11CHTO   C25 4544   5.465   5.502   0.563 -0.3896  0.4207 -0.3029
   11CHTO   H53 4545   5.373   5.498   0.502 -0.9706  0.2682  0.5735
   11CHTO   O17 4546   5.568   5.491   0.459 -0.3092 -0.2539 -0.3943
   11CHTO   C32 4547   5.584   5.597   0.364 -0.5328 -0.7495  0.4586
   11CHTO   H60 4548   5.500   5.622   0.299 -0.5640  3.1977  1.8824
   11CHTO   C36 4549   5.697   5.558   0.257  0.7858  0.5937  0.2090
   11CHTO   O25 4550   5.827   5.537   0.319  0.4634  0.2202 -0.2734
   11CHTO   H40 4551   5.874   5.478   0.263  1.6149  1.0911 -0.2586
   11CHTO   O15 4552   5.463   5.386   0.657 -0.1025  0.3731 -0.1536
   11CHTO   C19 4553   5.406   5.259   0.691 -0.6327  0.2114 -0.3273
   11CHTO   H47 4554   5.471   5.216   0.769  0.3127 -0.6980 -1.6016
   11CHTO   C20 4555   5.259   5.256   0.750  0.8151 -0.3978 -0.2263
   11CHTO   H48 4556   5.188   5.297   0.676  0.7675  0.0429  0.0655
   11CHTO   O19 4557   5.255   5.336   0.870  0.3666 -0.2843 -0.0203
   11CHTO   H35 4558   5.246   5.274   0.940 -2.4220 -1.5733 -1.4520
   11CHTO   C21 4559   5.205   5.111   0.774  0.6254  0.4350 -0.7197
   11CHTO   H49 4560   5.268   5.068   0.852 -0.5740  0.0692  0.0740
   11CHTO    N4 4561   5.063   5.099   0.824 -1.0109  0.0197 -0.3993
   11CHTO   H41 4562   5.013   5.191   0.797 -0.6505  0.8620  1.7080
   11CHTO   H42 4563   5.008   5.018   0.779 -0.0099 -2.6516  2.9294
   11CHTO   C22 4564   5.219   5.030   0.639 -0.4383  0.3412 -0.8076
   11CHTO   H50 4565   5.172   5.072   0.550 -0.0025  1.4856 -0.5079
   11CHTO   O14 4566   5.361   5.032   0.604  0.1873  0.0987 -0.0288
   11CHTO   C23 4567   5.411   5.160   0.568  0.2599  0.3324 -0.4565
   11CHTO   H51 4568   5.361   5.198   0.478 -0.1157  0.8492 -0.0355
   11CHTO   C34 4569   5.559   5.143   0.535  0.1444  0.8876  0.1579
   11CHTO   O23 4570   5.588   5.046   0.430  0.7929 -0.4890  0.0021
   11CHTO   H38 4571   5.560   4.962   0.461  1.8261 -0.1580  1.9288
   11CHTO   O16 4572   5.212   4.894   0.648 -0.5710  0.5629 -0.0109
   11CHTO   C24 4573   5.156   4.830   0.502 -0.0053  0.4261 -0.4601
   11CHTO   H52 4574   5.143   4.906   0.426  0.2893  0.9702  0.0309
   11CHTO   C26 4575   5.014   4.769   0.523  0.1635 -0.3561  0.0360
   11CHTO   H54 4576   5.029   4.679   0.585  1.6876 -0.1599 -0.0277
   11CHTO   O20 4577   4.922   4.866   0.584 -0.8653  0.0540  0.5287
   11CHTO   H36 4578   4.950   4.882   0.672 -1.5719  1.1253  0.5735
   11CHTO   C30 4579   4.962   4.728   0.385  0.2888 -0.0406 -0.1508
   11CHTO   H58 4580   4.944   4.820   0.327 -2.6953  0.7125  1.8964
   11CHTO    N6 4581   4.833   4.659   0.397  0.0985 -0.3753  0.2199
   11CHTO   H45 4582   4.760   4.724   0.443 -0.2489 -0.5713 -0.0519
   11CHTO   H46 4583   4.797   4.629   0.300 -1.2765 -2.7789  1.4065
   11CHTO   C33 4584   5.066   4.640   0.306 -0.2822 -0.0992 -0.4369
   11CHTO   H61 4585   5.062   4.536   0.342 -1.6275  0.0441 -0.1489
   11CHTO   O18 4586   5.199   4.693   0.316  0.4197 -0.4795  0.0431
   11CHTO   C28 4587   5.249   4.716   0.445 -0.2366 -0.4665 -0.2509
   11CHTO   H56 4588   5.252   4.624   0.503 -1.2280 -0.1257  0.3412
   11CHTO   C35 4589   5.393   4.760   0.453 -0.1184  0.2228 -0.2927
   11CHTO   O24 4590   5.486   4.664   0.402 -0.0277  0.4193  0.1152
   11CHTO   H39 4591   5.491   4.595   0.465  0.8148 -0.5993 -1.0340
   11CHTO    O9 4592   5.026   4.635   0.169  0.4728 -0.2365  0.3760
   11CHTO   C13 4593   5.061   4.754   0.068 -0.3276  0.0422  0.0229
   11CHTO   H26 4594   5.111   4.836   0.124  0.1336  0.6437 -1.2469
   11CHTO   C11 4595   4.919   4.809  -0.001  0.3467  0.4581  1.2295
   11CHTO   H24 4596   4.848   4.832   0.080 -0.4224  0.0295  0.6875
   11CHTO    O8 4597   4.855   4.702  -0.076  0.5086  0.0499  0.3780
   11CHTO    H3 4598   4.851   4.726  -0.167  0.8255 -0.2339  0.2901
   11CHTO    C9 4599   4.966   4.933  -0.084  0.1455  0.1398 -0.1062
   11CHTO   H22 4600   4.976   5.010  -0.007 -0.8138 -0.2520  0.4267
   11CHTO    N2 4601   4.850   4.976  -0.168 -0.2642  0.0694  0.2013
   11CHTO   H10 4602   4.757   4.926  -0.146 -0.0927 -0.2089  0.2935
   11CHTO   H11 4603   4.883   4.979  -0.271  0.9715 -0.0399  0.5783
   11CHTO    C7 4604   5.107   4.906  -0.154 -0.2433  0.7186  0.3455
   11CHTO   H20 4605   5.180   4.960  -0.091 -0.2124  2.8184 -1.4346
   11CHTO    O4 4606   5.132   4.769  -0.174  0.8875 -0.2275 -0.1321
   11CHTO   C14 4607   5.157   4.706  -0.045 -0.1240 -0.4349  0.2096
   11CHTO   H27 4608   5.259   4.746  -0.026 -0.4874  0.9432 -0.6254
   11CHTO   C18 4609   5.168   4.551  -0.061  0.5651  0.1663 -0.1447
   11CHTO   O13 4610   5.219   4.483   0.052 -0.2479  0.0239  0.0232
   11CHTO    H7 4611   5.151   4.478   0.118 -0.7490  0.2286 -0.4743
   11CHTO    O2 4612   5.117   4.974  -0.300  0.0771 -0.3276  0.5062
   11CHTO    C1 4613   5.230   5.059  -0.315  0.2944 -0.2727 -0.6545
   11CHTO   H14 4614   5.306   5.045  -0.235  0.1434  3.2188  0.1852
   11CHTO    C2 4615   5.198   5.206  -0.312 -0.0285 -0.4026  0.0731
   11CHTO   H15 4616   5.133   5.219  -0.401 -0.0983 -1.8954 -0.1116
   11CHTO    O6 4617   5.129   5.236  -0.187 -0.1773  0.0547  0.2893
   11CHTO    H1 4618   5.059   5.177  -0.168  0.0409  0.2431  1.7658
   11CHTO    C3 4619   5.333   5.282  -0.329  0.5934  0.2388  0.2285
   11CHTO   H16 4620   5.403   5.248  -0.252  1.6033 -0.2995 -0.9044
   11CHTO    N1 4621   5.316   5.427  -0.318  0.0969 -0.0791 -0.6643
   11CHTO    H8 4622   5.349   5.447  -0.217 -1.5479  0.6611 -0.2491
   11CHTO    H9 4623   5.369   5.483  -0.394  1.0412 -0.3569 -0.2135
   11CHTO    C4 4624   5.403   5.239  -0.462  0.2309  0.2105 -0.0010
   11CHTO   H17 4625   5.340   5.280  -0.541 -1.2412 -0.0409  1.0046
   11CHTO    O1 4626   5.421   5.098  -0.478  0.5025  0.3926 -0.2134
   11CHTO    C5 4627   5.307   5.013  -0.449 -0.9367  1.4638 -0.2711
   11CHTO   H18 4628   5.245   5.022  -0.538 -0.9182 -0.3122 -0.4870
   11CHTO   C16 4629   5.345   4.867  -0.441  0.1745  0.4030 -0.1357
   11CHTO   O11 4630   5.462   4.852  -0.358  0.5800 -0.4188 -0.6026
   11CHTO    H5 4631   5.436   4.882  -0.273  1.4284 -0.4217 -0.3309
   11CHTO    O3 4632   5.537   5.295  -0.473  0.4897  0.2049 -0.5305
   11CHTO    C6 4633   5.592   5.306  -0.605  0.0411 -0.8142 -0.4778
   11CHTO   H19 4634   5.537   5.248  -0.678  0.2554 -0.2004 -1.1303
   11CHTO    C8 4635   5.592   5.462  -0.655  0.6284  0.4808 -0.2165
   11CHTO   H21 4636   5.645   5.526  -0.585 -0.0734 -1.3259  2.0403
   11CHTO    O7 4637   5.451   5.498  -0.661 -0.2387 -0.3435  0.1121
   11CHTO    H2 4638   5.418   5.507  -0.574 -1.1873 -0.5045 -0.2169
   11CHTO   C12 4639   5.662   5.470  -0.797 -0.3847  0.1292 -0.8149
   11CHTO   H25 4640   5.604   5.401  -0.862 -0.9193  0.0725 -0.2846
   11CHTO    N3 4641   5.652   5.602  -0.861  0.5504 -0.0805 -0.1854
   11CHTO   H12 4642   5.689   5.603  -0.962  2.5843 -0.6587  0.5391
   11CHTO   H13 4643   5.697   5.683  -0.806  0.0654 -1.3311  2.1513
   11CHTO   C15 4644   5.803   5.406  -0.786 -0.8134  0.2058  0.4158
   11CHTO   H28 4645   5.879   5.461  -0.731 -0.5708 -0.3555  0.6436
   11CHTO   O10 4646   5.846   5.375  -0.939  0.3507 -0.2720 -0.3646
   11CHTO    H4 4647   5.918   5.429  -0.966 -0.0850 -0.0330 -1.0450
   11CHTO    O5 4648   5.798   5.274  -0.727 -0.5557  0.1505 -0.5877
   11CHTO   C10 4649   5.739   5.254  -0.602  0.3992 -0.1156 -0.1408
   11CHTO   H23 4650   5.804   5.307  -0.532  0.2523 -0.2095  0.0637
   11CHTO   C17 4651   5.749   5.103  -0.563 -0.1468  0.8486 -0.0142
   11CHTO   O12 4652   5.881   5.072  -0.514 -0.0590  0.3286 -0.4398
   11CHTO    H6 4653   5.939   5.035  -0.578  1.2842  0.2678  0.7966
   12CHTO  H203 4654   5.455   2.072   2.051  0.8415 -1.2079 -1.6944
   12CHTO   O82 4655   5.381   2.014   2.057  0.0114 -0.0179  0.2214
   12CHTO  C123 4656   5.356   1.940   2.177  0.3048 -0.0874  0.0246
   12CHTO  H227 4657   5.330   2.012   2.256  1.2829  1.7401 -1.3073
   12CHTO   O77 4658   5.234   1.863   2.142 -0.5054 -0.0646  0.3717
   12CHTO  C118 4659   5.175   1.780   2.246  0.3992 -0.5101 -0.3554
   12CHTO  H222 4660   5.159   1.841   2.336 -0.3912 -0.8037 -0.2973
   12CHTO  C125 4661   5.040   1.731   2.183  0.2651  0.0954  0.3394
   12CHTO   O84 4662   4.944   1.824   2.221 -0.6129 -0.6747  0.1691
   12CHTO  H205 4663   4.855   1.799   2.206 -0.6094 -1.5018  1.4942
   12CHTO  C114 4664   5.279   1.666   2.266  0.4455 -0.0467 -0.9316
   12CHTO  H218 4665   5.278   1.604   2.176  1.7366 -1.0228 -0.2976
   12CHTO  C116 4666   5.417   1.730   2.308  0.5467  0.6610 -0.2921
   12CHTO  H220 4667   5.405   1.769   2.411 -1.3850 -0.0692 -0.2272
   12CHTO   O79 4668   5.515   1.624   2.311  0.1375 -0.5605 -0.1936
   12CHTO  H201 4669   5.489   1.542   2.276  0.3740 -1.2286  1.1473
   12CHTO  C120 4670   5.472   1.840   2.199  0.1312 -0.5737  0.1257
   12CHTO  H224 4671   5.492   1.789   2.102  0.4123  0.3282 -0.3026
   12CHTO   N21 4672   5.595   1.906   2.250  0.2956  0.5060  0.0458
   12CHTO  H211 4673   5.651   1.841   2.315 -0.3587  1.2663  1.3835
   12CHTO  H212 4674   5.560   1.990   2.308 -2.2846  0.1133 -0.8576
   12CHTO   O75 4675   5.226   1.577   2.363  0.6977  0.1442 -0.2629
   12CHTO  C112 4676   5.183   1.425   2.322  0.3056  0.6025 -0.7752
   12CHTO  H216 4677   5.246   1.400   2.235 -0.6609  0.8889 -1.5704
   12CHTO   O73 4678   5.042   1.418   2.288 -0.1985  0.3699 -0.2864
   12CHTO  C113 4679   4.987   1.291   2.259  0.1096 -0.6972 -0.6506
   12CHTO  H217 4680   5.041   1.245   2.173  2.3768  0.2332  0.2260
   12CHTO  C124 4681   4.841   1.310   2.215  0.2547 -0.1457  0.4130
   12CHTO   O83 4682   4.840   1.348   2.076  0.0024 -0.0965  0.0551
   12CHTO  H204 4683   4.851   1.441   2.078 -1.2742  0.0514  2.5933
   12CHTO  C109 4684   5.002   1.197   2.373  0.4455  0.2521  0.1418
   12CHTO  H213 4685   4.950   1.241   2.460 -0.8983  0.0318 -0.5372
   12CHTO  C110 4686   5.166   1.188   2.400  0.0288 -0.3842 -0.5868
   12CHTO  H214 4687   5.220   1.153   2.313  2.3760  1.3787  0.0931
   12CHTO   O78 4688   5.174   1.093   2.508  0.1001 -0.5392 -0.0128
   12CHTO  H200 4689   5.187   1.004   2.481  1.4264 -0.5101  0.4706
   12CHTO  C111 4690   5.221   1.326   2.440 -0.6556 -0.1906 -0.4983
   12CHTO  H215 4691   5.172   1.356   2.534  2.2953 -0.6957  1.2559
   12CHTO   N19 4692   5.369   1.323   2.470  0.2307 -0.4138 -0.1867
   12CHTO  H207 4693   5.385   1.239   2.536 -0.1625 -0.7546 -0.5239
   12CHTO  H208 4694   5.439   1.330   2.388  1.2674  4.1198  0.9422
   12CHTO   O74 4695   4.947   1.060   2.357  0.3624 -0.9063  0.1441
   12CHTO  C115 4696   4.876   1.003   2.485  0.2792  0.5524  0.1752
   12CHTO  H219 4697   4.919   1.043   2.577 -0.3735  3.9313 -0.9244
   12CHTO   O76 4698   4.728   1.048   2.488  0.8274  0.1178  0.0468
   12CHTO  C122 4699   4.660   1.013   2.371 -0.7259  0.1705  0.2555
   12CHTO  H226 4700   4.705   1.080   2.297 -0.9303  1.4393  1.2558
   12CHTO  C126 4701   4.509   1.060   2.377 -0.5699  0.2609  0.3516
   12CHTO   O85 4702   4.433   1.006   2.265  0.3519  0.1522  0.1033
   12CHTO  H206 4703   4.456   1.047   2.184  1.4269 -1.3625 -0.3782
   12CHTO  C121 4704   4.679   0.865   2.332  0.2726  0.5060  0.3276
   12CHTO  H225 4705   4.578   0.822   2.316  1.2995 -1.8017 -0.2605
   12CHTO   O81 4706   4.749   0.847   2.205  0.4911  0.1714  0.2769
   12CHTO  H202 4707   4.834   0.882   2.221  0.4097  1.0306 -1.1504
   12CHTO  C119 4708   4.746   0.786   2.449 -0.0513  0.3155  0.3063
   12CHTO  H223 4709   4.684   0.790   2.539 -0.6575  0.3878 -0.1153
   12CHTO  C117 4710   4.889   0.847   2.490  0.0994 -0.1902 -0.6496
   12CHTO  H221 4711   4.973   0.822   2.425  1.5812 -2.5033  2.0203
   12CHTO   N20 4712   4.929   0.796   2.625  0.3438  0.3571 -0.0891
   12CHTO  H209 4713   5.025   0.838   2.652 -1.4049  3.0838  2.1970
   12CHTO  H210 4714   4.844   0.812   2.690  0.5726 -0.7523  0.4951
   12CHTO   O80 4715   4.745   0.631   2.413  0.2665  0.0148 -0.4072
   12CHTO  C103 4716   4.612   0.563   2.403  0.1535  1.0413 -0.1852
   12CHTO  H190 4717   4.533   0.628   2.441 -0.6220  1.3598 -2.2720
   12CHTO  C101 4718   4.587   0.512   2.252 -0.0072  0.4262  0.0895
   12CHTO  H188 4719   4.683   0.494   2.204 -0.1838 -0.9465  0.2339
   12CHTO   O68 4720   4.522   0.633   2.171  0.1317  0.3681  0.5319
   12CHTO  H168 4721   4.499   0.602   2.086  0.6547  0.2080  0.4489
   12CHTO   C99 4722   4.491   0.372   2.259  0.3880 -0.0007  0.7205
   12CHTO  H186 4723   4.383   0.395   2.272  0.5779  1.6611 -0.3814
   12CHTO   N17 4724   4.494   0.301   2.122  0.1873 -0.2944 -0.2257
   12CHTO  H174 4725   4.402   0.249   2.099 -0.0571 -0.4576  1.0583
   12CHTO  H175 4726   4.522   0.368   2.042 -0.0729  0.9953  0.7589
   12CHTO   C97 4727   4.521   0.274   2.375 -0.0308  0.3134  0.4694
   12CHTO  H184 4728   4.615   0.220   2.356 -0.3732 -0.9986  2.3015
   12CHTO   O64 4729   4.527   0.346   2.498 -0.4377 -0.3136 -0.3961
   12CHTO  C104 4730   4.630   0.446   2.507 -0.1381 -1.0350 -0.1134
   12CHTO  H191 4731   4.730   0.403   2.502  0.8804  1.2863 -0.2383
   12CHTO  C108 4732   4.622   0.498   2.650 -0.2510  0.6696  0.2788
   12CHTO   O71 4733   4.661   0.405   2.746  0.2200  0.5992  0.1336
   12CHTO  H171 4734   4.700   0.457   2.814  2.0105 -0.9515  0.3512
   12CHTO   O62 4735   4.416   0.180   2.394  0.1606  0.0063  0.3434
   12CHTO   C91 4736   4.445   0.053   2.456  0.6465 -0.4635  0.0908
   12CHTO  H178 4737   4.544   0.060   2.500 -1.2821 -0.7812  4.7738
   12CHTO   C92 4738   4.463  -0.059   2.346 -0.1708 -0.0175  0.7692
   12CHTO  H179 4739   4.381  -0.039   2.275  0.1564 -3.3191 -0.6383
   12CHTO   O66 4740   4.592  -0.032   2.276  0.1312  0.1008 -0.2773
   12CHTO  H166 4741   4.595   0.036   2.212  1.8566  0.2126 -0.1080
   12CHTO   C93 4742   4.471  -0.204   2.401  0.5418 -0.0859  0.9174
   12CHTO  H180 4743   4.571  -0.227   2.441  1.4030 -1.5766 -1.9442
   12CHTO   N16 4744   4.445  -0.306   2.298  0.4261  0.0353 -0.0970
   12CHTO  H172 4745   4.364  -0.281   2.231 -0.3924  1.3094  1.3251
   12CHTO  H173 4746   4.532  -0.317   2.236  1.1724  2.3996  0.4679
   12CHTO   C94 4747   4.363  -0.225   2.523 -0.0366 -0.1899 -0.4613
   12CHTO  H181 4748   4.260  -0.211   2.489 -1.0764  1.6347  3.2316
   12CHTO   O61 4749   4.379  -0.111   2.608  0.6265  0.2351 -0.0845
   12CHTO   C95 4750   4.343   0.016   2.559  0.1628 -0.3538  0.0758
   12CHTO  H182 4751   4.241   0.019   2.522 -0.0273  2.0352  0.6989
   12CHTO  C106 4752   4.340   0.110   2.691 -0.0888 -0.2082 -0.1282
   12CHTO   O69 4753   4.445   0.092   2.783  0.2792 -0.0922 -0.2413
   12CHTO  H169 4754   4.400   0.104   2.865 -0.1636  0.5483 -0.5715
   12CHTO   O63 4755   4.369  -0.374   2.608  0.2435 -0.4379  0.1854
   12CHTO   C96 4756   4.500  -0.398   2.698  0.3181  0.1739  0.5910
   12CHTO  H183 4757   4.560  -0.307   2.698 -0.7716  0.9021  0.3400
   12CHTO   C98 4758   4.577  -0.528   2.651  0.9224  0.0944  0.4567
   12CHTO  H185 4759   4.515  -0.618   2.636  1.0144  0.0473  0.3520
   12CHTO   O67 4760   4.629  -0.498   2.518  0.7386 -0.2219  0.4876
   12CHTO  H167 4761   4.681  -0.571   2.491  0.7397 -0.5948  1.4823
   12CHTO  C102 4762   4.695  -0.569   2.754 -0.1325 -0.5247 -0.0637
   12CHTO  H189 4763   4.777  -0.498   2.737 -1.6521  0.9324 -1.4833
   12CHTO   N18 4764   4.756  -0.700   2.710  0.5212  0.0865  0.3450
   12CHTO  H176 4765   4.690  -0.786   2.715  1.3146 -0.5629 -0.3869
   12CHTO  H177 4766   4.804  -0.697   2.614 -1.0136  0.0626 -0.4461
   12CHTO  C105 4767   4.639  -0.567   2.896  0.0092 -0.1495 -0.0883
   12CHTO  H192 4768   4.566  -0.648   2.909  2.2534 -2.1155  0.6582
   12CHTO   O65 4769   4.565  -0.448   2.939 -0.5328 -0.2877 -0.1767
   12CHTO  C100 4770   4.451  -0.419   2.855  0.1239 -0.5369 -0.0777
   12CHTO  H187 4771   4.384  -0.506   2.865 -1.4232  0.4530 -1.6631
   12CHTO  C107 4772   4.384  -0.294   2.906  0.2060  0.1595 -0.2487
   12CHTO   O70 4773   4.252  -0.273   2.839 -0.4610 -0.0042 -0.4791
   12CHTO  H170 4774   4.190  -0.261   2.909  0.4243  0.5517  0.2275
   12CHTO   O57 4775   4.765  -0.610   3.008  0.3986 -0.0077 -0.4751
   12CHTO   C85 4776   4.716  -0.691   3.116  0.6445  0.3170 -0.6273
   12CHTO  H157 4777   4.643  -0.760   3.070  0.2466  1.6579 -2.0221
   12CHTO   C83 4778   4.643  -0.604   3.221 -1.1235 -0.6459 -0.6826
   12CHTO  H155 4779   4.553  -0.563   3.176 -1.0260 -0.6144 -0.8499
   12CHTO   O56 4780   4.729  -0.495   3.259  0.5061 -0.2709  0.1979
   12CHTO  H135 4781   4.683  -0.437   3.317 -0.6221 -0.4184 -0.5272
   12CHTO   C81 4782   4.592  -0.702   3.338  0.6195  0.1365 -0.3427
   12CHTO  H153 4783   4.524  -0.776   3.294 -1.0792  1.3438  0.1694
   12CHTO   N14 4784   4.494  -0.647   3.431  0.4276  0.7235  0.0925
   12CHTO  H141 4785   4.480  -0.708   3.518 -1.2641  1.7157  0.5526
   12CHTO  H142 4786   4.530  -0.549   3.456  2.1163 -0.4486  2.4081
   12CHTO   C79 4787   4.721  -0.777   3.394  0.0773  0.1954 -0.4881
   12CHTO  H151 4788   4.686  -0.848   3.470  1.8800  1.4974  1.6127
   12CHTO   O52 4789   4.794  -0.856   3.294 -0.1351 -0.7226 -0.0865
   12CHTO   C86 4790   4.838  -0.777   3.182  0.1319  0.1586 -0.0875
   12CHTO  H158 4791   4.910  -0.699   3.215  2.8036 -1.3498 -2.0747
   12CHTO   C90 4792   4.917  -0.868   3.082  0.3844  0.5375 -0.0768
   12CHTO   O60 4793   4.822  -0.968   3.027  0.1370  0.2723  0.6639
   12CHTO  H138 4794   4.788  -1.018   3.098  0.7675 -0.4193  0.4865
   12CHTO   O50 4795   4.810  -0.685   3.455 -0.3275  0.3882 -0.4910
   12CHTO   C73 4796   4.839  -0.704   3.594  0.7360  0.0549 -0.2000
   12CHTO  H145 4797   4.753  -0.756   3.639  0.3093 -0.8624 -2.0080
   12CHTO   C74 4798   4.850  -0.569   3.664 -0.3036 -0.6805 -0.4730
   12CHTO  H146 4799   4.747  -0.531   3.652  0.6568  1.4312 -2.4297
   12CHTO   O54 4800   4.881  -0.590   3.806 -0.5731 -0.3875 -0.5910
   12CHTO  H133 4801   4.946  -0.531   3.839 -0.3387 -1.4840  0.9554
   12CHTO   C75 4802   4.951  -0.483   3.586 -0.3528  0.1997 -0.2441
   12CHTO  H147 4803   4.908  -0.464   3.486 -0.1186  0.9111 -0.2159
   12CHTO   N13 4804   4.970  -0.346   3.638  0.3790  0.6324  0.1859
   12CHTO  H139 4805   5.033  -0.288   3.573 -1.3063 -1.5087 -3.4937
   12CHTO  H140 4806   5.000  -0.355   3.742  2.7654 -0.6350 -0.5652
   12CHTO   C76 4807   5.091  -0.568   3.572  0.0218 -0.4418  0.4417
   12CHTO  H148 4808   5.135  -0.574   3.672  0.0979  0.2689  0.4514
   12CHTO   O49 4809   5.070  -0.708   3.529  0.0082  0.5874 -0.0700
   12CHTO   C77 4810   4.973  -0.784   3.605  0.0712  0.0864 -0.0728
   12CHTO  H149 4811   5.005  -0.794   3.708  0.6257  0.4900 -0.2036
   12CHTO   C88 4812   4.962  -0.934   3.560  0.0696  0.1273  0.0949
   12CHTO   O58 4813   5.089  -1.010   3.569 -0.9227 -0.1883  0.5843
   12CHTO  H136 4814   5.129  -0.992   3.652 -1.7602  0.5689  0.8368
   12CHTO   O51 4815   5.193  -0.489   3.474 -1.2330 -0.3048 -0.2345
   12CHTO   C78 4816   5.349  -0.568   3.458 -0.0301  0.3548  0.1476
   12CHTO  H150 4817   5.344  -0.660   3.520 -2.9003  0.8178  0.6633
   12CHTO   C80 4818   5.468  -0.476   3.507 -0.1903 -0.0587 -0.2058
   12CHTO  H152 4819   5.454  -0.371   3.473 -1.6529  0.4925  2.0031
   12CHTO   O55 4820   5.455  -0.470   3.647  0.0122 -0.2995 -0.3041
   12CHTO  H134 4821   5.476  -0.545   3.698  0.7338  0.1539  0.0738
   12CHTO   C84 4822   5.606  -0.539   3.472 -0.6335  0.2487  0.9249
   12CHTO  H156 4823   5.618  -0.625   3.538 -0.9358 -0.4087  0.1316
   12CHTO   N15 4824   5.711  -0.449   3.508  0.4795  0.1228 -0.1168
   12CHTO  H143 4825   5.735  -0.448   3.613  0.0126 -0.6622  0.0013
   12CHTO  H144 4826   5.798  -0.474   3.452  1.5356  1.2270  0.9800
   12CHTO   C87 4827   5.610  -0.576   3.318 -0.6756 -0.0131  0.1492
   12CHTO  H159 4828   5.617  -0.479   3.268  1.1255  1.1184  2.4516
   12CHTO   O53 4829   5.489  -0.670   3.276  0.5638 -0.6391 -0.1948
   12CHTO   C82 4830   5.364  -0.606   3.312 -0.2153 -0.6859 -0.2411
   12CHTO  H154 4831   5.354  -0.518   3.249  1.5437 -0.3056 -0.0240
   12CHTO   C89 4832   5.250  -0.706   3.264  0.2378 -0.3260  0.3582
   12CHTO   O59 4833   5.238  -0.825   3.346  0.0330 -0.2116  0.1784
   12CHTO  H137 4834   5.186  -0.888   3.300  0.2740 -0.0849 -0.2671
   12CHTO   O45 4835   5.740  -0.671   3.301  0.1071  0.2462  0.1376
   12CHTO   C67 4836   5.801  -0.673   3.173  0.5361  0.2631 -0.1701
   12CHTO  H124 4837   5.879  -0.749   3.169 -0.0396 -0.2477 -3.3737
   12CHTO   C65 4838   5.706  -0.705   3.051  0.2607 -0.1816  0.3308
   12CHTO  H122 4839   5.614  -0.740   3.097  0.6222 -0.3016  0.9752
   12CHTO   O44 4840   5.771  -0.812   2.976  0.3828  0.1248  0.4221
   12CHTO  H102 4841   5.700  -0.866   2.945 -0.8264 -0.1263  3.4635
   12CHTO   C63 4842   5.667  -0.579   2.969 -0.0788 -0.2444 -0.2311
   12CHTO  H120 4843   5.618  -0.512   3.040  1.5582 -0.4892  1.1764
   12CHTO   N11 4844   5.568  -0.598   2.862 -0.4614  0.1424  0.0400
   12CHTO  H108 4845   5.590  -0.689   2.810  1.1872 -0.0375  1.0175
   12CHTO  H109 4846   5.468  -0.593   2.901 -0.0434 -2.7252  1.6875
   12CHTO   C61 4847   5.800  -0.512   2.909 -0.0809  0.3686 -0.7664
   12CHTO  H118 4848   5.789  -0.414   2.860  0.0602  0.2499 -1.0339
   12CHTO   O40 4849   5.900  -0.498   3.017 -0.1570  0.1604 -0.2955
   12CHTO   C68 4850   5.866  -0.534   3.150 -1.0975  0.4688  0.2644
   12CHTO  H125 4851   5.799  -0.451   3.183 -1.7110  0.5432 -1.1696
   12CHTO   C72 4852   6.006  -0.515   3.227  0.2396 -0.2547  0.7982
   12CHTO   O48 4853   5.983  -0.542   3.365 -0.1367 -0.0356 -0.3240
   12CHTO  H105 4854   5.934  -0.470   3.401  0.5836 -1.0251  2.7056
   12CHTO   O38 4855   5.867  -0.601   2.822 -0.2890 -0.2411  0.2435
   12CHTO   C55 4856   5.955  -0.539   2.734 -0.0834 -0.1110 -0.5148
   12CHTO  H112 4857   5.978  -0.438   2.771 -0.2331 -1.1922  2.6904
   12CHTO   C56 4858   5.891  -0.538   2.587 -0.5072  0.2431  0.3271
   12CHTO  H113 4859   5.857  -0.639   2.561 -1.9036  0.5140  1.0651
   12CHTO   O42 4860   5.773  -0.462   2.577  0.3559 -0.4471  0.1694
   12CHTO  H100 4861   5.701  -0.510   2.614  0.8112  1.3667  3.5540
   12CHTO   C57 4862   6.005  -0.497   2.486 -0.1553 -0.4404 -0.1635
   12CHTO  H114 4863   6.018  -0.389   2.494  0.1127 -0.6850  3.2442
   12CHTO   N10 4864   5.964  -0.515   2.344 -0.0604 -0.1962  0.3302
   12CHTO  H106 4865   6.020  -0.449   2.280  1.0255 -0.7396  0.7029
   12CHTO  H107 4866   5.858  -0.501   2.327 -0.2065 -0.6943  0.8256
   12CHTO   C58 4867   6.146  -0.557   2.511 -0.0173  0.5877 -0.1522
   12CHTO  H115 4868   6.147  -0.666   2.487 -0.1718  0.6830 -0.5955
   12CHTO   O37 4869   6.186  -0.551   2.646 -0.0950  0.4943 -0.1173
   12CHTO   C59 4870   6.096  -0.615   2.738  0.7587 -0.5639 -0.2364
   12CHTO  H116 4871   6.088  -0.717   2.699 -2.3006  0.1730 -1.6623
   12CHTO   C70 4872   6.159  -0.611   2.878 -0.0580 -0.2674 -0.3240
   12CHTO   O46 4873   6.127  -0.730   2.958 -0.0131  0.2264 -0.1333
   12CHTO  H103 4874   6.143  -0.695   3.044 -1.0993 -0.4001  0.3391
   12CHTO   O39 4875   6.254  -0.487   2.439 -0.2043 -0.3286 -0.8021
   12CHTO   C60 4876   6.386  -0.545   2.439  0.4114 -0.2853  0.4449
   12CHTO  H117 4877   6.414  -0.607   2.524  0.6666 -0.5817  0.1494
   12CHTO   C62 4878   6.393  -0.653   2.327  0.3020 -0.0670  0.0483
   12CHTO  H119 4879   6.312  -0.724   2.355  0.0005  0.7891  1.4262
   12CHTO   O43 4880   6.364  -0.591   2.202 -0.2438  0.5248  0.2120
   12CHTO  H101 4881   6.271  -0.586   2.194 -0.2777 -0.8847 -0.5120
   12CHTO   C66 4882   6.531  -0.729   2.326 -0.2106  0.5089 -0.0404
   12CHTO  H123 4883   6.547  -0.771   2.425 -0.4899  1.3011  0.3484
   12CHTO   N12 4884   6.541  -0.838   2.221  0.2988 -0.7294 -0.4376
   12CHTO  H110 4885   6.469  -0.909   2.258 -0.9822  1.0328  0.5646
   12CHTO  H111 4886   6.635  -0.889   2.232  0.7650  0.6254  2.2992
   12CHTO   C69 4887   6.642  -0.626   2.302 -0.3274 -0.2629 -0.4165
   12CHTO  H126 4888   6.644  -0.578   2.202  4.7091 -0.1568 -0.3895
   12CHTO   O41 4889   6.625  -0.504   2.398 -0.1649 -0.9448  0.3950
   12CHTO   C64 4890   6.506  -0.444   2.414 -0.8517  0.2146  0.3196
   12CHTO  H121 4891   6.478  -0.385   2.325  0.8113 -2.5175 -2.0988
   12CHTO   C71 4892   6.498  -0.340   2.532  0.2860  0.4395 -0.3002
   12CHTO   O47 4893   6.565  -0.397   2.641  0.1722 -0.1980 -0.6813
   12CHTO  H104 4894   6.588  -0.324   2.695 -2.0986  0.0323  0.0400
   12CHTO   O34 4895   6.788  -0.690   2.329  0.2071 -0.0097 -0.3970
   12CHTO   C49 4896   6.897  -0.677   2.451  0.6912 -0.1304  0.2665
   12CHTO   H91 4897   6.983  -0.622   2.412  1.6146 -2.6735 -1.4221
   12CHTO   C47 4898   6.943  -0.825   2.471  0.3746 -0.1531  0.4649
   12CHTO   H89 4899   7.026  -0.824   2.544  1.6828  0.1985 -0.9887
   12CHTO   O33 4900   6.995  -0.887   2.346  0.2042  0.0822 -0.0504
   12CHTO   H70 4901   7.035  -0.968   2.372 -1.3663 -0.2397  1.4789
   12CHTO   C45 4902   6.825  -0.922   2.522 -0.3943  0.0090 -0.0957
   12CHTO   H87 4903   6.749  -0.924   2.443  0.1095 -1.4413 -0.5614
   12CHTO    N8 4904   6.858  -1.064   2.542 -0.1042 -0.8263 -0.0673
   12CHTO   H75 4905   6.799  -1.128   2.479  1.7419 -1.1725 -1.5153
   12CHTO   H76 4906   6.965  -1.072   2.523 -0.3764 -2.8288 -0.8323
   12CHTO   C43 4907   6.763  -0.850   2.658 -1.1278  0.6996 -0.1329
   12CHTO   H85 4908   6.670  -0.903   2.678 -0.0127 -1.0260  0.5873
   12CHTO   O29 4909   6.739  -0.710   2.632 -0.3212 -0.1339  0.0359
   12CHTO   C50 4910   6.841  -0.623   2.587 -0.2956  0.3275  0.4387
   12CHTO   H92 4911   6.806  -0.519   2.573 -4.1936 -0.9473  0.1936
   12CHTO   C54 4912   6.954  -0.604   2.690 -0.1703 -0.0584  0.3364
   12CHTO   O36 4913   6.928  -0.508   2.790 -0.4278 -0.1383 -0.6940
   12CHTO   H72 4914   6.995  -0.443   2.781  2.1587 -2.5842  0.0785
   12CHTO   O27 4915   6.830  -0.876   2.780  0.0065 -0.2611 -0.3775
   12CHTO   C37 4916   6.772  -0.879   2.915  0.0529  0.3794 -0.0393
   12CHTO   H79 4917   6.857  -0.875   2.985 -1.3957 -2.1377  1.8957
   12CHTO   C38 4918   6.689  -0.757   2.957  0.1207 -0.0178 -0.4852
   12CHTO   H80 4919   6.613  -0.745   2.879 -0.8826  0.4232  0.5554
   12CHTO   O31 4920   6.777  -0.644   2.971 -0.5926  0.4762  0.0967
   12CHTO   H68 4921   6.817  -0.634   2.887 -1.1839 -0.0695 -0.2512
   12CHTO   C39 4922   6.610  -0.777   3.088  0.2578  0.3304  0.0834
   12CHTO   H81 4923   6.690  -0.777   3.162  0.0166 -0.2630  0.3473
   12CHTO    N7 4924   6.509  -0.666   3.117  0.1800 -0.0671  0.1698
   12CHTO   H73 4925   6.477  -0.671   3.220 -1.9012 -0.9709 -0.5100
   12CHTO   H74 4926   6.566  -0.575   3.101  0.1071  0.1199  0.9397
   12CHTO   C40 4927   6.548  -0.917   3.083  0.2526  0.4265 -0.0790
   12CHTO   H82 4928   6.464  -0.930   3.014 -1.7586 -1.8268  2.6637
   12CHTO   O26 4929   6.639  -1.022   3.066 -0.3256  0.1362  0.3837
   12CHTO   C41 4930   6.704  -1.020   2.935  0.3377 -0.0610  0.5526
   12CHTO   H83 4931   6.636  -1.046   2.852  1.6093 -1.2576 -0.1285
   12CHTO   C52 4932   6.822  -1.120   2.940  0.0997  0.3896 -0.1349
   12CHTO   O35 4933   6.783  -1.242   2.966  0.0999  0.4777  0.2193
   12CHTO   H71 4934   6.777  -1.289   2.885 -2.2995  0.1158  0.5674
   12CHTO   O28 4935   6.492  -0.943   3.209 -0.5540 -0.2624 -0.2687
   12CHTO   C42 4936   6.377  -1.036   3.238  0.6121  0.3090 -0.2614
   12CHTO   H84 4937   6.402  -1.078   3.335  1.5479 -0.8735 -1.0055
   12CHTO   C44 4938   6.354  -1.162   3.138 -0.3392  0.6248  0.4499
   12CHTO   H86 4939   6.339  -1.128   3.035  1.7277 -0.2512 -0.1747
   12CHTO   O32 4940   6.473  -1.247   3.149  0.2536 -0.6759 -0.3349
   12CHTO   H69 4941   6.516  -1.250   3.066 -0.7598 -0.4127 -0.8729
   12CHTO   C48 4942   6.223  -1.255   3.175  1.1812 -0.4079  0.2707
   12CHTO   H90 4943   6.238  -1.309   3.268 -1.1075  0.8739  1.4361
   12CHTO    N9 4944   6.194  -1.367   3.075 -0.1926  0.6272 -0.2993
   12CHTO   H77 4945   6.130  -1.439   3.122 -0.0238  1.3550  1.0655
   12CHTO   H78 4946   6.283  -1.410   3.031  0.5218  1.9086 -0.1415
   12CHTO   C51 4947   6.100  -1.161   3.192 -0.3627  0.1566  0.1947
   12CHTO   H93 4948   6.067  -1.122   3.096  0.4049  0.4955  0.0613
   12CHTO   O30 4949   6.135  -1.058   3.284 -0.3670 -0.3183 -0.0371
   12CHTO   C46 4950   6.236  -0.968   3.245 -0.1126 -0.1561 -0.0829
   12CHTO   H88 4951   6.218  -0.931   3.144 -0.7372  0.8136  0.3689
   12CHTO   C53 4952   6.233  -0.839   3.341 -0.5918 -0.6816 -0.3296
   12CHTO   O72 4953   6.222  -0.877   3.478 -0.2901  0.2539 -0.3261
   12CHTO  H199 4954   6.219  -0.797   3.526 -2.8644 -0.6008  1.0481
   12CHTO   O22 4955   5.987  -1.241   3.249  0.4834 -0.1675  0.1792
   12CHTO   C31 4956   5.847  -1.199   3.262 -0.3498  0.4714 -0.1787
   12CHTO   H59 4957   5.795  -1.287   3.306  1.6455 -1.3081 -1.2519
   12CHTO   C29 4958   5.805  -1.075   3.339 -0.9720 -0.3109 -0.2563
   12CHTO   H57 4959   5.838  -0.987   3.281 -1.4143  0.1901  0.2466
   12CHTO   O21 4960   5.882  -1.059   3.458 -0.4647 -0.4169 -0.0261
   12CHTO   H37 4961   5.837  -1.008   3.522 -0.6434  1.6092 -1.6827
   12CHTO   C27 4962   5.646  -1.077   3.359 -0.3888  0.6914  0.2716
   12CHTO   H55 4963   5.617  -1.168   3.414  1.1021 -1.0685 -1.7817
   12CHTO    N5 4964   5.596  -0.963   3.436  0.5085 -0.2835  0.0951
   12CHTO   H43 4965   5.512  -0.996   3.495  0.7173 -1.1318 -0.0758
   12CHTO   H44 4966   5.670  -0.934   3.509 -0.2076  0.5238  0.5077
   12CHTO   C25 4967   5.584  -1.076   3.212 -0.2845  0.1685 -0.4422
   12CHTO   H53 4968   5.606  -0.976   3.171  0.2392  0.3419  0.2463
   12CHTO   O17 4969   5.637  -1.173   3.122 -0.5133 -0.1822  0.6061
   12CHTO   C32 4970   5.781  -1.184   3.118 -0.0029 -0.3238  0.6070
   12CHTO   H60 4971   5.821  -1.095   3.072 -1.7967  0.5204  0.6413
   12CHTO   C36 4972   5.806  -1.301   3.019 -0.6953 -0.2243 -0.6167
   12CHTO   O25 4973   5.775  -1.266   2.881  0.0300  0.9963 -0.4410
   12CHTO   H40 4974   5.683  -1.251   2.874 -0.4335 -0.9695  1.3049
   12CHTO   O15 4975   5.419  -1.106   3.216  0.4411 -0.1675  0.2685
   12CHTO   C19 4976   5.319  -1.090   3.123  0.5065  0.1603 -0.3980
   12CHTO   H47 4977   5.266  -1.000   3.156  0.6128  0.3695 -0.7879
   12CHTO   C20 4978   5.363  -1.069   2.978  1.0021  0.0301 -0.3820
   12CHTO   H48 4979   5.414  -1.157   2.936 -0.4529 -1.5778  1.1676
   12CHTO   O19 4980   5.454  -0.960   2.972 -0.2346  0.2880  0.1587
   12CHTO   H35 4981   5.482  -0.944   2.883 -0.2676  1.3930  0.3375
   12CHTO   C21 4982   5.233  -1.036   2.892  0.4305  0.4960 -0.7272
   12CHTO   H49 4983   5.185  -0.946   2.930 -0.1402  0.2783 -0.9337
   12CHTO    N4 4984   5.277  -1.008   2.752 -0.1589  0.0027 -0.4239
   12CHTO   H41 4985   5.341  -0.920   2.754 -3.2565  2.3488  0.3179
   12CHTO   H42 4986   5.192  -0.988   2.690 -1.6093  2.2213  2.1525
   12CHTO   C22 4987   5.134  -1.157   2.910  1.2155  0.1512  0.7905
   12CHTO   H50 4988   5.194  -1.244   2.881 -0.3372 -0.8182  0.4580
   12CHTO   O14 4989   5.106  -1.164   3.053 -0.1924  0.1759 -0.0411
   12CHTO   C23 4990   5.219  -1.210   3.130 -0.5360 -0.3763 -0.1781
   12CHTO   H51 4991   5.262  -1.299   3.083  1.8576  0.4574  0.3899
   12CHTO   C34 4992   5.181  -1.236   3.275 -0.1379 -0.1537 -0.3199
   12CHTO   O23 4993   5.065  -1.325   3.272 -0.1717 -0.1133  0.4874
   12CHTO   H38 4994   5.094  -1.411   3.250  0.0560 -0.0904  0.6883
   12CHTO   O16 4995   5.012  -1.137   2.842  0.7705 -0.0049  0.4001
   12CHTO   C24 4996   4.948  -1.236   2.755 -0.2476 -0.0606  0.0361
   12CHTO   H52 4997   5.012  -1.322   2.736 -0.9603 -0.4027 -0.8632
   12CHTO   C26 4998   4.921  -1.176   2.621  0.4419  0.4885  1.1999
   12CHTO   H54 4999   4.863  -1.083   2.635  0.2325  0.5583 -0.0734
   12CHTO   O20 5000   5.041  -1.129   2.554 -0.2890  0.3152  0.2285
   12CHTO   H36 5001   5.018  -1.086   2.474 -1.1249  2.7945  1.7478
   12CHTO   C30 5002   4.846  -1.286   2.532 -0.5378  0.4329  0.0650
   12CHTO   H58 5003   4.924  -1.361   2.511 -0.7280  0.6505 -1.4567
   12CHTO    N6 5004   4.808  -1.231   2.397 -0.1071  0.0782  0.3495
   12CHTO   H45 5005   4.727  -1.290   2.359  0.3330 -0.6500  0.5307
   12CHTO   H46 5006   4.893  -1.237   2.330 -0.0498 -0.5382  0.4739
   12CHTO   C33 5007   4.725  -1.356   2.606  0.1238 -0.4205 -0.2586
   12CHTO   H61 5008   4.649  -1.277   2.615  0.9301  0.0693  2.5662
   12CHTO   O18 5009   4.771  -1.394   2.737  0.2423 -0.4950  0.0922
   12CHTO   C28 5010   4.810  -1.291   2.822 -0.2933 -0.3303  0.0840
   12CHTO   H56 5011   4.737  -1.210   2.817  0.7083  0.4614 -2.9629
   12CHTO   C35 5012   4.827  -1.341   2.967  0.4996 -0.4534 -0.3441
   12CHTO   O24 5013   4.715  -1.427   3.003  0.2494  0.1305 -0.8485
   12CHTO   H39 5014   4.655  -1.380   3.056 -1.0759 -2.7677  0.2908
   12CHTO    O9 5015   4.667  -1.468   2.532  0.0875 -1.1412 -0.0990
   12CHTO   C13 5016   4.768  -1.609   2.544 -0.3555 -0.2242 -0.0312
   12CHTO   H26 5017   4.874  -1.576   2.551 -0.5228  0.2981  0.0243
   12CHTO   C11 5018   4.744  -1.692   2.419 -0.2787 -0.4170  0.4288
   12CHTO   H24 5019   4.791  -1.628   2.342  0.9760 -0.0421  1.4729
   12CHTO    O8 5020   4.605  -1.712   2.392 -0.2183  0.2808 -0.6470
   12CHTO    H3 5021   4.591  -1.730   2.301 -1.7924 -1.6410 -0.0684
   12CHTO    C9 5022   4.837  -1.817   2.434  0.6499  0.4153  0.1875
   12CHTO   H22 5023   4.934  -1.776   2.465  0.5402  1.7050 -1.1172
   12CHTO    N2 5024   4.873  -1.889   2.304 -0.3458 -0.1333 -0.7458
   12CHTO   H10 5025   4.963  -1.848   2.259  1.3543 -1.3425  1.4489
   12CHTO   H11 5026   4.884  -1.993   2.329  0.4998  0.2178  0.3692
   12CHTO    C7 5027   4.788  -1.899   2.556  0.3192 -0.7135 -0.3499
   12CHTO   H20 5028   4.875  -1.967   2.568  0.3120 -0.7751 -0.6395
   12CHTO    O4 5029   4.769  -1.829   2.677  0.5431 -0.6530  0.1337
   12CHTO   C14 5030   4.718  -1.695   2.668  0.0047  0.0171 -0.6017
   12CHTO   H27 5031   4.769  -1.649   2.756  2.4715 -2.4991 -0.6452
   12CHTO   C18 5032   4.563  -1.695   2.701  0.2327 -0.3371  0.1867
   12CHTO   O13 5033   4.539  -1.694   2.841 -0.0671 -0.0397  0.4819
   12CHTO    H7 5034   4.459  -1.652   2.865 -0.7272  1.0113 -3.2097
   12CHTO    O2 5035   4.657  -1.973   2.523 -0.3429  0.2857 -0.5756
   12CHTO    C1 5036   4.666  -2.113   2.536  0.1416  0.6085 -0.6249
   12CHTO   H14 5037   4.731  -2.135   2.623 -0.4403 -1.5868 -0.7229
   12CHTO    C2 5038   4.715  -2.199   2.401 -0.3739 -0.5453 -0.6442
   12CHTO   H15 5039   4.674  -2.156   2.309 -0.8146  1.1668  0.3353
   12CHTO    O6 5040   4.863  -2.194   2.411 -0.5333  0.4245 -0.1804
   12CHTO    H1 5041   4.896  -2.253   2.475 -2.5288  0.2144  0.6789
   12CHTO    C3 5042   4.672  -2.355   2.413 -0.7493 -0.6695 -0.4228
   12CHTO   H16 5043   4.739  -2.401   2.486  0.0260  0.9494 -0.1034
   12CHTO    N1 5044   4.700  -2.427   2.289  0.5331  0.1224 -0.3723
   12CHTO    H8 5045   4.746  -2.519   2.319 -0.5250 -0.7533 -1.3920
   12CHTO    H9 5046   4.609  -2.463   2.242  0.9035 -3.4334  1.4529
   12CHTO    C4 5047   4.522  -2.376   2.467  0.2549 -0.4820  0.0734
   12CHTO   H17 5048   4.454  -2.334   2.393 -0.4097  0.0914  1.0016
   12CHTO    O1 5049   4.509  -2.299   2.586 -0.3906 -0.0375 -0.2003
   12CHTO    C5 5050   4.522  -2.158   2.578  0.1575  0.7636 -0.6567
   12CHTO   H18 5051   4.448  -2.129   2.504  2.8973  3.2272 -2.5684
   12CHTO   C16 5052   4.483  -2.092   2.716 -0.6755 -0.4004 -0.2255
   12CHTO   O11 5053   4.365  -2.151   2.768  0.1370  0.2512  0.3803
   12CHTO    H5 5054   4.302  -2.135   2.700  0.3012 -0.9880 -0.0733
   12CHTO    O3 5055   4.500  -2.517   2.494  0.5684 -0.0827  0.1778
   12CHTO    C6 5056   4.375  -2.566   2.551 -0.9131 -0.8727 -0.2902
   12CHTO   H19 5057   4.315  -2.485   2.591  1.1292 -0.4231  1.9565
   12CHTO    C8 5058   4.288  -2.646   2.444  0.1774 -0.3462  0.1989
   12CHTO   H21 5059   4.349  -2.729   2.408 -1.6582 -1.5739 -0.1205
   12CHTO    O7 5060   4.264  -2.555   2.337 -0.0491  0.1025  0.7359
   12CHTO    H2 5061   4.244  -2.468   2.368 -1.2585  0.7872 -1.7329
   12CHTO   C12 5062   4.152  -2.695   2.502  0.1566 -0.6626 -0.2176
   12CHTO   H25 5063   4.091  -2.607   2.530  1.8075  1.2107 -2.2668
   12CHTO    N3 5064   4.086  -2.775   2.394 -0.3002  0.5037  0.7838
   12CHTO   H12 5065   3.987  -2.807   2.425 -0.7752  0.6565 -0.5129
   12CHTO   H13 5066   4.148  -2.857   2.360 -1.2289 -0.0332  0.3578
   12CHTO   C15 5067   4.187  -2.776   2.634 -0.4015  0.4443 -0.2085
   12CHTO   H28 5068   4.212  -2.882   2.621 -0.4868  0.0456  2.6617
   12CHTO   O10 5069   4.041  -2.773   2.742  0.0354 -0.2815  0.0569
   12CHTO    H4 5070   3.980  -2.732   2.684 -0.0419  1.4057  1.2791
   12CHTO    O5 5071   4.278  -2.706   2.722  0.0019  0.6743  0.4048
   12CHTO   C10 5072   4.404  -2.659   2.667  0.2278  0.2264  0.0359
   12CHTO   H23 5073   4.455  -2.750   2.636  0.9421  0.4351  0.5940
   12CHTO   C17 5074   4.497  -2.585   2.769 -0.5011  0.0989  0.2611
   12CHTO   O12 5075   4.521  -2.682   2.874 -0.4977  0.0814  0.1084
   12CHTO    H6 5076   4.566  -2.640   2.945  0.3552 -0.7826  0.0803
   13CHTO  H203 5077   8.298   4.234   1.492  0.3364  2.1230  1.2541
   13CHTO   O82 5078   8.213   4.259   1.524 -0.9148  0.0678 -0.3974
   13CHTO  C123 5079   8.147   4.339   1.424 -0.2513 -0.1030 -0.4317
   13CHTO  H227 5080   8.128   4.288   1.328 -1.0981  0.4951 -0.5930
   13CHTO   O77 5081   8.021   4.354   1.494 -0.1285 -0.2952  0.0530
   13CHTO  C118 5082   7.919   4.419   1.414  0.3364  0.1336 -1.1540
   13CHTO  H222 5083   7.895   4.362   1.324 -1.0948  1.2362 -1.4948
   13CHTO  C125 5084   7.788   4.425   1.505 -0.2482  1.0156  0.0225
   13CHTO   O84 5085   7.723   4.297   1.506  0.2853  0.0893 -0.2406
   13CHTO  H205 5086   7.649   4.297   1.449 -0.5054 -1.3836  0.7390
   13CHTO  C114 5087   7.971   4.568   1.401 -0.2168  0.4267 -0.5549
   13CHTO  H218 5088   7.977   4.611   1.501 -1.4227  0.6455 -0.5794
   13CHTO  C116 5089   8.116   4.577   1.338  0.3374 -0.0598 -0.2212
   13CHTO  H220 5090   8.108   4.545   1.232 -0.6052  1.5168 -0.6368
   13CHTO   O79 5091   8.159   4.711   1.347  0.7389 -0.5997 -0.1318
   13CHTO  H201 5092   8.170   4.738   1.437  0.0503 -0.4249 -0.1030
   13CHTO  C120 5093   8.214   4.481   1.415  0.0945  0.3399 -0.3514
   13CHTO  H224 5094   8.226   4.522   1.517  0.6542  0.1909 -0.3527
   13CHTO   N21 5095   8.339   4.478   1.336 -0.0172 -0.3280 -0.1834
   13CHTO  H211 5096   8.389   4.385   1.359 -0.1916 -0.9771 -2.3083
   13CHTO  H212 5097   8.319   4.481   1.230  0.9189 -1.7942 -0.4179
   13CHTO   O75 5098   7.876   4.645   1.324  0.2636 -0.0204 -0.1271
   13CHTO  C112 5099   7.805   4.768   1.400 -0.2790 -0.6924  0.2164
   13CHTO  H216 5100   7.878   4.798   1.477 -0.2006  0.4311 -0.2897
   13CHTO   O73 5101   7.689   4.719   1.458  0.1876  0.1611 -0.0010
   13CHTO  C113 5102   7.611   4.828   1.510 -0.6078 -0.5098  0.4394
   13CHTO  H217 5103   7.663   4.887   1.589 -2.4250 -0.2285  1.4605
   13CHTO  C124 5104   7.497   4.758   1.583  0.5598  0.6019  0.3506
   13CHTO   O83 5105   7.459   4.825   1.706 -0.1316  0.4248 -0.0462
   13CHTO  H204 5106   7.408   4.902   1.689 -0.9536 -0.6635 -2.8561
   13CHTO  C109 5107   7.579   4.935   1.405 -0.1460 -0.4735  0.9935
   13CHTO  H213 5108   7.521   4.885   1.326  1.7800  0.8961 -1.3943
   13CHTO  C110 5109   7.703   5.000   1.333  0.5174 -0.8953  0.6789
   13CHTO  H214 5110   7.751   5.058   1.411  1.2419 -1.2492  0.4969
   13CHTO   O78 5111   7.662   5.076   1.214  0.2541 -0.3600 -0.0366
   13CHTO  H200 5112   7.663   5.019   1.140 -3.1098 -1.3390  0.5948
   13CHTO  C111 5113   7.794   4.881   1.293  0.1662 -0.2355  0.0313
   13CHTO  H215 5114   7.752   4.829   1.206  1.7022 -1.2140 -0.1538
   13CHTO   N19 5115   7.930   4.923   1.254 -0.0604  0.1461 -0.2812
   13CHTO  H207 5116   7.985   4.837   1.220  0.7422 -0.4339  2.3226
   13CHTO  H208 5117   7.920   4.990   1.170 -0.9570 -2.1187 -2.0317
   13CHTO   O74 5118   7.491   5.032   1.470  0.1060  0.0537  0.5174
   13CHTO  C115 5119   7.349   5.040   1.408  0.2247 -0.4151  0.1655
   13CHTO  H219 5120   7.348   5.102   1.318 -1.1405 -0.7252 -0.0450
   13CHTO   O76 5121   7.290   4.893   1.355 -0.0949  0.0743 -0.1097
   13CHTO  C122 5122   7.149   4.868   1.367 -0.4480 -0.1257  0.1347
   13CHTO  H226 5123   7.135   4.760   1.371 -1.5066  0.0178  0.5321
   13CHTO  C126 5124   7.086   4.917   1.233  0.2481  0.2531 -0.5753
   13CHTO   O85 5125   7.155   4.880   1.113 -0.0837  0.6700  0.6285
   13CHTO  H206 5126   7.226   4.934   1.084 -1.4981  0.6998 -2.9406
   13CHTO  C121 5127   7.083   4.929   1.491  0.9073  0.3671  0.3810
   13CHTO  H225 5128   6.974   4.915   1.503  0.9795 -0.9363 -0.4161
   13CHTO   O81 5129   7.130   4.869   1.609  0.0890  0.0350 -0.4453
   13CHTO  H202 5130   7.218   4.888   1.638  0.7340 -1.7110 -1.2090
   13CHTO  C119 5131   7.114   5.082   1.504 -0.1089  0.0594 -0.3539
   13CHTO  H223 5132   7.079   5.116   1.407  1.1235  1.6799 -0.2528
   13CHTO  C117 5133   7.267   5.116   1.515  0.1329 -1.3675 -0.0067
   13CHTO  H221 5134   7.314   5.085   1.608 -1.0983 -0.6690  0.8600
   13CHTO   N20 5135   7.289   5.265   1.513  0.2410  0.2863  0.3685
   13CHTO  H209 5136   7.380   5.281   1.569  1.1064 -0.0109 -0.9432
   13CHTO  H210 5137   7.295   5.298   1.411  1.8350  2.2336  1.0701
   13CHTO   O80 5138   7.001   5.165   1.618 -0.1286 -0.2615  0.0251
   13CHTO  C103 5139   6.872   5.237   1.568  0.4014  0.1283  0.6955
   13CHTO  H190 5140   6.819   5.276   1.655 -2.3143  0.4504 -1.0611
   13CHTO  C101 5141   6.901   5.347   1.459  0.2682  0.4485  1.0664
   13CHTO  H188 5142   6.973   5.304   1.389 -1.3834  0.6774 -0.8278
   13CHTO   O68 5143   6.962   5.471   1.537  0.1955 -0.1654  0.5580
   13CHTO  H168 5144   7.025   5.514   1.482  0.0910  0.0695  0.6229
   13CHTO   C99 5145   6.774   5.387   1.373  0.1631  0.2574 -0.4338
   13CHTO  H186 5146   6.708   5.455   1.432 -2.1610 -1.9989 -0.3892
   13CHTO   N17 5147   6.811   5.467   1.255 -0.3035  0.3724  0.0499
   13CHTO  H174 5148   6.724   5.505   1.205 -1.0506  1.0853  1.8451
   13CHTO  H175 5149   6.875   5.417   1.184 -0.7418 -0.7244  0.4093
   13CHTO   C97 5150   6.683   5.261   1.341 -0.3517 -0.2124 -0.7569
   13CHTO  H184 5151   6.728   5.200   1.261  1.4227 -1.4291  1.0895
   13CHTO   O64 5152   6.659   5.182   1.458  0.3506 -0.1985  0.2590
   13CHTO  C104 5153   6.775   5.124   1.505 -1.5114 -0.0547  0.0193
   13CHTO  H191 5154   6.825   5.075   1.422 -0.0333 -0.4708  1.1226
   13CHTO  C108 5155   6.745   5.022   1.613 -0.3083 -0.0581 -0.1772
   13CHTO   O71 5156   6.725   4.905   1.549  0.3264 -0.4306  0.2554
   13CHTO  H171 5157   6.806   4.857   1.550 -0.3995 -1.7463 -1.9332
   13CHTO   O62 5158   6.555   5.316   1.295  0.9989 -0.0541 -0.6484
   13CHTO   C91 5159   6.455   5.215   1.263  0.0030  0.5533  0.1618
   13CHTO  H178 5160   6.468   5.120   1.315 -0.4090  0.3054 -0.1842
   13CHTO   C92 5161   6.459   5.186   1.107  0.2909  0.4700 -0.5665
   13CHTO  H179 5162   6.479   5.279   1.053 -0.6617 -0.4610 -2.5569
   13CHTO   O66 5163   6.580   5.119   1.085  0.0187  0.1581 -0.3851
   13CHTO  H166 5164   6.575   5.077   1.001  0.8428 -2.2486  0.7109
   13CHTO   C93 5165   6.330   5.114   1.048 -0.2917 -0.1301 -0.3809
   13CHTO  H180 5166   6.349   5.008   1.029 -0.9896  0.1913 -3.0094
   13CHTO   N16 5167   6.313   5.150   0.907  0.1501  0.0520 -0.3041
   13CHTO  H172 5168   6.216   5.186   0.876  0.5614 -0.3671 -2.1190
   13CHTO  H173 5169   6.386   5.225   0.879  1.6040 -1.1160  0.2634
   13CHTO   C94 5170   6.198   5.131   1.134 -0.0619  0.7546 -0.3750
   13CHTO  H181 5171   6.138   5.217   1.106 -1.2770 -0.3823 -1.3319
   13CHTO   O61 5172   6.221   5.148   1.278  0.3241  0.0039 -0.0525
   13CHTO   C95 5173   6.309   5.253   1.309 -0.0882  0.5423  0.0898
   13CHTO  H182 5174   6.269   5.344   1.265 -2.0875 -0.0528  0.6373
   13CHTO  C106 5175   6.313   5.263   1.464  0.5733 -0.5610  0.1756
   13CHTO   O69 5176   6.199   5.331   1.510  0.2286 -0.2694 -0.0057
   13CHTO  H169 5177   6.200   5.313   1.602  0.6971 -0.2045  0.0032
   13CHTO   O63 5178   6.110   4.999   1.099  0.0968 -0.0041  0.1055
   13CHTO   C96 5179   5.968   4.999   1.180 -0.3469 -0.6497  0.1808
   13CHTO  H183 5180   5.897   4.943   1.118  0.1907 -2.4653  1.1759
   13CHTO   C98 5181   5.902   5.140   1.202 -0.4450  1.1807 -0.5997
   13CHTO  H185 5182   5.973   5.209   1.250 -0.6685  1.3840 -0.5564
   13CHTO   O67 5183   5.871   5.197   1.075 -0.0600  0.5037  0.1589
   13CHTO  H167 5184   5.781   5.216   1.060 -0.2589  0.6871  1.5028
   13CHTO  C102 5185   5.767   5.135   1.296 -0.2495 -0.1263  0.3545
   13CHTO  H189 5186   5.689   5.101   1.226  0.4845  3.1405 -2.1327
   13CHTO   N18 5187   5.721   5.265   1.340  0.1122  0.0328  0.4927
   13CHTO  H176 5188   5.614   5.259   1.355 -0.3087  2.7202 -1.0292
   13CHTO  H177 5189   5.737   5.341   1.264 -0.3090 -2.8964 -2.6610
   13CHTO  C105 5190   5.786   5.046   1.418  0.3625  0.6293  0.5799
   13CHTO  H192 5191   5.839   5.097   1.498  2.3640 -2.0620  1.0353
   13CHTO   O65 5192   5.850   4.922   1.381  0.5649  0.1501 -0.1502
   13CHTO  C100 5193   5.985   4.937   1.327  0.3536  0.2937 -0.3014
   13CHTO  H187 5194   6.038   5.011   1.389  0.5372 -1.0169  1.1342
   13CHTO  C107 5195   6.065   4.807   1.331  0.3676  0.1773  0.8956
   13CHTO   O70 5196   6.206   4.812   1.310 -0.3346  0.5636  0.2415
   13CHTO  H170 5197   6.220   4.856   1.229  1.3002 -0.4466 -0.0488
   13CHTO   O57 5198   5.632   5.003   1.474 -0.5599  0.9224  0.1395
   13CHTO   C85 5199   5.534   4.931   1.393  0.0344 -0.7366  0.4340
   13CHTO  H157 5200   5.586   4.890   1.304 -0.6496 -0.2993 -0.1795
   13CHTO   C83 5201   5.424   5.045   1.343 -0.4979  0.7398 -0.0444
   13CHTO  H155 5202   5.473   5.121   1.282  0.5910  2.1203  2.4659
   13CHTO   O56 5203   5.373   5.117   1.460 -0.5911 -0.1671  0.7051
   13CHTO  H135 5204   5.289   5.085   1.486 -0.4276  1.2301  3.0825
   13CHTO   C81 5205   5.318   4.968   1.251  0.1598  0.0406 -0.4135
   13CHTO  H153 5206   5.370   4.919   1.169  0.0044 -0.6913 -0.0842
   13CHTO   N14 5207   5.221   5.064   1.190 -0.7376 -0.4087 -0.2821
   13CHTO  H141 5208   5.270   5.137   1.128 -1.0933 -0.4687 -0.6403
   13CHTO  H142 5209   5.163   5.002   1.125  0.6446 -1.6834 -0.3208
   13CHTO   C79 5210   5.256   4.854   1.337  0.5747 -0.6841  0.3020
   13CHTO  H151 5211   5.193   4.795   1.270 -1.2384 -1.1851  2.3578
   13CHTO   O52 5212   5.358   4.757   1.385 -0.1451 -0.4849  0.7600
   13CHTO   C86 5213   5.458   4.820   1.473 -0.2229  0.2240  0.2695
   13CHTO  H158 5214   5.393   4.850   1.558  0.5450  0.7642  0.6678
   13CHTO   C90 5215   5.563   4.713   1.520 -0.0233  0.2929  0.3543
   13CHTO   O60 5216   5.485   4.617   1.589  0.0457  0.8398  0.2709
   13CHTO  H138 5217   5.531   4.537   1.572 -1.6023  0.2762 -1.8009
   13CHTO   O50 5218   5.180   4.897   1.450 -0.5323  0.0633 -0.1037
   13CHTO   C73 5219   5.051   4.865   1.492 -0.2736 -0.4863  0.4657
   13CHTO  H145 5220   4.989   4.827   1.409  1.0496  1.1265 -1.3019
   13CHTO   C74 5221   4.981   4.999   1.537 -0.2284 -0.1751  0.3807
   13CHTO  H146 5222   4.994   5.068   1.453 -0.7734 -1.2490 -0.5973
   13CHTO   O54 5223   4.837   4.967   1.555 -0.0716  0.1465 -0.0676
   13CHTO  H133 5224   4.779   5.041   1.557 -1.2399 -0.6681 -2.2632
   13CHTO   C75 5225   5.042   5.056   1.674 -0.4831 -0.0686  0.2047
   13CHTO  H147 5226   5.147   5.086   1.660 -0.7741  1.1264  0.5546
   13CHTO   N13 5227   4.978   5.173   1.724 -0.0574 -0.2343  0.0445
   13CHTO  H139 5228   4.954   5.155   1.827  1.8118  0.5592  0.6355
   13CHTO  H140 5229   4.891   5.189   1.663  1.0718  1.4611 -1.1788
   13CHTO   C76 5230   5.041   4.940   1.781 -0.3147 -0.6009  0.1780
   13CHTO  H148 5231   4.935   4.921   1.796 -0.1805 -1.5682 -0.0689
   13CHTO   O49 5232   5.118   4.828   1.727  0.4665  0.0361  0.3266
   13CHTO   C77 5233   5.055   4.765   1.608  0.5626 -0.0861  0.3106
   13CHTO  H149 5234   4.952   4.734   1.628  0.2658 -0.7098 -1.9706
   13CHTO   C88 5235   5.119   4.635   1.564 -0.2339 -0.6046 -0.2968
   13CHTO   O58 5236   5.108   4.558   1.650  0.4042  0.2504 -0.3127
   13CHTO  H136 5237   5.168   4.486   1.638  0.2109  0.1306 -0.5545
   13CHTO   O51 5238   5.124   4.992   1.930  0.2272 -0.1241  0.1766
   13CHTO   C78 5239   5.309   5.017   1.931 -0.1977  0.6651 -0.0926
   13CHTO  H150 5240   5.329   5.059   2.032  0.0401 -0.3663  0.2942
   13CHTO   C80 5241   5.353   5.119   1.824  0.0571  0.4526 -0.0495
   13CHTO  H152 5242   5.335   5.067   1.727  0.7730 -2.1156  1.1423
   13CHTO   O55 5243   5.274   5.232   1.857  0.1677  0.4671 -0.2838
   13CHTO  H134 5244   5.323   5.312   1.862  0.1179  0.4075  1.4222
   13CHTO   C84 5245   5.511   5.136   1.846 -0.5316  0.3222  1.4090
   13CHTO  H156 5246   5.534   5.162   1.949 -0.9298 -1.9366  2.0938
   13CHTO   N15 5247   5.563   5.249   1.755 -0.1253 -0.0669  0.3985
   13CHTO  H143 5248   5.649   5.225   1.696  1.4153  2.0797  1.6964
   13CHTO  H144 5249   5.590   5.332   1.818 -0.0389  0.5610 -0.4582
   13CHTO   C87 5250   5.584   5.001   1.828 -0.2180  0.4496 -0.4013
   13CHTO  H159 5251   5.574   4.972   1.723 -0.0941 -0.0861 -0.2662
   13CHTO   O53 5252   5.517   4.886   1.931  0.4139 -0.0255 -0.4950
   13CHTO   C82 5253   5.378   4.881   1.902 -0.3975 -0.0237  0.2778
   13CHTO  H154 5254   5.361   4.858   1.797 -0.1359 -1.2658  0.5085
   13CHTO   C89 5255   5.301   4.776   1.991 -0.2166  0.3109 -0.4413
   13CHTO   O59 5256   5.333   4.650   1.940  0.5030  0.4442  0.2162
   13CHTO  H137 5257   5.381   4.611   2.010 -0.0554 -0.5346  0.0652
   13CHTO   O45 5258   5.739   5.019   1.880  0.2894 -0.5471 -0.2100
   13CHTO   C67 5259   5.828   4.915   1.831  0.0471 -0.5799  0.2775
   13CHTO  H124 5260   5.780   4.839   1.770 -1.1763  1.8068 -1.8107
   13CHTO   C65 5261   5.944   4.981   1.753 -0.4147 -0.4762  0.0451
   13CHTO  H122 5262   5.901   5.040   1.673  0.6891 -1.6784 -1.4509
   13CHTO   O44 5263   6.027   4.877   1.696 -0.2337 -0.8008 -0.3178
   13CHTO  H102 5264   6.093   4.850   1.758 -1.0482 -1.1999  0.3830
   13CHTO   C63 5265   6.016   5.079   1.851  0.2272 -0.7950 -0.3408
   13CHTO  H120 5266   5.944   5.158   1.872 -1.1217 -1.9456 -0.6044
   13CHTO   N11 5267   6.125   5.165   1.790  0.3056 -0.0393 -0.2094
   13CHTO  H108 5268   6.091   5.265   1.775 -0.2905 -0.0428  1.0521
   13CHTO  H109 5269   6.157   5.126   1.695 -0.3427  1.3964 -1.0235
   13CHTO   C61 5270   6.069   5.006   1.984  0.1451  0.5345  0.3373
   13CHTO  H118 5271   6.101   5.084   2.054  0.9018  0.9905 -0.5035
   13CHTO   O40 5272   5.951   4.935   2.045 -0.0885 -0.1883 -0.3903
   13CHTO   C68 5273   5.870   4.837   1.970  0.3855 -0.4607  0.3089
   13CHTO  H125 5274   5.776   4.825   2.027 -0.1897 -2.1798 -0.9741
   13CHTO   C72 5275   5.931   4.696   1.945  0.7167 -0.2400 -0.1695
   13CHTO   O48 5276   5.845   4.603   1.878 -0.7551 -0.1940  0.1370
   13CHTO  H105 5277   5.893   4.527   1.851  0.6235  1.1983 -1.4702
   13CHTO   O38 5278   6.166   4.907   1.954  0.1482  0.0230  0.2906
   13CHTO   C55 5279   6.269   4.880   2.053  0.0042  0.1271  0.1681
   13CHTO  H112 5280   6.312   4.784   2.022 -0.1271  0.7557 -2.0481
   13CHTO   C56 5281   6.223   4.876   2.208  0.1847 -0.2662  0.3490
   13CHTO  H113 5282   6.173   4.971   2.232 -1.1627 -0.4286 -1.7017
   13CHTO   O42 5283   6.126   4.769   2.227  0.1473 -0.2621  0.1783
   13CHTO  H100 5284   6.084   4.772   2.311  0.9228 -2.3766  0.6764
   13CHTO   C57 5285   6.350   4.866   2.299 -0.2666 -0.3794  0.3156
   13CHTO  H114 5286   6.400   4.777   2.261  0.3164  0.0811 -0.0049
   13CHTO   N10 5287   6.317   4.854   2.443  0.5759 -0.5490 -0.0973
   13CHTO  H106 5288   6.219   4.889   2.471  0.3370 -0.5364 -0.9322
   13CHTO  H107 5289   6.325   4.751   2.474  0.9684 -0.7473 -0.8514
   13CHTO   C58 5290   6.442   4.987   2.270 -0.3571  0.2454 -0.4957
   13CHTO  H115 5291   6.385   5.081   2.283 -1.5512 -0.5871  0.4195
   13CHTO   O37 5292   6.494   4.972   2.137  0.1853  0.6069  0.0339
   13CHTO   C59 5293   6.389   4.988   2.040 -0.1095  0.2083 -0.1616
   13CHTO  H116 5294   6.347   5.088   2.041 -2.8810 -0.9194  1.2392
   13CHTO   C70 5295   6.445   4.983   1.899  0.5343  0.4386  0.1869
   13CHTO   O46 5296   6.558   4.894   1.887  0.1557  0.4285 -0.5078
   13CHTO  H103 5297   6.626   4.954   1.861  0.3572  0.1622 -0.5982
   13CHTO   O39 5298   6.578   4.987   2.354  0.2340  0.5804  0.1518
   13CHTO   C60 5299   6.636   5.108   2.396  0.7671  0.1957  0.2280
   13CHTO  H117 5300   6.655   5.169   2.307 -3.4188 -1.2559 -1.8098
   13CHTO   C62 5301   6.541   5.195   2.485 -0.0219 -0.4331  0.1972
   13CHTO  H119 5302   6.449   5.216   2.426 -0.7899 -0.9606  1.1904
   13CHTO   O43 5303   6.502   5.113   2.594 -0.8262  0.4999  0.1778
   13CHTO  H101 5304   6.425   5.061   2.589  0.2204 -1.0971  0.3628
   13CHTO   C66 5305   6.613   5.330   2.534  0.4099 -0.5199  1.3785
   13CHTO  H123 5306   6.660   5.380   2.448  0.3175 -2.3250  0.2658
   13CHTO   N12 5307   6.527   5.431   2.602  0.0403 -0.8919  0.3431
   13CHTO  H110 5308   6.585   5.506   2.652 -2.5930  0.5373  1.3418
   13CHTO  H111 5309   6.459   5.383   2.671 -1.3567  0.1493 -0.2989
   13CHTO   C69 5310   6.741   5.301   2.615  0.3477  0.2131 -0.1827
   13CHTO  H126 5311   6.708   5.242   2.703  0.6935 -1.7526 -1.3518
   13CHTO   O41 5312   6.845   5.216   2.512  0.6891 -0.1242  0.0833
   13CHTO   C64 5313   6.772   5.072   2.469 -0.5081 -0.2291 -0.8651
   13CHTO  H121 5314   6.753   5.017   2.563  2.0103 -1.4738 -1.0164
   13CHTO   C71 5315   6.861   4.993   2.378  0.5109  0.4463 -0.2235
   13CHTO   O47 5316   6.984   4.978   2.439 -0.0207  0.3227 -0.0542
   13CHTO  H104 5317   7.055   4.987   2.378  1.4276 -1.1935  1.3396
   13CHTO   O34 5318   6.821   5.417   2.666  0.0460  0.3464 -1.1002
   13CHTO   C49 5319   6.966   5.450   2.622 -0.4582  0.5989  0.5368
   13CHTO   H91 5320   7.019   5.354   2.628  1.0932  1.3939 -0.0692
   13CHTO   C47 5321   7.033   5.546   2.722  0.7693  0.0721 -0.4002
   13CHTO   H89 5322   7.138   5.549   2.686  0.7394 -0.3413 -0.5307
   13CHTO   O33 5323   7.038   5.489   2.853  0.0571  0.0809  0.0773
   13CHTO   H70 5324   7.114   5.523   2.897  1.3201 -1.9714 -0.4385
   13CHTO   C45 5325   6.973   5.695   2.725  0.4218 -0.3645  0.2660
   13CHTO   H87 5326   6.887   5.695   2.793  1.1309  0.8810  1.1726
   13CHTO    N8 5327   7.075   5.796   2.764 -0.0482 -0.1379 -0.0528
   13CHTO   H75 5328   7.153   5.736   2.810  0.9291  0.6141 -0.6917
   13CHTO   H76 5329   7.124   5.849   2.684  0.8989  1.0933  1.3001
   13CHTO   C43 5330   6.900   5.720   2.583  0.5058 -0.2494 -0.3085
   13CHTO   H85 5331   6.802   5.673   2.592 -1.3241  3.3914 -0.3894
   13CHTO   O29 5332   6.978   5.664   2.473  0.2156 -0.1098  0.2320
   13CHTO   C50 5333   6.972   5.522   2.481 -0.0981  0.5164  0.2616
   13CHTO   H92 5334   6.881   5.487   2.431 -0.5711  1.4931  0.4325
   13CHTO   C54 5335   7.086   5.462   2.392 -0.7664  0.0419 -0.2243
   13CHTO   O36 5336   7.092   5.323   2.385 -0.2470 -0.1669 -0.3276
   13CHTO   H72 5337   7.018   5.295   2.334  0.6455  0.1346 -1.8324
   13CHTO   O27 5338   6.866   5.861   2.573  0.0128  0.4441 -0.8433
   13CHTO   C37 5339   6.866   6.004   2.572  0.4777 -0.0861  0.3901
   13CHTO   H79 5340   6.945   6.038   2.641  0.6686 -1.9581  1.1154
   13CHTO   C38 5341   6.894   6.067   2.433  0.6796 -0.3427  0.0453
   13CHTO   H80 5342   6.824   6.023   2.360 -0.7328  1.4672  0.2649
   13CHTO   O31 5343   7.021   6.012   2.390 -0.3503 -0.3362  0.2554
   13CHTO   H68 5344   7.018   5.955   2.316  1.8110  1.3726 -1.1913
   13CHTO   C39 5345   6.889   6.222   2.433 -0.7360  0.0897  0.1425
   13CHTO   H81 5346   6.973   6.253   2.495 -0.8504 -1.5915  1.1671
   13CHTO    N7 5347   6.902   6.281   2.294 -0.1781  0.4057 -0.9745
   13CHTO   H73 5348   6.954   6.376   2.291 -1.0964  0.9463  0.2675
   13CHTO   H74 5349   6.933   6.214   2.215 -0.6022 -1.1257  0.1358
   13CHTO   C40 5350   6.756   6.261   2.497 -0.4175 -0.1250 -0.4129
   13CHTO   H82 5351   6.665   6.250   2.438 -0.4947  0.1404 -0.3446
   13CHTO   O26 5352   6.743   6.202   2.626 -0.0003  0.4556 -0.7106
   13CHTO   C41 5353   6.739   6.062   2.628  0.4401  0.0154 -0.2023
   13CHTO   H83 5354   6.655   6.029   2.565 -0.8235  0.4405  1.2315
   13CHTO   C52 5355   6.702   6.025   2.777  0.1269  0.1628 -0.7390
   13CHTO   O35 5356   6.656   5.896   2.793  0.0989 -0.0129 -0.1258
   13CHTO   H71 5357   6.695   5.833   2.736  0.0380 -0.3014  0.1501
   13CHTO   O28 5358   6.772   6.396   2.550 -0.3293  0.1248  0.2636
   13CHTO   C42 5359   6.734   6.523   2.483  0.5555 -0.2094  0.0275
   13CHTO   H84 5360   6.741   6.508   2.375 -0.3529  1.8219 -0.3305
   13CHTO   C44 5361   6.830   6.637   2.519 -0.0968 -0.9708  0.2280
   13CHTO   H86 5362   6.825   6.657   2.626 -0.5237  1.0760 -0.1591
   13CHTO   O32 5363   6.967   6.594   2.499 -0.1448  0.2913  0.3643
   13CHTO   H69 5364   7.020   6.663   2.533  2.2445  0.0498 -2.6476
   13CHTO   C48 5365   6.793   6.776   2.443 -0.4168  0.1710 -0.1677
   13CHTO   H90 5366   6.811   6.757   2.338 -1.4073  1.8622 -0.6668
   13CHTO    N9 5367   6.884   6.889   2.484  0.8373  0.1315 -0.6383
   13CHTO   H77 5368   6.890   6.905   2.590  0.8812 -0.5400 -0.5368
   13CHTO   H78 5369   6.845   6.975   2.430 -0.7117 -0.8739 -1.1660
   13CHTO   C51 5370   6.643   6.807   2.460 -0.6789 -0.0267 -0.0364
   13CHTO   H93 5371   6.630   6.832   2.565  0.2273 -1.0221  0.3171
   13CHTO   O30 5372   6.566   6.691   2.424 -0.2148 -0.3165  0.0720
   13CHTO   C46 5373   6.586   6.576   2.507 -0.3936 -1.0695  0.1452
   13CHTO   H88 5374   6.580   6.599   2.614 -0.2808  3.4264 -0.7346
   13CHTO   C53 5375   6.472   6.475   2.484 -0.0865 -0.1896  0.5549
   13CHTO   O72 5376   6.464   6.427   2.349  0.2830 -0.5490 -0.2154
   13CHTO  H199 5377   6.444   6.336   2.345 -0.8911 -0.2336 -3.0589
   13CHTO   O22 5378   6.599   6.917   2.374  0.4249  0.0013  0.3131
   13CHTO   C31 5379   6.460   6.980   2.392 -0.2247 -0.7709  0.2505
   13CHTO   H59 5380   6.453   7.060   2.315  2.5895 -1.1017 -0.4085
   13CHTO   C29 5381   6.339   6.889   2.369 -0.4397  0.3152 -0.4500
   13CHTO   H57 5382   6.343   6.800   2.433 -0.9759 -0.2704 -1.2204
   13CHTO   O21 5383   6.353   6.842   2.238  0.6042 -0.4449  0.0680
   13CHTO   H37 5384   6.282   6.793   2.201  1.4738  0.0006 -2.2960
   13CHTO   C27 5385   6.202   6.963   2.389 -0.1382  0.7542 -0.0769
   13CHTO   H55 5386   6.192   7.034   2.306  1.4675  0.4406 -0.5538
   13CHTO    N5 5387   6.093   6.863   2.390 -0.4317 -0.2019  0.0602
   13CHTO   H43 5388   6.080   6.825   2.290 -2.0585 -0.1850  0.2488
   13CHTO   H44 5389   6.121   6.791   2.466 -0.2255 -0.4647 -0.2655
   13CHTO   C25 5390   6.210   7.036   2.521  0.3043  0.0429  0.3929
   13CHTO   H53 5391   6.225   6.960   2.600  0.0118  0.0399  0.4482
   13CHTO   O17 5392   6.321   7.121   2.537  0.3908  0.2865 -0.0887
   13CHTO   C32 5393   6.445   7.047   2.532  0.5788 -0.2303  0.4173
   13CHTO   H60 5394   6.439   6.969   2.608 -0.7474 -1.2958 -0.7595
   13CHTO   C36 5395   6.557   7.148   2.551 -0.5905 -0.0428  0.2717
   13CHTO   O25 5396   6.537   7.217   2.678  0.4370 -0.4252  0.1940
   13CHTO   H40 5397   6.589   7.175   2.745  0.8389  0.5011  0.4667
   13CHTO   O15 5398   6.078   7.135   2.537  0.2033 -0.2311  0.2392
   13CHTO   C19 5399   5.963   7.220   2.507 -0.4950 -0.3698 -0.4184
   13CHTO   H47 5400   5.937   7.261   2.605  0.1840  0.3014 -0.5167
   13CHTO   C20 5401   5.987   7.327   2.397  0.5275  0.0179 -0.1882
   13CHTO   H48 5402   6.025   7.285   2.303 -0.9230 -1.2263 -0.2313
   13CHTO   O19 5403   6.082   7.415   2.451 -0.0674  0.2507 -0.0037
   13CHTO   H35 5404   6.158   7.369   2.482 -0.1993  0.5637  0.8063
   13CHTO   C21 5405   5.850   7.408   2.365  0.1024  0.1063 -1.3227
   13CHTO   H49 5406   5.825   7.467   2.453 -0.3412 -0.8011 -0.8408
   13CHTO    N4 5407   5.863   7.512   2.263 -0.0695 -0.4193 -0.1967
   13CHTO   H41 5408   5.766   7.525   2.216  0.1025 -1.6280 -0.9071
   13CHTO   H42 5409   5.924   7.471   2.184 -1.8310  0.3757 -2.0370
   13CHTO   C22 5410   5.732   7.311   2.349  0.6271  0.2000  0.1618
   13CHTO   H50 5411   5.749   7.255   2.258  1.0731  2.0740 -0.9411
   13CHTO   O14 5412   5.723   7.227   2.462 -0.0185  0.0091 -0.2980
   13CHTO   C23 5413   5.839   7.137   2.471 -0.0009  0.1369  0.1087
   13CHTO   H51 5414   5.843   7.089   2.373 -1.6303  2.3305 -1.0847
   13CHTO   C34 5415   5.810   7.033   2.585  0.4495  0.3222 -0.1654
   13CHTO   O23 5416   5.717   6.927   2.553 -0.1363 -0.5495 -0.0743
   13CHTO   H38 5417   5.730   6.848   2.602 -0.4024 -2.1890 -2.5409
   13CHTO   O16 5418   5.597   7.371   2.329  0.0876 -0.0135  0.1607
   13CHTO   C24 5419   5.468   7.268   2.378 -0.4268  0.3857  0.0527
   13CHTO   H52 5420   5.487   7.217   2.473  1.0543  1.7927  0.5293
   13CHTO   C26 5421   5.441   7.166   2.271  0.2798 -0.8894  0.2365
   13CHTO   H54 5422   5.436   7.215   2.171  0.8529 -1.0187  0.1421
   13CHTO   O20 5423   5.551   7.068   2.263 -0.6253  0.1763  0.4735
   13CHTO   H36 5424   5.548   7.020   2.343  3.5079  0.5879  1.0243
   13CHTO   C30 5425   5.304   7.093   2.285 -0.2472 -1.2055 -0.3758
   13CHTO   H58 5426   5.303   7.037   2.380 -0.7375  2.5499  1.9868
   13CHTO    N6 5427   5.266   6.992   2.183  0.1718 -0.0709  0.4512
   13CHTO   H45 5428   5.188   7.019   2.113  0.3049 -1.0744 -0.0920
   13CHTO   H46 5429   5.240   6.897   2.228 -0.9047  0.3266  0.6848
   13CHTO   C33 5430   5.189   7.195   2.321  0.4404 -0.0813  1.2652
   13CHTO   H61 5431   5.164   7.266   2.240 -1.0268 -1.3660  0.5777
   13CHTO   O18 5432   5.235   7.274   2.432  0.1837  0.1298  0.0513
   13CHTO   C28 5433   5.346   7.358   2.400 -0.0792 -0.3638  0.2392
   13CHTO   H56 5434   5.327   7.412   2.307 -1.3281 -2.0975 -0.5410
   13CHTO   C35 5435   5.367   7.448   2.517  0.5272 -0.4333 -0.0172
   13CHTO   O24 5436   5.254   7.535   2.547  0.2225 -0.2111 -0.3979
   13CHTO   H39 5437   5.272   7.589   2.621 -0.9228 -0.2197 -0.0959
   13CHTO    O9 5438   5.060   7.138   2.352 -0.5497  0.2251  0.0321
   13CHTO   C13 5439   5.043   7.053   2.498  0.0813  0.0941  0.9035
   13CHTO   H26 5440   5.136   7.056   2.557  0.4048  0.4166  0.3825
   13CHTO   C11 5441   4.993   6.901   2.467 -0.0801  0.3679 -0.4625
   13CHTO   H24 5442   5.072   6.836   2.427  0.3905  0.3378  0.5054
   13CHTO    O8 5443   4.889   6.897   2.377  0.1730  0.4262  0.1542
   13CHTO    H3 5444   4.926   6.893   2.291  1.6132  0.0969  0.7735
   13CHTO    C9 5445   4.965   6.831   2.605  0.6614 -0.2575  0.3721
   13CHTO   H22 5446   5.059   6.844   2.661  0.3349  0.3058  0.8001
   13CHTO    N2 5447   4.932   6.679   2.597 -0.2518  0.3623 -0.2205
   13CHTO   H10 5448   5.016   6.630   2.551 -0.3120 -0.0343  0.0852
   13CHTO   H11 5449   4.902   6.623   2.684 -0.5653 -1.3350 -1.4080
   13CHTO    C7 5450   4.855   6.915   2.681 -0.2306  0.1980  0.4264
   13CHTO   H20 5451   4.908   6.947   2.773  1.2971 -0.3346 -0.2532
   13CHTO    O4 5452   4.828   7.041   2.623 -0.2061  0.1352  0.0953
   13CHTO   C14 5453   4.943   7.124   2.600  0.1680 -0.3814 -0.2549
   13CHTO   H27 5454   4.997   7.147   2.694 -0.6524 -2.1431  0.6792
   13CHTO   C18 5455   4.879   7.258   2.552  0.0312 -0.0786  0.3532
   13CHTO   O13 5456   4.975   7.362   2.530  0.0634 -0.3720 -0.4237
   13CHTO    H7 5457   4.993   7.396   2.616 -0.9032 -0.7236 -0.0745
   13CHTO    O2 5458   4.711   6.845   2.723  0.0619  0.3409 -0.1804
   13CHTO    C1 5459   4.684   6.856   2.864 -0.7290 -0.2483 -0.0765
   13CHTO   H14 5460   4.735   6.945   2.905  0.4192 -0.8336 -0.2295
   13CHTO    C2 5461   4.715   6.730   2.962 -0.3845 -0.2329 -0.4995
   13CHTO   H15 5462   4.643   6.654   2.928 -0.2467  1.2152 -4.2194
   13CHTO    O6 5463   4.845   6.686   2.949 -0.2797  0.6545  0.1101
   13CHTO    H1 5464   4.844   6.613   3.008 -0.2520 -0.3785 -1.1419
   13CHTO    C3 5465   4.680   6.790   3.112  0.3973 -0.1422  0.3355
   13CHTO   H16 5466   4.734   6.884   3.133  1.3744 -0.7805  0.7322
   13CHTO    N1 5467   4.713   6.704   3.233  0.5554 -0.0267 -0.5610
   13CHTO    H8 5468   4.673   6.743   3.325 -0.5570 -3.0887  0.3117
   13CHTO    H9 5469   4.681   6.601   3.224  1.1634 -0.4190  1.4655
   13CHTO    C4 5470   4.531   6.829   3.114 -0.1949  0.2423  0.9310
   13CHTO   H17 5471   4.471   6.738   3.107 -0.1939  0.3665 -1.0430
   13CHTO    O1 5472   4.495   6.911   3.006  0.0932 -0.7565  0.0431
   13CHTO    C5 5473   4.530   6.889   2.871  0.7773 -0.3538 -0.0776
   13CHTO   H18 5474   4.479   6.808   2.818  0.8181 -0.0025 -0.6574
   13CHTO   C16 5475   4.492   7.018   2.801  0.4347  0.4031  0.1435
   13CHTO   O11 5476   4.496   7.008   2.658  0.0041  0.0073 -0.4221
   13CHTO    H5 5477   4.406   6.995   2.634 -0.1614  0.1739  0.0821
   13CHTO    O3 5478   4.513   6.910   3.230  0.2412 -0.2869  0.2755
   13CHTO    C6 5479   4.373   6.912   3.290  0.0444  0.0524 -0.0779
   13CHTO   H19 5480   4.292   6.879   3.224 -0.2414  0.1622  0.2135
   13CHTO    C8 5481   4.375   6.817   3.411 -0.0247  0.3261  0.0556
   13CHTO   H21 5482   4.454   6.856   3.475 -0.8719 -0.1493  1.4072
   13CHTO    O7 5483   4.396   6.686   3.367  0.1731  0.3980 -0.2559
   13CHTO    H2 5484   4.313   6.644   3.356  1.1583 -2.3185  2.0230
   13CHTO   C12 5485   4.236   6.826   3.492  0.4524 -1.1102 -0.5143
   13CHTO   H25 5486   4.158   6.784   3.425  1.0056 -1.1583 -1.1343
   13CHTO    N3 5487   4.233   6.742   3.612  0.1714 -0.1644 -0.0448
   13CHTO   H12 5488   4.134   6.736   3.656 -0.6798 -0.2018 -1.9279
   13CHTO   H13 5489   4.258   6.641   3.584 -0.6031 -0.5101  0.4726
   13CHTO   C15 5490   4.207   6.978   3.523  0.1202  0.4577 -0.1144
   13CHTO   H28 5491   4.281   7.027   3.586  2.1663  2.2269 -3.6749
   13CHTO   O10 5492   4.061   6.989   3.598  0.2733 -0.1873  0.1488
   13CHTO    H4 5493   4.054   6.927   3.668  0.3124  3.0142  3.1224
   13CHTO    O5 5494   4.209   7.071   3.414  0.1570  0.3073  0.6307
   13CHTO   C10 5495   4.335   7.060   3.338 -0.0262  0.1453  0.2407
   13CHTO   H23 5496   4.413   7.097   3.405  0.7266 -2.2753  0.7613
   13CHTO   C17 5497   4.339   7.157   3.216  0.7190  0.5801  0.3887
   13CHTO   O12 5498   4.304   7.292   3.249  0.1006  0.3637 -0.0420
   13CHTO    H6 5499   4.363   7.325   3.313 -0.1327  0.5678  0.0691
   14CHTO  H203 5500   6.936   4.457   2.218  0.3316  1.5233  0.0214
   14CHTO   O82 5501   6.971   4.429   2.135 -0.1072 -0.2927  0.4172
   14CHTO  C123 5502   6.874   4.473   2.033 -0.5786  0.3442 -0.2957
   14CHTO  H227 5503   6.934   4.526   1.957 -0.0168 -0.7299 -0.6155
   14CHTO   O77 5504   6.817   4.356   1.969  0.3151  0.0502 -0.4917
   14CHTO  C118 5505   6.750   4.382   1.845  0.0025  0.0957 -0.4538
   14CHTO  H222 5506   6.800   4.447   1.772  1.2965  0.2600  0.5443
   14CHTO  C125 5507   6.715   4.245   1.778  0.3070 -0.3123 -0.1863
   14CHTO   O84 5508   6.843   4.206   1.719  0.2662 -0.4465  0.7874
   14CHTO  H205 5509   6.843   4.163   1.636  1.9785 -1.4674  1.3127
   14CHTO  C114 5510   6.618   4.445   1.890 -0.5135  0.2947 -0.0353
   14CHTO  H218 5511   6.567   4.378   1.960 -0.0138 -0.1417 -0.0854
   14CHTO  C116 5512   6.647   4.574   1.967 -0.0768 -0.3943 -0.1070
   14CHTO  H220 5513   6.686   4.647   1.892  1.5455 -1.6570 -0.5223
   14CHTO   O79 5514   6.521   4.630   2.016 -0.3417  0.2577 -0.4202
   14CHTO  H201 5515   6.542   4.706   2.065 -0.6938 -1.4464  2.4880
   14CHTO  C120 5516   6.752   4.552   2.086 -0.1653  0.1442 -0.3692
   14CHTO  H224 5517   6.703   4.500   2.171 -0.6755  1.0074 -0.1181
   14CHTO   N21 5518   6.790   4.681   2.146  0.4840 -0.9333  0.3694
   14CHTO  H211 5519   6.816   4.686   2.251  0.3634  1.2443  0.3185
   14CHTO  H212 5520   6.870   4.723   2.087  1.4335 -1.0213  1.5655
   14CHTO   O75 5521   6.544   4.467   1.772 -0.2006 -0.0335  0.4858
   14CHTO  C112 5522   6.376   4.450   1.800 -0.4300 -0.3332 -0.8569
   14CHTO  H216 5523   6.344   4.503   1.891 -0.0534 -0.7925 -0.4543
   14CHTO   O73 5524   6.357   4.310   1.811 -0.2728 -0.0388  0.1728
   14CHTO  C113 5525   6.215   4.274   1.832 -0.2380  0.4948  0.0438
   14CHTO  H217 5526   6.167   4.333   1.912  1.0762  1.7167 -0.0512
   14CHTO  C124 5527   6.217   4.118   1.870  0.2260  0.0022 -0.0497
   14CHTO   O83 5528   6.281   4.089   1.995  0.3466  0.6142  0.1961
   14CHTO  H204 5529   6.332   4.158   2.033  0.9559 -0.6191  1.6897
   14CHTO  C109 5530   6.138   4.312   1.698  0.0182 -0.1236 -0.7238
   14CHTO  H213 5531   6.189   4.258   1.617 -0.8551 -0.0133 -1.3502
   14CHTO  C110 5532   6.152   4.464   1.675  0.0334 -0.2059 -0.1724
   14CHTO  H214 5533   6.105   4.515   1.759 -1.8122 -0.1959 -1.1709
   14CHTO   O78 5534   6.080   4.508   1.555  0.2930 -0.0023  0.2456
   14CHTO  H200 5535   6.116   4.477   1.474 -1.5218  1.2381 -1.1008
   14CHTO  C111 5536   6.299   4.511   1.679 -0.4990 -0.3504 -0.4565
   14CHTO  H215 5537   6.354   4.475   1.591  1.2015  1.7061 -0.2729
   14CHTO   N19 5538   6.321   4.661   1.675 -0.1473  0.1539  0.2709
   14CHTO  H207 5539   6.265   4.702   1.759 -2.1445 -2.9456  0.5142
   14CHTO  H208 5540   6.423   4.691   1.696 -0.6771  1.9720  0.3229
   14CHTO   O74 5541   6.000   4.271   1.709  0.3289  0.3107  0.0088
   14CHTO  C115 5542   5.938   4.206   1.578 -0.1119 -0.0595 -1.1538
   14CHTO  H219 5543   5.933   4.276   1.494  1.8067  1.8803  0.2939
   14CHTO   O76 5544   6.029   4.076   1.530 -0.2485 -0.1206 -0.0709
   14CHTO  C122 5545   5.974   4.010   1.422  0.5505 -0.2219 -0.0747
   14CHTO  H226 5546   6.036   3.923   1.403 -0.1634 -0.6950 -0.2366
   14CHTO  C126 5547   5.974   4.088   1.288 -0.0985  1.0267 -0.4259
   14CHTO   O85 5548   6.097   4.109   1.220 -0.1362  0.0920 -0.4748
   14CHTO  H206 5549   6.146   4.169   1.272 -1.1379 -1.0885  1.8963
   14CHTO  C121 5550   5.826   3.970   1.457  0.2313 -0.1243  0.4801
   14CHTO  H225 5551   5.785   3.929   1.362 -1.6902 -1.0775  1.7030
   14CHTO   O81 5552   5.830   3.869   1.552  0.6013  0.0361  0.1771
   14CHTO  H202 5553   5.857   3.792   1.506  3.4605  0.1274  1.6078
   14CHTO  C119 5554   5.732   4.088   1.503 -1.0489  0.2430 -0.7414
   14CHTO  H223 5555   5.724   4.157   1.419 -2.0075 -0.4198 -1.2075
   14CHTO  C117 5556   5.790   4.169   1.617 -0.1597  0.6176  0.3369
   14CHTO  H221 5557   5.796   4.122   1.715  2.9577 -0.2928 -0.2205
   14CHTO   N20 5558   5.710   4.290   1.645  0.3213  0.1092  0.1487
   14CHTO  H209 5559   5.609   4.299   1.605 -0.1884 -0.2921  1.3301
   14CHTO  H210 5560   5.738   4.322   1.744  0.3836 -2.4264  0.9746
   14CHTO   O80 5561   5.581   4.032   1.516  0.1284 -0.4797  0.1178
   14CHTO  C103 5562   5.507   4.017   1.399 -0.1190  0.1215 -0.2997
   14CHTO  H190 5563   5.560   4.055   1.312 -0.0135 -1.1960 -0.8233
   14CHTO  C101 5564   5.444   3.866   1.378 -0.6191  0.2192  0.9649
   14CHTO  H188 5565   5.412   3.834   1.477 -2.1066 -0.9240  0.1324
   14CHTO   O68 5566   5.556   3.762   1.319  0.6785  0.7143 -0.0762
   14CHTO  H168 5567   5.589   3.783   1.233 -0.3146  1.6750 -0.2365
   14CHTO   C99 5568   5.312   3.863   1.284  0.3030 -0.9337  0.1725
   14CHTO  H186 5569   5.334   3.881   1.176 -1.6983 -3.0918 -0.6485
   14CHTO   N17 5570   5.248   3.723   1.293  0.2304  0.5004  0.2131
   14CHTO  H174 5571   5.154   3.740   1.343  0.2350 -2.5165  1.3430
   14CHTO  H175 5572   5.244   3.683   1.193  0.6104 -0.1410  0.4476
   14CHTO   C97 5573   5.215   3.983   1.328 -0.1135 -0.2095 -0.4597
   14CHTO  H184 5574   5.176   3.965   1.429 -1.8536  0.7747 -0.9171
   14CHTO   O64 5575   5.290   4.101   1.318 -0.2876  0.4159  0.5686
   14CHTO  C104 5576   5.384   4.122   1.426  0.5241 -0.2682  0.0771
   14CHTO  H191 5577   5.338   4.094   1.521 -1.5835  0.1235 -0.7967
   14CHTO  C108 5578   5.431   4.272   1.425  0.0215  0.3378  0.5529
   14CHTO   O71 5579   5.313   4.357   1.440 -0.2502  0.1116 -0.1904
   14CHTO  H171 5580   5.258   4.334   1.513 -0.2271  0.4492 -0.0636
   14CHTO   O62 5581   5.111   3.992   1.230 -0.1829  0.8630 -0.0056
   14CHTO   C91 5582   4.984   4.033   1.272  0.3627  0.2017 -0.1282
   14CHTO  H178 5583   4.948   3.942   1.320  2.1280  0.2383  1.3207
   14CHTO   C92 5584   4.904   4.046   1.139 -0.4141 -0.1206  0.7984
   14CHTO  H179 5585   4.925   3.965   1.067 -1.9835  0.0431  0.1363
   14CHTO   O66 5586   4.764   4.042   1.179  0.1996 -0.4938 -0.3744
   14CHTO  H166 5587   4.702   4.063   1.112 -1.3018 -1.8349  0.5586
   14CHTO   C93 5588   4.919   4.190   1.078  0.2467 -0.4708  0.0681
   14CHTO  H180 5589   4.839   4.215   1.007 -0.5523  0.5809  1.3066
   14CHTO   N16 5590   5.041   4.203   0.994  0.3971 -0.0006  0.2662
   14CHTO  H172 5591   5.042   4.130   0.914 -1.6298  0.4345 -0.1880
   14CHTO  H173 5592   5.133   4.213   1.049 -0.2871 -1.4959  1.7214
   14CHTO   C94 5593   4.926   4.309   1.176  0.3524 -0.5954  0.5248
   14CHTO  H181 5594   5.026   4.352   1.183 -0.6882  2.0040  0.1475
   14CHTO   O61 5595   4.897   4.274   1.315  0.6222  0.0327  0.0575
   14CHTO   C95 5596   4.969   4.160   1.371 -0.3713  0.0349  0.2932
   14CHTO  H182 5597   5.073   4.189   1.387  0.8512 -1.0633 -4.7305
   14CHTO  C106 5598   4.907   4.113   1.511  0.2683 -0.5711 -0.7088
   14CHTO   O69 5599   4.781   4.052   1.484 -0.1571 -0.6174 -0.8928
   14CHTO  H169 5600   4.746   4.015   1.563  1.7301 -0.2826  0.1330
   14CHTO   O63 5601   4.822   4.421   1.125  0.4881 -0.0052  0.1705
   14CHTO   C96 5602   4.805   4.542   1.214  0.5828 -0.7725 -0.3952
   14CHTO  H183 5603   4.873   4.543   1.298 -0.4498 -0.7778  0.4485
   14CHTO   C98 5604   4.660   4.559   1.259  0.3871 -0.6503 -0.3170
   14CHTO  H185 5605   4.597   4.560   1.169 -0.1554 -0.7600  0.0588
   14CHTO   O67 5606   4.620   4.434   1.325 -0.2403 -0.0145  0.1991
   14CHTO  H167 5607   4.527   4.425   1.314 -0.1351 -0.1844 -0.6096
   14CHTO  C102 5608   4.637   4.695   1.345  0.5164 -0.0716 -0.5897
   14CHTO  H189 5609   4.704   4.687   1.431  1.9511 -0.6357 -1.7463
   14CHTO   N18 5610   4.502   4.715   1.397  0.9824 -0.5425 -0.2410
   14CHTO  H176 5611   4.485   4.819   1.420  4.0462 -0.7167  3.4821
   14CHTO  H177 5612   4.480   4.641   1.473  1.5616 -1.6094 -1.0937
   14CHTO  C105 5613   4.684   4.811   1.252 -0.3513 -0.5041  0.8191
   14CHTO  H192 5614   4.620   4.813   1.164  0.2298 -3.3308  0.3069
   14CHTO   O65 5615   4.819   4.791   1.208  0.0741 -0.2549 -0.5811
   14CHTO  C100 5616   4.846   4.674   1.128  0.0573 -0.6133 -0.3523
   14CHTO  H187 5617   4.785   4.667   1.037 -0.2563 -1.6012 -0.0730
   14CHTO  C107 5618   4.996   4.673   1.089 -0.1922  0.0079 -0.1347
   14CHTO   O70 5619   5.042   4.786   1.019 -0.4264  0.2879 -0.4969
   14CHTO  H170 5620   5.134   4.785   0.999 -0.0974  1.1054  0.9710
   14CHTO   O57 5621   4.681   4.954   1.331  0.0156  0.1060 -0.5488
   14CHTO   C85 5622   4.638   5.079   1.273 -0.3269  0.6069  0.1440
   14CHTO  H157 5623   4.540   5.053   1.228 -0.0477 -0.0748 -0.0703
   14CHTO   C83 5624   4.727   5.125   1.156  0.4204  0.2914 -0.6473
   14CHTO  H155 5625   4.727   5.047   1.080  1.5144 -0.8054  0.4499
   14CHTO   O56 5626   4.866   5.133   1.201 -0.3787 -0.6131 -0.2031
   14CHTO  H135 5627   4.923   5.082   1.146 -0.1489 -3.1321  2.2395
   14CHTO   C81 5628   4.664   5.253   1.094  0.2029  0.9412 -0.1014
   14CHTO  H153 5629   4.565   5.227   1.056  0.8996 -0.6864 -0.8615
   14CHTO   N14 5630   4.737   5.286   0.967  0.0612 -0.7958 -0.4424
   14CHTO  H141 5631   4.842   5.306   0.980 -0.3876 -0.4304  2.9126
   14CHTO  H142 5632   4.692   5.364   0.909  0.5005  0.7816  1.2870
   14CHTO   C79 5633   4.645   5.359   1.200 -0.4249  0.4626 -0.1973
   14CHTO  H151 5634   4.579   5.436   1.158  1.0702  1.7298 -0.2910
   14CHTO   O52 5635   4.572   5.316   1.313  0.0110  0.1632 -0.2463
   14CHTO   C86 5636   4.624   5.194   1.371 -0.2206  0.4910  0.4936
   14CHTO  H158 5637   4.721   5.222   1.417 -0.0371  0.1415  0.3160
   14CHTO   C90 5638   4.531   5.156   1.485 -0.0611  0.5671  0.2340
   14CHTO   O60 5639   4.536   5.260   1.592 -0.2607 -0.2602 -0.5244
   14CHTO  H138 5640   4.479   5.229   1.660 -0.7026  1.3691 -0.1430
   14CHTO   O50 5641   4.773   5.414   1.236  0.1765  0.1667 -0.3023
   14CHTO   C73 5642   4.773   5.547   1.297 -0.4498  0.6340 -0.0490
   14CHTO  H145 5643   4.688   5.552   1.367 -1.7849 -4.8900 -1.0246
   14CHTO   C74 5644   4.765   5.664   1.186 -0.6765  0.1534  0.0012
   14CHTO  H146 5645   4.677   5.637   1.126 -0.2307 -2.5019  0.4793
   14CHTO   O54 5646   4.742   5.789   1.256 -0.1749  0.2313  0.5157
   14CHTO  H133 5647   4.818   5.819   1.301  0.0443  0.0409  0.2701
   14CHTO   C75 5648   4.899   5.663   1.095  0.2866 -0.1011 -0.1933
   14CHTO  H147 5649   4.893   5.577   1.026 -0.5800  1.0654 -1.6196
   14CHTO   N13 5650   4.917   5.780   1.006 -0.2591  0.2089  0.5291
   14CHTO  H139 5651   4.961   5.747   0.913 -3.1852 -0.0861 -0.8056
   14CHTO  H140 5652   4.826   5.835   0.988 -0.4646 -0.3073 -0.0304
   14CHTO   C76 5653   5.029   5.653   1.189 -0.9306  0.0604 -0.6278
   14CHTO  H148 5654   5.052   5.746   1.241  0.4213  0.7951 -2.4897
   14CHTO   O49 5655   5.010   5.554   1.295  0.0668  0.1531 -0.2455
   14CHTO   C77 5656   4.902   5.568   1.384 -0.3850 -0.1346  0.1468
   14CHTO  H149 5657   4.907   5.672   1.419 -1.0095 -0.8828  2.5500
   14CHTO   C88 5658   4.911   5.470   1.501  0.4178 -0.3373 -0.0613
   14CHTO   O58 5659   5.047   5.486   1.567  0.1704 -0.0448  0.1178
   14CHTO  H136 5660   5.034   5.525   1.651  0.7703  1.8345 -0.6393
   14CHTO   O51 5661   5.159   5.589   1.101 -0.0009  0.3132 -0.2968
   14CHTO   C78 5662   5.292   5.652   1.148  0.1848  0.2856 -0.7697
   14CHTO  H150 5663   5.276   5.683   1.253 -0.9365 -1.6572 -0.3500
   14CHTO   C80 5664   5.324   5.783   1.068 -1.0115 -0.0670 -0.2197
   14CHTO  H152 5665   5.294   5.780   0.961  0.5577  0.4305 -0.6937
   14CHTO   O55 5666   5.245   5.889   1.127  0.3991 -0.2653  0.4621
   14CHTO  H134 5667   5.198   5.864   1.204  1.1786 -1.8368  0.4602
   14CHTO   C84 5668   5.476   5.830   1.079  0.4793 -0.1275 -0.4135
   14CHTO  H156 5669   5.505   5.870   1.176  0.2862 -1.4002  0.1739
   14CHTO   N15 5670   5.505   5.935   0.973  0.4424 -0.1845 -0.2881
   14CHTO  H143 5671   5.531   6.025   1.025 -0.0697  0.2699 -0.8124
   14CHTO  H144 5672   5.586   5.911   0.906  0.0092  2.7264 -1.9332
   14CHTO   C87 5673   5.568   5.710   1.055 -0.1955 -0.0515 -0.5575
   14CHTO  H159 5674   5.549   5.674   0.953  0.8203  2.5539 -1.7168
   14CHTO   O53 5675   5.532   5.606   1.173 -0.1279 -0.0275 -0.0364
   14CHTO   C82 5676   5.396   5.544   1.144  0.2331 -0.1226 -0.9386
   14CHTO  H154 5677   5.398   5.500   1.044  1.6580  1.7075 -1.7198
   14CHTO   C89 5678   5.365   5.429   1.249  0.2350  1.1144  0.0356
   14CHTO   O59 5679   5.337   5.483   1.378 -0.2158 -0.2259 -0.8874
   14CHTO  H137 5680   5.288   5.419   1.427 -2.4163  2.4738  0.5341
   14CHTO   O45 5681   5.728   5.742   1.056  0.1355 -0.0997  0.3434
   14CHTO   C67 5682   5.800   5.622   1.032 -0.0281  0.2437 -0.7023
   14CHTO  H124 5683   5.753   5.528   1.063  2.9821 -0.8726  0.8001
   14CHTO   C65 5684   5.828   5.616   0.879 -0.1363 -0.1940 -0.2845
   14CHTO  H122 5685   5.735   5.632   0.825 -0.0570  0.1086 -0.3297
   14CHTO   O44 5686   5.866   5.480   0.840  0.3599  0.1677 -0.0901
   14CHTO  H102 5687   5.884   5.481   0.748  0.2959  0.8793 -0.0946
   14CHTO   C63 5688   5.918   5.732   0.830 -0.2494  0.2495 -0.3371
   14CHTO  H120 5689   5.885   5.826   0.873 -1.4512  0.2586 -1.2491
   14CHTO   N11 5690   5.928   5.766   0.680  0.0242  0.0724 -0.5361
   14CHTO  H108 5691   5.970   5.864   0.678  0.2420  0.0608  1.8019
   14CHTO  H109 5692   5.989   5.695   0.630 -0.3276 -0.0466 -0.7986
   14CHTO   C61 5693   6.051   5.711   0.904 -0.3787  0.3504  0.4726
   14CHTO  H118 5694   6.113   5.798   0.877 -1.1292  0.5639 -0.5829
   14CHTO   O40 5695   6.037   5.708   1.050 -0.0416 -0.1419 -0.1230
   14CHTO   C68 5696   5.934   5.624   1.107 -0.3509  0.2703 -0.4137
   14CHTO  H125 5697   5.906   5.664   1.207 -0.8904 -1.0552 -0.0246
   14CHTO   C72 5698   5.990   5.482   1.139  0.4381 -0.2779 -0.3895
   14CHTO   O48 5699   6.070   5.492   1.249 -0.1043 -0.1746  0.1491
   14CHTO  H105 5700   6.036   5.425   1.306  0.8686 -2.1938 -1.5785
   14CHTO   O38 5701   6.122   5.596   0.862 -0.0924  0.2341 -0.0761
   14CHTO   C55 5702   6.263   5.605   0.826  0.5705 -0.0309  0.4747
   14CHTO  H112 5703   6.297   5.709   0.813  0.0072 -0.1505 -2.1713
   14CHTO   C56 5704   6.277   5.518   0.691  0.3574 -0.2251 -0.7793
   14CHTO  H113 5705   6.237   5.417   0.704 -2.5386  1.1034  1.3123
   14CHTO   O42 5706   6.194   5.575   0.590  0.6206  0.1961 -0.2517
   14CHTO  H100 5707   6.203   5.532   0.507  0.8630 -0.5772  0.1720
   14CHTO   C57 5708   6.430   5.528   0.647 -0.3111  0.7247  0.3029
   14CHTO  H114 5709   6.468   5.625   0.613 -1.0799 -0.1556 -3.2816
   14CHTO   N10 5710   6.459   5.438   0.530  0.0709 -0.2255  0.0140
   14CHTO  H106 5711   6.373   5.434   0.465  0.0099  0.3452  0.0609
   14CHTO  H107 5712   6.543   5.480   0.477 -0.4650  4.2389  2.5366
   14CHTO   C58 5713   6.519   5.477   0.762  0.4650 -0.2581  0.6618
   14CHTO  H115 5714   6.503   5.368   0.771  0.4096 -0.5587 -2.4904
   14CHTO   O37 5715   6.490   5.541   0.890 -0.0087  0.1640  0.2772
   14CHTO   C59 5716   6.352   5.536   0.928 -0.9438 -0.1688  0.0026
   14CHTO  H116 5717   6.302   5.441   0.944 -0.5190 -0.7629 -2.0251
   14CHTO   C70 5718   6.354   5.611   1.062  0.0282 -0.5398  0.3803
   14CHTO   O46 5719   6.448   5.551   1.151 -0.1797 -0.0195  0.2311
   14CHTO  H103 5720   6.532   5.577   1.119  1.1985 -1.6319  2.3389
   14CHTO   O39 5721   6.663   5.505   0.723 -0.3622 -0.1586  0.1594
   14CHTO   C60 5722   6.774   5.452   0.803  0.2892 -0.3967  0.2588
   14CHTO  H117 5723   6.764   5.489   0.905  1.2764 -2.1411  1.0035
   14CHTO   C62 5724   6.780   5.293   0.803 -1.4477  0.2605  0.2278
   14CHTO  H119 5725   6.684   5.258   0.846 -0.2646  0.3696  3.0584
   14CHTO   O43 5726   6.789   5.240   0.667 -0.6099 -0.0783  0.0455
   14CHTO  H101 5727   6.869   5.270   0.629 -0.1945 -0.3483  0.6921
   14CHTO   C66 5728   6.900   5.249   0.907  0.3013  0.5177  0.3580
   14CHTO  H123 5729   6.887   5.292   1.007  0.9065 -3.1932  2.1294
   14CHTO   N12 5730   6.899   5.103   0.933 -0.4859  0.0970  0.1709
   14CHTO  H110 5731   6.805   5.065   0.971 -0.7537  1.1465  0.5669
   14CHTO  H111 5732   6.982   5.080   0.999 -0.2707  1.2697  0.3120
   14CHTO   C69 5733   7.032   5.308   0.843  0.1281  0.7123  0.2568
   14CHTO  H126 5734   7.050   5.268   0.741  0.8278 -3.9878  2.1292
   14CHTO   O41 5735   7.029   5.454   0.822  0.2273 -0.0830 -0.3034
   14CHTO   C64 5736   6.912   5.504   0.745 -0.6113  0.1996  0.3714
   14CHTO  H121 5737   6.927   5.463   0.643  0.1044 -1.3183  1.0723
   14CHTO   C71 5738   6.923   5.656   0.746  0.4877 -0.3321  0.4579
   14CHTO   O47 5739   7.034   5.702   0.678 -0.2028 -0.0577 -0.8364
   14CHTO  H104 5740   7.055   5.788   0.710 -0.5602 -0.5001  0.5962
   14CHTO   O34 5741   7.159   5.277   0.940 -0.2603 -0.3190 -0.2824
   14CHTO   C49 5742   7.316   5.264   0.886  0.0967 -0.4479  0.1854
   14CHTO   H91 5743   7.327   5.184   0.813  1.1713  1.1109 -1.4091
   14CHTO   C47 5744   7.402   5.243   1.008 -1.0937 -0.0175  0.1553
   14CHTO   H89 5745   7.507   5.237   0.971 -1.1586  3.5378 -0.8460
   14CHTO   O33 5746   7.373   5.117   1.059  0.5250 -0.4940 -0.6267
   14CHTO   H70 5747   7.383   5.114   1.153  1.7725  0.3820 -0.7259
   14CHTO   C45 5748   7.373   5.367   1.110  0.4845 -0.1105 -0.2186
   14CHTO   H87 5749   7.291   5.340   1.178 -1.6666 -0.4427 -2.8764
   14CHTO    N8 5750   7.495   5.383   1.192 -0.4719 -0.5826  0.5764
   14CHTO   H75 5751   7.460   5.426   1.285 -0.9794  0.3538 -0.0409
   14CHTO   H76 5752   7.570   5.445   1.145 -1.6381  0.2303 -0.2486
   14CHTO   C43 5753   7.331   5.504   1.031  0.1108  0.3675 -1.4107
   14CHTO   H85 5754   7.224   5.493   1.011 -0.6462  0.9753  1.9289
   14CHTO   O29 5755   7.409   5.507   0.908  0.0831  0.1720 -0.2019
   14CHTO   C50 5756   7.362   5.402   0.822  0.4655  0.1999 -0.5359
   14CHTO   H92 5757   7.271   5.444   0.776 -1.3666 -0.8789  1.9641
   14CHTO   C54 5758   7.459   5.368   0.709  0.1876  0.0655 -0.3337
   14CHTO   O36 5759   7.509   5.493   0.646 -0.2403 -0.0909 -0.5031
   14CHTO   H72 5760   7.469   5.502   0.562 -0.9145  0.8487 -0.0826
   14CHTO   O27 5761   7.335   5.625   1.109 -0.4676  0.4384 -0.6188
   14CHTO   C37 5762   7.271   5.755   1.131  0.0122  0.3000 -0.4232
   14CHTO   H79 5763   7.345   5.832   1.154  0.7315 -1.1595  2.3251
   14CHTO   C38 5764   7.189   5.809   1.010  0.3912  0.0719  0.1996
   14CHTO   H80 5765   7.130   5.728   0.966  1.4541 -2.2287  2.8089
   14CHTO   O31 5766   7.287   5.856   0.912 -0.4883 -0.4269 -0.3978
   14CHTO   H68 5767   7.261   5.930   0.861 -0.7251 -0.2524 -0.0205
   14CHTO   C39 5768   7.093   5.929   1.056  0.6674 -0.2446  0.5338
   14CHTO   H81 5769   7.149   6.018   1.085 -0.6213  0.8719 -0.3528
   14CHTO    N7 5770   7.012   5.978   0.948 -0.0910 -0.1947 -0.3943
   14CHTO   H73 5771   6.931   6.039   0.984  0.2664 -0.3345  0.6590
   14CHTO   H74 5772   6.980   5.905   0.875 -3.1765  0.9871 -0.2952
   14CHTO   C40 5773   7.012   5.882   1.179 -0.5073 -0.1287  0.0942
   14CHTO   H82 5774   6.945   5.802   1.150 -0.4515  0.1534 -0.8316
   14CHTO   O26 5775   7.101   5.842   1.286  1.1699  0.2257  0.1584
   14CHTO   C41 5776   7.186   5.728   1.258  0.7185  0.5813 -0.7233
   14CHTO   H83 5777   7.116   5.645   1.247  0.7996  0.5266 -0.8246
   14CHTO   C52 5778   7.281   5.709   1.388 -1.0158 -0.4800  0.4700
   14CHTO   O35 5779   7.208   5.658   1.512 -0.4404 -0.2352  0.6185
   14CHTO   H71 5780   7.248   5.589   1.560 -0.7008 -2.0611 -1.7376
   14CHTO   O28 5781   6.943   5.992   1.246 -0.1490 -0.6767  0.1857
   14CHTO   C42 5782   6.828   5.961   1.330  0.2004 -0.7406  0.1047
   14CHTO   H84 5783   6.793   6.055   1.370 -0.8621 -0.6589 -1.0210
   14CHTO   C44 5784   6.851   5.868   1.462  0.7891  0.1794  0.0976
   14CHTO   H86 5785   6.870   5.766   1.429  0.0771 -0.2705  1.0712
   14CHTO   O32 5786   6.952   5.925   1.550 -0.0091  0.4700  0.1586
   14CHTO   H69 5787   6.971   5.864   1.619  0.0813  1.3902  0.9587
   14CHTO   C48 5788   6.720   5.864   1.557 -0.0993 -0.3879  0.0521
   14CHTO   H90 5789   6.708   5.966   1.593 -0.0491 -0.7179  0.9981
   14CHTO    N9 5790   6.735   5.781   1.681 -0.6103  0.1173 -0.3182
   14CHTO   H77 5791   6.838   5.775   1.712 -0.4138 -1.0986 -1.1568
   14CHTO   H78 5792   6.683   5.835   1.759  2.5212  0.6088  1.5381
   14CHTO   C51 5793   6.602   5.816   1.460  0.0711 -0.2982  0.2735
   14CHTO   H93 5794   6.618   5.711   1.436  1.0854  1.3136 -7.3209
   14CHTO   O30 5795   6.587   5.894   1.339 -0.0594 -0.7072  0.0856
   14CHTO   C46 5796   6.711   5.906   1.250 -0.4251 -0.3809 -0.3146
   14CHTO   H88 5797   6.733   5.804   1.217 -0.6868 -0.6319  0.2613
   14CHTO   C53 5798   6.672   5.998   1.130 -0.6173 -0.6620  0.7527
   14CHTO   O72 5799   6.586   5.945   1.026 -0.3394 -0.3202  0.8654
   14CHTO  H199 5800   6.637   5.903   0.960  0.1838 -0.6790  1.4998
   14CHTO   O22 5801   6.473   5.837   1.523  0.2332 -0.2036 -0.4353
   14CHTO   C31 5802   6.348   5.767   1.475  1.0224  0.1173 -0.1379
   14CHTO   H59 5803   6.376   5.693   1.396  0.0026 -2.0424  1.4570
   14CHTO   C29 5804   6.289   5.685   1.589 -0.1645 -0.4053  0.5435
   14CHTO   H57 5805   6.282   5.757   1.672  0.7713  1.1741 -0.7003
   14CHTO   O21 5806   6.372   5.571   1.626 -0.3390  0.2922  0.2565
   14CHTO   H37 5807   6.366   5.500   1.565 -0.3867 -0.1392  0.7663
   14CHTO   C27 5808   6.142   5.633   1.562 -0.1220  0.1146  0.4753
   14CHTO   H55 5809   6.142   5.563   1.478  1.6425  0.1297  0.4541
   14CHTO    N5 5810   6.084   5.565   1.679 -0.2396  0.2475  0.0995
   14CHTO   H43 5811   6.023   5.479   1.658 -1.2666  1.1671 -0.7115
   14CHTO   H44 5812   6.020   5.639   1.722 -0.9539 -1.1346  1.4450
   14CHTO   C25 5813   6.057   5.756   1.502 -0.4571  0.3300 -0.1621
   14CHTO   H53 5814   6.064   5.836   1.577 -0.9208 -0.6570  0.9465
   14CHTO   O17 5815   6.116   5.795   1.380 -0.2897 -0.2631  0.4172
   14CHTO   C32 5816   6.241   5.858   1.405 -0.1655  0.2202 -0.4518
   14CHTO   H60 5817   6.227   5.947   1.467  1.2254  1.6254 -2.1253
   14CHTO   C36 5818   6.289   5.920   1.274 -0.0859 -0.0490  0.3374
   14CHTO   O25 5819   6.223   6.044   1.251 -0.4599  0.2168 -0.3661
   14CHTO   H40 5820   6.281   6.118   1.255  0.5229 -0.4914 -1.1490
   14CHTO   O15 5821   5.904   5.722   1.480 -0.4200 -0.0347  0.2512
   14CHTO   C19 5822   5.771   5.760   1.439 -0.0980  1.0510 -0.6093
   14CHTO   H47 5823   5.759   5.715   1.340 -0.0894 -0.6330  0.1304
   14CHTO   C20 5824   5.655   5.716   1.537  0.3455 -0.0270 -0.0852
   14CHTO   H48 5825   5.675   5.751   1.639 -1.1993 -0.3673  0.3434
   14CHTO   O19 5826   5.648   5.572   1.536 -0.2318  0.1383  0.0785
   14CHTO   H35 5827   5.568   5.539   1.573 -0.5488  1.7215  0.8704
   14CHTO   C21 5828   5.512   5.783   1.494  0.1054 -0.2236  0.0718
   14CHTO   H49 5829   5.482   5.741   1.398  1.9420  1.8861 -1.4679
   14CHTO    N4 5830   5.402   5.750   1.589 -0.1516  0.3329 -0.8280
   14CHTO   H41 5831   5.334   5.680   1.542  0.1462 -0.3395 -0.2520
   14CHTO   H42 5832   5.445   5.700   1.674 -0.8951 -1.0743 -1.2497
   14CHTO   C22 5833   5.527   5.935   1.467  0.3454  0.2300  0.0022
   14CHTO   H50 5834   5.550   5.988   1.560  0.7266 -0.4861  0.3229
   14CHTO   O14 5835   5.633   5.952   1.371 -0.0107 -0.5471 -0.8608
   14CHTO   C23 5836   5.762   5.910   1.420  0.2048 -0.1079 -0.1012
   14CHTO   H51 5837   5.783   5.966   1.512  0.8810 -0.1502 -0.2258
   14CHTO   C34 5838   5.873   5.962   1.324 -0.6197  0.0215  0.2251
   14CHTO   O23 5839   5.918   6.094   1.355 -0.1508  0.0157  0.0510
   14CHTO   H38 5840   5.955   6.086   1.441  2.4236  1.5008 -0.8645
   14CHTO   O16 5841   5.411   6.004   1.411  0.1505  0.6977 -0.3359
   14CHTO   C24 5842   5.415   6.178   1.410  0.5149  0.3333 -0.5289
   14CHTO   H52 5843   5.336   6.219   1.348 -0.5514 -1.5348 -0.4660
   14CHTO   C26 5844   5.550   6.226   1.351  0.0602 -0.3256 -0.5785
   14CHTO   H54 5845   5.629   6.176   1.410 -1.5361 -0.9521  1.0997
   14CHTO   O20 5846   5.550   6.184   1.216 -0.1958  0.0013 -0.0723
   14CHTO   H36 5847   5.565   6.091   1.209 -0.2292 -0.1007  1.2329
   14CHTO   C30 5848   5.570   6.382   1.361 -0.0979 -0.4772  0.3150
   14CHTO   H58 5849   5.505   6.422   1.281 -0.7719 -1.1240  0.5376
   14CHTO    N6 5850   5.703   6.425   1.317  0.2513  0.5115 -0.4799
   14CHTO   H45 5851   5.706   6.442   1.210  0.6759 -0.5001 -0.6334
   14CHTO   H46 5852   5.739   6.513   1.368 -0.9116 -0.0380  1.3375
   14CHTO   C33 5853   5.525   6.442   1.497  0.0005  0.9110  0.1374
   14CHTO   H61 5854   5.599   6.418   1.574 -2.3090 -3.3355  1.1358
   14CHTO   O18 5855   5.398   6.384   1.534 -1.1028  0.5914  0.3088
   14CHTO   C28 5856   5.396   6.239   1.550 -0.6911  0.1028 -0.0721
   14CHTO   H56 5857   5.476   6.203   1.614 -0.6017 -0.4851 -0.5041
   14CHTO   C35 5858   5.261   6.210   1.608  0.1089  0.1322 -0.3129
   14CHTO   O24 5859   5.251   6.276   1.734  0.0881 -0.5282  0.0470
   14CHTO   H39 5860   5.297   6.233   1.803  1.6703 -0.7687 -1.1387
   14CHTO    O9 5861   5.514   6.581   1.496 -0.3006 -0.3651  0.1901
   14CHTO   C13 5862   5.464   6.654   1.632 -0.1836  0.5864  0.0485
   14CHTO   H26 5863   5.482   6.582   1.715 -2.8740 -0.6914 -0.4227
   14CHTO   C11 5864   5.313   6.686   1.620  0.3013  0.1765 -0.0112
   14CHTO   H24 5865   5.257   6.592   1.630 -0.5586  0.8275  1.5019
   14CHTO    O8 5866   5.287   6.729   1.481  0.2593 -0.0295  0.1405
   14CHTO    H3 5867   5.302   6.821   1.474 -2.6685  0.4589 -0.3925
   14CHTO    C9 5868   5.265   6.775   1.737  0.3213 -0.0118  0.0852
   14CHTO   H22 5869   5.286   6.720   1.830  0.2743  2.6075  1.7190
   14CHTO    N2 5870   5.119   6.788   1.753  0.1007 -0.7156 -0.2645
   14CHTO   H10 5871   5.086   6.874   1.696  1.8751 -0.1108 -0.4074
   14CHTO   H11 5872   5.070   6.699   1.718  0.3138 -0.4799 -1.1792
   14CHTO    C7 5873   5.348   6.918   1.727 -0.7714  0.6274 -0.7639
   14CHTO   H20 5874   5.375   6.956   1.828 -3.7722 -0.5232  0.5195
   14CHTO    O4 5875   5.471   6.906   1.659  0.4868  0.1097 -0.9594
   14CHTO   C14 5876   5.545   6.785   1.681 -0.1944 -0.1410 -0.4567
   14CHTO   H27 5877   5.569   6.768   1.788 -0.5670 -0.5415 -0.4371
   14CHTO   C18 5878   5.679   6.795   1.607 -0.5935  0.0718 -0.2663
   14CHTO   O13 5879   5.761   6.686   1.652  0.2676  0.0943 -0.0773
   14CHTO    H7 5880   5.795   6.640   1.578  1.6601  1.6393 -0.4280
   14CHTO    O2 5881   5.263   7.040   1.664 -0.1978 -0.1093 -0.0023
   14CHTO    C1 5882   5.290   7.172   1.710  0.0649 -0.1369  0.2423
   14CHTO   H14 5883   5.249   7.242   1.634  0.3910 -0.1287  0.0704
   14CHTO    C2 5884   5.435   7.207   1.721 -0.4874  0.0458 -0.2865
   14CHTO   H15 5885   5.487   7.145   1.795 -0.3478  0.8952  0.3448
   14CHTO    O6 5886   5.488   7.191   1.591  0.0200 -0.0067  0.1227
   14CHTO    H1 5887   5.569   7.145   1.595  0.0844  0.1104  0.1788
   14CHTO    C3 5888   5.455   7.363   1.771  0.0760  0.6210 -0.6931
   14CHTO   H16 5889   5.432   7.436   1.692 -0.9434  0.2074 -0.7821
   14CHTO    N1 5890   5.601   7.397   1.806  0.0418 -0.3199 -0.2223
   14CHTO    H8 5891   5.600   7.502   1.834 -1.4485  0.1539 -1.9541
   14CHTO    H9 5892   5.663   7.390   1.719  1.6352  0.4684  0.8271
   14CHTO    C4 5893   5.366   7.395   1.892  0.0236 -0.1717  0.1056
   14CHTO   H17 5894   5.414   7.355   1.981 -1.1195 -0.0774  0.7642
   14CHTO    O1 5895   5.234   7.343   1.879  0.2157  0.6184 -0.2105
   14CHTO    C5 5896   5.215   7.205   1.839 -0.6397  0.2405  0.2901
   14CHTO   H18 5897   5.261   7.148   1.920  1.0472  1.5094  0.2416
   14CHTO   C16 5898   5.066   7.168   1.827  0.1874 -0.7483 -0.2727
   14CHTO   O11 5899   4.982   7.146   1.944 -0.9124  0.0918  0.3148
   14CHTO    H5 5900   5.021   7.096   2.013 -0.3152  0.6191  0.3728
   14CHTO    O3 5901   5.353   7.537   1.908  0.1917  0.5744 -0.3103
   14CHTO    C6 5902   5.307   7.587   2.041  0.0804 -0.0558 -0.6053
   14CHTO   H19 5903   5.284   7.501   2.104 -2.8863 -0.2805 -1.9125
   14CHTO    C8 5904   5.418   7.671   2.106 -0.3994 -0.5381 -0.1701
   14CHTO   H21 5905   5.464   7.727   2.024  0.7457  0.7848  1.3413
   14CHTO    O7 5906   5.513   7.571   2.152 -0.5041 -0.2353  0.5334
   14CHTO    H2 5907   5.597   7.611   2.159 -1.5239  2.0651  0.2384
   14CHTO   C12 5908   5.369   7.761   2.216  0.4110 -0.1402 -0.3321
   14CHTO   H25 5909   5.343   7.692   2.299 -1.2009 -0.5313 -1.1470
   14CHTO    N3 5910   5.485   7.849   2.263  0.2241 -0.5310  0.4180
   14CHTO   H12 5911   5.490   7.941   2.207  1.8315 -0.3556  0.8178
   14CHTO   H13 5912   5.491   7.861   2.370  2.3463 -0.7231  0.3423
   14CHTO   C15 5913   5.239   7.835   2.174 -0.5863  0.5976  0.1823
   14CHTO   H28 5914   5.259   7.899   2.088  1.1713 -1.0505 -0.6812
   14CHTO   O10 5915   5.185   7.925   2.273  0.4542  0.0539 -0.4799
   14CHTO    H4 5916   5.111   7.966   2.233  0.3389  1.1627  0.8095
   14CHTO    O5 5917   5.139   7.736   2.141 -0.1040  0.3371  0.4801
   14CHTO   C10 5918   5.172   7.657   2.026 -1.3660 -0.8781  0.1703
   14CHTO   H23 5919   5.189   7.723   1.942  1.2194 -2.7767 -0.8876
   14CHTO   C17 5920   5.058   7.571   1.990 -0.3082  0.1613  0.2530
   14CHTO   O12 5921   5.038   7.470   2.093 -0.0392  0.0546  0.3495
   14CHTO    H6 5922   4.948   7.446   2.085  0.2440 -1.2383  0.8436
   15CHTO  H203 5923   7.171   4.513   1.794  3.1465  0.4049  1.5461
   15CHTO   O82 5924   7.194   4.573   1.726 -0.1632  0.1525  0.1063
   15CHTO  C123 5925   7.135   4.510   1.610  0.0226  0.1813  0.0308
   15CHTO  H227 5926   7.109   4.406   1.635 -1.6777  0.7967  0.9005
   15CHTO   O77 5927   7.013   4.588   1.586 -0.3053  0.0804  0.1232
   15CHTO  C118 5928   6.924   4.523   1.487  0.3862  0.1836 -0.4514
   15CHTO  H222 5929   6.906   4.422   1.526  0.6185  0.1426 -0.4525
   15CHTO  C125 5930   6.786   4.598   1.483  0.8664  0.2299 -0.3495
   15CHTO   O84 5931   6.734   4.614   1.616  0.2584  0.2861 -0.9490
   15CHTO  H205 5932   6.657   4.668   1.605  0.1524  0.2905 -0.1965
   15CHTO  C114 5933   6.984   4.512   1.348 -0.0127 -0.1230  0.5031
   15CHTO  H218 5934   6.991   4.611   1.303 -0.0775 -0.3906 -0.1095
   15CHTO  C116 5935   7.136   4.478   1.349  0.1094  0.1552  0.0560
   15CHTO  H220 5936   7.141   4.368   1.338 -2.6370  0.0093 -0.2824
   15CHTO   O79 5937   7.201   4.523   1.231  0.1440 -1.0050  0.1792
   15CHTO  H201 5938   7.294   4.516   1.242  0.4753  0.0835 -1.5518
   15CHTO  C120 5939   7.216   4.523   1.485 -0.1387 -0.0837 -0.6325
   15CHTO  H224 5940   7.246   4.629   1.479  0.8188 -0.3376 -0.4518
   15CHTO   N21 5941   7.341   4.435   1.493 -0.0448  0.2607  0.4171
   15CHTO  H211 5942   7.321   4.338   1.450  0.2895  0.9644 -1.3955
   15CHTO  H212 5943   7.424   4.491   1.452  0.0050  0.4476  0.7781
   15CHTO   O75 5944   6.901   4.431   1.267  0.7341 -0.3322  0.4196
   15CHTO  C112 5945   6.913   4.273   1.272 -0.0331 -0.3600 -0.0811
   15CHTO  H216 5946   6.951   4.239   1.369 -0.1070 -1.2772 -0.3693
   15CHTO   O73 5947   7.003   4.245   1.158 -0.0357  0.5235 -0.0348
   15CHTO  C113 5948   7.036   4.106   1.162 -0.4173 -0.9351  0.4131
   15CHTO  H217 5949   7.070   4.084   1.265 -0.7928 -0.3521  0.6612
   15CHTO  C124 5950   7.160   4.088   1.072 -0.0133 -0.4499 -0.3206
   15CHTO   O83 5951   7.283   4.132   1.140  0.0745  0.0813  0.5256
   15CHTO  H204 5952   7.310   4.068   1.202 -1.7489  0.6386  1.9624
   15CHTO  C109 5953   6.908   4.025   1.121  0.5729  0.0897 -0.3094
   15CHTO  H213 5954   6.872   4.074   1.029 -0.9333  1.4056  0.9571
   15CHTO  C110 5955   6.801   4.046   1.237  0.1092  0.1473 -0.1105
   15CHTO  H214 5956   6.840   4.007   1.332  2.0824  0.3537 -0.8202
   15CHTO   O78 5957   6.682   3.967   1.195 -0.0811  0.2743  0.0909
   15CHTO  H200 5958   6.680   3.884   1.239  0.7373  0.0350 -0.3156
   15CHTO  C111 5959   6.777   4.197   1.254 -0.0587 -0.0152  0.7884
   15CHTO  H215 5960   6.732   4.237   1.162 -1.4717  0.5266  1.7027
   15CHTO   N19 5961   6.683   4.228   1.368  0.1086 -0.3079 -0.3392
   15CHTO  H207 5962   6.606   4.152   1.371 -0.9378  0.8051  1.9064
   15CHTO  H208 5963   6.627   4.315   1.335 -0.4724 -0.1120  1.1416
   15CHTO   O74 5964   6.955   3.887   1.092  0.2773 -0.5104  0.0281
   15CHTO  C115 5965   6.875   3.832   0.976 -0.5721 -0.7580  0.0642
   15CHTO  H219 5966   6.767   3.835   0.989 -0.6934  0.9383 -1.0240
   15CHTO   O76 5967   6.905   3.922   0.838 -0.4319  0.0576 -0.0950
   15CHTO  C122 5968   7.038   3.877   0.787  0.3169 -0.0085 -0.0245
   15CHTO  H226 5969   7.107   3.884   0.870  0.9138 -0.7979 -0.4448
   15CHTO  C126 5970   7.087   3.982   0.666 -0.1256  0.8771  0.1105
   15CHTO   O85 5971   7.076   4.120   0.692 -0.0268  0.3728 -0.1536
   15CHTO  H206 5972   7.130   4.169   0.632 -0.1251 -0.5081 -0.9750
   15CHTO  C121 5973   7.036   3.726   0.737  1.0181  0.5109  0.0625
   15CHTO  H225 5974   7.015   3.723   0.628 -0.7780 -3.8579  0.4161
   15CHTO   O81 5975   7.159   3.658   0.753 -0.5428  0.1505  0.2639
   15CHTO  H202 5976   7.216   3.679   0.682  0.3782 -0.1393  0.9156
   15CHTO  C119 5977   6.919   3.654   0.806 -0.0955 -0.3027 -0.1429
   15CHTO  H223 5978   6.829   3.692   0.759 -1.5620 -1.4206  1.6938
   15CHTO  C117 5979   6.925   3.685   0.962  0.2687 -0.4321 -0.3947
   15CHTO  H221 5980   7.018   3.689   1.018  0.0114  0.5132 -0.0237
   15CHTO   N20 5981   6.836   3.603   1.047  0.2411 -1.4178  0.4913
   15CHTO  H209 5982   6.738   3.585   1.004 -0.6778  0.1759  1.8428
   15CHTO  H210 5983   6.873   3.504   1.069 -1.6441 -2.2400  0.1218
   15CHTO   O80 5984   6.905   3.479   0.769 -0.1226 -0.0486 -0.4499
   15CHTO  C103 5985   6.770   3.423   0.730  0.1007 -0.3921  0.5242
   15CHTO  H190 5986   6.696   3.447   0.806  0.9456 -0.3067  1.3185
   15CHTO  C101 5987   6.712   3.477   0.591  0.0480  0.1513 -0.4911
   15CHTO  H188 5988   6.791   3.463   0.517 -0.7781 -0.4339 -1.2704
   15CHTO   O68 5989   6.670   3.611   0.605 -0.2102  0.7634 -0.0273
   15CHTO  H168 5990   6.650   3.653   0.523  0.8535  0.3115 -0.5283
   15CHTO   C99 5991   6.586   3.391   0.541 -0.7333  0.3247 -0.0421
   15CHTO  H186 5992   6.505   3.400   0.615 -0.1512 -3.4022  1.1040
   15CHTO   N17 5993   6.529   3.436   0.413  0.3402  0.2542 -0.5700
   15CHTO  H174 5994   6.450   3.373   0.375 -0.8374  0.5925  1.2645
   15CHTO  H175 5995   6.488   3.536   0.421 -0.3829 -0.1638  1.1885
   15CHTO   C97 5996   6.614   3.238   0.541  0.3114 -0.2357  0.1989
   15CHTO  H184 5997   6.688   3.216   0.463  0.2988 -1.3202  0.4909
   15CHTO   O64 5998   6.663   3.208   0.674 -0.5788  0.2488 -0.0320
   15CHTO  C104 5999   6.782   3.269   0.717  0.3834 -0.3700 -0.9706
   15CHTO  H191 6000   6.863   3.242   0.650  2.0209 -1.8109  1.5311
   15CHTO  C108 6001   6.817   3.220   0.862 -0.2699  0.4391  0.4355
   15CHTO   O71 6002   6.874   3.090   0.859 -0.3940 -0.2144  0.2384
   15CHTO  H171 6003   6.872   3.058   0.948  0.7594 -1.7685 -0.2757
   15CHTO   O62 6004   6.496   3.154   0.523 -0.2904 -0.1546 -0.0955
   15CHTO   C91 6005   6.471   3.093   0.395  0.0182 -0.1228 -0.6026
   15CHTO  H178 6006   6.513   3.156   0.316 -0.8648 -0.7522 -1.5997
   15CHTO   C92 6007   6.315   3.103   0.385  0.0744 -0.1701  0.1218
   15CHTO  H179 6008   6.286   3.209   0.392 -2.3038 -0.7722 -0.0328
   15CHTO   O66 6009   6.302   3.072   0.243 -0.1687 -0.5109 -0.3069
   15CHTO  H166 6010   6.212   3.088   0.222 -0.3933  0.2698  1.1525
   15CHTO   C93 6011   6.231   2.983   0.459  0.1405 -1.5270 -0.3511
   15CHTO  H180 6012   6.152   2.957   0.387  0.7225 -0.9284 -1.2175
   15CHTO   N16 6013   6.168   3.032   0.582 -0.2906 -0.0787 -0.6852
   15CHTO  H172 6014   6.240   3.053   0.659 -0.8378  0.6386 -0.3639
   15CHTO  H173 6015   6.090   3.106   0.573 -1.1992 -1.0019 -0.5661
   15CHTO   C94 6016   6.335   2.861   0.479 -0.9836 -0.0477 -0.2614
   15CHTO  H181 6017   6.397   2.872   0.568 -1.5997 -0.9730  0.2909
   15CHTO   O61 6018   6.434   2.842   0.375 -0.2920  0.5388 -0.0880
   15CHTO   C95 6019   6.537   2.944   0.377 -0.1179 -0.0110  0.3431
   15CHTO  H182 6020   6.602   2.926   0.462  0.4401  0.5664  0.0460
   15CHTO  C106 6021   6.621   2.930   0.248  0.0172 -0.1588  0.1598
   15CHTO   O69 6022   6.536   2.935   0.132  0.0956 -0.5680 -0.4284
   15CHTO  H169 6023   6.582   2.938   0.050  0.0584 -0.8286 -0.4616
   15CHTO   O63 6024   6.260   2.734   0.492 -0.3331 -0.0849  0.4059
   15CHTO   C96 6025   6.317   2.606   0.580  0.2833 -0.8387 -0.3831
   15CHTO  H183 6026   6.339   2.629   0.684 -0.0536 -0.1839 -0.4489
   15CHTO   C98 6027   6.449   2.539   0.517 -0.1425  0.1167 -0.1925
   15CHTO  H185 6028   6.443   2.548   0.408 -0.6213 -1.3338 -0.2940
   15CHTO   O67 6029   6.569   2.611   0.559 -0.1863 -0.1965  0.0211
   15CHTO  H167 6030   6.549   2.697   0.589  0.1267  0.2864 -1.1549
   15CHTO  C102 6031   6.467   2.382   0.560  0.0851  0.1429  0.0139
   15CHTO  H189 6032   6.496   2.382   0.666  1.1481 -0.1052 -0.2725
   15CHTO   N18 6033   6.571   2.315   0.481  0.0253 -0.4760 -0.3539
   15CHTO  H176 6034   6.533   2.223   0.440  1.3585 -0.5987 -1.3365
   15CHTO  H177 6035   6.655   2.289   0.544 -1.4964 -0.5370  1.7349
   15CHTO  C105 6036   6.329   2.322   0.559  0.2803 -0.0239 -0.0548
   15CHTO  H192 6037   6.299   2.326   0.454 -1.8329  0.4494  0.5484
   15CHTO   O65 6038   6.248   2.379   0.652 -0.1560 -0.0030 -0.4991
   15CHTO  C100 6039   6.193   2.502   0.603 -0.7219  0.4704 -0.0601
   15CHTO  H187 6040   6.125   2.478   0.520 -0.0627 -1.2837 -0.1170
   15CHTO  C107 6041   6.101   2.560   0.709  0.3413 -0.1804  0.4341
   15CHTO   O70 6042   6.000   2.640   0.643  0.0898 -0.1902  0.2914
   15CHTO  H170 6043   5.923   2.655   0.694 -0.4060  0.3349 -0.6060
   15CHTO   O57 6044   6.350   2.133   0.596 -0.1551  0.0552 -0.2725
   15CHTO   C85 6045   6.379   2.088   0.730  0.5225 -0.4119 -0.5292
   15CHTO  H157 6046   6.408   2.179   0.787 -1.0357 -1.1602  1.5021
   15CHTO   C83 6047   6.512   2.003   0.721 -1.1732  0.4715  0.6535
   15CHTO  H155 6048   6.588   2.073   0.685  1.4295 -2.2727  0.6735
   15CHTO   O56 6049   6.493   1.899   0.619  0.2209  0.1796  0.2044
   15CHTO  H135 6050   6.427   1.843   0.654  0.5868 -0.5743 -0.3054
   15CHTO   C81 6051   6.555   1.956   0.860  0.0405  0.2692  0.0149
   15CHTO  H153 6052   6.576   2.040   0.926  0.4255  0.0682  0.1463
   15CHTO   N14 6053   6.685   1.884   0.852 -0.2647 -0.1201 -0.0637
   15CHTO  H141 6054   6.750   1.898   0.936 -2.1637 -1.3348  1.6266
   15CHTO  H142 6055   6.674   1.779   0.836 -1.9103 -0.0930  0.8662
   15CHTO   C79 6056   6.436   1.874   0.919  0.1138  0.0898 -0.2613
   15CHTO  H151 6057   6.466   1.842   1.019 -1.0028 -0.0532  0.0375
   15CHTO   O52 6058   6.315   1.956   0.929 -0.2578 -0.2280  0.2826
   15CHTO   C86 6059   6.263   2.009   0.804  0.2768  0.4786  0.5250
   15CHTO  H158 6060   6.224   1.928   0.738  0.8371  0.8263 -0.2376
   15CHTO   C90 6061   6.141   2.105   0.831  0.2155 -0.2008 -0.4330
   15CHTO   O60 6062   6.076   2.141   0.709 -0.0083 -0.3484 -0.2980
   15CHTO  H138 6063   5.990   2.176   0.721 -1.6934 -4.3441  0.1839
   15CHTO   O50 6064   6.401   1.749   0.851 -0.6373 -0.1456 -0.2687
   15CHTO   C73 6065   6.312   1.638   0.826  0.3340  0.3087  0.1737
   15CHTO  H145 6066   6.210   1.663   0.793  0.4018 -1.1815 -1.2639
   15CHTO   C74 6067   6.284   1.572   0.968 -0.1765  0.2224 -0.1072
   15CHTO  H146 6068   6.242   1.652   1.030 -1.5585 -1.1913  0.8137
   15CHTO   O54 6069   6.190   1.464   0.935 -0.5687 -0.2131  0.0343
   15CHTO  H133 6070   6.108   1.497   0.902 -0.2221  0.1200 -0.4891
   15CHTO   C75 6071   6.422   1.528   1.019  0.3735  0.4142  0.2330
   15CHTO  H147 6072   6.486   1.616   1.039  1.4602 -0.2602 -0.1994
   15CHTO   N13 6073   6.411   1.461   1.153 -0.3148  0.1669  0.4666
   15CHTO  H139 6074   6.511   1.431   1.182 -0.2158  0.1347  0.0977
   15CHTO  H140 6075   6.350   1.372   1.156  1.2551 -0.9934 -0.8399
   15CHTO   C76 6076   6.501   1.433   0.914  0.9992 -0.9809  0.0160
   15CHTO  H148 6077   6.458   1.333   0.910 -0.1734 -0.4262 -2.1950
   15CHTO   O49 6078   6.498   1.486   0.775  0.3272 -0.3357 -0.0155
   15CHTO   C77 6079   6.372   1.533   0.726  0.8446  0.5089  0.8873
   15CHTO  H149 6080   6.305   1.448   0.718  2.5341 -0.6763 -1.2686
   15CHTO   C88 6081   6.389   1.583   0.584 -0.5162 -0.1751  0.1133
   15CHTO   O58 6082   6.235   1.640   0.533  0.3242  0.0757  0.3598
   15CHTO  H136 6083   6.212   1.719   0.578  1.1729  0.4166  0.2081
   15CHTO   O51 6084   6.652   1.427   0.964  0.0125  0.2228  0.0848
   15CHTO   C78 6085   6.731   1.329   0.877  0.3667 -0.3174  0.3699
   15CHTO  H150 6086   6.700   1.315   0.771  1.8832  0.5738 -0.2091
   15CHTO   C80 6087   6.746   1.193   0.943 -0.0166  0.1737 -0.3272
   15CHTO  H152 6088   6.778   1.209   1.048 -1.5985  1.2688 -0.0082
   15CHTO   O55 6089   6.619   1.125   0.941 -0.0193 -0.3143  0.2359
   15CHTO  H134 6090   6.602   1.095   1.028 -1.0076  1.5856  0.7435
   15CHTO   C84 6091   6.859   1.109   0.879 -0.7906 -0.1474  0.0801
   15CHTO  H156 6092   6.838   1.091   0.773  0.1247  1.0534 -0.3172
   15CHTO   N15 6093   6.874   0.976   0.955  0.4149 -0.2969 -0.1418
   15CHTO  H143 6094   6.839   0.900   0.889 -0.8675  1.4410 -1.5025
   15CHTO  H144 6095   6.977   0.957   0.980 -0.2765 -2.2128  1.3339
   15CHTO   C87 6096   6.994   1.188   0.870  1.0681  0.0920  0.1859
   15CHTO  H159 6097   7.030   1.208   0.970 -0.4728  0.6040  0.6606
   15CHTO   O53 6098   6.961   1.322   0.793  0.0671 -0.2483  0.6592
   15CHTO   C82 6099   6.863   1.410   0.863 -0.0872 -0.3527  0.6889
   15CHTO  H154 6100   6.913   1.439   0.956  2.5758 -1.7216 -0.2672
   15CHTO   C89 6101   6.848   1.538   0.773  0.0389 -0.9380  0.1426
   15CHTO   O59 6102   6.811   1.511   0.633 -0.6260 -0.0122  0.3326
   15CHTO  H137 6103   6.850   1.433   0.598  1.6644  1.3165 -0.1815
   15CHTO   O45 6104   7.101   1.112   0.785  0.0455 -0.1229  0.3045
   15CHTO   C67 6105   7.226   1.184   0.788 -0.7531 -0.0313 -0.6131
   15CHTO  H124 6106   7.211   1.291   0.802  0.5383  0.5077 -3.0294
   15CHTO   C65 6107   7.314   1.129   0.914 -0.7473 -0.4894  0.9714
   15CHTO  H122 6108   7.289   1.024   0.922 -0.5490 -0.3894  3.2597
   15CHTO   O44 6109   7.266   1.203   1.029  0.3347  0.0198  0.3350
   15CHTO  H102 6110   7.178   1.173   1.045 -0.2513  0.4664 -1.8696
   15CHTO   C63 6111   7.469   1.126   0.892 -0.2081  0.2122  0.7310
   15CHTO  H120 6112   7.498   1.043   0.827 -2.1124  0.9512 -1.0997
   15CHTO   N11 6113   7.548   1.105   1.016  0.3812  0.2999  0.5788
   15CHTO  H108 6114   7.641   1.054   1.002  0.7634  1.5756 -1.7140
   15CHTO  H109 6115   7.490   1.063   1.096  0.7850 -0.3929  0.5027
   15CHTO   C61 6116   7.505   1.256   0.805 -0.3718 -0.4970  0.4320
   15CHTO  H118 6117   7.613   1.255   0.783 -0.5794  0.8564 -0.6884
   15CHTO   O40 6118   7.428   1.256   0.673  0.1471 -0.3856  0.3166
   15CHTO   C68 6119   7.304   1.173   0.657 -0.1936  0.5918  0.8398
   15CHTO  H125 6120   7.333   1.067   0.638  0.2160  0.5395  1.7342
   15CHTO   C72 6121   7.221   1.211   0.536 -0.0932 -0.7352  0.1124
   15CHTO   O48 6122   7.288   1.216   0.413 -0.0414  0.1778 -0.1872
   15CHTO  H105 6123   7.227   1.259   0.356 -0.5817 -0.2551  0.0484
   15CHTO   O38 6124   7.480   1.380   0.876  0.3116 -0.1523  0.1398
   15CHTO   C55 6125   7.518   1.506   0.822 -0.2300  0.0393 -0.1307
   15CHTO  H112 6126   7.493   1.502   0.715  0.0292 -2.4933 -0.1287
   15CHTO   C56 6127   7.671   1.545   0.848  0.3021  0.8444  0.0106
   15CHTO  H113 6128   7.692   1.527   0.954 -0.3259  0.4173  0.0635
   15CHTO   O42 6129   7.748   1.457   0.770  0.1628  0.1896  0.0944
   15CHTO  H100 6130   7.838   1.453   0.798  1.0020  1.9558 -2.2234
   15CHTO   C57 6131   7.693   1.699   0.814 -0.3310  0.6514  0.1578
   15CHTO  H114 6132   7.668   1.704   0.708 -0.1298 -2.5611 -0.0812
   15CHTO   N10 6133   7.834   1.734   0.841 -0.2012 -0.4415  0.3735
   15CHTO  H106 6134   7.865   1.820   0.782  0.9116 -1.0394  0.0601
   15CHTO  H107 6135   7.837   1.761   0.946 -1.9296 -2.3951  0.9461
   15CHTO   C58 6136   7.590   1.785   0.888 -0.2034  0.5089 -0.0157
   15CHTO  H115 6137   7.605   1.774   0.997 -0.9786  0.8151  0.1271
   15CHTO   O37 6138   7.458   1.747   0.856 -0.0615  0.1073  0.9816
   15CHTO   C59 6139   7.427   1.610   0.892 -0.5285 -0.1024 -0.3232
   15CHTO  H116 6140   7.430   1.610   1.001 -2.1050 -1.9472 -0.2559
   15CHTO   C70 6141   7.280   1.581   0.868 -0.2820 -0.5581 -0.0839
   15CHTO   O46 6142   7.238   1.585   0.733  0.3013 -0.2681  0.4267
   15CHTO  H103 6143   7.145   1.578   0.742  0.5050 -2.9919  0.9607
   15CHTO   O39 6144   7.631   1.953   0.835 -0.3170  0.1895 -0.1302
   15CHTO   C60 6145   7.561   1.985   0.719 -0.6258 -0.3729  0.3859
   15CHTO  H117 6146   7.563   1.895   0.658  1.5913 -1.2480  1.7110
   15CHTO   C62 6147   7.412   2.038   0.735  0.5554 -0.1325  0.1539
   15CHTO  H119 6148   7.372   1.954   0.796  0.4953 -0.1618  0.0743
   15CHTO   O43 6149   7.426   2.168   0.795  0.3473 -0.0295 -0.5283
   15CHTO  H101 6150   7.339   2.196   0.815  0.7462  0.4121  0.6672
   15CHTO   C66 6151   7.351   2.037   0.587 -0.6652  0.3500  0.2655
   15CHTO  H123 6152   7.369   1.936   0.550 -0.1547  0.3537  0.4985
   15CHTO   N12 6153   7.204   2.057   0.587 -0.3624  0.1731  0.2236
   15CHTO  H110 6154   7.154   1.978   0.642 -1.3661  0.0353 -0.8685
   15CHTO  H111 6155   7.185   2.158   0.620  3.1197  0.7613  0.6635
   15CHTO   C69 6156   7.427   2.132   0.490 -0.0376 -0.3858  0.2372
   15CHTO  H126 6157   7.396   2.238   0.479 -0.1374 -0.6343 -1.9942
   15CHTO   O41 6158   7.587   2.120   0.499  0.2195  0.5989 -0.1984
   15CHTO   C64 6159   7.645   2.092   0.644 -0.4009 -0.0792  0.3331
   15CHTO  H121 6160   7.652   2.187   0.701  1.7552  0.5688 -0.9423
   15CHTO   C71 6161   7.789   2.054   0.626  0.3922 -0.2668 -0.6452
   15CHTO   O47 6162   7.848   2.177   0.583  0.1712  0.1361 -0.4882
   15CHTO  H104 6163   7.899   2.156   0.508  0.7565  4.0736 -1.2653
   15CHTO   O34 6164   7.396   2.071   0.324  0.1273  0.1702 -0.4235
   15CHTO   C49 6165   7.350   2.105   0.205  0.1208 -0.0142  0.4804
   15CHTO   H91 6166   7.329   2.010   0.155  0.5181  0.5444 -0.7873
   15CHTO   C47 6167   7.461   2.177   0.129  0.2712  0.4292 -0.7118
   15CHTO   H89 6168   7.428   2.194   0.024 -1.2661  0.4921 -0.2397
   15CHTO   O33 6169   7.580   2.089   0.128  0.1847 -0.1575  0.3338
   15CHTO   H70 6170   7.633   2.106   0.053 -2.5569 -1.4220 -1.9447
   15CHTO   C45 6171   7.484   2.318   0.198  0.1374 -0.2352  0.5633
   15CHTO   H87 6172   7.517   2.296   0.300  4.6302  2.6887 -0.0890
   15CHTO    N8 6173   7.598   2.399   0.137  0.1123 -0.1592  0.1284
   15CHTO   H75 6174   7.691   2.352   0.168 -0.7883 -1.3586  1.0609
   15CHTO   H76 6175   7.591   2.503   0.166  2.5596  1.2415 -3.9039
   15CHTO   C43 6176   7.341   2.398   0.203 -0.1248 -0.3006  0.9420
   15CHTO   H85 6177   7.372   2.486   0.258  4.3644 -0.0681 -1.7741
   15CHTO   O29 6178   7.242   2.319   0.268 -0.0106 -0.1669 -0.4539
   15CHTO   C50 6179   7.217   2.194   0.214  0.7599 -0.2661 -0.2889
   15CHTO   H92 6180   7.151   2.149   0.288 -0.5153  2.4307  0.2706
   15CHTO   C54 6181   7.142   2.183   0.080  0.3072  0.6285 -0.3839
   15CHTO   O36 6182   7.125   2.047   0.041  0.1348 -0.4277 -0.2980
   15CHTO   H72 6183   7.201   2.033  -0.013  1.2149  0.2323  1.0376
   15CHTO   O27 6184   7.303   2.457   0.076 -0.3278  0.2837  0.0465
   15CHTO   C37 6185   7.205   2.512  -0.011 -0.1778  0.7998 -0.8634
   15CHTO   H79 6186   7.153   2.427  -0.057  2.4815 -0.4360 -1.6625
   15CHTO   C38 6187   7.097   2.592   0.065 -0.5176  0.1466  0.3918
   15CHTO   H80 6188   7.148   2.671   0.123  1.4118 -0.7556 -0.0365
   15CHTO   O31 6189   7.031   2.504   0.164 -0.3783 -0.3707 -0.0925
   15CHTO   H68 6190   7.087   2.508   0.239 -1.0577  1.9399  0.3478
   15CHTO   C39 6191   6.996   2.654  -0.045  0.3189  0.2733 -0.3131
   15CHTO   H81 6192   6.931   2.583  -0.095  1.2090  2.2054 -4.4394
   15CHTO    N7 6193   6.902   2.757   0.015 -0.0769  0.4807 -0.2351
   15CHTO   H73 6194   6.962   2.840   0.047  0.5001  0.5208 -1.3825
   15CHTO   H74 6195   6.830   2.794  -0.055 -1.9144 -1.6950  0.4333
   15CHTO   C40 6196   7.078   2.726  -0.159 -0.3267 -0.0087 -0.4959
   15CHTO   H82 6197   7.124   2.821  -0.129  0.3943 -0.9633  1.4927
   15CHTO   O26 6198   7.176   2.633  -0.209 -0.6300 -0.9546  0.0996
   15CHTO   C41 6199   7.277   2.591  -0.117 -0.3490  0.7038  0.4135
   15CHTO   H83 6200   7.334   2.679  -0.085 -0.5540  0.6042  1.0756
   15CHTO   C52 6201   7.369   2.510  -0.209 -0.7060  0.2201  0.1265
   15CHTO   O35 6202   7.490   2.466  -0.152 -0.3239  0.1136 -0.0637
   15CHTO   H71 6203   7.481   2.463  -0.058 -1.1529 -3.6725 -0.1626
   15CHTO   O28 6204   7.000   2.759  -0.276  0.0249  0.1621  0.3473
   15CHTO   C42 6205   7.020   2.877  -0.363 -0.2838  0.3262 -0.0474
   15CHTO   H84 6206   6.965   2.848  -0.453 -0.4547  1.0005 -0.1611
   15CHTO   C44 6207   7.171   2.897  -0.408  1.0328  0.4141 -0.4438
   15CHTO   H86 6208   7.233   2.899  -0.318  0.4997  1.4307 -0.0862
   15CHTO   O32 6209   7.205   2.789  -0.488  0.2969  0.0253 -0.1324
   15CHTO   H69 6210   7.291   2.797  -0.525  1.3902 -1.7827  1.8826
   15CHTO   C48 6211   7.198   3.040  -0.472  0.3096  0.0814  0.2832
   15CHTO   H90 6212   7.171   3.021  -0.575  0.4894  0.2728  0.2014
   15CHTO    N9 6213   7.348   3.077  -0.488  0.5980 -0.0636 -0.0495
   15CHTO   H77 6214   7.407   3.025  -0.414 -0.4840  0.8330  1.4725
   15CHTO   H78 6215   7.379   3.178  -0.511 -0.9918  0.4263 -0.0807
   15CHTO   C51 6216   7.110   3.163  -0.422 -0.1286 -0.6408 -0.8686
   15CHTO   H93 6217   7.151   3.194  -0.326 -0.0356 -0.1158 -1.0790
   15CHTO   O30 6218   6.973   3.111  -0.407  0.8454  0.2655 -0.4043
   15CHTO   C46 6219   6.954   3.007  -0.311 -0.4048 -1.3849  0.7157
   15CHTO   H88 6220   7.004   3.024  -0.215 -0.8440 -0.9705  0.8753
   15CHTO   C53 6221   6.803   2.985  -0.290 -0.7772  0.1691 -0.3462
   15CHTO   O72 6222   6.729   3.107  -0.260 -0.2864  0.3986  0.2094
   15CHTO  H199 6223   6.643   3.076  -0.280  0.3387 -2.1123  1.1337
   15CHTO   O22 6224   7.096   3.271  -0.512 -0.6728  0.0729  0.7452
   15CHTO   C31 6225   7.046   3.406  -0.482 -0.7729 -0.1165  0.1286
   15CHTO   H59 6226   7.039   3.460  -0.579  1.9093 -1.0978 -0.6606
   15CHTO   C29 6227   6.905   3.399  -0.416  0.2138 -0.5716  0.0099
   15CHTO   H57 6228   6.903   3.334  -0.327 -1.7937 -0.6346 -0.0551
   15CHTO   O21 6229   6.822   3.328  -0.510  0.1439  0.7223  0.0070
   15CHTO   H37 6230   6.845   3.238  -0.521 -0.6612  0.5886 -0.6485
   15CHTO   C27 6231   6.849   3.543  -0.375 -0.4854 -0.5099 -0.1921
   15CHTO   H55 6232   6.813   3.595  -0.465 -0.9549 -1.2687 -0.4513
   15CHTO    N5 6233   6.730   3.536  -0.286  0.0191  0.1939 -0.3994
   15CHTO   H43 6234   6.755   3.469  -0.205 -1.7336  0.6233  0.5124
   15CHTO   H44 6235   6.714   3.636  -0.248 -0.7919 -0.1987  0.3133
   15CHTO   C25 6236   6.963   3.622  -0.296  0.0857  0.4582 -0.0096
   15CHTO   H53 6237   6.983   3.566  -0.204 -0.1177 -0.7084 -0.6704
   15CHTO   O17 6238   7.080   3.623  -0.381  0.3607  0.4992  0.1850
   15CHTO   C32 6239   7.142   3.495  -0.394 -0.4417  0.0694 -0.0125
   15CHTO   H60 6240   7.160   3.443  -0.300  1.3658  0.2804 -0.2247
   15CHTO   C36 6241   7.285   3.528  -0.452 -0.1882  0.3378  0.0748
   15CHTO   O25 6242   7.363   3.604  -0.368 -0.6005 -0.2238  0.1884
   15CHTO   H40 6243   7.444   3.566  -0.339 -0.4821  0.8229  1.2607
   15CHTO   O15 6244   6.925   3.769  -0.259  0.2310 -0.0744 -0.7538
   15CHTO   C19 6245   6.970   3.882  -0.179  0.4823  0.2808 -0.4052
   15CHTO   H47 6246   7.053   3.927  -0.237 -0.4625  0.7670 -1.3918
   15CHTO   C20 6247   6.862   3.984  -0.156  0.3849  0.0175 -0.4167
   15CHTO   H48 6248   6.777   3.942  -0.100  1.8792 -1.4170  0.8574
   15CHTO   O19 6249   6.810   4.020  -0.283 -0.0736 -0.7221 -0.0146
   15CHTO   H35 6250   6.729   3.974  -0.299 -0.1982 -1.3504  2.1695
   15CHTO   C21 6251   6.907   4.120  -0.090 -0.1855 -0.1182 -0.7725
   15CHTO   H49 6252   6.962   4.179  -0.164  0.9614 -0.8440 -0.5000
   15CHTO    N4 6253   6.796   4.212  -0.055  0.2420  0.6245  0.1393
   15CHTO   H41 6254   6.818   4.311  -0.093 -0.7419  0.7510 -0.1163
   15CHTO   H42 6255   6.778   4.215   0.052  2.2782  0.7420  0.5081
   15CHTO   C22 6256   6.988   4.082   0.037 -0.2783  0.8637  0.2856
   15CHTO   H50 6257   6.932   4.033   0.116  0.6557  1.4770  1.3556
   15CHTO   O14 6258   7.084   3.985   0.006  0.0655  0.3236  0.0012
   15CHTO   C23 6259   7.029   3.861  -0.032 -0.4248  0.5583 -0.3155
   15CHTO   H51 6260   6.950   3.837   0.042  0.5349 -0.3141  0.4486
   15CHTO   C34 6261   7.126   3.743  -0.025 -0.2216 -0.2447 -0.2314
   15CHTO   O23 6262   7.236   3.746  -0.114  0.2752  0.6549  0.2928
   15CHTO   H38 6263   7.317   3.728  -0.070  0.7971  1.9166 -0.1326
   15CHTO   O16 6264   7.065   4.194   0.084  0.9186 -0.0741 -0.0665
   15CHTO   C24 6265   7.083   4.196   0.235  0.0899 -0.3041 -0.0272
   15CHTO   H52 6266   7.064   4.098   0.278 -3.7637  0.2445 -0.2931
   15CHTO   C26 6267   6.984   4.303   0.299  0.5218  0.5665 -0.1255
   15CHTO   H54 6268   6.999   4.398   0.243 -1.0966  0.4556 -0.7643
   15CHTO   O20 6269   6.849   4.250   0.279 -0.2815 -0.0330  0.5964
   15CHTO   H36 6270   6.821   4.187   0.344  1.1074 -1.4929 -0.1839
   15CHTO   C30 6271   7.014   4.325   0.452 -0.5272 -0.3051  0.4489
   15CHTO   H58 6272   6.992   4.234   0.511  0.4882  0.5402  2.1835
   15CHTO    N6 6273   6.926   4.432   0.510 -0.1255  0.3413  0.1984
   15CHTO   H45 6274   6.847   4.453   0.440 -0.4813 -0.9891  0.1985
   15CHTO   H46 6275   6.982   4.523   0.527  0.4614 -0.1970  1.1543
   15CHTO   C33 6276   7.164   4.353   0.474 -0.6870 -0.3860  0.5553
   15CHTO   H61 6277   7.192   4.445   0.421 -0.1596 -0.9474 -0.1594
   15CHTO   O18 6278   7.241   4.249   0.406  0.4870  0.5763  0.1280
   15CHTO   C28 6279   7.230   4.235   0.265 -0.3674  0.3671  0.3904
   15CHTO   H56 6280   7.254   4.323   0.205  0.4810  1.3690  2.1491
   15CHTO   C35 6281   7.317   4.116   0.216  0.2337 -0.4655  0.5741
   15CHTO   O24 6282   7.457   4.152   0.221 -0.3637  0.3028 -0.3051
   15CHTO   H39 6283   7.509   4.076   0.201 -1.5201 -1.1595  2.0215
   15CHTO    O9 6284   7.205   4.371   0.613  0.3956  0.0797  0.1617
   15CHTO   C13 6285   7.364   4.454   0.625 -0.4357  0.0977  0.8853
   15CHTO   H26 6286   7.352   4.562   0.604 -0.6118 -0.4046 -1.8765
   15CHTO   C11 6287   7.464   4.391   0.527 -0.0587 -0.6674  0.0476
   15CHTO   H24 6288   7.424   4.409   0.426 -1.2846  1.3850  0.8795
   15CHTO    O8 6289   7.482   4.245   0.550  0.2872 -0.2190  0.0854
   15CHTO    H3 6290   7.556   4.211   0.503  1.7241  1.4780  1.0095
   15CHTO    C9 6291   7.598   4.466   0.547  0.4067  0.1718  0.0878
   15CHTO   H22 6292   7.578   4.574   0.534 -0.1403  0.1144  0.4568
   15CHTO    N2 6293   7.692   4.447   0.443  0.0005 -0.3875  0.8761
   15CHTO   H10 6294   7.652   4.493   0.354  0.5359 -0.7748  0.4286
   15CHTO   H11 6295   7.786   4.494   0.470 -0.8832  1.9508 -0.0189
   15CHTO    C7 6296   7.653   4.449   0.694  0.2897 -0.1428  0.1650
   15CHTO   H20 6297   7.745   4.510   0.694  0.4671 -0.3997 -0.9808
   15CHTO    O4 6298   7.562   4.486   0.795  0.1579  0.1523 -0.4490
   15CHTO   C14 6299   7.420   4.455   0.773 -0.1012 -0.3571 -0.0145
   15CHTO   H27 6300   7.372   4.539   0.826 -0.0199 -1.3078  1.5984
   15CHTO   C18 6301   7.374   4.333   0.845 -0.4876 -0.1774  0.3556
   15CHTO   O13 6302   7.364   4.350   0.989 -0.4919  0.1400 -0.3659
   15CHTO    H7 6303   7.331   4.268   1.019 -0.6971  0.3405 -0.0477
   15CHTO    O2 6304   7.714   4.297   0.720 -0.3517  0.0701  0.3583
   15CHTO    C1 6305   7.772   4.281   0.849  0.5290 -0.6980 -0.3467
   15CHTO   H14 6306   7.703   4.330   0.920  2.0535 -0.5560  1.0731
   15CHTO    C2 6307   7.923   4.349   0.860  0.8343 -0.5393 -0.1064
   15CHTO   H15 6308   7.975   4.299   0.776  0.4033  0.6788 -1.1143
   15CHTO    O6 6309   7.925   4.491   0.838  0.0493 -0.1236  0.1779
   15CHTO    H1 6310   7.884   4.524   0.761  1.7230 -0.7871 -1.0165
   15CHTO    C3 6311   7.988   4.310   0.998  0.0920 -0.5852  0.0241
   15CHTO   H16 6312   7.928   4.363   1.072  1.0399  0.4620  0.0551
   15CHTO    N1 6313   8.133   4.353   1.010 -0.6925  1.0074  0.2747
   15CHTO    H8 6314   8.175   4.320   1.104 -1.6146  0.1147  0.3807
   15CHTO    H9 6315   8.138   4.460   1.001 -1.0801  1.0515  0.5741
   15CHTO    C4 6316   7.967   4.154   1.026 -0.0701  0.4434  0.7928
   15CHTO   H17 6317   8.030   4.096   0.958 -1.3239  0.1047 -0.1057
   15CHTO    O1 6318   7.830   4.115   1.010 -0.4866 -0.3675  0.2779
   15CHTO    C5 6319   7.785   4.130   0.875 -0.1437  0.6521  0.6485
   15CHTO   H18 6320   7.858   4.087   0.807 -0.4088  1.4233 -0.1224
   15CHTO   C16 6321   7.650   4.057   0.856  0.0917  0.5213  0.0601
   15CHTO   O11 6322   7.659   3.922   0.889  0.0367  0.2030 -0.4722
   15CHTO    H5 6323   7.573   3.886   0.884 -0.2802  0.9279 -0.2454
   15CHTO    O3 6324   7.994   4.109   1.161 -0.2503  0.1674  0.0824
   15CHTO    C6 6325   7.999   3.966   1.202 -0.3209  0.1090 -0.0077
   15CHTO   H19 6326   7.969   3.908   1.114  1.5867 -0.8402 -0.0581
   15CHTO    C8 6327   8.139   3.923   1.240  0.4112  0.5521 -0.3849
   15CHTO   H21 6328   8.172   3.991   1.318  0.8284 -0.7565  0.6033
   15CHTO    O7 6329   8.216   3.945   1.121  0.3401 -0.1960 -0.1769
   15CHTO    H2 6330   8.294   3.893   1.119 -0.8428 -2.0956  1.6982
   15CHTO   C12 6331   8.138   3.772   1.287 -0.6489  0.5963 -0.5458
   15CHTO   H25 6332   8.112   3.701   1.206  1.3472 -1.5852  0.6340
   15CHTO    N3 6333   8.283   3.735   1.325 -0.1846 -0.2721 -0.1085
   15CHTO   H12 6334   8.302   3.632   1.302  2.3843  0.0355  0.5470
   15CHTO   H13 6335   8.305   3.756   1.429 -0.8038 -0.7612  0.1260
   15CHTO   C15 6336   8.037   3.758   1.410  0.4007  0.0050  0.7676
   15CHTO   H28 6337   8.063   3.819   1.496 -1.2130  1.4416  0.2716
   15CHTO   O10 6338   8.025   3.620   1.465 -0.2104 -0.0320  0.2457
   15CHTO    H4 6339   8.108   3.582   1.486 -0.1754 -0.6344 -0.9343
   15CHTO    O5 6340   7.908   3.796   1.362  0.3744 -0.0996 -0.3051
   15CHTO   C10 6341   7.899   3.940   1.324  0.5585  0.3214 -0.2195
   15CHTO   H23 6342   7.918   4.003   1.411  0.8165  0.9701 -0.7434
   15CHTO   C17 6343   7.755   3.959   1.275 -0.4517  0.2818 -0.5536
   15CHTO   O12 6344   7.651   3.971   1.373 -0.2822  0.0190 -0.1191
   15CHTO    H6 6345   7.584   3.912   1.344 -0.9024  0.6515  0.0237
   16CHTO  H203 6346   6.041   4.461   0.137  0.3436  0.6448  0.2968
   16CHTO   O82 6347   6.123   4.436   0.099  0.1853  0.1549  0.2742
   16CHTO  C123 6348   6.198   4.353   0.194 -0.7684 -0.5052 -0.1564
   16CHTO  H227 6349   6.127   4.329   0.275 -1.1469  1.1532  0.0338
   16CHTO   O77 6350   6.218   4.231   0.124  0.3621  0.1039 -0.1198
   16CHTO  C118 6351   6.282   4.129   0.202 -0.4153 -0.5769 -0.2050
   16CHTO  H222 6352   6.224   4.104   0.292 -0.0125  1.1569  0.5437
   16CHTO  C125 6353   6.296   4.001   0.110 -0.0522 -0.1772  0.2104
   16CHTO   O84 6354   6.370   4.025  -0.008  0.0767 -0.6175  0.1330
   16CHTO  H205 6355   6.462   4.031   0.005  0.3254 -1.9089 -0.9217
   16CHTO  C114 6356   6.415   4.176   0.268 -0.3127  0.2445 -0.1008
   16CHTO  H218 6357   6.488   4.189   0.188  1.0648  0.8230  1.2233
   16CHTO  C116 6358   6.414   4.317   0.337  0.2405  0.3792 -0.1531
   16CHTO  H220 6359   6.374   4.307   0.440 -0.1629  1.9792 -0.1466
   16CHTO   O79 6360   6.547   4.369   0.373 -0.3440  0.0353 -0.3108
   16CHTO  H201 6361   6.617   4.315   0.343 -1.7840 -0.8641 -2.1615
   16CHTO  C120 6362   6.329   4.418   0.252 -0.0898 -1.4491  0.1109
   16CHTO  H224 6363   6.395   4.445   0.167  0.9039 -2.7003  0.4838
   16CHTO   N21 6364   6.297   4.538   0.334 -0.0919  0.2672  0.3283
   16CHTO  H211 6365   6.358   4.557   0.422  0.3466  2.2961 -0.3970
   16CHTO  H212 6366   6.296   4.619   0.263 -0.8022 -1.2693 -1.4669
   16CHTO   O75 6367   6.452   4.065   0.344  0.0972  0.4962 -0.1635
   16CHTO  C112 6368   6.594   4.010   0.293 -0.1900  0.3384  0.3088
   16CHTO  H216 6369   6.655   4.090   0.250 -1.8145  2.0899  1.1524
   16CHTO   O73 6370   6.572   3.909   0.197  0.0250  0.1363  0.0557
   16CHTO  C113 6371   6.668   3.821   0.145  0.5530  0.4564 -0.1896
   16CHTO  H217 6372   6.740   3.887   0.094  0.4027  1.2927  0.6683
   16CHTO  C124 6373   6.596   3.718   0.054  0.2379  0.1836  0.8872
   16CHTO   O83 6374   6.526   3.607   0.112 -0.3072  0.1660  0.1323
   16CHTO  H204 6375   6.444   3.592   0.070 -0.5494  0.1891  0.5844
   16CHTO  C109 6376   6.754   3.753   0.260 -0.1338 -0.3371  0.2002
   16CHTO  H213 6377   6.687   3.683   0.312 -0.3445  0.5511  1.1446
   16CHTO  C110 6378   6.801   3.869   0.356 -0.7574 -0.0335 -0.6157
   16CHTO  H214 6379   6.867   3.933   0.298  2.6747 -3.4889 -0.7514
   16CHTO   O78 6380   6.873   3.799   0.457  0.4209  0.5613 -0.4357
   16CHTO  H200 6381   6.961   3.791   0.426  1.0412  2.1099  0.8422
   16CHTO  C111 6382   6.675   3.943   0.412 -0.3227 -0.6441 -0.2941
   16CHTO  H215 6383   6.610   3.866   0.455 -1.5907  1.0019  0.8234
   16CHTO   N19 6384   6.710   4.039   0.523  0.6562 -0.1809 -0.2030
   16CHTO  H207 6385   6.666   4.002   0.615  0.2645  2.6639  0.8079
   16CHTO  H208 6386   6.813   4.064   0.543  0.5191 -0.8518  1.4345
   16CHTO   O74 6387   6.869   3.683   0.205 -0.3140 -0.4328 -0.7250
   16CHTO  C115 6388   6.873   3.523   0.181  0.1625 -0.0448 -0.2365
   16CHTO  H219 6389   6.794   3.476   0.240  0.7386  0.5063  0.9929
   16CHTO   O76 6390   6.847   3.488   0.046 -0.0756  0.3252 -0.0509
   16CHTO  C122 6391   6.853   3.348   0.005  0.0547 -0.0703  0.2023
   16CHTO  H226 6392   6.845   3.347  -0.104 -2.6134 -0.0519  0.3780
   16CHTO  C126 6393   6.731   3.270   0.061 -0.1280 -0.2178 -0.0967
   16CHTO   O85 6394   6.603   3.303   0.007  0.2005  0.5160 -0.1083
   16CHTO  H206 6395   6.590   3.244  -0.065  0.3242  1.0510 -0.5730
   16CHTO  C121 6396   6.975   3.272   0.041 -0.0686  0.0547  0.4982
   16CHTO  H225 6397   6.969   3.162   0.032  0.4290 -0.0071  0.9426
   16CHTO   O81 6398   7.079   3.321  -0.047  0.4484 -0.7883  0.4483
   16CHTO  H202 6399   7.163   3.321  -0.007 -0.1813  0.7570  1.8035
   16CHTO  C119 6400   7.020   3.307   0.190 -0.1284 -0.4389 -0.5352
   16CHTO  H223 6401   6.955   3.256   0.261  0.4373  0.6880  0.8108
   16CHTO  C117 6402   7.013   3.464   0.227 -0.0317  0.1435  0.2251
   16CHTO  H221 6403   7.081   3.535   0.179 -0.9862  1.5360  0.9118
   16CHTO   N20 6404   7.039   3.475   0.375 -0.2835  0.3948  0.1091
   16CHTO  H209 6405   7.133   3.428   0.400 -0.2874  0.1393 -0.3479
   16CHTO  H210 6406   7.046   3.580   0.399 -0.4745  0.7950 -1.5290
   16CHTO   O80 6407   7.156   3.242   0.227  0.0857 -0.0688 -0.5610
   16CHTO  C103 6408   7.169   3.098   0.231  0.4980  0.2691  0.1823
   16CHTO  H190 6409   7.085   3.045   0.184  1.3269 -0.6709 -0.2575
   16CHTO  C101 6410   7.301   3.044   0.150 -0.0111 -0.0995  0.1870
   16CHTO  H188 6411   7.384   3.115   0.160 -1.4637  1.6851 -0.1664
   16CHTO   O68 6412   7.258   3.050  -0.014  0.8035  0.1834  0.5380
   16CHTO  H168 6413   7.330   3.032  -0.071 -0.0508  1.4542 -0.9797
   16CHTO   C99 6414   7.330   2.896   0.190 -0.3237 -0.1458  0.2473
   16CHTO  H186 6415   7.261   2.828   0.136  2.2222 -0.5312 -2.6383
   16CHTO   N17 6416   7.462   2.853   0.139 -0.1159  0.2329  0.5183
   16CHTO  H174 6417   7.483   2.749   0.157 -2.6608 -0.9006 -2.5995
   16CHTO  H175 6418   7.528   2.919   0.193  0.3363  1.7484 -1.7985
   16CHTO   C97 6419   7.316   2.866   0.340  0.0225  0.6895  0.8052
   16CHTO  H184 6420   7.402   2.906   0.395  0.6280  0.8799 -0.2583
   16CHTO   O64 6421   7.193   2.908   0.395  0.4534 -0.0328 -0.1076
   16CHTO  C104 6422   7.172   3.050   0.380  0.2811 -0.3076  0.7241
   16CHTO  H191 6423   7.249   3.105   0.434 -1.3564  0.6919  2.0812
   16CHTO  C108 6424   7.041   3.083   0.454 -0.1897 -0.2010 -0.4870
   16CHTO   O71 6425   7.057   3.052   0.593  0.6392  0.1114  0.1119
   16CHTO  H171 6426   7.084   3.122   0.650 -1.8076  0.9641  0.2828
   16CHTO   O62 6427   7.319   2.720   0.358  0.4215  0.3872 -0.7784
   16CHTO   C91 6428   7.312   2.675   0.493  0.0410  0.3464  0.5690
   16CHTO  H178 6429   7.289   2.758   0.560  1.0497 -0.6683  2.2156
   16CHTO   C92 6430   7.450   2.609   0.536  0.4030  0.7029  0.1031
   16CHTO  H179 6431   7.461   2.511   0.486  1.8832  0.5261  0.7485
   16CHTO   O66 6432   7.562   2.690   0.500  0.2819 -0.2170  0.2359
   16CHTO  H166 6433   7.634   2.647   0.541  0.1861 -1.0471 -0.4436
   16CHTO   C93 6434   7.449   2.574   0.689  0.5192  0.0167  0.2204
   16CHTO  H180 6435   7.445   2.669   0.745 -0.5838 -0.8865  1.7204
   16CHTO   N16 6436   7.566   2.494   0.731  0.4742  0.2354 -0.2853
   16CHTO  H172 6437   7.593   2.430   0.648  0.6321 -1.8318  1.3149
   16CHTO  H173 6438   7.651   2.555   0.755  0.4165  0.9978 -1.9628
   16CHTO   C94 6439   7.321   2.492   0.725 -0.3466 -0.1862 -0.0846
   16CHTO  H181 6440   7.320   2.393   0.680  1.5385  0.0325 -0.6395
   16CHTO   O61 6441   7.202   2.553   0.677  0.3383  0.0213 -0.3267
   16CHTO   C95 6442   7.195   2.569   0.535  0.0882  0.0464 -0.1690
   16CHTO  H182 6443   7.209   2.472   0.488 -1.8978  0.0668 -0.8314
   16CHTO  C106 6444   7.054   2.614   0.488  0.2097 -0.5297 -0.2719
   16CHTO   O69 6445   6.964   2.501   0.507  0.6694  0.0339  0.2177
   16CHTO  H169 6446   6.876   2.527   0.487  1.2252  0.4349 -1.7295
   16CHTO   O63 6447   7.306   2.479   0.891  0.1594 -0.3545  0.0942
   16CHTO   C96 6448   7.152   2.468   0.948  0.2950  0.0471 -0.3263
   16CHTO  H183 6449   7.170   2.442   1.052 -0.3751  1.1527  0.0649
   16CHTO   C98 6450   7.060   2.370   0.873  0.0104 -0.3756 -0.0102
   16CHTO  H185 6451   7.050   2.406   0.769 -0.4440  0.0368  0.1752
   16CHTO   O67 6452   7.123   2.243   0.864 -0.0395 -0.3144  0.5561
   16CHTO  H167 6453   7.208   2.260   0.829  0.8446  0.1135  2.7806
   16CHTO  C102 6454   6.916   2.359   0.946 -0.1163 -0.5276 -0.6049
   16CHTO  H189 6455   6.939   2.337   1.051  0.3561  0.6840 -0.4463
   16CHTO   N18 6456   6.834   2.251   0.902  0.4517  0.1006 -0.8983
   16CHTO  H176 6457   6.763   2.206   0.970 -1.6799  1.8460 -1.9229
   16CHTO  H177 6458   6.785   2.291   0.814 -1.2283 -0.4889 -0.2615
   16CHTO  C105 6459   6.859   2.501   0.936  0.0322 -0.4733  0.9076
   16CHTO  H192 6460   6.849   2.526   0.831 -3.8263 -0.6092  1.2035
   16CHTO   O65 6461   6.948   2.596   1.000  0.2385  0.3380 -0.0159
   16CHTO  C100 6462   7.080   2.605   0.948  0.6395  0.0438  0.0868
   16CHTO  H187 6463   7.063   2.646   0.847 -1.6483 -0.7929  0.1015
   16CHTO  C107 6464   7.163   2.704   1.036 -0.1025  0.0132 -0.5605
   16CHTO   O70 6465   7.131   2.838   0.998 -0.2705 -0.2715 -0.2658
   16CHTO  H170 6466   7.186   2.868   0.929 -0.4909 -1.1536 -0.8363
   16CHTO   O57 6467   6.701   2.487   1.009  0.2889  0.1619 -0.1012
   16CHTO   C85 6468   6.595   2.555   0.945  0.1944 -0.4601 -0.5266
   16CHTO  H157 6469   6.607   2.535   0.836  2.0267 -1.2137 -0.2050
   16CHTO   C83 6470   6.608   2.706   0.952  0.1923 -0.3641  0.0236
   16CHTO  H155 6471   6.705   2.731   0.910 -1.0861  1.8478 -1.6862
   16CHTO   O56 6472   6.615   2.740   1.094  0.5290 -0.1032 -0.2055
   16CHTO  H135 6473   6.536   2.715   1.138  0.5614  2.1765  1.2285
   16CHTO   C81 6474   6.496   2.777   0.871  0.8533 -0.0313 -0.0846
   16CHTO  H153 6475   6.497   2.745   0.767  1.4737  2.1585 -0.7850
   16CHTO   N14 6476   6.519   2.924   0.863  0.4872  0.0701  0.0345
   16CHTO  H141 6477   6.445   2.976   0.806 -1.5581 -1.9898  0.7427
   16CHTO  H142 6478   6.612   2.941   0.813  1.2928 -1.0902  1.1152
   16CHTO   C79 6479   6.353   2.735   0.920  0.2647 -0.1655  0.3521
   16CHTO  H151 6480   6.278   2.769   0.849  0.4790 -1.2651 -0.4197
   16CHTO   O52 6481   6.343   2.591   0.936  0.3458  0.0250 -0.1185
   16CHTO   C86 6482   6.453   2.521   0.999 -0.2141  0.4319  0.2659
   16CHTO  H158 6483   6.446   2.546   1.106  2.4770 -2.6479  1.2431
   16CHTO   C90 6484   6.416   2.373   0.987  0.1408  0.1513 -0.4776
   16CHTO   O60 6485   6.518   2.279   1.019 -0.2931  0.2025  0.3612
   16CHTO  H138 6486   6.505   2.206   0.961 -0.7373  0.9415 -0.4648
   16CHTO   O50 6487   6.320   2.783   1.054 -0.1571  0.2856  0.1674
   16CHTO   C73 6488   6.235   2.823   1.163  0.0624 -0.8967 -0.0397
   16CHTO  H145 6489   6.229   2.746   1.241  0.7976  1.1501  2.1193
   16CHTO   C74 6490   6.095   2.834   1.096 -0.4997 -0.2458  0.6119
   16CHTO  H146 6491   6.084   2.746   1.032  1.3851 -0.5342  0.6545
   16CHTO   O54 6492   6.001   2.813   1.203  0.0262 -1.0831 -0.1620
   16CHTO  H133 6493   5.920   2.853   1.179  0.8510  0.9567  0.3223
   16CHTO   C75 6494   6.069   2.966   1.016  0.5767 -0.3092  0.0751
   16CHTO  H147 6495   6.143   2.974   0.935 -0.1849 -0.4473 -0.6374
   16CHTO   N13 6496   5.928   2.975   0.968 -0.0541  0.3852  0.6373
   16CHTO  H139 6497   5.849   2.988   1.041 -0.4867  2.5167 -0.1790
   16CHTO  H140 6498   5.920   3.058   0.900 -1.5630  0.0427  0.3815
   16CHTO   C76 6499   6.099   3.091   1.114  0.1639 -0.0790  0.4963
   16CHTO  H148 6500   6.043   3.073   1.206 -1.0696 -1.6166 -0.5323
   16CHTO   O49 6501   6.243   3.079   1.146 -0.0475  0.0452  0.3984
   16CHTO   C77 6502   6.268   2.962   1.231 -0.6610 -0.4803  0.2226
   16CHTO  H149 6503   6.206   2.972   1.320  2.4348 -0.4324  2.4843
   16CHTO   C88 6504   6.412   2.977   1.279 -0.6890  0.4267  0.7799
   16CHTO   O58 6505   6.437   3.104   1.355  0.2773 -0.3560 -0.0704
   16CHTO  H136 6506   6.410   3.183   1.312  1.9506 -0.1805 -0.8761
   16CHTO   O51 6507   6.077   3.228   1.050 -0.4545  0.6803 -0.5803
   16CHTO   C78 6508   6.093   3.345   1.170 -0.0008  0.3133 -0.1486
   16CHTO  H150 6509   6.127   3.300   1.266  0.8520  1.4934  0.1272
   16CHTO   C80 6510   5.961   3.421   1.197  0.4038  0.1280 -0.0667
   16CHTO  H152 6511   5.937   3.494   1.117 -1.6128  0.9537  1.2383
   16CHTO   O55 6512   5.859   3.323   1.202  0.2346  0.0165  0.3946
   16CHTO  H134 6513   5.829   3.302   1.115  1.3345  2.1301 -0.5248
   16CHTO   C84 6514   5.982   3.512   1.324  0.1088  0.5721  0.2650
   16CHTO  H156 6515   5.989   3.434   1.399 -2.3799 -0.6300 -0.6887
   16CHTO   N15 6516   5.868   3.597   1.363 -0.4976  0.9072 -0.0158
   16CHTO  H143 6517   5.894   3.700   1.378  0.9664  0.5749 -0.1946
   16CHTO  H144 6518   5.820   3.557   1.450  1.9346  0.4577  1.1787
   16CHTO   C87 6519   6.106   3.594   1.318  0.4367 -0.6565 -0.3246
   16CHTO  H159 6520   6.089   3.693   1.275 -0.2354 -0.4815  0.3286
   16CHTO   O53 6521   6.227   3.528   1.248 -0.2682  0.1945 -0.1723
   16CHTO   C82 6522   6.199   3.446   1.132 -0.9103 -0.4964  0.0451
   16CHTO  H154 6523   6.170   3.511   1.050  0.5470 -0.0456 -0.1348
   16CHTO   C89 6524   6.336   3.376   1.094 -0.3135 -0.1984  0.1565
   16CHTO   O59 6525   6.350   3.286   0.980  0.0015  0.0897 -0.2362
   16CHTO  H137 6526   6.289   3.218   0.999  2.2883 -2.8989 -2.8671
   16CHTO   O45 6527   6.151   3.619   1.477 -0.1075  0.2327 -0.2187
   16CHTO   C67 6528   6.288   3.638   1.504  0.0116  0.4309  0.2992
   16CHTO  H124 6529   6.352   3.604   1.423  1.1136  3.3571 -0.1206
   16CHTO   C65 6530   6.315   3.791   1.534 -0.4757  0.1060  0.4024
   16CHTO  H122 6531   6.222   3.841   1.562 -1.2390 -0.2004 -1.5132
   16CHTO   O44 6532   6.344   3.846   1.404  0.2472  0.0893  0.1156
   16CHTO  H102 6533   6.425   3.807   1.377 -1.1378 -2.0709 -1.1506
   16CHTO   C63 6534   6.413   3.827   1.651 -0.2513  0.4938 -0.3957
   16CHTO  H120 6535   6.364   3.818   1.748  1.4498 -0.4502  0.3809
   16CHTO   N11 6536   6.461   3.971   1.658 -0.0307 -0.1699  0.0035
   16CHTO  H108 6537   6.505   3.998   1.564  1.6338 -3.0066 -0.0987
   16CHTO  H109 6538   6.383   4.039   1.683  0.2901 -1.1155  3.8707
   16CHTO   C61 6539   6.525   3.718   1.644  0.4671 -0.0832  0.1730
   16CHTO  H118 6540   6.588   3.734   1.733  2.0079 -2.3720 -0.4669
   16CHTO   O40 6541   6.475   3.577   1.656 -0.3607  0.0932  0.1004
   16CHTO   C68 6542   6.330   3.560   1.625  0.0252  0.0820  0.1521
   16CHTO  H125 6543   6.277   3.585   1.719 -0.1112  0.6306 -0.0702
   16CHTO   C72 6544   6.310   3.410   1.600  1.4715 -0.1498  0.2643
   16CHTO   O48 6545   6.319   3.347   1.726  0.3513  0.0104  0.0091
   16CHTO  H105 6546   6.293   3.257   1.713  3.0149 -0.9089  0.6168
   16CHTO   O38 6547   6.606   3.733   1.523  0.6117  0.9823 -0.4713
   16CHTO   C55 6548   6.741   3.699   1.541  0.0152  0.5160 -0.2366
   16CHTO  H112 6549   6.742   3.639   1.633 -2.0907 -1.2875 -1.3490
   16CHTO   C56 6550   6.831   3.822   1.547  0.1089 -0.2915 -0.8864
   16CHTO  H113 6551   6.801   3.881   1.460  0.1747 -0.0878 -0.7715
   16CHTO   O42 6552   6.799   3.898   1.661  0.2306 -0.2530  0.1014
   16CHTO  H100 6553   6.872   3.913   1.718  1.3818  0.6349 -1.5882
   16CHTO   C57 6554   6.988   3.795   1.540  0.5988 -0.4528  0.3879
   16CHTO  H114 6555   7.013   3.756   1.639  2.2102 -0.6156 -0.0775
   16CHTO   N10 6556   7.071   3.910   1.511  0.0120 -0.4769  0.0437
   16CHTO  H106 6557   7.157   3.876   1.456  0.1890  0.4348 -0.2411
   16CHTO  H107 6558   7.103   3.967   1.597  0.2807 -0.3498 -0.1398
   16CHTO   C58 6559   7.009   3.687   1.434  0.1950 -0.1125  0.3625
   16CHTO  H115 6560   6.983   3.730   1.335  1.4597 -0.6381 -0.2198
   16CHTO   O37 6561   6.918   3.571   1.457 -0.6384 -0.5481  0.0669
   16CHTO   C59 6562   6.781   3.606   1.434 -0.3427  0.4513 -0.2016
   16CHTO  H116 6563   6.769   3.651   1.335 -0.3660 -0.7347 -0.7524
   16CHTO   C70 6564   6.697   3.477   1.421 -0.2905  0.4932  0.2508
   16CHTO   O46 6565   6.726   3.405   1.302  0.5806  0.0339  0.8822
   16CHTO  H103 6566   6.684   3.321   1.295 -0.3506  0.7145 -2.5278
   16CHTO   O39 6567   7.150   3.624   1.435 -0.6091 -0.5019 -0.4122
   16CHTO   C60 6568   7.200   3.596   1.302  0.1370 -0.3212  0.3473
   16CHTO  H117 6569   7.113   3.582   1.238 -0.1712  4.8245 -0.5698
   16CHTO   C62 6570   7.280   3.710   1.235 -0.0012  0.1320  1.1639
   16CHTO  H119 6571   7.205   3.791   1.221 -3.2065 -3.1157 -1.2119
   16CHTO   O43 6572   7.390   3.763   1.308 -0.3571 -0.0300  0.2364
   16CHTO  H101 6573   7.368   3.781   1.397  0.1226  2.2744 -0.0704
   16CHTO   C66 6574   7.328   3.675   1.086  0.0678  0.3797 -0.3708
   16CHTO  H123 6575   7.244   3.641   1.025  0.1939  0.6468 -0.6978
   16CHTO   N12 6576   7.376   3.789   1.002 -0.0607  0.5792 -0.7896
   16CHTO  H110 6577   7.350   3.878   1.057 -0.7429 -0.9523  1.4387
   16CHTO  H111 6578   7.334   3.790   0.903 -0.2229  0.7844 -0.7160
   16CHTO   C69 6579   7.424   3.556   1.097 -0.3632 -0.2243 -0.5067
   16CHTO  H126 6580   7.512   3.574   1.162  0.6451  2.9411 -2.6530
   16CHTO   O41 6581   7.346   3.429   1.163 -0.4640  0.1053 -0.3463
   16CHTO   C64 6582   7.287   3.463   1.303  0.4343 -0.3595 -0.3633
   16CHTO  H121 6583   7.375   3.487   1.368  1.6674 -0.6824 -1.8889
   16CHTO   C71 6584   7.208   3.337   1.357 -0.3068  0.1354  0.0701
   16CHTO   O47 6585   7.154   3.356   1.486  0.2826 -0.0664 -0.2197
   16CHTO  H104 6586   7.086   3.421   1.479 -0.0062 -0.0915  1.9983
   16CHTO   O34 6587   7.478   3.512   0.976  0.7480 -0.5063 -0.4169
   16CHTO   C49 6588   7.445   3.472   0.835 -0.3675  0.0243 -0.0638
   16CHTO   H91 6589   7.410   3.566   0.791 -0.2889  0.2748  0.3978
   16CHTO   C47 6590   7.334   3.363   0.826 -0.8504  0.4978  0.2270
   16CHTO   H89 6591   7.314   3.357   0.717  1.5788  0.8249 -0.2586
   16CHTO   O33 6592   7.220   3.405   0.897  0.7705 -0.0271  0.3189
   16CHTO   H70 6593   7.160   3.334   0.888  1.3699 -0.6803  1.3542
   16CHTO   C45 6594   7.390   3.221   0.881  0.2335 -0.3613  0.1331
   16CHTO   H87 6595   7.362   3.212   0.987  0.4023  0.2868  0.2349
   16CHTO    N8 6596   7.324   3.106   0.805  0.3022  0.0346  0.3213
   16CHTO   H75 6597   7.281   3.030   0.868 -3.8923  0.1845 -2.0995
   16CHTO   H76 6598   7.258   3.134   0.724 -0.2857  0.2989  0.8802
   16CHTO   C43 6599   7.552   3.216   0.895 -0.0225  0.3741 -0.1372
   16CHTO   H85 6600   7.576   3.273   0.985 -1.7778  0.2646  0.4313
   16CHTO   O29 6601   7.615   3.285   0.784 -0.7075  0.0641 -0.5518
   16CHTO   C50 6602   7.569   3.420   0.756 -0.0747  0.3881  0.0940
   16CHTO   H92 6603   7.657   3.482   0.780  1.1797 -1.1850 -0.4098
   16CHTO   C54 6604   7.558   3.437   0.609 -0.5051 -0.4039  0.2954
   16CHTO   O36 6605   7.548   3.572   0.550  0.0211  0.7383  0.0049
   16CHTO   H72 6606   7.487   3.624   0.599  0.6303  0.7477  0.7620
   16CHTO   O27 6607   7.602   3.084   0.911 -0.1884 -0.2414 -0.1357
   16CHTO   C37 6608   7.644   3.001   1.021  0.0126 -0.0504  0.3910
   16CHTO   H79 6609   7.737   3.041   1.061  1.0089 -0.6403 -1.2730
   16CHTO   C38 6610   7.535   3.004   1.132 -0.5876 -0.3394 -0.0184
   16CHTO   H80 6611   7.433   2.999   1.089  0.3006 -2.3927 -1.9803
   16CHTO   O31 6612   7.551   3.131   1.197 -0.4719 -0.1831 -0.0275
   16CHTO   H68 6613   7.629   3.125   1.248 -1.0885  0.8051  1.0456
   16CHTO   C39 6614   7.555   2.891   1.236  0.2699  0.0840  0.3564
   16CHTO   H81 6615   7.630   2.924   1.307 -0.3284  0.5892  0.7626
   16CHTO    N7 6616   7.438   2.877   1.323  0.4701  0.1236 -0.0217
   16CHTO   H73 6617   7.433   2.773   1.353  0.0587 -0.0913 -0.8226
   16CHTO   H74 6618   7.440   2.940   1.410 -0.7787  0.1946 -0.0357
   16CHTO   C40 6619   7.602   2.752   1.171 -0.2176 -0.1692  0.2647
   16CHTO   H82 6620   7.513   2.703   1.130 -0.0472 -1.2751  1.1967
   16CHTO   O26 6621   7.707   2.767   1.071  0.1831  0.2063  0.3184
   16CHTO   C41 6622   7.674   2.860   0.967  1.1013 -0.6019 -0.3435
   16CHTO   H83 6623   7.584   2.821   0.917  0.6654  0.2269 -0.2139
   16CHTO   C52 6624   7.789   2.868   0.865 -0.1581 -0.2110  0.5432
   16CHTO   O35 6625   7.851   2.755   0.832 -0.4995 -0.2413 -0.7056
   16CHTO   H71 6626   7.791   2.684   0.843  0.9372 -1.6730 -1.8403
   16CHTO   O28 6627   7.660   2.670   1.278 -0.0252 -0.3738  0.2045
   16CHTO   C42 6628   7.660   2.522   1.265  0.4511  0.4396  0.2736
   16CHTO   H84 6629   7.733   2.489   1.338  1.8845  0.0661 -1.2812
   16CHTO   C44 6630   7.715   2.472   1.125  0.3109 -0.0871 -0.5935
   16CHTO   H86 6631   7.651   2.504   1.042  1.4995  0.7429 -1.2011
   16CHTO   O32 6632   7.847   2.526   1.099  0.3474 -0.5224  0.1555
   16CHTO   H69 6633   7.896   2.474   1.039  0.8095 -0.3310  0.3692
   16CHTO   C48 6634   7.706   2.313   1.119 -0.6681 -0.4815  0.3278
   16CHTO   H90 6635   7.787   2.295   1.190 -1.4793 -2.3257  0.8131
   16CHTO    N9 6636   7.756   2.256   0.990  0.3254  0.2858 -0.0885
   16CHTO   H77 6637   7.858   2.280   0.965  0.3056  2.0580  1.4433
   16CHTO   H78 6638   7.694   2.280   0.905  0.0156  0.5676  0.2157
   16CHTO   C51 6639   7.560   2.257   1.155  0.0288  0.2319  0.3779
   16CHTO   H93 6640   7.492   2.294   1.079  1.9277 -2.4830 -2.8383
   16CHTO   O30 6641   7.524   2.299   1.286 -0.2418 -0.5173  0.4811
   16CHTO   C46 6642   7.529   2.447   1.293 -0.1141 -0.5408 -0.5264
   16CHTO   H88 6643   7.450   2.483   1.227 -1.1764  0.7946  1.4490
   16CHTO   C53 6644   7.478   2.473   1.438 -0.1159 -0.5216 -0.3801
   16CHTO   O72 6645   7.486   2.607   1.491  0.4038  0.2388  0.1190
   16CHTO  H199 6646   7.530   2.608   1.574  0.0231  0.5313  0.3139
   16CHTO   O22 6647   7.559   2.109   1.163  0.1847  0.3673 -0.2880
   16CHTO   C31 6648   7.447   2.034   1.212 -0.2713  0.2958 -0.2538
   16CHTO   H59 6649   7.412   2.082   1.306 -0.7108 -1.1081  0.3174
   16CHTO   C29 6650   7.326   2.026   1.107  0.2347 -0.4547 -0.0902
   16CHTO   H57 6651   7.356   1.984   1.010  1.2692 -0.1523  0.0930
   16CHTO   O21 6652   7.290   2.165   1.079 -0.1372  0.3804  0.0559
   16CHTO   H37 6653   7.202   2.163   1.046 -0.3202 -2.5443  0.5444
   16CHTO   C27 6654   7.202   1.945   1.163 -0.2166 -0.2838  0.3157
   16CHTO   H55 6655   7.162   2.001   1.249 -0.8795  1.5509 -1.1458
   16CHTO    N5 6656   7.090   1.929   1.059 -0.4678 -0.0937 -0.2032
   16CHTO   H43 6657   7.095   2.024   1.007 -0.8921  1.4726  2.5239
   16CHTO   H44 6658   7.115   1.845   0.996  3.7446 -0.8155  2.2646
   16CHTO   C25 6659   7.252   1.804   1.226  0.1758  0.1433 -0.1562
   16CHTO   H53 6660   7.297   1.740   1.149 -0.6945 -1.0787  0.3360
   16CHTO   O17 6661   7.351   1.835   1.323 -0.3728 -0.3925 -0.4356
   16CHTO   C32 6662   7.474   1.888   1.259 -0.5186  0.8036  0.3590
   16CHTO   H60 6663   7.502   1.826   1.174 -1.6586 -0.1652  0.6737
   16CHTO   C36 6664   7.583   1.877   1.366  0.1678 -0.6006 -0.2179
   16CHTO   O25 6665   7.712   1.907   1.308 -0.4975  0.4916 -0.3369
   16CHTO   H40 6666   7.745   1.989   1.340  1.4093 -0.3223 -0.1931
   16CHTO   O15 6667   7.135   1.728   1.299  0.5293 -0.2246  0.6407
   16CHTO   C19 6668   7.029   1.714   1.401 -0.2720  0.1502  0.3459
   16CHTO   H47 6669   7.031   1.608   1.430 -3.1087  0.0180  0.1745
   16CHTO   C20 6670   7.054   1.792   1.542 -0.8121  0.1792  0.6046
   16CHTO   H48 6671   7.057   1.901   1.525  1.3271  0.2328  1.2849
   16CHTO   O19 6672   7.182   1.746   1.584  0.3500 -0.2258  0.2886
   16CHTO   H35 6673   7.189   1.710   1.670  0.7100  2.2523  1.3457
   16CHTO   C21 6674   6.933   1.757   1.645 -0.3139  0.1763 -0.2173
   16CHTO   H49 6675   6.943   1.653   1.675  1.1555  0.3559 -0.0618
   16CHTO    N4 6676   6.942   1.847   1.764  0.0846  0.3082 -0.2791
   16CHTO   H41 6677   6.923   1.949   1.736 -2.2621 -0.3408 -1.2022
   16CHTO   H42 6678   6.865   1.820   1.835  0.0788  0.4070 -0.2479
   16CHTO   C22 6679   6.789   1.773   1.576  0.0357  0.6761  0.2443
   16CHTO   H50 6680   6.789   1.877   1.544  1.2339  0.7853  0.5925
   16CHTO   O14 6681   6.789   1.703   1.451  0.1492  0.0535 -0.0521
   16CHTO   C23 6682   6.884   1.745   1.356  0.0474  0.4859 -0.0364
   16CHTO   H51 6683   6.864   1.853   1.348 -1.0594  0.0917 -3.1559
   16CHTO   C34 6684   6.854   1.666   1.224  0.0960 -0.3633  0.5873
   16CHTO   O23 6685   6.734   1.709   1.163  0.2469  0.2479 -0.5194
   16CHTO   H38 6686   6.667   1.643   1.161  0.1071  0.4119 -1.3607
   16CHTO   O16 6687   6.677   1.732   1.658 -0.5505  0.7076 -0.4923
   16CHTO   C24 6688   6.552   1.828   1.628 -0.2600  0.2145 -0.6816
   16CHTO   H52 6689   6.564   1.878   1.532  1.3730 -1.8897 -1.6277
   16CHTO   C26 6690   6.535   1.936   1.735  0.0151 -0.4741 -0.1095
   16CHTO   H54 6691   6.544   1.887   1.835 -0.4250  1.2312  0.7736
   16CHTO   O20 6692   6.644   2.026   1.723  0.3263 -0.0606  0.0854
   16CHTO   H36 6693   6.632   2.097   1.783 -0.3005  0.0960 -0.2310
   16CHTO   C30 6694   6.398   2.012   1.723  0.1227 -0.0024 -0.0171
   16CHTO   H58 6695   6.390   2.065   1.627 -0.9609  0.4631  0.3246
   16CHTO    N6 6696   6.378   2.114   1.840 -0.5496 -0.3880  0.5574
   16CHTO   H45 6697   6.469   2.104   1.897 -0.3894  0.4640  0.4682
   16CHTO   H46 6698   6.389   2.205   1.782  0.3902 -0.0743  1.2253
   16CHTO   C33 6699   6.281   1.912   1.720  0.1364 -0.4697  0.5329
   16CHTO   H61 6700   6.277   1.861   1.816 -0.7415 -0.8345  0.3016
   16CHTO   O18 6701   6.310   1.822   1.611  0.6595 -0.3699 -0.1333
   16CHTO   C28 6702   6.429   1.740   1.619  0.2253 -0.0135  0.1811
   16CHTO   H56 6703   6.424   1.670   1.702 -1.2584 -0.2688 -0.1103
   16CHTO   C35 6704   6.446   1.655   1.488 -0.8202  0.3700 -0.2037
   16CHTO   O24 6705   6.347   1.546   1.480 -0.5341  0.2460  0.1818
   16CHTO   H39 6706   6.366   1.478   1.418  1.4266 -0.4091  1.4642
   16CHTO    O9 6707   6.151   1.968   1.702  0.1472 -0.0748  0.1765
   16CHTO   C13 6708   6.053   1.951   1.822  0.4065  0.0095 -0.6814
   16CHTO   H26 6709   6.113   1.984   1.910 -1.0535  1.6638 -0.2681
   16CHTO   C11 6710   5.998   1.804   1.831 -0.3731 -0.0735  0.2935
   16CHTO   H24 6711   6.069   1.739   1.884 -0.6722  0.5934  1.5557
   16CHTO    O8 6712   5.981   1.747   1.703  0.3514  0.2553 -0.1129
   16CHTO    H3 6713   5.893   1.735   1.672  0.6614  0.8135 -1.2111
   16CHTO    C9 6714   5.863   1.802   1.916 -0.3951  0.2812  0.3976
   16CHTO   H22 6715   5.885   1.861   2.006  1.2957 -0.3318  0.4077
   16CHTO    N2 6716   5.824   1.667   1.957  0.0933 -0.1631  0.3806
   16CHTO   H10 6717   5.900   1.607   2.004 -1.5906 -1.0006  2.0854
   16CHTO   H11 6718   5.735   1.667   2.019  0.0342 -1.4883  0.2923
   16CHTO    C7 6719   5.755   1.891   1.835 -0.0905  0.3316 -0.2173
   16CHTO   H20 6720   5.673   1.930   1.900  0.1352 -0.7245  0.7080
   16CHTO    O4 6721   5.824   2.002   1.763  0.3263 -0.1233  0.3197
   16CHTO   C14 6722   5.937   2.060   1.822  0.9857  0.2839  0.4652
   16CHTO   H27 6723   5.912   2.088   1.927 -0.4659 -0.7975  0.4299
   16CHTO   C18 6724   5.969   2.196   1.754  1.0085 -0.0200  0.2219
   16CHTO   O13 6725   6.091   2.252   1.801  0.2956  0.4196  0.0974
   16CHTO    H7 6726   6.085   2.344   1.822 -0.1027  0.6868 -1.1824
   16CHTO    O2 6727   5.681   1.814   1.732 -0.6686  0.5508 -0.1106
   16CHTO    C1 6728   5.543   1.839   1.690 -0.0312  0.5467  0.1320
   16CHTO   H14 6729   5.523   1.788   1.594  1.1664  1.6881 -0.7379
   16CHTO    C2 6730   5.514   1.985   1.671  0.0844 -0.7288 -0.2046
   16CHTO   H15 6731   5.528   2.032   1.770  0.0470  0.3265 -0.6883
   16CHTO    O6 6732   5.605   2.037   1.567  0.2779 -0.0104  0.3498
   16CHTO    H1 6733   5.596   2.130   1.556  0.0829  0.1752  1.9018
   16CHTO    C3 6734   5.361   2.018   1.633 -0.2889 -0.3788  0.1737
   16CHTO   H16 6735   5.350   1.974   1.533  3.2532 -0.0308 -0.4414
   16CHTO    N1 6736   5.319   2.165   1.622 -0.1401  0.6201 -0.3667
   16CHTO    H8 6737   5.379   2.248   1.587 -1.3395  0.7237 -2.2364
   16CHTO    H9 6738   5.215   2.192   1.616 -0.4679 -0.9170 -1.7547
   16CHTO    C4 6739   5.268   1.935   1.730  0.0508  0.1904 -0.0525
   16CHTO   H17 6740   5.278   1.978   1.829 -0.7334 -2.1006  1.0466
   16CHTO    O1 6741   5.306   1.793   1.743 -0.1985  0.2695 -0.2002
   16CHTO    C5 6742   5.442   1.773   1.784  0.6349 -0.2673  0.4181
   16CHTO   H18 6743   5.456   1.822   1.881 -1.9303  1.8886 -0.2602
   16CHTO   C16 6744   5.470   1.626   1.808 -0.3491  0.4142 -0.0729
   16CHTO   O11 6745   5.382   1.562   1.907 -0.7726 -0.8765  0.3270
   16CHTO    H5 6746   5.294   1.550   1.879 -0.6853 -1.3058  0.2416
   16CHTO    O3 6747   5.134   1.935   1.682  0.1320 -0.2020  0.1439
   16CHTO    C6 6748   5.022   1.911   1.769 -0.2686 -0.7033  0.0864
   16CHTO   H19 6749   5.048   1.860   1.861  0.3645  1.7736  1.3225
   16CHTO    C8 6750   4.977   2.052   1.820  0.2450  0.1830  0.4325
   16CHTO   H21 6751   4.976   2.122   1.737  0.7786  1.0270  1.1254
   16CHTO    O7 6752   5.073   2.104   1.913 -0.0166  0.3540  0.5804
   16CHTO    H2 6753   5.096   2.042   1.980  1.4058  0.8313  0.5498
   16CHTO   C12 6754   4.831   2.045   1.884  0.0176  0.9088 -0.7909
   16CHTO   H25 6755   4.842   1.996   1.983  1.3697  1.8693 -0.4530
   16CHTO    N3 6756   4.773   2.178   1.919  0.0669  0.1129  0.3119
   16CHTO   H12 6757   4.787   2.250   1.840  1.4864 -0.2250  0.2425
   16CHTO   H13 6758   4.669   2.152   1.934 -0.2562  0.0084 -1.9053
   16CHTO   C15 6759   4.736   1.957   1.796  0.6887 -0.4823 -0.2725
   16CHTO   H28 6760   4.722   2.006   1.699  1.1818 -1.5331 -0.8781
   16CHTO   O10 6761   4.584   1.918   1.869  0.0233 -0.6768 -0.2599
   16CHTO    H4 6762   4.591   1.866   1.947  1.9114  0.1516  0.1545
   16CHTO    O5 6763   4.782   1.824   1.769 -0.3077 -0.4194 -0.0267
   16CHTO   C10 6764   4.912   1.833   1.698 -0.2685 -0.3194  0.5131
   16CHTO   H23 6765   4.900   1.887   1.603 -0.9016 -0.4720  0.5048
   16CHTO   C17 6766   4.968   1.695   1.659 -0.4514 -0.0918 -0.6442
   16CHTO   O12 6767   4.959   1.607   1.773  0.2677 -0.4238 -0.5708
   16CHTO    H6 6768   4.945   1.525   1.730 -0.1040  0.4225 -2.0750
   17CHTO  H203 6769   5.775   4.177   0.072  0.4020  0.1939 -0.9946
   17CHTO   O82 6770   5.819   4.251   0.109 -0.0942 -0.1586  0.3507
   17CHTO  C123 6771   5.733   4.367   0.109 -0.0520  0.4085 -0.5587
   17CHTO  H227 6772   5.665   4.356   0.195  1.0083 -1.0633  0.1105
   17CHTO   O77 6773   5.825   4.476   0.139 -0.2351  0.5480 -0.1249
   17CHTO  C118 6774   5.769   4.603   0.165  0.4220 -0.3607  0.0431
   17CHTO  H222 6775   5.697   4.579   0.245 -0.6520 -0.1074 -0.8404
   17CHTO  C125 6776   5.873   4.705   0.216 -0.3039 -0.0239  0.4002
   17CHTO   O84 6777   5.943   4.662   0.334 -0.3160  0.0829 -0.4361
   17CHTO  H205 6778   5.974   4.740   0.374 -0.1041  0.5714 -1.5269
   17CHTO  C114 6779   5.690   4.651   0.045 -0.1266 -0.6820  0.0835
   17CHTO  H218 6780   5.758   4.683  -0.034 -1.0380 -0.7095 -0.7357
   17CHTO  C116 6781   5.593   4.543  -0.023  0.0245 -0.2519 -0.3183
   17CHTO  H220 6782   5.498   4.551   0.035 -1.4766 -0.8890 -2.6509
   17CHTO   O79 6783   5.562   4.594  -0.150 -0.1427 -0.2768  0.1080
   17CHTO  H201 6784   5.534   4.683  -0.151  1.7655  0.3660  0.7598
   17CHTO  C120 6785   5.654   4.402  -0.029  0.7086 -0.5859 -0.0955
   17CHTO  H224 6786   5.729   4.397  -0.111  1.0695 -0.3129  0.2207
   17CHTO   N21 6787   5.557   4.297  -0.057 -0.5062 -0.2201 -0.4012
   17CHTO  H211 6788   5.574   4.245  -0.150 -0.0558  0.9770 -0.9896
   17CHTO  H212 6789   5.545   4.237   0.033 -0.8549 -0.5216 -0.6484
   17CHTO   O75 6790   5.626   4.768   0.086  0.2326 -0.3946 -0.3207
   17CHTO  C112 6791   5.642   4.898  -0.022 -0.5329  0.5191 -0.5223
   17CHTO  H216 6792   5.597   4.872  -0.118  0.9064 -0.2801 -0.9946
   17CHTO   O73 6793   5.782   4.925  -0.039 -0.5282  0.1451  0.3467
   17CHTO  C113 6794   5.816   5.031  -0.128  0.3738  0.0466  0.4413
   17CHTO  H217 6795   5.764   5.015  -0.225 -2.5175  1.3044  1.7182
   17CHTO  C124 6796   5.970   5.043  -0.149 -0.6503 -0.5735 -0.4081
   17CHTO   O83 6797   6.038   5.051  -0.025  0.4548  0.0504  0.1795
   17CHTO  H204 6798   6.060   4.962  -0.009 -1.6654 -0.3649  0.9610
   17CHTO  C109 6799   5.760   5.166  -0.071  0.1659 -0.0050  0.2234
   17CHTO  H213 6800   5.809   5.184   0.026  2.4819 -0.5548 -0.8090
   17CHTO  C110 6801   5.602   5.150  -0.050 -0.8249  0.1958  0.6972
   17CHTO  H214 6802   5.542   5.160  -0.141 -2.4539 -2.7364  1.3626
   17CHTO   O78 6803   5.566   5.264   0.028 -0.5652  0.6728  0.3921
   17CHTO  H200 6804   5.642   5.292   0.075  0.7314  1.0621 -1.9083
   17CHTO  C111 6805   5.568   5.024   0.035 -0.2741 -0.5498  0.7070
   17CHTO  H215 6806   5.607   5.045   0.136  0.2845 -0.4099  0.4619
   17CHTO   N19 6807   5.426   4.997   0.054  0.3730  0.2468  0.4523
   17CHTO  H207 6808   5.413   4.912   0.119 -2.2400  1.5347  1.6897
   17CHTO  H208 6809   5.384   5.087   0.096  3.4318  1.5865  0.7951
   17CHTO   O74 6810   5.788   5.277  -0.164  0.3757  0.6707 -0.2294
   17CHTO  C115 6811   5.819   5.410  -0.096  0.2939  0.2489 -0.0222
   17CHTO  H219 6812   5.732   5.453  -0.044  1.0991  1.1090  0.6408
   17CHTO   O76 6813   5.924   5.399   0.011  0.4108  0.0863 -0.4206
   17CHTO  C122 6814   6.052   5.439  -0.028 -0.5044 -0.0048 -0.1309
   17CHTO  H226 6815   6.081   5.369  -0.106 -0.4742  0.4319 -0.5153
   17CHTO  C126 6816   6.142   5.401   0.092  0.4230 -0.1208 -0.5485
   17CHTO   O85 6817   6.183   5.263   0.084 -0.6058  0.1699 -0.1737
   17CHTO  H206 6818   6.132   5.213   0.145  1.5214 -2.0712 -0.1749
   17CHTO  C121 6819   6.061   5.587  -0.074 -0.4569 -0.1582  0.1129
   17CHTO  H225 6820   6.091   5.651   0.011  0.2750 -0.5573  0.1621
   17CHTO   O81 6821   6.169   5.613  -0.168 -0.1028 -0.1845 -0.2662
   17CHTO  H202 6822   6.256   5.608  -0.134 -0.6469  0.1477  1.2114
   17CHTO  C119 6823   5.927   5.637  -0.130 -0.8860  0.4940 -0.0180
   17CHTO  H223 6824   5.868   5.656  -0.041 -1.6373 -1.6052 -0.0269
   17CHTO  C117 6825   5.861   5.518  -0.206  0.7497  0.3197 -0.3694
   17CHTO  H221 6826   5.923   5.464  -0.277  0.5188  0.9325 -1.0450
   17CHTO   N20 6827   5.738   5.570  -0.283  0.4825 -0.2283 -0.2665
   17CHTO  H209 6828   5.652   5.580  -0.219  0.6452  3.9328 -0.5768
   17CHTO  H210 6829   5.730   5.533  -0.384 -1.5121  0.3405 -0.3362
   17CHTO   O80 6830   5.941   5.780  -0.200 -0.6019  0.4731  0.4451
   17CHTO  C103 6831   5.990   5.908  -0.102  0.1527  0.0306 -0.8101
   17CHTO  H190 6832   6.028   5.882  -0.004  1.0979 -2.2231 -1.7425
   17CHTO  C101 6833   6.096   5.998  -0.175 -0.2740 -0.2659 -0.2798
   17CHTO  H188 6834   6.075   6.003  -0.282 -0.2322  0.0278 -0.2759
   17CHTO   O68 6835   6.238   5.925  -0.159  0.0000 -0.5102  0.4706
   17CHTO  H168 6836   6.222   5.835  -0.179 -0.3768  0.2344 -2.7414
   17CHTO   C99 6837   6.106   6.147  -0.110  0.1686  1.1424 -0.1953
   17CHTO  H186 6838   6.146   6.148  -0.006  0.6254  1.1634 -0.3698
   17CHTO   N17 6839   6.197   6.238  -0.191 -0.8940 -0.2981  0.0824
   17CHTO  H174 6840   6.158   6.241  -0.292 -1.7532  0.3720  0.4347
   17CHTO  H175 6841   6.190   6.335  -0.145 -1.8126 -0.8513  1.1324
   17CHTO   C97 6842   5.965   6.209  -0.102 -0.3001  0.5383 -0.6366
   17CHTO  H184 6843   5.923   6.223  -0.203  0.2999  1.2787 -0.7906
   17CHTO   O64 6844   5.880   6.126  -0.017  0.4671  0.0378 -0.3421
   17CHTO  C104 6845   5.856   5.996  -0.081  0.6179  0.5459  0.1998
   17CHTO  H191 6846   5.808   6.014  -0.177 -0.5130 -1.3184  0.3846
   17CHTO  C108 6847   5.747   5.930   0.006  0.2097 -0.7856 -0.0327
   17CHTO   O71 6848   5.621   6.004   0.008 -0.2738  0.1821 -0.1078
   17CHTO  H171 6849   5.552   5.958  -0.037 -0.8208  2.3006 -1.4893
   17CHTO   O62 6850   5.947   6.333  -0.031  0.1892 -0.0157 -0.5871
   17CHTO   C91 6851   5.824   6.406  -0.066  0.7182 -0.4049  0.2311
   17CHTO  H178 6852   5.744   6.339  -0.100  0.6279 -1.7290  2.9245
   17CHTO   C92 6853   5.859   6.502  -0.189 -0.4453  0.5025  0.6944
   17CHTO  H179 6854   5.915   6.447  -0.267  0.7641 -0.3363  2.1016
   17CHTO   O66 6855   5.736   6.544  -0.258  0.0332 -0.1661 -0.7270
   17CHTO  H166 6856   5.741   6.629  -0.299 -1.3278 -0.3017 -1.1994
   17CHTO   C93 6857   5.939   6.631  -0.143  0.0847  0.1925  0.2731
   17CHTO  H180 6858   5.928   6.704  -0.224 -1.5238  0.7925  1.0127
   17CHTO   N16 6859   6.085   6.609  -0.146 -0.6146 -0.2432  0.8762
   17CHTO  H172 6860   6.122   6.637  -0.048  0.9353  0.9345 -0.0236
   17CHTO  H173 6861   6.131   6.518  -0.182  2.4969  1.0741  1.3610
   17CHTO   C94 6862   5.884   6.694  -0.011 -0.0236  0.1192  0.2440
   17CHTO  H181 6863   5.953   6.679   0.071  0.3077 -1.5157 -0.3205
   17CHTO   O61 6864   5.764   6.628   0.026  0.4038  0.3179 -1.4305
   17CHTO   C95 6865   5.769   6.492   0.055  0.2683 -0.0129 -0.6157
   17CHTO  H182 6866   5.843   6.479   0.134 -0.2971 -1.3314 -0.2859
   17CHTO  C106 6867   5.617   6.454   0.101 -0.4276  0.6444  0.5215
   17CHTO   O69 6868   5.579   6.533   0.213 -0.1754  0.4022  0.6992
   17CHTO  H169 6869   5.502   6.500   0.254 -0.3390 -3.1652 -2.2653
   17CHTO   O63 6870   5.854   6.834  -0.031 -0.3236 -0.3851  0.5206
   17CHTO   C96 6871   5.861   6.921   0.110  0.3384  0.6295  0.1372
   17CHTO  H183 6872   5.888   6.856   0.193 -1.7996 -1.0005 -0.3810
   17CHTO   C98 6873   5.731   6.991   0.168  0.2661  0.4937 -0.4235
   17CHTO  H185 6874   5.685   7.046   0.085  0.1951 -0.6139 -1.1256
   17CHTO   O67 6875   5.636   6.879   0.203  0.3086 -0.4019 -0.1355
   17CHTO  H167 6876   5.547   6.903   0.220  0.3211 -0.1325 -0.4421
   17CHTO  C102 6877   5.762   7.082   0.301  0.6699  0.4146  0.6622
   17CHTO  H189 6878   5.776   7.013   0.385 -0.3502  0.3088  0.7469
   17CHTO   N18 6879   5.641   7.167   0.335  0.3228  0.7096  0.3253
   17CHTO  H176 6880   5.675   7.227   0.419  1.5380 -1.0239  1.1064
   17CHTO  H177 6881   5.562   7.100   0.363 -0.8112  2.0419  0.3448
   17CHTO  C105 6882   5.890   7.171   0.279  0.5536  0.5388  0.0676
   17CHTO  H192 6883   5.868   7.254   0.213 -0.3310  0.6426  0.4909
   17CHTO   O65 6884   5.996   7.093   0.225  0.3394  0.1943 -0.5986
   17CHTO  C100 6885   5.967   7.034   0.102  0.1695 -0.2360  0.4240
   17CHTO  H187 6886   5.925   7.112   0.037  0.5902  1.7551  2.4613
   17CHTO  C107 6887   6.101   6.986   0.032  0.3989 -0.4995  0.4697
   17CHTO   O70 6888   6.170   7.095  -0.017 -0.2914 -0.3622  0.1401
   17CHTO  H170 6889   6.185   7.070  -0.106  0.5552 -1.1087  0.4870
   17CHTO   O57 6890   5.930   7.221   0.421 -0.9425  0.2415 -0.3203
   17CHTO   C85 6891   5.985   7.348   0.461  0.8169 -0.0325 -0.0433
   17CHTO  H157 6892   6.029   7.388   0.368  0.8419 -1.5281 -0.6984
   17CHTO   C83 6893   6.103   7.318   0.561 -0.4157 -1.3384  0.5639
   17CHTO  H155 6894   6.188   7.280   0.505  0.3160 -1.5417  1.8047
   17CHTO   O56 6895   6.072   7.213   0.648 -0.0734  0.2731  0.1726
   17CHTO  H135 6896   5.989   7.226   0.691  0.4124 -0.1302  1.2414
   17CHTO   C81 6897   6.150   7.443   0.634  0.2615 -0.4634 -1.0365
   17CHTO  H153 6898   6.182   7.515   0.559 -0.1076 -0.3070 -1.0426
   17CHTO   N14 6899   6.276   7.418   0.715  0.5334  0.5005 -0.3097
   17CHTO  H141 6900   6.258   7.375   0.811 -0.6140  1.4544 -0.0856
   17CHTO  H142 6901   6.335   7.347   0.661 -1.6408 -2.4493  1.0398
   17CHTO   C79 6902   6.032   7.504   0.711  0.6554 -0.2776 -0.0593
   17CHTO  H151 6903   6.067   7.598   0.754  1.0295  0.2659 -1.5051
   17CHTO   O52 6904   5.933   7.549   0.617  0.1649  0.2462  0.6076
   17CHTO   C86 6905   5.883   7.444   0.525  0.3418  0.3429 -0.0737
   17CHTO  H158 6906   5.812   7.379   0.581  0.5643 -3.0202 -3.5099
   17CHTO   C90 6907   5.807   7.507   0.408  0.1792  0.2008  0.2428
   17CHTO   O60 6908   5.885   7.611   0.349 -0.1228  0.2103 -0.5923
   17CHTO  H138 6909   5.828   7.647   0.284  0.0249  1.0107 -0.2832
   17CHTO   O50 6910   5.984   7.416   0.816 -0.3961  0.1062  0.1330
   17CHTO   C73 6911   5.936   7.411   0.951 -0.1878  0.0627 -0.1904
   17CHTO  H145 6912   5.879   7.503   0.968 -0.9760 -0.8553  2.4318
   17CHTO   C74 6913   6.054   7.403   1.054  0.1134 -0.0852 -0.1918
   17CHTO  H146 6914   6.127   7.485   1.048 -1.9140  1.8410  0.6644
   17CHTO   O54 6915   6.001   7.415   1.192 -0.0436 -0.2409 -0.2291
   17CHTO  H133 6916   5.965   7.500   1.208 -0.2840 -0.5720  1.0511
   17CHTO   C75 6917   6.125   7.258   1.040 -0.8086  0.2506  0.2391
   17CHTO  H147 6918   6.181   7.254   0.945  0.9185 -1.5333  1.2832
   17CHTO   N13 6919   6.230   7.234   1.137 -0.0821 -0.0942  0.4731
   17CHTO  H139 6920   6.316   7.206   1.079 -0.1130 -0.1925  0.4744
   17CHTO  H140 6921   6.249   7.324   1.193 -1.9668 -0.0237  1.0350
   17CHTO   C76 6922   6.014   7.141   1.041  0.0784 -0.4551 -0.2563
   17CHTO  H148 6923   5.967   7.117   1.136 -1.2107  1.7708 -0.3128
   17CHTO   O49 6924   5.911   7.165   0.937 -0.2543 -0.0561  0.5783
   17CHTO   C77 6925   5.838   7.288   0.963 -0.6105  0.1189 -0.4249
   17CHTO  H149 6926   5.799   7.288   1.065 -0.9082 -0.2663 -0.5370
   17CHTO   C88 6927   5.711   7.308   0.880 -0.4327  0.0889  0.2953
   17CHTO   O58 6928   5.625   7.416   0.914  0.1142  0.1760  0.2027
   17CHTO  H136 6929   5.538   7.388   0.891 -0.2388  1.1975  0.2961
   17CHTO   O51 6930   6.101   7.012   0.982 -0.5266 -0.5998  0.2988
   17CHTO   C78 6931   6.033   6.878   0.985  0.3120  0.1449 -0.7204
   17CHTO  H150 6932   5.924   6.898   0.994  0.9763  3.6904  0.4808
   17CHTO   C80 6933   6.079   6.781   1.093 -0.0942 -0.0527  0.0430
   17CHTO  H152 6934   6.188   6.765   1.080 -0.1024  0.8525 -1.1986
   17CHTO   O55 6935   6.055   6.852   1.216  0.3073 -0.1119  0.3297
   17CHTO  H134 6936   6.072   6.795   1.288 -0.7260  0.3635  0.9636
   17CHTO   C84 6937   6.005   6.642   1.076  0.4419  0.0727 -0.1763
   17CHTO  H156 6938   5.900   6.666   1.094  0.2654  0.3678 -1.5404
   17CHTO   N15 6939   6.055   6.542   1.183 -0.0307  0.0458  0.3129
   17CHTO  H143 6940   5.985   6.534   1.264 -0.7653 -0.4436 -0.3602
   17CHTO  H144 6941   6.144   6.582   1.226  0.4574  1.9658 -2.3170
   17CHTO   C87 6942   6.031   6.589   0.937 -0.4536 -0.6542 -0.7063
   17CHTO  H159 6943   6.135   6.556   0.934  0.0312  0.7148  0.1766
   17CHTO   O53 6944   5.986   6.692   0.829 -0.0491  0.5900 -0.3657
   17CHTO   C82 6945   6.064   6.812   0.850 -0.7133  0.0471 -0.3808
   17CHTO  H154 6946   6.171   6.793   0.856 -0.8661 -0.2006  2.0807
   17CHTO   C89 6947   6.040   6.901   0.728 -0.1123  0.0494 -0.3874
   17CHTO   O59 6948   5.901   6.917   0.697 -0.6505 -0.8561 -0.0777
   17CHTO  H137 6949   5.838   6.849   0.712  1.0368 -2.7296 -1.1844
   17CHTO   O45 6950   5.951   6.459   0.909 -0.1033  0.2798 -0.3704
   17CHTO   C67 6951   5.807   6.450   0.923 -0.2834 -0.4584 -0.1967
   17CHTO  H124 6952   5.759   6.482   1.016 -0.0120 -0.7548  0.0455
   17CHTO   C65 6953   5.730   6.517   0.802 -0.3737  0.1155  0.1491
   17CHTO  H122 6954   5.808   6.553   0.735 -1.1697 -0.3325 -1.0128
   17CHTO   O44 6955   5.656   6.624   0.857  0.3671  0.0638 -0.0402
   17CHTO  H102 6956   5.604   6.658   0.787  0.2813  0.9723  0.4559
   17CHTO   C63 6957   5.661   6.424   0.705  0.1693 -0.0181  0.5458
   17CHTO  H120 6958   5.736   6.366   0.651 -1.0949 -1.9292  0.7762
   17CHTO   N11 6959   5.600   6.484   0.585 -0.2908 -0.2347  0.0434
   17CHTO  H108 6960   5.583   6.586   0.613 -1.3049 -1.2338  3.2491
   17CHTO  H109 6961   5.667   6.482   0.501 -0.9278  1.6774 -0.5295
   17CHTO   C61 6962   5.578   6.317   0.778 -0.1461 -0.0504  0.3305
   17CHTO  H118 6963   5.573   6.228   0.713  2.0983 -1.1296  1.5476
   17CHTO   O40 6964   5.633   6.278   0.898 -0.0238  0.2556 -0.2061
   17CHTO   C68 6965   5.777   6.298   0.909 -1.2064 -0.0234  0.2539
   17CHTO  H125 6966   5.833   6.267   0.819 -2.1378  1.5722 -0.8888
   17CHTO   C72 6967   5.834   6.219   1.029 -0.5149  0.1325 -0.5832
   17CHTO   O48 6968   5.803   6.077   1.039 -0.2461 -0.1150 -0.2933
   17CHTO  H105 6969   5.843   6.039   1.115 -3.1068 -0.2656  1.1835
   17CHTO   O38 6970   5.441   6.364   0.805 -0.3124  0.5359  0.9038
   17CHTO   C55 6971   5.348   6.269   0.866 -0.2921 -0.0950 -0.6751
   17CHTO  H112 6972   5.408   6.203   0.931 -1.7707 -1.5124 -0.7143
   17CHTO   C56 6973   5.271   6.183   0.764 -0.9532  0.1701 -0.0354
   17CHTO  H113 6974   5.228   6.250   0.688 -1.5833 -1.9581 -1.5949
   17CHTO   O42 6975   5.357   6.095   0.685 -0.1434  0.0990 -0.2967
   17CHTO  H100 6976   5.420   6.047   0.734 -1.3326  0.1724  1.3704
   17CHTO   C57 6977   5.156   6.104   0.839 -0.4284 -0.1370  0.6134
   17CHTO  H114 6978   5.180   6.013   0.893 -1.8583 -0.5405  0.5726
   17CHTO   N10 6979   5.057   6.043   0.738  0.0555  0.1744 -0.3939
   17CHTO  H106 6980   4.978   6.110   0.709  0.4935  1.3269  1.0464
   17CHTO  H107 6981   5.113   6.020   0.648 -0.6670  2.5811 -1.4781
   17CHTO   C58 6982   5.078   6.203   0.930  0.8817 -0.3351 -0.1315
   17CHTO  H115 6983   5.033   6.282   0.865  2.6502  1.0156  0.2385
   17CHTO   O37 6984   5.166   6.264   1.027 -0.1294  0.0109 -0.1259
   17CHTO   C59 6985   5.254   6.353   0.959 -1.0547  0.1783  0.2579
   17CHTO  H116 6986   5.195   6.424   0.900  1.1948  1.1674 -0.8910
   17CHTO   C70 6987   5.335   6.421   1.067  0.1634  0.2426  0.0070
   17CHTO   O46 6988   5.265   6.491   1.165  0.2001  0.2407 -0.4451
   17CHTO  H103 6989   5.321   6.534   1.228 -0.2949  0.4233 -0.1265
   17CHTO   O39 6990   4.954   6.122   1.021 -0.2708  0.7147 -0.1835
   17CHTO   C60 6991   4.863   6.211   1.084  0.1743 -0.7623 -0.5003
   17CHTO  H117 6992   4.918   6.294   1.129 -2.2339  0.8141 -0.3323
   17CHTO   C62 6993   4.757   6.280   0.987  0.6306  0.1014  0.4221
   17CHTO  H119 6994   4.813   6.339   0.911  0.8069  0.1444  0.5857
   17CHTO   O43 6995   4.702   6.165   0.921 -0.4505  0.0728  0.3390
   17CHTO  H101 6996   4.729   6.166   0.831 -3.8000  2.8043 -0.7377
   17CHTO   C66 6997   4.643   6.366   1.064  0.1229  1.3080 -0.1765
   17CHTO  H123 6998   4.688   6.452   1.114 -0.4552  0.6857  1.4464
   17CHTO   N12 6999   4.539   6.410   0.969 -0.0029  0.2411  0.3201
   17CHTO  H110 7000   4.556   6.515   0.948 -2.0311  0.3871 -0.6688
   17CHTO  H111 7001   4.529   6.348   0.882 -0.1163 -0.1627  0.6160
   17CHTO   C69 7002   4.579   6.285   1.182 -0.2635  0.2856  0.1917
   17CHTO  H126 7003   4.526   6.198   1.136 -0.9951  2.0447 -2.4217
   17CHTO   O41 7004   4.705   6.236   1.273  0.4101  0.2247  0.2346
   17CHTO   C64 7005   4.795   6.137   1.196  1.0002 -1.1811  0.0693
   17CHTO  H121 7006   4.724   6.059   1.162  0.6018 -0.4810 -0.7311
   17CHTO   C71 7007   4.893   6.087   1.301 -0.2300  0.0354 -0.2058
   17CHTO   O47 7008   4.835   6.031   1.424  0.4238 -0.3845 -0.1165
   17CHTO  H104 7009   4.783   6.095   1.469  0.0766 -0.5989 -0.2104
   17CHTO   O34 7010   4.479   6.369   1.262  0.5201  0.4144 -0.0668
   17CHTO   C49 7011   4.349   6.447   1.331 -0.4342 -0.2851 -0.5636
   17CHTO   H91 7012   4.397   6.529   1.386 -0.8585 -1.3675  1.4741
   17CHTO   C47 7013   4.286   6.354   1.431  0.1218 -0.4843  0.0172
   17CHTO   H89 7014   4.217   6.426   1.480  1.3266  0.4501  0.3768
   17CHTO   O33 7015   4.372   6.313   1.541  0.1611 -1.0051 -0.0453
   17CHTO   H70 7016   4.436   6.255   1.505 -0.5667 -1.7851 -0.1238
   17CHTO   C45 7017   4.206   6.229   1.345  0.6297  0.5694 -0.3227
   17CHTO   H87 7018   4.272   6.142   1.346  0.0630  0.1395  0.6141
   17CHTO    N8 7019   4.085   6.194   1.423 -0.5444  0.2123 -0.7682
   17CHTO   H75 7020   4.105   6.175   1.527  2.0492 -3.1440 -1.7993
   17CHTO   H76 7021   4.022   6.117   1.380 -2.1109  1.2809 -0.4447
   17CHTO   C43 7022   4.179   6.275   1.190  0.5892  0.1558 -0.4985
   17CHTO   H85 7023   4.268   6.253   1.131  0.6698 -0.8959  0.0057
   17CHTO   O29 7024   4.138   6.410   1.177  0.0194 -0.0735 -0.1306
   17CHTO   C50 7025   4.241   6.503   1.231  0.5226  0.1910  0.0114
   17CHTO   H92 7026   4.291   6.537   1.139  0.8189 -1.4302 -0.4494
   17CHTO   C54 7027   4.180   6.632   1.279  0.0093 -0.4482 -0.6935
   17CHTO   O36 7028   4.123   6.719   1.182 -0.0642  0.5522  0.3500
   17CHTO   H72 7029   4.148   6.693   1.096  0.6396  2.9991 -0.2078
   17CHTO   O27 7030   4.082   6.194   1.125  0.1072 -0.3845 -0.0240
   17CHTO   C37 7031   4.093   6.123   1.000  0.0098  0.1873 -0.2221
   17CHTO   H79 7032   3.993   6.087   0.970  0.1669 -0.1953 -0.2894
   17CHTO   C38 7033   4.153   6.217   0.888  0.8709 -0.1646 -0.4172
   17CHTO   H80 7034   4.245   6.262   0.927  1.1798  0.6991 -2.0808
   17CHTO   O31 7035   4.052   6.316   0.855 -0.0870  0.7368  0.3117
   17CHTO   H68 7036   4.081   6.385   0.799  0.3021  0.3988  0.0941
   17CHTO   C39 7037   4.194   6.139   0.759 -0.4452  0.6960  0.5932
   17CHTO   H81 7038   4.108   6.093   0.710 -0.9491  1.3692  0.8264
   17CHTO    N7 7039   4.258   6.220   0.655 -0.2291 -0.1840 -0.6410
   17CHTO   H73 7040   4.350   6.176   0.620  0.3615 -0.6220  1.3723
   17CHTO   H74 7041   4.196   6.232   0.568 -0.0933  3.3180 -0.3328
   17CHTO   C40 7042   4.280   6.018   0.802 -0.3289  0.6511  0.0495
   17CHTO   H82 7043   4.381   6.050   0.829  0.4659 -0.3992 -1.5713
   17CHTO   O26 7044   4.221   5.941   0.907 -0.4343  0.0525  0.2129
   17CHTO   C41 7045   4.185   6.006   1.026 -0.3965 -0.2299 -0.1838
   17CHTO   H83 7046   4.276   6.043   1.075  0.3626  0.3929 -2.0107
   17CHTO   C52 7047   4.131   5.903   1.124 -0.4630 -0.0500 -0.9391
   17CHTO   O35 7048   4.015   5.853   1.078  0.6719  0.4380 -0.0348
   17CHTO   H71 7049   4.033   5.776   1.028  0.6639 -0.2457  0.9919
   17CHTO   O28 7050   4.290   5.933   0.687 -0.2838 -1.0156 -0.7848
   17CHTO   C42 7051   4.364   5.806   0.683 -0.2318  0.0317 -0.0892
   17CHTO   H84 7052   4.362   5.792   0.575  1.2629  1.9927 -0.4118
   17CHTO   C44 7053   4.317   5.673   0.760 -0.6835  0.2690  0.1953
   17CHTO   H86 7054   4.340   5.679   0.866 -2.5054 -0.3581  0.6469
   17CHTO   O32 7055   4.171   5.668   0.742  0.1240 -0.5678  0.4907
   17CHTO   H69 7056   4.120   5.655   0.820 -0.0919 -0.6160  0.3403
   17CHTO   C48 7057   4.397   5.550   0.711 -0.3496 -0.5562 -0.8424
   17CHTO   H90 7058   4.390   5.523   0.605  1.8290  1.1282 -1.4706
   17CHTO    N9 7059   4.351   5.422   0.770  0.2303 -0.2227 -0.3634
   17CHTO   H77 7060   4.298   5.352   0.706 -0.7851  0.9406 -0.8114
   17CHTO   H78 7061   4.288   5.450   0.853 -0.2245  0.5852 -0.9741
   17CHTO   C51 7062   4.554   5.570   0.736  0.0593 -0.3670 -0.0527
   17CHTO   H93 7063   4.567   5.555   0.843  0.1941  2.1459  0.3205
   17CHTO   O30 7064   4.606   5.695   0.693  0.0366  0.3668 -0.1996
   17CHTO   C46 7065   4.516   5.830   0.723 -0.3388  0.7490 -0.2399
   17CHTO   H88 7066   4.526   5.849   0.830  0.5143 -0.7286 -0.0432
   17CHTO   C53 7067   4.580   5.946   0.643  0.6675  0.0989 -0.1971
   17CHTO   O72 7068   4.721   5.948   0.637 -0.2435  0.5935  0.5219
   17CHTO  H199 7069   4.759   5.972   0.719  0.7202  0.2692  0.1776
   17CHTO   O22 7070   4.635   5.477   0.667 -0.5559  0.0898  0.0745
   17CHTO   C31 7071   4.691   5.490   0.526 -0.2501 -0.4164 -0.5869
   17CHTO   H59 7072   4.714   5.386   0.497  3.8232  0.3492 -0.3618
   17CHTO   C29 7073   4.588   5.540   0.422 -0.7329  0.1235 -0.0932
   17CHTO   H57 7074   4.537   5.627   0.465  0.5709  0.9801 -0.2417
   17CHTO   O21 7075   4.490   5.437   0.408  0.4096 -0.1126 -0.1574
   17CHTO   H37 7076   4.444   5.439   0.490 -0.6222  1.0418 -0.7327
   17CHTO   C27 7077   4.660   5.581   0.288 -0.4243 -0.5002 -0.4240
   17CHTO   H55 7078   4.705   5.493   0.239  0.7019 -0.2144  0.0858
   17CHTO    N5 7079   4.563   5.639   0.197  0.2150  0.3850  0.0511
   17CHTO   H43 7080   4.587   5.733   0.149 -1.0073  0.5499 -0.2473
   17CHTO   H44 7081   4.462   5.604   0.212  0.7213 -2.0630 -2.0057
   17CHTO   C25 7082   4.774   5.679   0.322 -0.1630  0.2509 -0.7154
   17CHTO   H53 7083   4.729   5.761   0.380 -1.8123 -0.0806 -1.4931
   17CHTO   O17 7084   4.873   5.606   0.404  0.5816  0.1489 -0.3127
   17CHTO   C32 7085   4.826   5.571   0.534  0.3878  0.0111 -0.1560
   17CHTO   H60 7086   4.813   5.658   0.598 -0.2466 -0.4673  0.3704
   17CHTO   C36 7087   4.939   5.480   0.581  0.4842  0.3857  0.3300
   17CHTO   O25 7088   5.064   5.546   0.600 -0.4026  0.2914  0.3085
   17CHTO   H40 7089   5.101   5.525   0.683  0.2932  0.2667  0.0019
   17CHTO   O15 7090   4.855   5.748   0.199  0.2189 -0.1422 -0.1774
   17CHTO   C19 7091   4.890   5.892   0.215 -0.1999  1.1128  0.3446
   17CHTO   H47 7092   4.941   5.922   0.123 -0.4000  2.4288  0.6478
   17CHTO   C20 7093   4.763   5.984   0.235  0.4686  0.2023  0.4926
   17CHTO   H48 7094   4.701   5.950   0.320  0.4886  0.0073  0.4304
   17CHTO   O19 7095   4.680   5.969   0.120 -0.0752 -0.1088  0.2227
   17CHTO   H35 7096   4.650   5.881   0.104  3.2095 -1.6592  2.1240
   17CHTO   C21 7097   4.800   6.135   0.265 -0.3153 -0.3962  1.0168
   17CHTO   H49 7098   4.859   6.171   0.181  2.0617 -3.0652  1.4504
   17CHTO    N4 7099   4.686   6.235   0.276 -0.1179 -0.2084  0.3115
   17CHTO   H41 7100   4.588   6.192   0.294 -0.0694  0.3739  2.0227
   17CHTO   H42 7101   4.709   6.310   0.350  0.3453 -0.1560  0.1190
   17CHTO   C22 7102   4.901   6.146   0.379  0.3396 -0.5356 -0.5982
   17CHTO   H50 7103   4.852   6.119   0.472  2.4431 -1.1189  0.3696
   17CHTO   O14 7104   5.012   6.063   0.354 -0.3876 -0.4098  0.2525
   17CHTO   C23 7105   4.993   5.922   0.331 -0.1436  0.6093  0.3915
   17CHTO   H51 7106   4.955   5.877   0.424 -1.2111 -1.6393 -1.0885
   17CHTO   C34 7107   5.128   5.848   0.299  0.4894  0.4335  0.2692
   17CHTO   O23 7108   5.216   5.859   0.410 -0.0860 -0.3399 -0.5545
   17CHTO   H38 7109   5.171   5.840   0.490  0.5339  0.4232 -0.0194
   17CHTO   O16 7110   4.960   6.282   0.371 -0.5611  0.1830 -0.4445
   17CHTO   C24 7111   5.031   6.337   0.497  0.2936 -0.5406 -0.1998
   17CHTO   H52 7112   5.068   6.255   0.558  2.8308  1.0395  0.4633
   17CHTO   C26 7113   4.923   6.424   0.564 -0.3040 -0.6186 -0.6595
   17CHTO   H54 7114   4.880   6.492   0.488  1.7596  0.6861 -0.6892
   17CHTO   O20 7115   4.827   6.332   0.626  0.3210  0.1550 -0.1850
   17CHTO   H36 7116   4.751   6.378   0.654  0.4228  0.1880  0.0343
   17CHTO   C30 7117   4.979   6.524   0.676 -0.0161 -0.2145  0.3100
   17CHTO   H58 7118   5.032   6.472   0.758  3.7765  0.0327 -1.8714
   17CHTO    N6 7119   4.881   6.616   0.732 -0.3530 -0.0419 -0.5156
   17CHTO   H45 7120   4.824   6.567   0.810  0.0757 -2.4728 -1.7085
   17CHTO   H46 7121   4.810   6.656   0.661  0.0517  1.3351 -0.1570
   17CHTO   C33 7122   5.095   6.603   0.610  0.4299 -0.4571  0.1064
   17CHTO   H61 7123   5.058   6.655   0.521  1.7670 -0.0996 -0.2454
   17CHTO   O18 7124   5.191   6.503   0.573 -0.2350 -0.8670 -0.5433
   17CHTO   C28 7125   5.152   6.427   0.457 -0.6247 -0.0873  0.0550
   17CHTO   H56 7126   5.117   6.493   0.377 -0.3190  1.5222  1.2331
   17CHTO   C35 7127   5.267   6.339   0.431 -0.0922 -0.0651  0.2806
   17CHTO   O24 7128   5.282   6.276   0.304 -0.2845  0.4296 -0.0145
   17CHTO   H39 7129   5.275   6.342   0.237 -1.2513 -1.7266 -2.1204
   17CHTO    O9 7130   5.150   6.706   0.696  0.1601 -0.9679 -0.0242
   17CHTO   C13 7131   5.244   6.814   0.620  1.3404  0.1516 -0.2901
   17CHTO   H26 7132   5.278   6.763   0.527 -2.0681 -0.8489 -1.0651
   17CHTO   C11 7133   5.366   6.856   0.714  0.0632 -0.0865 -0.2205
   17CHTO   H24 7134   5.421   6.765   0.742  0.3661 -0.6919 -2.7425
   17CHTO    O8 7135   5.316   6.910   0.838  0.2371  0.0044 -0.0800
   17CHTO    H3 7136   5.386   6.951   0.886  0.0608 -0.0594  0.2368
   17CHTO    C9 7137   5.457   6.953   0.639  0.1462  0.4843 -0.7091
   17CHTO   H22 7138   5.478   6.892   0.549 -0.9306 -0.2412 -0.4776
   17CHTO    N2 7139   5.584   6.975   0.713  0.1318 -0.0225  0.7702
   17CHTO   H10 7140   5.579   7.022   0.810  4.4422  0.2345  0.9691
   17CHTO   H11 7141   5.659   7.030   0.657  0.1752 -0.1569  0.6954
   17CHTO    C7 7142   5.370   7.081   0.601 -0.3297 -0.1427 -0.1360
   17CHTO   H20 7143   5.435   7.140   0.534 -0.1539 -0.4728 -0.2582
   17CHTO    O4 7144   5.247   7.052   0.528 -0.1143 -0.3786  0.1046
   17CHTO   C14 7145   5.165   6.940   0.559  0.5072  0.4853 -0.0325
   17CHTO   H27 7146   5.126   6.913   0.459  1.2101 -0.0789 -0.1577
   17CHTO   C18 7147   5.044   6.991   0.644 -0.1990 -0.0325  0.1742
   17CHTO   O13 7148   4.943   7.074   0.588 -0.1910  0.5603  0.3470
   17CHTO    H7 7149   4.911   7.133   0.653  2.8903 -1.0345  3.4804
   17CHTO    O2 7150   5.340   7.184   0.726  0.1437 -0.3296 -0.2210
   17CHTO    C1 7151   5.280   7.316   0.707  0.4114  0.7489 -0.0542
   17CHTO   H14 7152   5.194   7.300   0.640  1.4785 -2.7633 -0.6835
   17CHTO    C2 7153   5.382   7.425   0.645  0.3835 -0.1412  0.1653
   17CHTO   H15 7154   5.481   7.406   0.688  1.1051  2.5621 -0.2073
   17CHTO    O6 7155   5.393   7.408   0.503 -0.2288 -0.4958  0.4239
   17CHTO    H1 7156   5.308   7.421   0.465  0.2450 -2.8762 -1.6121
   17CHTO    C3 7157   5.333   7.578   0.684  0.2772 -0.3796 -0.2481
   17CHTO   H16 7158   5.249   7.616   0.625 -1.1598 -2.0775  0.6544
   17CHTO    N1 7159   5.459   7.666   0.651  0.3469  0.2927  0.2547
   17CHTO    H8 7160   5.546   7.622   0.698 -1.4942 -1.4507  2.1385
   17CHTO    H9 7161   5.473   7.667   0.544  0.4169 -2.4259  0.1909
   17CHTO    C4 7162   5.289   7.590   0.834  0.1321  0.5229 -0.1533
   17CHTO   H17 7163   5.368   7.566   0.905 -0.0100  1.2218  0.2487
   17CHTO    O1 7164   5.183   7.493   0.850  0.1447 -0.2871  0.1296
   17CHTO    C5 7165   5.233   7.360   0.851  0.1260  0.4873 -0.7471
   17CHTO   H18 7166   5.309   7.352   0.928 -2.5890 -0.9891  1.8820
   17CHTO   C16 7167   5.116   7.275   0.893  0.3736 -0.0563  0.1001
   17CHTO   O11 7168   5.133   7.138   0.940  0.0687  0.5600  0.5681
   17CHTO    H5 7169   5.057   7.083   0.939  0.4481  0.0267 -0.5539
   17CHTO    O3 7170   5.221   7.715   0.853 -0.4106 -0.3509 -0.1784
   17CHTO    C6 7171   5.186   7.764   0.985  0.2574  0.2559  0.2062
   17CHTO   H19 7172   5.096   7.825   0.980  0.1703  0.2894  1.8319
   17CHTO    C8 7173   5.162   7.651   1.100 -0.3164 -0.4073  0.7312
   17CHTO   H21 7174   5.251   7.588   1.099  0.9386  1.2862 -2.1809
   17CHTO    O7 7175   5.047   7.573   1.063 -0.3441  0.0675 -0.0950
   17CHTO    H2 7176   4.968   7.621   1.080 -0.1801 -0.4877  2.4367
   17CHTO   C12 7177   5.136   7.731   1.242 -0.5621 -0.1614  0.3789
   17CHTO   H25 7178   5.038   7.782   1.242  0.2650  1.4479  1.8403
   17CHTO    N3 7179   5.128   7.627   1.348 -0.5555 -0.5264  1.2979
   17CHTO   H12 7180   5.049   7.658   1.416 -0.9657  0.1578  0.5272
   17CHTO   H13 7181   5.223   7.622   1.397  0.6109  2.7596 -0.4175
   17CHTO   C15 7182   5.244   7.840   1.260 -0.0057 -0.5798  0.4303
   17CHTO   H28 7183   5.340   7.790   1.278  0.0180 -0.7355 -0.1297
   17CHTO   O10 7184   5.220   7.921   1.362 -0.0095 -0.3934  0.1259
   17CHTO    H4 7185   5.302   7.955   1.393 -0.4618  0.6822  0.1550
   17CHTO    O5 7186   5.259   7.926   1.147  0.0242  0.2294 -0.1539
   17CHTO   C10 7187   5.299   7.862   1.026 -0.1893  0.1799 -0.2266
   17CHTO   H23 7188   5.394   7.819   1.060 -0.0960  1.8533  1.6967
   17CHTO   C17 7189   5.332   7.971   0.925  0.3128 -0.4665  0.6013
   17CHTO   O12 7190   5.454   8.048   0.940 -0.0586 -0.7745  0.1827
   17CHTO    H6 7191   5.470   8.084   0.855  2.5367 -1.9444  0.1199
   18CHTO  H203 7192   6.512   7.843   1.815 -0.1554 -1.8142 -2.0675
   18CHTO   O82 7193   6.495   7.919   1.764 -0.2756 -0.7129 -0.4344
   18CHTO  C123 7194   6.438   7.876   1.636  0.1900  0.6579 -0.0439
   18CHTO  H227 7195   6.329   7.869   1.650  0.3561  1.9029  1.9919
   18CHTO   O77 7196   6.469   7.996   1.547  0.4566 -0.4145  0.6965
   18CHTO  C118 7197   6.437   7.982   1.407 -0.0272 -0.9947 -0.8817
   18CHTO  H222 7198   6.328   7.967   1.406  0.0894 -2.0539  0.5649
   18CHTO  C125 7199   6.473   8.115   1.321 -0.0404  0.0484 -0.1872
   18CHTO   O84 7200   6.595   8.182   1.358  0.1766 -0.3854 -0.2331
   18CHTO  H205 7201   6.662   8.120   1.380 -1.3781 -1.9109  0.2401
   18CHTO  C114 7202   6.509   7.858   1.349 -0.4363  0.5207  0.3764
   18CHTO  H218 7203   6.616   7.868   1.364  0.1614 -2.0116 -1.7704
   18CHTO  C116 7204   6.462   7.732   1.425 -0.1249  0.0727 -0.1999
   18CHTO  H220 7205   6.355   7.710   1.407 -0.3342  0.0658  1.0035
   18CHTO   O79 7206   6.535   7.613   1.374  0.2591  0.6376  0.4536
   18CHTO  H201 7207   6.478   7.558   1.323  1.5538  0.0829 -0.4302
   18CHTO  C120 7208   6.496   7.743   1.578 -0.2102  0.6344  0.1435
   18CHTO  H224 7209   6.606   7.749   1.590  0.1479 -0.7883 -2.1540
   18CHTO   N21 7210   6.455   7.623   1.655  0.1812  0.0759  0.1613
   18CHTO  H211 7211   6.516   7.605   1.743 -0.8925 -0.2234  0.8519
   18CHTO  H212 7212   6.460   7.534   1.595  1.0232  0.8289 -0.9243
   18CHTO   O75 7213   6.477   7.857   1.208 -0.4901  0.0838  0.1863
   18CHTO  C112 7214   6.611   7.829   1.118  0.1866 -0.0821 -0.1095
   18CHTO  H216 7215   6.674   7.753   1.166 -0.4849 -1.4116 -1.3128
   18CHTO   O73 7216   6.677   7.957   1.102 -0.0324  0.0767 -0.1880
   18CHTO  C113 7217   6.795   7.963   1.018 -0.1826 -0.4866  0.0221
   18CHTO  H217 7218   6.878   7.901   1.057  0.3004  0.6579  0.8464
   18CHTO  C124 7219   6.835   8.111   1.030  0.3813 -0.3063 -0.4051
   18CHTO   O83 7220   6.854   8.156   1.168 -0.4811  0.3338  0.1129
   18CHTO  H204 7221   6.890   8.242   1.175  0.4254 -0.1149  1.2727
   18CHTO  C109 7222   6.760   7.915   0.874 -0.1325  0.1957 -0.0701
   18CHTO  H213 7223   6.685   7.985   0.832 -0.5170 -0.3342 -0.2830
   18CHTO  C110 7224   6.700   7.766   0.886  0.7381 -0.0173 -0.6956
   18CHTO  H214 7225   6.769   7.697   0.932  0.5889  0.6340  0.5264
   18CHTO   O78 7226   6.661   7.720   0.755 -0.1397 -0.0216  0.5995
   18CHTO  H200 7227   6.738   7.706   0.704  0.8257  0.5222  1.8629
   18CHTO  C111 7228   6.566   7.770   0.978  0.1483 -0.1005  0.0706
   18CHTO  H215 7229   6.486   7.827   0.928 -0.6028 -0.7795  0.4839
   18CHTO   N19 7230   6.508   7.633   0.997 -0.7490 -0.0148  0.4848
   18CHTO  H207 7231   6.478   7.598   0.899  0.3263 -3.8608  1.4333
   18CHTO  H208 7232   6.429   7.637   1.072 -0.7669 -0.2030  0.4748
   18CHTO   O74 7233   6.881   7.917   0.788 -0.2928  0.3124  0.0924
   18CHTO  C115 7234   6.847   7.940   0.619 -0.1900 -0.0345  0.1729
   18CHTO  H219 7235   6.814   7.845   0.575 -1.2996  0.1298  0.6257
   18CHTO   O76 7236   6.719   8.054   0.589 -0.6936 -0.2057  0.7653
   18CHTO  C122 7237   6.768   8.184   0.574  0.0969 -0.0939  0.5024
   18CHTO  H226 7238   6.825   8.208   0.664 -0.4572 -1.2226  1.1636
   18CHTO  C126 7239   6.659   8.294   0.567  0.1021  0.3939 -0.0471
   18CHTO   O85 7240   6.569   8.282   0.454 -0.2081  0.3174 -0.1965
   18CHTO  H206 7241   6.534   8.195   0.457  1.2994 -0.2808  0.4412
   18CHTO  C121 7242   6.861   8.181   0.440  0.0564  0.1080 -0.3357
   18CHTO  H225 7243   6.806   8.213   0.349 -0.3862 -1.6365 -0.6952
   18CHTO   O81 7244   6.960   8.272   0.464 -0.4766 -0.6490 -0.0374
   18CHTO  H202 7245   7.016   8.243   0.533 -0.1576 -0.4957 -0.2283
   18CHTO  C119 7246   6.938   8.046   0.408  0.0095 -0.0450  0.1016
   18CHTO  H223 7247   6.873   7.976   0.355 -1.9423  2.3071 -0.7226
   18CHTO  C117 7248   6.978   7.975   0.542  0.2679 -0.4108 -0.1407
   18CHTO  H221 7249   7.035   8.037   0.612  1.7946  0.6821 -2.3169
   18CHTO   N20 7250   7.058   7.850   0.523  0.5667 -0.4186  0.0813
   18CHTO  H209 7251   7.098   7.808   0.614 -0.2594 -0.9436  0.2186
   18CHTO  H210 7252   7.125   7.868   0.440 -1.2703  1.2857 -1.0780
   18CHTO   O80 7253   7.062   8.066   0.302  0.1172  0.4100 -0.2013
   18CHTO  C103 7254   7.047   8.014   0.145 -0.1931 -0.3946 -0.0356
   18CHTO  H190 7255   7.139   8.039   0.092  0.3112  1.7142  1.7326
   18CHTO  C101 7256   7.017   7.857   0.119  0.3734  0.5534  0.2692
   18CHTO  H188 7257   6.944   7.814   0.188 -0.0988 -0.7054 -0.9834
   18CHTO   O68 7258   7.139   7.784   0.128  0.8086 -0.0978 -0.2429
   18CHTO  H168 7259   7.207   7.848   0.125  1.3156 -0.5894  0.6955
   18CHTO   C99 7260   6.961   7.830  -0.033 -0.0029 -0.1076 -1.0001
   18CHTO  H186 7261   7.041   7.859  -0.105 -1.6108  1.6645 -2.1333
   18CHTO   N17 7262   6.916   7.683  -0.063  0.3319 -0.5591 -0.6280
   18CHTO  H174 7263   6.812   7.687  -0.092 -0.2186  0.4805  1.3769
   18CHTO  H175 7264   6.927   7.631   0.031 -1.8604  0.1146  0.0432
   18CHTO   C97 7265   6.846   7.929  -0.059 -0.1827  0.6063 -0.5074
   18CHTO  H184 7266   6.771   7.910   0.019  1.7568  2.4352  1.9089
   18CHTO   O64 7267   6.901   8.059  -0.043  0.2611 -0.4167 -0.0282
   18CHTO  C104 7268   6.933   8.097   0.087  0.0885  0.2997 -0.3904
   18CHTO  H191 7269   6.844   8.083   0.148  0.1618  0.4693 -0.2431
   18CHTO  C108 7270   6.959   8.248   0.106  0.0538  0.1015  0.2569
   18CHTO   O71 7271   6.847   8.327   0.078  0.8527 -0.3193 -0.1308
   18CHTO  H171 7272   6.875   8.399   0.025  0.4614  0.6800  0.9817
   18CHTO   O62 7273   6.801   7.934  -0.197 -0.1405 -0.0798 -0.1398
   18CHTO   C91 7274   6.665   7.968  -0.222 -0.2666 -0.3103 -0.5996
   18CHTO  H178 7275   6.624   8.005  -0.128  0.6822  0.6011 -0.5434
   18CHTO   C92 7276   6.590   7.843  -0.264  0.0876  0.1250  0.0431
   18CHTO  H179 7277   6.623   7.821  -0.367  0.9638  1.0700  0.1042
   18CHTO   O66 7278   6.621   7.736  -0.173  0.3616 -0.6084 -0.4784
   18CHTO  H166 7279   6.712   7.713  -0.181  0.0572 -2.4955  0.8186
   18CHTO   C93 7280   6.438   7.869  -0.263 -0.4895  0.1674 -0.2257
   18CHTO  H180 7281   6.409   7.884  -0.158 -1.4067 -1.2305 -0.2685
   18CHTO   N16 7282   6.367   7.752  -0.318  0.3969 -0.2055 -0.3713
   18CHTO  H172 7283   6.406   7.728  -0.416 -0.3500  0.0375 -0.7291
   18CHTO  H173 7284   6.375   7.668  -0.251  0.0199 -1.0206 -1.3304
   18CHTO   C94 7285   6.403   7.994  -0.345 -0.2431 -0.3677  0.2085
   18CHTO  H181 7286   6.406   7.976  -0.452  0.4311  2.2525 -0.2326
   18CHTO   O61 7287   6.497   8.103  -0.315  0.0445  0.1222 -0.2836
   18CHTO   C95 7288   6.637   8.077  -0.325  0.1297 -0.2236  0.1418
   18CHTO  H182 7289   6.665   8.042  -0.424 -0.2084  1.0619 -0.4208
   18CHTO  C106 7290   6.717   8.218  -0.288 -0.0956 -0.5863 -0.0799
   18CHTO   O69 7291   6.718   8.322  -0.390  0.2866  0.6028 -0.2690
   18CHTO  H169 7292   6.769   8.289  -0.461 -0.0349  0.9368 -0.6651
   18CHTO   O63 7293   6.261   8.047  -0.308 -1.0475 -0.0964 -0.7799
   18CHTO   C96 7294   6.232   8.195  -0.351  0.0937  0.6946 -0.4060
   18CHTO  H183 7295   6.297   8.224  -0.433 -0.1894  2.2853 -0.0785
   18CHTO   C98 7296   6.245   8.302  -0.227  1.0268  0.5018 -0.0441
   18CHTO  H185 7297   6.190   8.266  -0.138  0.5317 -1.8439 -1.2728
   18CHTO   O67 7298   6.384   8.305  -0.189  0.8273 -0.0939 -0.6175
   18CHTO  H167 7299   6.392   8.341  -0.103 -0.1391  3.3020 -1.8614
   18CHTO  C102 7300   6.186   8.445  -0.263  0.1068  0.4816  0.6084
   18CHTO  H189 7301   6.257   8.490  -0.334  1.7218 -0.6885  1.4419
   18CHTO   N18 7302   6.178   8.540  -0.151 -0.0323 -0.5828 -0.2483
   18CHTO  H176 7303   6.241   8.627  -0.155 -0.8400  0.0510  0.5102
   18CHTO  H177 7304   6.079   8.575  -0.127 -0.5179 -0.4282 -2.4031
   18CHTO  C105 7305   6.048   8.431  -0.331  0.1025 -0.2922  0.0341
   18CHTO  H192 7306   5.979   8.390  -0.258  1.9235  0.1634  2.0799
   18CHTO   O65 7307   6.056   8.339  -0.439 -0.2295  0.3204 -0.3918
   18CHTO  C100 7308   6.082   8.204  -0.399 -0.0673  0.0330 -0.6841
   18CHTO  H187 7309   6.018   8.167  -0.318  1.1882  1.2999  0.8975
   18CHTO  C107 7310   6.065   8.112  -0.524 -0.1069 -0.2143  0.8629
   18CHTO   O70 7311   5.937   8.118  -0.589  1.0968 -0.3719  0.1554
   18CHTO  H170 7312   5.884   8.047  -0.557 -0.7630  0.6482 -0.5740
   18CHTO   O57 7313   5.984   8.591  -0.374  0.0578 -0.7275  0.5758
   18CHTO   C85 7314   5.859   8.622  -0.441 -0.1277 -0.2210 -0.4052
   18CHTO  H157 7315   5.861   8.732  -0.460 -0.0253 -0.2433 -0.5235
   18CHTO   C83 7316   5.736   8.608  -0.338 -0.2551  0.7825  0.0531
   18CHTO  H155 7317   5.767   8.657  -0.246 -0.0621  0.8438 -0.0435
   18CHTO   O56 7318   5.721   8.474  -0.296 -0.6605  0.0334  0.0929
   18CHTO  H135 7319   5.674   8.429  -0.363  1.3429  0.1501 -1.4474
   18CHTO   C81 7320   5.612   8.676  -0.410 -0.4654 -0.3561  0.3961
   18CHTO  H153 7321   5.644   8.775  -0.441 -1.0933 -0.0178  0.8179
   18CHTO   N14 7322   5.514   8.695  -0.308  0.1098  0.3106  0.3521
   18CHTO  H141 7323   5.560   8.718  -0.214 -0.0546  1.5939  0.1352
   18CHTO  H142 7324   5.445   8.772  -0.336  0.3401  0.7158  0.8990
   18CHTO   C79 7325   5.569   8.587  -0.541  0.2531 -0.2164 -0.3798
   18CHTO  H151 7326   5.485   8.640  -0.587  0.2135 -1.7572 -2.1397
   18CHTO   O52 7327   5.686   8.569  -0.636  0.4071 -0.5859  0.4326
   18CHTO   C86 7328   5.818   8.541  -0.567 -0.9462  0.1267  0.4815
   18CHTO  H158 7329   5.808   8.432  -0.551 -1.9439  0.1754  0.2275
   18CHTO   C90 7330   5.928   8.562  -0.667  0.2072 -0.0417  0.1771
   18CHTO   O60 7331   5.928   8.690  -0.732  0.5481  0.1591  0.1129
   18CHTO  H138 7332   5.864   8.696  -0.800 -0.1448 -0.4059  0.6971
   18CHTO   O50 7333   5.510   8.463  -0.512 -0.1921 -0.1798  0.3798
   18CHTO   C73 7334   5.459   8.338  -0.562  0.2344 -0.6357 -0.1359
   18CHTO  H145 7335   5.510   8.309  -0.656  1.6615  2.8639 -0.5311
   18CHTO   C74 7336   5.311   8.368  -0.591 -0.0707  0.0072 -0.3553
   18CHTO  H146 7337   5.310   8.444  -0.671 -3.1204  0.4853  0.0753
   18CHTO   O54 7338   5.250   8.249  -0.649 -0.4809 -0.1887 -0.5807
   18CHTO  H133 7339   5.192   8.211  -0.586 -0.5960 -0.1578 -0.6689
   18CHTO   C75 7340   5.242   8.423  -0.461  0.3926  0.3829  0.0220
   18CHTO  H147 7341   5.288   8.522  -0.445 -0.8050  0.9459  0.0552
   18CHTO   N13 7342   5.095   8.449  -0.466  0.3242  0.1085 -0.0671
   18CHTO  H139 7343   5.052   8.444  -0.565 -0.0925 -2.4172  0.1940
   18CHTO  H140 7344   5.064   8.547  -0.434  0.6317 -0.1105  0.9319
   18CHTO   C76 7345   5.277   8.331  -0.334 -0.0522 -0.0163 -0.7189
   18CHTO  H148 7346   5.207   8.248  -0.333 -0.9461  0.7218 -1.0888
   18CHTO   O49 7347   5.419   8.277  -0.331 -0.0027  0.1623  0.3980
   18CHTO   C77 7348   5.476   8.229  -0.455  0.6332 -0.4386  0.2757
   18CHTO  H149 7349   5.439   8.132  -0.488 -0.0030 -0.6927  1.7070
   18CHTO   C88 7350   5.628   8.217  -0.437  0.1552 -0.0707 -0.3544
   18CHTO   O58 7351   5.679   8.121  -0.336  0.5615  0.2512  0.2285
   18CHTO  H136 7352   5.766   8.094  -0.358  0.6932  0.6277  0.2953
   18CHTO   O51 7353   5.277   8.428  -0.187  0.0129 -0.4379  0.1410
   18CHTO   C78 7354   5.280   8.347  -0.052 -0.1685 -0.4906  0.2883
   18CHTO  H150 7355   5.274   8.238  -0.067  0.1832 -0.3851 -0.6533
   18CHTO   C80 7356   5.158   8.395   0.031  0.2455  0.4233  0.5576
   18CHTO  H152 7357   5.157   8.506   0.025  0.5001  0.4036  0.1493
   18CHTO   O55 7358   5.038   8.359  -0.040  0.2475  0.0811 -0.2823
   18CHTO  H134 7359   4.968   8.362   0.023  1.0397 -1.8180  0.7132
   18CHTO   C84 7360   5.167   8.340   0.178 -0.2931  0.3934 -0.9216
   18CHTO  H156 7361   5.151   8.233   0.174 -1.0827  0.4901 -0.5383
   18CHTO   N15 7362   5.056   8.389   0.272  0.4152 -0.8883  0.4913
   18CHTO  H143 7363   5.001   8.466   0.221 -0.0892 -1.3572  0.3297
   18CHTO  H144 7364   4.984   8.314   0.298 -0.0633 -0.0050  1.8282
   18CHTO   C87 7365   5.305   8.372   0.242 -0.1874  0.2762  0.6489
   18CHTO  H159 7366   5.305   8.481   0.247 -0.9193  0.2368  1.7754
   18CHTO   O53 7367   5.411   8.328   0.160  0.2802  0.1736  0.4300
   18CHTO   C82 7368   5.412   8.378   0.028 -0.3390 -0.3610 -0.4850
   18CHTO  H154 7369   5.430   8.485   0.036 -0.2250 -0.3294 -1.1292
   18CHTO   C89 7370   5.538   8.315  -0.042  0.8051  0.1008 -0.2129
   18CHTO   O59 7371   5.545   8.173  -0.037 -0.5442 -0.0839 -0.0165
   18CHTO  H137 7372   5.531   8.128   0.044 -0.3046 -3.2918 -1.6594
   18CHTO   O45 7373   5.319   8.291   0.387  0.3399 -0.3759  0.5375
   18CHTO   C67 7374   5.444   8.329   0.455  0.2692 -0.0204  0.1791
   18CHTO  H124 7375   5.522   8.323   0.379 -0.6687 -1.1423 -0.7085
   18CHTO   C65 7376   5.438   8.479   0.507  0.0223 -0.2134  0.1012
   18CHTO  H122 7377   5.334   8.504   0.530  0.7456  0.4402  2.8618
   18CHTO   O44 7378   5.486   8.560   0.405  0.0562  0.0927 -0.4917
   18CHTO  H102 7379   5.492   8.644   0.445 -0.9050 -0.6062  1.1975
   18CHTO   C63 7380   5.499   8.496   0.650  0.0832 -0.3769  0.2689
   18CHTO  H120 7381   5.427   8.458   0.723 -1.6773 -0.2694 -1.3935
   18CHTO   N11 7382   5.516   8.636   0.701  0.0798 -0.2356  0.5914
   18CHTO  H108 7383   5.613   8.679   0.683 -1.7077  4.0419  0.4565
   18CHTO  H109 7384   5.455   8.717   0.668  2.7840  1.2983 -0.8775
   18CHTO   C61 7385   5.627   8.410   0.661 -0.2335  0.2180 -0.3905
   18CHTO  H118 7386   5.660   8.422   0.765 -0.7301 -0.6012 -0.1305
   18CHTO   O40 7387   5.608   8.269   0.640 -0.0123  0.0667  0.2600
   18CHTO   C68 7388   5.482   8.228   0.570 -0.4871  0.1673  0.4236
   18CHTO  H125 7389   5.395   8.233   0.638 -2.2867 -1.0834 -1.7049
   18CHTO   C72 7390   5.497   8.080   0.524 -0.5311 -0.3448 -0.2547
   18CHTO   O48 7391   5.374   8.021   0.481  0.4316  0.2827 -0.8664
   18CHTO  H105 7392   5.391   7.937   0.443  0.1598 -0.1229 -0.1211
   18CHTO   O38 7393   5.736   8.450   0.581  0.2564  0.0932  0.2672
   18CHTO   C55 7394   5.869   8.393   0.590 -0.3575 -0.4670 -0.3629
   18CHTO  H112 7395   5.876   8.293   0.636  2.7729 -0.6091 -1.0011
   18CHTO   C56 7396   5.959   8.497   0.669  0.1616 -0.2456  0.5159
   18CHTO  H113 7397   5.954   8.588   0.609 -1.9078 -0.0762  0.8809
   18CHTO   O42 7398   5.906   8.523   0.799 -0.2923  0.7026  0.2998
   18CHTO  H100 7399   5.926   8.451   0.855  0.6691 -0.7618 -1.8203
   18CHTO   C57 7400   6.106   8.451   0.682  0.0773  0.2209  0.5045
   18CHTO  H114 7401   6.098   8.374   0.758  1.7020 -0.9913 -0.5245
   18CHTO   N10 7402   6.199   8.553   0.723 -0.0253 -0.0955 -0.0577
   18CHTO  H106 7403   6.186   8.576   0.828  1.7279 -0.1003  0.1726
   18CHTO  H107 7404   6.185   8.640   0.661  1.4287  1.2346  1.4760
   18CHTO   C58 7405   6.157   8.390   0.548  0.4446  0.1373 -0.1101
   18CHTO  H115 7406   6.181   8.472   0.477 -0.2378  0.7967  0.4030
   18CHTO   O37 7407   6.058   8.311   0.476 -0.1113  0.0651 -0.1220
   18CHTO   C59 7408   5.931   8.373   0.449 -0.2085  0.2880 -0.2023
   18CHTO  H116 7409   5.951   8.465   0.393  3.3280 -0.8658 -0.9618
   18CHTO   C70 7410   5.841   8.284   0.366 -0.7444  0.5050 -0.4439
   18CHTO   O46 7411   5.903   8.232   0.244  0.6855 -0.2460  0.2405
   18CHTO  H103 7412   5.836   8.196   0.188 -0.0208  0.6764  0.4773
   18CHTO   O39 7413   6.289   8.294   0.585  1.1730 -0.5101 -0.0468
   18CHTO   C60 7414   6.257   8.175   0.663  0.2609 -0.3528  0.6368
   18CHTO  H117 7415   6.165   8.178   0.721 -0.0436  1.4988  0.0930
   18CHTO   C62 7416   6.240   8.061   0.562  0.0961 -0.6749  0.1641
   18CHTO  H119 7417   6.170   8.103   0.487  0.1260  1.3243  1.2350
   18CHTO   O43 7418   6.364   8.036   0.489  0.3489  0.0906  0.2284
   18CHTO  H101 7419   6.359   8.075   0.404  0.0738  3.8369  1.8499
   18CHTO   C66 7420   6.176   7.931   0.632 -0.0917 -0.2018 -0.4780
   18CHTO  H123 7421   6.071   7.950   0.649 -0.2706  0.2602 -2.0148
   18CHTO   N12 7422   6.164   7.820   0.537  0.2308  0.1007  0.3099
   18CHTO  H110 7423   6.115   7.862   0.451  1.5246  1.3084  0.1319
   18CHTO  H111 7424   6.120   7.737   0.590 -0.6368  0.4884  0.1855
   18CHTO   C69 7425   6.261   7.900   0.759  0.1928 -0.0964 -0.0976
   18CHTO  H126 7426   6.356   7.846   0.737  0.4521  0.5869 -0.6742
   18CHTO   O41 7427   6.312   8.022   0.834  0.1753 -0.1272  0.1550
   18CHTO   C64 7428   6.370   8.130   0.761 -0.5102  0.6066  0.0765
   18CHTO  H121 7429   6.463   8.094   0.711 -1.3970 -0.1839 -1.0162
   18CHTO   C71 7430   6.407   8.242   0.859 -0.3866 -0.4232 -0.0913
   18CHTO   O47 7431   6.508   8.191   0.952  0.0979 -0.0786  0.9138
   18CHTO  H104 7432   6.465   8.149   1.024  1.6672 -1.3622  1.1328
   18CHTO   O34 7433   6.180   7.806   0.870  0.3650  0.1678 -0.4616
   18CHTO   C49 7434   6.115   7.790   0.971 -0.0744  0.0379  0.0326
   18CHTO   H91 7435   6.109   7.682   0.982 -0.3006  0.1038  0.5581
   18CHTO   C47 7436   5.973   7.828   0.953  0.5348  0.2572  0.0850
   18CHTO   H89 7437   5.920   7.790   1.042  1.1624 -1.0601 -0.0743
   18CHTO   O33 7438   5.927   7.755   0.829 -0.0259 -0.1554  0.4786
   18CHTO   H70 7439   5.855   7.704   0.862 -0.1309  0.1244  0.6895
   18CHTO   C45 7440   5.956   7.989   0.932 -0.4962 -0.2400  0.2211
   18CHTO   H87 7441   6.022   8.014   0.847  0.0723 -2.1064  0.0762
   18CHTO    N8 7442   5.820   8.044   0.898 -0.1704  0.3164  0.0148
   18CHTO   H75 7443   5.797   8.112   0.980 -1.9072 -1.7467  1.3053
   18CHTO   H76 7444   5.739   7.975   0.881 -1.3171  1.5965  0.1672
   18CHTO   C43 7445   6.028   8.061   1.054  0.3071 -0.5782 -0.0359
   18CHTO   H85 7446   6.037   8.168   1.033  0.7937 -0.8250 -1.1436
   18CHTO   O29 7447   6.162   8.005   1.076  0.7331 -0.3172 -0.0682
   18CHTO   C50 7448   6.176   7.862   1.088  0.7675  0.1091 -0.4034
   18CHTO   H92 7449   6.284   7.841   1.087  0.5161 -1.2805  0.9104
   18CHTO   C54 7450   6.132   7.801   1.225  0.6798 -0.3590 -0.5484
   18CHTO   O36 7451   6.142   7.660   1.240 -0.3551  0.0517  0.8901
   18CHTO   H72 7452   6.059   7.629   1.271 -2.1173  4.5363  1.1130
   18CHTO   O27 7453   5.947   8.050   1.173 -0.3708 -0.1356  0.0807
   18CHTO   C37 7454   5.862   8.103   1.276  0.1884 -0.4064  0.1795
   18CHTO   H79 7455   5.883   8.047   1.368 -1.7476 -1.0093  0.2734
   18CHTO   C38 7456   5.908   8.257   1.304  0.1795  0.3082 -0.6484
   18CHTO   H80 7457   5.934   8.302   1.208  0.6708 -0.5114 -0.9029
   18CHTO   O31 7458   6.031   8.248   1.371 -0.6193  0.1887 -0.3813
   18CHTO   H68 7459   6.007   8.221   1.458 -1.2637  3.4004  0.5406
   18CHTO   C39 7460   5.796   8.342   1.381  0.9337  0.2217 -0.6415
   18CHTO   H81 7461   5.792   8.294   1.479 -0.0430 -0.8019 -1.1647
   18CHTO    N7 7462   5.837   8.487   1.385 -0.7684 -0.3436  0.0017
   18CHTO   H73 7463   5.838   8.527   1.284 -1.2358  0.4908  0.3224
   18CHTO   H74 7464   5.933   8.499   1.432 -0.3185  1.8797 -1.4405
   18CHTO   C40 7465   5.658   8.312   1.314 -0.2442  0.4701 -0.0775
   18CHTO   H82 7466   5.674   8.336   1.209  0.7198 -0.6594 -0.1930
   18CHTO   O26 7467   5.626   8.169   1.329 -0.7601 -0.1979  0.0646
   18CHTO   C41 7468   5.712   8.095   1.240  0.0567 -0.1100  0.1482
   18CHTO   H83 7469   5.688   8.119   1.136  3.0404 -0.0831 -0.5856
   18CHTO   C52 7470   5.662   7.947   1.262  0.3833 -0.1158  0.5453
   18CHTO   O35 7471   5.721   7.859   1.175 -0.4719 -0.1596  0.3612
   18CHTO   H71 7472   5.808   7.891   1.160 -0.6484  0.5108  0.7577
   18CHTO   O28 7473   5.548   8.386   1.356  0.0181 -0.1278  0.1164
   18CHTO   C42 7474   5.413   8.367   1.320 -0.0217  0.5369  0.0464
   18CHTO   H84 7475   5.376   8.469   1.327  1.3239  0.9833  0.7222
   18CHTO   C44 7476   5.324   8.276   1.414  0.7577 -0.4918 -0.3921
   18CHTO   H86 7477   5.348   8.173   1.387 -2.6138 -1.6549  0.8286
   18CHTO   O32 7478   5.360   8.298   1.552 -0.5616  0.0845  0.4165
   18CHTO   H69 7479   5.294   8.277   1.615 -1.1867  1.4258  0.2019
   18CHTO   C48 7480   5.170   8.296   1.380  0.0018 -0.5686  0.4299
   18CHTO   H90 7481   5.135   8.396   1.405  0.1412 -0.6005  0.7584
   18CHTO    N9 7482   5.084   8.200   1.465 -0.0112  0.5301 -0.5008
   18CHTO   H77 7483   5.109   8.211   1.570  0.6665 -1.5353 -0.4321
   18CHTO   H78 7484   4.980   8.228   1.456 -0.3596 -0.1190  1.2184
   18CHTO   C51 7485   5.148   8.274   1.226  0.4497 -0.5376 -0.0599
   18CHTO   H93 7486   5.149   8.167   1.206 -1.5810 -0.8697  1.5094
   18CHTO   O30 7487   5.243   8.348   1.149  0.9439 -0.4589  0.1301
   18CHTO   C46 7488   5.381   8.320   1.169 -0.1009  0.1247  0.1941
   18CHTO   H88 7489   5.395   8.212   1.167 -0.5540  0.0791 -1.2868
   18CHTO   C53 7490   5.461   8.383   1.056 -0.2027  0.3643  0.2396
   18CHTO   O72 7491   5.525   8.504   1.086 -0.6223  0.3833 -0.3373
   18CHTO  H199 7492   5.467   8.567   1.048  0.0132  0.7145 -0.7842
   18CHTO   O22 7493   5.018   8.333   1.199  0.4846 -0.8634  0.2035
   18CHTO   C31 7494   4.948   8.305   1.070  0.9812  0.5401  0.0887
   18CHTO   H59 7495   4.845   8.347   1.081  1.0603  1.0300 -0.9413
   18CHTO   C29 7496   5.016   8.380   0.953 -0.4474  0.5601  0.4543
   18CHTO   H57 7497   5.120   8.344   0.953 -0.3565  0.8194  0.4934
   18CHTO   O21 7498   5.011   8.524   0.987  0.4508  0.0858 -0.2181
   18CHTO   H37 7499   4.951   8.570   0.932  0.6118  1.4714  0.7411
   18CHTO   C27 7500   4.943   8.350   0.816  0.4535 -0.1102  1.0444
   18CHTO   H55 7501   4.841   8.390   0.824  0.4795 -0.2246  1.9918
   18CHTO    N5 7502   5.015   8.416   0.702  0.3539 -0.2386 -0.0018
   18CHTO   H43 7503   4.969   8.504   0.661 -2.9145 -0.8838  2.0742
   18CHTO   H44 7504   5.118   8.434   0.730 -0.1422  1.5434  0.6930
   18CHTO   C25 7505   4.933   8.190   0.810  0.3057  0.9833 -0.0126
   18CHTO   H53 7506   5.030   8.139   0.800 -1.3476 -2.1324 -0.7145
   18CHTO   O17 7507   4.865   8.131   0.917  0.0566  0.0814  0.0651
   18CHTO   C32 7508   4.936   8.155   1.037  0.0835 -0.2409 -0.4534
   18CHTO   H60 7509   5.037   8.118   1.027  0.3471  0.6263 -1.0134
   18CHTO   C36 7510   4.850   8.085   1.141  0.3717 -0.4586 -0.7488
   18CHTO   O25 7511   4.928   8.017   1.235 -0.2228  0.5235 -0.1087
   18CHTO   H40 7512   4.945   8.064   1.314 -1.0554  1.0728 -0.2525
   18CHTO   O15 7513   4.853   8.154   0.668  0.2516  0.0877 -0.7604
   18CHTO   C19 7514   4.845   8.056   0.554  0.0881 -0.3071 -0.2892
   18CHTO   H47 7515   4.773   7.977   0.581 -3.4771  3.1994  1.1008
   18CHTO   C20 7516   4.794   8.127   0.424  0.4679  0.2928 -0.2155
   18CHTO   H48 7517   4.850   8.220   0.406  3.0989 -1.1791  0.2488
   18CHTO   O19 7518   4.656   8.164   0.448  0.1117 -0.0028 -0.3283
   18CHTO   H35 7519   4.634   8.234   0.390  0.9435  0.5040 -0.0390
   18CHTO   C21 7520   4.816   8.041   0.292 -1.0176  0.1413 -0.0192
   18CHTO   H49 7521   4.740   7.963   0.295 -1.7500  0.8114 -0.8577
   18CHTO    N4 7522   4.785   8.123   0.175  0.0134 -0.0707 -0.5805
   18CHTO   H41 7523   4.685   8.162   0.186 -0.0615 -0.4645  0.1951
   18CHTO   H42 7524   4.785   8.065   0.084 -1.9543  0.2619 -0.8066
   18CHTO   C22 7525   4.962   7.983   0.293 -0.3251  0.2486  0.1600
   18CHTO   H50 7526   5.040   8.058   0.277  0.5437 -0.3436  1.4561
   18CHTO   O14 7527   5.002   7.921   0.413  0.3620 -0.1821  0.0136
   18CHTO   C23 7528   4.987   7.997   0.533 -0.0994 -0.2178  0.6342
   18CHTO   H51 7529   5.062   8.077   0.517  0.6257 -0.8405  0.9024
   18CHTO   C34 7530   5.048   7.912   0.639  0.2373 -0.0679  0.3294
   18CHTO   O23 7531   4.980   7.789   0.672  0.0926  0.5460 -0.1187
   18CHTO   H38 7532   4.916   7.811   0.736 -2.3774 -0.9966 -1.9448
   18CHTO   O16 7533   4.985   7.879   0.200 -0.0215 -0.5920  0.0596
   18CHTO   C24 7534   5.134   7.890   0.134  0.0945  0.5848  0.9025
   18CHTO   H52 7535   5.195   7.964   0.187 -0.9797  1.3129  1.1203
   18CHTO   C26 7536   5.125   7.930  -0.016 -0.1220  0.8123  0.1957
   18CHTO   H54 7537   5.068   7.850  -0.067  0.6479  1.4855 -1.7559
   18CHTO   O20 7538   5.047   8.046  -0.029 -0.4759 -0.1759 -0.2649
   18CHTO   H36 7539   4.966   8.043   0.017 -0.1261 -2.4049  0.2761
   18CHTO   C30 7540   5.266   7.942  -0.078 -0.4881 -0.4160  0.2599
   18CHTO   H58 7541   5.319   8.027  -0.031 -2.4726  0.6406  0.6349
   18CHTO    N6 7542   5.264   7.974  -0.227  0.7581  0.4773  0.2240
   18CHTO   H45 7543   5.167   7.997  -0.267 -0.9363  1.4632  4.5854
   18CHTO   H46 7544   5.301   7.884  -0.275 -1.4111 -0.7946  0.8564
   18CHTO   C33 7545   5.355   7.817  -0.041  0.5618 -0.1682 -0.4050
   18CHTO   H61 7546   5.322   7.732  -0.102  2.4100 -1.1081 -0.1069
   18CHTO   O18 7547   5.339   7.779   0.096 -0.1160 -0.4029 -0.0206
   18CHTO   C28 7548   5.208   7.755   0.149 -0.0988  0.2673 -0.3736
   18CHTO   H56 7549   5.165   7.676   0.087 -0.2223  0.1812 -0.1821
   18CHTO   C35 7550   5.222   7.716   0.305 -0.1833 -0.3733  0.2416
   18CHTO   O24 7551   5.317   7.616   0.315  0.0233 -0.9181 -0.0116
   18CHTO   H39 7552   5.297   7.561   0.388 -0.3090 -1.8752 -0.8090
   18CHTO    O9 7553   5.495   7.829  -0.076  0.2652  0.4298 -0.0006
   18CHTO   C13 7554   5.580   7.727  -0.149  0.3236 -0.2440 -0.0803
   18CHTO   H26 7555   5.522   7.701  -0.240  0.9069  3.8319 -1.7274
   18CHTO   C11 7556   5.615   7.602  -0.064 -0.0425 -0.1905  0.8347
   18CHTO   H24 7557   5.522   7.544  -0.062 -0.0458 -0.2714 -0.8380
   18CHTO    O8 7558   5.640   7.646   0.072 -0.6933 -0.1450 -0.3524
   18CHTO    H3 7559   5.595   7.594   0.136  1.1080  1.8737  2.6761
   18CHTO    C9 7560   5.720   7.503  -0.127 -0.4676  0.3717  0.7493
   18CHTO   H22 7561   5.679   7.467  -0.223 -0.5779  0.7297  0.6605
   18CHTO    N2 7562   5.745   7.380  -0.046 -0.2358  0.0896  0.0584
   18CHTO   H10 7563   5.850   7.355  -0.046 -0.5658 -1.3600  0.6370
   18CHTO   H11 7564   5.685   7.302  -0.091 -0.4444  0.8420 -0.9878
   18CHTO    C7 7565   5.848   7.594  -0.139 -0.3033  0.0557  0.2447
   18CHTO   H20 7566   5.917   7.529  -0.198  0.1402  0.4521  0.3254
   18CHTO    O4 7567   5.822   7.703  -0.232 -0.0043 -0.2470 -0.1759
   18CHTO   C14 7568   5.712   7.798  -0.205  0.4988  0.0227  0.0490
   18CHTO   H27 7569   5.691   7.849  -0.301 -0.4850  1.7205  1.1366
   18CHTO   C18 7570   5.766   7.908  -0.110 -0.3327 -0.0034 -0.0910
   18CHTO   O13 7571   5.872   7.973  -0.170 -0.3844 -0.2798  0.5866
   18CHTO    H7 7572   5.947   7.919  -0.186 -0.3712  0.2314 -1.1496
   18CHTO    O2 7573   5.919   7.652   0.006 -0.0047  0.1884 -0.9068
   18CHTO    C1 7574   6.062   7.655   0.001 -0.2145  0.1219  0.3564
   18CHTO   H14 7575   6.091   7.696  -0.098 -1.8591 -0.2579 -0.2994
   18CHTO    C2 7576   6.122   7.514   0.018 -0.0749 -0.2481 -1.0790
   18CHTO   H15 7577   6.079   7.470   0.109 -0.0261  1.2371 -0.3375
   18CHTO    O6 7578   6.090   7.434  -0.095  0.3462  0.5699  0.5116
   18CHTO    H1 7579   6.138   7.470  -0.167 -1.2721 -0.0404 -0.9503
   18CHTO    C3 7580   6.280   7.512   0.050 -0.0054  0.1263 -0.2100
   18CHTO   H16 7581   6.338   7.542  -0.039  0.6181 -1.4446 -0.3561
   18CHTO    N1 7582   6.327   7.372   0.076 -0.2261 -0.5520 -0.3935
   18CHTO    H8 7583   6.382   7.325  -0.004 -1.1140  0.6760 -1.7516
   18CHTO    H9 7584   6.375   7.368   0.172  0.9141  1.6908 -0.8290
   18CHTO    C4 7585   6.310   7.615   0.169  0.3204 -0.1161 -0.2527
   18CHTO   H17 7586   6.259   7.587   0.260 -1.7393  1.8509 -0.7408
   18CHTO    O1 7587   6.253   7.745   0.132 -0.0257 -0.0868  0.4795
   18CHTO    C5 7588   6.113   7.756   0.110  0.4281 -0.7462 -0.5552
   18CHTO   H18 7589   6.065   7.732   0.205 -1.7781  0.7953 -1.2349
   18CHTO   C16 7590   6.082   7.896   0.070 -0.6121  0.1696  0.1640
   18CHTO   O11 7591   6.132   7.994   0.163 -0.3568  0.2036  0.3642
   18CHTO    H5 7592   6.068   8.019   0.227 -0.2962  0.2656  0.3997
   18CHTO    O3 7593   6.452   7.635   0.179 -0.1463 -0.0489 -0.2403
   18CHTO    C6 7594   6.508   7.648   0.310  0.3913  0.2980 -0.4995
   18CHTO   H19 7595   6.452   7.704   0.385  2.3531 -1.5625  2.4782
   18CHTO    C8 7596   6.531   7.502   0.361  0.0035  0.7941  0.3160
   18CHTO   H21 7597   6.578   7.441   0.284 -1.8888  1.1713 -1.1954
   18CHTO    O7 7598   6.405   7.446   0.403  0.2439 -0.0699  0.3787
   18CHTO    H2 7599   6.344   7.437   0.332  1.9835 -1.3297 -0.9761
   18CHTO   C12 7600   6.619   7.496   0.490 -0.0067  0.2394  0.0645
   18CHTO   H25 7601   6.561   7.542   0.574 -1.1625 -0.0230 -0.5800
   18CHTO    N3 7602   6.643   7.356   0.540 -0.0068 -0.4707  0.3144
   18CHTO   H12 7603   6.625   7.282   0.463 -3.6482 -1.6200  2.1794
   18CHTO   H13 7604   6.735   7.358   0.596  0.0652 -0.0086  0.1816
   18CHTO   C15 7605   6.746   7.578   0.464 -0.5041  0.4380 -0.5489
   18CHTO   H28 7606   6.800   7.527   0.384  1.6116  1.0869  0.4363
   18CHTO   O10 7607   6.834   7.589   0.589 -0.0709 -0.1497 -0.2029
   18CHTO    H4 7608   6.912   7.638   0.572  0.5440 -0.4319  1.7113
   18CHTO    O5 7609   6.715   7.709   0.421  0.2113  0.2235  0.1886
   18CHTO   C10 7610   6.645   7.712   0.297 -0.0684 -0.0302  0.1849
   18CHTO   H23 7611   6.698   7.665   0.214  0.7363  0.0735  0.6292
   18CHTO   C17 7612   6.621   7.859   0.251 -0.2906 -0.4572  0.8475
   18CHTO   O12 7613   6.564   7.942   0.349 -0.1364 -0.0995 -0.1913
   18CHTO    H6 7614   6.514   8.006   0.302  2.7080  0.8530 -2.0339
   19CHTO  H203 7615   5.075   9.579   2.175 -0.0033  0.2315  1.3855
   19CHTO   O82 7616   5.102   9.494   2.202 -0.3654 -0.2498  0.2855
   19CHTO  C123 7617   5.067   9.382   2.124 -0.0384 -0.2984 -0.3097
   19CHTO  H227 7618   4.993   9.403   2.046  0.7587 -0.1835 -1.0508
   19CHTO   O77 7619   5.196   9.345   2.067 -0.1509 -0.5639  0.7783
   19CHTO  C118 7620   5.188   9.233   1.974  0.3759 -0.3683 -0.0749
   19CHTO  H222 7621   5.122   9.264   1.892 -0.6169  1.8111  1.4898
   19CHTO  C125 7622   5.334   9.209   1.911  0.0149 -0.3098  0.4205
   19CHTO   O84 7623   5.392   9.311   1.826  0.1957  0.1539  0.5734
   19CHTO  H205 7624   5.472   9.275   1.794  0.0299  1.6084 -1.5352
   19CHTO  C114 7625   5.149   9.105   2.048  0.4190 -0.4955  1.3583
   19CHTO  H218 7626   5.220   9.089   2.129  1.8299 -0.4064  0.1587
   19CHTO  C116 7627   5.011   9.127   2.118 -0.5860 -0.2955  0.0197
   19CHTO  H220 7628   4.931   9.140   2.043 -1.0201  0.4861  0.6134
   19CHTO   O79 7629   4.983   9.011   2.183 -0.4468  0.3961 -0.2080
   19CHTO  H201 7630   4.968   8.941   2.123 -0.5463 -0.0923  0.3754
   19CHTO  C120 7631   5.019   9.255   2.208  0.7677  0.1581 -0.4757
   19CHTO  H224 7632   5.090   9.236   2.291  0.1774  1.5858  0.3726
   19CHTO   N21 7633   4.887   9.285   2.272  0.2963  0.1272 -0.1206
   19CHTO  H211 7634   4.881   9.390   2.297  1.0120 -0.0278  0.7116
   19CHTO  H212 7635   4.806   9.258   2.206 -0.1350  2.3504 -0.5215
   19CHTO   O75 7636   5.147   9.001   1.949  0.1189 -0.3353 -0.1935
   19CHTO  C112 7637   5.232   8.856   1.986  0.0015  0.3071 -0.4093
   19CHTO  H216 7638   5.229   8.831   2.093 -2.0343 -0.6017 -0.6424
   19CHTO   O73 7639   5.366   8.876   1.939  0.3296 -0.1039  0.0276
   19CHTO  C113 7640   5.451   8.767   1.963 -0.1441 -0.0459 -0.2976
   19CHTO  H217 7641   5.480   8.748   2.068  0.4574 -0.8986 -0.6148
   19CHTO  C124 7642   5.588   8.811   1.902  0.3223 -0.2464  0.1473
   19CHTO   O83 7643   5.637   8.922   1.976 -0.3364  0.3728  0.1079
   19CHTO  H204 7644   5.698   8.890   2.039 -1.3862 -1.0126  0.4661
   19CHTO  C109 7645   5.402   8.633   1.890  0.0740  0.5312 -0.2336
   19CHTO  H213 7646   5.420   8.641   1.782 -0.4699 -0.2940 -0.3881
   19CHTO  C110 7647   5.252   8.612   1.911 -0.5533  0.3878  0.1019
   19CHTO  H214 7648   5.226   8.565   2.006  0.0456  0.2163  0.1877
   19CHTO   O78 7649   5.208   8.515   1.814  0.3220 -0.4145 -0.2736
   19CHTO  H200 7650   5.249   8.531   1.731  2.5550 -1.7599  0.5022
   19CHTO  C111 7651   5.162   8.740   1.904 -0.3100  0.6728  0.0380
   19CHTO  H215 7652   5.152   8.780   1.803 -1.1685 -1.2162 -0.6563
   19CHTO   N19 7653   5.023   8.725   1.952 -0.0582 -0.2589  0.4909
   19CHTO  H207 7654   4.986   8.824   1.976  0.3773 -0.1505  0.7091
   19CHTO  H208 7655   4.963   8.685   1.871 -1.1781  0.6801  0.8432
   19CHTO   O74 7656   5.482   8.519   1.936  0.9306 -0.0326 -0.1462
   19CHTO  C115 7657   5.553   8.437   1.826  0.3657  0.2889  0.3432
   19CHTO  H219 7658   5.489   8.427   1.737  1.3118  0.4534 -0.3598
   19CHTO   O76 7659   5.678   8.506   1.774  0.6018 -0.5363  0.3246
   19CHTO  C122 7660   5.798   8.449   1.821 -0.4829  0.2076  0.7861
   19CHTO  H226 7661   5.804   8.456   1.929  2.5568  1.2527  0.5826
   19CHTO  C126 7662   5.920   8.530   1.760 -0.3975 -0.2214  0.5614
   19CHTO   O85 7663   5.905   8.671   1.778 -0.1383 -0.2026  0.0893
   19CHTO  H206 7664   5.827   8.688   1.728  0.9301 -0.2387 -1.6239
   19CHTO  C121 7665   5.817   8.299   1.781 -0.1606  0.2353 -0.4987
   19CHTO  H225 7666   5.852   8.294   1.676 -0.7081  1.5039 -0.7398
   19CHTO   O81 7667   5.917   8.247   1.863 -0.2130 -0.0149 -0.7470
   19CHTO  H202 7668   5.998   8.294   1.854 -0.3852 -0.3998 -5.3005
   19CHTO  C119 7669   5.686   8.217   1.790  0.0742  0.7048  0.0711
   19CHTO  H223 7670   5.652   8.225   1.687  0.5151  0.4811 -0.0914
   19CHTO  C117 7671   5.579   8.287   1.884  0.4080  0.0206  0.7181
   19CHTO  H221 7672   5.600   8.296   1.990 -0.4090 -0.8678  0.9586
   19CHTO   N20 7673   5.450   8.212   1.875 -0.2793  0.4052 -0.2116
   19CHTO  H209 7674   5.467   8.115   1.919  1.0677  0.7308 -0.0173
   19CHTO  H210 7675   5.364   8.270   1.905 -0.5162 -0.5308  0.9439
   19CHTO   O80 7676   5.719   8.060   1.807  0.3819  0.2288  0.4091
   19CHTO  C103 7677   5.770   7.979   1.682 -0.1867  0.0419  0.6417
   19CHTO  H190 7678   5.765   8.046   1.596 -1.0151  0.2037  0.8104
   19CHTO  C101 7679   5.912   7.921   1.692  0.5089 -0.2223  0.9378
   19CHTO  H188 7680   5.921   7.879   1.792 -1.4351  1.8618  2.0262
   19CHTO   O68 7681   6.022   8.043   1.681 -0.5390  0.0072  0.3733
   19CHTO  H168 7682   5.991   8.126   1.651  1.5751  1.2437  1.5574
   19CHTO   C99 7683   5.943   7.806   1.587 -0.1159  0.7054  0.0154
   19CHTO  H186 7684   5.941   7.847   1.484  1.6438  1.2579  0.1871
   19CHTO   N17 7685   6.074   7.740   1.606 -1.1924 -0.2900  0.1479
   19CHTO  H174 7686   6.116   7.732   1.507  0.8197  0.3714  0.9004
   19CHTO  H175 7687   6.073   7.646   1.661 -0.7919 -0.1219  0.4467
   19CHTO   C97 7688   5.828   7.704   1.588 -0.1300  0.2206  0.8488
   19CHTO  H184 7689   5.824   7.642   1.678 -0.5711 -0.7388  0.1861
   19CHTO   O64 7690   5.704   7.771   1.558  0.0595  0.4906 -0.4285
   19CHTO  C104 7691   5.664   7.866   1.656 -1.4189 -0.2860 -0.7716
   19CHTO  H191 7692   5.647   7.806   1.746 -1.5802  0.1584 -0.5044
   19CHTO  C108 7693   5.535   7.931   1.618 -1.2437  0.2274 -0.0828
   19CHTO   O71 7694   5.439   7.833   1.587 -0.1337 -0.2814  0.6252
   19CHTO  H171 7695   5.368   7.843   1.648 -0.6612 -0.0446 -0.0296
   19CHTO   O62 7696   5.834   7.619   1.473 -0.0988  0.3857 -0.5253
   19CHTO   C91 7697   5.769   7.491   1.475 -0.2168  0.0704 -0.0820
   19CHTO  H178 7698   5.712   7.482   1.567  0.2885 -0.0953  0.2183
   19CHTO   C92 7699   5.878   7.378   1.486 -0.3992 -0.3792 -0.1724
   19CHTO  H179 7700   5.957   7.389   1.412  0.6235 -0.1530  0.9391
   19CHTO   O66 7701   5.939   7.384   1.617 -0.2552  0.1141 -0.0797
   19CHTO  H166 7702   5.999   7.313   1.625  0.5875  0.6445 -1.4309
   19CHTO   C93 7703   5.814   7.234   1.473  0.5090  0.6274  0.3116
   19CHTO  H180 7704   5.759   7.215   1.566  1.7720  1.7140  1.3060
   19CHTO   N16 7705   5.918   7.122   1.467 -0.2193 -0.0027 -0.0968
   19CHTO  H172 7706   5.938   7.080   1.565 -2.1365 -1.3872 -0.2649
   19CHTO  H173 7707   6.013   7.152   1.426 -1.0263  0.7845 -1.4203
   19CHTO   C94 7708   5.724   7.227   1.350 -0.1980 -0.1114 -0.3095
   19CHTO  H181 7709   5.783   7.226   1.258  0.8214 -0.0681  0.3336
   19CHTO   O61 7710   5.630   7.338   1.347  0.5728 -0.0346  0.0565
   19CHTO   C95 7711   5.689   7.469   1.346 -0.1305  0.1654 -0.3123
   19CHTO  H182 7712   5.755   7.479   1.260  0.9646  0.0796  0.5071
   19CHTO  C106 7713   5.578   7.578   1.334  0.8632  0.1216 -0.1664
   19CHTO   O69 7714   5.526   7.605   1.207  0.5745  0.4892  0.2782
   19CHTO  H169 7715   5.457   7.669   1.211  1.3507  1.4263 -0.9400
   19CHTO   O63 7716   5.632   7.100   1.356 -0.5004 -0.1512 -0.0132
   19CHTO   C96 7717   5.580   7.052   1.223  0.2569 -0.0725 -0.5601
   19CHTO  H183 7718   5.666   7.051   1.155  1.1538  0.8883  0.5538
   19CHTO   C98 7719   5.478   7.149   1.153  0.4025  0.1029  0.1485
   19CHTO  H185 7720   5.536   7.239   1.130  2.1713 -1.4385 -1.6272
   19CHTO   O67 7721   5.454   7.089   1.029 -0.4652  0.7183 -0.3017
   19CHTO  H167 7722   5.420   7.158   0.976 -0.1859  0.9875 -0.1316
   19CHTO  C102 7723   5.336   7.169   1.221  0.0935  0.3448  1.1448
   19CHTO  H189 7724   5.268   7.199   1.140  0.6180 -1.4508  0.0133
   19CHTO   N18 7725   5.334   7.279   1.326  0.2145 -0.0022 -0.0278
   19CHTO  H176 7726   5.394   7.250   1.410  0.6940  0.3491 -0.2431
   19CHTO  H177 7727   5.229   7.282   1.351  0.1429 -1.1958 -0.1357
   19CHTO  C105 7728   5.301   7.028   1.278 -0.3120  0.5188 -0.3809
   19CHTO  H192 7729   5.307   7.029   1.387 -4.3926 -0.1953 -0.0919
   19CHTO   O65 7730   5.360   6.908   1.231 -0.6511  0.0687 -0.5250
   19CHTO  C100 7731   5.503   6.911   1.252 -0.5147 -1.3170  0.2178
   19CHTO  H187 7732   5.526   6.894   1.359  0.7934 -0.1957  0.1192
   19CHTO  C107 7733   5.552   6.801   1.155  0.9023 -0.1309 -0.4037
   19CHTO   O70 7734   5.689   6.790   1.141  0.6643 -0.3352  0.0684
   19CHTO  H170 7735   5.713   6.803   1.051 -1.9892  2.6284 -0.2820
   19CHTO   O57 7736   5.156   7.014   1.248  0.2063 -0.0540  0.5612
   19CHTO   C85 7737   5.078   6.918   1.326 -0.3381 -0.3686  0.2147
   19CHTO  H157 7738   5.137   6.891   1.416 -1.4653 -3.1195  0.1795
   19CHTO   C83 7739   5.056   6.779   1.252 -0.1787  0.0449  0.1878
   19CHTO  H155 7740   5.155   6.733   1.252 -0.2556 -0.1150 -0.4721
   19CHTO   O56 7741   5.013   6.812   1.112 -0.2231  0.6605  0.5295
   19CHTO  H135 7742   4.971   6.739   1.069 -0.8814  0.3428  1.6761
   19CHTO   C81 7743   4.957   6.686   1.330 -0.6768  0.4184 -0.9010
   19CHTO  H153 7744   5.001   6.656   1.425 -0.6828  0.5767 -0.8491
   19CHTO   N14 7745   4.937   6.554   1.266 -0.0043  0.2178  0.1247
   19CHTO  H141 7746   5.035   6.518   1.240  0.3498  1.1094  0.2170
   19CHTO  H142 7747   4.881   6.571   1.177  0.2750  0.2536 -0.0451
   19CHTO   C79 7748   4.818   6.757   1.366  0.4731  0.7163 -0.5368
   19CHTO  H151 7749   4.763   6.691   1.433  1.2511  0.1131 -0.4778
   19CHTO   O52 7750   4.845   6.884   1.442  0.3755  0.5470  0.0477
   19CHTO   C86 7751   4.929   6.975   1.364 -0.2952  0.5206  0.7442
   19CHTO  H158 7752   4.874   6.993   1.269  1.1841 -0.2829 -0.2844
   19CHTO   C90 7753   4.937   7.107   1.429 -0.6657  0.6612 -0.7657
   19CHTO   O60 7754   4.955   7.226   1.348 -1.1719 -0.2387  0.0036
   19CHTO  H138 7755   4.872   7.246   1.309 -0.4858  2.2065 -0.3093
   19CHTO   O50 7756   4.730   6.763   1.256 -0.0500 -0.2696 -0.0224
   19CHTO   C73 7757   4.605   6.775   1.187  0.4155  0.7453  0.4239
   19CHTO  H145 7758   4.544   6.683   1.188  2.5914 -0.7289  2.7025
   19CHTO   C74 7759   4.632   6.822   1.036 -0.1032  0.8733  0.7621
   19CHTO  H146 7760   4.696   6.744   0.990  0.6915  0.9998  1.6358
   19CHTO   O54 7761   4.506   6.829   0.955  0.3583  0.1816 -0.1592
   19CHTO  H133 7762   4.449   6.756   0.972 -0.1821  0.8560  0.9495
   19CHTO   C75 7763   4.708   6.956   1.040 -0.4860 -0.2647 -0.1376
   19CHTO  H147 7764   4.798   6.946   1.102  0.4950  0.9860 -1.3391
   19CHTO   N13 7765   4.755   7.008   0.911 -0.0473 -0.2595 -0.6565
   19CHTO  H139 7766   4.676   7.026   0.839  0.0193  2.7208 -0.0507
   19CHTO  H140 7767   4.824   7.090   0.924  1.5950 -1.5586 -1.0648
   19CHTO   C76 7768   4.621   7.062   1.124 -0.4611  0.7628  0.3456
   19CHTO  H148 7769   4.523   7.079   1.080 -1.1758 -0.7228  1.3311
   19CHTO   O49 7770   4.599   7.019   1.260  0.1949  0.4874 -0.1335
   19CHTO   C77 7771   4.527   6.889   1.262 -0.5378  0.0818 -0.2408
   19CHTO  H149 7772   4.425   6.896   1.224 -0.0825  0.9798 -1.3270
   19CHTO   C88 7773   4.504   6.832   1.401 -1.1682 -0.4334  0.0898
   19CHTO   O58 7774   4.471   6.948   1.497  0.1187 -0.1495  0.1137
   19CHTO  H136 7775   4.442   6.911   1.578 -0.2963 -2.1549 -0.9241
   19CHTO   O51 7776   4.704   7.193   1.142 -0.2820  0.2444  0.1637
   19CHTO   C78 7777   4.630   7.326   1.122 -0.9330 -0.3404  0.0550
   19CHTO  H150 7778   4.535   7.322   1.065 -1.7849  1.1969  1.3016
   19CHTO   C80 7779   4.724   7.416   1.038 -0.1650  0.7991 -0.6769
   19CHTO  H152 7780   4.820   7.423   1.092 -0.7382  2.4568  0.1571
   19CHTO   O55 7781   4.754   7.358   0.908 -0.6895 -0.3952  0.4249
   19CHTO  H134 7782   4.775   7.268   0.920  2.8272  0.4584  1.2748
   19CHTO   C84 7783   4.664   7.560   1.019  0.4621  0.2250  0.3610
   19CHTO  H156 7784   4.567   7.546   0.970  1.5506  2.9844 -2.6889
   19CHTO   N15 7785   4.749   7.652   0.935 -0.5708  0.5599 -0.4873
   19CHTO  H143 7786   4.761   7.747   0.983 -1.4537  0.1696  0.5210
   19CHTO  H144 7787   4.729   7.664   0.830  1.5384 -3.0467 -1.3904
   19CHTO   C87 7788   4.626   7.620   1.157  0.8767  0.7922 -0.0085
   19CHTO  H159 7789   4.714   7.637   1.220 -0.0404  1.0748  1.2127
   19CHTO   O53 7790   4.533   7.520   1.238  0.2775 -0.4783  0.0040
   19CHTO   C82 7791   4.606   7.398   1.259  0.3890 -0.5927  0.1848
   19CHTO  H154 7792   4.708   7.406   1.297 -0.3388  0.7978  1.9207
   19CHTO   C89 7793   4.528   7.308   1.357  1.3501  0.1205  0.0600
   19CHTO   O59 7794   4.398   7.276   1.295 -0.7964  0.9417 -0.3544
   19CHTO  H137 7795   4.335   7.291   1.362 -0.5834 -0.8833  0.2927
   19CHTO   O45 7796   4.532   7.760   1.137 -0.0315 -0.0231  0.0532
   19CHTO   C67 7797   4.480   7.814   1.260 -0.3421  0.5663 -0.3444
   19CHTO  H124 7798   4.465   7.732   1.330 -1.0760  0.0152 -1.1418
   19CHTO   C65 7799   4.571   7.922   1.333  0.4296 -0.1788 -0.6757
   19CHTO  H122 7800   4.626   7.972   1.254 -3.0455  2.7807 -1.3600
   19CHTO   O44 7801   4.663   7.842   1.410 -0.5954 -0.0023 -0.1803
   19CHTO  H102 7802   4.724   7.891   1.462  0.5849 -2.4508  0.8006
   19CHTO   C63 7803   4.494   8.045   1.397 -0.5257 -0.4879 -0.1282
   19CHTO  H120 7804   4.482   8.120   1.318 -2.2119 -0.8993 -0.2812
   19CHTO   N11 7805   4.576   8.133   1.487  0.5509  0.2985  0.1132
   19CHTO  H108 7806   4.526   8.225   1.510 -1.6640 -0.7866 -0.2636
   19CHTO  H109 7807   4.583   8.088   1.584  1.6192  1.7321  0.7254
   19CHTO   C61 7808   4.349   7.998   1.449 -0.9519  0.0135 -0.1225
   19CHTO  H118 7809   4.291   8.091   1.459  0.0507  0.6734 -0.3355
   19CHTO   O40 7810   4.280   7.912   1.352 -0.1858  0.7077  0.3137
   19CHTO   C68 7811   4.339   7.868   1.226  0.1280 -0.4859 -0.2419
   19CHTO  H125 7812   4.330   7.960   1.163  0.2261  0.6009  1.2905
   19CHTO   C72 7813   4.244   7.758   1.163 -0.1304 -0.2679 -0.2923
   19CHTO   O48 7814   4.277   7.714   1.032 -0.2119  0.1388 -0.0004
   19CHTO  H105 7815   4.330   7.641   1.060 -0.8965  0.5034  2.3324
   19CHTO   O38 7816   4.361   7.918   1.574  0.1262 -0.0125 -0.5188
   19CHTO   C55 7817   4.243   7.880   1.647 -0.2081 -0.1465  0.0452
   19CHTO  H112 7818   4.149   7.879   1.590  0.2003 -0.4199 -0.6234
   19CHTO   C56 7819   4.226   7.962   1.785 -0.1824  0.0852  0.7492
   19CHTO  H113 7820   4.312   7.941   1.850 -0.4206 -3.6655 -0.0631
   19CHTO   O42 7821   4.233   8.110   1.756 -0.4843  0.3022  0.0315
   19CHTO  H100 7822   4.315   8.139   1.723 -1.0266  0.8237 -0.8932
   19CHTO   C57 7823   4.092   7.912   1.860 -0.2305  0.3046  0.3297
   19CHTO  H114 7824   4.015   7.933   1.785 -0.7997  1.6593  1.2667
   19CHTO   N10 7825   4.058   7.979   1.993 -0.1555 -0.0062  0.1441
   19CHTO  H106 7826   3.977   8.049   1.977  1.4102  1.1717 -3.1710
   19CHTO  H107 7827   4.039   7.912   2.075 -0.7959 -0.4735 -0.3822
   19CHTO   C58 7828   4.107   7.756   1.883  0.7841  1.2160  0.8783
   19CHTO  H115 7829   4.181   7.737   1.964  1.7338  0.5116 -0.1388
   19CHTO   O37 7830   4.168   7.684   1.773  0.4028 -0.4765 -0.1205
   19CHTO   C59 7831   4.268   7.736   1.688 -0.2331 -0.6249  0.1694
   19CHTO  H116 7832   4.355   7.730   1.753  1.5920  1.4061 -2.0035
   19CHTO   C70 7833   4.276   7.634   1.573 -0.2749 -0.0834 -0.1429
   19CHTO   O46 7834   4.319   7.503   1.616 -0.0502  0.1954  0.4585
   19CHTO  H103 7835   4.410   7.482   1.602 -0.3204 -0.8306  0.2497
   19CHTO   O39 7836   3.957   7.698   1.911  0.1783  0.0213  0.3451
   19CHTO   C60 7837   3.926   7.562   1.874 -0.3010  0.3099 -0.2214
   19CHTO  H117 7838   3.960   7.558   1.770 -1.0758 -0.1765 -0.4613
   19CHTO   C62 7839   4.003   7.459   1.964  0.2159  0.2236  0.0396
   19CHTO  H119 7840   4.106   7.500   1.955  0.3212 -0.2633 -1.1589
   19CHTO   O43 7841   3.953   7.450   2.098 -0.6923  0.5987 -0.2751
   19CHTO  H101 7842   3.924   7.533   2.131  1.6895  2.1230 -1.8678
   19CHTO   C66 7843   4.005   7.320   1.881  0.3324 -0.5897  0.4723
   19CHTO  H123 7844   4.042   7.337   1.779  1.1656 -1.1658  0.6662
   19CHTO   N12 7845   4.099   7.219   1.929 -0.4797  0.6413 -0.2864
   19CHTO  H110 7846   4.099   7.148   1.848  1.6075  3.1054 -2.5249
   19CHTO  H111 7847   4.064   7.183   2.025  3.1641 -0.7039  0.6525
   19CHTO   C69 7848   3.867   7.255   1.873 -0.5028  0.3925 -1.3068
   19CHTO  H126 7849   3.845   7.214   1.974  0.9719 -0.3915 -1.2877
   19CHTO   O41 7850   3.742   7.381   1.837  0.0178  0.4830  0.4768
   19CHTO   C64 7851   3.774   7.526   1.874  0.0306  0.5504 -0.3477
   19CHTO  H121 7852   3.734   7.545   1.976  0.9478 -3.6677  0.8759
   19CHTO   C71 7853   3.705   7.614   1.772  0.6948 -0.2008  0.2585
   19CHTO   O47 7854   3.563   7.593   1.779 -0.0407  0.1777  0.4940
   19CHTO  H104 7855   3.522   7.677   1.783  0.9631  0.7235 -0.4254
   19CHTO   O34 7856   3.866   7.122   1.756 -0.1547 -0.0555  0.6349
   19CHTO   C49 7857   3.820   7.091   1.594 -0.4574 -0.3436 -0.3503
   19CHTO   H91 7858   3.731   7.028   1.599 -1.6417  1.3541  0.4698
   19CHTO   C47 7859   3.948   7.023   1.532 -0.0148 -0.4716  1.1177
   19CHTO   H89 7860   3.920   6.977   1.435  2.2476  0.5627 -0.0881
   19CHTO   O33 7861   4.000   6.920   1.606 -0.0188 -0.3363  0.0784
   19CHTO   H70 7862   4.055   6.866   1.553  0.4699 -0.2275  0.4662
   19CHTO   C45 7863   4.062   7.143   1.504 -0.2068 -0.1508  0.4940
   19CHTO   H87 7864   4.080   7.201   1.595 -0.1763 -0.4179  0.6587
   19CHTO    N8 7865   4.193   7.095   1.455  0.4189 -0.2232 -0.8179
   19CHTO   H75 7866   4.241   7.021   1.517  1.6155 -0.2190 -1.7023
   19CHTO   H76 7867   4.198   7.074   1.349  0.8086 -2.6296 -0.3480
   19CHTO   C43 7868   3.995   7.252   1.405  0.0560 -0.2555 -0.1087
   19CHTO   H85 7869   4.063   7.331   1.374 -1.0671  1.1635  0.9992
   19CHTO   O29 7870   3.885   7.309   1.476 -0.0020 -0.5106 -0.1270
   19CHTO   C50 7871   3.780   7.223   1.517  0.2676  0.0529  0.0286
   19CHTO   H92 7872   3.715   7.276   1.589  1.8952  1.0270  0.7997
   19CHTO   C54 7873   3.663   7.198   1.414 -0.5421  0.0346 -0.7418
   19CHTO   O36 7874   3.697   7.108   1.307 -0.0854 -0.4469  0.4376
   19CHTO   H72 7875   3.783   7.076   1.287 -1.1919 -2.5019 -1.2153
   19CHTO   O27 7876   3.962   7.187   1.281  0.4143 -0.0445 -0.5275
   19CHTO   C37 7877   3.960   7.224   1.147  0.7381  0.0969  0.3322
   19CHTO   H79 7878   3.878   7.169   1.098  1.5440 -0.2935 -0.5977
   19CHTO   C38 7879   3.940   7.376   1.114 -0.2931  0.9789  0.2664
   19CHTO   H80 7880   3.998   7.435   1.187  0.7314  1.9462 -1.3107
   19CHTO   O31 7881   3.800   7.390   1.137 -0.6009 -0.1343 -0.4534
   19CHTO   H68 7882   3.752   7.383   1.057 -0.3791  3.0728 -0.9326
   19CHTO   C39 7883   3.981   7.430   0.978  0.0142  0.3844  0.5148
   19CHTO   H81 7884   3.922   7.381   0.901 -0.4424 -0.4457  1.3810
   19CHTO    N7 7885   3.960   7.575   0.973  0.3017 -0.3604 -0.5342
   19CHTO   H73 7886   4.047   7.626   1.014 -0.1715  1.8503 -2.2372
   19CHTO   H74 7887   3.879   7.623   1.025  1.7242  4.1900 -2.2830
   19CHTO   C40 7888   4.117   7.377   0.942 -0.2666 -1.1258 -0.5373
   19CHTO   H82 7889   4.199   7.423   0.998  0.9529 -1.8762 -1.6795
   19CHTO   O26 7890   4.120   7.235   0.952  0.2585  0.0075  0.2785
   19CHTO   C41 7891   4.097   7.182   1.088  0.1026 -0.5399 -0.0623
   19CHTO   H83 7892   4.183   7.213   1.149 -0.3950  0.5270  0.1113
   19CHTO   C52 7893   4.112   7.026   1.081 -1.3952 -0.1578 -0.1512
   19CHTO   O35 7894   4.247   6.970   1.057 -1.1119  0.1452  0.2136
   19CHTO   H71 7895   4.308   7.005   1.119 -2.0327  0.1204  1.1596
   19CHTO   O28 7896   4.157   7.389   0.806  0.0788  0.0524  0.3346
   19CHTO   C42 7897   4.265   7.469   0.760  0.6194 -0.1652 -0.1501
   19CHTO   H84 7898   4.300   7.528   0.845  0.1262 -0.6908  0.4269
   19CHTO   C44 7899   4.225   7.582   0.656  0.0650  0.7032  0.6530
   19CHTO   H86 7900   4.164   7.540   0.576  0.4293  0.4331  0.5118
   19CHTO   O32 7901   4.147   7.678   0.726  0.5505  0.0405  0.1684
   19CHTO   H69 7902   4.090   7.706   0.657  1.0613 -2.9397 -1.5937
   19CHTO   C48 7903   4.350   7.653   0.590  0.1360  0.1672  0.8363
   19CHTO   H90 7904   4.378   7.732   0.661 -1.1694  2.4527 -1.1180
   19CHTO    N9 7905   4.303   7.732   0.470 -0.7512  0.1471  0.4114
   19CHTO   H77 7906   4.342   7.678   0.385  0.6029  0.5312  0.7824
   19CHTO   H78 7907   4.336   7.834   0.466  0.7729 -0.3352  0.1680
   19CHTO   C51 7908   4.470   7.552   0.555 -1.0301  1.6720 -0.3542
   19CHTO   H93 7909   4.445   7.486   0.472  3.4032 -0.9718  0.2574
   19CHTO   O30 7910   4.495   7.472   0.674  0.5030  0.5634 -0.5128
   19CHTO   C46 7911   4.384   7.382   0.712  0.9709 -0.1135 -0.4992
   19CHTO   H88 7912   4.359   7.331   0.619 -0.8144 -0.7395  0.3012
   19CHTO   C53 7913   4.434   7.288   0.815  0.5965  0.6811 -0.1484
   19CHTO   O72 7914   4.516   7.179   0.767 -0.1918  0.0688  0.2611
   19CHTO  H199 7915   4.558   7.135   0.839 -2.4843 -1.4823  0.7005
   19CHTO   O22 7916   4.593   7.622   0.528 -0.7736  0.8668  0.3098
   19CHTO   C31 7917   4.689   7.557   0.431 -0.1282  0.5203 -0.2050
   19CHTO   H59 7918   4.651   7.454   0.414 -0.8650  0.8784 -0.7575
   19CHTO   C29 7919   4.684   7.628   0.293 -0.0769  0.3405  0.0352
   19CHTO   H57 7920   4.706   7.735   0.304 -1.6840  0.8818 -1.7061
   19CHTO   O21 7921   4.545   7.619   0.255 -0.0828  0.1962  0.4428
   19CHTO   H37 7922   4.505   7.680   0.314 -0.3233  0.6070 -0.1422
   19CHTO   C27 7923   4.783   7.566   0.190 -0.0955  0.5373  0.2420
   19CHTO   H55 7924   4.742   7.467   0.166  1.8977 -0.1919 -0.2275
   19CHTO    N5 7925   4.794   7.652   0.066  0.9287  0.3071 -0.0780
   19CHTO   H43 7926   4.831   7.751   0.085 -0.3090  1.1328 -1.8371
   19CHTO   H44 7927   4.857   7.605  -0.008  0.1072 -0.0900 -0.5387
   19CHTO   C25 7928   4.924   7.546   0.264 -0.5402 -0.3958  0.2119
   19CHTO   H53 7929   4.985   7.635   0.284 -0.3466 -0.5216  0.1823
   19CHTO   O17 7930   4.916   7.482   0.387 -0.5096 -0.0883 -0.2560
   19CHTO   C32 7931   4.838   7.544   0.479  0.2490  0.0203 -0.6882
   19CHTO   H60 7932   4.881   7.641   0.501 -2.0420  1.1744 -1.1806
   19CHTO   C36 7933   4.847   7.467   0.616 -0.3220 -0.2443  0.3792
   19CHTO   O25 7934   4.807   7.332   0.598 -0.0510  0.3583 -0.1547
   19CHTO   H40 7935   4.793   7.296   0.684 -0.8735 -1.1191 -0.8932
   19CHTO   O15 7936   5.018   7.449   0.167  0.4195 -0.0473  0.4014
   19CHTO   C19 7937   5.062   7.331   0.097 -0.2398 -0.0755 -0.0397
   19CHTO   H47 7938   5.021   7.331  -0.005 -0.8338  2.0087  0.1712
   19CHTO   C20 7939   5.217   7.342   0.086  0.7029  0.4427  1.0734
   19CHTO   H48 7940   5.267   7.348   0.184  1.6372  1.1123  0.5693
   19CHTO   O19 7941   5.242   7.467   0.013  0.1211  0.7064 -0.0093
   19CHTO   H35 7942   5.188   7.538   0.040 -0.4664  0.2005  0.1372
   19CHTO   C21 7943   5.262   7.219  -0.000  0.4331  0.5995  0.8159
   19CHTO   H49 7944   5.228   7.235  -0.103  0.6825  2.7329  1.0423
   19CHTO    N4 7945   5.406   7.198  -0.017  0.1528  0.1725  0.3041
   19CHTO   H41 7946   5.450   7.249  -0.101 -0.2413 -0.9032 -0.5641
   19CHTO   H42 7947   5.460   7.228   0.072  1.2694 -1.1649  0.1064
   19CHTO   C22 7948   5.201   7.088   0.048 -0.1480 -0.5467  0.1342
   19CHTO   H50 7949   5.258   7.054   0.135  1.7622 -0.9694 -1.2359
   19CHTO   O14 7950   5.064   7.087   0.080  0.2159  0.0263  0.6449
   19CHTO   C23 7951   5.019   7.199   0.164 -0.3870 -0.1220  0.3711
   19CHTO   H51 7952   5.077   7.179   0.256  0.0188 -0.8795 -0.0467
   19CHTO   C34 7953   4.868   7.199   0.188  0.1809 -0.2713  0.0190
   19CHTO   O23 7954   4.804   7.196   0.061  0.2349 -0.0083 -0.4610
   19CHTO   H38 7955   4.712   7.180   0.072  0.2741 -0.5659 -0.9136
   19CHTO   O16 7956   5.196   6.984  -0.054 -0.3265  0.5549  0.3757
   19CHTO   C24 7957   5.315   6.853  -0.066  0.4670  1.0351 -0.6345
   19CHTO   H52 7958   5.402   6.871  -0.003  1.3030 -2.2034 -0.7915
   19CHTO   C26 7959   5.364   6.850  -0.210 -0.0965 -0.5999  0.2060
   19CHTO   H54 7960   5.268   6.853  -0.266 -1.0537  0.8825  1.8499
   19CHTO   O20 7961   5.448   6.964  -0.241  0.0091  0.1889 -0.3952
   19CHTO   H36 7962   5.402   7.019  -0.302 -1.5031  1.2879  1.6592
   19CHTO   C30 7963   5.442   6.719  -0.250  0.1170 -0.4280 -0.1192
   19CHTO   H58 7964   5.544   6.725  -0.209  0.8511 -0.9850 -1.7972
   19CHTO    N6 7965   5.459   6.707  -0.402  0.4086  0.2860 -0.7544
   19CHTO   H45 7966   5.367   6.696  -0.457  1.2433 -0.9260 -1.9584
   19CHTO   H46 7967   5.520   6.620  -0.427 -1.6890 -1.0275 -1.4701
   19CHTO   C33 7968   5.368   6.598  -0.198  0.2324 -0.2890  0.1764
   19CHTO   H61 7969   5.267   6.602  -0.241  0.2892  0.1370  0.0804
   19CHTO   O18 7970   5.358   6.619  -0.054  0.5748 -0.0907 -0.3511
   19CHTO   C28 7971   5.255   6.716  -0.024 -0.1501 -0.3909  0.3305
   19CHTO   H56 7972   5.163   6.701  -0.080 -1.4036  2.6525  1.4881
   19CHTO   C35 7973   5.209   6.719   0.121  0.2576 -0.0641  0.5223
   19CHTO   O24 7974   5.134   6.606   0.158 -0.3295 -0.3322  0.4250
   19CHTO   H39 7975   5.191   6.538   0.190 -0.9537 -0.6672  0.8268
   19CHTO    O9 7976   5.423   6.476  -0.227 -0.1004  0.1644  0.1441
   19CHTO   C13 7977   5.310   6.370  -0.280 -1.1354 -1.1025 -0.9141
   19CHTO   H26 7978   5.249   6.421  -0.356  0.3602  0.5811 -1.0188
   19CHTO   C11 7979   5.217   6.307  -0.163 -0.4715  0.2845 -0.4136
   19CHTO   H24 7980   5.164   6.395  -0.123  0.1406 -0.3731  1.8857
   19CHTO    O8 7981   5.298   6.246  -0.064  0.1164  0.1076  0.0178
   19CHTO    H3 7982   5.244   6.213   0.005  0.1300  1.5673  0.7491
   19CHTO    C9 7983   5.109   6.209  -0.215  0.6385  0.2581 -0.3695
   19CHTO   H22 7984   5.041   6.267  -0.280 -1.7525  0.3896  2.1751
   19CHTO    N2 7985   5.020   6.161  -0.108 -0.3783  0.0427  0.0114
   19CHTO   H10 7986   4.944   6.101  -0.155 -0.2308  0.5434 -0.8719
   19CHTO   H11 7987   5.075   6.109  -0.031  1.3258 -0.0099 -1.2271
   19CHTO    C7 7988   5.188   6.089  -0.287  0.2723 -0.8475 -0.4345
   19CHTO   H20 7989   5.112   6.042  -0.352  2.0797 -1.1867 -2.3380
   19CHTO    O4 7990   5.293   6.131  -0.381  0.3289 -0.3881  0.1507
   19CHTO   C14 7991   5.378   6.245  -0.360 -0.0932  0.2925  0.7077
   19CHTO   H27 7992   5.409   6.280  -0.461  0.2394  1.4683  1.2130
   19CHTO   C18 7993   5.507   6.201  -0.291 -0.4025 -0.4331  0.4356
   19CHTO   O13 7994   5.567   6.077  -0.341 -0.7527 -0.4384 -0.0960
   19CHTO    H7 7995   5.539   6.003  -0.291 -1.4874  0.3973  0.7345
   19CHTO    O2 7996   5.248   5.978  -0.159  0.2524 -0.3931  0.0119
   19CHTO    C1 7997   5.203   5.839  -0.171  0.6052  0.1663  0.1530
   19CHTO   H14 7998   5.229   5.795  -0.269  0.2253 -1.3407  0.7250
   19CHTO    C2 7999   5.046   5.821  -0.160  0.0350 -0.1938  0.5472
   19CHTO   H15 8000   5.009   5.887  -0.080  0.1842 -0.0978  0.5359
   19CHTO    O6 8001   4.968   5.867  -0.276  0.0996  0.1094  0.5561
   19CHTO    H1 8002   4.997   5.831  -0.358  0.2129  1.2884  0.0635
   19CHTO    C3 8003   5.007   5.667  -0.138 -0.0738  0.3184 -0.6334
   19CHTO   H16 8004   5.035   5.595  -0.217  2.0542 -0.7096  1.0192
   19CHTO    N1 8005   4.856   5.649  -0.122  0.3027 -0.3214  0.3672
   19CHTO    H8 8006   4.816   5.611  -0.215 -0.7307  1.8196 -0.0800
   19CHTO    H9 8007   4.808   5.743  -0.103 -1.4833 -1.4134  1.4196
   19CHTO    C4 8008   5.076   5.622  -0.008  0.8070 -0.3552 -0.0454
   19CHTO   H17 8009   5.039   5.673   0.080  0.7473  1.4876 -1.1060
   19CHTO    O1 8010   5.221   5.636  -0.014 -0.2090 -0.3738 -0.5540
   19CHTO    C5 8011   5.273   5.762  -0.053 -0.3672  0.2544  0.2366
   19CHTO   H18 8012   5.271   5.833   0.030  2.4238  0.4103  0.2260
   19CHTO   C16 8013   5.421   5.734  -0.083 -0.0053 -0.1727 -0.2489
   19CHTO   O11 8014   5.487   5.682   0.030 -0.0339  0.6484  0.2657
   19CHTO    H5 8015   5.561   5.627   0.013 -0.2119  1.0552 -1.9602
   19CHTO    O3 8016   5.066   5.476   0.000  0.1731  0.1124  0.5151
   19CHTO    C6 8017   5.013   5.416   0.117 -0.5413  0.4252  0.5060
   19CHTO   H19 8018   4.970   5.486   0.189  0.8946  0.5727  1.2437
   19CHTO    C8 8019   4.910   5.310   0.086  0.3335 -0.1666  0.3058
   19CHTO   H21 8020   4.952   5.236   0.017  1.4168  1.4416 -0.7909
   19CHTO    O7 8021   4.796   5.370   0.027  0.1226 -0.1742 -0.3802
   19CHTO    H2 8022   4.824   5.401  -0.057 -0.9958  1.3155 -0.2207
   19CHTO   C12 8023   4.863   5.231   0.218  0.5394 -0.1781  0.3986
   19CHTO   H25 8024   4.805   5.304   0.277 -1.5494 -1.7450  0.3415
   19CHTO    N3 8025   4.769   5.120   0.183  0.3310 -0.0449  0.2483
   19CHTO   H12 8026   4.736   5.060   0.266  1.8866 -1.0272  0.1964
   19CHTO   H13 8027   4.804   5.056   0.103  0.3096  0.4118 -0.1234
   19CHTO   C15 8028   4.988   5.189   0.303  0.2908 -0.1028 -0.5095
   19CHTO   H28 8029   5.051   5.113   0.256 -0.4269 -0.0038 -1.6554
   19CHTO   O10 8030   4.948   5.163   0.452  0.2679  0.6425  0.2900
   19CHTO    H4 8031   5.007   5.193   0.518  1.5911  1.7385 -1.3581
   19CHTO    O5 8032   5.081   5.298   0.322  0.4222  0.0514  0.7029
   19CHTO   C10 8033   5.132   5.346   0.194 -0.3084 -0.0390  0.1362
   19CHTO   H23 8034   5.176   5.263   0.138  0.9304  1.2236 -0.7791
   19CHTO   C17 8035   5.247   5.437   0.231  0.4099  0.2797  0.3892
   19CHTO   O12 8036   5.373   5.380   0.223 -0.4079  0.0502 -0.2200
   19CHTO    H6 8037   5.389   5.302   0.272 -1.2574  0.1381  0.2086
   20CHTO  H203 8038   4.691   0.974   1.920 -0.4051  0.4090  0.8909
   20CHTO   O82 8039   4.778   1.008   1.931  0.2818 -0.8532 -0.4773
   20CHTO  C123 8040   4.800   1.108   1.830  0.6311 -0.0982  0.5559
   20CHTO  H227 8041   4.721   1.184   1.837  1.0265  0.5336 -1.5515
   20CHTO   O77 8042   4.935   1.158   1.858  0.2252 -0.0424 -0.1110
   20CHTO  C118 8043   4.988   1.265   1.781  0.1753  0.0757 -0.4697
   20CHTO  H222 8044   4.921   1.351   1.770  0.6156  0.1292 -2.9925
   20CHTO  C125 8045   5.125   1.317   1.852  0.2473 -0.4594 -0.2077
   20CHTO   O84 8046   5.105   1.368   1.982 -0.4302  0.2116  0.8765
   20CHTO  H205 8047   5.175   1.429   1.987 -0.6058  0.4798  0.1720
   20CHTO  C114 8048   5.008   1.214   1.638 -0.7174  0.0772  0.2514
   20CHTO  H218 8049   5.089   1.140   1.640  0.3782  1.2806  2.9943
   20CHTO  C116 8050   4.882   1.152   1.578  0.2699  0.1301 -0.1886
   20CHTO  H220 8051   4.812   1.235   1.554  0.1807 -0.0235 -0.4627
   20CHTO   O79 8052   4.913   1.082   1.455  0.8249 -0.1221  0.1598
   20CHTO  H201 8053   4.834   1.058   1.411  1.1251  0.4503 -0.7185
   20CHTO  C120 8054   4.814   1.053   1.680  1.0175  0.4058  0.2309
   20CHTO  H224 8055   4.868   0.956   1.678 -0.4113 -0.3931 -0.2101
   20CHTO   N21 8056   4.676   1.022   1.626  0.4424 -0.1132  0.5149
   20CHTO  H211 8057   4.634   0.928   1.658  0.7113 -0.6565 -0.6929
   20CHTO  H212 8058   4.607   1.105   1.629  1.5731  0.9585 -1.6849
   20CHTO   O75 8059   5.049   1.334   1.566 -0.0409 -0.4902  0.6302
   20CHTO  C112 8060   5.144   1.301   1.449 -0.2536 -0.2287  0.1818
   20CHTO  H216 8061   5.136   1.195   1.422  1.4297 -0.8279  1.9542
   20CHTO   O73 8062   5.278   1.338   1.499 -0.3628 -0.0915  0.1802
   20CHTO  C113 8063   5.378   1.320   1.404 -0.2210 -0.3763  0.1154
   20CHTO  H217 8064   5.385   1.212   1.380  1.1390 -0.3653  0.4573
   20CHTO  C124 8065   5.510   1.332   1.484  0.5465 -0.5888  0.2963
   20CHTO   O83 8066   5.507   1.251   1.602 -0.4254  0.7003  0.3611
   20CHTO  H204 8067   5.556   1.176   1.574 -1.2653  0.2083  0.2189
   20CHTO  C109 8068   5.358   1.416   1.280 -0.4410  0.2702 -0.2180
   20CHTO  H213 8069   5.360   1.521   1.314 -0.6518 -0.3033  1.6148
   20CHTO  C110 8070   5.220   1.372   1.212  0.1705  0.9189 -0.0426
   20CHTO  H214 8071   5.231   1.269   1.178  4.2045  0.9827  0.8302
   20CHTO   O78 8072   5.202   1.455   1.095 -0.0727  0.1017 -0.1285
   20CHTO  H200 8073   5.132   1.420   1.043  0.6711  1.4780 -2.1238
   20CHTO  C111 8074   5.109   1.395   1.317 -0.2470 -0.1764  0.7343
   20CHTO  H215 8075   5.111   1.499   1.353 -0.1260 -0.0403  0.3360
   20CHTO   N19 8076   4.965   1.369   1.273  0.4308 -0.6167  0.2645
   20CHTO  H207 8077   4.905   1.458   1.261  0.3310 -0.9344 -1.7759
   20CHTO  H208 8078   4.945   1.298   1.194  0.1608  0.1687 -0.3868
   20CHTO   O74 8079   5.465   1.386   1.180  0.4058 -0.5217 -0.1416
   20CHTO  C115 8080   5.579   1.488   1.169  0.0546 -0.1596  0.5506
   20CHTO  H219 8081   5.571   1.566   1.245 -1.9576 -0.2592  0.4636
   20CHTO   O76 8082   5.721   1.415   1.194  0.1088 -0.0719  0.8684
   20CHTO  C122 8083   5.744   1.320   1.091  0.5306 -0.0166  0.3212
   20CHTO  H226 8084   5.674   1.237   1.104  3.1457 -2.2745  0.5888
   20CHTO  C126 8085   5.886   1.257   1.110  0.1598 -0.2111  0.3519
   20CHTO   O85 8086   5.990   1.349   1.113  0.5197 -0.1345 -0.2199
   20CHTO  H206 8087   5.997   1.389   1.028  1.8023 -0.9784 -0.5316
   20CHTO  C121 8088   5.738   1.379   0.945 -0.4998  0.3827 -0.0915
   20CHTO  H225 8089   5.839   1.368   0.902  0.1115  0.7991  1.2025
   20CHTO   O81 8090   5.635   1.301   0.875 -0.5221  0.1952  0.1318
   20CHTO  H202 8091   5.556   1.345   0.848 -0.8733 -0.1838  0.5310
   20CHTO  C119 8092   5.698   1.527   0.942 -0.1751  0.5644 -0.3991
   20CHTO  H223 8093   5.781   1.577   0.992  0.0529  1.3009 -1.4906
   20CHTO  C117 8094   5.561   1.550   1.024  0.1360 -0.6305 -0.0131
   20CHTO  H221 8095   5.477   1.500   0.977  0.2243 -3.4370  2.6937
   20CHTO   N20 8096   5.518   1.690   1.045 -0.4562 -0.2601  0.3707
   20CHTO  H209 8097   5.598   1.762   1.045  0.4601 -1.2509  0.2130
   20CHTO  H210 8098   5.456   1.715   0.960 -0.1822  2.2197  0.8800
   20CHTO   O80 8099   5.689   1.591   0.808  0.7843  0.3888 -0.0567
   20CHTO  C103 8100   5.807   1.605   0.716  0.3868  0.9828  0.6759
   20CHTO  H190 8101   5.900   1.589   0.771  1.3997 -3.3562 -1.9910
   20CHTO  C101 8102   5.806   1.512   0.594  0.4192  0.6419 -0.4527
   20CHTO  H188 8103   5.705   1.500   0.556  0.6687  1.2023 -1.2936
   20CHTO   O68 8104   5.873   1.362   0.642  0.1671  0.0289  0.0483
   20CHTO  H168 8105   5.836   1.339   0.725  1.4956 -2.0530  0.1154
   20CHTO   C99 8106   5.897   1.574   0.473 -0.0793 -0.1338  0.2554
   20CHTO  H186 8107   6.003   1.579   0.506  0.6291  0.1075 -1.9279
   20CHTO   N17 8108   5.903   1.489   0.358 -0.0080 -0.2120 -0.9154
   20CHTO  H174 8109   5.799   1.473   0.333 -0.8708 -0.1635  2.3546
   20CHTO  H175 8110   5.964   1.538   0.284  0.6691  1.7092  0.8503
   20CHTO   C97 8111   5.856   1.724   0.451  0.4655  0.2918  0.1198
   20CHTO  H184 8112   5.747   1.716   0.435  0.5639  2.1434 -1.6316
   20CHTO   O64 8113   5.885   1.796   0.574 -0.2376 -0.2970  0.1231
   20CHTO  C104 8114   5.794   1.765   0.683 -0.4450 -0.1596  0.5122
   20CHTO  H191 8115   5.691   1.787   0.658 -0.5602  0.3098  1.3731
   20CHTO  C108 8116   5.834   1.844   0.810 -0.3337  0.1860 -0.7545
   20CHTO   O71 8117   5.962   1.813   0.867 -0.2581 -0.4383  0.1756
   20CHTO  H171 8118   5.984   1.722   0.856  0.3771 -0.1420 -0.9695
   20CHTO   O62 8119   5.921   1.791   0.343  0.6351 -0.3958 -0.0122
   20CHTO   C91 8120   5.875   1.924   0.302 -0.3341 -0.2277 -0.3832
   20CHTO  H178 8121   5.821   1.972   0.383  1.3466 -0.0201  0.6431
   20CHTO   C92 8122   5.777   1.906   0.177  0.2731  0.7652  0.1504
   20CHTO  H179 8123   5.828   1.838   0.107 -1.4195 -0.9520  0.5293
   20CHTO   O66 8124   5.658   1.832   0.225  0.0422 -0.5127  0.0158
   20CHTO  H166 8125   5.624   1.868   0.305 -0.6219 -0.0602 -0.4655
   20CHTO   C93 8126   5.744   2.039   0.098  0.1693 -0.3891 -0.2533
   20CHTO  H180 8127   5.660   2.087   0.152  0.1270 -2.3463  1.4816
   20CHTO   N16 8128   5.683   2.006  -0.033 -0.3190 -0.6718  0.1305
   20CHTO  H172 8129   5.693   1.900  -0.047 -2.3404 -0.9821  0.8177
   20CHTO  H173 8130   5.578   2.033  -0.035 -1.0348 -3.2756  1.1815
   20CHTO   C94 8131   5.866   2.141   0.090  0.1021  0.2418  0.2093
   20CHTO  H181 8132   5.927   2.122   0.001  0.9476  1.9279  0.4113
   20CHTO   O61 8133   5.954   2.134   0.207  0.5073  0.0938 -0.0879
   20CHTO   C95 8134   5.995   2.005   0.252  0.0708 -0.3240  0.3948
   20CHTO  H182 8135   6.039   1.956   0.165 -1.3050  1.0023 -1.0961
   20CHTO  C106 8136   6.110   2.015   0.362 -0.2075  0.6079 -0.2089
   20CHTO   O69 8137   6.230   2.046   0.297 -0.1426 -0.3880  0.3885
   20CHTO  H169 8138   6.274   1.965   0.282 -3.1365 -1.8988 -0.6374
   20CHTO   O63 8139   5.801   2.309   0.088  0.2661 -0.3727  0.1321
   20CHTO   C96 8140   5.785   2.379  -0.049 -0.0614  0.2120 -0.1525
   20CHTO  H183 8141   5.733   2.310  -0.115  0.8756 -1.1347  0.5094
   20CHTO   C98 8142   5.916   2.424  -0.118 -0.2693  0.2887 -0.9224
   20CHTO  H185 8143   5.970   2.499  -0.057  2.4375 -1.5485 -1.0047
   20CHTO   O67 8144   6.004   2.309  -0.130 -0.0969  0.0409 -0.0986
   20CHTO  H167 8145   5.945   2.236  -0.134 -1.2360  1.0453 -3.4453
   20CHTO  C102 8146   5.890   2.491  -0.262  0.0010 -0.2433 -0.0203
   20CHTO  H189 8147   5.846   2.412  -0.325 -0.3169  0.8994 -1.2586
   20CHTO   N18 8148   6.008   2.546  -0.338  0.2368 -0.5041  0.1687
   20CHTO  H176 8149   6.046   2.627  -0.277 -2.5920 -0.5824  2.1288
   20CHTO  H177 8150   5.968   2.590  -0.428  0.4152  2.2751  1.3871
   20CHTO  C105 8151   5.779   2.600  -0.247 -0.8589  0.6003  0.2912
   20CHTO  H192 8152   5.822   2.688  -0.198 -2.5920  0.7782  1.5389
   20CHTO   O65 8153   5.670   2.562  -0.155 -0.0509  0.2697 -0.4399
   20CHTO  C100 8154   5.703   2.511  -0.026 -0.2115  0.4177  0.5878
   20CHTO  H187 8155   5.757   2.594   0.023 -1.4044  1.2751  0.4557
   20CHTO  C107 8156   5.579   2.487   0.051 -0.4837  0.4501 -0.8436
   20CHTO   O70 8157   5.600   2.500   0.193  0.0012 -0.1823  0.0683
   20CHTO  H170 8158   5.526   2.544   0.231  0.3631  0.5641 -0.0893
   20CHTO   O57 8159   5.730   2.629  -0.388  0.2309 -0.3811  0.2073
   20CHTO   C85 8160   5.644   2.740  -0.415 -0.2378 -0.0592  0.6190
   20CHTO  H157 8161   5.588   2.769  -0.324 -0.6651 -0.2393  0.4158
   20CHTO   C83 8162   5.531   2.715  -0.518  0.3758 -0.2049 -0.4074
   20CHTO  H155 8163   5.464   2.637  -0.481  0.9679 -0.2132  0.6772
   20CHTO   O56 8164   5.584   2.670  -0.648 -0.0986  0.2190 -0.0423
   20CHTO  H135 8165   5.650   2.734  -0.668 -0.9977  0.2328 -3.2008
   20CHTO   C81 8166   5.446   2.845  -0.535  0.1068  0.1290  0.3596
   20CHTO  H153 8167   5.413   2.878  -0.436  2.6978 -0.5930  1.5109
   20CHTO   N14 8168   5.318   2.827  -0.601  0.3404  0.0266  0.1447
   20CHTO  H141 8169   5.276   2.737  -0.561  1.1147 -0.5826 -0.3997
   20CHTO  H142 8170   5.252   2.909  -0.582  1.3382  1.0975 -0.9283
   20CHTO   C79 8171   5.539   2.959  -0.607 -0.6746  0.2244 -0.2455
   20CHTO  H151 8172   5.477   3.049  -0.610 -0.6291  0.3862  2.1257
   20CHTO   O52 8173   5.666   2.979  -0.527  0.0358 -0.0870 -0.0660
   20CHTO   C86 8174   5.733   2.859  -0.469  0.6416 -0.2148  0.5603
   20CHTO  H158 8175   5.799   2.830  -0.553  0.8301 -0.9366  0.9499
   20CHTO   C90 8176   5.827   2.915  -0.362  1.0187 -0.1344 -0.1866
   20CHTO   O60 8177   5.924   2.983  -0.435  0.3470  0.4615  0.1497
   20CHTO  H138 8178   5.950   2.933  -0.510 -1.2441  0.2278 -0.2739
   20CHTO   O50 8179   5.583   2.922  -0.739 -0.4473 -0.7075  0.3837
   20CHTO   C73 8180   5.679   2.932  -0.847  0.1566  0.1995 -0.4210
   20CHTO  H145 8181   5.745   2.844  -0.837 -0.6492 -0.3279  0.3839
   20CHTO   C74 8182   5.761   3.063  -0.838 -0.2458  0.1150 -0.5142
   20CHTO  H146 8183   5.817   3.071  -0.743  1.7795  1.5051 -1.8079
   20CHTO   O54 8184   5.870   3.051  -0.928  0.1070 -0.3303 -0.3412
   20CHTO  H133 8185   5.920   2.975  -0.905  3.5299  2.1988  1.1976
   20CHTO   C75 8186   5.670   3.193  -0.860 -0.0867  0.2528 -0.3901
   20CHTO  H147 8187   5.605   3.196  -0.772 -1.5913 -3.3092 -1.2861
   20CHTO   N13 8188   5.745   3.318  -0.870  0.1521 -0.4336 -0.0971
   20CHTO  H139 8189   5.851   3.301  -0.864  0.2233  0.2000  0.4124
   20CHTO  H140 8190   5.715   3.379  -0.787 -0.8196 -0.6060 -0.3098
   20CHTO   C76 8191   5.569   3.174  -0.986 -0.0412  0.1064  0.0845
   20CHTO  H148 8192   5.623   3.194  -1.079 -0.5477  0.4561 -0.1368
   20CHTO   O49 8193   5.515   3.040  -0.997 -0.2051  0.1369  0.0715
   20CHTO   C77 8194   5.604   2.927  -0.980  0.0140 -0.3249 -0.2922
   20CHTO  H149 8195   5.673   2.923  -1.064 -0.6695  1.6679 -0.9832
   20CHTO   C88 8196   5.519   2.793  -0.989 -0.0585  0.1324  0.9757
   20CHTO   O58 8197   5.581   2.672  -0.974  0.5395  0.0918  0.7299
   20CHTO  H136 8198   5.666   2.675  -1.014  0.0559  0.9656 -0.2404
   20CHTO   O51 8199   5.446   3.268  -0.972  0.7385 -0.2730 -0.6778
   20CHTO   C78 8200   5.344   3.249  -0.851 -1.5462  0.6707  0.5472
   20CHTO  H150 8201   5.390   3.199  -0.764  0.6079  3.3661  1.0270
   20CHTO   C80 8202   5.217   3.182  -0.894 -0.0791  0.4162 -0.2183
   20CHTO  H152 8203   5.172   3.238  -0.978  0.3223 -1.2928 -1.5927
   20CHTO   O55 8204   5.251   3.053  -0.943  0.7522  0.0293  0.3456
   20CHTO  H134 8205   5.175   3.003  -0.963 -0.2648  1.4123  0.6884
   20CHTO   C84 8206   5.111   3.169  -0.772 -0.2039 -0.0958  0.0755
   20CHTO  H156 8207   5.154   3.103  -0.696 -0.1782  0.5162  0.5931
   20CHTO   N15 8208   4.980   3.106  -0.807 -0.7327  0.0349  0.0611
   20CHTO  H143 8209   4.994   3.000  -0.813  0.4421  0.2404 -1.2636
   20CHTO  H144 8210   4.897   3.130  -0.744  0.6646  2.7191  0.9676
   20CHTO   C87 8211   5.088   3.306  -0.700 -0.0941  0.0284  0.0698
   20CHTO  H159 8212   5.030   3.381  -0.755  0.4898  0.7702  0.4482
   20CHTO   O53 8213   5.242   3.368  -0.668  0.4858 -0.2172  0.5242
   20CHTO   C82 8214   5.313   3.388  -0.789  0.1909 -0.4026 -0.4952
   20CHTO  H154 8215   5.250   3.444  -0.858 -1.6077 -2.1901 -0.3303
   20CHTO   C89 8216   5.433   3.484  -0.750 -0.2644 -0.2821 -1.0047
   20CHTO   O59 8217   5.504   3.556  -0.854  0.1932  0.1675 -0.0394
   20CHTO  H137 8218   5.571   3.616  -0.828 -1.0421  1.6003 -0.1062
   20CHTO   O45 8219   5.025   3.292  -0.548  0.2518  0.2698  0.2277
   20CHTO   C67 8220   5.104   3.216  -0.451  0.2374  0.5553 -0.4869
   20CHTO  H124 8221   5.173   3.141  -0.489 -0.2821  1.1737 -2.7130
   20CHTO   C65 8222   5.195   3.322  -0.369  0.1101 -0.0036 -0.7459
   20CHTO  H122 8223   5.216   3.405  -0.436 -4.6790  0.6053 -1.6411
   20CHTO   O44 8224   5.317   3.254  -0.341  0.2979  0.5433 -0.4962
   20CHTO  H102 8225   5.284   3.198  -0.274 -1.7182 -0.0064 -1.9119
   20CHTO   C63 8226   5.106   3.367  -0.243  0.0864 -0.2662  0.1274
   20CHTO  H120 8227   5.007   3.387  -0.285  1.3139  0.0640 -2.7185
   20CHTO   N11 8228   5.170   3.493  -0.176  0.3072 -0.5525 -0.4525
   20CHTO  H108 8229   5.261   3.526  -0.222  1.1148 -2.6067 -0.3671
   20CHTO  H109 8230   5.201   3.456  -0.081  0.6495 -0.5758 -0.5730
   20CHTO   C61 8231   5.097   3.245  -0.149  0.2558  0.1421  0.0095
   20CHTO  H118 8232   5.012   3.272  -0.084  0.6296  0.9829  0.1514
   20CHTO   O40 8233   5.064   3.122  -0.216 -0.2211  0.1726  0.5210
   20CHTO   C68 8234   5.004   3.140  -0.353  0.4018 -0.0619 -0.0528
   20CHTO  H125 8235   4.908   3.194  -0.347  0.1080 -0.6088  0.2661
   20CHTO   C72 8236   4.975   2.997  -0.396  0.4912 -0.4704 -0.2799
   20CHTO   O48 8237   4.871   2.991  -0.501 -0.0269  0.3151 -0.6318
   20CHTO  H105 8238   4.869   2.900  -0.522  1.4469 -0.6508  3.1300
   20CHTO   O38 8239   5.221   3.228  -0.084 -0.2389 -0.1015 -0.4080
   20CHTO   C55 8240   5.220   3.154   0.043  1.0557 -0.3773  0.1662
   20CHTO  H112 8241   5.123   3.103   0.055  1.6731 -1.2712  1.5408
   20CHTO   C56 8242   5.244   3.256   0.160  0.1479 -0.0261 -0.4076
   20CHTO  H113 8243   5.337   3.310   0.140 -0.3902  1.3834  0.7840
   20CHTO   O42 8244   5.142   3.353   0.159 -0.0219 -0.2396  0.3774
   20CHTO  H100 8245   5.122   3.395   0.241 -1.3793  1.9108 -1.0172
   20CHTO   C57 8246   5.247   3.175   0.296  0.0714 -0.2336 -0.4288
   20CHTO  H114 8247   5.149   3.131   0.317 -1.2389  1.2918 -3.0836
   20CHTO   N10 8248   5.289   3.267   0.407 -0.0377 -0.2116  0.2624
   20CHTO  H106 8249   5.248   3.250   0.505  1.3383  0.6020  0.9949
   20CHTO  H107 8250   5.276   3.372   0.386 -1.3880 -0.1252  1.4326
   20CHTO   C58 8251   5.348   3.060   0.291 -0.1511  0.1523  0.2508
   20CHTO  H115 8252   5.450   3.103   0.298 -0.0916  0.1265 -0.4006
   20CHTO   O37 8253   5.329   2.975   0.177 -0.4724  0.1994  0.5999
   20CHTO   C59 8254   5.332   3.051   0.055 -0.6354  0.4362 -0.0754
   20CHTO  H116 8255   5.427   3.106   0.051  0.2622 -1.0763  0.2028
   20CHTO   C70 8256   5.329   2.947  -0.060 -0.0771 -0.4664  0.3000
   20CHTO   O46 8257   5.371   3.012  -0.182 -0.1106 -0.1201  0.0431
   20CHTO  H103 8258   5.399   3.101  -0.176 -1.0655  0.3159 -1.7188
   20CHTO   O39 8259   5.325   2.966   0.405  0.0761 -1.3248  0.1609
   20CHTO   C60 8260   5.430   2.864   0.431  1.0758 -0.0776  0.0228
   20CHTO  H117 8261   5.499   2.851   0.348  1.1571 -1.4892  0.3046
   20CHTO   C62 8262   5.522   2.894   0.551 -0.5949 -0.2611 -0.0978
   20CHTO  H119 8263   5.562   2.995   0.527 -1.2817  0.1516  0.4740
   20CHTO   O43 8264   5.436   2.906   0.667  0.0801 -0.5964 -0.0284
   20CHTO  H101 8265   5.420   2.994   0.693 -0.8602 -1.1580  1.3877
   20CHTO   C66 8266   5.645   2.793   0.566  0.1299  1.0322 -0.4059
   20CHTO  H123 8267   5.687   2.764   0.469  0.5148 -1.6767  0.5327
   20CHTO   N12 8268   5.756   2.844   0.651  0.1110 -0.9653  0.0659
   20CHTO  H110 8269   5.850   2.792   0.642 -0.3108 -1.3437 -2.6032
   20CHTO  H111 8270   5.766   2.948   0.626  0.1629 -1.1645 -0.7474
   20CHTO   C69 8271   5.590   2.650   0.606 -0.2390 -0.2292 -0.2979
   20CHTO  H126 8272   5.548   2.644   0.708  2.2404 -1.1796  0.7166
   20CHTO   O41 8273   5.481   2.610   0.503  0.3593  0.4271  0.2416
   20CHTO   C64 8274   5.360   2.725   0.462 -0.3034  0.0358  0.1695
   20CHTO  H121 8275   5.283   2.720   0.542  0.6862 -1.5584  1.0514
   20CHTO   C71 8276   5.277   2.672   0.336  0.2630 -0.3637 -0.0781
   20CHTO   O47 8277   5.360   2.601   0.241 -0.3911  0.3512  0.6608
   20CHTO  H104 8278   5.402   2.526   0.279 -0.5283  0.8280  1.7912
   20CHTO   O34 8279   5.698   2.559   0.611  0.0478  0.0898 -0.6439
   20CHTO   C49 8280   5.650   2.389   0.664  0.1967  0.0013 -0.4841
   20CHTO   H91 8281   5.575   2.360   0.590  1.2015 -0.5610 -1.2858
   20CHTO   C47 8282   5.582   2.387   0.807  0.4653  0.7371  0.1032
   20CHTO   H89 8283   5.504   2.465   0.798 -0.0422  0.0610 -1.5734
   20CHTO   O33 8284   5.679   2.442   0.906  0.1425  0.0575  0.7817
   20CHTO   H70 8285   5.759   2.394   0.915 -0.2744 -0.9412 -0.6144
   20CHTO   C45 8286   5.535   2.241   0.848  0.1061 -0.5645 -0.2531
   20CHTO   H87 8287   5.583   2.221   0.945  0.1903 -0.6029 -0.3032
   20CHTO    N8 8288   5.385   2.243   0.864 -0.3288  0.2334 -0.4053
   20CHTO   H75 8289   5.332   2.151   0.883 -2.4648  1.2476 -1.2100
   20CHTO   H76 8290   5.370   2.315   0.943  1.6847 -0.5699  0.7436
   20CHTO   C43 8291   5.581   2.127   0.747  0.5699 -0.4872 -0.2456
   20CHTO   H85 8292   5.567   2.036   0.805  0.6316  1.6632  3.2587
   20CHTO   O29 8293   5.720   2.147   0.709 -0.4383  0.4073 -0.1562
   20CHTO   C50 8294   5.764   2.283   0.668  0.1456 -0.6356  0.0195
   20CHTO   H92 8295   5.843   2.321   0.734 -0.9295  0.1271  0.8898
   20CHTO   C54 8296   5.834   2.279   0.526 -0.2588 -0.0725  0.3445
   20CHTO   O36 8297   5.742   2.258   0.425  0.0497  0.4090  0.4925
   20CHTO   H72 8298   5.788   2.216   0.354 -1.1418  1.4262 -0.9025
   20CHTO   O27 8299   5.507   2.111   0.627  0.1647 -0.3155 -0.0391
   20CHTO   C37 8300   5.405   2.054   0.550  0.0283 -0.1363 -1.0831
   20CHTO   H79 8301   5.309   2.067   0.604  0.7420  0.8117 -0.0147
   20CHTO   C38 8302   5.393   2.144   0.420 -0.6982 -0.2263  0.3213
   20CHTO   H80 8303   5.495   2.156   0.380  0.1042 -1.9643  1.7471
   20CHTO   O31 8304   5.346   2.273   0.461  0.3934 -0.2994 -0.0142
   20CHTO   H68 8305   5.340   2.313   0.377 -0.7283 -2.2971 -0.9329
   20CHTO   C39 8306   5.305   2.071   0.309  0.1861  0.2803 -0.6929
   20CHTO   H81 8307   5.201   2.077   0.339  0.8553  1.8868  1.3794
   20CHTO    N7 8308   5.312   2.149   0.181 -0.0532 -0.4262  0.1068
   20CHTO   H73 8309   5.347   2.250   0.196  0.5627 -0.4493 -1.1897
   20CHTO   H74 8310   5.362   2.089   0.107  3.1795 -0.0438  1.8854
   20CHTO   C40 8311   5.347   1.921   0.287  0.2527 -0.2277  0.1858
   20CHTO   H82 8312   5.449   1.924   0.249  0.4905  0.8165  0.8797
   20CHTO   O26 8313   5.340   1.851   0.411  0.0375  0.2589  0.2795
   20CHTO   C41 8314   5.425   1.902   0.515  0.2750  0.1498  0.0104
   20CHTO   H83 8315   5.532   1.884   0.501  0.3846 -1.2087  2.2831
   20CHTO   C52 8316   5.399   1.825   0.648 -0.0633  0.0708  0.1293
   20CHTO   O35 8317   5.392   1.666   0.617 -0.1148  0.2972 -0.2976
   20CHTO   H71 8318   5.350   1.629   0.693  0.7415  2.1556  1.1350
   20CHTO   O28 8319   5.256   1.854   0.195 -0.0741 -0.0320 -0.5199
   20CHTO   C42 8320   5.304   1.740   0.118 -0.0798  0.7946 -0.7455
   20CHTO   H84 8321   5.208   1.701   0.085  0.6996 -1.1364 -0.7990
   20CHTO   C44 8322   5.370   1.628   0.206  0.4547 -0.2438 -0.1525
   20CHTO   H86 8323   5.447   1.678   0.264  0.5232  2.2695 -2.3068
   20CHTO   O32 8324   5.270   1.568   0.295 -0.9163  0.4759  0.8428
   20CHTO   H69 8325   5.196   1.544   0.243 -1.8582  0.1377  2.3255
   20CHTO   C48 8326   5.438   1.510   0.122  0.5014  0.5715  0.0955
   20CHTO   H90 8327   5.365   1.447   0.072  2.5289  0.3722 -2.6882
   20CHTO    N9 8328   5.525   1.412   0.197 -0.2710 -0.5309 -0.1564
   20CHTO   H77 8329   5.561   1.345   0.120  0.7002  1.5906 -1.5713
   20CHTO   H78 8330   5.456   1.365   0.266  0.7755  0.5499  1.6624
   20CHTO   C51 8331   5.517   1.575   0.007  0.4203  0.5651  0.2008
   20CHTO   H93 8332   5.597   1.635   0.050  3.4856 -1.3122 -2.6716
   20CHTO   O30 8333   5.430   1.650  -0.070  0.1138 -0.5306 -0.2842
   20CHTO   C46 8334   5.389   1.771  -0.008  0.1494  0.2610 -0.1931
   20CHTO   H88 8335   5.479   1.825   0.021  1.1912 -1.3943 -0.2806
   20CHTO   C53 8336   5.300   1.851  -0.098  0.3428 -0.3884 -0.1334
   20CHTO   O72 8337   5.369   1.933  -0.192  0.1641  0.2433 -0.3081
   20CHTO  H199 8338   5.434   1.984  -0.147  1.0757 -0.9852 -0.1905
   20CHTO   O22 8339   5.568   1.489  -0.097 -0.4235  0.2237 -0.2394
   20CHTO   C31 8340   5.702   1.502  -0.159 -0.1836 -0.4618 -0.1805
   20CHTO   H59 8341   5.686   1.467  -0.263 -2.8940  0.3340 -0.0823
   20CHTO   C29 8342   5.770   1.644  -0.166 -0.6440  0.3362 -0.8227
   20CHTO   H57 8343   5.785   1.675  -0.061 -0.6819  0.0705 -0.7386
   20CHTO   O21 8344   5.682   1.744  -0.223 -0.3051  0.0522  0.0248
   20CHTO   H37 8345   5.704   1.832  -0.199 -1.5826  0.3340  0.2093
   20CHTO   C27 8346   5.907   1.641  -0.227 -0.5257  0.0128 -0.6417
   20CHTO   H55 8347   5.889   1.632  -0.336 -0.0702 -0.0743 -0.7121
   20CHTO    N5 8348   5.982   1.766  -0.209 -0.0745 -0.2628  0.0661
   20CHTO   H43 8349   5.990   1.818  -0.304 -3.1842  1.6636  0.7982
   20CHTO   H44 8350   6.086   1.747  -0.185  0.3246 -0.1500 -1.4941
   20CHTO   C25 8351   5.996   1.519  -0.177 -0.2675  0.3526  0.0950
   20CHTO   H53 8352   6.026   1.534  -0.072  0.3644  0.4202 -0.0925
   20CHTO   O17 8353   5.924   1.390  -0.171 -0.2999 -0.5077 -0.0306
   20CHTO   C32 8354   5.801   1.402  -0.093 -0.2552  0.5368  0.3343
   20CHTO   H60 8355   5.820   1.426   0.012 -0.3445 -0.8737  0.6934
   20CHTO   C36 8356   5.739   1.261  -0.083 -0.2095 -0.0082  0.2432
   20CHTO   O25 8357   5.715   1.198  -0.209 -0.7261 -0.3084 -0.2665
   20CHTO   H40 8358   5.794   1.157  -0.240 -0.5928 -0.6118  0.4625
   20CHTO   O15 8359   6.119   1.506  -0.252  0.3180  0.2831 -0.3387
   20CHTO   C19 8360   6.262   1.481  -0.273 -0.3890 -0.7995  0.1461
   20CHTO   H47 8361   6.261   1.506  -0.380 -0.7842  3.0926  1.0038
   20CHTO   C20 8362   6.359   1.584  -0.196 -0.4121  0.3958 -0.7448
   20CHTO   H48 8363   6.355   1.572  -0.087  1.0324 -2.5366 -0.9607
   20CHTO   O19 8364   6.314   1.711  -0.251  0.1694  0.2311 -0.2927
   20CHTO   H35 8365   6.225   1.720  -0.221  0.6781 -0.6072  1.5227
   20CHTO   C21 8366   6.510   1.560  -0.237 -0.5170  0.0001 -0.3223
   20CHTO   H49 8367   6.522   1.594  -0.340  3.0772  2.6866  0.8706
   20CHTO    N4 8368   6.610   1.635  -0.157  0.2196  1.2518  0.1089
   20CHTO   H41 8369   6.568   1.726  -0.117  0.5347  1.5235 -0.1783
   20CHTO   H42 8370   6.660   1.579  -0.079 -0.1794 -1.0435 -1.2614
   20CHTO   C22 8371   6.536   1.409  -0.228 -0.3005 -0.1845 -0.2536
   20CHTO   H50 8372   6.533   1.369  -0.127  2.8565  0.2052  0.0304
   20CHTO   O14 8373   6.441   1.337  -0.313 -0.2918 -0.3534 -0.0458
   20CHTO   C23 8374   6.311   1.332  -0.257  0.4164 -0.3729 -0.6148
   20CHTO   H51 8375   6.328   1.301  -0.153  1.4926 -0.1561 -0.7196
   20CHTO   C34 8376   6.235   1.229  -0.330 -0.1070  0.2205  0.0741
   20CHTO   O23 8377   6.103   1.192  -0.286  0.1162  0.0592  0.2083
   20CHTO   H38 8378   6.053   1.271  -0.276 -0.1970  0.6092 -4.4651
   20CHTO   O16 8379   6.663   1.368  -0.288 -0.1661 -0.4551  0.5103
   20CHTO   C24 8380   6.690   1.223  -0.297  0.3088  0.5442  0.1446
   20CHTO   H52 8381   6.599   1.163  -0.291  0.7492 -0.0953  0.4335
   20CHTO   C26 8382   6.777   1.176  -0.180  0.5737  0.3775 -0.0103
   20CHTO   H54 8383   6.865   1.243  -0.172  1.9548 -1.3295 -0.3374
   20CHTO   O20 8384   6.691   1.195  -0.067  0.5541  0.0148  0.0988
   20CHTO   H36 8385   6.721   1.159   0.014 -1.2147 -1.5776  0.0749
   20CHTO   C30 8386   6.825   1.031  -0.198 -0.2208  0.1090 -0.2982
   20CHTO   H58 8387   6.742   0.960  -0.179  0.1601  0.0937  1.4258
   20CHTO    N6 8388   6.923   0.997  -0.092  0.2789  0.0547 -0.4683
   20CHTO   H45 8389   6.932   0.890  -0.098  3.2878  0.2748 -0.9085
   20CHTO   H46 8390   6.878   1.025   0.002  1.3767 -1.2064  0.4489
   20CHTO   C33 8391   6.892   1.012  -0.336  0.4945 -0.2094  0.6291
   20CHTO   H61 8392   6.981   1.075  -0.346 -0.4615  1.1754  0.7062
   20CHTO   O18 8393   6.803   1.050  -0.443 -0.0499 -0.0542 -0.1128
   20CHTO   C28 8394   6.755   1.188  -0.431  0.3496  0.4981 -0.5613
   20CHTO   H56 8395   6.845   1.248  -0.445  0.1933  0.7811 -0.3818
   20CHTO   C35 8396   6.652   1.219  -0.540 -0.3483  0.3274  0.0245
   20CHTO   O24 8397   6.692   1.192  -0.677  0.1058  0.1577 -0.9926
   20CHTO   H39 8398   6.657   1.108  -0.696  0.6659 -0.2703 -0.1648
   20CHTO    O9 8399   6.933   0.870  -0.350  0.3095 -0.1896 -0.3721
   20CHTO   C13 8400   6.845   0.741  -0.456 -0.4878 -0.5562 -0.3185
   20CHTO   H26 8401   6.899   0.715  -0.549  0.4021  1.0238 -0.2600
   20CHTO   C11 8402   6.686   0.776  -0.483 -0.1506  0.3594 -0.6421
   20CHTO   H24 8403   6.680   0.865  -0.546  1.9008  0.2070 -1.0953
   20CHTO    O8 8404   6.620   0.827  -0.367 -0.1273  0.6145 -0.2644
   20CHTO    H3 8405   6.585   0.756  -0.317 -0.0807  0.0365 -1.0456
   20CHTO    C9 8406   6.621   0.654  -0.553 -0.4045 -0.1193  0.0706
   20CHTO   H22 8407   6.679   0.636  -0.645 -0.1216 -1.9163  0.5812
   20CHTO    N2 8408   6.495   0.680  -0.608  0.6381 -0.4419  0.8595
   20CHTO   H10 8409   6.421   0.708  -0.535  0.4005  0.8564  0.1440
   20CHTO   H11 8410   6.458   0.594  -0.663  0.7737 -0.8080  1.3475
   20CHTO    C7 8411   6.623   0.533  -0.455 -0.2106  0.2352  0.4724
   20CHTO   H20 8412   6.588   0.455  -0.526 -0.4728  1.3621 -0.6539
   20CHTO    O4 8413   6.752   0.498  -0.414  0.0254 -0.2287  0.4634
   20CHTO   C14 8414   6.848   0.599  -0.377  0.4613 -0.1483 -0.6489
   20CHTO   H27 8415   6.944   0.552  -0.407  0.9152 -1.2000  2.3572
   20CHTO   C18 8416   6.850   0.612  -0.221  0.0791  0.0922  0.3325
   20CHTO   O13 8417   6.723   0.641  -0.156 -0.0765 -0.3661  0.0584
   20CHTO    H7 8418   6.718   0.606  -0.069  1.2010 -0.0269  0.2811
   20CHTO    O2 8419   6.534   0.550  -0.312 -0.0307 -0.6031 -0.3299
   20CHTO    C1 8420   6.449   0.437  -0.275  0.0186  0.2882  0.0836
   20CHTO   H14 8421   6.442   0.444  -0.164 -0.6622 -0.9355  0.1351
   20CHTO    C2 8422   6.502   0.292  -0.306  0.1751  0.7521  0.1949
   20CHTO   H15 8423   6.492   0.269  -0.413 -2.0700 -3.0838  1.1030
   20CHTO    O6 8424   6.631   0.276  -0.249 -0.5390 -0.1689 -0.0307
   20CHTO    H1 8425   6.685   0.330  -0.304  0.0144 -1.4996 -0.8073
   20CHTO    C3 8426   6.399   0.191  -0.233  0.0328 -0.0778  0.3862
   20CHTO   H16 8427   6.396   0.224  -0.129  1.5206  1.0886  0.0829
   20CHTO    N1 8428   6.430   0.041  -0.229  0.4638 -0.3160  0.0245
   20CHTO    H8 8429   6.437   0.005  -0.127 -1.8475 -2.3107 -0.5060
   20CHTO    H9 8430   6.518   0.022  -0.289  0.0432 -1.7756 -0.1351
   20CHTO    C4 8431   6.256   0.228  -0.296 -0.4635  0.3474  0.6591
   20CHTO   H17 8432   6.252   0.191  -0.398  1.4203 -0.3510  0.8377
   20CHTO    O1 8433   6.221   0.368  -0.293  0.2661 -0.3068 -0.1658
   20CHTO    C5 8434   6.313   0.459  -0.343  0.2864 -0.6651 -0.0252
   20CHTO   H18 8435   6.321   0.447  -0.451  1.1107  1.2521 -0.2115
   20CHTO   C16 8436   6.255   0.602  -0.316 -0.1917 -1.1422  0.1963
   20CHTO   O11 8437   6.123   0.638  -0.369 -0.1836  0.4456  0.8900
   20CHTO    H5 8438   6.141   0.668  -0.457  1.0485  0.2176  1.0479
   20CHTO    O3 8439   6.145   0.168  -0.223 -0.0657 -0.0186 -0.0771
   20CHTO    C6 8440   6.014   0.167  -0.295 -0.2107 -0.9971 -0.2100
   20CHTO   H19 8441   6.007   0.223  -0.388  0.2217  0.0769  0.3966
   20CHTO    C8 8442   5.988   0.017  -0.325 -0.1129 -0.0227  0.7050
   20CHTO   H21 8443   5.998  -0.039  -0.232  0.5238  2.1602  1.9847
   20CHTO    O7 8444   6.085  -0.023  -0.424  0.2548  0.5325  0.0988
   20CHTO    H2 8445   6.104  -0.114  -0.410  1.4646  0.6530 -0.7330
   20CHTO   C12 8446   5.843  -0.017  -0.377  0.0482  0.0082 -0.0860
   20CHTO   H25 8447   5.834   0.026  -0.480 -2.6554 -1.7060 -0.5931
   20CHTO    N3 8448   5.814  -0.166  -0.389  0.2292  0.4456  0.0715
   20CHTO   H12 8449   5.816  -0.197  -0.492  0.3390 -1.0794  0.5243
   20CHTO   H13 8450   5.719  -0.181  -0.340  1.8565 -1.1122  2.8265
   20CHTO   C15 8451   5.744   0.063  -0.300 -0.4091  0.3033  0.2798
   20CHTO   H28 8452   5.721   0.010  -0.207  1.6497 -3.6641 -1.3506
   20CHTO   O10 8453   5.625   0.089  -0.378 -0.1222  0.0453  0.3617
   20CHTO    H4 8454   5.549   0.054  -0.336 -0.8581  1.7056  0.4613
   20CHTO    O5 8455   5.775   0.199  -0.276 -0.1406  0.0854 -0.0239
   20CHTO   C10 8456   5.898   0.219  -0.202  0.7955 -0.5710  0.4845
   20CHTO   H23 8457   5.888   0.161  -0.110 -2.2733  2.5057  2.2198
   20CHTO   C17 8458   5.922   0.360  -0.160 -0.4775  0.2551 -0.1579
   20CHTO   O12 8459   5.806   0.413  -0.087 -0.0588  0.2589  0.6012
   20CHTO    H6 8460   5.825   0.385   0.001  2.4978  2.1046  0.6857
   21GLOH   H03 8461   3.538   9.498   2.681 -1.2693  0.6591 -0.2749
   21GLOH    O1 8462   3.521   9.594   2.675 -0.1507  0.8591 -0.4723
   21GLOH    C1 8463   3.625   9.661   2.748 -0.0348  0.1460  0.4519
   21GLOH   H02 8464   3.725   9.630   2.715 -0.0779  1.2645 -0.7973
   21GLOH   H08 8465   3.618   9.633   2.853  0.9106 -3.1587 -0.2981
   21GLOH    C2 8466   3.620   9.814   2.746  0.0310  0.1296 -0.0445
   21GLOH   H04 8467   3.538   9.842   2.813 -0.7331 -0.3724 -0.7543
   21GLOH    O2 8468   3.733   9.889   2.806  0.0334 -0.0047  0.5218
   21GLOH   H05 8469   3.710   9.960   2.868 -1.7355 -0.7865  0.7886
   21GLOH    C3 8470   3.588   9.861   2.598  0.4222 -0.0043 -0.3010
   21GLOH   H06 8471   3.675   9.823   2.545 -0.0030 -0.0486 -0.9629
   21GLOH   H07 8472   3.594   9.970   2.602  1.2699 -0.0573 -0.1281
   21GLOH    O3 8473   3.471   9.812   2.537  0.8192  0.1325  0.4202
   21GLOH   H01 8474   3.469   9.716   2.555  0.8039  0.1164  0.3328
   22GLOH   H03 8475   4.171   0.036   0.289  0.5028 -0.5443  1.4465
   22GLOH    O1 8476   4.265   0.025   0.266  0.3073  0.2337  0.2016
   22GLOH    C1 8477   4.339   0.096   0.371 -0.2306  0.0917  0.1306
   22GLOH   H02 8478   4.446   0.075   0.359 -0.3431 -0.5921  0.2957
   22GLOH   H08 8479   4.325   0.052   0.470  1.2400 -0.6651  0.0219
   22GLOH    C2 8480   4.320   0.247   0.373 -0.5411  0.6632 -0.4535
   22GLOH   H04 8481   4.347   0.288   0.274 -2.2815 -1.1810 -1.7258
   22GLOH    O2 8482   4.189   0.284   0.414 -0.1152 -0.1565 -0.7619
   22GLOH   H05 8483   4.132   0.240   0.349 -1.0479  1.2702 -0.9273
   22GLOH    C3 8484   4.416   0.308   0.473  0.4988 -0.3944 -0.0388
   22GLOH   H06 8485   4.515   0.263   0.461 -0.0771 -1.3188 -1.6742
   22GLOH   H07 8486   4.395   0.282   0.576  1.5851  2.4694  0.9378
   22GLOH    O3 8487   4.420   0.449   0.471 -0.4323  0.7992 -0.0717
   22GLOH   H01 8488   4.390   0.484   0.385  1.7456 -1.0127 -1.6287
   23GLOH   H03 8489   3.089   6.162   1.111  0.0457  0.2190  0.6288
   23GLOH    O1 8490   3.085   6.156   1.014  0.4638  0.1949  0.6120
   23GLOH    C1 8491   3.177   6.049   0.985 -0.5743  0.1027  0.0944
   23GLOH   H02 8492   3.232   6.019   1.074  1.1718  0.5399 -0.8146
   23GLOH   H08 8493   3.251   6.077   0.909 -1.4742  3.4798  0.3773
   23GLOH    C2 8494   3.099   5.918   0.945  0.6868 -0.7520  1.3468
   23GLOH   H04 8495   3.182   5.847   0.931  1.7001  0.6405  0.1258
   23GLOH    O2 8496   3.001   5.859   1.037  0.1847  0.0191  0.0922
   23GLOH   H05 8497   3.025   5.869   1.131 -1.3106 -1.8573  0.6857
   23GLOH    C3 8498   3.030   5.923   0.811  0.4388  0.3410  0.2975
   23GLOH   H06 8499   2.949   5.994   0.826  0.3410 -0.3217  3.3954
   23GLOH   H07 8500   2.992   5.824   0.785  2.8969 -0.7549  0.7234
   23GLOH    O3 8501   3.102   5.979   0.702  0.1113  0.0005  0.0687
   23GLOH   H01 8502   3.199   5.971   0.707  0.1132 -3.1367 -3.0334
   24GLOH   H03 8503   5.023   1.933   2.568 -1.9046  0.8734  0.9175
   24GLOH    O1 8504   5.000   1.839   2.579 -0.1223  0.3244  0.0513
   24GLOH    C1 8505   4.931   1.835   2.706 -0.5612  0.2182 -0.0543
   24GLOH   H02 8506   5.002   1.807   2.784  0.0968  3.1209  0.4569
   24GLOH   H08 8507   4.850   1.763   2.717  0.6540 -1.1533 -0.0090
   24GLOH    C2 8508   4.877   1.979   2.749  0.2718  0.2094 -0.2103
   24GLOH   H04 8509   4.801   2.011   2.676 -0.0646 -1.0197 -0.4049
   24GLOH    O2 8510   4.821   1.998   2.881 -0.1722 -0.1666 -0.1252
   24GLOH   H05 8511   4.743   2.055   2.871 -0.3726 -0.2285  0.9391
   24GLOH    C3 8512   4.985   2.080   2.714 -0.3274 -0.5776 -0.0447
   24GLOH   H06 8513   5.080   2.070   2.766 -0.6359  1.1651  0.8618
   24GLOH   H07 8514   4.954   2.174   2.759 -0.2659  0.6051 -2.3740
   24GLOH    O3 8515   5.011   2.094   2.571  0.0970  0.5720 -0.0153
   24GLOH   H01 8516   4.934   2.124   2.518 -0.6323 -1.7216 -0.3028
   25GLOH   H03 8517   4.357   1.711   2.671  2.7253  1.9379 -0.2501
   25GLOH    O1 8518   4.328   1.703   2.578 -0.1713  0.3793  0.7248
   25GLOH    C1 8519   4.236   1.600   2.551 -0.2711  0.3699 -0.2516
   25GLOH   H02 8520   4.226   1.599   2.443 -0.5757 -0.8943 -0.2171
   25GLOH   H08 8521   4.137   1.614   2.595  0.9827 -2.7240  3.9000
   25GLOH    C2 8522   4.268   1.458   2.600 -0.2653  0.6363 -0.1888
   25GLOH   H04 8523   4.269   1.454   2.710 -1.6711  0.3420 -0.1751
   25GLOH    O2 8524   4.164   1.365   2.546  0.3409 -0.1175  0.7269
   25GLOH   H05 8525   4.163   1.271   2.570  1.3650 -0.7133 -1.4720
   25GLOH    C3 8526   4.410   1.420   2.548  0.1608  0.0203 -0.0449
   25GLOH   H06 8527   4.417   1.471   2.453  1.7282  1.2597  0.7247
   25GLOH   H07 8528   4.416   1.311   2.541  2.6954  0.0707  0.6641
   25GLOH    O3 8529   4.509   1.465   2.639  0.0077  0.0040  0.5111
   25GLOH   H01 8530   4.501   1.416   2.723  0.0982 -2.3725 -0.8297
   26GLOH   H03 8531   4.838   3.568   2.466 -2.1914  1.0724 -0.1252
   26GLOH    O1 8532   4.809   3.541   2.377 -0.0356  0.0307 -0.5392
   26GLOH    C1 8533   4.815   3.657   2.292  0.7376  0.4274  0.0644
   26GLOH   H02 8534   4.752   3.737   2.332  1.5223  0.5591  1.0540
   26GLOH   H08 8535   4.776   3.640   2.192 -0.5554  1.3786  0.3925
   26GLOH    C2 8536   4.950   3.717   2.260  0.4722  0.7082  0.4717
   26GLOH   H04 8537   5.010   3.633   2.223 -1.1842 -0.4630  0.3644
   26GLOH    O2 8538   4.935   3.821   2.161 -0.4545  0.0694  0.3840
   26GLOH   H05 8539   4.876   3.785   2.092 -2.2574  0.0752  1.9033
   26GLOH    C3 8540   5.024   3.764   2.382  0.3959  0.0219  0.2766
   26GLOH   H06 8541   5.116   3.811   2.347 -1.0399  0.3237 -3.1981
   26GLOH   H07 8542   5.052   3.681   2.448 -0.0069  2.0923  3.1694
   26GLOH    O3 8543   4.945   3.864   2.452 -0.1140  0.2222 -0.1620
   26GLOH   H01 8544   4.886   3.822   2.517 -0.8196  1.9830  0.3615
   27GLOH   H03 8545   3.671   4.737   2.818  1.1112  1.0767 -0.7954
   27GLOH    O1 8546   3.658   4.746   2.722 -0.5763  0.6808 -0.6187
   27GLOH    C1 8547   3.642   4.884   2.686  0.0098  0.0927 -0.4531
   27GLOH   H02 8548   3.738   4.916   2.645  0.2080  3.0728  2.1456
   27GLOH   H08 8549   3.621   4.948   2.771  0.4587  1.4639 -1.3498
   27GLOH    C2 8550   3.533   4.907   2.582 -0.1595  0.3531 -0.5807
   27GLOH   H04 8551   3.436   4.862   2.606  0.0688 -0.2265 -0.7383
   27GLOH    O2 8552   3.502   5.049   2.564 -0.0030 -0.1030 -0.3659
   27GLOH   H05 8553   3.559   5.103   2.621 -2.1977  0.5020  1.3531
   27GLOH    C3 8554   3.583   4.865   2.440  0.3660 -0.1239 -0.4123
   27GLOH   H06 8555   3.663   4.792   2.450  0.5745  0.3537  1.5811
   27GLOH   H07 8556   3.635   4.948   2.393  0.1799 -0.6207 -1.5134
   27GLOH    O3 8557   3.480   4.819   2.354 -0.0482  0.4387 -0.0552
   27GLOH   H01 8558   3.429   4.895   2.319  2.5083  3.0333  1.6711
   28GLOH   H03 8559   3.239   9.539   0.620  0.0173 -0.4417 -0.0189
   28GLOH    O1 8560   3.331   9.539   0.588  0.1361 -0.2142  0.3100
   28GLOH    C1 8561   3.335   9.585   0.446  0.4483 -0.4890 -0.4718
   28GLOH   H02 8562   3.346   9.693   0.436  3.7609 -0.6233  1.1167
   28GLOH   H08 8563   3.248   9.543   0.395  0.4209 -1.7529  0.6102
   28GLOH    C2 8564   3.464   9.523   0.375  0.2231  0.3963 -0.1704
   28GLOH   H04 8565   3.546   9.534   0.448  2.2230 -0.5678 -2.2028
   28GLOH    O2 8566   3.434   9.386   0.331  0.0762  0.1019 -0.4425
   28GLOH   H05 8567   3.523   9.349   0.315 -0.2088 -1.2882  1.0435
   28GLOH    C3 8568   3.510   9.594   0.250 -0.1992 -0.0817  0.9686
   28GLOH   H06 8569   3.445   9.596   0.162  2.0438  1.0880 -0.7257
   28GLOH   H07 8570   3.601   9.543   0.217 -0.0343  0.7862  0.0148
   28GLOH    O3 8571   3.558   9.718   0.284  0.2593 -1.2284  0.0950
   28GLOH   H01 8572   3.492   9.780   0.247  1.9137  0.2811 -0.4403
   29GLOH   H03 8573   2.421   2.239   0.447  1.1263 -1.7946 -2.6488
   29GLOH    O1 8574   2.422   2.168   0.513 -0.0268  0.1814 -0.4102
   29GLOH    C1 8575   2.486   2.048   0.465 -0.4551  0.5630  0.1145
   29GLOH   H02 8576   2.542   2.078   0.376 -2.6003 -0.6725 -1.6853
   29GLOH   H08 8577   2.408   1.990   0.416  0.6990  0.7647 -2.0371
   29GLOH    C2 8578   2.562   1.955   0.561  1.2281 -0.8129  0.4498
   29GLOH   H04 8579   2.489   1.905   0.626  0.8535 -1.2570 -0.3035
   29GLOH    O2 8580   2.618   1.850   0.478  0.0449  0.2174 -0.1247
   29GLOH   H05 8581   2.577   1.846   0.390 -0.5865  1.6321  0.0886
   29GLOH    C3 8582   2.675   2.027   0.632 -0.1966  0.2863  0.3328
   29GLOH   H06 8583   2.738   1.957   0.687 -1.2356 -0.1048  1.0580
   29GLOH   H07 8584   2.627   2.101   0.696 -4.3353 -0.3765 -1.8079
   29GLOH    O3 8585   2.760   2.101   0.540 -0.0598 -0.0594 -0.1799
   29GLOH   H01 8586   2.798   2.036   0.479  0.7841  0.0425  0.2224
   30GLOH   H03 8587   2.575   4.740   2.117  2.4036  0.7834  1.0410
   30GLOH    O1 8588   2.638   4.723   2.044  0.5483 -0.6722 -0.2911
   30GLOH    C1 8589   2.704   4.845   2.012 -0.2432  0.0551  0.5340
   30GLOH   H02 8590   2.793   4.848   2.076  2.1738  0.8988 -2.7015
   30GLOH   H08 8591   2.652   4.939   2.030 -1.2627 -0.7520  1.8217
   30GLOH    C2 8592   2.764   4.852   1.867 -0.7887 -0.6233  0.2740
   30GLOH   H04 8593   2.680   4.835   1.798 -0.5417 -0.2062 -0.1319
   30GLOH    O2 8594   2.826   4.986   1.861  0.1232 -0.1841  0.1248
   30GLOH   H05 8595   2.887   4.996   1.936 -0.1669  0.5612  0.2620
   30GLOH    C3 8596   2.879   4.752   1.849 -0.1927  0.3477  0.2258
   30GLOH   H06 8597   2.948   4.763   1.933 -0.3526 -0.7227  0.5096
   30GLOH   H07 8598   2.937   4.772   1.759  0.8204  0.9225  0.9969
   30GLOH    O3 8599   2.833   4.618   1.857 -0.3801 -0.3419 -0.3307
   30GLOH   H01 8600   2.766   4.618   1.928 -0.0383  0.0961 -0.0055
   31GLOH   H03 8601   4.708   1.276   0.939  0.8853  0.9565  1.9522
   31GLOH    O1 8602   4.770   1.315   0.875 -0.4770 -0.0073 -0.0018
   31GLOH    C1 8603   4.847   1.415   0.937  0.0071 -0.2843 -0.2754
   31GLOH   H02 8604   4.943   1.371   0.966 -0.6332 -1.7310 -0.3045
   31GLOH   H08 8605   4.811   1.452   1.033  0.4856 -0.9894  0.1832
   31GLOH    C2 8606   4.878   1.537   0.845 -0.2011  0.1096 -0.1728
   31GLOH   H04 8607   4.790   1.554   0.781 -0.4639 -1.9349 -0.3905
   31GLOH    O2 8608   4.909   1.656   0.920  0.1389 -0.2756 -0.5215
   31GLOH   H05 8609   4.825   1.696   0.949  0.5145  0.6700 -0.7225
   31GLOH    C3 8610   4.995   1.505   0.752 -0.4459  0.5990  0.5163
   31GLOH   H06 8611   5.083   1.483   0.812  0.6291  0.2685 -1.1372
   31GLOH   H07 8612   5.021   1.583   0.681 -1.0025  1.1320  0.8905
   31GLOH    O3 8613   4.957   1.387   0.683 -0.7317 -0.4360 -0.0995
   31GLOH   H01 8614   4.886   1.353   0.741 -0.7312  0.2673  0.3263
   32GLOH   H03 8615   3.188   0.124   2.673  2.0926 -1.0968 -1.3371
   32GLOH    O1 8616   3.215   0.216   2.653 -0.4143 -0.1189 -0.4131
   32GLOH    C1 8617   3.118   0.295   2.583  0.2409  0.6212  0.0450
   32GLOH   H02 8618   3.054   0.339   2.659  1.8857  2.1849  0.5383
   32GLOH   H08 8619   3.062   0.218   2.529  2.9802 -0.1077 -1.9086
   32GLOH    C2 8620   3.160   0.407   2.487  0.3804 -0.6542  0.6130
   32GLOH   H04 8621   3.262   0.433   2.518 -0.2839  1.9989  0.7519
   32GLOH    O2 8622   3.147   0.372   2.345  0.1008 -0.3548 -0.5766
   32GLOH   H05 8623   3.179   0.452   2.301 -0.3342  0.9101  1.3743
   32GLOH    C3 8624   3.082   0.535   2.518  0.3128 -0.1379 -0.4516
   32GLOH   H06 8625   3.107   0.616   2.448  0.6903  1.0832  1.0630
   32GLOH   H07 8626   3.113   0.577   2.614 -0.1492  1.4351 -0.9609
   32GLOH    O3 8627   2.938   0.512   2.514 -0.5946  0.5486 -0.3508
   32GLOH   H01 8628   2.893   0.520   2.600 -2.3214 -1.2294 -1.0484
   33GLOH   H03 8629   3.333   5.976   0.113 -1.2606 -0.7875  0.2655
   33GLOH    O1 8630   3.359   5.894   0.067 -0.7584 -0.4598 -0.0409
   33GLOH    C1 8631   3.492   5.872   0.112  0.0230 -0.8706  0.3024
   33GLOH   H02 8632   3.543   5.961   0.148  1.0068  0.0463 -3.1884
   33GLOH   H08 8633   3.548   5.819   0.035  0.6026  1.1272 -0.6928
   33GLOH    C2 8634   3.486   5.774   0.231 -0.3252 -0.5708  0.2579
   33GLOH   H04 8635   3.424   5.816   0.312 -2.5157 -0.0167 -1.6745
   33GLOH    O2 8636   3.421   5.654   0.197  0.0184  0.3423  0.1032
   33GLOH   H05 8637   3.403   5.645   0.102  1.4806 -3.7634  0.1340
   33GLOH    C3 8638   3.631   5.753   0.292 -0.1575 -0.6477  0.0850
   33GLOH   H06 8639   3.649   5.847   0.344 -0.1039 -0.9213  0.5678
   33GLOH   H07 8640   3.696   5.766   0.206 -0.8937 -0.5944 -0.4651
   33GLOH    O3 8641   3.661   5.644   0.379 -0.1276  0.2391  0.6818
   33GLOH   H01 8642   3.652   5.570   0.316  0.7116  2.2464 -1.8713
   34GLOH   H03 8643   3.285   0.049   1.671  0.6567  2.6167 -0.3364
   34GLOH    O1 8644   3.226   0.030   1.596 -0.1555  0.2740  0.8535
   34GLOH    C1 8645   3.211   0.148   1.516 -0.2423 -0.8974 -0.2117
   34GLOH   H02 8646   3.302   0.209   1.510 -0.3928 -0.6629 -0.1357
   34GLOH   H08 8647   3.136   0.209   1.566  1.9150  1.4569  0.2426
   34GLOH    C2 8648   3.155   0.122   1.377 -0.0609  0.3505 -0.0583
   34GLOH   H04 8649   3.070   0.054   1.395 -1.6791  2.3205 -0.1993
   34GLOH    O2 8650   3.113   0.244   1.315 -0.9272 -0.5567 -0.5323
   34GLOH   H05 8651   3.046   0.228   1.246  2.3546  0.5347 -4.2086
   34GLOH    C3 8652   3.259   0.057   1.288 -0.8065 -0.0598 -0.0147
   34GLOH   H06 8653   3.287  -0.034   1.341  1.3130  0.6179  0.1007
   34GLOH   H07 8654   3.344   0.125   1.281 -0.0812 -0.8143  1.3186
   34GLOH    O3 8655   3.211   0.018   1.156  0.4231  0.1736 -0.2162
   34GLOH   H01 8656   3.264   0.059   1.084  1.0825  0.9228  0.6819
   35GLOH   H03 8657   2.952   5.536   2.801  0.1947  1.2296 -1.4394
   35GLOH    O1 8658   2.895   5.499   2.730 -0.2498  0.1913 -0.5622
   35GLOH    C1 8659   2.911   5.586   2.612  0.0594 -0.3756 -1.0939
   35GLOH   H02 8660   2.887   5.690   2.637 -1.0183 -1.1430  1.2286
   35GLOH   H08 8661   2.842   5.578   2.528 -0.1592 -1.4213 -0.8172
   35GLOH    C2 8662   3.053   5.585   2.555 -0.5250  0.3474  0.5539
   35GLOH   H04 8663   3.041   5.659   2.475 -1.3596 -0.3526  0.0270
   35GLOH    O2 8664   3.156   5.643   2.644 -0.6045  0.4557  0.3678
   35GLOH   H05 8665   3.122   5.731   2.663  0.6026  1.0175 -0.0318
   35GLOH    C3 8666   3.094   5.446   2.495  0.0298 -0.4343 -0.5973
   35GLOH   H06 8667   3.100   5.374   2.577  3.9692  0.4742  0.0009
   35GLOH   H07 8668   3.195   5.445   2.454  1.1895 -3.6805  2.0622
   35GLOH    O3 8669   2.992   5.402   2.401 -0.0568  0.0049 -0.2931
   35GLOH   H01 8670   2.961   5.474   2.342 -0.7079  0.9474  1.1571
   36GLOH   H03 8671   2.991   7.420   1.923 -1.7254 -0.4677  0.2266
   36GLOH    O1 8672   2.993   7.359   2.000  0.2285 -0.9200 -0.1480
   36GLOH    C1 8673   3.111   7.378   2.079  0.3348 -0.3501  0.9553
   36GLOH   H02 8674   3.153   7.473   2.046  3.3367 -2.1886 -0.6696
   36GLOH   H08 8675   3.197   7.315   2.058 -0.8394 -1.4088 -0.7268
   36GLOH    C2 8676   3.076   7.367   2.224  0.0177  0.3896  0.3160
   36GLOH   H04 8677   3.043   7.265   2.251  3.0307 -0.2561  1.9068
   36GLOH    O2 8678   3.202   7.382   2.299  0.0552 -0.3167 -0.1956
   36GLOH   H05 8679   3.235   7.293   2.322 -2.5366 -1.3864 -0.3646
   36GLOH    C3 8680   2.977   7.480   2.269  0.2861  0.0264  0.2537
   36GLOH   H06 8681   2.906   7.498   2.187  0.5942 -1.7917 -0.4336
   36GLOH   H07 8682   3.029   7.574   2.285 -2.6668  1.6796  0.4837
   36GLOH    O3 8683   2.911   7.451   2.392 -0.0192 -0.1041 -0.1896
   36GLOH   H01 8684   2.856   7.530   2.402  0.8167  0.4145  0.4269
   37GLOH   H03 8685   4.464   3.043   2.137 -1.4070  0.2629  0.2607
   37GLOH    O1 8686   4.499   3.134   2.134  0.3326 -0.4144 -0.2563
   37GLOH    C1 8687   4.615   3.145   2.219 -0.2127  0.3319  0.0836
   37GLOH   H02 8688   4.698   3.085   2.183 -1.5787 -1.4926 -0.0730
   37GLOH   H08 8689   4.595   3.119   2.323 -1.0784  4.0489  0.9434
   37GLOH    C2 8690   4.665   3.295   2.221  0.2460  0.5325  0.7140
   37GLOH   H04 8691   4.582   3.354   2.263 -2.6571 -2.3615 -0.8442
   37GLOH    O2 8692   4.774   3.305   2.307 -0.5834  0.2900 -0.0622
   37GLOH   H05 8693   4.787   3.397   2.334  2.4108 -0.1575  0.1913
   37GLOH    C3 8694   4.702   3.347   2.081 -0.3258  0.0123  0.9440
   37GLOH   H06 8695   4.772   3.278   2.035 -1.1483  0.6558 -1.3160
   37GLOH   H07 8696   4.751   3.444   2.096  0.1072  0.5687 -3.3714
   37GLOH    O3 8697   4.573   3.353   2.009 -0.1576  0.0634  0.8755
   37GLOH   H01 8698   4.531   3.267   2.029 -0.8467  0.2953  0.4382
   38GLOH   H03 8699   3.144   6.124   2.372  0.0118  0.1593 -0.9536
   38GLOH    O1 8700   3.118   6.131   2.465  0.4727 -0.5055 -0.7749
   38GLOH    C1 8701   3.135   6.009   2.535 -0.1464 -0.7578  0.4723
   38GLOH   H02 8702   3.232   6.011   2.584 -0.9194 -1.0846  2.0636
   38GLOH   H08 8703   3.125   5.926   2.466  3.6309 -1.4227  0.6346
   38GLOH    C2 8704   3.026   6.000   2.642  0.0836  0.0562  0.2055
   38GLOH   H04 8705   2.932   6.009   2.585 -0.8018  2.7903  1.9851
   38GLOH    O2 8706   3.043   5.869   2.705  0.0512 -0.3199  0.0337
   38GLOH   H05 8707   3.047   5.875   2.802  0.4873 -0.3383  0.0162
   38GLOH    C3 8708   3.036   6.108   2.757  0.3180  0.4280  0.5617
   38GLOH   H06 8709   3.040   6.207   2.712  0.7955  0.0446 -0.2554
   38GLOH   H07 8710   3.126   6.086   2.814  1.7605  1.6411 -1.1730
   38GLOH    O3 8711   2.925   6.101   2.850 -0.1913 -0.1878 -0.2205
   38GLOH   H01 8712   2.960   6.099   2.941  0.4853 -0.9632 -0.4898
   39GLOH   H03 8713   3.257   5.666   0.712 -0.3221  2.5674  0.0901
   39GLOH    O1 8714   3.346   5.676   0.675 -0.0779  0.3717  0.0452
   39GLOH    C1 8715   3.360   5.633   0.540 -0.0713 -0.0075 -0.6415
   39GLOH   H02 8716   3.447   5.679   0.493  1.6854 -3.7363 -1.2184
   39GLOH   H08 8717   3.272   5.660   0.482  0.4404 -0.6234 -1.7175
   39GLOH    C2 8718   3.382   5.482   0.526 -0.4286  0.1069 -0.2785
   39GLOH   H04 8719   3.297   5.431   0.575  0.7676 -0.8363  0.8484
   39GLOH    O2 8720   3.375   5.435   0.388 -0.0328  0.4032 -0.0777
   39GLOH   H05 8721   3.417   5.503   0.332 -1.0203  1.1056  0.0028
   39GLOH    C3 8722   3.513   5.439   0.594 -0.6522  0.9596 -0.1045
   39GLOH   H06 8723   3.526   5.494   0.687  1.4373 -2.2684  1.6246
   39GLOH   H07 8724   3.594   5.459   0.525  0.0539 -1.6517 -0.0791
   39GLOH    O3 8725   3.513   5.301   0.627 -0.4699 -0.0126 -0.1759
   39GLOH   H01 8726   3.431   5.279   0.675 -1.8348 -0.1176 -2.4674
   40GLOH   H03 8727   3.698   0.201   1.082  1.3083  1.9763  0.6321
   40GLOH    O1 8728   3.781   0.154   1.063 -0.0063 -0.1190 -0.1857
   40GLOH    C1 8729   3.877   0.200   1.164  0.2732  0.0733 -0.1138
   40GLOH   H02 8730   3.872   0.135   1.251  0.3710  0.6220  0.3041
   40GLOH   H08 8731   3.843   0.296   1.205 -3.1668 -0.1374 -2.2090
   40GLOH    C2 8732   4.023   0.206   1.117 -0.4181 -0.0813  0.0264
   40GLOH   H04 8733   4.037   0.285   1.042  0.2519  0.7195  0.9758
   40GLOH    O2 8734   4.108   0.245   1.233  0.1883  0.0285  0.2766
   40GLOH   H05 8735   4.100   0.341   1.244 -1.3886 -0.1481  0.8003
   40GLOH    C3 8736   4.071   0.065   1.069 -0.7705 -0.1126  0.1876
   40GLOH   H06 8737   4.077  -0.001   1.155  1.9238 -0.2248 -0.0277
   40GLOH   H07 8738   4.170   0.079   1.024 -0.6208 -2.2035 -0.1822
   40GLOH    O3 8739   3.972   0.017   0.979  0.0312 -0.0201 -0.1811
   40GLOH   H01 8740   3.896   0.075   0.996  0.5670  0.0590  2.1313
   41GLOH   H03 8741   3.847   9.130   1.496 -1.6324  0.7774  0.1642
   41GLOH    O1 8742   3.863   9.137   1.592  0.3987 -0.6187 -0.0487
   41GLOH    C1 8743   3.742   9.109   1.666 -0.6930 -1.0160 -0.0850
   41GLOH   H02 8744   3.744   9.176   1.752  0.2859  0.3324 -1.1283
   41GLOH   H08 8745   3.739   9.008   1.707 -1.9093  0.1226  2.7589
   41GLOH    C2 8746   3.606   9.139   1.600  0.1784  0.7097 -1.2676
   41GLOH   H04 8747   3.608   9.083   1.505  1.0147 -1.5775  0.0562
   41GLOH    O2 8748   3.500   9.095   1.698 -0.3060 -0.3068  0.0188
   41GLOH   H05 8749   3.410   9.121   1.673 -0.1487  0.2244  0.0019
   41GLOH    C3 8750   3.585   9.288   1.556 -0.0838 -0.3408 -0.0016
   41GLOH   H06 8751   3.605   9.349   1.644 -0.2413  0.3016 -0.4024
   41GLOH   H07 8752   3.477   9.296   1.538 -0.1469 -2.1763 -0.5148
   41GLOH    O3 8753   3.670   9.324   1.444 -0.3728  0.1939 -0.0482
   41GLOH   H01 8754   3.642   9.411   1.410  0.1839 -0.4640 -2.2505
   42GLOH   H03 8755   4.099   8.161   1.619  2.3599  0.8795  1.0863
   42GLOH    O1 8756   4.062   8.251   1.612  0.4268  0.0398  0.1228
   42GLOH    C1 8757   4.152   8.342   1.535  0.9975  0.4287  0.5787
   42GLOH   H02 8758   4.163   8.296   1.437 -1.7071 -1.2944  1.0187
   42GLOH   H08 8759   4.252   8.349   1.579  0.7137 -1.0454  1.5218
   42GLOH    C2 8760   4.073   8.469   1.504  0.0922 -0.6102  0.1204
   42GLOH   H04 8761   4.020   8.509   1.591 -0.7684  2.8569 -1.9328
   42GLOH    O2 8762   4.161   8.572   1.452 -0.3684  0.0591 -0.3470
   42GLOH   H05 8763   4.225   8.535   1.389 -1.5602 -0.2347 -1.4023
   42GLOH    C3 8764   3.964   8.439   1.397  0.7636 -0.3531  0.6572
   42GLOH   H06 8765   4.027   8.403   1.316 -1.8182  1.2005 -2.1637
   42GLOH   H07 8766   3.910   8.528   1.364 -2.1531 -1.6027  1.8878
   42GLOH    O3 8767   3.872   8.344   1.441  0.3628 -0.0182 -0.6646
   42GLOH   H01 8768   3.796   8.386   1.487  1.8148  2.1000 -0.1381
   43GLOH   H03 8769   3.834   0.961   1.635 -2.0297 -1.4996 -0.7484
   43GLOH    O1 8770   3.783   1.044   1.630 -0.3950 -0.4021  0.1034
   43GLOH    C1 8771   3.690   1.038   1.737  0.2794  0.2496  0.4138
   43GLOH   H02 8772   3.593   1.010   1.696  0.7287 -0.1161 -0.4161
   43GLOH   H08 8773   3.681   1.133   1.790 -2.3084 -1.2266  2.7555
   43GLOH    C2 8774   3.735   0.942   1.849 -0.3100 -0.5370 -0.4809
   43GLOH   H04 8775   3.834   0.970   1.888 -0.7915 -0.6501  0.8710
   43GLOH    O2 8776   3.633   0.951   1.952 -0.1162 -0.1078 -0.0362
   43GLOH   H05 8777   3.543   0.944   1.916 -0.7735  2.4106  1.0195
   43GLOH    C3 8778   3.749   0.797   1.815  0.3084  0.7279 -0.0192
   43GLOH   H06 8779   3.662   0.769   1.756  0.0037 -3.4881  2.2321
   43GLOH   H07 8780   3.763   0.743   1.908  0.4167  1.1004  0.1805
   43GLOH    O3 8781   3.872   0.775   1.735 -0.3280  0.3292  0.6237
   43GLOH   H01 8782   3.924   0.717   1.793 -0.5697 -0.1268  0.3812
   44GLOH   H03 8783   3.247   4.340   2.161  0.5265 -0.2338  1.1687
   44GLOH    O1 8784   3.253   4.438   2.166  0.1751 -0.1347 -0.1090
   44GLOH    C1 8785   3.303   4.469   2.293  0.0668 -0.3200 -1.3458
   44GLOH   H02 8786   3.234   4.442   2.372  3.0761 -0.2429  1.4018
   44GLOH   H08 8787   3.313   4.576   2.311 -1.3062 -0.5194  0.7065
   44GLOH    C2 8788   3.434   4.394   2.320 -0.5109 -0.4384 -0.8615
   44GLOH   H04 8789   3.506   4.427   2.243  2.1721 -2.0227  0.8886
   44GLOH    O2 8790   3.497   4.420   2.442 -0.3406 -0.1512 -0.2795
   44GLOH   H05 8791   3.592   4.441   2.434 -0.5222  0.4251 -0.8699
   44GLOH    C3 8792   3.417   4.247   2.306 -0.1495 -0.4579  0.0604
   44GLOH   H06 8793   3.357   4.211   2.390  1.2444 -2.3250  0.2933
   44GLOH   H07 8794   3.519   4.207   2.299  0.0518  0.1351 -0.4642
   44GLOH    O3 8795   3.359   4.194   2.186  0.0076  0.3165  0.0953
   44GLOH   H01 8796   3.350   4.097   2.187 -0.0259  0.2906 -1.5092
   45GLOH   H03 8797   3.751   2.103   2.298  0.9056  0.9245  1.1711
   45GLOH    O1 8798   3.748   2.055   2.383  0.0142 -0.2995  0.4618
   45GLOH    C1 8799   3.694   2.139   2.487 -0.4540 -0.4026  0.9270
   45GLOH   H02 8800   3.596   2.172   2.453 -0.5559  0.2818  1.8609
   45GLOH   H08 8801   3.761   2.223   2.502  0.0390 -0.3887 -1.2408
   45GLOH    C2 8802   3.678   2.052   2.609  0.5903 -0.0770  0.5273
   45GLOH   H04 8803   3.774   2.022   2.654  2.6861  2.9937 -1.6756
   45GLOH    O2 8804   3.610   2.140   2.698 -0.1840 -0.3211 -0.3631
   45GLOH   H05 8805   3.610   2.106   2.789  0.5058 -2.3864 -1.0949
   45GLOH    C3 8806   3.593   1.934   2.572 -0.1846 -0.1411  0.0552
   45GLOH   H06 8807   3.646   1.877   2.495  1.4870 -0.1960  1.2163
   45GLOH   H07 8808   3.499   1.959   2.524 -1.3416 -1.7720  1.4106
   45GLOH    O3 8809   3.559   1.854   2.687 -0.0348  0.4020 -0.4080
   45GLOH   H01 8810   3.640   1.850   2.741 -0.4900  0.5149  0.2861
   46GLOH   H03 8811   3.935   0.139   0.339 -0.7972 -2.9193 -0.9208
   46GLOH    O1 8812   4.013   0.113   0.286  0.2053 -1.0301 -0.4436
   46GLOH    C1 8813   4.007   0.152   0.153  0.0003  0.7951  0.1224
   46GLOH   H02 8814   3.963   0.072   0.094  1.7115  0.3301 -0.5382
   46GLOH   H08 8815   4.111   0.164   0.122 -0.1432  0.0743 -0.6558
   46GLOH    C2 8816   3.934   0.284   0.119  0.6085 -0.0125 -0.0556
   46GLOH   H04 8817   3.827   0.275   0.139  1.2108 -3.2823  2.0434
   46GLOH    O2 8818   4.001   0.388   0.199  0.5654  0.7574  0.1454
   46GLOH   H05 8819   3.935   0.438   0.250  0.9544  1.3754  0.0526
   46GLOH    C3 8820   3.950   0.309  -0.031  0.1269  0.4063  0.3219
   46GLOH   H06 8821   4.058   0.299  -0.047 -0.2651 -0.3072 -2.1103
   46GLOH   H07 8822   3.925   0.410  -0.061 -1.8448 -0.1620  0.0214
   46GLOH    O3 8823   3.893   0.214  -0.125 -0.3537 -0.3878  0.1855
   46GLOH   H01 8824   3.800   0.222  -0.156  0.6734 -4.0150 -4.3389
   47GLOH   H03 8825   3.558   7.694   1.165 -0.1932  0.0773 -0.7147
   47GLOH    O1 8826   3.482   7.667   1.220  0.3714 -0.1359 -0.0381
   47GLOH    C1 8827   3.537   7.583   1.321 -0.4114  0.1362 -0.0512
   47GLOH   H02 8828   3.582   7.655   1.389  0.2614 -0.1447 -0.1976
   47GLOH   H08 8829   3.623   7.523   1.291  0.8288  1.1858  1.3396
   47GLOH    C2 8830   3.425   7.501   1.391  0.5050 -0.6435  0.7926
   47GLOH   H04 8831   3.478   7.430   1.456  2.5785  0.1325  0.0014
   47GLOH    O2 8832   3.333   7.580   1.469 -0.7942 -0.2553  0.4889
   47GLOH   H05 8833   3.299   7.524   1.541  1.0720 -1.1866  0.6657
   47GLOH    C3 8834   3.354   7.423   1.284  0.7127 -0.8487 -0.6802
   47GLOH   H06 8835   3.427   7.350   1.248  0.7919 -1.2423  0.2620
   47GLOH   H07 8836   3.338   7.485   1.196  0.4708  2.0166  1.2747
   47GLOH    O3 8837   3.238   7.346   1.313 -0.1108 -0.2118  0.7786
   47GLOH   H01 8838   3.177   7.417   1.339  0.3087  0.8903 -1.1228
   48GLOH   H03 8839   3.715   8.958   0.346 -0.9857 -0.2997  0.1773
   48GLOH    O1 8840   3.714   9.039   0.401  0.0824  0.0313 -0.2751
   48GLOH    C1 8841   3.632   9.012   0.516 -0.2325 -0.6394 -0.1648
   48GLOH   H02 8842   3.596   8.909   0.509  2.0521 -1.5822  1.5229
   48GLOH   H08 8843   3.541   9.072   0.517 -1.8220 -2.9581  1.5564
   48GLOH    C2 8844   3.708   9.032   0.645 -0.4087 -0.1157 -0.1117
   48GLOH   H04 8845   3.766   9.126   0.642 -1.6070  0.6094 -0.7512
   48GLOH    O2 8846   3.619   9.012   0.763 -0.2027  0.0606 -0.6306
   48GLOH   H05 8847   3.563   8.933   0.751 -1.7011  0.9098  0.6467
   48GLOH    C3 8848   3.814   8.923   0.652 -0.0643 -0.1552  0.6899
   48GLOH   H06 8849   3.858   8.918   0.552  0.9964 -0.6506  1.1671
   48GLOH   H07 8850   3.759   8.830   0.668 -0.0646  0.0196  1.7234
   48GLOH    O3 8851   3.915   8.932   0.748  0.3665  0.3598 -0.4512
   48GLOH   H01 8852   3.884   8.975   0.830  0.3265  2.0584 -1.3301
   49GLOH   H03 8853   5.446   3.086   1.102 -1.0571  1.7319  0.9597
   49GLOH    O1 8854   5.529   3.136   1.107 -0.2349  0.5109  0.0020
   49GLOH    C1 8855   5.548   3.190   1.238 -0.2440  0.2293 -0.0729
   49GLOH   H02 8856   5.630   3.260   1.242  2.6687 -2.9012 -2.1012
   49GLOH   H08 8857   5.584   3.105   1.297  0.5972  0.2331 -0.5792
   49GLOH    C2 8858   5.428   3.254   1.308  0.0345 -0.1038  0.1681
   49GLOH   H04 8859   5.333   3.201   1.290  0.7632 -2.3092  2.4683
   49GLOH    O2 8860   5.457   3.271   1.448  0.1221 -0.6809  0.6696
   49GLOH   H05 8861   5.370   3.267   1.492 -0.7497  0.9171 -0.8645
   49GLOH    C3 8862   5.405   3.387   1.238  0.5423  0.4149  0.7575
   49GLOH   H06 8863   5.490   3.453   1.255  1.3942  0.0349 -1.7249
   49GLOH   H07 8864   5.310   3.418   1.282 -1.1537  0.9354 -3.0928
   49GLOH    O3 8865   5.396   3.377   1.089  0.5870 -0.3641 -0.0150
   49GLOH   H01 8866   5.476   3.356   1.037 -0.1345  1.3190 -1.8503
   50GLOH   H03 8867   3.969   5.695   1.256  0.1809 -2.4765  1.7985
   50GLOH    O1 8868   3.930   5.755   1.322  0.2663 -0.4010  0.0129
   50GLOH    C1 8869   4.009   5.758   1.438 -0.7792 -0.1403  0.2427
   50GLOH   H02 8870   3.987   5.852   1.489  0.1214  1.3395 -2.0233
   50GLOH   H08 8871   4.113   5.774   1.413 -0.6548 -1.1276  0.1390
   50GLOH    C2 8872   4.011   5.642   1.532  0.0753  0.5159 -0.5383
   50GLOH   H04 8873   4.032   5.554   1.470  3.4972  1.0010 -0.1578
   50GLOH    O2 8874   4.113   5.668   1.635 -0.1640  0.2959 -0.3147
   50GLOH   H05 8875   4.103   5.609   1.712 -1.1080  1.7957  0.7261
   50GLOH    C3 8876   3.872   5.628   1.595 -0.2136 -0.6747  0.0805
   50GLOH   H06 8877   3.832   5.722   1.632  1.9694  0.6652 -0.8559
   50GLOH   H07 8878   3.882   5.555   1.675 -0.2001  0.9771  1.6013
   50GLOH    O3 8879   3.780   5.583   1.490 -0.2273 -0.2726  0.3017
   50GLOH   H01 8880   3.784   5.636   1.408  0.9809 -0.0141  0.5113
   51GLOH   H03 8881   3.921   4.901   1.655  0.4592  0.4563  0.2073
   51GLOH    O1 8882   3.919   4.978   1.596  0.0848 -0.2833 -0.7674
   51GLOH    C1 8883   4.051   4.999   1.538  0.1862 -0.1750 -0.4957
   51GLOH   H02 8884   4.059   5.098   1.494 -1.5087 -0.2194 -0.9463
   51GLOH   H08 8885   4.071   4.927   1.458  1.0926 -0.7042  0.1940
   51GLOH    C2 8886   4.177   4.984   1.631  0.2373 -0.1550 -0.2490
   51GLOH   H04 8887   4.265   4.999   1.567  0.3434 -1.0304 -0.3096
   51GLOH    O2 8888   4.165   5.087   1.738  0.2564 -0.0936 -0.6981
   51GLOH   H05 8889   4.098   5.061   1.803 -1.6620 -1.3621 -3.1215
   51GLOH    C3 8890   4.175   4.849   1.701 -0.4690  0.3115  0.3366
   51GLOH   H06 8891   4.261   4.848   1.768  1.6188  2.0360 -2.2388
   51GLOH   H07 8892   4.180   4.771   1.625  3.3628 -0.0592  0.8463
   51GLOH    O3 8893   4.059   4.829   1.785 -0.3889 -0.5381  0.0122
   51GLOH   H01 8894   4.072   4.744   1.831 -0.3005 -0.4729  0.1081
   52GLOH   H03 8895   3.688   9.206   1.321  2.6273 -1.6522 -0.2831
   52GLOH    O1 8896   3.652   9.161   1.242 -0.0467 -0.0530 -0.0414
   52GLOH    C1 8897   3.517   9.188   1.200 -0.1935 -1.1267  0.3336
   52GLOH   H02 8898   3.513   9.146   1.100 -0.3485  0.5762 -0.3821
   52GLOH   H08 8899   3.494   9.294   1.195  1.4114 -0.7556  0.4111
   52GLOH    C2 8900   3.410   9.120   1.281 -0.1279 -0.0361  0.6531
   52GLOH   H04 8901   3.419   9.159   1.384  2.8808 -0.4375  0.5919
   52GLOH    O2 8902   3.283   9.149   1.226 -0.5316 -0.2540 -0.0287
   52GLOH   H05 8903   3.234   9.068   1.207  1.7105 -1.6161 -0.1201
   52GLOH    C3 8904   3.429   8.966   1.284  0.1336  0.2369 -0.1717
   52GLOH   H06 8905   3.531   8.960   1.323  0.3042  0.4329 -0.5781
   52GLOH   H07 8906   3.433   8.921   1.185 -3.4396  0.4350 -0.4396
   52GLOH    O3 8907   3.336   8.886   1.365 -0.1785 -0.0365  0.3416
   52GLOH   H01 8908   3.352   8.790   1.364  1.0496  0.0820  3.1187
   53GLOH   H03 8909   3.068   3.634   2.551 -1.8206  1.4274 -0.4797
   53GLOH    O1 8910   3.095   3.574   2.479 -0.4297  0.1695  1.0557
   53GLOH    C1 8911   3.087   3.638   2.347  0.8254  0.5297 -0.3134
   53GLOH   H02 8912   3.146   3.591   2.268  1.3455  0.8217 -0.1010
   53GLOH   H08 8913   3.132   3.736   2.360  0.9504  0.5331 -0.7571
   53GLOH    C2 8914   2.933   3.637   2.306 -0.7834 -0.5541 -0.6169
   53GLOH   H04 8915   2.892   3.535   2.316  1.0491 -1.4209 -1.6468
   53GLOH    O2 8916   2.851   3.715   2.387  0.1605  0.3332 -0.0189
   53GLOH   H05 8917   2.806   3.792   2.348  1.5492  1.9735  1.4889
   53GLOH    C3 8918   2.923   3.680   2.152  0.5999  1.0241 -0.5724
   53GLOH   H06 8919   2.818   3.686   2.126  0.0238 -0.7664  1.2588
   53GLOH   H07 8920   2.978   3.600   2.103  0.5314  0.4871  0.2152
   53GLOH    O3 8921   2.990   3.807   2.122  0.7727 -0.4459  0.3983
   53GLOH   H01 8922   2.918   3.873   2.120  0.4633 -0.7292  1.6744
   54GLOH   H03 8923   5.011   3.874   2.030  0.5005 -3.6192 -0.2811
   54GLOH    O1 8924   5.060   3.890   1.947 -0.0488  0.5389  0.0946
   54GLOH    C1 8925   5.198   3.845   1.958 -0.7244  0.4747 -0.2103
   54GLOH   H02 8926   5.220   3.787   2.047  1.0370 -0.0160 -0.9384
   54GLOH   H08 8927   5.257   3.935   1.979  0.1078  0.3907 -2.1075
   54GLOH    C2 8928   5.246   3.768   1.831  0.2462 -0.5087 -0.8915
   54GLOH   H04 8929   5.355   3.776   1.835  0.1721  0.1046 -0.0432
   54GLOH    O2 8930   5.214   3.627   1.825 -0.3655 -0.5195 -0.3710
   54GLOH   H05 8931   5.262   3.592   1.747 -1.7991 -0.4318 -1.3195
   54GLOH    C3 8932   5.205   3.846   1.704  0.2497 -1.0352  0.8067
   54GLOH   H06 8933   5.240   3.792   1.616  0.7882 -0.3148  0.5768
   54GLOH   H07 8934   5.248   3.946   1.710 -1.2850 -0.5101  4.7515
   54GLOH    O3 8935   5.060   3.863   1.699  0.2179  0.7649 -0.2897
   54GLOH   H01 8936   5.047   3.878   1.794 -0.2731 -2.0468  0.1491
   55GLOH   H03 8937   3.352   7.932   0.789 -0.5121 -0.0193  0.5326
   55GLOH    O1 8938   3.420   7.862   0.783 -0.0146  0.5129 -0.1102
   55GLOH    C1 8939   3.496   7.864   0.906 -0.3856  0.1940 -0.0632
   55GLOH   H02 8940   3.429   7.861   0.992 -0.3014  2.5872  0.1047
   55GLOH   H08 8941   3.542   7.958   0.935 -1.0734  1.1341 -1.9262
   55GLOH    C2 8942   3.603   7.755   0.920  0.1259 -0.0998  0.0684
   55GLOH   H04 8943   3.682   7.786   0.849 -0.4489  2.0666  0.3576
   55GLOH    O2 8944   3.660   7.765   1.062  0.7715 -0.1595 -0.4305
   55GLOH   H05 8945   3.723   7.839   1.070 -0.0865  0.5678 -0.3461
   55GLOH    C3 8946   3.537   7.617   0.909  0.3940 -0.2204  0.0359
   55GLOH   H06 8947   3.615   7.543   0.928  0.2818 -0.4889 -0.5442
   55GLOH   H07 8948   3.506   7.599   0.806  1.5682 -2.9891  0.1077
   55GLOH    O3 8949   3.423   7.595   0.994  0.0953  0.0907 -0.8435
   55GLOH   H01 8950   3.432   7.629   1.085 -1.9719 -0.9767 -0.2150
   56GLOH   H03 8951   4.561   2.465   0.413 -1.5885 -1.0468  1.2892
   56GLOH    O1 8952   4.618   2.465   0.492 -0.0709  0.0113  0.2198
   56GLOH    C1 8953   4.690   2.589   0.508 -0.7266  0.5324 -0.4239
   56GLOH   H02 8954   4.640   2.661   0.444 -0.1924  0.6827 -0.6782
   56GLOH   H08 8955   4.789   2.571   0.466 -1.3512  3.2355 -3.2381
   56GLOH    C2 8956   4.699   2.647   0.652  0.3705  0.3515 -0.2583
   56GLOH   H04 8957   4.709   2.569   0.729 -1.1514 -0.0417 -0.4456
   56GLOH    O2 8958   4.824   2.712   0.659  0.5775 -0.2243 -0.0654
   56GLOH   H05 8959   4.890   2.671   0.718  1.0925 -0.1694 -0.6092
   56GLOH    C3 8960   4.582   2.746   0.682  0.1674  0.1399  0.4369
   56GLOH   H06 8961   4.579   2.832   0.615  1.2006  0.6272  0.9973
   56GLOH   H07 8962   4.608   2.778   0.783  0.1858  2.3801 -0.2620
   56GLOH    O3 8963   4.451   2.693   0.688 -0.2165 -0.6638 -0.2527
   56GLOH   H01 8964   4.406   2.694   0.602 -2.2850  2.6294  0.7960
   57GLOH   H03 8965   3.640   5.287   1.711  0.8980  0.5722 -1.8648
   57GLOH    O1 8966   3.588   5.369   1.714 -0.5338 -0.3926  0.4011
   57GLOH    C1 8967   3.508   5.360   1.588  0.5978 -0.0740 -0.2846
   57GLOH   H02 8968   3.515   5.259   1.548 -0.8946 -0.5397  0.5861
   57GLOH   H08 8969   3.549   5.429   1.514 -1.4327 -0.2031 -1.5565
   57GLOH    C2 8970   3.355   5.380   1.607 -0.3521 -0.5531 -0.1054
   57GLOH   H04 8971   3.318   5.364   1.504  0.3887 -1.1789 -0.2830
   57GLOH    O2 8972   3.284   5.299   1.705  0.4509  0.5666 -0.4165
   57GLOH   H05 8973   3.351   5.263   1.765  0.0039 -0.4090 -0.4890
   57GLOH    C3 8974   3.339   5.533   1.639  0.3905 -0.3049  0.1098
   57GLOH   H06 8975   3.365   5.590   1.549 -1.0918 -0.5351 -0.4715
   57GLOH   H07 8976   3.419   5.565   1.706 -0.6426  3.0577 -0.1706
   57GLOH    O3 8977   3.211   5.570   1.686 -0.0112 -0.0161 -0.1104
   57GLOH   H01 8978   3.205   5.523   1.772 -1.9234  1.1909  0.4673
   58GLOH   H03 8979   3.216   8.198   2.264 -1.0233  0.4599 -1.5194
   58GLOH    O1 8980   3.222   8.296   2.264  0.2333  0.4329  0.8772
   58GLOH    C1 8981   3.158   8.336   2.139 -0.8069 -0.2571  1.0646
   58GLOH   H02 8982   3.189   8.258   2.069  0.7204  0.6186  0.7466
   58GLOH   H08 8983   3.211   8.426   2.108 -1.6542 -0.3994 -0.8596
   58GLOH    C2 8984   3.004   8.360   2.145  0.4274 -0.3367 -0.1619
   58GLOH   H04 8985   2.971   8.415   2.235  0.2969 -0.2578 -0.2583
   58GLOH    O2 8986   2.949   8.435   2.034  0.0036 -0.7996 -0.1459
   58GLOH   H05 8987   2.952   8.527   2.063  3.2885 -1.2356  1.1001
   58GLOH    C3 8988   2.938   8.221   2.163  0.3139 -0.3174 -0.4323
   58GLOH   H06 8989   2.980   8.161   2.083  2.8627  0.2736  0.3910
   58GLOH   H07 8990   2.833   8.240   2.145  0.7945  0.3817 -2.5755
   58GLOH    O3 8991   2.953   8.155   2.288  0.3150  0.5905  0.5148
   58GLOH   H01 8992   2.910   8.208   2.358 -1.0216  0.3393 -0.0959
   59GLOH   H03 8993   4.744   4.236   0.116  1.2856  0.1387  2.1071
   59GLOH    O1 8994   4.827   4.245   0.065  0.1192  0.5197  0.2101
   59GLOH    C1 8995   4.917   4.317   0.158  0.0005 -0.4099 -0.0456
   59GLOH   H02 8996   4.870   4.347   0.252 -0.7634 -3.9351  0.7604
   59GLOH   H08 8997   4.955   4.402   0.102  1.6781 -0.6795  0.6507
   59GLOH    C2 8998   5.028   4.223   0.196  0.4307  0.3480 -0.0436
   59GLOH   H04 8999   5.107   4.235   0.120  0.9122 -0.2912  0.3545
   59GLOH    O2 9000   5.070   4.268   0.329  0.0979 -0.2085  0.0360
   59GLOH   H05 9001   5.161   4.240   0.345 -1.0540 -3.0803  1.9295
   59GLOH    C3 9002   4.980   4.076   0.209  0.0282 -0.2121  0.0468
   59GLOH   H06 9003   4.915   4.043   0.128 -1.0455 -0.4553  0.9978
   59GLOH   H07 9004   4.910   4.077   0.293  3.1947 -0.8685  2.8051
   59GLOH    O3 9005   5.079   3.982   0.235  0.4814  0.4273  0.1947
   59GLOH   H01 9006   5.026   3.902   0.254  0.1428  0.1817 -1.6780
   60GLOH   H03 9007   4.175   4.556   1.062  0.7892  0.6784  3.3742
   60GLOH    O1 9008   4.139   4.470   1.089 -0.4282  0.1316  0.2501
   60GLOH    C1 9009   4.242   4.372   1.069  0.1551  0.3567  0.0667
   60GLOH   H02 9010   4.256   4.313   1.160  3.3918  2.2240  0.8370
   60GLOH   H08 9011   4.334   4.429   1.057  0.0683  0.1740 -1.5030
   60GLOH    C2 9012   4.229   4.286   0.934 -0.0107 -0.0574  0.4677
   60GLOH   H04 9013   4.230   4.361   0.853 -3.3522  0.9014  1.1955
   60GLOH    O2 9014   4.337   4.195   0.919 -0.4407 -0.5669 -0.0492
   60GLOH   H05 9015   4.373   4.176   1.007  1.0210 -2.9465 -1.0981
   60GLOH    C3 9016   4.091   4.219   0.924 -0.3269 -0.0715  0.0813
   60GLOH   H06 9017   4.094   4.132   0.990  2.7880  0.1588  0.3243
   60GLOH   H07 9018   4.072   4.190   0.820 -0.1909  1.9144 -0.5030
   60GLOH    O3 9019   3.979   4.301   0.962 -0.2975 -0.2172  0.0179
   60GLOH   H01 9020   4.008   4.371   1.023  1.8043 -1.5866  0.6428
   61GLOH   H03 9021   3.419   3.028   1.012 -0.4199  1.5983  0.7151
   61GLOH    O1 9022   3.323   3.036   1.026 -0.6758  0.1758 -0.1158
   61GLOH    C1 9023   3.312   2.924   1.123 -0.3933 -0.2394  0.1716
   61GLOH   H02 9024   3.352   2.954   1.220  0.4188  2.1899 -0.8688
   61GLOH   H08 9025   3.360   2.835   1.083 -0.8959 -0.7462  0.6808
   61GLOH    C2 9026   3.163   2.881   1.149 -1.0402  0.1737 -0.0286
   61GLOH   H04 9027   3.118   2.842   1.056 -0.0370  0.9925 -0.8682
   61GLOH    O2 9028   3.159   2.780   1.247 -0.5150  0.3391 -0.5178
   61GLOH   H05 9029   3.140   2.704   1.191 -0.3156 -0.1861  0.1205
   61GLOH    C3 9030   3.078   2.999   1.197  0.0991  0.5303 -0.0493
   61GLOH   H06 9031   3.122   3.043   1.287  0.4747 -0.1269  0.0916
   61GLOH   H07 9032   2.978   2.969   1.230  0.2717 -2.1881 -1.9170
   61GLOH    O3 9033   3.083   3.103   1.102  0.0584 -0.6331  0.3266
   61GLOH   H01 9034   3.158   3.079   1.044  0.7209 -0.7216  1.2128
   62GLOH   H03 9035   3.790   4.977   1.482  0.0854  1.8248  0.5220
   62GLOH    O1 9036   3.718   4.975   1.417  0.1296 -0.7099  0.4890
   62GLOH    C1 9037   3.713   5.094   1.339 -0.0988 -0.0177  0.7505
   62GLOH   H02 9038   3.749   5.174   1.403  0.3375  1.5277 -1.3604
   62GLOH   H08 9039   3.610   5.114   1.309  0.1738  0.4461  0.1017
   62GLOH    C2 9040   3.800   5.084   1.209  0.1693  0.2761 -0.5896
   62GLOH   H04 9041   3.906   5.072   1.233 -0.5274 -1.9157  1.6382
   62GLOH    O2 9042   3.761   4.980   1.120 -0.3403 -0.0937 -0.4082
   62GLOH   H05 9043   3.675   4.997   1.078  0.2405 -1.8176 -2.3466
   62GLOH    C3 9044   3.781   5.218   1.145 -0.0792 -0.2137  0.5044
   62GLOH   H06 9045   3.673   5.227   1.127 -0.0136  0.5692  0.4546
   62GLOH   H07 9046   3.823   5.217   1.045 -1.0673  2.3325 -0.0030
   62GLOH    O3 9047   3.835   5.320   1.239 -0.1998 -0.0701 -0.3370
   62GLOH   H01 9048   3.768   5.390   1.254  0.5277  0.9207 -1.5873
   63GLOH   H03 9049   4.479   4.126   1.467  1.7512  0.5857  2.4252
   63GLOH    O1 9050   4.464   4.223   1.471  0.0648  0.5173 -0.6869
   63GLOH    C1 9051   4.352   4.263   1.556 -0.1531  0.2367  0.5240
   63GLOH   H02 9052   4.328   4.192   1.634  1.8430  0.4758  1.3794
   63GLOH   H08 9053   4.264   4.276   1.492 -0.6120 -0.1543  1.0709
   63GLOH    C2 9054   4.363   4.405   1.615  0.2964  0.2871  0.2095
   63GLOH   H04 9055   4.357   4.482   1.537  1.2684  0.4525  0.2876
   63GLOH    O2 9056   4.242   4.426   1.698  0.6629 -0.3818  0.2388
   63GLOH   H05 9057   4.167   4.382   1.654  0.5274 -0.3792  0.4667
   63GLOH    C3 9058   4.494   4.432   1.691 -0.4867 -0.1639 -0.4395
   63GLOH   H06 9059   4.467   4.412   1.794  0.0183 -0.8821 -0.4356
   63GLOH   H07 9060   4.519   4.536   1.671 -1.9963  0.4519  0.7702
   63GLOH    O3 9061   4.602   4.350   1.643 -0.1435 -0.1559  0.3020
   63GLOH   H01 9062   4.559   4.300   1.571  0.3715 -0.0517 -0.0815
   64GLOH   H03 9063   4.519   3.708   2.454  0.7074 -2.1813 -0.0346
   64GLOH    O1 9064   4.576   3.711   2.533  0.7656 -0.9004 -0.1112
   64GLOH    C1 9065   4.546   3.578   2.578  0.0143  0.0522 -0.6002
   64GLOH   H02 9066   4.567   3.506   2.499  0.8708 -0.4959  0.1162
   64GLOH   H08 9067   4.440   3.573   2.605 -0.3716  0.5384 -1.9637
   64GLOH    C2 9068   4.626   3.537   2.704 -0.2293 -0.5680 -0.5119
   64GLOH   H04 9069   4.609   3.627   2.765  1.4745 -1.6575  1.6526
   64GLOH    O2 9070   4.578   3.419   2.769  0.3930 -0.1899  0.0574
   64GLOH   H05 9071   4.487   3.424   2.803  0.5069 -1.8073  0.6418
   64GLOH    C3 9072   4.775   3.504   2.678  0.4060 -0.0822  0.3789
   64GLOH   H06 9073   4.782   3.412   2.620  2.6955  0.0270  0.4498
   64GLOH   H07 9074   4.817   3.486   2.777 -1.1258  1.4622  1.3401
   64GLOH    O3 9075   4.857   3.604   2.618 -0.1365  0.3540 -0.3362
   64GLOH   H01 9076   4.858   3.680   2.678 -0.5629  1.9741 -2.3274
   65GLOH   H03 9077   3.645   8.745   0.300 -1.9109  1.0502 -0.7262
   65GLOH    O1 9078   3.585   8.677   0.335 -0.0819 -0.2976 -0.1104
   65GLOH    C1 9079   3.651   8.569   0.413 -0.2978  0.3000  0.0780
   65GLOH   H02 9080   3.579   8.501   0.459 -0.4691  0.2035 -0.3316
   65GLOH   H08 9081   3.717   8.610   0.490  1.7107  0.1969 -1.5569
   65GLOH    C2 9082   3.731   8.478   0.318 -0.5669 -0.1847  0.3316
   65GLOH   H04 9083   3.668   8.401   0.272 -0.5681 -1.0692  1.7943
   65GLOH    O2 9084   3.812   8.549   0.218 -0.2412  0.5934 -0.7238
   65GLOH   H05 9085   3.762   8.564   0.135  0.1921 -3.4724 -1.8365
   65GLOH    C3 9086   3.835   8.391   0.389  0.5419 -0.4065 -0.2334
   65GLOH   H06 9087   3.929   8.441   0.413  0.5496  0.1893 -1.4973
   65GLOH   H07 9088   3.863   8.306   0.327  1.8165 -0.3435  0.2498
   65GLOH    O3 9089   3.774   8.327   0.502 -0.2903  0.5677  0.4559
   65GLOH   H01 9090   3.715   8.260   0.463 -0.8260  1.2288  0.1214
   66GLOH   H03 9091   3.693   7.934   2.791 -1.0505 -1.3654 -3.1149
   66GLOH    O1 9092   3.646   7.863   2.839 -0.1356  0.1434  0.2117
   66GLOH    C1 9093   3.522   7.922   2.885  0.7842 -0.1299 -0.2502
   66GLOH   H02 9094   3.533   7.954   2.988  0.4950 -3.1793  0.7605
   66GLOH   H08 9095   3.440   7.851   2.873  0.3307  0.4448 -0.6023
   66GLOH    C2 9096   3.491   8.050   2.805 -0.1464  0.5017  0.3852
   66GLOH   H04 9097   3.473   8.023   2.700 -3.4498  0.0754  1.0266
   66GLOH    O2 9098   3.373   8.111   2.857 -0.3038  0.1001  0.1229
   66GLOH   H05 9099   3.384   8.206   2.846  1.3879 -0.2226 -1.1865
   66GLOH    C3 9100   3.607   8.148   2.805  0.3017 -0.3274  0.3094
   66GLOH   H06 9101   3.641   8.163   2.908 -0.3075 -0.6782  0.5649
   66GLOH   H07 9102   3.588   8.246   2.761  0.5027 -0.2959  0.2929
   66GLOH    O3 9103   3.717   8.080   2.744 -0.3382  0.2956 -0.5148
   66GLOH   H01 9104   3.772   8.143   2.694  0.2225 -0.3210 -0.6760
   67GLOH   H03 9105   4.108   4.891   2.762  1.4276 -2.3713 -0.4003
   67GLOH    O1 9106   4.163   4.913   2.839 -0.1047 -0.5791  0.2362
   67GLOH    C1 9107   4.189   5.052   2.838  0.1864 -0.2805 -0.0100
   67GLOH   H02 9108   4.089   5.093   2.824 -0.6996 -1.5549  2.4156
   67GLOH   H08 9109   4.239   5.085   2.747 -0.7535 -0.0486 -0.4466
   67GLOH    C2 9110   4.254   5.102   2.969 -0.3094  0.4903  0.4656
   67GLOH   H04 9111   4.267   5.208   2.946  2.3467 -0.1594 -1.2391
   67GLOH    O2 9112   4.164   5.085   3.082 -0.4918 -0.5027  0.5883
   67GLOH   H05 9113   4.155   4.997   3.124 -3.8338 -0.9735 -0.9644
   67GLOH    C3 9114   4.393   5.046   3.004  0.3005  0.3635 -0.6152
   67GLOH   H06 9115   4.413   5.053   3.111  0.1455  0.0372 -0.5653
   67GLOH   H07 9116   4.471   5.094   2.945 -1.3562 -1.0236 -4.0993
   67GLOH    O3 9117   4.388   4.911   2.957  0.2575 -0.4878  0.3781
   67GLOH   H01 9118   4.296   4.900   2.927  1.7635 -0.7878 -4.6545
   68GLOH   H03 9119   3.288   6.982   0.232  2.5758  0.5320  1.3066
   68GLOH    O1 9120   3.280   6.885   0.241  0.0515  0.6400  0.5352
   68GLOH    C1 9121   3.235   6.836   0.365  0.9409 -0.4347 -0.6838
   68GLOH   H02 9122   3.149   6.890   0.404  1.0874  0.0410 -0.9952
   68GLOH   H08 9123   3.308   6.840   0.446  0.3552  2.0937 -0.2206
   68GLOH    C2 9124   3.189   6.694   0.361 -1.3109 -0.1178 -0.0334
   68GLOH   H04 9125   3.162   6.675   0.466  0.2221 -0.1380  0.3668
   68GLOH    O2 9126   3.067   6.673   0.286  0.0675  0.0781  0.2895
   68GLOH   H05 9127   3.067   6.726   0.204 -1.5724  0.7350  0.6827
   68GLOH    C3 9128   3.297   6.588   0.327 -0.2946  0.3365  0.8808
   68GLOH   H06 9129   3.257   6.489   0.352 -0.0706  0.2019  0.7085
   68GLOH   H07 9130   3.386   6.602   0.388 -0.2226  1.1501  0.5934
   68GLOH    O3 9131   3.325   6.600   0.188 -0.4584 -0.2945  0.2987
   68GLOH   H01 9132   3.327   6.694   0.161 -0.3967 -0.5124 -0.4585
   69GLOH   H03 9133   3.043   3.104   2.649  0.2518  1.2034 -0.3534
   69GLOH    O1 9134   3.015   3.056   2.569 -0.0950 -0.3632  0.6831
   69GLOH    C1 9135   2.876   3.025   2.551  0.5044 -0.0663 -0.0282
   69GLOH   H02 9136   2.840   2.976   2.642  2.4059  0.3612  0.9755
   69GLOH   H08 9137   2.877   2.960   2.464 -0.6504 -0.5941  0.3463
   69GLOH    C2 9138   2.796   3.156   2.508  0.6855 -0.2745  0.1242
   69GLOH   H04 9139   2.799   3.241   2.578 -2.4140 -0.2958  0.3591
   69GLOH    O2 9140   2.849   3.195   2.382  0.8317 -0.2343 -0.4225
   69GLOH   H05 9141   2.938   3.233   2.386  0.5250  0.3046  1.6147
   69GLOH    C3 9142   2.641   3.149   2.499  0.0785  0.1153 -0.8964
   69GLOH   H06 9143   2.615   3.079   2.419 -3.8860  1.1919 -0.6470
   69GLOH   H07 9144   2.605   3.250   2.475 -0.5899  0.4765  1.5331
   69GLOH    O3 9145   2.572   3.102   2.617  0.0580  0.3059  0.5067
   69GLOH   H01 9146   2.515   3.173   2.651 -0.9193  0.9163 -2.2345
   70GLOH   H03 9147   3.281   7.786   0.233 -0.5205  0.6102  0.7578
   70GLOH    O1 9148   3.298   7.693   0.258 -0.0548  0.3416 -0.5126
   70GLOH    C1 9149   3.414   7.680   0.347  0.1780 -0.1612  0.4232
   70GLOH   H02 9150   3.370   7.664   0.446 -0.5136 -1.1879 -0.0454
   70GLOH   H08 9151   3.472   7.773   0.340 -0.9776  0.7097  2.0226
   70GLOH    C2 9152   3.512   7.562   0.322 -0.3437 -0.0418  0.3404
   70GLOH   H04 9153   3.556   7.582   0.223  2.1904  1.1813  1.6595
   70GLOH    O2 9154   3.620   7.558   0.419  0.0103 -0.4723 -0.4375
   70GLOH   H05 9155   3.621   7.646   0.460 -0.5142 -0.5373 -0.2832
   70GLOH    C3 9156   3.439   7.426   0.323 -0.3876 -0.5125  0.1059
   70GLOH   H06 9157   3.391   7.421   0.421  1.7324 -0.6680  1.1577
   70GLOH   H07 9158   3.516   7.351   0.306 -3.3536 -3.9391  1.0853
   70GLOH    O3 9159   3.358   7.394   0.213  0.5407 -0.0239  0.8659
   70GLOH   H01 9160   3.334   7.482   0.179 -0.1100  0.4304  2.4398
   71GLOH   H03 9161   3.831   1.212   2.270 -0.1696  0.3088  0.9641
   71GLOH    O1 9162   3.925   1.197   2.247 -0.4481 -0.2775  0.2134
   71GLOH    C1 9163   3.975   1.066   2.288 -1.1020  0.0475 -0.3790
   71GLOH   H02 9164   3.993   1.053   2.394  1.1353  1.1821 -0.5858
   71GLOH   H08 9165   4.076   1.053   2.249  0.3216  0.9743  2.8487
   71GLOH    C2 9166   3.894   0.944   2.229  0.0349 -0.2986  0.0907
   71GLOH   H04 9167   3.894   0.949   2.119 -3.7130 -2.2468 -0.0761
   71GLOH    O2 9168   3.948   0.819   2.271  0.1427 -0.3718  0.2597
   71GLOH   H05 9169   3.894   0.750   2.228 -1.8739  0.9697  0.5631
   71GLOH    C3 9170   3.743   0.949   2.273 -0.4699 -0.0684  0.1489
   71GLOH   H06 9171   3.717   0.956   2.379  0.4097 -0.7066  0.4119
   71GLOH   H07 9172   3.703   0.852   2.245 -0.3428 -0.1138  0.1247
   71GLOH    O3 9173   3.671   1.051   2.205 -0.0567  0.3227 -0.1377
   71GLOH   H01 9174   3.652   1.031   2.111  0.1475  1.5979 -0.4639
   72GLOH   H03 9175   4.220   9.185   1.878  2.0446 -0.9284 -0.9219
   72GLOH    O1 9176   4.265   9.255   1.930 -0.0196 -0.3611  0.1891
   72GLOH    C1 9177   4.200   9.383   1.913  0.0799  0.0403 -0.4453
   72GLOH   H02 9178   4.185   9.413   1.809  0.7229 -0.1909 -0.6123
   72GLOH   H08 9179   4.269   9.459   1.950  0.7878  1.2529 -4.0209
   72GLOH    C2 9180   4.063   9.394   1.989 -0.3586 -0.6855  0.5839
   72GLOH   H04 9181   4.022   9.496   1.982 -1.1069 -0.8551  2.3517
   72GLOH    O2 9182   3.968   9.299   1.922 -0.3994 -0.4169 -0.3393
   72GLOH   H05 9183   3.960   9.331   1.830 -0.2109 -1.4758 -0.7290
   72GLOH    C3 9184   4.086   9.359   2.140  0.1937  0.5853 -0.3740
   72GLOH   H06 9185   4.087   9.251   2.155  0.2478  1.0263  3.2051
   72GLOH   H07 9186   3.989   9.389   2.180 -0.1084  1.8172 -1.9331
   72GLOH    O3 9187   4.189   9.434   2.200 -0.6201 -0.3609  0.5281
   72GLOH   H01 9188   4.166   9.421   2.294 -0.7537  0.9718  0.6941
   73GLOH   H03 9189   3.941   9.861   0.925 -0.6073 -0.7747  2.3441
   73GLOH    O1 9190   3.920   9.767   0.907  0.2498 -0.6772  0.7787
   73GLOH    C1 9191   3.931   9.717   1.039  0.4150 -0.0230  0.5526
   73GLOH   H02 9192   4.002   9.782   1.090 -0.5082  1.8164 -0.4605
   73GLOH   H08 9193   3.974   9.617   1.037  1.1106  0.1454  3.7937
   73GLOH    C2 9194   3.802   9.705   1.121  0.1368  0.2374  0.0041
   73GLOH   H04 9195   3.740   9.630   1.069 -0.7291  0.4063  0.7941
   73GLOH    O2 9196   3.839   9.663   1.253  0.3555 -0.0834 -0.1758
   73GLOH   H05 9197   3.853   9.732   1.320  0.4050 -1.7565  1.5647
   73GLOH    C3 9198   3.724   9.839   1.137  0.1058  0.1255 -0.2984
   73GLOH   H06 9199   3.706   9.880   1.038 -0.2612  0.3433 -0.1402
   73GLOH   H07 9200   3.790   9.912   1.182 -0.7630  0.6573  0.1195
   73GLOH    O3 9201   3.604   9.818   1.214 -0.7556 -0.2622  0.1882
   73GLOH   H01 9202   3.531   9.794   1.155  0.7064 -0.0943 -1.7390
   74GLOH   H03 9203   4.608   2.431   2.126 -0.7938 -0.2579  0.7261
   74GLOH    O1 9204   4.619   2.347   2.175 -0.1256 -0.3988  0.3456
   74GLOH    C1 9205   4.759   2.330   2.201  0.0189 -0.0360 -0.4837
   74GLOH   H02 9206   4.831   2.371   2.130  1.4963 -0.4370  0.7634
   74GLOH   H08 9207   4.782   2.224   2.202 -0.5574 -0.1715  2.1205
   74GLOH    C2 9208   4.794   2.384   2.344  0.0314 -0.0379  0.4706
   74GLOH   H04 9209   4.903   2.396   2.354  0.2718 -1.5409 -0.2218
   74GLOH    O2 9210   4.726   2.504   2.376 -0.3110 -0.1207 -0.0762
   74GLOH   H05 9211   4.747   2.524   2.469 -1.6462 -0.3205  0.2846
   74GLOH    C3 9212   4.752   2.264   2.438 -1.1202  0.2385 -0.4208
   74GLOH   H06 9213   4.643   2.255   2.434 -1.1245 -0.7916  1.5183
   74GLOH   H07 9214   4.782   2.306   2.535  1.8381 -0.5176 -0.9712
   74GLOH    O3 9215   4.819   2.134   2.422  0.7263  0.1388 -0.0528
   74GLOH   H01 9216   4.748   2.075   2.392  0.2643 -0.2528  1.7478
   75GLOH   H03 9217   3.164   4.726   1.888 -0.7192  1.0313  0.0948
   75GLOH    O1 9218   3.184   4.800   1.827  0.7788  0.3553 -0.2590
   75GLOH    C1 9219   3.298   4.873   1.876  0.1054 -0.3413 -0.3834
   75GLOH   H02 9220   3.276   4.922   1.970  2.6197  0.6647 -0.2879
   75GLOH   H08 9221   3.325   4.954   1.808 -0.8588  1.1473  0.9780
   75GLOH    C2 9222   3.421   4.782   1.896  0.6428  0.3016  0.0652
   75GLOH   H04 9223   3.445   4.745   1.795  0.2573 -0.3760  0.2213
   75GLOH    O2 9224   3.535   4.851   1.945  0.6216  0.4137  0.3107
   75GLOH   H05 9225   3.508   4.926   2.000  1.3205  0.7603  0.1829
   75GLOH    C3 9226   3.387   4.664   1.989 -0.2191  0.0212  0.4225
   75GLOH   H06 9227   3.385   4.703   2.091  1.6879 -0.1135  0.5116
   75GLOH   H07 9228   3.464   4.588   1.977  1.3517  1.7425 -0.7317
   75GLOH    O3 9229   3.262   4.594   1.958 -0.4076 -0.4845  0.9331
   75GLOH   H01 9230   3.257   4.527   2.029  2.3238 -3.2754 -1.3293
   76GLOH   H03 9231   3.507   7.880   2.177  0.9375 -0.5736 -2.3171
   76GLOH    O1 9232   3.604   7.879   2.188  0.7071  0.3381  0.0444
   76GLOH    C1 9233   3.666   7.860   2.056 -0.4435 -0.3869 -0.4627
   76GLOH   H02 9234   3.685   7.755   2.033 -1.5593 -0.5825 -0.5254
   76GLOH   H08 9235   3.763   7.907   2.069  0.5587 -2.8682  1.5146
   76GLOH    C2 9236   3.586   7.925   1.949 -0.8643 -0.1597  0.4827
   76GLOH   H04 9237   3.645   7.902   1.859 -1.1074  3.3760 -0.6780
   76GLOH    O2 9238   3.453   7.869   1.930 -0.2456  0.3809  0.0128
   76GLOH   H05 9239   3.406   7.941   1.885 -0.4246  1.1746  1.4517
   76GLOH    C3 9240   3.591   8.075   1.965 -0.3644 -0.0761  0.2705
   76GLOH   H06 9241   3.537   8.107   2.055  0.7462 -0.4754  1.0945
   76GLOH   H07 9242   3.537   8.107   1.876 -1.6382 -0.5809  0.8461
   76GLOH    O3 9243   3.719   8.141   1.954  0.8257 -0.5808  0.1215
   76GLOH   H01 9244   3.714   8.215   2.017  2.8512 -2.1029  2.1589
   77GLOH   H03 9245   3.500   8.684   1.770 -2.2960 -0.0066 -0.2049
   77GLOH    O1 9246   3.492   8.601   1.720  0.2950 -0.2797 -0.2635
   77GLOH    C1 9247   3.423   8.619   1.590 -0.2491 -0.1831 -0.6351
   77GLOH   H02 9248   3.359   8.706   1.610 -0.2100 -0.1900 -0.4794
   77GLOH   H08 9249   3.356   8.537   1.564  0.1237 -1.0346  1.0070
   77GLOH    C2 9250   3.515   8.636   1.467  0.0250  0.3481 -0.5227
   77GLOH   H04 9251   3.572   8.545   1.440  1.5111  1.4863 -1.2988
   77GLOH    O2 9252   3.433   8.651   1.349  0.2096  0.1638  0.4661
   77GLOH   H05 9253   3.377   8.573   1.334  0.8071 -0.1702 -0.0727
   77GLOH    C3 9254   3.607   8.763   1.473 -0.0703  0.2113  0.5413
   77GLOH   H06 9255   3.546   8.849   1.503 -0.6485 -0.1569  0.4230
   77GLOH   H07 9256   3.648   8.783   1.374  1.7041 -2.0122  0.7885
   77GLOH    O3 9257   3.711   8.733   1.566  0.6775  0.2095  0.3395
   77GLOH   H01 9258   3.796   8.746   1.520  0.0803  0.3550 -0.7224
   78GLOH   H03 9259   4.507   3.076   1.631  0.0044  2.9480  2.2628
   78GLOH    O1 9260   4.441   3.040   1.693 -0.2098 -0.4693  0.1872
   78GLOH    C1 9261   4.499   2.957   1.790  0.9684  0.0374 -0.4038
   78GLOH   H02 9262   4.505   2.856   1.750  1.2348  0.8790 -2.5101
   78GLOH   H08 9263   4.435   2.949   1.879  0.1576 -1.9684 -1.1441
   78GLOH    C2 9264   4.648   2.986   1.823  0.1891 -0.7756  0.4800
   78GLOH   H04 9265   4.649   3.085   1.870 -0.8474 -0.7206  0.3847
   78GLOH    O2 9266   4.713   2.893   1.909  0.0306  0.5180  0.0862
   78GLOH   H05 9267   4.642   2.860   1.967  1.9418 -2.8760  0.6296
   78GLOH    C3 9268   4.739   2.990   1.699  0.3942  0.4843 -0.3162
   78GLOH   H06 9269   4.740   2.893   1.650  1.8234  0.3695 -0.0800
   78GLOH   H07 9270   4.844   3.010   1.719  0.3574  0.6077 -0.2433
   78GLOH    O3 9271   4.691   3.080   1.605 -0.2033 -0.2914 -0.8894
   78GLOH   H01 9272   4.756   3.152   1.600  1.5302 -1.7362  0.1299
   79GLOH   H03 9273   4.000   0.424   1.652  2.8496  1.2604  1.9448
   79GLOH    O1 9274   3.970   0.393   1.740  0.4325  0.2749  0.8187
   79GLOH    C1 9275   3.957   0.250   1.718  0.8065 -0.9242 -0.8621
   79GLOH   H02 9276   3.859   0.239   1.670  0.8581 -1.3158 -0.8764
   79GLOH   H08 9277   3.958   0.203   1.817  2.1568 -0.1366 -0.4839
   79GLOH    C2 9278   4.063   0.173   1.643  1.1173 -0.5899 -0.7213
   79GLOH   H04 9279   4.155   0.191   1.700 -1.2115  1.4638  2.5727
   79GLOH    O2 9280   4.032   0.036   1.627  0.2201  0.5556 -0.1135
   79GLOH   H05 9281   4.011   0.001   1.716 -0.8880  0.9459 -0.2180
   79GLOH    C3 9282   4.085   0.225   1.496  0.2190 -0.2218 -0.2069
   79GLOH   H06 9283   3.995   0.189   1.446 -0.3961  2.6868 -1.2729
   79GLOH   H07 9284   4.164   0.168   1.447 -0.6611 -0.5659 -1.2303
   79GLOH    O3 9285   4.099   0.371   1.512 -0.2539  0.4984 -0.0156
   79GLOH   H01 9286   4.121   0.406   1.424 -1.0202  1.9790  0.3709
   80GLOH   H03 9287   3.898   0.134   2.344 -1.0342  0.4950  1.1509
   80GLOH    O1 9288   3.830   0.164   2.281 -0.3699  0.0131  0.2112
   80GLOH    C1 9289   3.769   0.043   2.234  0.5126 -0.7224  0.3250
   80GLOH   H02 9290   3.708   0.002   2.314 -3.9102  1.2213 -1.8919
   80GLOH   H08 9291   3.837  -0.031   2.192  0.9732 -0.8750  1.3397
   80GLOH    C2 9292   3.670   0.068   2.120 -0.7859  0.1379 -0.2013
   80GLOH   H04 9293   3.725   0.076   2.025 -1.0430  1.1399 -0.2661
   80GLOH    O2 9294   3.577  -0.041   2.088  0.2932 -0.6221  0.1264
   80GLOH   H05 9295   3.515  -0.052   2.163 -0.4840  1.2230 -0.2239
   80GLOH    C3 9296   3.601   0.203   2.129 -0.3868  0.3881  0.1965
   80GLOH   H06 9297   3.552   0.206   2.227 -1.1282  1.7828 -0.1996
   80GLOH   H07 9298   3.516   0.198   2.061 -0.4349 -1.6435  0.3818
   80GLOH    O3 9299   3.690   0.315   2.117 -0.4414  0.4343 -0.1264
   80GLOH   H01 9300   3.765   0.294   2.176 -1.2948 -0.0873  0.8092
   81GLOH   H03 9301   2.553   5.578   1.592  1.8364 -2.2096  4.4806
   81GLOH    O1 9302   2.592   5.507   1.540 -0.5634 -0.3583 -0.0884
   81GLOH    C1 9303   2.604   5.572   1.409  0.3388  0.1942 -0.2446
   81GLOH   H02 9304   2.671   5.657   1.424 -0.1831  0.7249 -0.8575
   81GLOH   H08 9305   2.505   5.603   1.373 -0.5020  0.7558  2.4681
   81GLOH    C2 9306   2.663   5.485   1.298  0.2868  0.1406  0.2592
   81GLOH   H04 9307   2.601   5.395   1.281  0.1263  0.3668 -0.3631
   81GLOH    O2 9308   2.644   5.549   1.176 -1.0470 -0.8112 -0.0185
   81GLOH   H05 9309   2.700   5.628   1.181 -2.0246 -0.1007 -0.2097
   81GLOH    C3 9310   2.810   5.452   1.330 -0.0174 -0.0089 -0.2748
   81GLOH   H06 9311   2.811   5.417   1.433  0.3851  1.2136  0.1379
   81GLOH   H07 9312   2.873   5.540   1.320  1.9797 -1.5691 -2.0055
   81GLOH    O3 9313   2.862   5.349   1.238  0.0525  0.6572 -0.7073
   81GLOH   H01 9314   2.862   5.267   1.291 -0.2072 -0.8640 -3.0272
   82GLOH   H03 9315   4.038   8.991   0.671  0.4246 -2.7226 -3.7434
   82GLOH    O1 9316   4.114   9.044   0.640  0.3471  0.1931  0.5991
   82GLOH    C1 9317   4.065   9.165   0.586  0.1385  0.0034 -0.3078
   82GLOH   H02 9318   3.956   9.165   0.588  0.1058 -1.4282 -1.1259
   82GLOH   H08 9319   4.101   9.171   0.483 -1.1056  1.4058 -0.6722
   82GLOH    C2 9320   4.120   9.283   0.668 -0.2151  0.2482  0.5867
   82GLOH   H04 9321   4.228   9.279   0.688 -0.2866  2.9284  1.6981
   82GLOH    O2 9322   4.115   9.413   0.592 -0.0278  0.0478 -0.0602
   82GLOH   H05 9323   4.030   9.459   0.602 -1.0117 -1.2239 -2.1220
   82GLOH    C3 9324   4.042   9.301   0.802 -0.2734  0.2727 -0.1554
   82GLOH   H06 9325   3.944   9.333   0.766 -0.1512  1.6301  0.6699
   82GLOH   H07 9326   4.086   9.388   0.852  0.7552 -0.0255 -0.5335
   82GLOH    O3 9327   4.039   9.192   0.888 -0.1859 -0.2065  0.3130
   82GLOH   H01 9328   4.122   9.143   0.876  1.1041  1.8173  0.6891
   83GLOH   H03 9329   3.529   9.890   0.751 -1.7409 -0.4572  0.0982
   83GLOH    O1 9330   3.521   9.973   0.800 -0.3721  0.0133 -0.4577
   83GLOH    C1 9331   3.562  10.089   0.723 -0.2925  0.7970 -0.3959
   83GLOH   H02 9332   3.671  10.098   0.729 -0.3592  0.5236  1.6679
   83GLOH   H08 9333   3.516  10.181   0.759 -1.3130  0.3638 -0.5710
   83GLOH    C2 9334   3.515  10.080   0.578 -0.1138 -0.2803 -0.0179
   83GLOH   H04 9335   3.407  10.056   0.580 -0.1695 -0.0430 -0.1416
   83GLOH    O2 9336   3.538  10.209   0.510  0.3025  0.2756  0.1813
   83GLOH   H05 9337   3.481  10.281   0.544 -0.5668 -0.1465 -0.3688
   83GLOH    C3 9338   3.589   9.972   0.506 -0.2696 -0.1623  0.1018
   83GLOH   H06 9339   3.695   9.993   0.519 -0.0365 -1.3526  0.1779
   83GLOH   H07 9340   3.558   9.981   0.402 -2.3581  2.0957  0.8795
   83GLOH    O3 9341   3.567   9.838   0.551 -0.2649 -0.4162 -0.3435
   83GLOH   H01 9342   3.567   9.771   0.480 -0.0437  0.9319 -1.6307
   84GLOH   H03 9343   3.874   5.074   0.289  0.3073  2.1162 -1.2019
   84GLOH    O1 9344   3.883   5.110   0.379 -0.5893 -1.1002  0.2679
   84GLOH    C1 9345   3.822   5.018   0.471 -0.2769  0.1201  0.1883
   84GLOH   H02 9346   3.902   4.989   0.539 -2.5788 -0.6335  2.6810
   84GLOH   H08 9347   3.788   4.924   0.426  3.0417 -0.5121 -1.1231
   84GLOH    C2 9348   3.707   5.080   0.546  0.1120  0.0602 -0.1446
   84GLOH   H04 9349   3.757   5.162   0.600 -1.3839  1.5251 -0.9179
   84GLOH    O2 9350   3.606   5.141   0.466  0.7666 -0.4928 -0.4493
   84GLOH   H05 9351   3.575   5.218   0.517 -0.9727 -1.2870 -0.2899
   84GLOH    C3 9352   3.632   4.988   0.642  0.0016 -0.4081  0.2317
   84GLOH   H06 9353   3.558   5.051   0.691 -1.6897 -1.3007 -1.1190
   84GLOH   H07 9354   3.695   4.952   0.723 -0.2193 -2.5855 -0.5482
   84GLOH    O3 9355   3.570   4.870   0.589 -0.1567 -0.3528 -0.5207
   84GLOH   H01 9356   3.501   4.839   0.650  2.3550  0.6203  2.9736
   85GLOH   H03 9357   3.104   4.249   1.701 -1.0107 -0.6434 -0.4553
   85GLOH    O1 9358   3.123   4.234   1.795 -0.7470  0.0949 -0.3877
   85GLOH    C1 9359   3.250   4.178   1.803 -1.2038 -0.1509 -0.4729
   85GLOH   H02 9360   3.295   4.163   1.705 -0.3966  0.6383 -0.2310
   85GLOH   H08 9361   3.243   4.078   1.846 -0.8062 -0.7270 -1.7295
   85GLOH    C2 9362   3.354   4.266   1.880  0.4731  0.6057  0.0908
   85GLOH   H04 9363   3.301   4.309   1.966 -0.0030 -0.6041  0.4105
   85GLOH    O2 9364   3.460   4.186   1.932  0.0357 -0.8131 -0.6409
   85GLOH   H05 9365   3.449   4.190   2.028 -0.0599 -1.5082 -0.6177
   85GLOH    C3 9366   3.406   4.377   1.788  0.0373 -0.0603 -0.3102
   85GLOH   H06 9367   3.458   4.342   1.700 -1.9905 -3.6663 -0.1657
   85GLOH   H07 9368   3.482   4.428   1.848  2.6372 -1.2145 -2.5352
   85GLOH    O3 9369   3.295   4.463   1.755 -0.3903  0.2304  0.4576
   85GLOH   H01 9370   3.272   4.519   1.831 -0.1352 -1.3074  1.7116
   86GLOH   H03 9371   3.245   7.612   0.010  0.3880  0.8103 -0.7525
   86GLOH    O1 9372   3.316   7.545   0.008  0.0412  0.4026  0.1324
   86GLOH    C1 9373   3.384   7.546  -0.120 -0.8801  0.2982 -0.1865
   86GLOH   H02 9374   3.478   7.493  -0.125 -1.5426 -0.9925  0.7023
   86GLOH   H08 9375   3.409   7.649  -0.144  0.6364 -0.1235 -0.4391
   86GLOH    C2 9376   3.304   7.484  -0.234  0.0587 -0.3948  1.3599
   86GLOH   H04 9377   3.201   7.522  -0.238 -0.0873 -0.8652  0.5456
   86GLOH    O2 9378   3.370   7.516  -0.356  0.9356 -0.5439  0.2129
   86GLOH   H05 9379   3.313   7.486  -0.428 -0.4990  3.0355 -0.2232
   86GLOH    C3 9380   3.297   7.335  -0.217 -0.2983 -0.3347  0.1114
   86GLOH   H06 9381   3.395   7.289  -0.234  0.3176  0.6750  0.8574
   86GLOH   H07 9382   3.232   7.293  -0.293 -0.3925  0.1090 -0.0507
   86GLOH    O3 9383   3.238   7.296  -0.092 -0.0892 -0.2872 -0.5925
   86GLOH   H01 9384   3.269   7.372  -0.039 -0.5733 -1.0362  0.7673
   87GLOH   H03 9385   4.230   4.238   2.825 -0.7515 -1.3015  1.5002
   87GLOH    O1 9386   4.248   4.162   2.766 -0.2297  0.1327 -0.2164
   87GLOH    C1 9387   4.388   4.130   2.748  0.4169 -0.8619 -0.5029
   87GLOH   H02 9388   4.447   4.187   2.819  0.6737  0.3303 -1.6493
   87GLOH   H08 9389   4.422   4.151   2.647  0.1889 -0.3105 -0.4676
   87GLOH    C2 9390   4.403   3.974   2.783 -0.1212  0.1348 -0.0193
   87GLOH   H04 9391   4.356   3.955   2.881 -0.3243 -1.1634 -0.3589
   87GLOH    O2 9392   4.332   3.895   2.689  0.3227  0.0206  0.8117
   87GLOH   H05 9393   4.325   3.944   2.606  2.2596  0.5672  0.9400
   87GLOH    C3 9394   4.553   3.933   2.785 -0.4085  0.2047  0.1450
   87GLOH   H06 9395   4.556   3.829   2.819 -2.6565  0.0897  0.0212
   87GLOH   H07 9396   4.601   4.006   2.849  0.0431 -0.0593  0.1195
   87GLOH    O3 9397   4.616   3.941   2.656  0.0965  0.4234 -0.1722
   87GLOH   H01 9398   4.569   3.863   2.622  0.2629 -0.2128  1.0350
   88GLOH   H03 9399   4.992   2.430   1.013  0.0125 -0.3811 -2.7821
   88GLOH    O1 9400   5.084   2.459   0.998  0.1926  0.2251 -0.6448
   88GLOH    C1 9401   5.134   2.527   1.114  0.2339 -0.2536  0.4010
   88GLOH   H02 9402   5.211   2.459   1.153 -0.1371 -2.1223 -1.9703
   88GLOH   H08 9403   5.054   2.521   1.187 -0.6449  0.3192 -0.5140
   88GLOH    C2 9404   5.172   2.675   1.097  0.0048 -0.3523  0.1287
   88GLOH   H04 9405   5.081   2.730   1.069  0.9198  0.0263 -2.2237
   88GLOH    O2 9406   5.233   2.730   1.210  0.3649 -0.3123  0.0161
   88GLOH   H05 9407   5.266   2.817   1.184 -0.6921 -0.0416 -0.4599
   88GLOH    C3 9408   5.278   2.684   0.982  0.0794 -0.4645 -0.8333
   88GLOH   H06 9409   5.244   2.635   0.891  3.2039  0.6745 -2.6791
   88GLOH   H07 9410   5.364   2.625   1.013 -0.3856 -1.9209 -2.2390
   88GLOH    O3 9411   5.312   2.819   0.939 -0.5518  0.3302 -0.4247
   88GLOH   H01 9412   5.241   2.840   0.876 -0.6460  1.6297  0.1126
   89GLOH   H03 9413   3.076   7.050   0.505 -0.3718 -0.0479 -0.8740
   89GLOH    O1 9414   3.087   7.121   0.440 -0.0317  0.3171 -0.4286
   89GLOH    C1 9415   2.950   7.165   0.434 -0.5210  0.7180  0.2166
   89GLOH   H02 9416   2.886   7.111   0.504 -0.4387  0.3091 -0.0210
   89GLOH   H08 9417   2.910   7.142   0.335 -0.5135 -0.3760  0.4585
   89GLOH    C2 9418   2.948   7.318   0.449  0.3733  0.2085 -1.0058
   89GLOH   H04 9419   3.012   7.359   0.369 -1.5225  0.7252 -2.2912
   89GLOH    O2 9420   2.806   7.356   0.425 -0.7934  0.1376 -0.8167
   89GLOH   H05 9421   2.794   7.446   0.459 -0.7847  0.0878 -0.6835
   89GLOH    C3 9422   2.994   7.354   0.596 -0.1105  0.4031  0.1403
   89GLOH   H06 9423   3.101   7.342   0.609  0.1074  0.2724 -1.6238
   89GLOH   H07 9424   2.955   7.288   0.673 -0.4922  1.3948  0.8025
   89GLOH    O3 9425   2.972   7.492   0.631 -0.0137  0.4244  0.0759
   89GLOH   H01 9426   3.035   7.554   0.589 -0.9451  1.5796  0.3641
   90GLOH   H03 9427   3.023   6.563   0.828 -1.1385 -0.2122  1.1201
   90GLOH    O1 9428   3.001   6.658   0.821  0.4403  0.0773 -0.1997
   90GLOH    C1 9429   2.996   6.701   0.956 -0.0655  0.2223 -0.5377
   90GLOH   H02 9430   3.049   6.628   1.018 -1.4563 -0.0248  0.3599
   90GLOH   H08 9431   2.894   6.699   0.993 -0.1015  0.7948 -0.6146
   90GLOH    C2 9432   3.063   6.843   0.990 -0.0910 -0.1988  0.0793
   90GLOH   H04 9433   3.004   6.914   0.929  0.9809  1.8142  1.3228
   90GLOH    O2 9434   3.052   6.881   1.127  0.2473  0.0356 -0.0562
   90GLOH   H05 9435   3.082   6.973   1.137  2.0117 -0.6769  1.6432
   90GLOH    C3 9436   3.205   6.844   0.943  0.1277  0.9326 -0.4487
   90GLOH   H06 9437   3.259   6.767   0.997  0.3511  1.1269 -0.3925
   90GLOH   H07 9438   3.253   6.933   0.983 -3.5303  2.3868  0.9369
   90GLOH    O3 9439   3.213   6.823   0.803 -0.0947 -0.2649  1.1086
   90GLOH   H01 9440   3.160   6.744   0.782 -1.3664  0.7584  0.3867
   91GLOH   H03 9441   3.814   8.450   2.305  2.7808 -0.6569 -0.7938
   91GLOH    O1 9442   3.843   8.506   2.379 -0.1826 -0.2755  0.1216
   91GLOH    C1 9443   3.830   8.439   2.503  0.4195  0.2953 -0.1049
   91GLOH   H02 9444   3.728   8.402   2.512  0.9930 -1.8636 -2.0155
   91GLOH   H08 9445   3.847   8.503   2.590 -0.9263 -0.6321  0.8739
   91GLOH    C2 9446   3.915   8.316   2.514 -0.1991 -0.3730 -0.0469
   91GLOH   H04 9447   4.019   8.346   2.496 -0.5433  0.6342 -0.3786
   91GLOH    O2 9448   3.890   8.250   2.639  0.0561  0.7224 -0.6516
   91GLOH   H05 9449   3.950   8.276   2.711  0.4636 -1.9336  0.0453
   91GLOH    C3 9450   3.887   8.227   2.387 -0.7316  0.1875 -0.5407
   91GLOH   H06 9451   3.910   8.124   2.414 -1.7061  0.7324  2.5982
   91GLOH   H07 9452   3.940   8.264   2.299  0.5688  1.1632  0.6025
   91GLOH    O3 9453   3.748   8.221   2.346  0.3874 -0.2110  0.5151
   91GLOH   H01 9454   3.707   8.139   2.379 -1.3076  1.2009  2.0351
   92GLOH   H03 9455   3.328   9.262   0.365 -0.6486 -0.7347  0.8299
   92GLOH    O1 9456   3.257   9.200   0.390 -0.3348 -1.1367  0.7403
   92GLOH    C1 9457   3.149   9.202   0.291  0.2161  0.6938 -0.4330
   92GLOH   H02 9458   3.148   9.300   0.243 -0.4152  0.5665 -0.6811
   92GLOH   H08 9459   3.052   9.186   0.338 -0.2031 -0.3065 -1.5936
   92GLOH    C2 9460   3.173   9.093   0.179 -0.2867 -0.3014 -0.3356
   92GLOH   H04 9461   3.164   8.993   0.223  0.4225 -0.2821 -0.1531
   92GLOH    O2 9462   3.083   9.100   0.064 -1.0388 -0.1681 -0.1446
   92GLOH   H05 9463   3.110   9.165  -0.002 -0.3996 -0.4370 -0.1515
   92GLOH    C3 9464   3.321   9.096   0.129  0.6571  0.0130 -0.3190
   92GLOH   H06 9465   3.396   9.049   0.193 -0.9956 -0.5479  1.2473
   92GLOH   H07 9466   3.363   9.196   0.116  1.6544 -0.5475 -1.5704
   92GLOH    O3 9467   3.342   9.026   0.007  0.2946  0.0238 -0.7497
   92GLOH   H01 9468   3.283   9.048  -0.068 -1.1783 -0.2641  0.3142
   93GLOH   H03 9469   3.818   5.530   0.215 -0.4150  1.5182  1.0406
   93GLOH    O1 9470   3.900   5.532   0.267  0.5277  0.2265 -0.3370
   93GLOH    C1 9471   3.904   5.422   0.362  0.0534  0.3362 -0.0810
   93GLOH   H02 9472   3.893   5.333   0.300 -2.3212 -0.6288  1.6540
   93GLOH   H08 9473   3.820   5.430   0.430  2.2893 -0.4419  2.9091
   93GLOH    C2 9474   4.036   5.407   0.445 -0.7065  0.8651 -0.4692
   93GLOH   H04 9475   4.028   5.488   0.519 -3.0129  2.1107 -2.0000
   93GLOH    O2 9476   4.025   5.278   0.512 -0.2596  0.2740  0.4793
   93GLOH   H05 9477   3.974   5.216   0.458  0.7233  0.6668 -0.9314
   93GLOH    C3 9478   4.159   5.430   0.357  0.5744  0.8303  0.3759
   93GLOH   H06 9479   4.154   5.352   0.282  2.0234  0.0166  1.1100
   93GLOH   H07 9480   4.256   5.418   0.404 -0.0198  0.7555  1.6343
   93GLOH    O3 9481   4.145   5.562   0.301 -0.7090  0.0504 -0.1629
   93GLOH   H01 9482   4.050   5.584   0.292 -0.3797  0.4463 -3.0779
   94GLOH   H03 9483   2.794   7.426   1.557 -0.0045  1.5182 -1.5050
   94GLOH    O1 9484   2.884   7.415   1.519  0.6753  0.0132  0.4055
   94GLOH    C1 9485   2.977   7.354   1.598  0.3312  0.1386  0.1556
   94GLOH   H02 9486   3.031   7.285   1.533  0.9762  1.2734 -0.5212
   94GLOH   H08 9487   2.921   7.290   1.666 -2.9685  0.1926 -2.4112
   94GLOH    C2 9488   3.065   7.449   1.690  0.0177 -0.2316 -0.8336
   94GLOH   H04 9489   3.106   7.535   1.636 -0.5992 -1.0203 -2.6037
   94GLOH    O2 9490   2.983   7.506   1.798  0.5596  0.3454  0.2657
   94GLOH   H05 9491   2.926   7.578   1.765  0.0964 -1.2146 -2.5583
   94GLOH    C3 9492   3.203   7.397   1.739  0.0070  0.0178 -0.1986
   94GLOH   H06 9493   3.193   7.305   1.797  1.6618 -0.1156 -0.1234
   94GLOH   H07 9494   3.250   7.469   1.807 -1.0050  0.6474 -0.1452
   94GLOH    O3 9495   3.285   7.374   1.623 -0.0211  0.5247  0.4384
   94GLOH   H01 9496   3.292   7.277   1.614 -1.3485  0.5130 -0.6241
   95GLOH   H03 9497   2.939   9.176   1.578 -0.9799  2.8418 -1.8647
   95GLOH    O1 9498   2.874   9.182   1.651  0.3019  0.0418 -0.4068
   95GLOH    C1 9499   2.818   9.316   1.652 -0.3540 -0.8299 -0.1952
   95GLOH   H02 9500   2.745   9.321   1.571  2.0093 -2.3406 -2.5154
   95GLOH   H08 9501   2.894   9.384   1.613 -0.3812 -0.8501 -0.2821
   95GLOH    C2 9502   2.759   9.358   1.788 -0.1568 -0.9433  0.7380
   95GLOH   H04 9503   2.738   9.466   1.785 -0.2857 -1.0114 -3.0422
   95GLOH    O2 9504   2.643   9.278   1.829 -0.4129  0.0262 -0.9284
   95GLOH   H05 9505   2.677   9.195   1.866  0.7056  1.2800  0.9603
   95GLOH    C3 9506   2.871   9.330   1.894 -0.1797 -0.4982  0.7567
   95GLOH   H06 9507   2.963   9.382   1.868  1.5055 -1.5255  4.2862
   95GLOH   H07 9508   2.895   9.224   1.886 -0.9198 -0.5069 -1.9011
   95GLOH    O3 9509   2.838   9.359   2.026  0.1223 -0.2270  0.4812
   95GLOH   H01 9510   2.741   9.359   2.035 -0.0178  2.2223 -0.4901
   96GLOH   H03 9511   3.379   8.814   1.974 -0.4462 -0.5929  0.6539
   96GLOH    O1 9512   3.291   8.836   2.012 -0.4515  0.5711 -0.0029
   96GLOH    C1 9513   3.273   8.979   2.019 -0.0345 -0.1192 -0.7155
   96GLOH   H02 9514   3.320   9.022   1.930 -1.2951  2.6147 -0.1148
   96GLOH   H08 9515   3.334   9.015   2.102 -2.0802  0.3269  0.6205
   96GLOH    C2 9516   3.136   9.031   2.029  0.1417  0.9966 -0.3541
   96GLOH   H04 9517   3.086   9.016   1.932  0.0134 -2.7534  0.1872
   96GLOH    O2 9518   3.067   8.960   2.132 -0.4782  0.1671 -0.2418
   96GLOH   H05 9519   2.976   8.993   2.148 -0.1808  1.5237 -1.2778
   96GLOH    C3 9520   3.138   9.183   2.052  0.2834  0.0482  0.2100
   96GLOH   H06 9521   3.209   9.202   2.133 -0.7849 -1.3979  1.5155
   96GLOH   H07 9522   3.042   9.229   2.075 -0.1457 -0.3103 -0.8382
   96GLOH    O3 9523   3.200   9.256   1.943  0.1429 -0.4228  0.6404
   96GLOH   H01 9524   3.223   9.348   1.967 -1.3934 -0.4602  2.3264
   97GLOH   H03 9525   3.710   9.795   0.327  0.9800 -0.4900  1.0245
   97GLOH    O1 9526   3.789   9.853   0.320  0.1315  0.6004  0.3371
   97GLOH    C1 9527   3.873   9.789   0.226  0.3328  0.6472  0.1415
   97GLOH   H02 9528   3.925   9.859   0.160 -0.1410  0.2601 -0.6618
   97GLOH   H08 9529   3.814   9.736   0.150  1.5045  1.6272 -1.4909
   97GLOH    C2 9530   3.957   9.688   0.301  0.4692  0.5301 -0.5537
   97GLOH   H04 9531   3.885   9.630   0.361 -0.0178  2.9905  1.2939
   97GLOH    O2 9532   4.038   9.613   0.205  0.1231  0.0353 -0.0015
   97GLOH   H05 9533   4.109   9.565   0.250  1.0098  0.9944 -0.3333
   97GLOH    C3 9534   4.048   9.760   0.402 -0.6220 -0.5188 -0.2666
   97GLOH   H06 9535   4.106   9.831   0.342 -1.6383  1.2306  0.7663
   97GLOH   H07 9536   4.120   9.703   0.460  2.6246  0.9469 -2.6672
   97GLOH    O3 9537   3.972   9.832   0.501  0.5956 -0.4523  0.4962
   97GLOH   H01 9538   3.889   9.858   0.457  0.4128 -0.6461  0.7241
   98GLOH   H03 9539   3.177   0.986   0.541 -1.0442 -0.1574 -1.1633
   98GLOH    O1 9540   3.223   1.002   0.456  0.5829 -0.1996 -0.3214
   98GLOH    C1 9541   3.353   0.956   0.471 -0.5780  0.8470 -0.1985
   98GLOH   H02 9542   3.401   0.949   0.373  0.8480 -0.5719  0.5770
   98GLOH   H08 9543   3.354   0.853   0.506 -0.6859  0.8217 -0.2736
   98GLOH    C2 9544   3.456   1.032   0.558 -0.3029  0.4578  0.2963
   98GLOH   H04 9545   3.397   1.050   0.649  1.3334  1.3259  1.2121
   98GLOH    O2 9546   3.575   0.961   0.598 -0.7062  0.2461 -0.6942
   98GLOH   H05 9547   3.587   0.891   0.531 -1.9427 -0.1081 -0.5443
   98GLOH    C3 9548   3.500   1.163   0.486  1.1761  0.1187  0.3238
   98GLOH   H06 9549   3.543   1.138   0.389 -1.3925  0.7544 -1.0218
   98GLOH   H07 9550   3.577   1.210   0.548 -1.5249  2.3929  2.0976
   98GLOH    O3 9551   3.391   1.256   0.477  0.2576  0.3599  0.5012
   98GLOH   H01 9552   3.336   1.214   0.408  2.7173 -0.3104 -1.1262
   99GLOH   H03 9553   2.384   0.190   2.237  1.0782  0.0720  0.5818
   99GLOH    O1 9554   2.396   0.287   2.236 -0.2043  0.2411 -0.5895
   99GLOH    C1 9555   2.475   0.316   2.115 -0.2222  0.1343  0.4921
   99GLOH   H02 9556   2.579   0.318   2.147  0.7316 -2.9792 -2.0546
   99GLOH   H08 9557   2.446   0.416   2.083  0.3427  1.1386  3.0648
   99GLOH    C2 9558   2.460   0.215   2.008  0.3096  0.4822 -0.0255
   99GLOH   H04 9559   2.358   0.205   1.968  0.3628 -0.3359  0.0253
   99GLOH    O2 9560   2.542   0.251   1.894 -0.2335  0.9768  0.3015
   99GLOH   H05 9561   2.550   0.347   1.892  0.1681  0.9337 -1.8215
   99GLOH    C3 9562   2.512   0.080   2.058 -0.3899 -0.7261  0.4269
   99GLOH   H06 9563   2.620   0.094   2.071 -0.6752  3.0707 -0.7502
   99GLOH   H07 9564   2.499   0.015   1.972  0.2422  2.3588 -2.0749
   99GLOH    O3 9565   2.447   0.030   2.178  0.3784 -0.4365  0.3599
   99GLOH   H01 9566   2.480  -0.056   2.211 -0.4936 -1.0500 -0.3748
  100GLOH   H03 9567   3.161   0.798   1.360 -0.0023 -0.0249  0.2106
  100GLOH    O1 9568   3.137   0.784   1.267  0.9378  0.0513 -0.0490
  100GLOH    C1 9569   3.070   0.658   1.260 -0.0671 -0.2587  0.1014
  100GLOH   H02 9570   3.005   0.649   1.347 -1.1828 -1.7416 -0.8575
  100GLOH   H08 9571   3.138   0.572   1.260 -1.2030 -1.1778 -0.2093
  100GLOH    C2 9572   2.968   0.637   1.146  0.5617  0.0856 -0.3795
  100GLOH   H04 9573   3.022   0.587   1.064  0.7310 -0.7075  0.2037
  100GLOH    O2 9574   2.868   0.546   1.188  0.0797  0.6621 -0.1777
  100GLOH   H05 9575   2.877   0.459   1.148  1.1611  1.3001 -1.3525
  100GLOH    C3 9576   2.905   0.771   1.103 -0.6877  0.4631 -0.9093
  100GLOH   H06 9577   2.857   0.813   1.191  0.1466  2.2131 -1.2650
  100GLOH   H07 9578   2.824   0.761   1.030 -1.5309  1.3143 -0.1130
  100GLOH    O3 9579   3.006   0.862   1.056 -0.5989 -0.4944 -0.4255
  100GLOH   H01 9580   3.071   0.868   1.129 -0.9869 -4.2934  0.3254
  101GLOH   H03 9581   4.980   4.277   0.442 -2.5816  0.8579 -1.6386
  101GLOH    O1 9582   4.933   4.257   0.526 -0.0653 -0.5275 -0.4736
  101GLOH    C1 9583   5.022   4.193   0.618 -1.1631 -0.0068 -1.0000
  101GLOH   H02 9584   4.978   4.195   0.717  3.3458  0.9918  1.1313
  101GLOH   H08 9585   5.113   4.252   0.631  0.2070 -2.4263  0.7037
  101GLOH    C2 9586   5.068   4.050   0.583  0.2353  0.5308 -0.3798
  101GLOH   H04 9587   5.113   4.054   0.483  3.1809 -0.2703  0.8534
  101GLOH    O2 9588   5.164   4.015   0.685  0.0459  0.0011  0.1988
  101GLOH   H05 9589   5.235   4.069   0.646  1.1321 -0.4649  1.4966
  101GLOH    C3 9590   4.945   3.955   0.590 -0.4340 -0.4690  0.1034
  101GLOH   H06 9591   4.979   3.855   0.564 -0.4389 -0.5399  0.3677
  101GLOH   H07 9592   4.879   3.982   0.508  1.1612  1.4490 -0.5986
  101GLOH    O3 9593   4.874   3.953   0.711 -0.2206  0.1260  0.2454
  101GLOH   H01 9594   4.939   3.930   0.780  2.3802  1.9097 -1.5156
  102GLOH   H03 9595   4.569   4.489   2.362  3.0933  0.8292 -1.5939
  102GLOH    O1 9596   4.529   4.453   2.281 -0.0906  0.3743  0.1176
  102GLOH    C1 9597   4.560   4.309   2.264 -0.7102  0.1381 -0.1780
  102GLOH   H02 9598   4.498   4.245   2.327  0.6522 -2.3027 -1.2428
  102GLOH   H08 9599   4.661   4.277   2.287 -0.6444  2.6294  3.2925
  102GLOH    C2 9600   4.551   4.263   2.118 -0.2083 -0.1129  0.1461
  102GLOH   H04 9601   4.620   4.327   2.061 -0.9309  0.6807  0.1576
  102GLOH    O2 9602   4.592   4.128   2.108 -0.0345  0.3553  0.6887
  102GLOH   H05 9603   4.529   4.069   2.064  0.1444  0.7457 -0.0941
  102GLOH    C3 9604   4.404   4.276   2.067  0.0038 -0.2121 -0.1697
  102GLOH   H06 9605   4.340   4.188   2.077 -2.3524  1.1544 -2.6110
  102GLOH   H07 9606   4.419   4.295   1.961  3.5901  0.7187  0.4191
  102GLOH    O3 9607   4.346   4.391   2.126 -0.0279 -0.0396  0.3094
  102GLOH   H01 9608   4.414   4.437   2.179  0.4909  0.1170 -0.4961
  103GLOH   H03 9609   4.278   9.227   2.731 -0.3479 -0.4641  0.9441
  103GLOH    O1 9610   4.303   9.135   2.712  0.6992 -0.0464  0.2969
  103GLOH    C1 9611   4.444   9.102   2.731  0.8731  0.1822  0.2408
  103GLOH   H02 9612   4.486   9.182   2.792 -1.0584  1.6562 -0.2849
  103GLOH   H08 9613   4.501   9.110   2.638  1.4007 -0.4936  0.5016
  103GLOH    C2 9614   4.472   8.971   2.802 -0.3246  0.3837  0.4586
  103GLOH   H04 9615   4.574   8.942   2.772 -0.5431 -0.5506  0.6023
  103GLOH    O2 9616   4.457   8.971   2.947  0.5884  0.0505 -0.1793
  103GLOH   H05 9617   4.374   9.013   2.974 -0.3570 -1.3018 -0.9535
  103GLOH    C3 9618   4.386   8.853   2.744 -1.0148 -0.1756  0.2696
  103GLOH   H06 9619   4.289   8.857   2.794 -1.4979  1.3315 -0.7572
  103GLOH   H07 9620   4.438   8.765   2.783  0.7935 -0.0663 -1.8483
  103GLOH    O3 9621   4.367   8.844   2.601 -0.0046 -0.0289 -0.2585
  103GLOH   H01 9622   4.315   8.919   2.566  1.9845  1.4269 -0.1536
  104GLOH   H03 9623   2.837   2.404   1.472  0.3363 -0.1321  0.8287
  104GLOH    O1 9624   2.863   2.495   1.447  0.1426 -0.3295 -0.1257
  104GLOH    C1 9625   2.990   2.544   1.501 -1.2665 -0.5239 -0.6609
  104GLOH   H02 9626   3.062   2.541   1.420 -1.3178  0.5025 -0.7468
  104GLOH   H08 9627   3.026   2.477   1.580  0.5755  0.6991 -0.4391
  104GLOH    C2 9628   2.974   2.682   1.557 -0.7215  0.0973  0.5798
  104GLOH   H04 9629   2.905   2.676   1.643 -1.2161  0.0105  0.1777
  104GLOH    O2 9630   3.098   2.741   1.601 -0.4036 -0.3587 -0.2890
  104GLOH   H05 9631   3.095   2.837   1.614 -0.6795 -0.3653 -0.3031
  104GLOH    C3 9632   2.911   2.774   1.453  0.4998  0.2632 -0.2321
  104GLOH   H06 9633   2.959   2.759   1.357  0.2082  2.7490 -0.8015
  104GLOH   H07 9634   2.909   2.876   1.491  1.4115  0.7314 -1.4206
  104GLOH    O3 9635   2.773   2.736   1.436 -0.5690  0.6122  0.6011
  104GLOH   H01 9636   2.775   2.639   1.436 -0.3250  0.6103 -0.5885
  105GLOH   H03 9637   3.676   1.189   0.865 -0.0945  0.4152 -0.9306
  105GLOH    O1 9638   3.630   1.271   0.893  0.1451  0.2165  0.0842
  105GLOH    C1 9639   3.493   1.261   0.851  0.3946 -0.1740 -0.0234
  105GLOH   H02 9640   3.430   1.280   0.938 -0.1538  0.0045 -0.4508
  105GLOH   H08 9641   3.477   1.162   0.807  2.8868 -1.2512  1.3944
  105GLOH    C2 9642   3.448   1.371   0.762  0.1739 -0.8975  0.7191
  105GLOH   H04 9643   3.514   1.389   0.676 -1.4176 -1.7710 -0.7341
  105GLOH    O2 9644   3.319   1.339   0.704 -0.5984 -0.4004  0.8436
  105GLOH   H05 9645   3.325   1.315   0.610 -0.1269  1.7405  0.3023
  105GLOH    C3 9646   3.445   1.506   0.839 -0.6030  0.7168 -0.2732
  105GLOH   H06 9647   3.531   1.536   0.899 -2.0303  0.8864  1.7270
  105GLOH   H07 9648   3.367   1.500   0.914 -1.4779  0.2374 -1.2221
  105GLOH    O3 9649   3.399   1.610   0.747  0.5078  0.3992 -0.0337
  105GLOH   H01 9650   3.332   1.573   0.687  1.8475 -0.3075 -1.1115
  106GLOH   H03 9651   3.967   8.608   2.427  1.2282 -0.3802 -0.2852
  106GLOH    O1 9652   4.040   8.666   2.455  0.6737  0.0999  0.2112
  106GLOH    C1 9653   4.018   8.800   2.394  0.4523 -0.5293 -0.0116
  106GLOH   H02 9654   4.068   8.881   2.448 -1.6594  0.8432 -0.0509
  106GLOH   H08 9655   3.912   8.826   2.398  1.1939  2.4068  2.7363
  106GLOH    C2 9656   4.064   8.807   2.244 -0.5079  1.0202  0.1208
  106GLOH   H04 9657   3.975   8.769   2.191 -1.3373  2.1005  0.7106
  106GLOH    O2 9658   4.075   8.949   2.229  0.5110 -0.2461  0.0890
  106GLOH   H05 9659   4.168   8.979   2.231 -0.2716  2.8143 -3.8105
  106GLOH    C3 9660   4.201   8.734   2.200  0.0708 -0.2204  0.2679
  106GLOH   H06 9661   4.187   8.628   2.222 -2.3172  0.4685  2.3318
  106GLOH   H07 9662   4.280   8.768   2.267 -0.8568  1.0116  0.7554
  106GLOH    O3 9663   4.236   8.751   2.063  0.3999 -0.2937 -0.5064
  106GLOH   H01 9664   4.286   8.834   2.052  3.3654 -2.4438 -4.2318
  107GLOH   H03 9665   3.657   2.597   1.040  2.4953  2.0526 -0.8980
  107GLOH    O1 9666   3.686   2.530   0.975  0.2919 -0.0815  0.2079
  107GLOH    C1 9667   3.816   2.564   0.921  1.0247  0.2396 -0.2097
  107GLOH   H02 9668   3.818   2.665   0.881 -3.0066  0.1121 -0.8880
  107GLOH   H08 9669   3.840   2.495   0.841 -0.1145  0.7178 -0.9746
  107GLOH    C2 9670   3.930   2.560   1.029 -1.4555  0.3926 -0.1394
  107GLOH   H04 9671   3.909   2.628   1.113 -1.2127  2.1798 -1.4843
  107GLOH    O2 9672   3.935   2.428   1.075 -0.5260 -0.1705 -0.5628
  107GLOH   H05 9673   3.959   2.377   0.996 -0.8507  0.5580 -1.1407
  107GLOH    C3 9674   4.068   2.600   0.966 -0.5023  0.1394  0.4435
  107GLOH   H06 9675   4.045   2.702   0.937 -1.9273 -0.0612  0.8316
  107GLOH   H07 9676   4.088   2.530   0.885  0.0725  2.1779 -1.2181
  107GLOH    O3 9677   4.179   2.595   1.054 -0.0382 -0.7397 -0.2738
  107GLOH   H01 9678   4.197   2.512   1.101 -2.7822  0.2639  2.6800
  108GLOH   H03 9679   2.550   2.110   0.003  0.6781  0.1112  1.2171
  108GLOH    O1 9680   2.512   2.198   0.016 -0.1626  0.0868 -0.8329
  108GLOH    C1 9681   2.493   2.224   0.156 -0.4422 -0.2228  0.2410
  108GLOH   H02 9682   2.573   2.179   0.214 -1.1988 -1.0959  0.6235
  108GLOH   H08 9683   2.401   2.176   0.191 -0.7553 -0.0200 -0.2863
  108GLOH    C2 9684   2.456   2.373   0.186 -0.0647  0.0090 -0.0075
  108GLOH   H04 9685   2.363   2.404   0.136 -0.4034 -0.1049  0.5474
  108GLOH    O2 9686   2.446   2.379   0.327 -0.2029  0.1045 -0.8688
  108GLOH   H05 9687   2.404   2.463   0.351  0.2935 -0.2349  1.3256
  108GLOH    C3 9688   2.568   2.469   0.144 -0.3584 -0.1701  0.0422
  108GLOH   H06 9689   2.603   2.450   0.043 -0.5967  2.0287 -0.4690
  108GLOH   H07 9690   2.656   2.445   0.204 -1.7478 -0.3953  2.0397
  108GLOH    O3 9691   2.538   2.611   0.160 -0.4163 -0.1638  0.2915
  108GLOH   H01 9692   2.461   2.616   0.219 -1.8621 -0.6027 -1.5432
  109GLOH   H03 9693   3.787   1.338   1.390  1.7026  2.7646 -0.2798
  109GLOH    O1 9694   3.750   1.361   1.303  0.1440 -0.8282 -0.6311
  109GLOH    C1 9695   3.774   1.230   1.236  0.0858 -0.0063  0.4975
  109GLOH   H02 9696   3.868   1.187   1.271  1.3177  2.3410  0.2424
  109GLOH   H08 9697   3.799   1.244   1.131  0.1800  1.3037  0.6781
  109GLOH    C2 9698   3.666   1.123   1.264 -0.4049  0.3842  0.4655
  109GLOH   H04 9699   3.689   1.072   1.359  0.2774 -2.2329 -1.0502
  109GLOH    O2 9700   3.533   1.185   1.263 -0.1363  0.2804 -0.2459
  109GLOH   H05 9701   3.543   1.268   1.313 -0.1944 -0.9817  1.9251
  109GLOH    C3 9702   3.676   1.017   1.150  0.7825  0.0408  0.3814
  109GLOH   H06 9703   3.656   1.067   1.056  1.1578  0.5387  0.5676
  109GLOH   H07 9704   3.611   0.931   1.169 -0.2774  1.0099  1.2204
  109GLOH    O3 9705   3.809   0.962   1.151  0.0571  0.5926 -0.8027
  109GLOH   H01 9706   3.870   1.004   1.088  1.4811 -2.1904 -1.3513
  110GLOH   H03 9707   2.505   0.449   0.511  0.6648 -1.3427 -0.0578
  110GLOH    O1 9708   2.489   0.384   0.582 -0.5113 -0.6027  0.3715
  110GLOH    C1 9709   2.533   0.412   0.719  0.5583 -0.0041  0.7342
  110GLOH   H02 9710   2.506   0.328   0.784 -1.5464  0.2044  0.1562
  110GLOH   H08 9711   2.495   0.508   0.751 -0.1252 -1.1296  3.4778
  110GLOH    C2 9712   2.684   0.415   0.733 -0.6749  0.5261  0.2828
  110GLOH   H04 9713   2.715   0.312   0.710 -0.0224  0.9789 -0.9918
  110GLOH    O2 9714   2.754   0.508   0.649 -0.3720  0.4406  0.0443
  110GLOH   H05 9715   2.850   0.504   0.663 -0.2175  0.3929 -0.9538
  110GLOH    C3 9716   2.722   0.432   0.880  0.3960 -0.7606 -0.1320
  110GLOH   H06 9717   2.675   0.521   0.920  1.1210 -0.8633  0.9567
  110GLOH   H07 9718   2.830   0.446   0.885  0.7267 -3.1778  0.0632
  110GLOH    O3 9719   2.687   0.314   0.948 -0.0134  0.1956  0.4314
  110GLOH   H01 9720   2.591   0.309   0.964 -0.1361 -0.9265 -0.6320
  111GLOH   H03 9721   3.077   5.655   0.064 -0.3654  0.7411 -2.1543
  111GLOH    O1 9722   3.061   5.559   0.058 -0.4571  0.5986 -0.0435
  111GLOH    C1 9723   3.094   5.488   0.176 -0.3418  0.0880  0.0659
  111GLOH   H02 9724   3.008   5.449   0.230  0.4641 -1.8391  0.0126
  111GLOH   H08 9725   3.150   5.554   0.242 -0.3823 -1.1038  1.3150
  111GLOH    C2 9726   3.181   5.365   0.144  0.3752  0.7432 -0.1331
  111GLOH   H04 9727   3.282   5.400   0.118 -0.2679 -0.2021 -4.2735
  111GLOH    O2 9728   3.193   5.282   0.263  0.5178  0.3023 -0.3728
  111GLOH   H05 9729   3.241   5.331   0.332  2.2965 -0.9333 -0.6765
  111GLOH    C3 9730   3.126   5.286   0.029 -0.1720  0.1896 -0.2428
  111GLOH   H06 9731   3.129   5.358  -0.052  1.5436 -1.3393 -1.5743
  111GLOH   H07 9732   3.019   5.271   0.046  0.1290  0.7753  2.4025
  111GLOH    O3 9733   3.202   5.166  -0.009 -0.6025 -0.3664  0.8274
  111GLOH   H01 9734   3.166   5.128  -0.092  2.2880 -0.6095 -0.3797
  112GLOH   H03 9735   3.147   7.160   2.730 -1.8278  0.6878  1.2209
  112GLOH    O1 9736   3.099   7.095   2.675 -0.0384  0.1143  0.3171
  112GLOH    C1 9737   3.120   6.974   2.745  0.5778  1.0205 -0.4756
  112GLOH   H02 9738   3.205   6.972   2.813 -0.7784 -0.0943  1.2240
  112GLOH   H08 9739   3.134   6.897   2.670  0.7203  0.0778  0.5153
  112GLOH    C2 9740   2.994   6.928   2.824 -0.5170  0.3471 -0.0215
  112GLOH   H04 9741   2.909   6.919   2.755 -1.7456  1.1805  1.3592
  112GLOH    O2 9742   3.016   6.807   2.902  0.0860 -0.1278 -0.0036
  112GLOH   H05 9743   2.930   6.788   2.943  1.0288 -2.3533  1.0028
  112GLOH    C3 9744   2.955   7.033   2.926 -0.7037 -0.3261 -0.7730
  112GLOH   H06 9745   2.957   7.126   2.868 -1.6007  0.5228  0.5504
  112GLOH   H07 9746   3.026   7.040   3.008 -2.0924  0.7026  0.3521
  112GLOH    O3 9747   2.828   7.014   2.987  0.6000  0.4639 -0.5820
  112GLOH   H01 9748   2.814   6.919   3.002  0.0429  0.7780  1.0924
  113GLOH   H03 9749   3.399   9.623   0.713  1.3195 -0.0430 -1.0826
  113GLOH    O1 9750   3.445   9.650   0.794  0.2325 -0.5570 -0.2955
  113GLOH    C1 9751   3.573   9.578   0.798  0.2797 -0.3031  0.6225
  113GLOH   H02 9752   3.621   9.589   0.895 -1.8728 -1.1799  1.8407
  113GLOH   H08 9753   3.632   9.625   0.720 -2.0926  0.4694 -0.7849
  113GLOH    C2 9754   3.563   9.433   0.750  0.2174  0.1409 -0.9246
  113GLOH   H04 9755   3.548   9.423   0.641  1.0990 -2.1762 -0.8689
  113GLOH    O2 9756   3.685   9.365   0.784 -0.0981 -0.4765  0.2240
  113GLOH   H05 9757   3.710   9.392   0.874 -0.7876  1.0077 -0.0139
  113GLOH    C3 9758   3.448   9.359   0.814  0.3383  0.1709 -0.4036
  113GLOH   H06 9759   3.353   9.410   0.793  0.8894  1.3851  0.0515
  113GLOH   H07 9760   3.465   9.374   0.920  2.1296 -0.9257 -0.5178
  113GLOH    O3 9761   3.443   9.216   0.773  0.3843 -0.2369  0.3478
  113GLOH   H01 9762   3.531   9.189   0.744 -0.1086 -0.8993 -0.5449
  114GLOH   H03 9763   4.382   2.406   1.203 -0.7147 -0.4803  0.5346
  114GLOH    O1 9764   4.323   2.397   1.125  0.0217 -0.9189  0.0178
  114GLOH    C1 9765   4.373   2.274   1.055  0.3297 -0.0965  0.1969
  114GLOH   H02 9766   4.480   2.257   1.072  0.4886  0.6158 -0.0586
  114GLOH   H08 9767   4.344   2.289   0.951  0.1618 -2.1317 -0.0788
  114GLOH    C2 9768   4.298   2.154   1.108 -0.3289  0.1598  0.4908
  114GLOH   H04 9769   4.196   2.181   1.076  1.6870  3.5958 -3.5212
  114GLOH    O2 9770   4.341   2.030   1.049 -0.2385  0.9384  0.3872
  114GLOH   H05 9771   4.289   2.014   0.968 -0.2012 -3.3601  1.0938
  114GLOH    C3 9772   4.308   2.151   1.254  0.2428  0.5744  0.1307
  114GLOH   H06 9773   4.256   2.060   1.285  1.3487 -0.0720  0.1102
  114GLOH   H07 9774   4.258   2.239   1.293 -0.9877  1.0361 -2.4003
  114GLOH    O3 9775   4.443   2.148   1.302 -0.0795  0.3846  0.0026
  114GLOH   H01 9776   4.463   2.234   1.346  1.0127  0.2203 -0.1451
  115GLOH   H03 9777   4.522   1.487   2.180 -0.1506  0.5157 -0.0608
  115GLOH    O1 9778   4.465   1.410   2.200  0.5864 -0.1080 -0.3060
  115GLOH    C1 9779   4.325   1.443   2.178 -0.2167 -0.6645 -0.6478
  115GLOH   H02 9780   4.309   1.486   2.079  0.5910  2.9648  0.7275
  115GLOH   H08 9781   4.297   1.518   2.253 -0.4725 -2.4664  1.0991
  115GLOH    C2 9782   4.230   1.325   2.188  1.1493 -0.2706  0.4951
  115GLOH   H04 9783   4.249   1.262   2.276  1.2041  0.8542  1.2939
  115GLOH    O2 9784   4.097   1.381   2.188 -0.0229  0.3262  0.3313
  115GLOH   H05 9785   4.037   1.318   2.229 -0.4391 -0.5416 -1.5463
  115GLOH    C3 9786   4.259   1.235   2.066  0.1959  0.0583 -0.0537
  115GLOH   H06 9787   4.240   1.295   1.977  0.1803  1.2231  0.7200
  115GLOH   H07 9788   4.193   1.149   2.059 -4.5187  3.5742 -1.1351
  115GLOH    O3 9789   4.395   1.187   2.060 -0.2252  0.5253  0.0900
  115GLOH   H01 9790   4.446   1.246   2.118 -1.1551  0.0380  1.3967
  116GLOH   H03 9791   4.239   1.621   0.982 -0.9580 -0.7962 -0.1969
  116GLOH    O1 9792   4.221   1.635   1.077 -0.3749 -0.4172 -0.1367
  116GLOH    C1 9793   4.092   1.578   1.114 -0.3237  0.6133 -0.8380
  116GLOH   H02 9794   4.092   1.473   1.144 -1.2979  0.6352 -0.7214
  116GLOH   H08 9795   4.020   1.594   1.033 -1.8282 -3.3541 -0.4210
  116GLOH    C2 9796   4.018   1.650   1.229 -0.1786 -0.2551 -0.2543
  116GLOH   H04 9797   4.030   1.759   1.217  0.1599 -0.3597 -0.9401
  116GLOH    O2 9798   3.881   1.609   1.244  0.4218  0.2610 -0.2448
  116GLOH   H05 9799   3.892   1.521   1.285 -0.7471 -0.5673 -1.6668
  116GLOH    C3 9800   4.090   1.615   1.360 -1.0166  0.0002  0.5205
  116GLOH   H06 9801   4.025   1.649   1.441  0.0095 -0.2557  1.4742
  116GLOH   H07 9802   4.188   1.662   1.367 -0.8334  0.2004 -2.7051
  116GLOH    O3 9803   4.100   1.477   1.378  0.1833 -0.1623  0.6066
  116GLOH   H01 9804   4.072   1.460   1.469 -0.6018 -1.1556  0.1857
  117GLOH   H03 9805   3.773   0.436   1.449  0.5660 -1.2323 -0.6071
  117GLOH    O1 9806   3.831   0.480   1.384 -0.1542  0.0321 -0.4142
  117GLOH    C1 9807   3.762   0.585   1.314  0.6541 -0.0735 -0.3338
  117GLOH   H02 9808   3.671   0.546   1.268  1.5200 -3.3274  0.5742
  117GLOH   H08 9809   3.815   0.606   1.221  0.5297 -0.1592 -0.4239
  117GLOH    C2 9810   3.747   0.725   1.382  0.3834  0.0806  0.6769
  117GLOH   H04 9811   3.697   0.794   1.312 -0.4440 -0.1482  1.0439
  117GLOH    O2 9812   3.654   0.711   1.494 -0.2151 -0.0102  0.5658
  117GLOH   H05 9813   3.598   0.789   1.481 -1.3038 -1.1528 -2.0778
  117GLOH    C3 9814   3.883   0.773   1.419  0.2251 -0.0210 -0.5233
  117GLOH   H06 9815   3.940   0.685   1.448 -0.3062 -0.4391 -0.7358
  117GLOH   H07 9816   3.885   0.831   1.511 -0.2173 -0.0830 -0.4694
  117GLOH    O3 9817   3.956   0.842   1.320  0.5972  0.5959 -0.1703
  117GLOH   H01 9818   3.904   0.895   1.256 -1.4523  0.1353  1.0620
  118GLOH   H03 9819   4.183   8.499   0.572  0.4884  0.1049 -1.4760
  118GLOH    O1 9820   4.145   8.588   0.583  0.2926 -0.1290 -0.2552
  118GLOH    C1 9821   4.248   8.681   0.544 -0.3200 -0.3608 -0.1564
  118GLOH   H02 9822   4.322   8.630   0.482  0.9162  0.5550  0.5330
  118GLOH   H08 9823   4.295   8.724   0.633 -1.8263  0.6061  0.2016
  118GLOH    C2 9824   4.199   8.804   0.468 -0.6155 -0.1703  0.2564
  118GLOH   H04 9825   4.104   8.839   0.510 -0.0950  1.7229 -0.0923
  118GLOH    O2 9826   4.295   8.917   0.477 -0.3462 -0.6723 -0.1152
  118GLOH   H05 9827   4.275   8.985   0.544 -0.0337 -0.9437  0.2591
  118GLOH    C3 9828   4.184   8.761   0.325 -0.4875  0.3278  0.2436
  118GLOH   H06 9829   4.187   8.652   0.318 -1.2681  0.1789  2.1287
  118GLOH   H07 9830   4.263   8.802   0.261  0.8022 -0.0504  1.5630
  118GLOH    O3 9831   4.061   8.804   0.268  0.6529  0.3776 -0.3166
  118GLOH   H01 9832   4.056   8.766   0.179  0.2409 -0.3330  0.0101
  119GLOH   H03 9833   4.667   3.630   0.156  0.3295  1.0812  1.6138
  119GLOH    O1 9834   4.762   3.644   0.140  0.2512 -0.0223  0.0385
  119GLOH    C1 9835   4.826   3.523   0.185  0.6086 -0.1586 -0.0410
  119GLOH   H02 9836   4.905   3.498   0.115 -0.3779 -0.7156 -0.9769
  119GLOH   H08 9837   4.745   3.450   0.189  0.6498 -0.1974  0.1037
  119GLOH    C2 9838   4.895   3.546   0.327  0.3934 -0.2300 -0.6684
  119GLOH   H04 9839   4.813   3.579   0.391  0.6035  0.0226 -0.5283
  119GLOH    O2 9840   4.958   3.426   0.374  0.1714  0.3691  0.0913
  119GLOH   H05 9841   5.006   3.452   0.455 -0.3354  1.2154  0.1340
  119GLOH    C3 9842   4.996   3.662   0.323  0.5245 -0.0997  1.0726
  119GLOH   H06 9843   5.072   3.629   0.253 -0.7280 -0.3471 -0.1834
  119GLOH   H07 9844   5.050   3.674   0.417  2.8509  1.0824 -0.3404
  119GLOH    O3 9845   4.940   3.783   0.279  0.1734 -0.4470  0.8054
  119GLOH   H01 9846   4.862   3.766   0.222  1.8729  2.1013 -2.4369
  120GLOH   H03 9847   3.778   3.621   1.716  2.3196 -0.0307 -1.1608
  120GLOH    O1 9848   3.757   3.526   1.703  0.1307  0.2602  0.0321
  120GLOH    C1 9849   3.613   3.495   1.700 -0.7620 -0.5559  0.2891
  120GLOH   H02 9850   3.561   3.527   1.791 -0.6991  0.3481  0.0034
  120GLOH   H08 9851   3.604   3.386   1.691  0.5878 -0.5299 -1.5522
  120GLOH    C2 9852   3.539   3.566   1.586 -0.5402  0.4212 -0.4603
  120GLOH   H04 9853   3.432   3.546   1.607 -0.7934  1.4396 -0.7620
  120GLOH    O2 9854   3.539   3.716   1.601  0.4827  0.4977 -0.7342
  120GLOH   H05 9855   3.501   3.747   1.685  1.5521  1.1211 -0.4690
  120GLOH    C3 9856   3.587   3.535   1.444  0.7405  0.2379 -0.1023
  120GLOH   H06 9857   3.542   3.605   1.373  2.3112 -4.2801 -6.0119
  120GLOH   H07 9858   3.557   3.434   1.416 -1.2038  1.1007 -1.2218
  120GLOH    O3 9859   3.728   3.540   1.435  0.1645 -0.5574  0.6835
  120GLOH   H01 9860   3.763   3.515   1.522  0.7865  1.3220  0.9950
  121ACOH    H4 9861   4.253   8.831   0.931 -0.6961  0.1021 -0.1369
  121ACOH    O2 9862   4.349   8.834   0.938 -0.6978 -0.4611  0.2023
  121ACOH    C2 9863   4.380   8.953   0.876 -0.1025  0.1834 -0.7174
  121ACOH    O1 9864   4.305   9.050   0.871 -0.1390  0.1620  0.4849
  121ACOH    C1 9865   4.523   8.961   0.844  0.6748 -0.1782 -1.2469
  121ACOH    H1 9866   4.573   8.968   0.940  0.0063  0.6951 -0.9537
  121ACOH    H2 9867   4.540   9.042   0.773 -0.8718  1.3853  0.1418
  121ACOH    H3 9868   4.561   8.871   0.795  1.7310  0.9730 -2.5869
  122ACOH    H4 9869   3.417   3.998   0.501  1.7121  1.0236 -2.7652
  122ACOH    O2 9870   3.436   3.912   0.459  0.2572 -0.7027 -0.0780
  122ACOH    C2 9871   3.537   3.938   0.371 -0.2785 -0.2569 -0.5008
  122ACOH    O1 9872   3.571   4.046   0.322  0.5523 -0.2292  0.4038
  122ACOH    C1 9873   3.592   3.807   0.326 -0.1026 -0.3669  0.2093
  122ACOH    H1 9874   3.568   3.722   0.390  0.3640  0.6791  1.8036
  122ACOH    H2 9875   3.700   3.821   0.320 -0.1973 -0.1084 -1.0337
  122ACOH    H3 9876   3.557   3.794   0.224  0.2707 -0.3796  0.0846
  123ACOH    H4 9877   4.533   1.741   1.520  1.5548  0.8379 -1.5855
  123ACOH    O2 9878   4.562   1.650   1.538  0.2472  0.6830 -0.1271
  123ACOH    C2 9879   4.517   1.612   1.665  0.0652  0.0098 -0.3909
  123ACOH    O1 9880   4.417   1.656   1.718 -0.0827 -0.4303  0.4056
  123ACOH    C1 9881   4.582   1.485   1.703  0.7361 -0.3118 -0.0335
  123ACOH    H1 9882   4.530   1.446   1.791  0.0710  2.5803  0.9049
  123ACOH    H2 9883   4.684   1.512   1.728  0.4754 -0.2243  0.9586
  123ACOH    H3 9884   4.578   1.410   1.624  2.3491  2.1154 -2.4664
  124ACOH    H4 9885   2.782   8.198   1.461  0.2533 -0.4163  0.1352
  124ACOH    O2 9886   2.695   8.154   1.467  0.0419 -0.0717 -0.3785
  124ACOH    C2 9887   2.610   8.251   1.480  0.9671  0.2394  0.3516
  124ACOH    O1 9888   2.631   8.371   1.503 -0.2637 -0.7206 -0.2767
  124ACOH    C1 9889   2.472   8.188   1.471 -0.3305  0.2116  0.2255
  124ACOH    H1 9890   2.473   8.079   1.467  0.3710  0.1928  0.8277
  124ACOH    H2 9891   2.422   8.236   1.387  0.4025  1.7755  0.6664
  124ACOH    H3 9892   2.406   8.208   1.555  2.4063 -0.8358  2.7249
  125ACOH    H4 9893   3.687   1.613   1.961 -0.8949  1.4390  1.3244
  125ACOH    O2 9894   3.631   1.543   1.999 -0.0306  0.1670  0.2848
  125ACOH    C2 9895   3.637   1.431   1.919  0.9300  0.2721  0.3448
  125ACOH    O1 9896   3.704   1.408   1.819  0.4894  0.3577  0.4304
  125ACOH    C1 9897   3.579   1.317   1.993  0.0218 -0.1792  0.5530
  125ACOH    H1 9898   3.554   1.240   1.920 -0.1699  1.5141 -1.2128
  125ACOH    H2 9899   3.487   1.340   2.046  0.0632  3.3937 -0.7688
  125ACOH    H3 9900   3.655   1.281   2.062  0.6096  1.3495  0.7292
  126ACOH    H4 9901   4.237   0.162   1.212  0.4164  1.0605  2.0552
  126ACOH    O2 9902   4.329   0.131   1.201 -0.1253 -0.2869  1.2941
  126ACOH    C2 9903   4.399   0.231   1.142 -0.7004 -0.3266  0.9892
  126ACOH    O1 9904   4.353   0.320   1.073  0.6277 -0.2837 -1.0269
  126ACOH    C1 9905   4.543   0.198   1.135 -0.6484 -0.2314 -0.8372
  126ACOH    H1 9906   4.555   0.102   1.084  1.6259 -1.9351  2.7240
  126ACOH    H2 9907   4.596   0.188   1.229  0.1202  0.6724 -1.1592
  126ACOH    H3 9908   4.598   0.273   1.078  0.2829 -0.0285  0.3076
  127ACOH    H4 9909   5.443   9.324   1.578  2.1730  1.0918 -0.9340
  127ACOH    O2 9910   5.385   9.347   1.504 -0.0483  0.0988  0.4504
  127ACOH    C2 9911   5.345   9.225   1.454 -0.7284 -0.9228 -0.8987
  127ACOH    O1 9912   5.352   9.124   1.520 -0.4877  0.5043 -0.6310
  127ACOH    C1 9913   5.257   9.244   1.339 -0.0858 -0.5333  0.4941
  127ACOH    H1 9914   5.288   9.166   1.270 -0.3806  0.3839 -0.6876
  127ACOH    H2 9915   5.278   9.341   1.295  0.2113  0.1383  2.0841
  127ACOH    H3 9916   5.152   9.238   1.370 -0.2158  1.9128  0.5637
  128ACOH    H4 9917   4.455   1.062   1.971 -0.3603 -0.2176  0.9527
  128ACOH    O2 9918   4.494   0.988   1.922 -0.3630  0.3522  0.0820
  128ACOH    C2 9919   4.394   0.896   1.931  0.8818  0.4077  0.5785
  128ACOH    O1 9920   4.301   0.883   2.012  0.9979 -0.2944  0.2470
  128ACOH    C1 9921   4.436   0.783   1.838 -0.5418 -0.5210  0.2466
  128ACOH    H1 9922   4.362   0.739   1.772  0.4170 -1.1923 -0.3890
  128ACOH    H2 9923   4.481   0.701   1.894  0.4883  0.0080  0.2127
  128ACOH    H3 9924   4.516   0.824   1.776 -0.2144  0.1103  1.0754
  129ACOH    H4 9925   4.064   0.275   2.352 -0.3478 -3.1209  1.1727
  129ACOH    O2 9926   4.104   0.219   2.284  0.7361 -0.2612 -0.6524
  129ACOH    C2 9927   4.088   0.268   2.160  0.7970 -0.2567 -0.5043
  129ACOH    O1 9928   4.024   0.368   2.134 -0.2532  0.1720 -0.2043
  129ACOH    C1 9929   4.143   0.182   2.049 -1.0627  0.2661  0.2887
  129ACOH    H1 9930   4.133   0.242   1.958  0.8632 -2.2246 -1.6372
  129ACOH    H2 9931   4.086   0.089   2.055 -1.1325  0.2677 -0.3129
  129ACOH    H3 9932   4.248   0.165   2.072 -0.8931 -0.5563 -1.0342
  130ACOH    H4 9933   2.449   8.869   2.787  2.1864  1.9493 -1.5047
  130ACOH    O2 9934   2.385   8.909   2.726 -0.0320  0.7520 -0.0130
  130ACOH    C2 9935   2.306   8.983   2.805 -0.3979 -0.5595  0.0133
  130ACOH    O1 9936   2.322   9.015   2.920 -0.0626  0.0766 -1.2004
  130ACOH    C1 9937   2.195   9.024   2.717  0.1521 -0.6577  0.0049
  130ACOH    H1 9938   2.099   9.009   2.767 -0.4196  0.4257 -0.7364
  130ACOH    H2 9939   2.195   8.951   2.636  1.1020  1.1708 -1.6797
  130ACOH    H3 9940   2.216   9.124   2.680  1.0824 -0.0249  2.1760
  131ACOH    H4 9941   2.675   5.987   2.690  0.5592  0.0429 -0.0003
  131ACOH    O2 9942   2.658   5.897   2.657 -0.6764  0.0859  0.4644
  131ACOH    C2 9943   2.634   5.901   2.524  0.6105  0.3579 -0.5150
  131ACOH    O1 9944   2.646   6.003   2.460 -0.2863 -0.5317  0.3315
  131ACOH    C1 9945   2.589   5.779   2.453 -0.0666 -0.4772 -1.0875
  131ACOH    H1 9946   2.664   5.745   2.381  1.6605 -0.2301  0.5636
  131ACOH    H2 9947   2.492   5.805   2.410 -0.7518  0.6836  1.1372
  131ACOH    H3 9948   2.569   5.703   2.528  1.7476  2.2243  2.2544
  132ACOH    H4 9949   2.533   5.031   1.494 -1.0038  0.2316 -0.1377
  132ACOH    O2 9950   2.506   4.960   1.434 -0.4742  0.0302 -0.1395
  132ACOH    C2 9951   2.604   4.868   1.436 -0.0483 -0.4787 -0.0344
  132ACOH    O1 9952   2.675   4.829   1.523 -0.6941  0.4052  0.5446
  132ACOH    C1 9953   2.600   4.795   1.308  0.4137  0.2250 -0.2790
  132ACOH    H1 9954   2.701   4.755   1.298  0.8303  1.2274 -0.1733
  132ACOH    H2 9955   2.573   4.858   1.223  1.6251  1.2498  0.0767
  132ACOH    H3 9956   2.531   4.710   1.315 -0.9534  1.3253 -0.1632
  133ACOH    H4 9957   3.872   8.017   1.611  1.7330  4.1547 -1.5551
  133ACOH    O2 9958   3.912   7.962   1.541  0.1626  0.4024  0.3557
  133ACOH    C2 9959   3.822   7.897   1.465 -0.0811 -0.2534 -0.1785
  133ACOH    O1 9960   3.702   7.888   1.453  0.5153 -0.1932 -0.4615
  133ACOH    C1 9961   3.905   7.800   1.387 -0.6597  0.1779 -0.7743
  133ACOH    H1 9962   3.859   7.728   1.319  0.5943 -0.5329 -0.9005
  133ACOH    H2 9963   3.956   7.738   1.462 -2.6195 -1.0831 -0.4442
  133ACOH    H3 9964   3.985   7.855   1.337 -0.4798  1.0677  0.4855
  134ACOH    H4 9965   4.154   5.718   0.287 -2.9384  0.2279 -0.4909
  134ACOH    O2 9966   4.140   5.814   0.291  0.1683  0.6864  0.2129
  134ACOH    C2 9967   4.069   5.837   0.401 -0.1099 -0.0931 -0.2431
  134ACOH    O1 9968   4.020   5.772   0.489  0.6463  0.5406 -0.6145
  134ACOH    C1 9969   4.084   5.981   0.412  0.1223 -0.1048  0.3534
  134ACOH    H1 9970   4.071   6.035   0.318 -0.3703 -0.0997  0.4243
  134ACOH    H2 9971   4.186   6.011   0.436 -0.0704  0.0705  0.9654
  134ACOH    H3 9972   4.030   6.020   0.498  0.9443 -2.1618  1.8483
  135ACOH    H4 9973   5.259   2.642   1.330  0.5957 -2.3781 -2.0294
  135ACOH    O2 9974   5.277   2.576   1.400  0.2239 -0.0552  0.3608
  135ACOH    C2 9975   5.275   2.644   1.517  0.4903  0.2695  0.2070
  135ACOH    O1 9976   5.267   2.766   1.535 -0.1691 -0.0281 -0.1661
  135ACOH    C1 9977   5.277   2.550   1.632  0.4058  0.2423 -0.6043
  135ACOH    H1 9978   5.187   2.488   1.633 -0.7873  1.9447  1.4004
  135ACOH    H2 9979   5.285   2.601   1.728  0.9204 -1.2859  0.1770
  135ACOH    H3 9980   5.366   2.489   1.624  0.3927  0.5020 -2.9702
  136ACOH    H4 9981   2.594   5.460   1.076  0.3597 -2.3700  2.6875
  136ACOH    O2 9982   2.556   5.392   1.018 -0.0033  0.0290  0.0403
  136ACOH    C2 9983   2.566   5.439   0.888 -0.4302  0.4593 -0.6289
  136ACOH    O1 9984   2.607   5.551   0.864 -0.2548  0.8213  0.2186
  136ACOH    C1 9985   2.546   5.324   0.794 -0.6100 -0.0090 -1.0702
  136ACOH    H1 9986   2.500   5.348   0.698 -0.5879 -0.5371 -1.2153
  136ACOH    H2 9987   2.481   5.248   0.836  0.1397  0.6172  1.2889
  136ACOH    H3 9988   2.648   5.291   0.774  0.1913  0.0119  2.6438
  137ACOH    H4 9989   3.647   2.132   1.824 -0.4836  2.8519  0.8560
  137ACOH    O2 9990   3.590   2.125   1.902 -0.2032 -0.2556  0.8665
  137ACOH    C2 9991   3.479   2.067   1.856  0.0420  0.6523 -0.0429
  137ACOH    O1 9992   3.449   2.029   1.741  0.8310  0.6087  0.6326
  137ACOH    C1 9993   3.382   2.050   1.969  0.2693 -0.0452 -0.4906
  137ACOH    H1 9994   3.430   2.045   2.066 -1.9447 -1.2984  0.5788
  137ACOH    H2 9995   3.312   1.968   1.951  0.6827 -0.2957 -0.9695
  137ACOH    H3 9996   3.327   2.144   1.970  1.3718  0.6027 -0.4197
  138ACOH    H4 9997   3.355   4.405   0.944  1.0997 -1.0014 -1.0743
  138ACOH    O2 9998   3.267   4.443   0.927  0.8136 -0.5359  1.2583
  138ACOH    C2 9999   3.174   4.355   0.950 -0.3599  0.3561 -1.2642
  138ACOH    O110000   3.186   4.242   0.995  0.0579 -0.2349  0.1989
  138ACOH    C110001   3.041   4.393   0.892  0.0105  0.4577 -0.4116
  138ACOH    H110002   3.048   4.419   0.787  1.4810  2.0000  0.0439
  138ACOH    H210003   3.011   4.477   0.954  1.5741 -0.5078  1.7221
  138ACOH    H310004   2.961   4.321   0.908 -1.3543  2.2889  1.2790
  139ACOH    H410005   3.026   7.012   2.134 -3.0044  3.1418  1.7838
  139ACOH    O210006   3.059   6.987   2.222  0.7354 -0.0046 -0.3366
  139ACOH    C210007   2.964   6.904   2.279 -0.2700  0.0586 -0.2542
  139ACOH    O110008   2.911   6.812   2.219  0.1522  0.1556 -0.5520
  139ACOH    C110009   2.954   6.926   2.425 -0.0114  0.4313  0.3245
  139ACOH    H110010   2.904   6.841   2.470  0.6036 -0.3424 -0.4315
  139ACOH    H210011   2.880   7.006   2.436 -1.5440 -0.8100 -0.7600
  139ACOH    H310012   3.051   6.952   2.469  0.1673  3.4510 -1.7078
  140ACOH    H410013   3.185   6.307   1.507 -1.3489  0.9499 -0.7285
  140ACOH    O210014   3.247   6.377   1.481  0.1990 -0.0849  0.1176
  140ACOH    C210015   3.210   6.496   1.540  0.8259  0.2654 -0.7844
  140ACOH    O110016   3.124   6.529   1.625 -0.4716  0.5142  0.0585
  140ACOH    C110017   3.301   6.597   1.485 -0.3005 -0.2543 -0.1145
  140ACOH    H110018   3.255   6.694   1.501  0.0581  0.0189 -0.6931
  140ACOH    H210019   3.314   6.582   1.378  3.6482 -2.8324  0.5909
  140ACOH    H310020   3.401   6.599   1.530  0.3737 -0.4592 -1.5563
  141ACOH    H410021   4.194   8.600   1.961  0.5374  1.1808 -1.3449
  141ACOH    O210022   4.168   8.513   1.925  0.1737  0.5471  0.4129
  141ACOH    C210023   4.041   8.489   1.958 -0.4349 -0.4562  0.8262
  141ACOH    O110024   3.968   8.580   1.984  0.1035  0.4962 -0.2496
  141ACOH    C110025   3.992   8.352   1.921  0.8269 -0.4694 -0.0860
  141ACOH    H110026   3.889   8.357   1.886  0.2789 -1.3792  1.3872
  141ACOH    H210027   4.003   8.287   2.007  0.0003  0.9055  1.0733
  141ACOH    H310028   4.054   8.311   1.840 -0.1603 -0.3401 -0.9177
  142ACOH    H410029   3.270   5.933   1.867 -0.0629  0.6726 -0.1506
  142ACOH    O210030   3.312   5.845   1.867 -0.8719  0.2856 -0.1721
  142ACOH    C210031   3.386   5.839   1.979 -0.3861  0.1225 -0.1604
  142ACOH    O110032   3.374   5.904   2.081  0.4059  0.5379 -0.2536
  142ACOH    C110033   3.481   5.726   1.967 -0.0535  0.0010  0.1578
  142ACOH    H110034   3.540   5.729   2.059  1.1237  0.8421 -0.6074
  142ACOH    H210035   3.548   5.750   1.884 -0.5240 -1.0004 -0.5106
  142ACOH    H310036   3.421   5.635   1.959 -2.9704  1.8709  0.0390
  143ACOH    H410037   4.144   0.324   0.823 -0.9791  0.0186  0.0256
  143ACOH    O210038   4.126   0.235   0.788  0.1079 -0.0972 -0.2486
  143ACOH    C210039   4.018   0.241   0.715 -0.5384  0.0857  0.6202
  143ACOH    O110040   3.928   0.322   0.723 -0.0188  0.4786  0.0611
  143ACOH    C110041   4.005   0.117   0.637 -0.0543 -0.0585 -0.1236
  143ACOH    H110042   4.069   0.107   0.549  3.4734 -1.4314  2.4920
  143ACOH    H210043   3.905   0.095   0.598 -0.8040 -0.9320  2.2017
  143ACOH    H310044   4.019   0.033   0.706  1.4103  0.1141 -0.2100
  144ACOH    H410045   4.733   2.550   1.764 -0.9122  0.1802  0.4516
  144ACOH    O210046   4.784   2.572   1.844  0.0586  0.0490 -0.1114
  144ACOH    C210047   4.893   2.641   1.803  0.3465 -0.4240  0.5736
  144ACOH    O110048   4.917   2.676   1.689 -0.0853  0.7210 -0.4394
  144ACOH    C110049   4.982   2.688   1.911  0.3142  0.4170  0.1442
  144ACOH    H110050   4.989   2.796   1.902  0.7007  0.5892  2.4254
  144ACOH    H210051   5.083   2.651   1.894  0.7357  2.3687 -1.9394
  144ACOH    H310052   4.942   2.664   2.009 -1.4142 -0.5630 -0.7646
  145ACOH    H410053   4.710   4.335   1.742 -0.1032  2.0004  0.7661
  145ACOH    O210054   4.788   4.305   1.791  0.0706  0.6858 -0.2678
  145ACOH    C210055   4.760   4.183   1.848  0.1268  0.2386 -0.1694
  145ACOH    O110056   4.669   4.108   1.815 -0.0876  0.0712  0.0223
  145ACOH    C110057   4.885   4.134   1.915  0.0419 -0.5096 -0.4079
  145ACOH    H110058   4.941   4.211   1.968 -2.3379  1.1408 -0.2056
  145ACOH    H210059   4.956   4.099   1.840  0.6064  3.5957 -1.9057
  145ACOH    H310060   4.876   4.053   1.989  0.5438 -0.3686 -0.1863
  146ACOH    H410061   2.436   8.519   2.066 -0.0629  1.3796  0.6708
  146ACOH    O210062   2.407   8.508   1.973 -0.5120  0.2606  0.9321
  146ACOH    C210063   2.422   8.632   1.923  0.1701 -0.6314  0.0611
  146ACOH    O110064   2.457   8.726   1.997  0.3499 -0.1923 -0.7280
  146ACOH    C110065   2.392   8.645   1.777  0.7837  0.0762 -0.6155
  146ACOH    H110066   2.323   8.563   1.754  2.9359 -2.9688  3.2528
  146ACOH    H210067   2.488   8.628   1.729  0.1871 -1.5557 -1.2900
  146ACOH    H310068   2.355   8.746   1.763  2.2369  0.8105  0.7233
  147ACOH    H410069   3.934   5.206   2.400 -0.4816  0.1725 -1.3914
  147ACOH    O210070   3.901   5.284   2.447  0.6541 -0.2693  0.1923
  147ACOH    C210071   3.798   5.255   2.522 -0.3723 -0.1511  0.0371
  147ACOH    O110072   3.764   5.149   2.566  0.0311 -0.6127 -0.0370
  147ACOH    C110073   3.762   5.384   2.586  0.1964  0.1319 -0.5008
  147ACOH    H110074   3.654   5.391   2.574  0.0684 -1.0035 -0.0529
  147ACOH    H210075   3.812   5.474   2.551  1.0106  0.1653  0.7274
  147ACOH    H310076   3.778   5.375   2.693 -1.3527  2.9377  0.0130
  148ACOH    H410077   5.012   2.525   0.576 -1.3159  0.5801 -0.7425
  148ACOH    O210078   5.023   2.470   0.497  0.1655 -0.1122 -0.0915
  148ACOH    C210079   5.004   2.337   0.519  0.2810 -0.1423 -0.2450
  148ACOH    O110080   4.981   2.256   0.436 -0.1952  0.3357 -0.1521
  148ACOH    C110081   5.001   2.308   0.666 -0.5244 -0.3042 -0.8612
  148ACOH    H110082   4.970   2.206   0.687  1.0444 -0.2836  1.7027
  148ACOH    H210083   4.931   2.378   0.710 -0.4843  0.6845 -2.3344
  148ACOH    H310084   5.097   2.336   0.711  0.3503 -1.2202 -2.1154
  149ACOH    H410085   3.982   9.028   1.625  0.5301  0.1400 -0.2335
  149ACOH    O210086   4.033   8.946   1.613  0.0251 -0.2728  0.3973
  149ACOH    C210087   4.109   8.935   1.723 -0.8392 -0.2874 -0.2620
  149ACOH    O110088   4.145   9.033   1.789  0.1990  0.0064 -0.7201
  149ACOH    C110089   4.164   8.798   1.740 -0.7962 -0.1723  0.0844
  149ACOH    H110090   4.262   8.802   1.788  0.3991 -1.5455 -2.1633
  149ACOH    H210091   4.173   8.763   1.637  0.5020  1.4389 -0.3562
  149ACOH    H310092   4.090   8.743   1.800 -1.9578  0.8760 -0.3674
  150ACOH    H410093   4.769   2.144   1.456  0.9279  1.0652  2.3643
  150ACOH    O210094   4.684   2.155   1.503 -0.2422 -0.0326  0.5716
  150ACOH    C210095   4.702   2.254   1.598 -0.0498  0.8370  0.5026
  150ACOH    O110096   4.797   2.329   1.617  0.0772  0.2852 -0.1707
  150ACOH    C110097   4.574   2.260   1.680 -0.6209 -0.7259  0.0911
  150ACOH    H110098   4.586   2.346   1.746  3.0878 -0.4378 -0.8767
  150ACOH    H210099   4.559   2.168   1.736  1.7923 -0.6017  0.9682
  150ACOH    H310100   4.482   2.285   1.627 -0.5249 -0.2851  0.1223
  151ACOH    H410101   4.251   8.244   1.168 -0.0628 -2.8522  1.0117
  151ACOH    O210102   4.347   8.245   1.155 -0.1606  0.0271  0.3388
  151ACOH    C210103   4.387   8.359   1.208  0.4877  0.3187  0.2834
  151ACOH    O110104   4.318   8.441   1.266  0.4009  0.3786  0.0338
  151ACOH    C110105   4.532   8.382   1.187  0.2720  0.7439 -0.0275
  151ACOH    H110106   4.580   8.455   1.252  0.5422 -0.3956  1.0727
  151ACOH    H210107   4.536   8.422   1.086  1.8436  1.6458  0.3872
  151ACOH    H310108   4.581   8.285   1.196  0.6664  1.0760  1.6388
  152ACOH    H410109   3.669   7.715   2.834  3.0571  1.2016 -0.0245
  152ACOH    O210110   3.685   7.619   2.836 -0.2411  0.5622 -0.3639
  152ACOH    C210111   3.792   7.605   2.910 -0.5804 -0.5184 -0.2079
  152ACOH    O110112   3.854   7.696   2.963  0.2713  0.5213  0.3356
  152ACOH    C110113   3.815   7.468   2.946 -0.5061  0.3784 -0.1837
  152ACOH    H110114   3.907   7.467   3.005 -1.5912 -1.4850  1.5423
  152ACOH    H210115   3.818   7.405   2.858 -1.8005 -1.9509  1.3946
  152ACOH    H310116   3.730   7.446   3.010 -1.6319  0.2912 -1.6847
  153ACOH    H410117   3.403   5.401   2.309 -1.1284 -2.4895 -0.9827
  153ACOH    O210118   3.329   5.440   2.259 -0.3840  0.3258  0.0266
  153ACOH    C210119   3.326   5.571   2.275 -0.3201 -0.9003 -0.7248
  153ACOH    O110120   3.244   5.643   2.224  0.5864 -0.0737 -0.1046
  153ACOH    C110121   3.430   5.624   2.369  0.0122  0.3358 -1.0902
  153ACOH    H110122   3.421   5.566   2.460 -0.4598  0.3245 -1.1381
  153ACOH    H210123   3.423   5.731   2.390  2.0869  0.1950  0.4624
  153ACOH    H310124   3.526   5.612   2.318  0.5152  1.1322 -0.3354
  154ACOH    H410125   2.738   1.271   0.083 -2.7643 -0.7351  0.1402
  154ACOH    O210126   2.735   1.350   0.027  0.0068 -0.6665  0.0093
  154ACOH    C210127   2.623   1.339  -0.052  0.4650 -0.1432 -0.4692
  154ACOH    O110128   2.566   1.232  -0.072 -0.4741 -0.3748  0.6671
  154ACOH    C110129   2.602   1.463  -0.136 -0.5840  0.6596  0.2331
  154ACOH    H110130   2.693   1.486  -0.191  0.3804  0.0922  1.5738
  154ACOH    H210131   2.567   1.542  -0.069 -1.4811  1.3518 -1.0240
  154ACOH    H310132   2.528   1.432  -0.210  0.8683 -1.3575 -0.4075
  155ACOH    H410133   3.898   9.683   2.112 -0.3710 -1.7866  0.9854
  155ACOH    O210134   3.956   9.691   2.190  0.1833  0.5005  0.3739
  155ACOH    C210135   4.063   9.766   2.163  0.0024  0.6828  1.4927
  155ACOH    O110136   4.125   9.785   2.061 -0.1011 -0.4062 -0.0753
  155ACOH    C110137   4.121   9.811   2.294 -0.6740 -0.1328 -0.3154
  155ACOH    H110138   4.042   9.820   2.368  1.2371 -0.0656  1.7358
  155ACOH    H210139   4.174   9.905   2.280  0.9646 -1.1075 -0.8100
  155ACOH    H310140   4.185   9.727   2.321  0.6549  0.5710 -1.2352
  156ACOH    H410141   4.501   4.801   0.093  0.2579  0.3374  0.4917
  156ACOH    O210142   4.569   4.732   0.106  0.0693  0.0507 -0.0475
  156ACOH    C210143   4.522   4.620   0.055  0.0797 -0.5157 -0.0043
  156ACOH    O110144   4.441   4.606  -0.034  0.0389  0.0453  0.1440
  156ACOH    C110145   4.580   4.505   0.127  0.0391  0.1692 -0.1147
  156ACOH    H110146   4.665   4.540   0.186  0.7985 -0.8643 -0.5701
  156ACOH    H210147   4.612   4.434   0.051 -1.1290 -2.7881  2.0437
  156ACOH    H310148   4.504   4.456   0.188  1.2325 -2.6436 -0.7819
  157ACOH    H410149   3.793   9.203   1.989 -1.1232 -1.0998  2.3374
  157ACOH    O210150   3.711   9.254   1.978 -0.1657  0.1699  0.7679
  157ACOH    C210151   3.636   9.209   2.081  0.0940 -0.0047  0.6252
  157ACOH    O110152   3.673   9.140   2.173  0.1705  0.0568 -0.3206
  157ACOH    C110153   3.495   9.262   2.085 -0.5303 -0.0969 -0.4076
  157ACOH    H110154   3.489   9.346   2.153 -0.4531 -0.7335  0.3945
  157ACOH    H210155   3.429   9.186   2.127 -2.0485  1.8294  0.7876
  157ACOH    H310156   3.451   9.293   1.990 -0.4882 -1.7642 -0.9945
  158ACOH    H410157   3.637   5.438   1.849  2.6859 -0.1675 -2.6484
  158ACOH    O210158   3.702   5.480   1.907  0.0281  0.4408  0.0222
  158ACOH    C210159   3.708   5.400   2.014  0.4458 -0.2283  0.4564
  158ACOH    O110160   3.604   5.353   2.063  0.0207  0.5719  0.2801
  158ACOH    C110161   3.813   5.422   2.111 -0.3008  0.5764 -0.1024
  158ACOH    H110162   3.901   5.454   2.055 -0.8563  1.1641 -0.6559
  158ACOH    H210163   3.852   5.332   2.159  0.3484  0.5718 -0.6311
  158ACOH    H310164   3.789   5.495   2.188  1.1619  2.0862 -1.0444
  159ACOH    H410165   4.581   8.311   0.807 -0.0538  1.5602  0.4460
  159ACOH    O210166   4.595   8.253   0.884  0.5847  0.2413 -0.6315
  159ACOH    C210167   4.546   8.129   0.841  0.0527 -0.3099  0.0073
  159ACOH    O110168   4.482   8.095   0.745 -0.5735  0.1256  0.3833
  159ACOH    C110169   4.557   8.041   0.952 -0.4508 -0.2907 -0.0372
  159ACOH    H110170   4.472   7.974   0.949 -0.3049 -0.4820  0.0486
  159ACOH    H210171   4.555   8.094   1.048 -0.6309 -0.6395  0.1535
  159ACOH    H310172   4.646   7.978   0.942  1.6711  2.8649 -2.0743
  160ACOH    H410173   2.421   0.411   2.321  1.7937 -0.3078 -0.0400
  160ACOH    O210174   2.419   0.500   2.359  0.1826 -0.4168  0.1723
  160ACOH    C210175   2.518   0.506   2.446 -0.0198 -0.0834 -0.2893
  160ACOH    O110176   2.590   0.409   2.474 -0.4103  0.1692 -0.1732
  160ACOH    C110177   2.555   0.643   2.478 -0.8737  0.0037 -0.0337
  160ACOH    H110178   2.467   0.706   2.471 -1.4531 -0.8730 -0.8154
  160ACOH    H210179   2.632   0.685   2.414  0.4223 -1.4573  0.5094
  160ACOH    H310180   2.599   0.652   2.577  1.0714 -3.1419 -0.5212
  161ACOH    H410181   5.193   3.869   0.666 -1.1995  0.4623 -1.4976
  161ACOH    O210182   5.196   3.778   0.633  0.4033 -0.0989  0.0719
  161ACOH    C210183   5.304   3.787   0.548 -0.0339  0.3315  0.6404
  161ACOH    O110184   5.387   3.875   0.532  0.1530 -0.1240  0.3714
  161ACOH    C110185   5.332   3.659   0.481  0.4393  0.6338 -0.5093
  161ACOH    H110186   5.381   3.596   0.555  0.8129  1.7558  0.2097
  161ACOH    H210187   5.405   3.656   0.400  2.3046  0.2064  1.1266
  161ACOH    H310188   5.237   3.620   0.444 -0.2969 -0.5117  2.4281
  162ACOH    H410189   4.044   8.960   0.305 -1.3947 -0.6166  0.0484
  162ACOH    O210190   4.019   9.053   0.310  0.6799  0.0076 -0.9236
  162ACOH    C210191   4.108   9.126   0.239  0.1843 -0.1789 -0.1802
  162ACOH    O110192   4.212   9.085   0.191 -0.0355 -0.1383  0.4082
  162ACOH    C110193   4.042   9.253   0.182  0.8372  0.5101  0.4127
  162ACOH    H110194   4.061   9.259   0.075 -2.6672 -4.4040 -0.6495
  162ACOH    H210195   4.068   9.337   0.247 -0.0252 -0.3624  1.8958
  162ACOH    H310196   3.937   9.228   0.194  1.3182 -0.9606  1.7655
  163ACOH    H410197   5.548   3.383   1.562  2.8252 -1.3779 -2.1299
  163ACOH    O210198   5.613   3.437   1.608  0.2950 -0.6115  0.6733
  163ACOH    C210199   5.554   3.545   1.657  0.1919 -0.4750  0.2127
  163ACOH    O110200   5.434   3.570   1.645  0.4532 -0.0696  0.2931
  163ACOH    C110201   5.655   3.645   1.708 -0.1399 -0.2570  0.9067
  163ACOH    H110202   5.607   3.742   1.708  1.2786  0.4618  0.6920
  163ACOH    H210203   5.738   3.649   1.636 -0.1635 -2.9945  0.6604
  163ACOH    H310204   5.686   3.624   1.810 -2.1893 -2.6067  1.0928
  164ACOH    H410205   4.216   5.439   1.529  0.7260  1.3959  0.8211
  164ACOH    O210206   4.268   5.498   1.471  0.5980  0.6343 -0.0872
  164ACOH    C210207   4.269   5.440   1.351 -0.1770 -0.0772 -0.3031
  164ACOH    O110208   4.225   5.334   1.317  0.3923 -0.0047 -0.2753
  164ACOH    C110209   4.324   5.538   1.250 -0.8913 -0.6005 -0.0196
  164ACOH    H110210   4.271   5.634   1.246  2.9298  1.7374  2.2543
  164ACOH    H210211   4.330   5.496   1.150  0.1019 -2.1578  0.6719
  164ACOH    H310212   4.426   5.549   1.286 -1.5108  0.8431  1.4024
  165ACOH    H410213   4.983   4.011   2.463  2.8469 -0.5254 -0.9949
  165ACOH    O210214   5.020   4.101   2.468  0.0310  0.6491 -0.4512
  165ACOH    C210215   5.027   4.124   2.595 -0.2153 -0.3976 -0.1370
  165ACOH    O110216   4.999   4.056   2.689  0.5087 -0.2212 -0.0265
  165ACOH    C110217   5.084   4.259   2.617 -0.4625 -0.2778  0.0549
  165ACOH    H110218   5.051   4.322   2.535 -1.0278 -0.1901  0.3421
  165ACOH    H210219   5.192   4.255   2.630 -0.6718  0.7384  2.4755
  165ACOH    H310220   5.040   4.283   2.714  0.8493 -1.9894  1.1080
  166ACOH    H410221   5.590   3.126   0.943 -1.3086 -2.3028 -0.1043
  166ACOH    O210222   5.632   3.132   0.856 -0.6464  0.4763  0.3506
  166ACOH    C210223   5.561   3.212   0.777  0.1770  0.7084 -0.7620
  166ACOH    O110224   5.461   3.266   0.810 -0.0395  0.1341  0.1454
  166ACOH    C110225   5.624   3.243   0.643  0.0297 -0.6200 -0.2244
  166ACOH    H110226   5.608   3.351   0.634  1.9931 -0.4383 -2.0312
  166ACOH    H210227   5.565   3.189   0.568  2.3278 -1.4396 -1.4790
  166ACOH    H310228   5.726   3.207   0.651 -0.5913 -2.4172 -0.1747
  167ACOH    H410229   5.037   2.424   0.143 -0.6823 -0.7180 -0.2794
  167ACOH    O210230   5.097   2.386   0.076  0.1016 -0.0989  0.0619
  167ACOH    C210231   5.117   2.481  -0.021  0.0543  0.6948  0.0012
  167ACOH    O110232   5.089   2.599  -0.016 -0.5172  0.1229  0.7161
  167ACOH    C110233   5.188   2.416  -0.134  0.2507 -0.3054 -0.9253
  167ACOH    H110234   5.296   2.430  -0.125  0.4779 -2.4817  0.2425
  167ACOH    H210235   5.148   2.465  -0.223 -1.1470 -0.2182 -0.2670
  167ACOH    H310236   5.164   2.309  -0.139  0.9309 -0.5482  0.5481
  168ACOH    H410237   2.221   8.227   1.873 -0.5225  1.4009  1.0106
  168ACOH    O210238   2.125   8.232   1.888 -0.7598  0.0563  0.0078
  168ACOH    C210239   2.102   8.235   2.018  0.0011 -0.5628  0.0622
  168ACOH    O110240   2.185   8.208   2.105 -0.6687  0.5702 -0.2700
  168ACOH    C110241   1.953   8.262   2.048  0.3617 -0.2496  0.3898
  168ACOH    H110242   1.923   8.352   1.994  2.6692  0.1914 -0.1947
  168ACOH    H210243   1.923   8.260   2.152 -0.7309  0.0049  0.0830
  168ACOH    H310244   1.900   8.178   2.003  1.6525 -1.0518  0.3318
  169ACOH    H410245   2.507   1.040   0.594 -1.3394  3.0667  1.1727
  169ACOH    O210246   2.435   0.984   0.627 -0.0023  0.5468 -0.0985
  169ACOH    C210247   2.477   0.858   0.648 -0.5305 -0.2294 -0.0806
  169ACOH    O110248   2.590   0.826   0.613  0.8261 -0.2915 -0.0192
  169ACOH    C110249   2.377   0.765   0.702  0.3007 -0.1695 -0.1622
  169ACOH    H110250   2.375   0.748   0.810  0.3768 -0.0941 -0.1488
  169ACOH    H210251   2.378   0.670   0.649 -1.0537  0.2532 -0.9512
  169ACOH    H310252   2.281   0.808   0.673  0.1917 -0.9649 -0.9758
  170ACOH    H410253   3.923   3.523   0.604  2.3122 -4.1397 -4.5259
  170ACOH    O210254   3.996   3.587   0.597 -0.1995 -0.5051 -0.1619
  170ACOH    C210255   3.934   3.707   0.578 -0.2826  0.1596  0.3571
  170ACOH    O110256   3.814   3.736   0.578 -0.3757 -0.1253  0.3357
  170ACOH    C110257   4.037   3.805   0.550 -0.0012 -1.0796  0.6834
  170ACOH    H110258   4.135   3.777   0.589  0.2310 -0.5409  0.4864
  170ACOH    H210259   4.008   3.904   0.585 -1.7033 -2.0939  2.2331
  170ACOH    H310260   4.060   3.815   0.444  0.6649 -0.5853  0.8729
  171ACOH    H410261   4.360   0.785   2.606  0.3731 -0.2875  0.5536
  171ACOH    O210262   4.448   0.793   2.646  0.7124 -0.4176 -0.1494
  171ACOH    C210263   4.455   0.903   2.726  0.2004  0.7738  0.1343
  171ACOH    O110264   4.368   0.983   2.747  0.4442  0.4054  0.1172
  171ACOH    C110265   4.594   0.920   2.775 -0.2043 -0.4798  0.2071
  171ACOH    H110266   4.626   1.025   2.774 -1.3458 -0.1175  0.9216
  171ACOH    H210267   4.664   0.854   2.724 -1.0754 -1.4536  0.2613
  171ACOH    H310268   4.603   0.883   2.877  2.9770  0.8490  0.4620
  172ACOH    H410269   5.504   4.006   0.558 -2.3922  1.5745 -2.0901
  172ACOH    O210270   5.558   4.086   0.563  0.1057 -0.1502 -0.2790
  172ACOH    C210271   5.488   4.198   0.590  0.1698  0.1799  0.4774
  172ACOH    O110272   5.377   4.197   0.634 -0.2082  0.4731  0.0011
  172ACOH    C110273   5.571   4.320   0.558  0.0104  0.0634 -0.0365
  172ACOH    H110274   5.507   4.385   0.499  0.5067  1.4084  0.8874
  172ACOH    H210275   5.651   4.287   0.492  2.1381 -2.1729  3.5123
  172ACOH    H310276   5.604   4.374   0.646  3.0652 -1.3062 -0.2928
  173ACOH    H410277   3.718   7.455   0.474 -0.8705 -0.5083  0.5771
  173ACOH    O210278   3.776   7.382   0.502  0.7315  0.4861 -0.0998
  173ACOH    C210279   3.892   7.438   0.529 -0.1928  0.5145 -0.1009
  173ACOH    O110280   3.903   7.554   0.564 -0.2580  0.1571  0.6889
  173ACOH    C110281   3.990   7.329   0.567 -0.1688  0.3354  0.6583
  173ACOH    H110282   4.092   7.354   0.536  0.3065 -2.2720  0.0143
  173ACOH    H210283   3.969   7.233   0.520  1.9190  0.5540 -0.7644
  173ACOH    H310284   3.987   7.306   0.673 -2.3273 -0.9727  0.3352
  174ACOH    H410285   3.196   0.423   1.750 -0.0751  0.4751 -0.2292
  174ACOH    O210286   3.137   0.413   1.827  0.3200  0.5478  0.0882
  174ACOH    C210287   3.224   0.425   1.928  0.1568 -0.1721 -0.3188
  174ACOH    O110288   3.310   0.508   1.957 -0.5342  0.6181  0.2875
  174ACOH    C110289   3.195   0.310   2.023  0.3334  0.1941  0.4809
  174ACOH    H110290   3.233   0.214   1.989  0.1435 -0.1989  1.3863
  174ACOH    H210291   3.087   0.297   2.032  0.2652 -1.0856 -1.8065
  174ACOH    H310292   3.227   0.326   2.125  1.9784  1.0569 -0.1480
  175ACOH    H410293   3.040   2.273   0.420  0.8627 -0.4606  0.2185
  175ACOH    O210294   3.060   2.339   0.352 -0.2529 -0.4333 -0.0940
  175ACOH    C210295   2.971   2.318   0.255 -0.7975 -0.0829 -0.6632
  175ACOH    O110296   2.959   2.208   0.205 -0.3839 -0.0451  0.5233
  175ACOH    C110297   2.942   2.443   0.178 -0.0481 -0.5288  0.1815
  175ACOH    H110298   2.890   2.413   0.087  0.3007 -1.0048  0.1390
  175ACOH    H210299   3.037   2.491   0.155  0.1290 -1.0650 -0.2094
  175ACOH    H310300   2.876   2.511   0.233  1.4200  0.1865  1.0845
  176ACOH    H410301   4.637   8.859   0.426  0.2013  0.2318 -0.4069
  176ACOH    O210302   4.721   8.825   0.461 -0.0397  0.2420  0.1840
  176ACOH    C210303   4.678   8.736   0.555  0.0849 -0.1767  1.0458
  176ACOH    O110304   4.564   8.694   0.565  0.4263  0.0209 -0.2940
  176ACOH    C110305   4.789   8.703   0.652  0.1930  0.1624 -0.0677
  176ACOH    H110306   4.885   8.742   0.617  0.6417  1.6677  2.6940
  176ACOH    H210307   4.808   8.597   0.662  1.6768  0.5425  1.3286
  176ACOH    H310308   4.761   8.749   0.747 -1.3549 -1.6149  0.3682
  177ACOH    H410309   3.185   6.287   2.160 -0.8295  0.6777  2.4656
  177ACOH    O210310   3.233   6.370   2.142  0.1223 -0.2095  0.8775
  177ACOH    C210311   3.222   6.452   2.242  0.2174  0.3518 -0.7444
  177ACOH    O110312   3.128   6.447   2.321  0.4563  0.1241  0.3620
  177ACOH    C110313   3.302   6.569   2.206  0.2373  0.3153  0.1193
  177ACOH    H110314   3.260   6.624   2.122  1.6784 -0.7956 -1.3529
  177ACOH    H210315   3.401   6.535   2.175 -0.4192 -0.4323 -1.1830
  177ACOH    H310316   3.318   6.639   2.288 -0.7462  0.5406  0.1250
  178ACOH    H410317   3.357   7.450   0.968 -0.1081 -1.2367  3.5628
  178ACOH    O210318   3.351   7.359   0.935  0.1715  0.0044 -0.2202
  178ACOH    C210319   3.231   7.331   0.890  0.4122  0.1732 -0.1818
  178ACOH    O110320   3.136   7.392   0.934 -0.0296  0.1840 -0.1097
  178ACOH    C110321   3.227   7.193   0.843 -0.5152  0.1660  0.4486
  178ACOH    H110322   3.137   7.136   0.865 -2.5927  2.3100 -2.0565
  178ACOH    H210323   3.313   7.137   0.879 -0.9039  0.5778  2.0679
  178ACOH    H310324   3.229   7.201   0.734  0.2524 -0.8828  0.3855
  179ACOH    H410325   5.240   3.996   0.188 -0.3900 -0.7948 -1.0762
  179ACOH    O210326   5.330   3.974   0.160  0.2286 -0.0548  0.3145
  179ACOH    C210327   5.399   4.062   0.230 -0.0178  0.0273 -0.1510
  179ACOH    O110328   5.355   4.172   0.248  0.0885 -0.3525 -0.6182
  179ACOH    C110329   5.550   4.044   0.225  0.6728 -0.3805 -0.6232
  179ACOH    H110330   5.575   3.941   0.200  1.5768 -0.1963 -0.4981
  179ACOH    H210331   5.593   4.079   0.319  0.8255 -0.2518 -0.7412
  179ACOH    H310332   5.589   4.103   0.142 -0.0672  0.5526 -0.3181
  180ACOH    H410333   2.514   3.358   2.262  0.0203  0.0323 -1.0248
  180ACOH    O210334   2.436   3.342   2.318  0.4377 -0.5160 -0.5821
  180ACOH    C210335   2.364   3.251   2.257  0.0515 -0.3847  0.1760
  180ACOH    O110336   2.404   3.164   2.178  0.0912 -0.1221  0.1846
  180ACOH    C110337   2.236   3.230   2.327  0.6157  0.1605  0.0653
  180ACOH    H110338   2.192   3.144   2.277 -0.9443 -0.2708  2.0862
  180ACOH    H210339   2.163   3.309   2.304  0.0943 -0.0103  1.1004
  180ACOH    H310340   2.251   3.208   2.432  0.6415  2.8560  0.6798
  181ACOH    H410341   3.581   4.746   2.238 -0.6089  0.7157 -2.3851
  181ACOH    O210342   3.611   4.667   2.189  0.4150 -0.6140  0.2563
  181ACOH    C210343   3.719   4.728   2.138 -0.7676  0.7412  0.0428
  181ACOH    O110344   3.774   4.831   2.169  0.2173 -0.0201  0.5431
  181ACOH    C110345   3.780   4.651   2.029  0.1677  0.1520 -0.3218
  181ACOH    H110346   3.705   4.581   1.992  0.6185 -0.0590 -0.8357
  181ACOH    H210347   3.865   4.602   2.077 -0.6249 -0.6191  0.3175
  181ACOH    H310348   3.816   4.714   1.948 -0.7495  0.1278 -0.7539
  182ACOH    H410349   5.042   1.344   0.569  0.4093  2.7778 -0.6253
  182ACOH    O210350   5.104   1.329   0.496 -0.1027 -0.4216 -0.4888
  182ACOH    C210351   5.061   1.236   0.404  0.1276 -0.3610  0.4178
  182ACOH    O110352   4.950   1.189   0.395  0.1757 -0.5047 -0.2201
  182ACOH    C110353   5.167   1.228   0.301 -0.8396 -0.0453 -0.0963
  182ACOH    H110354   5.220   1.323   0.296  2.5544 -1.8119  0.4091
  182ACOH    H210355   5.130   1.214   0.199 -1.0219 -1.6094  0.1697
  182ACOH    H310356   5.236   1.151   0.333  1.0709  1.8072  0.3390
  183ACOH    H410357   4.233   8.179   2.841  1.5477 -0.1164 -1.1276
  183ACOH    O210358   4.179   8.150   2.765  0.1839 -0.2656 -0.1401
  183ACOH    C210359   4.130   8.032   2.798  0.3269 -0.7749  0.6027
  183ACOH    O110360   4.161   7.966   2.897 -0.0267 -0.0776  0.2359
  183ACOH    C110361   4.051   7.967   2.690 -0.0027 -0.0793  0.3936
  183ACOH    H110362   3.986   7.887   2.725 -0.0060 -1.9904 -3.6507
  183ACOH    H210363   4.128   7.927   2.624  2.1761  2.6876  1.1553
  183ACOH    H310364   3.988   8.039   2.636 -1.8353 -1.7502  0.2305
  184SOL     OW10365   2.489   0.744   2.038 -0.0970  0.1478  0.7646
  184SOL    HW110366   2.452   0.690   2.114  0.7319 -1.2073  0.2253
  184SOL    HW210367   2.434   0.730   1.956 -0.5957  1.0831  0.9350
  185SOL     OW10368   2.685   3.544   2.606 -0.5373  0.4130 -0.3402
  185SOL    HW110369   2.589   3.564   2.588 -0.7226  0.2734  0.5190
  185SOL    HW210370   2.740   3.579   2.529 -1.5630 -2.5513 -2.5019
  186SOL     OW10371   4.012   4.025   0.212  0.3942  0.3921  0.2837
  186SOL    HW110372   4.093   4.025   0.270  0.0045 -0.8356  0.8656
  186SOL    HW210373   4.038   4.034   0.116  1.2355 -0.2687  0.4475
  187SOL     OW10374   3.122   4.619   2.532 -0.2248 -0.4921 -0.5719
  187SOL    HW110375   3.083   4.650   2.619  1.5167  1.1206 -0.3499
  187SOL    HW210376   3.189   4.547   2.549  0.2188 -0.0795 -0.5498
  188SOL     OW10377   2.997   8.699   1.499 -0.1191 -0.0341 -0.5844
  188SOL    HW110378   2.991   8.677   1.597  0.8976 -1.4007 -0.8080
  188SOL    HW210379   2.994   8.798   1.487 -1.0155  0.1222  0.7753
  189SOL     OW10380   4.412   1.267   0.469  0.3645  0.5365  0.4562
  189SOL    HW110381   4.351   1.208   0.521 -1.3149  2.3916  0.6528
  189SOL    HW210382   4.445   1.218   0.388  0.3246 -1.2012  1.4715
  190SOL     OW10383   3.864   3.359   0.580 -0.2271  0.1630 -0.0669
  190SOL    HW110384   3.776   3.363   0.626 -0.2608  0.0126 -0.1189
  190SOL    HW210385   3.864   3.284   0.514  1.0174 -1.8896  2.1651
  191SOL     OW10386   3.054   1.767   1.778 -0.0322 -0.2325 -0.1218
  191SOL    HW110387   3.009   1.825   1.846  1.9557  1.1978  0.0114
  191SOL    HW210388   2.985   1.710   1.733 -1.7243  0.6230  1.2947
  192SOL     OW10389   2.796   6.760   0.165 -0.2123 -0.1705  0.4552
  192SOL    HW110390   2.779   6.707   0.248  0.2629 -1.3939 -0.2125
  192SOL    HW210391   2.752   6.716   0.087  2.1001 -0.9067 -0.5079
  193SOL     OW10392   4.083   2.742   1.315 -0.2969 -0.4793  0.5861
  193SOL    HW110393   4.047   2.796   1.239  0.7192 -0.2948  0.2195
  193SOL    HW210394   4.045   2.650   1.312  0.3651 -0.7162 -0.6326
  194SOL     OW10395   4.116   0.710   1.135 -0.3277  0.1002  0.3863
  194SOL    HW110396   4.122   0.793   1.191 -1.5355  0.6432 -0.2649
  194SOL    HW210397   4.207   0.685   1.102  0.3684 -0.1210  2.4213
  195SOL     OW10398   4.778   4.029   2.254 -0.6108 -0.0042  0.0243
  195SOL    HW110399   4.725   4.063   2.176  1.3471  1.6431 -0.6458
  195SOL    HW210400   4.838   3.954   2.225 -0.7669 -0.2033  0.2153
  196SOL     OW10401   2.287   9.593   0.076 -0.3258 -0.0786 -1.1963
  196SOL    HW110402   2.196   9.565   0.046  0.1925 -1.6172 -1.4240
  196SOL    HW210403   2.355   9.566   0.008  0.6827 -2.2159  0.5747
  197SOL     OW10404   3.057   9.592   0.597  0.1505  0.0926 -0.2032
  197SOL    HW110405   3.004   9.513   0.628  0.0436  0.1276 -0.2958
  197SOL    HW210406   3.054   9.597   0.498  1.5771 -0.7796 -0.3052
  198SOL     OW10407   2.871   5.578   1.636 -0.1610  0.1886 -0.0487
  198SOL    HW110408   2.778   5.541   1.643 -0.3735  0.5830 -0.7028
  198SOL    HW210409   2.934   5.521   1.688 -0.6254 -0.5910 -0.3386
  199SOL     OW10410   4.799   2.652   1.414  0.0014 -0.4266 -0.5203
  199SOL    HW110411   4.745   2.730   1.382 -0.2342 -0.5599 -0.4501
  199SOL    HW210412   4.880   2.685   1.463 -0.4934 -0.2215  0.1746
  200SOL     OW10413   2.750   2.264   1.511  0.3913  0.1779 -0.5034
  200SOL    HW110414   2.831   2.206   1.501  1.0301  0.9269  0.2889
  200SOL    HW210415   2.705   2.244   1.598 -0.0883  0.0018 -0.7897
  201SOL     OW10416   2.790   5.774   0.161  0.0821 -0.0310  0.4578
  201SOL    HW110417   2.878   5.794   0.204 -0.3941  5.0055 -0.5112
  201SOL    HW210418   2.798   5.789   0.062 -1.2632 -1.9767  0.0397
  202SOL     OW10419   0.139   5.662   1.057  0.1443  0.1071  0.0367
  202SOL    HW110420   0.087   5.718   1.122  0.8317  0.4785  0.2752
  202SOL    HW210421   0.218   5.621   1.104  0.4758  0.1334 -0.4922
  203SOL     OW10422   4.209   0.749   2.234  1.2729 -0.0389 -0.4953
  203SOL    HW110423   4.110   0.754   2.220  1.1584 -0.8499  0.0116
  203SOL    HW210424   4.256   0.784   2.153  0.5646  1.0482 -0.4509
  204SOL     OW10425   4.385   2.233   2.090 -0.0397  0.1773  0.3457
  204SOL    HW110426   4.482   2.256   2.094  0.3663 -0.8621 -2.4250
  204SOL    HW210427   4.370   2.142   2.128  0.3321 -0.3168 -0.6718
  205SOL     OW10428   3.431   0.359   2.740 -0.3601  0.3054  0.3680
  205SOL    HW110429   3.414   0.447   2.785 -1.2872  0.7351 -0.7961
  205SOL    HW210430   3.343   0.312   2.725 -0.0704  0.2163 -1.0886
  206SOL     OW10431   3.708   2.497   2.675 -0.3590  0.0316 -0.0795
  206SOL    HW110432   3.796   2.486   2.721 -0.8213  1.0379  1.0555
  206SOL    HW210433   3.714   2.460   2.582  0.1494 -3.4355  1.2598
  207SOL     OW10434   2.344   7.964   2.814 -0.4137 -0.3149  0.0439
  207SOL    HW110435   2.394   7.996   2.895 -0.9487  0.1599  0.1933
  207SOL    HW210436   2.246   7.958   2.836 -0.6891  0.7847 -0.8633
  208SOL     OW10437   4.561   3.131   0.706 -0.2695  0.5169 -0.1379
  208SOL    HW110438   4.469   3.148   0.671 -0.1725  0.3610 -0.4654
  208SOL    HW210439   4.625   3.124   0.630 -0.1126 -0.1225  0.0490
  209SOL     OW10440   3.068   4.788   2.751  0.6742  0.0663 -0.0028
  209SOL    HW110441   2.989   4.765   2.808 -0.1042  0.7177 -0.7900
  209SOL    HW210442   3.151   4.749   2.790  0.2873  1.2686  2.0579
  210SOL     OW10443   4.073   3.676   1.628  0.4651 -0.0181  1.0921
  210SOL    HW110444   3.992   3.696   1.684 -0.3909 -0.8085  0.1711
  210SOL    HW210445   4.109   3.761   1.591 -0.9724  0.1964  0.1367
  211SOL     OW10446   2.650   7.489   1.614  0.5711  0.0199  1.0060
  211SOL    HW110447   2.600   7.525   1.692  0.0342  0.9019  0.2680
  211SOL    HW210448   2.587   7.471   1.539  1.1775 -0.1119  0.5221
  212SOL     OW10449   4.780   1.721   1.326  0.6868 -0.0112 -0.1785
  212SOL    HW110450   4.750   1.715   1.231  0.4887 -0.4105 -0.0898
  212SOL    HW210451   4.706   1.756   1.383  0.7553  0.0772 -0.1427
  213SOL     OW10452   2.720   3.898   2.190 -0.3687 -0.3888 -0.2215
  213SOL    HW110453   2.687   3.960   2.261  2.7118  0.5481  0.4604
  213SOL    HW210454   2.733   3.949   2.105  1.5970 -0.2048  0.1776
  214SOL     OW10455   3.162   1.598   0.568  0.1179  0.0346 -0.1000
  214SOL    HW110456   3.146   1.696   0.580 -0.8987 -0.1473  0.1117
  214SOL    HW210457   3.218   1.582   0.487 -0.3267  0.7536 -0.5501
  215SOL     OW10458   4.166   2.972   1.515 -0.3327  0.7145  0.4629
  215SOL    HW110459   4.167   2.898   1.448  1.2621 -0.1556  1.4000
  215SOL    HW210460   4.211   3.053   1.477 -1.4523  0.9758 -0.3136
  216SOL     OW10461   3.743   1.049   0.815  0.1527  0.1058 -0.5789
  216SOL    HW110462   3.686   1.024   0.738  0.9528 -2.6182 -0.3828
  216SOL    HW210463   3.836   1.015   0.800  0.5068  0.1970  1.2264
  217SOL     OW10464   4.698   4.123   2.485 -0.2273 -0.1943 -0.1368
  217SOL    HW110465   4.757   4.098   2.409 -1.2694 -2.5343 -0.2140
  217SOL    HW210466   4.677   4.042   2.540 -0.5403  1.2279  1.8961
  218SOL     OW10467   2.771   8.939   2.431  0.2142 -0.1447 -0.0075
  218SOL    HW110468   2.756   9.011   2.499  0.7195  1.9519 -2.0564
  218SOL    HW210469   2.868   8.936   2.407 -0.2565  0.5305 -2.1051
  219SOL     OW10470   3.522   0.530   1.009 -0.3174  0.2168  0.6877
  219SOL    HW110471   3.569   0.588   0.942  0.7193 -1.0088  0.3245
  219SOL    HW210472   3.473   0.588   1.075 -1.5202  1.4395 -1.2331
  220SOL     OW10473   3.094   2.033   2.708 -0.5634 -0.7563  0.1070
  220SOL    HW110474   3.186   2.073   2.706 -0.6769 -0.5700 -1.7210
  220SOL    HW210475   3.101   1.935   2.727  0.0882 -0.9378 -1.0013
  221SOL     OW10476   4.446   4.058   0.471  0.2308 -0.0949 -0.1971
  221SOL    HW110477   4.463   3.963   0.499 -0.3057 -0.5012 -1.1947
  221SOL    HW210478   4.463   4.119   0.548 -1.5343 -1.2067  1.1167
  222SOL     OW10479   3.010   3.913   0.834  0.4900 -0.3288 -0.2122
  222SOL    HW110480   2.975   3.943   0.746  0.7328  1.5324  0.3005
  222SOL    HW210481   3.110   3.920   0.835  0.5446 -1.0668 -0.0466
  223SOL     OW10482   4.423   4.861   0.942  0.5093  0.0255 -0.2856
  223SOL    HW110483   4.394   4.790   1.007  1.2313 -0.7118 -0.7677
  223SOL    HW210484   4.343   4.914   0.913  0.1641  0.3152  1.1507
  224SOL     OW10485   3.572   1.438   1.126 -0.3696 -0.3400 -0.3190
  224SOL    HW110486   3.580   1.372   1.051 -0.1330  0.3962 -0.9511
  224SOL    HW210487   3.643   1.420   1.194  0.4723  0.0162 -1.0923
  225SOL     OW10488   2.624   5.325   2.260 -0.4409 -0.7667 -0.6903
  225SOL    HW110489   2.625   5.400   2.194  0.1169 -1.1353 -1.1072
  225SOL    HW210490   2.642   5.361   2.352  1.4072 -0.5831 -1.1032
  226SOL     OW10491   4.318   2.321   0.479 -0.1664 -0.1737  0.4149
  226SOL    HW110492   4.356   2.231   0.456 -0.1869 -0.2344  0.6129
  226SOL    HW210493   4.378   2.366   0.545  1.3397  1.1486 -1.7796
  227SOL     OW10494   2.526   1.144   1.537 -0.3142  0.2430  0.0094
  227SOL    HW110495   2.556   1.196   1.617 -0.5798  0.1644  0.1623
  227SOL    HW210496   2.428   1.159   1.523  0.0030  1.3973 -1.1546
  228SOL     OW10497   2.233   1.208   2.136 -0.4379  0.3367  0.2550
  228SOL    HW110498   2.297   1.262   2.081  0.4114  0.1556  1.0511
  228SOL    HW210499   2.249   1.110   2.118 -0.9000  0.3065  0.0044
  229SOL     OW10500   4.683   3.366   1.062 -0.0818 -0.5325 -0.1967
  229SOL    HW110501   4.696   3.267   1.075 -1.2000 -0.5031  1.2380
  229SOL    HW210502   4.730   3.416   1.134 -0.8104 -0.0899 -0.0184
  230SOL     OW10503   4.528   8.948   0.360  0.1888 -0.3126  0.5812
  230SOL    HW110504   4.511   8.962   0.262 -1.1149  0.1667  0.8700
  230SOL    HW210505   4.441   8.944   0.409  0.8620  1.3027  1.9772
  231SOL     OW10506   2.601   5.889   0.493 -0.0921  0.2029  0.5005
  231SOL    HW110507   2.638   5.921   0.580  0.8836  1.4993 -0.3556
  231SOL    HW210508   2.590   5.967   0.431 -1.4274 -0.5985 -0.3097
  232SOL     OW10509   4.574   2.518   1.987 -1.1813 -0.1695 -0.0062
  232SOL    HW110510   4.611   2.567   1.909 -1.9823 -0.1059 -0.3523
  232SOL    HW210511   4.474   2.512   1.978 -0.9649 -3.4199 -0.9033
  233SOL     OW10512   3.998   1.025   0.007 -0.6650  0.4500  0.0401
  233SOL    HW110513   4.043   1.105  -0.033 -0.8265  0.5726  0.1054
  233SOL    HW210514   3.950   1.052   0.090 -0.4529  0.2239  0.2371
  234SOL     OW10515   3.037   0.985   2.544  0.3115 -0.4332  0.1100
  234SOL    HW110516   3.028   0.963   2.447  1.9422 -1.0433  0.0951
  234SOL    HW210517   2.947   0.976   2.589 -0.3371 -0.6454 -1.2191
  235SOL     OW10518   4.325   8.411   0.910  0.1067  0.0760 -0.0593
  235SOL    HW110519   4.345   8.319   0.944 -0.6997  0.2789  0.9730
  235SOL    HW210520   4.232   8.437   0.936  0.0690  0.9035 -0.9806
  236SOL     OW10521   2.311   7.457   2.407  0.1809 -0.1189 -0.3411
  236SOL    HW110522   2.356   7.401   2.338  0.6165 -0.1603 -0.0207
  236SOL    HW210523   2.255   7.527   2.361  2.1822  1.2519 -0.7618
  237SOL     OW10524   2.929   6.304   0.592 -0.0436 -0.1931  0.2096
  237SOL    HW110525   2.880   6.217   0.580 -0.9738  0.1800  1.2088
  237SOL    HW210526   2.940   6.348   0.503  2.2712 -2.2919 -0.6055
  238SOL     OW10527   4.210   2.699   1.693  0.2291 -0.0680  0.2938
  238SOL    HW110528   4.197   2.799   1.688  1.2029  0.0739  0.6072
  238SOL    HW210529   4.120   2.654   1.688 -0.3414  0.8826  1.6509
  239SOL     OW10530   3.349   8.348   1.787  0.0948 -0.6290  0.1169
  239SOL    HW110531   3.428   8.405   1.768  0.0893 -1.1323 -1.4336
  239SOL    HW210532   3.265   8.403   1.783  0.1093 -0.6890 -1.1408
  240SOL     OW10533   3.624   4.274   0.519 -0.3661 -0.4492 -0.1868
  240SOL    HW110534   3.539   4.222   0.522  1.2175 -3.2528 -1.6707
  240SOL    HW210535   3.701   4.212   0.501  1.9665  2.0536  0.7384
  241SOL     OW10536   3.578   0.717   2.425 -0.2802  0.3160  0.4423
  241SOL    HW110537   3.557   0.713   2.328 -1.3901  1.0074  0.6481
  241SOL    HW210538   3.521   0.786   2.469  0.6096  0.4093  1.4852
  242SOL     OW10539   3.461   2.668   2.680  0.2466  0.4583 -0.1095
  242SOL    HW110540   3.395   2.632   2.746 -2.2004 -0.9241 -3.1784
  242SOL    HW210541   3.543   2.611   2.679  0.3290  0.5179  1.6952
  243SOL     OW10542   4.841   2.392   1.016  0.8117 -0.2243 -0.4696
  243SOL    HW110543   4.819   2.390   1.113  3.4275 -0.6675  0.1487
  243SOL    HW210544   4.769   2.346   0.964 -0.6005  0.0144  1.2393
  244SOL     OW10545   2.984   5.059   2.071  0.4037 -0.4377  0.4028
  244SOL    HW110546   2.935   5.123   2.129  0.2279 -0.1195 -0.0915
  244SOL    HW210547   3.078   5.091   2.057  0.9889 -1.4392  1.9706
  245SOL     OW10548   2.594   4.694   0.185  0.5573 -0.4367  0.6910
  245SOL    HW110549   2.612   4.608   0.136  0.1191 -1.2184  1.8684
  245SOL    HW210550   2.535   4.675   0.264  0.0802  1.0330  0.6933
  246SOL     OW10551   3.255   0.527   1.605  0.1801 -0.2502 -0.1648
  246SOL    HW110552   3.270   0.624   1.583 -0.1849 -0.1161  0.1717
  246SOL    HW210553   3.275   0.471   1.525  0.6028  0.0862 -0.2991
  247SOL     OW10554   3.728   2.702   1.855 -0.0765  0.4953 -0.1513
  247SOL    HW110555   3.690   2.775   1.798 -1.8602 -1.9109 -2.1374
  247SOL    HW210556   3.669   2.689   1.935  0.2506  1.2226  0.2122
  248SOL     OW10557   4.683   2.232   0.579 -0.0495  0.1798 -0.1148
  248SOL    HW110558   4.699   2.171   0.502 -1.0168  1.3383 -1.2658
  248SOL    HW210559   4.661   2.324   0.545 -0.4570  0.7186  1.5369
  249SOL     OW10560   3.789   9.383   1.037  0.2316 -0.0147  0.0560
  249SOL    HW110561   3.821   9.435   1.116  0.7012  1.8099 -1.3226
  249SOL    HW210562   3.764   9.290   1.067 -1.0432  1.0950  2.6211
  250SOL     OW10563   3.045   5.381   0.628 -0.6195  0.0560 -0.0431
  250SOL    HW110564   3.134   5.336   0.638 -0.3978  0.6193  0.5349
  250SOL    HW210565   2.981   5.318   0.584  0.7959  0.5454 -2.9398
  251SOL     OW10566   2.636   6.678   2.448 -0.3624  0.9470  0.5893
  251SOL    HW110567   2.653   6.610   2.519 -0.7610 -0.2009 -0.4031
  251SOL    HW210568   2.607   6.764   2.490  2.1496  1.1568  1.9842
  252SOL     OW10569   3.117   5.212   1.245  0.1789  0.3854  0.1521
  252SOL    HW110570   3.100   5.180   1.151  2.6634 -0.2012 -0.1394
  252SOL    HW210571   3.050   5.171   1.306 -2.6901  2.3009 -1.6201
  253SOL     OW10572   4.265   4.485   2.422 -0.1259  0.7952  0.0963
  253SOL    HW110573   4.360   4.471   2.450  0.7624  1.8819 -2.1523
  253SOL    HW210574   4.229   4.568   2.464 -0.3179  0.0009  1.5032
  254SOL     OW10575   3.423   1.585   1.695 -0.1553  0.3036  0.6373
  254SOL    HW110576   3.412   1.534   1.610  2.1477  1.6408 -0.4871
  254SOL    HW210577   3.438   1.682   1.675 -2.1091  1.0725  2.6750
  255SOL     OW10578   2.767   9.292   0.015  0.0178 -0.3666 -0.0831
  255SOL    HW110579   2.811   9.326  -0.067 -0.5547  1.3537  0.2898
  255SOL    HW210580   2.768   9.363   0.085 -0.2741 -1.5022  1.1005
  256SOL     OW10581   4.123   1.296   0.871 -0.1790  0.2178  0.4299
  256SOL    HW110582   4.081   1.381   0.840 -1.5668  0.0568  1.8051
  256SOL    HW210583   4.213   1.315   0.908 -0.4931  1.0964  0.7530
  257SOL     OW10584   3.815   2.962   1.285  0.1729 -0.9153 -0.4643
  257SOL    HW110585   3.807   2.931   1.379 -2.3648 -0.3177 -0.4385
  257SOL    HW210586   3.788   3.058   1.279  1.2146 -0.6753 -1.6635
  258SOL     OW10587   4.511   2.895   0.384 -0.2869  0.5270 -0.5218
  258SOL    HW110588   4.508   2.937   0.294 -0.8383  0.1049 -0.7098
  258SOL    HW210589   4.522   2.966   0.454 -0.1773  0.8841 -0.9009
  259SOL     OW10590   2.471   1.685   0.942  0.4732  0.9035 -0.4366
  259SOL    HW110591   2.498   1.595   0.908 -0.3457  1.2012 -1.9109
  259SOL    HW210592   2.550   1.746   0.942  1.3462 -0.1755  1.8552
  260SOL     OW10593   2.506   6.400   2.497 -0.8645 -0.0579 -0.2258
  260SOL    HW110594   2.565   6.400   2.416 -0.1657  1.5819  0.2656
  260SOL    HW210595   2.444   6.478   2.493 -1.7962 -0.7745  0.1394
  261SOL     OW10596   3.677   3.300   0.972  0.4603  0.5252 -0.3010
  261SOL    HW110597   3.730   3.360   1.032  0.9675  0.0127 -0.2305
  261SOL    HW210598   3.643   3.353   0.894  0.0364  1.1300  0.2849
  262SOL     OW10599   2.913   7.699   2.605 -0.0468  0.1885 -0.0504
  262SOL    HW110600   2.832   7.738   2.648 -1.1127 -1.5442 -0.4588
  262SOL    HW210601   2.936   7.612   2.650 -0.1613 -0.7907 -1.8570
  263SOL     OW10602   3.656   3.921   2.672 -0.0418  0.0492  0.1885
  263SOL    HW110603   3.669   3.913   2.573 -3.0900  0.5857 -0.3058
  263SOL    HW210604   3.692   3.839   2.717 -0.0180 -0.8864 -1.4942
  264SOL     OW10605   3.409   2.416   1.570 -0.4534 -0.6397  0.3338
  264SOL    HW110606   3.352   2.335   1.552 -1.6569 -0.5064  3.1766
  264SOL    HW210607   3.489   2.389   1.624 -0.5407 -0.0342  0.7743
  265SOL     OW10608   3.248   4.047   1.338 -0.2686  0.5976  1.2663
  265SOL    HW110609   3.296   4.131   1.314 -0.6034  0.7530  1.1397
  265SOL    HW210610   3.314   3.971   1.344 -0.1172  0.6436  0.2977
  266SOL     OW10611   4.399   3.808   0.944 -0.1733 -0.5275 -0.2805
  266SOL    HW110612   4.326   3.741   0.956 -0.7105  0.1316  0.1675
  266SOL    HW210613   4.444   3.824   1.032  0.3171 -0.7181 -0.4973
  267SOL     OW10614   2.830   7.691   2.062 -0.1499  0.3356  0.0858
  267SOL    HW110615   2.820   7.621   1.991  0.3582  1.2758 -0.9405
  267SOL    HW210616   2.806   7.653   2.151 -0.0818 -1.0783 -0.4924
  268SOL     OW10617   4.814   3.314   1.629 -0.7957  0.2342 -0.4640
  268SOL    HW110618   4.730   3.356   1.664 -0.6040  0.6020 -0.4418
  268SOL    HW210619   4.892   3.371   1.654 -0.5465 -0.0773 -0.5374
  269SOL     OW10620   2.584   7.541   1.206  0.3156  0.5093 -0.3165
  269SOL    HW110621   2.522   7.464   1.222  1.0215 -0.3350 -1.4909
  269SOL    HW210622   2.583   7.566   1.110  0.2371  1.8642  0.0249
  270SOL     OW10623   3.045   0.924   0.225 -0.2231  0.0896  0.1376
  270SOL    HW110624   3.109   0.933   0.302  2.0222 -1.9077 -1.4042
  270SOL    HW210625   3.081   0.974   0.147 -0.3685 -1.2989 -0.8358
  271SOL     OW10626   3.859   9.397   1.703 -0.4876 -0.2877  0.2372
  271SOL    HW110627   3.827   9.478   1.656  2.9376  0.1867 -1.4102
  271SOL    HW210628   3.847   9.317   1.644 -0.9440 -0.4925  0.6058
  272SOL     OW10629   2.725   6.384   2.642  0.2018 -0.0035  0.3734
  272SOL    HW110630   2.787   6.362   2.566 -0.1593 -3.6022  1.0485
  272SOL    HW210631   2.632   6.396   2.606  0.4677  0.8475 -0.0533
  273SOL     OW10632   5.175   3.288   0.776  0.2280  0.1122 -0.6130
  273SOL    HW110633   5.171   3.369   0.717 -1.8551 -0.4911 -1.3428
  273SOL    HW210634   5.269   3.256   0.783  0.9529  2.1008 -0.9916
  274SOL     OW10635   3.352   3.604   2.529 -0.3195 -0.3143  0.2529
  274SOL    HW110636   3.254   3.586   2.522 -0.2801  0.0153 -1.3552
  274SOL    HW210637   3.388   3.631   2.439  1.4972 -1.6779  0.5361
  275SOL     OW10638   2.952   2.443   1.192 -0.3156 -0.3377  0.4090
  275SOL    HW110639   2.901   2.488   1.265  1.7740  1.4700  0.8216
  275SOL    HW210640   2.996   2.512   1.135 -0.2790 -1.7992 -1.3477
  276SOL     OW10641   3.375   5.580   2.787 -0.3185  0.0450  0.4520
  276SOL    HW110642   3.406   5.489   2.760 -0.4628 -0.8876  3.2598
  276SOL    HW210643   3.283   5.596   2.751  0.4661 -0.1020 -1.6965
  277SOL     OW10644   3.918   2.497   0.007 -0.0341 -0.0461  0.1059
  277SOL    HW110645   3.862   2.564   0.057 -0.1436  1.0353 -1.4267
  277SOL    HW210646   3.992   2.545  -0.040  0.1049 -1.0665 -0.7138
  278SOL     OW10647   3.261   8.016   1.076 -0.5891 -0.1529 -0.4045
  278SOL    HW110648   3.223   7.925   1.057 -1.4314  0.3527 -1.2062
  278SOL    HW210649   3.283   8.024   1.173 -0.9471 -1.0485 -0.2468
  279SOL     OW10650   4.806   1.894   0.735  0.1907  0.3110 -0.2418
  279SOL    HW110651   4.896   1.891   0.779 -0.4046  2.8762  1.2375
  279SOL    HW210652   4.736   1.913   0.804 -1.3322 -0.2277 -1.6139
  280SOL     OW10653   3.134   1.621   1.441  0.3681 -0.7371 -0.4544
  280SOL    HW110654   3.189   1.563   1.381  1.1846  0.2341 -0.6571
  280SOL    HW210655   3.194   1.687   1.487 -0.0704 -2.0568  2.1486
  281SOL     OW10656   2.254   4.404   2.813 -0.3922  0.1119 -0.1625
  281SOL    HW110657   2.315   4.440   2.744  1.0617  0.8831  1.4958
  281SOL    HW210658   2.182   4.470   2.833 -1.1859 -0.3664 -1.3485
  282SOL     OW10659   2.793   6.096   1.014  0.6806  0.1881 -0.2249
  282SOL    HW110660   2.745   6.033   0.953 -0.3700  1.2065 -0.4823
  282SOL    HW210661   2.889   6.070   1.021  0.9112  0.2965 -2.6494
  283SOL     OW10662   3.380   2.666   0.308  0.1305  0.1508 -0.5242
  283SOL    HW110663   3.398   2.758   0.275  0.0016  0.7777  1.1325
  283SOL    HW210664   3.354   2.669   0.405  0.2284 -1.6280 -0.4239
  284SOL     OW10665   3.178   1.116   1.981 -0.7036 -0.0987 -0.1341
  284SOL    HW110666   3.098   1.057   1.979 -0.5184 -0.4251  1.3222
  284SOL    HW210667   3.151   1.210   1.958 -1.9462  0.2408  2.4893
  285SOL     OW10668   2.880   5.007   0.103 -0.3197 -0.0831  0.2792
  285SOL    HW110669   2.827   5.060   0.037 -0.2115  0.3655  0.5491
  285SOL    HW210670   2.935   4.938   0.054 -0.1654  0.3106 -0.1077
  286SOL     OW10671   2.557   2.238   1.748  0.2545  0.4365 -0.6214
  286SOL    HW110672   2.493   2.185   1.692  0.8311 -0.2026 -0.6950
  286SOL    HW210673   2.518   2.326   1.771 -2.3249 -1.4480  2.6845
  287SOL     OW10674   4.381   1.500   1.269  0.1076 -0.1435  0.1950
  287SOL    HW110675   4.355   1.536   1.180 -0.0237  0.5152  0.4916
  287SOL    HW210676   4.310   1.523   1.336  0.6093  0.1267  0.6393
  288SOL     OW10677   2.369   4.151   1.905  0.4336 -0.7435 -0.1254
  288SOL    HW110678   2.279   4.127   1.941  0.2410 -2.0624 -1.4911
  288SOL    HW210679   2.369   4.146   1.806  0.8553  3.3274 -0.4123
  289SOL     OW10680   3.024   3.745   2.660  0.5224  1.0951  0.4862
  289SOL    HW110681   3.077   3.733   2.744 -3.2236 -0.1716  2.8278
  289SOL    HW210682   3.026   3.841   2.632  1.9521  1.5075  1.9557
  290SOL     OW10683   2.502   3.355   2.657 -0.7562 -0.1271  0.0586
  290SOL    HW110684   2.590   3.403   2.657  0.6028 -2.5245  1.4819
  290SOL    HW210685   2.429   3.419   2.683  0.6075  1.7748 -0.6737
  291SOL     OW10686   3.368   9.567   1.218 -0.1975  0.0297  0.2216
  291SOL    HW110687   3.377   9.614   1.130 -0.0269 -0.0974  0.1718
  291SOL    HW210688   3.304   9.618   1.276  0.8913  0.9782  0.6205
  292SOL     OW10689   4.189   4.970   2.432 -1.0948  0.2725  0.3279
  292SOL    HW110690   4.270   5.007   2.386 -1.3364 -0.8868 -1.0978
  292SOL    HW210691   4.209   4.877   2.464 -2.2132 -0.4864 -1.1151
  293SOL     OW10692   4.412   0.730   0.383  0.0687 -0.3455 -0.0209
  293SOL    HW110693   4.488   0.703   0.442  0.1396 -0.7195 -0.2802
  293SOL    HW210694   4.385   0.652   0.327  0.0442  0.0337 -0.5354
  294SOL     OW10695   3.307   9.370   2.777  0.2535 -0.1369 -0.3133
  294SOL    HW110696   3.397   9.326   2.775  0.9965  1.3533 -0.0740
  294SOL    HW210697   3.258   9.352   2.691  0.6281 -1.2395 -0.3011
  295SOL     OW10698   2.640   5.848   0.911 -0.1999 -0.0343 -0.1804
  295SOL    HW110699   2.633   5.750   0.892  2.6507  0.0440 -1.8640
  295SOL    HW210700   2.575   5.897   0.854 -0.8172 -0.8547 -0.1964
  296SOL     OW10701   2.348   3.563   2.726  0.8103  0.0959 -0.2354
  296SOL    HW110702   2.347   3.528   2.820 -0.6736  0.0677 -0.2555
  296SOL    HW210703   2.384   3.656   2.726  1.3322 -0.0999  0.2884
  297SOL     OW10704   3.678   0.796   2.744  0.0513 -0.8138 -0.3797
  297SOL    HW110705   3.582   0.824   2.737  0.6439  1.3813 -0.1832
  297SOL    HW210706   3.687   0.724   2.812 -1.4663 -1.0404 -0.4013
  298SOL     OW10707   3.300   4.738   0.079 -0.1276 -0.7399  0.7042
  298SOL    HW110708   3.335   4.831   0.077 -1.5686 -0.1425  1.9469
  298SOL    HW210709   3.370   4.675   0.046 -0.4974  1.1523 -4.0352
  299SOL     OW10710   2.392   4.255   2.437  0.2554  0.1262 -0.0409
  299SOL    HW110711   2.331   4.268   2.359  2.5319  0.0243 -1.9048
  299SOL    HW210712   2.472   4.315   2.427  0.3692  0.4660  2.4759
  300SOL     OW10713   2.944   3.470   1.810 -1.2734  0.2292 -0.5493
  300SOL    HW110714   2.994   3.460   1.723 -2.2534  0.5790 -1.1573
  300SOL    HW210715   2.926   3.567   1.827  1.0741  0.3727  1.2875
  301SOL     OW10716   2.759   9.036   1.839  0.0434  0.1510 -0.3776
  301SOL    HW110717   2.750   8.945   1.798  1.6941  0.4968 -1.5688
  301SOL    HW210718   2.801   9.098   1.773 -2.5883  2.2240 -0.1446
  302SOL     OW10719   3.974   1.210   1.939  0.3389  0.0483  0.1621
  302SOL    HW110720   3.989   1.251   2.029 -0.8255  1.0527 -0.1033
  302SOL    HW210721   3.975   1.281   1.869  0.1942 -0.6036 -0.5080
  303SOL     OW10722   4.604   1.964   0.932 -0.4433  0.3299  0.6365
  303SOL    HW110723   4.645   1.993   1.018 -0.3888  0.5806  0.5270
  303SOL    HW210724   4.504   1.968   0.940 -0.4325  0.9896  0.4748
  304SOL     OW10725   3.478   4.736   1.138 -0.3296 -0.0913  0.4817
  304SOL    HW110726   3.380   4.716   1.137 -0.6419  1.3921  1.2373
  304SOL    HW210727   3.506   4.766   1.229  0.8931 -0.7596  0.3488
  305SOL     OW10728   4.061   1.413   1.610 -0.1199 -0.6740 -0.4933
  305SOL    HW110729   4.088   1.487   1.672 -1.5443 -1.0501  0.5936
  305SOL    HW210730   3.967   1.385   1.630  1.3579 -4.8111  1.1126
  306SOL     OW10731   2.719   4.387   0.805  0.0087  0.2212  0.4212
  306SOL    HW110732   2.708   4.478   0.845 -0.5252 -0.6252  2.2714
  306SOL    HW210733   2.746   4.323   0.877 -0.4990 -1.2461 -0.6802
  307SOL     OW10734   3.887   4.998   0.135  0.2534 -0.0990  0.1331
  307SOL    HW110735   3.985   4.987   0.149  0.1470 -1.6805 -0.3027
  307SOL    HW210736   3.844   4.909   0.123 -1.4694  0.4563  1.7849
  308SOL     OW10737   3.635   0.789   0.399  0.2141 -0.5834  0.2374
  308SOL    HW110738   3.661   0.826   0.309 -2.1836  1.1372  0.2018
  308SOL    HW210739   3.608   0.694   0.389  2.0209 -1.0469 -0.4758
  309SOL     OW10740   2.372   0.474   1.204  0.2771 -0.2201  0.2226
  309SOL    HW110741   2.440   0.464   1.276  1.8719  0.1900 -1.1905
  309SOL    HW210742   2.377   0.566   1.166  1.1615 -1.1690 -2.0652
  310SOL     OW10743   4.471   2.688   2.844  0.0831 -0.0280  0.3202
  310SOL    HW110744   4.546   2.754   2.850  0.6171 -0.4980 -0.8715
  310SOL    HW210745   4.483   2.633   2.761 -0.8118 -1.0492  0.8650
  311SOL     OW10746   4.194   2.471   2.137  0.2389  0.3778 -0.2205
  311SOL    HW110747   4.233   2.529   2.065  1.6046  2.2936  1.9686
  311SOL    HW210748   4.259   2.399   2.160  0.0210  0.0810 -0.5211
  312SOL     OW10749   2.951   3.318   1.234 -0.4003 -0.5405  1.0066
  312SOL    HW110750   3.005   3.250   1.185  0.2398 -0.2436  1.2922
  312SOL    HW210751   2.882   3.273   1.289  0.4812 -0.9956  1.7527
  313SOL     OW10752   3.148   5.009   0.671  0.5778 -0.1221  0.3606
  313SOL    HW110753   3.138   4.949   0.591 -0.7757  0.2287  0.2448
  313SOL    HW210754   3.064   5.063   0.682  1.4574  1.1340  0.9700
  314SOL     OW10755   3.600   4.611   1.623  0.0637 -0.1241 -0.4437
  314SOL    HW110756   3.620   4.706   1.646 -2.4859  0.0059  1.4907
  314SOL    HW210757   3.627   4.552   1.700  0.4611 -0.8444 -1.1207
  315SOL     OW10758   2.850   8.048   1.733  0.3546 -0.4612 -0.0880
  315SOL    HW110759   2.930   7.994   1.757  0.3972  0.2386  1.3450
  315SOL    HW210760   2.879   8.133   1.689  0.2884 -1.5213 -2.3017
  316SOL     OW10761   2.965   1.584   0.303  0.4490  0.1579 -0.2764
  316SOL    HW110762   2.999   1.645   0.374 -0.8627 -0.6746  1.0963
  316SOL    HW210763   2.964   1.632   0.215  1.4382  1.4108  0.3892
  317SOL     OW10764   2.598   9.524   0.572  0.0841  0.2118 -0.4597
  317SOL    HW110765   2.667   9.456   0.550 -0.0393  0.2146 -0.8643
  317SOL    HW210766   2.612   9.605   0.515  1.6397  1.4464  1.6187
  318SOL     OW10767   2.744   9.264   1.252  0.3401 -0.0274  0.3703
  318SOL    HW110768   2.726   9.320   1.171  1.2808  0.4117  0.4636
  318SOL    HW210769   2.739   9.167   1.227  0.3224  0.1021 -0.1410
  319SOL     OW10770   3.795   9.562   2.371  0.3959  0.3905 -0.1464
  319SOL    HW110771   3.869   9.602   2.317 -0.3418  1.1853 -0.5647
  319SOL    HW210772   3.825   9.554   2.467  1.2742  0.0608 -0.4422
  320SOL     OW10773   4.569   3.396   1.722 -0.3266 -0.0263 -0.0630
  320SOL    HW110774   4.470   3.412   1.713 -0.5815 -1.6925 -0.5315
  320SOL    HW210775   4.590   3.373   1.817 -0.2239  1.3858  0.2542
  321SOL     OW10776   3.789   2.939   1.582  0.3670 -0.0452 -0.1734
  321SOL    HW110777   3.693   2.934   1.609  0.5621  1.5459  0.8692
  321SOL    HW210778   3.844   2.969   1.660  1.6926 -0.7649 -0.8146
  322SOL     OW10779   4.603   1.359   1.307  0.1079  0.3777  0.2213
  322SOL    HW110780   4.521   1.417   1.305 -1.1423 -1.3010  1.4531
  322SOL    HW210781   4.659   1.382   1.387 -0.1447  0.2312  0.4423
  323SOL     OW10782   3.170   8.765   0.813  0.0878 -0.4733  0.0301
  323SOL    HW110783   3.213   8.711   0.741  0.3945  1.2701 -1.1322
  323SOL    HW210784   3.179   8.718   0.900  3.6423 -0.5535 -0.3324
  324SOL     OW10785   3.086   2.736   2.259 -0.2287 -0.7778  0.2179
  324SOL    HW110786   2.988   2.717   2.268 -0.2164 -0.2752  1.5420
  324SOL    HW210787   3.104   2.832   2.282  0.3501 -0.3920 -1.7292
  325SOL     OW10788   3.356   3.839   2.829  0.3973 -0.2438 -0.0374
  325SOL    HW110789   3.356   3.741   2.806 -0.3469 -0.1065 -0.6316
  325SOL    HW210790   3.359   3.893   2.745 -0.3113  0.2507  0.2557
  326SOL     OW10791   2.185   3.886   0.171  0.3638 -0.0496 -0.0643
  326SOL    HW110792   2.217   3.952   0.240  0.6441  0.0049 -0.2448
  326SOL    HW210793   2.147   3.935   0.093 -0.3832 -0.1210  0.2584
  327SOL     OW10794   3.178   1.971   0.627 -0.4727  0.0777  0.3003
  327SOL    HW110795   3.222   2.051   0.667 -0.5945 -0.7094  2.0952
  327SOL    HW210796   3.229   1.889   0.652 -1.9158 -0.6688  0.9072
  328SOL     OW10797   2.509   5.056   2.236 -0.2309  0.0603  0.4844
  328SOL    HW110798   2.454   5.032   2.156  1.6426  0.8540 -1.0835
  328SOL    HW210799   2.550   5.146   2.222 -1.0819  0.8858  3.0215
  329SOL     OW10800   2.698   9.875   0.098 -0.0578  0.1617 -0.8976
  329SOL    HW110801   2.770   9.934   0.134 -0.2091  0.0544 -0.4114
  329SOL    HW210802   2.634   9.929   0.044  0.3722  0.2622 -1.3097
  330SOL     OW10803   4.210   2.103   1.675  0.6878 -0.1992  0.3574
  330SOL    HW110804   4.201   2.049   1.759  1.1011  0.5319  0.8853
  330SOL    HW210805   4.184   2.047   1.596  0.5560 -0.9812  0.9453
  331SOL     OW10806   3.284   3.302   0.847  0.8881 -0.1212 -0.0495
  331SOL    HW110807   3.351   3.358   0.894  1.5365 -2.0442  1.3845
  331SOL    HW210808   3.302   3.205   0.865 -2.9000 -0.6771  1.3026
  332SOL     OW10809   2.610   9.138   2.273 -0.4885 -0.1183  0.6898
  332SOL    HW110810   2.619   9.195   2.355 -0.3645 -0.9350  1.2433
  332SOL    HW210811   2.584   9.046   2.299 -0.9991 -0.2415 -0.2339
  333SOL     OW10812   3.172   9.368   1.011  0.3862  0.2668 -0.0289
  333SOL    HW110813   3.137   9.397   1.100  1.7257  0.0470  0.5702
  333SOL    HW210814   3.211   9.276   1.018 -1.5250 -0.6783 -1.3565
  334SOL     OW10815   4.226   0.732   2.513  0.4260 -0.6850 -0.4590
  334SOL    HW110816   4.233   0.740   2.414  0.2446  2.1955 -0.2875
  334SOL    HW210817   4.129   0.722   2.538  0.6431 -3.6139 -0.6716
  335SOL     OW10818   4.325   1.105   1.019 -0.1261  0.1789 -0.0606
  335SOL    HW110819   4.323   1.012   0.983  0.4908 -0.7845  2.3045
  335SOL    HW210820   4.261   1.113   1.095 -0.3415  1.7499 -0.3938
  336SOL     OW10821   3.142   8.719   1.825 -0.6614  0.2217  0.4106
  336SOL    HW110822   3.157   8.790   1.756  3.3783 -1.1752 -0.2895
  336SOL    HW210823   3.190   8.744   1.909 -1.4251 -0.4376  1.0497
  337SOL     OW10824   3.229   2.838   0.014 -0.4040 -0.5013  0.2346
  337SOL    HW110825   3.295   2.841   0.089 -1.1929 -2.6446  1.0718
  337SOL    HW210826   3.274   2.864  -0.071  0.6398  1.4240  1.3598
  338SOL     OW10827   2.589   3.191   1.916  0.3061  0.4145  0.4065
  338SOL    HW110828   2.633   3.281   1.918  4.5160 -1.5135  2.0926
  338SOL    HW210829   2.551   3.170   2.006 -0.7309  0.5251 -0.0027
  339SOL     OW10830   2.565   1.005   1.112  0.3307 -0.0659  0.2543
  339SOL    HW110831   2.656   1.017   1.072  0.7164  0.0448  1.1479
  339SOL    HW210832   2.500   1.063   1.065  0.6392 -0.4796 -0.6851
  340SOL     OW10833   2.598   9.707   0.277  0.4440 -0.2368 -0.3495
  340SOL    HW110834   2.500   9.726   0.275  0.3309 -0.7834  0.1755
  340SOL    HW210835   2.643   9.760   0.205 -0.2520 -0.0818 -0.6748
  341SOL     OW10836   4.741   2.723   0.213 -0.3634  0.0483 -0.1223
  341SOL    HW110837   4.801   2.783   0.266  0.0562 -1.0967  0.7227
  341SOL    HW210838   4.709   2.771   0.131  0.4386  1.2115  0.2401
  342SOL     OW10839   3.614   4.735   0.381  0.2325  0.7880 -0.3083
  342SOL    HW110840   3.558   4.652   0.384 -2.6339  2.6700 -0.3169
  342SOL    HW210841   3.591   4.793   0.459 -0.0448  2.9967 -2.0081
  343SOL     OW10842   3.355   3.280   1.770 -0.2930 -0.0695  0.2245
  343SOL    HW110843   3.346   3.183   1.794 -0.2983 -0.2681 -0.5647
  343SOL    HW210844   3.311   3.336   1.840 -2.0981 -0.7333 -0.3526
  344SOL     OW10845   2.661   5.198   1.772  0.4699  0.0506 -0.1399
  344SOL    HW110846   2.732   5.143   1.814  1.2145  0.3874 -0.9322
  344SOL    HW210847   2.678   5.295   1.791  0.1218  0.1193 -0.1704
  345SOL     OW10848   3.919   1.981   1.984 -0.3976  0.1972  0.4079
  345SOL    HW110849   3.979   1.973   1.904  0.2028 -0.5587  0.9299
  345SOL    HW210850   3.856   2.057   1.970 -0.8575 -0.4566 -1.1489
  346SOL     OW10851   2.250   7.041   2.294  0.1129 -0.4032  0.1010
  346SOL    HW110852   2.325   6.977   2.278  0.2108 -0.4297  0.6597
  346SOL    HW210853   2.283   7.135   2.279 -0.1339 -0.4976 -1.1032
  347SOL     OW10854   2.693   6.134   0.593  0.3005 -0.0506  0.4806
  347SOL    HW110855   2.636   6.171   0.666 -0.4336  1.6148 -0.8839
  347SOL    HW210856   2.681   6.190   0.511  2.3910 -0.8781 -0.4154
  348SOL     OW10857   2.688   0.065   2.346  0.3064 -0.1171  0.3784
  348SOL    HW110858   2.647   0.131   2.282 -0.0352 -0.9229 -0.2394
  348SOL    HW210859   2.633   0.062   2.429  0.8192  1.0288  0.7729
  349SOL     OW10860   3.539   0.298   1.390  0.0024  0.0688  0.2899
  349SOL    HW110861   3.577   0.206   1.375  1.8875  1.1303 -1.7336
  349SOL    HW210862   3.564   0.329   1.482  0.1834 -1.0392  0.6336
  350SOL     OW10863   4.010   4.328   1.628  0.0794 -0.4943 -0.2615
  350SOL    HW110864   4.000   4.232   1.653 -2.7559 -0.3930 -0.8465
  350SOL    HW210865   3.973   4.344   1.537 -2.3648  1.6891  1.0443
  351SOL     OW10866   2.589   3.205   1.537  0.4198 -0.2428  0.5398
  351SOL    HW110867   2.548   3.266   1.605  0.5589  1.1189 -0.5582
  351SOL    HW210868   2.547   3.115   1.542 -2.0629  0.8623  0.0369
  352SOL     OW10869   2.738   5.300   2.810  0.1042  0.0713 -0.6039
  352SOL    HW110870   2.777   5.385   2.773  0.4229  0.4043  0.4880
  352SOL    HW210871   2.691   5.320   2.896 -1.6627 -0.4966 -1.4084
  353SOL     OW10872   3.206   2.108   2.242  0.1735  0.5034 -0.5561
  353SOL    HW110873   3.172   2.041   2.308  1.4760  2.0075  1.7057
  353SOL    HW210874   3.136   2.177   2.227  0.1804  0.6102 -0.1094
  354SOL     OW10875   3.716   8.638   1.188 -0.4107 -0.2986  0.2931
  354SOL    HW110876   3.723   8.737   1.196  2.6156 -0.3172 -1.2773
  354SOL    HW210877   3.620   8.611   1.189 -1.2402  2.5388  1.6840
  355SOL     OW10878   3.678   9.528   1.871 -0.3445 -0.5007 -0.3198
  355SOL    HW110879   3.679   9.571   1.781  1.1271 -0.5358 -0.3219
  355SOL    HW210880   3.720   9.438   1.866  0.6919 -0.0818  0.5959
  356SOL     OW10881   4.052   0.706   2.785  0.6366  0.1962 -0.1556
  356SOL    HW110882   4.087   0.799   2.784  0.9249  0.1126  0.8261
  356SOL    HW210883   4.000   0.688   2.701 -0.0801  1.4871 -0.0087
  357SOL     OW10884   3.111   6.603   2.764  0.1787 -0.1916 -0.7240
  357SOL    HW110885   3.067   6.669   2.825 -0.3620 -0.5370 -0.7459
  357SOL    HW210886   3.081   6.618   2.670 -0.6570 -1.0694 -0.6012
  358SOL     OW10887   4.254   1.795   2.079 -0.2890 -0.1704  0.3003
  358SOL    HW110888   4.244   1.816   2.176 -4.2904  3.0059 -0.6863
  358SOL    HW210889   4.229   1.699   2.063 -1.5459 -0.1779  2.1479
  359SOL     OW10890   4.414   3.773   2.290  0.6380  0.5499 -0.1624
  359SOL    HW110891   4.449   3.790   2.198  3.6984 -0.1562  0.7826
  359SOL    HW210892   4.422   3.856   2.345 -0.0570  0.6391 -0.1942
  360SOL     OW10893   2.648   4.177   0.113 -0.6462  0.0905 -0.1130
  360SOL    HW110894   2.585   4.100   0.126 -1.5803  0.8459 -0.1549
  360SOL    HW210895   2.729   4.145   0.065 -1.8971 -0.4545 -1.8989
  361SOL     OW10896   3.896   9.614   0.651 -0.3993 -0.5252 -0.0764
  361SOL    HW110897   3.939   9.693   0.608 -0.3413 -0.1338  0.6922
  361SOL    HW210898   3.900   9.624   0.750 -3.3149  0.0647  0.0029
  362SOL     OW10899   2.244   9.745   0.306  0.1032  0.0588  0.1409
  362SOL    HW110900   2.181   9.708   0.375 -0.9339  1.9694  0.2389
  362SOL    HW210901   2.247   9.683   0.227 -0.1079 -1.2084  1.1046
  363SOL     OW10902   2.143   1.797   1.206 -0.0248 -0.1678 -0.0869
  363SOL    HW110903   2.132   1.881   1.152  3.7676  1.0813  0.9000
  363SOL    HW210904   2.179   1.725   1.147  0.6489  0.1301 -0.0457
  364SOL     OW10905   2.713   2.639   1.110 -0.6022  0.1934  0.7609
  364SOL    HW110906   2.712   2.549   1.068  0.9099 -0.3409  1.7934
  364SOL    HW210907   2.752   2.705   1.047 -2.2100  0.2519 -0.1997
  365SOL     OW10908   3.365   3.930   2.184 -0.6741  0.3573 -0.1797
  365SOL    HW110909   3.333   3.897   2.095 -1.3546  2.1438 -0.6202
  365SOL    HW210910   3.386   3.852   2.243 -2.6630 -0.8807 -1.0338
  366SOL     OW10911   3.168   1.778   2.777  0.3677 -0.3493 -0.0102
  366SOL    HW110912   3.212   1.735   2.699  0.1430  1.0902 -0.9512
  366SOL    HW210913   3.080   1.734   2.794  0.1537 -0.2939 -0.9326
  367SOL     OW10914   2.782   7.880   2.773  0.2927  0.6767 -0.0539
  367SOL    HW110915   2.870   7.925   2.788  0.6092  0.2249 -0.5291
  367SOL    HW210916   2.747   7.844   2.859  0.4872  1.0086  0.1648
  368SOL     OW10917   3.223   7.704   0.715  0.0300 -0.3328  0.4425
  368SOL    HW110918   3.192   7.686   0.809  0.4006 -0.3869  0.5557
  368SOL    HW210919   3.306   7.760   0.717 -1.9647  2.7758  0.0519
  369SOL     OW10920   4.538   3.403   0.812  0.3113 -0.0483 -0.3517
  369SOL    HW110921   4.591   3.402   0.897 -2.0496  0.1681  1.1776
  369SOL    HW210922   4.543   3.312   0.769 -0.3348 -0.8588  1.2266
  370SOL     OW10923   4.931   3.464   1.165 -0.2988 -0.4508 -0.2558
  370SOL    HW110924   4.968   3.411   1.241  2.4758  1.6426 -0.0639
  370SOL    HW210925   4.990   3.455   1.086 -0.8381  0.8008 -0.8159
  371SOL     OW10926   3.026   3.575   0.237 -0.4283  0.0367 -0.0932
  371SOL    HW110927   3.032   3.664   0.281 -0.0727 -0.2887  0.5272
  371SOL    HW210928   2.933   3.539   0.247 -0.8002  0.7069 -1.0803
  372SOL     OW10929   2.502   0.743   1.130  0.6260 -0.1107 -0.5346
  372SOL    HW110930   2.571   0.700   1.189  0.3843 -0.2051 -0.3165
  372SOL    HW210931   2.512   0.842   1.135  0.7137 -0.1219 -0.4632
  373SOL     OW10932   4.226   9.497   0.355  0.0797 -0.0736  0.1211
  373SOL    HW110933   4.320   9.527   0.372  0.4046 -1.6637  1.2019
  373SOL    HW210934   4.184   9.468   0.440 -1.4659  0.7595 -0.3349
  374SOL     OW10935   3.066   1.584   0.923 -0.5182 -0.1513 -0.0090
  374SOL    HW110936   3.050   1.640   0.842  1.1615 -2.8227 -2.3282
  374SOL    HW210937   3.111   1.638   0.993 -1.2769  2.0313 -1.1745
  375SOL     OW10938   4.410   0.928   1.398  0.4481  0.3949  0.5498
  375SOL    HW110939   4.404   0.895   1.492  0.6291  2.5143  1.3445
  375SOL    HW210940   4.343   1.001   1.385 -1.8037 -2.0336 -1.9316
  376SOL     OW10941   4.027   9.065   2.759 -0.0678  0.4503  0.0740
  376SOL    HW110942   4.011   9.040   2.854  1.1170 -0.9979 -0.0787
  376SOL    HW210943   4.123   9.089   2.747  0.1550 -0.9117 -1.0581
  377SOL     OW10944   3.950   0.735   2.518  0.5406  0.2458  0.3712
  377SOL    HW110945   3.904   0.646   2.523  0.1279  0.3611 -1.2015
  377SOL    HW210946   3.954   0.766   2.423 -1.7504  3.1760  1.1519
  378SOL     OW10947   2.428   0.932   2.412  0.3324 -0.5746 -0.3816
  378SOL    HW110948   2.492   1.007   2.393 -1.5651  1.4537  0.9685
  378SOL    HW210949   2.395   0.939   2.506 -1.6940 -1.6727 -0.9709
  379SOL     OW10950   3.467   3.684   2.277  0.7657 -0.4866  0.4291
  379SOL    HW110951   3.481   3.626   2.196 -2.0681 -0.5438 -0.0671
  379SOL    HW210952   3.553   3.728   2.301  1.6725 -0.4629 -2.6292
  380SOL     OW10953   2.457   6.220   1.552 -0.3103  0.3816 -0.4050
  380SOL    HW110954   2.501   6.274   1.624  0.5563 -0.0919 -0.5785
  380SOL    HW210955   2.358   6.238   1.553 -0.2861  0.4766  0.8070
  381SOL     OW10956   4.154   1.217   1.255 -0.4175 -0.5735 -0.2901
  381SOL    HW110957   4.136   1.146   1.323 -2.7132  0.2524  0.0032
  381SOL    HW210958   4.160   1.306   1.301  1.0667 -0.3736 -0.8261
  382SOL     OW10959   3.580   8.158   0.385  0.4750 -0.0031  0.3421
  382SOL    HW110960   3.512   8.106   0.436 -0.3847 -0.6086 -1.3833
  382SOL    HW210961   3.661   8.101   0.370  1.1314  0.4997  1.8249
  383SOL     OW10962   2.442   1.047   0.119 -0.8596  0.0344  0.0896
  383SOL    HW110963   2.452   1.113   0.044 -0.3742 -0.3411 -0.1786
  383SOL    HW210964   2.524   1.050   0.177  0.4059 -2.2553 -1.4723
  384SOL     OW10965   2.428   2.140   0.916  0.5915  0.0744 -0.2793
  384SOL    HW110966   2.389   2.065   0.863  0.8459  0.4981 -1.0788
  384SOL    HW210967   2.381   2.147   1.003  1.3828 -1.8138  0.3358
  385SOL     OW10968   4.923   3.270   1.362  0.3773 -0.1009 -0.0176
  385SOL    HW110969   4.870   3.326   1.426 -0.3895  0.1846 -0.8798
  385SOL    HW210970   4.864   3.200   1.322  1.1522 -1.0539  0.5022
  386SOL     OW10971   4.165   5.038   1.218 -0.2843 -0.4008 -0.3799
  386SOL    HW110972   4.140   5.110   1.281  0.2770 -0.7151  0.2035
  386SOL    HW210973   4.182   5.077   1.127  0.8864  0.3111  0.1453
  387SOL     OW10974   3.050   9.541   2.387  0.2744  0.5248 -0.5266
  387SOL    HW110975   3.129   9.601   2.371  0.2970  0.6264 -0.0611
  387SOL    HW210976   2.968   9.597   2.396  0.4599  0.5772  0.9802
  388SOL     OW10977   3.085   3.657   0.562  0.1317 -0.4104  0.2098
  388SOL    HW110978   3.113   3.697   0.649  1.5055  0.8724 -0.8087
  388SOL    HW210979   3.165   3.643   0.504 -0.8862 -0.2465 -1.2667
  389SOL     OW10980   4.310   3.506   0.696  0.0459  0.1777  0.6600
  389SOL    HW110981   4.393   3.482   0.745  0.6703 -2.8816 -1.7189
  389SOL    HW210982   4.241   3.435   0.709  0.5415 -1.1986 -3.4743
  390SOL     OW10983   4.674   4.310   0.508 -0.2158 -0.2689 -0.0793
  390SOL    HW110984   4.762   4.301   0.554  0.1001 -0.3628 -0.6957
  390SOL    HW210985   4.600   4.301   0.575  0.2584  0.6544  0.5783
  391SOL     OW10986   3.348   7.850   2.189  0.5540 -0.1416 -0.2851
  391SOL    HW110987   3.290   7.925   2.220 -0.9717 -1.5431  0.3478
  391SOL    HW210988   3.353   7.850   2.089  1.4401  1.4252 -0.2544
  392SOL     OW10989   2.325   2.923   2.022 -0.9648  0.0880  0.4537
  392SOL    HW110990   2.350   2.853   2.088  2.0904 -1.5919 -2.3340
  392SOL    HW210991   2.376   3.007   2.040 -0.3712 -0.2668  0.4238
  393SOL     OW10992   2.683   0.894   2.178  0.1172 -0.2527 -0.3927
  393SOL    HW110993   2.620   0.961   2.220  0.1485 -0.9841  0.8595
  393SOL    HW210994   2.630   0.828   2.125 -0.3476 -1.5807  1.6334
  394SOL     OW10995   3.881   1.801   2.186 -0.0794  0.3866  0.0907
  394SOL    HW110996   3.941   1.869   2.144 -0.6493  1.6827  1.3442
  394SOL    HW210997   3.889   1.806   2.286  0.1528 -1.6533  0.2003
  395SOL     OW10998   4.329   2.709   1.405 -0.1666 -0.2826  0.1133
  395SOL    HW110999   4.238   2.727   1.370  0.6660  1.5787 -1.1403
  395SOL    HW211000   4.327   2.710   1.505 -1.6725 -1.2082  0.1188
  396SOL     OW11001   2.831   2.716   2.529 -0.3666 -0.2313  0.0365
  396SOL    HW111002   2.852   2.658   2.451  2.0006 -0.4959  0.8457
  396SOL    HW211003   2.882   2.685   2.609 -0.0344  2.1687  0.8055
  397SOL     OW11004   4.281   3.005   1.027 -0.4432  0.1777 -0.0467
  397SOL    HW111005   4.328   2.918   1.012 -1.2705 -0.4801  1.0898
  397SOL    HW211006   4.186   2.987   1.052 -1.1126  1.4710 -1.5921
  398SOL     OW11007   3.476   1.374   1.496  0.5418  0.0181  0.3049
  398SOL    HW111008   3.527   1.369   1.582 -0.4883  0.3309  0.9348
  398SOL    HW211009   3.412   1.297   1.491 -1.7118  1.7715  1.3152
  399SOL     OW11010   2.729   7.250   0.161 -0.0976 -0.0368  0.4334
  399SOL    HW111011   2.721   7.275   0.258  0.6989  1.6627  0.0900
  399SOL    HW211012   2.742   7.151   0.153 -2.9335 -0.5714  1.8882
  400SOL     OW11013   2.500   8.772   0.349 -0.0846 -0.5248 -0.6714
  400SOL    HW111014   2.527   8.831   0.426 -0.6843 -0.3366 -0.6018
  400SOL    HW211015   2.512   8.676   0.375  0.7040 -0.4351 -0.7113
  401SOL     OW11016   2.780   3.925   0.650 -0.1467 -0.7072 -0.2357
  401SOL    HW111017   2.846   3.910   0.576  2.4649 -0.8251  2.0413
  401SOL    HW211018   2.774   4.023   0.670  0.1170 -0.7976  0.2770
  402SOL     OW11019   3.517   8.512   2.625  0.2433  0.1095  0.2117
  402SOL    HW111020   3.478   8.459   2.549  0.3395  0.4820 -0.1012
  402SOL    HW211021   3.467   8.598   2.635  0.3948  0.1764  0.4053
  403SOL     OW11022   2.909   7.806   0.727  0.2872 -0.3028 -0.4684
  403SOL    HW111023   2.947   7.839   0.640  3.0526 -0.1830  0.7243
  403SOL    HW211024   2.977   7.819   0.799 -2.4323  0.7553  1.9826
  404SOL     OW11025   2.389   0.786   0.044 -0.1705 -0.9968  0.1926
  404SOL    HW111026   2.451   0.859   0.074 -2.8916  1.2716  0.4398
  404SOL    HW211027   2.317   0.825  -0.013 -1.9014 -3.4699  0.6213
  405SOL     OW11028   3.673   2.448   1.813  0.3325 -0.0218 -0.2631
  405SOL    HW111029   3.632   2.427   1.902 -0.6677 -1.1144 -0.9881
  405SOL    HW211030   3.708   2.542   1.815 -0.1732  0.1541  1.0958
  406SOL     OW11031   3.261   9.070   2.610  0.0536 -0.0028 -0.3596
  406SOL    HW111032   3.201   9.070   2.530  1.2829 -1.4036 -1.3149
  406SOL    HW211033   3.347   9.026   2.586  1.6879  2.4806  0.8304
  407SOL     OW11034   4.122   1.901   1.474  0.6187 -0.0577  0.0302
  407SOL    HW111035   4.082   1.955   1.400 -1.7775 -2.2065 -0.3138
  407SOL    HW211036   4.208   1.861   1.444 -0.5199 -1.2123 -1.7550
  408SOL     OW11037   4.095   9.157   1.144  0.0648 -0.2725  0.2422
  408SOL    HW111038   4.036   9.156   1.063  0.2895 -1.3895  0.0876
  408SOL    HW211039   4.186   9.127   1.119 -0.7088 -3.9520  1.5429
  409SOL     OW11040   3.781   1.726   1.909 -0.0594  0.4087  0.6546
  409SOL    HW111041   3.825   1.769   1.988 -1.6796  0.2713  1.6524
  409SOL    HW211042   3.822   1.761   1.825  1.3706  0.9027  1.5444
  410SOL     OW11043   2.569   7.572   2.506  0.0112  0.4743  0.0417
  410SOL    HW111044   2.541   7.631   2.582 -0.1846  0.6152 -0.1404
  410SOL    HW211045   2.489   7.524   2.470  0.1998 -0.0231  0.2950
  411SOL     OW11046   3.360   2.381   1.096  0.4787 -0.2151  0.0765
  411SOL    HW111047   3.450   2.369   1.138  0.8717  1.9754 -0.0979
  411SOL    HW211048   3.370   2.399   0.999 -0.3578 -3.4671 -0.6803
  412SOL     OW11049   2.692   1.750   1.958 -0.2260 -0.5256 -0.0743
  412SOL    HW111050   2.619   1.804   1.917  0.9726  1.7460  0.6973
  412SOL    HW211051   2.780   1.795   1.941  0.4070 -0.0316  4.0305
  413SOL     OW11052   2.889   5.128   1.382  0.8239 -0.2272 -0.1956
  413SOL    HW111053   2.923   5.089   1.467 -0.6332 -1.5368 -0.1878
  413SOL    HW211054   2.847   5.056   1.326 -3.3628  1.4827  0.5049
  414SOL     OW11055   2.826   3.000   0.514 -1.1999 -0.4582 -0.5994
  414SOL    HW111056   2.774   3.067   0.462 -0.9487  0.2995  0.1247
  414SOL    HW211057   2.893   2.957   0.455  0.9848  2.3850 -0.2738
  415SOL     OW11058   3.522   9.980   1.610 -0.4905  0.1617 -1.0745
  415SOL    HW111059   3.466   9.899   1.589  2.8526 -2.3218 -0.7859
  415SOL    HW211060   3.513  10.003   1.707  0.2860 -1.3027 -0.6373
  416SOL     OW11061   3.348   4.132   0.639  0.4789 -0.1102 -0.0721
  416SOL    HW111062   3.393   4.155   0.725  0.0349  0.9177 -0.1109
  416SOL    HW211063   3.291   4.209   0.609 -0.5113 -1.0190 -0.5419
  417SOL     OW11064   2.663   7.091   2.048 -0.0494 -0.0208 -0.0951
  417SOL    HW111065   2.598   7.071   1.974  0.4590 -0.0001 -0.5512
  417SOL    HW211066   2.623   7.065   2.135 -1.9277  2.9113 -0.0252
  418SOL     OW11067   3.200   4.851   0.453  0.2749  0.7232  0.4729
  418SOL    HW111068   3.287   4.826   0.494 -0.0454 -0.0767  0.6751
  418SOL    HW211069   3.214   4.924   0.386  1.1606  0.2923  0.1822
  419SOL     OW11070   3.542   8.202   1.551  0.0402  0.8372  0.2208
  419SOL    HW111071   3.624   8.163   1.595  0.4862  1.1952 -0.2916
  419SOL    HW211072   3.561   8.296   1.523 -0.4758  0.8398 -0.1102
  420SOL     OW11073   2.229   1.594   1.053  0.1779  0.1912  0.0053
  420SOL    HW111074   2.248   1.497   1.072  0.4022  0.1977 -0.1845
  420SOL    HW211075   2.312   1.638   1.020 -0.3014  0.0891 -1.3452
  421SOL     OW11076   4.895   2.091   1.376 -0.4299  0.2094 -0.0685
  421SOL    HW111077   4.943   2.006   1.353 -0.4718  0.2049 -0.1413
  421SOL    HW211078   4.959   2.167   1.373 -0.6974  0.4044 -1.4974
  422SOL     OW11079   2.893   1.005   2.011 -0.5206 -0.0251  0.5541
  422SOL    HW111080   2.822   1.069   2.040  0.7962  0.7100  2.2429
  422SOL    HW211081   2.913   0.941   2.086 -1.4863 -2.1394 -0.9378
  423SOL     OW11082   4.164   3.718   2.793 -0.7346 -0.1249 -0.3300
  423SOL    HW111083   4.234   3.783   2.764  0.5681 -1.2288  0.3108
  423SOL    HW211084   4.112   3.757   2.869  0.0776  0.1604  0.0830
  424SOL     OW11085   3.272   0.208   0.341  0.5166 -0.1034  0.0823
  424SOL    HW111086   3.353   0.219   0.284  0.6644 -0.2160  0.2722
  424SOL    HW211087   3.273   0.276   0.414 -0.0433  0.5191 -0.4854
  425SOL     OW11088   4.092   4.602   0.834 -0.1328 -0.2166  0.0833
  425SOL    HW111089   4.153   4.568   0.763  1.6944  0.2306  1.4148
  425SOL    HW211090   4.056   4.692   0.808  0.7081  0.0474 -0.1545
  426SOL     OW11091   2.602   7.154   1.750 -0.1069 -0.4189 -0.1907
  426SOL    HW111092   2.602   7.254   1.756  1.7406 -0.5000  1.7926
  426SOL    HW211093   2.522   7.117   1.799 -0.0108  0.0312  0.3058
  427SOL     OW11094   2.522   8.505   0.346  0.1875 -0.2157  0.2590
  427SOL    HW111095   2.579   8.495   0.265  0.2636 -1.0019  0.4050
  427SOL    HW211096   2.580   8.515   0.427  0.1314  2.3397  0.0402
  428SOL     OW11097   3.436   8.193   0.851  0.2947 -0.3354 -0.2059
  428SOL    HW111098   3.533   8.189   0.828  0.2926 -0.0993 -0.2626
  428SOL    HW211099   3.426   8.228   0.945  0.2451  0.0926 -0.3701
  429SOL     OW11100   3.459   5.173   0.244 -0.0257  0.9603  0.0156
  429SOL    HW111101   3.361   5.186   0.232 -0.1379 -1.7003 -2.2628
  429SOL    HW211102   3.480   5.165   0.342 -2.4877 -1.3157  0.4078
  430SOL     OW11103   2.642   1.828   2.250  0.6050 -0.1590 -0.3561
  430SOL    HW111104   2.687   1.763   2.190  0.9740  0.0037 -0.2584
  430SOL    HW211105   2.642   1.793   2.344  0.0245 -0.4155 -0.4462
  431SOL     OW11106   3.631   0.050   0.140 -0.6932 -0.0002  0.1288
  431SOL    HW111107   3.544   0.001   0.141 -0.5886 -0.1769  0.6643
  431SOL    HW211108   3.685   0.025   0.220 -0.1819  0.1741 -0.1573
  432SOL     OW11109   2.627   9.899   2.584  0.5516  0.2454  0.3155
  432SOL    HW111110   2.559   9.871   2.653 -1.1090 -1.4945 -1.9526
  432SOL    HW211111   2.671   9.984   2.613 -3.3797  2.0441  1.3352
  433SOL     OW11112   2.651   1.447   1.975  0.1054 -0.2499  0.1219
  433SOL    HW111113   2.653   1.546   1.956  2.1044 -0.2069  0.4235
  433SOL    HW211114   2.679   1.431   2.069  1.2374 -1.1937 -0.3630
  434SOL     OW11115   2.471   6.729   1.175  0.5874 -0.4267 -0.0109
  434SOL    HW111116   2.413   6.675   1.235  2.0382 -2.7560 -0.6428
  434SOL    HW211117   2.536   6.782   1.231 -0.7840  0.6174  0.6054
  435SOL     OW11118   2.436   0.299   1.018  0.7726 -0.3162  0.2457
  435SOL    HW111119   2.396   0.362   1.085  2.4873 -0.7167  1.6764
  435SOL    HW211120   2.367   0.235   0.987  0.0480 -0.3844  1.9539
  436SOL     OW11121   2.868   5.192   2.281  0.1428  0.1927 -0.5150
  436SOL    HW111122   2.776   5.225   2.263  0.8392  1.6962 -1.4160
  436SOL    HW211123   2.915   5.255   2.343  1.0316  0.1946 -1.1805
  437SOL     OW11124   3.956   8.600   0.765  0.0619  0.6138  0.5076
  437SOL    HW111125   4.019   8.592   0.689 -0.0895  1.5613  0.2688
  437SOL    HW211126   3.995   8.556   0.846  1.1570  1.4459  0.4405
  438SOL     OW11127   5.036   1.919   0.880  0.1731  0.3409  0.0418
  438SOL    HW111128   5.024   1.836   0.934  1.1578  0.0032 -0.2497
  438SOL    HW211129   5.090   1.985   0.931 -1.8522  1.4031  0.8760
  439SOL     OW11130   4.083   1.371   0.254  0.2528 -0.1484 -0.4328
  439SOL    HW111131   4.074   1.344   0.350 -3.2803 -2.3569 -1.2808
  439SOL    HW211132   4.142   1.307   0.206 -1.0467 -1.3016 -0.5218
  440SOL     OW11133   3.629   2.013   0.109 -0.5701 -0.1465 -0.3788
  440SOL    HW111134   3.616   2.029   0.207 -3.1437 -0.7891 -0.5858
  440SOL    HW211135   3.688   1.933   0.096 -0.6969 -0.4140  0.6487
  441SOL     OW11136   2.763   4.831   2.394 -0.1696 -0.1570 -0.1241
  441SOL    HW111137   2.760   4.924   2.356 -0.9393  0.1309  0.6197
  441SOL    HW211138   2.778   4.836   2.492  2.2425 -0.9194 -0.4434
  442SOL     OW11139   2.288   4.542   1.716  0.8955  0.1232 -0.1474
  442SOL    HW111140   2.362   4.514   1.778  0.0365 -1.3388  0.2562
  442SOL    HW211141   2.315   4.524   1.622  2.1343  2.1733 -0.2143
  443SOL     OW11142   2.493   0.447   1.492 -0.0651  0.1531  0.4596
  443SOL    HW111143   2.520   0.538   1.460  0.8681 -0.8500 -1.6964
  443SOL    HW211144   2.397   0.432   1.470 -0.1452  0.4973  0.5630
  444SOL     OW11145   2.593   4.070   1.177  0.4812  0.0741  0.1668
  444SOL    HW111146   2.517   4.032   1.124  0.0929  0.2136  0.6255
  444SOL    HW211147   2.677   4.065   1.122 -0.0958  1.0625 -0.8244
  445SOL     OW11148   3.386   1.676   2.600  0.1008  0.0050 -0.3719
  445SOL    HW111149   3.448   1.611   2.555 -0.8041  1.3706 -3.6903
  445SOL    HW211150   3.438   1.753   2.635  0.5312  0.1038 -1.2257
  446SOL     OW11151   3.723   9.306   0.299 -0.6229 -0.2391 -0.6996
  446SOL    HW111152   3.763   9.362   0.372  1.8778 -0.0929 -2.1632
  446SOL    HW211153   3.710   9.213   0.332  0.3991 -0.1484 -0.0150
  447SOL     OW11154   0.047   5.814   1.280 -0.0380  0.1540  0.6274
  447SOL    HW111155  -0.039   5.807   1.330 -2.0979  2.8792 -2.3248
  447SOL    HW211156   0.089   5.903   1.299  0.5188  0.1054 -0.3324
  448SOL     OW11157   3.280   7.095   1.550 -0.5690 -0.7053  0.2261
  448SOL    HW111158   3.255   7.108   1.455 -1.0927 -1.9359  0.1770
  448SOL    HW211159   3.235   7.012   1.585  0.3159 -0.7541  1.2783
  449SOL     OW11160   4.557   3.747   1.196  0.1959 -0.6766 -0.2905
  449SOL    HW111161   4.504   3.665   1.217  0.7239 -0.5206  1.8029
  449SOL    HW211162   4.653   3.732   1.219  0.5135  0.1095 -1.0674
  450SOL     OW11163   2.482   8.106   0.554  0.3619  0.7165  0.0702
  450SOL    HW111164   2.481   8.022   0.608 -0.1344  0.3612 -0.4787
  450SOL    HW211165   2.521   8.087   0.464 -0.2440  0.9448 -0.2481
  451SOL     OW11166   3.576   2.302   0.852  0.0009 -0.6834  0.0679
  451SOL    HW111167   3.610   2.307   0.758  0.7242 -0.8315  0.3242
  451SOL    HW211168   3.628   2.365   0.910  0.0379 -1.1311  0.5218
  452SOL     OW11169   3.768   2.024   1.432 -0.1295 -0.8059  0.3155
  452SOL    HW111170   3.859   2.050   1.402  0.6747 -0.7731  2.6776
  452SOL    HW211171   3.747   1.932   1.399  0.5318 -0.6051 -0.6854
  453SOL     OW11172   2.008   7.851   2.749 -0.1818 -0.1264  0.5924
  453SOL    HW111173   2.005   7.756   2.717 -0.6617 -0.0976  0.5419
  453SOL    HW211174   1.987   7.853   2.847 -1.9206  0.0847  0.2383
  454SOL     OW11175   2.910   9.624   1.238  0.4018  0.8590  0.1934
  454SOL    HW111176   2.905   9.583   1.147  1.0114  3.0038 -0.8388
  454SOL    HW211177   2.819   9.624   1.280  0.0175  0.3491 -0.6408
  455SOL     OW11178   3.507   1.724   1.136 -0.0776  0.1311 -0.2379
  455SOL    HW111179   3.565   1.770   1.069  0.0035 -1.0027 -0.9520
  455SOL    HW211180   3.512   1.625   1.123 -1.3008 -0.0314  0.4180
  456SOL     OW11181   4.888   3.748   1.518  0.2052 -0.3618  0.7987
  456SOL    HW111182   4.978   3.784   1.542  0.0609 -0.2522  1.1683
  456SOL    HW211183   4.822   3.773   1.588 -0.2472  0.1020  0.2118
  457SOL     OW11184   2.178   1.885   1.735 -0.5064 -0.7874  0.1898
  457SOL    HW111185   2.148   1.842   1.649 -0.8709  0.7216 -0.4531
  457SOL    HW211186   2.190   1.815   1.805 -0.8671 -1.9603 -0.9097
  458SOL     OW11187   3.221   1.888   1.031  0.3377 -0.2178  0.3149
  458SOL    HW111188   3.303   1.944   1.019  0.3472  0.0031  1.3894
  458SOL    HW211189   3.218   1.853   1.124 -0.9803  0.0746  0.3902
  459SOL     OW11190   3.203   4.632   0.636  0.1750  0.2768 -0.6774
  459SOL    HW111191   3.269   4.674   0.698 -0.1007 -0.2365 -0.0276
  459SOL    HW211192   3.196   4.687   0.553 -0.1046  1.4633  0.1106
  460SOL     OW11193   2.803   4.197   0.618 -0.4020 -0.6290 -0.9031
  460SOL    HW111194   2.829   4.243   0.533 -0.4865  1.1985  0.0525
  460SOL    HW211195   2.762   4.262   0.681 -0.8406 -2.0820  0.3505
  461SOL     OW11196   3.945   4.348   2.680 -0.1670 -0.2860 -0.2020
  461SOL    HW111197   3.978   4.304   2.764  0.3685 -0.4057 -0.4749
  461SOL    HW211198   3.863   4.302   2.649 -0.8001  0.2304  0.6729
  462SOL     OW11199   2.182   2.317   2.205  0.3378  0.3015 -0.4808
  462SOL    HW111200   2.090   2.323   2.242  1.2693 -1.3817  2.3186
  462SOL    HW211201   2.187   2.364   2.118 -3.1917  0.2945 -0.7347
  463SOL     OW11202   3.681   2.323   0.591 -0.0308  0.0477 -0.3176
  463SOL    HW111203   3.595   2.361   0.558  0.0659  1.3043  0.7980
  463SOL    HW211204   3.739   2.299   0.514 -1.2940 -0.6011 -1.0740
  464SOL     OW11205   4.222   8.240   2.377 -0.3929  1.0000 -0.0217
  464SOL    HW111206   4.280   8.318   2.351 -1.0477  1.2516 -0.7485
  464SOL    HW211207   4.225   8.228   2.476  1.6123  0.4540 -0.1225
  465SOL     OW11208   3.977   8.662   1.122 -0.1326  0.7246  0.4703
  465SOL    HW111209   3.882   8.636   1.141  0.5110  0.2440  3.3672
  465SOL    HW211210   4.007   8.729   1.190  0.3929  3.9544 -2.8215
  466SOL     OW11211   3.971   9.519   2.800  0.2451 -0.3856 -0.3219
  466SOL    HW111212   3.913   9.438   2.802 -1.3777  0.7540 -0.3020
  466SOL    HW211213   3.997   9.544   2.893 -1.6902  0.8267 -0.1001
  467SOL     OW11214   4.447   4.890   0.437 -0.5625 -0.0105 -0.1455
  467SOL    HW111215   4.427   4.855   0.346 -1.0840 -2.4568  0.8839
  467SOL    HW211216   4.366   4.935   0.475 -0.9087 -0.6177 -0.1643
  468SOL     OW11217   4.686   1.099   0.242  0.0225 -0.1470 -0.7412
  468SOL    HW111218   4.708   1.150   0.159 -1.3922 -0.4291 -1.2961
  468SOL    HW211219   4.766   1.097   0.301  0.3455  2.1056 -1.0332
  469SOL     OW11220   2.713   6.306   0.368 -0.0982 -0.0765  0.2083
  469SOL    HW111221   2.733   6.245   0.292  4.1198 -0.8539  1.7821
  469SOL    HW211222   2.767   6.390   0.359 -1.3335  0.8332  1.1320
  470SOL     OW11223   2.662   1.135   2.387  0.5308 -0.2744 -0.2891
  470SOL    HW111224   2.735   1.066   2.384 -0.6493 -1.4994 -0.9487
  470SOL    HW211225   2.699   1.220   2.424  2.5356 -0.5989 -1.4809
  471SOL     OW11226   2.532   4.086   1.457 -0.1587 -0.0223  0.5116
  471SOL    HW111227   2.607   4.042   1.507  0.7762  0.1282 -0.7363
  471SOL    HW211228   2.547   4.077   1.359 -0.4989  2.1252  0.2233
  472SOL     OW11229   3.906   9.041   2.016 -0.1712 -0.0100 -0.3985
  472SOL    HW111230   3.970   9.109   1.981  0.0862  0.4803  0.9859
  472SOL    HW211231   3.951   8.984   2.085 -0.3363 -1.7119 -1.6498
  473SOL     OW11232   3.116   4.273   0.009 -0.3069  0.4428  0.4178
  473SOL    HW111233   3.066   4.278   0.095 -1.3754  1.1303 -0.2289
  473SOL    HW211234   3.205   4.229   0.024 -0.4951  0.5353  1.8528
  474SOL     OW11235   2.979   5.324   1.731 -0.0227  0.0746 -0.5488
  474SOL    HW111236   3.066   5.370   1.716 -0.4250  1.0308  0.0142
  474SOL    HW211237   2.975   5.241   1.675  1.7414 -0.6446  0.3617
  475SOL     OW11238   2.417   5.110   1.913 -0.2419  0.1525  0.1340
  475SOL    HW111239   2.407   5.013   1.938 -0.9091  0.5146  1.2749
  475SOL    HW211240   2.478   5.117   1.834  0.3868 -1.1460  0.4816
  476SOL     OW11241   2.900   9.646   1.615 -0.3033  0.1219 -0.3356
  476SOL    HW111242   2.849   9.648   1.528  0.7667  0.9168 -0.9692
  476SOL    HW211243   2.948   9.733   1.626  0.6701 -0.5025  0.3918
  477SOL     OW11244   2.233   7.793   2.409  0.1018  0.7023  0.3577
  477SOL    HW111245   2.288   7.854   2.466 -0.3420  0.1858  1.3457
  477SOL    HW211246   2.199   7.843   2.329  1.2005  1.2769  0.2411
  478SOL     OW11247   2.299   4.770   1.442  0.0538 -0.3134 -0.2336
  478SOL    HW111248   2.256   4.843   1.389 -0.1757 -1.1948 -1.2670
  478SOL    HW211249   2.376   4.808   1.494 -0.0015  0.6422 -0.8336
  479SOL     OW11250   4.580   4.511   2.539 -0.3998  0.0467 -0.1761
  479SOL    HW111251   4.595   4.596   2.590  2.8798  0.5114 -1.8505
  479SOL    HW211252   4.615   4.434   2.592 -2.1587 -0.1455  0.7446
  480SOL     OW11253   3.901   5.333   0.750 -0.3194  0.8618  0.5541
  480SOL    HW111254   3.965   5.260   0.773 -0.1377  0.7907 -0.1932
  480SOL    HW211255   3.905   5.352   0.652 -1.4321  0.8694  0.5084
  481SOL     OW11256   3.319   1.547   0.140  0.1959 -0.3005  0.2637
  481SOL    HW111257   3.292   1.629   0.190  1.3073 -0.7539  1.6392
  481SOL    HW211258   3.341   1.571   0.046  2.6287  1.3765  1.1997
  482SOL     OW11259   4.435   1.005   0.276 -0.2078 -0.9832 -0.0216
  482SOL    HW111260   4.442   0.931   0.342 -1.0731 -0.4714  0.6677
  482SOL    HW211261   4.524   1.023   0.236  0.2378 -1.6104  0.6727
  483SOL     OW11262   3.183   9.570   0.083 -0.0779 -0.3653 -0.0876
  483SOL    HW111263   3.094   9.533   0.058  0.6981 -0.5982 -2.7734
  483SOL    HW211264   3.255   9.512   0.044  1.2170  0.8258  0.4675
  484SOL     OW11265   2.590   0.583   0.445 -0.0976 -0.1192  0.1351
  484SOL    HW111266   2.643   0.612   0.366  0.5467  0.0726  0.6366
  484SOL    HW211267   2.651   0.562   0.521 -0.6562 -1.2021  0.2990
  485SOL     OW11268   3.289   4.941   2.218  0.9250  0.0063 -0.2459
  485SOL    HW111269   3.267   4.994   2.300  1.3307 -0.3557  0.0955
  485SOL    HW211270   3.236   4.856   2.218 -0.1249  0.6482 -1.0573
  486SOL     OW11271   3.635   3.984   1.870 -0.4959 -0.1434 -0.0312
  486SOL    HW111272   3.584   4.069   1.883  2.5570  1.8075 -0.3320
  486SOL    HW211273   3.714   3.983   1.930 -0.1312 -2.5061 -0.5120
  487SOL     OW11274   4.755   2.681   1.052 -0.3589  0.2750  0.7670
  487SOL    HW111275   4.668   2.709   1.091 -0.5906 -0.1211  0.5390
  487SOL    HW211276   4.751   2.584   1.027 -0.3202  0.5993 -0.5304
  488SOL     OW11277   4.036   3.663   2.232  0.7310  0.3391  0.5468
  488SOL    HW111278   4.063   3.678   2.137 -0.1176 -0.2679  0.2010
  488SOL    HW211279   4.093   3.718   2.293 -0.0496  2.2793 -0.4476
  489SOL     OW11280   4.098   3.315   0.750 -0.0873  0.6002 -0.2427
  489SOL    HW111281   4.024   3.343   0.688  0.8849  0.4215 -1.4909
  489SOL    HW211282   4.058   3.277   0.833 -1.4129  0.2018 -1.0410
  490SOL     OW11283   3.758   9.359   0.031 -0.3040 -0.4690  0.2175
  490SOL    HW111284   3.759   9.331   0.127 -0.4986 -1.1253  0.0310
  490SOL    HW211285   3.686   9.309  -0.018 -1.6485  1.4283  0.1971
  491SOL     OW11286   3.962   9.935   1.858 -0.8735 -0.2519  0.2013
  491SOL    HW111287   4.025   9.897   1.926  1.0339 -1.6575 -2.2405
  491SOL    HW211288   3.870   9.900   1.874 -0.6830  0.3625  2.7331
  492SOL     OW11289   4.125   0.930   0.304  0.4510  0.5714 -0.3180
  492SOL    HW111290   4.150   0.933   0.401  2.7836 -0.7918 -0.8402
  492SOL    HW211291   4.200   0.966   0.249  0.2464 -1.1592 -1.7829
  493SOL     OW11292   2.846   5.987   1.604  0.2067 -0.4152  0.3042
  493SOL    HW111293   2.799   5.898   1.596 -2.9156  1.0587  1.5012
  493SOL    HW211294   2.819   6.045   1.528 -0.5696  0.7376  1.4453
  494SOL     OW11295   3.105   2.500   1.840  0.1431  0.2156  0.5114
  494SOL    HW111296   3.120   2.598   1.832  1.1369  0.2718  2.7124
  494SOL    HW211297   3.138   2.468   1.929  3.1184 -2.7318 -1.5487
  495SOL     OW11298   3.887   4.661   2.643  0.0964 -0.4511 -0.1083
  495SOL    HW111299   3.808   4.705   2.687 -0.2202 -1.1282 -0.0050
  495SOL    HW211300   3.913   4.579   2.695  1.2234  0.0744  0.1911
  496SOL     OW11301   2.875   1.782   0.489 -0.0486 -0.2051 -0.4566
  496SOL    HW111302   2.777   1.764   0.493 -0.0759 -0.1241 -0.7555
  496SOL    HW211303   2.895   1.839   0.410  0.2154 -0.0618 -0.2867
  497SOL     OW11304   4.679   2.875   2.830  0.2977  0.1945 -0.5164
  497SOL    HW111305   4.645   2.945   2.767 -0.9973 -1.8028 -2.1387
  497SOL    HW211306   4.773   2.851   2.806  0.8311  1.5508  0.2095
  498SOL     OW11307   4.202   3.249   2.762 -0.0021 -0.2375  0.5334
  498SOL    HW111308   4.172   3.226   2.670 -1.0071 -0.5567  0.9375
  498SOL    HW211309   4.297   3.219   2.774 -0.1099 -0.8833 -0.1418
  499SOL     OW11310   4.795   2.375   2.826  0.0060  0.3039 -0.5552
  499SOL    HW111311   4.826   2.406   2.916  0.2145  1.8597 -1.1583
  499SOL    HW211312   4.734   2.296   2.838  0.5238  0.0988  0.9040
  500SOL     OW11313   3.006   5.804   0.357 -0.5444  0.2703 -0.5327
  500SOL    HW111314   2.987   5.881   0.418  3.2845 -1.0883  2.5603
  500SOL    HW211315   2.956   5.724   0.389 -0.6807  0.2430 -0.8149
  501SOL     OW11316   3.182   2.271   1.301  0.2398 -0.6547  0.2618
  501SOL    HW111317   3.242   2.311   1.232  1.7005 -0.5636  1.5651
  501SOL    HW211318   3.089   2.308   1.290  0.6096 -0.1323 -1.2066
  502SOL     OW11319   2.675   7.803   1.253 -0.4750  0.2985 -0.1547
  502SOL    HW111320   2.652   7.707   1.264 -2.6463  0.4914 -2.5465
  502SOL    HW211321   2.772   7.812   1.229 -0.2166 -1.2588  0.2658
  503SOL     OW11322   3.983   2.034   1.259  0.0653 -0.1627 -0.0317
  503SOL    HW111323   3.981   1.999   1.166  0.7519  0.4824 -0.2990
  503SOL    HW211324   3.969   2.133   1.257 -1.3365 -0.3251  0.6651
  504SOL     OW11325   3.384   3.419   0.231 -0.3327 -0.2089  0.5801
  504SOL    HW111326   3.466   3.369   0.203 -1.0038 -0.7295 -0.4892
  504SOL    HW211327   3.344   3.464   0.152 -2.5286 -2.0910  0.5719
  505SOL     OW11328   2.804   8.999   1.126 -0.2699  0.6748  0.6347
  505SOL    HW111329   2.739   8.925   1.109  0.1565 -0.2152  2.7316
  505SOL    HW211330   2.893   8.975   1.087 -0.6225  0.9323 -0.3375
  506SOL     OW11331   3.705   5.157   1.749 -0.1402  0.3217  0.2626
  506SOL    HW111332   3.731   5.103   1.829  1.9125 -0.5872 -0.9772
  506SOL    HW211333   3.788   5.192   1.704 -1.3232  2.0629 -0.6253
  507SOL     OW11334   3.265   1.169   1.494 -0.7499 -0.3294  0.8099
  507SOL    HW111335   3.200   1.171   1.418 -0.0745 -0.2119  0.2358
  507SOL    HW211336   3.224   1.122   1.572 -1.6022 -0.0729  0.5186
  508SOL     OW11337   3.108   9.021   0.844  0.0646 -0.2598  0.2769
  508SOL    HW111338   3.128   8.926   0.820 -1.4105 -0.2450 -1.0852
  508SOL    HW211339   3.156   9.082   0.780  2.0504 -0.0166  1.9246
  509SOL     OW11340   2.070   4.648   0.076  0.4300  0.6386  0.1108
  509SOL    HW111341   2.005   4.721   0.098  0.6341  1.1624 -1.0091
  509SOL    HW211342   2.115   4.618   0.160 -0.0144  1.4532  0.6509
  510SOL     OW11343   3.534   1.247   2.687 -0.0519 -0.4549 -0.0058
  510SOL    HW111344   3.473   1.280   2.615 -0.3292 -1.2165 -0.1260
  510SOL    HW211345   3.619   1.213   2.646  0.7304  1.2039  0.2121
  511SOL     OW11346   2.691   6.139   2.770  0.5142  0.0859  0.0632
  511SOL    HW111347   2.703   6.225   2.721  0.1073 -0.3947 -0.8866
  511SOL    HW211348   2.780   6.109   2.806  1.0214 -0.1166 -1.3257
  512SOL     OW11349   2.478   1.781   0.250 -0.1789 -0.3869  0.4547
  512SOL    HW111350   2.439   1.781   0.158 -0.7462 -0.6485  0.6963
  512SOL    HW211351   2.444   1.702   0.301 -2.8376  1.7588  2.1627
  513SOL     OW11352   3.972   4.427   0.482 -0.0959 -0.4593  0.8609
  513SOL    HW111353   3.973   4.327   0.480 -1.3674 -0.4876  1.1661
  513SOL    HW211354   3.902   4.458   0.546  0.0973  0.6301  0.5521
  514SOL     OW11355   3.112   7.936   1.810  0.6432 -0.2788  0.4130
  514SOL    HW111356   3.197   7.988   1.815  1.6225 -1.7940  0.0096
  514SOL    HW211357   3.099   7.885   1.895  2.0037 -2.8290 -0.8534
  515SOL     OW11358   3.530   4.797   1.413 -0.4317 -0.4880 -0.1974
  515SOL    HW111359   3.600   4.867   1.401 -0.0503 -0.3293  2.6025
  515SOL    HW211360   3.444   4.840   1.441 -1.0563 -0.8715 -1.4986
  516SOL     OW11361   2.593   9.596   2.238  0.1032  0.9148  0.2447
  516SOL    HW111362   2.582   9.508   2.192  0.8389  0.2261  1.3697
  516SOL    HW211363   2.646   9.657   2.180 -0.4387  0.6360 -0.5555
  517SOL     OW11364   2.392   2.155   2.317 -1.0723  0.1676 -0.3498
  517SOL    HW111365   2.305   2.200   2.298 -1.3219  0.5771  1.7198
  517SOL    HW211366   2.407   2.083   2.250 -1.8697  1.6398 -2.1703
  518SOL     OW11367   3.844   3.251   2.300  0.1391  0.0057 -0.2353
  518SOL    HW111368   3.751   3.269   2.269  0.7657  1.5769 -1.2878
  518SOL    HW211369   3.850   3.267   2.399 -0.8866 -0.8829 -0.0296
  519SOL     OW11370   3.842   3.767   1.738 -0.5090 -0.2564 -0.0762
  519SOL    HW111371   3.815   3.811   1.824  0.4849 -0.1552  0.1857
  519SOL    HW211372   3.807   3.822   1.662 -1.1129 -0.1680  0.2544
  520SOL     OW11373   2.460   2.499   1.940 -0.1146  0.0770 -0.1652
  520SOL    HW111374   2.517   2.564   1.890  0.5385 -1.0716 -0.9323
  520SOL    HW211375   2.431   2.540   2.027  0.7738  1.1608 -0.3658
  521SOL     OW11376   2.873   3.713   1.832 -0.4660 -0.0559  0.6009
  521SOL    HW111377   2.776   3.728   1.812  0.2126  2.9229 -0.6823
  521SOL    HW211378   2.922   3.800   1.828  2.3740 -1.5967  0.6976
  522SOL     OW11379   3.122   7.596   0.457  0.4010  0.3565  0.5022
  522SOL    HW111380   3.170   7.632   0.536 -0.2723  1.9290  0.2265
  522SOL    HW211381   3.165   7.631   0.373  0.2067 -0.1049  0.2070
  523SOL     OW11382   3.340   2.162   2.684 -0.1373 -0.5828 -0.0547
  523SOL    HW111383   3.340   2.242   2.623  0.0041  1.4701  2.5522
  523SOL    HW211384   3.434   2.129   2.694  0.3311  1.1902  1.6801
  524SOL     OW11385   3.456   3.758   0.860 -0.0526 -0.0887  0.6302
  524SOL    HW111386   3.387   3.825   0.833  0.4532  0.2470  0.1710
  524SOL    HW211387   3.453   3.680   0.797  0.0990  0.0051  0.5043
  525SOL     OW11388   2.561   3.839   0.383 -0.2336 -0.4771  0.3204
  525SOL    HW111389   2.620   3.873   0.456  0.3268 -1.6460  0.4244
  525SOL    HW211390   2.598   3.869   0.295 -0.7409  0.6759  0.4972
  526SOL     OW11391   3.134   2.547   2.466 -0.9498  0.6863  0.3951
  526SOL    HW111392   3.107   2.559   2.561  1.1369  1.7443  0.8870
  526SOL    HW211393   3.128   2.635   2.418  0.5611  0.7199  0.2466
  527SOL     OW11394   3.678   8.563   0.737 -0.5410 -0.4466 -0.9346
  527SOL    HW111395   3.662   8.508   0.655 -0.1573 -3.0270  0.6572
  527SOL    HW211396   3.776   8.563   0.759 -1.1323 -3.7324  2.1131
  528SOL     OW11397   4.186   2.927   2.035  0.0687  0.2627 -0.3297
  528SOL    HW111398   4.094   2.963   2.051  0.0771  1.3121 -2.4898
  528SOL    HW211399   4.245   3.000   2.001  0.7439 -1.2113 -2.4067
  529SOL     OW11400   2.318   5.215   1.320  0.1388 -0.3962 -0.0325
  529SOL    HW111401   2.312   5.284   1.248  1.4296  1.3849  1.5442
  529SOL    HW211402   2.411   5.212   1.357 -0.2565 -1.9898  0.9067
  530SOL     OW11403   2.889   4.461   2.480  0.0349  0.0998 -0.1348
  530SOL    HW111404   2.959   4.533   2.474 -0.8793  0.8469 -2.3493
  530SOL    HW211405   2.917   4.393   2.548  2.2785  1.0739 -0.0404
  531SOL     OW11406   2.493   5.985   1.684  0.6134  0.1184 -0.5824
  531SOL    HW111407   2.463   6.004   1.777 -3.2346  0.1528 -1.7507
  531SOL    HW211408   2.484   6.068   1.629 -0.0693 -0.6674 -1.6794
  532SOL     OW11409   2.803   2.509   2.378 -0.2876 -0.5259 -0.2195
  532SOL    HW111410   2.737   2.475   2.445 -0.4162 -1.4058 -0.7804
  532SOL    HW211411   2.772   2.485   2.286 -1.4339  2.9397 -0.7944
  533SOL     OW11412   3.908   1.414   0.063  0.1635  0.4118 -0.3978
  533SOL    HW111413   3.827   1.358   0.081  0.8392 -0.7127 -0.7939
  533SOL    HW211414   3.975   1.400   0.136  0.7898 -0.1637 -1.0702
  534SOL     OW11415   3.513   4.332   0.919  0.1712  0.3011 -0.2220
  534SOL    HW111416   3.541   4.260   0.982  0.8312 -1.0328 -1.9962
  534SOL    HW211417   3.592   4.388   0.895 -0.0097  0.6006 -0.1206
  535SOL     OW11418   3.084   7.682   0.955  0.5303  0.0897 -0.2502
  535SOL    HW111419   3.119   7.692   1.047  0.1335  0.3915 -0.1303
  535SOL    HW211420   3.063   7.585   0.937 -0.2557  0.1585  0.2940
  536SOL     OW11421   4.329   2.710   0.460  0.1180 -0.2690 -0.5285
  536SOL    HW111422   4.245   2.690   0.409 -0.8463  1.3950  0.3379
  536SOL    HW211423   4.386   2.772   0.406  1.6522 -2.8224 -1.8869
  537SOL     OW11424   2.423   4.386   0.799  0.5017  0.0637 -0.6123
  537SOL    HW111425   2.434   4.374   0.897  1.2609  0.0723 -0.6925
  537SOL    HW211426   2.372   4.308   0.761  3.2671 -1.7548 -0.7435
  538SOL     OW11427   2.834   0.284   2.799 -0.3936  0.1498  0.5613
  538SOL    HW111428   2.863   0.376   2.774  1.7704 -0.4751  0.6092
  538SOL    HW211429   2.776   0.247   2.727  1.7564  0.2122 -1.2807
  539SOL     OW11430   4.049   2.225   2.744 -0.4658 -0.0956  0.0799
  539SOL    HW111431   3.969   2.285   2.738 -1.9558 -1.8403  1.9366
  539SOL    HW211432   4.038   2.164   2.822  2.0174 -1.3600 -0.5483
  540SOL     OW11433   4.228   3.393   1.989  0.3099 -0.3122 -0.3685
  540SOL    HW111434   4.284   3.419   2.068  1.2478  0.0574 -1.1517
  540SOL    HW211435   4.132   3.390   2.016  0.6720 -0.7193  0.9293
  541SOL     OW11436   2.343   2.623   0.318  0.6784  0.1694  0.2932
  541SOL    HW111437   2.304   2.669   0.239 -0.8886 -0.5380  0.6485
  541SOL    HW211438   2.299   2.656   0.401  0.1957 -1.2904  0.6273
  542SOL     OW11439   4.205   1.821   2.352 -0.0530  0.0100  0.2927
  542SOL    HW111440   4.113   1.841   2.386  0.5692  2.1987  0.7496
  542SOL    HW211441   4.265   1.800   2.429  0.1250 -0.1888  0.1003
  543SOL     OW11442   3.923   4.829   0.814 -0.4362 -0.1954  0.5212
  543SOL    HW111443   3.921   4.801   0.910  0.6896  1.7389  1.1447
  543SOL    HW211444   3.857   4.774   0.762 -0.0842 -2.2072  2.1151
  544SOL     OW11445   3.721   9.631   1.606 -0.5580 -0.3030 -0.0978
  544SOL    HW111446   3.774   9.713   1.585  0.2838 -0.8087  0.0594
  544SOL    HW211447   3.653   9.617   1.534  0.1896 -0.2276 -0.8285
  545SOL     OW11448   3.815   3.270   1.817  0.0123 -0.2261 -0.4523
  545SOL    HW111449   3.914   3.263   1.807 -0.1457 -1.3826 -1.4313
  545SOL    HW211450   3.784   3.359   1.783  0.8418  0.6149  0.9832
  546SOL     OW11451   3.763   3.480   1.172 -0.6365 -0.0921  0.0211
  546SOL    HW111452   3.758   3.561   1.113  1.8779 -0.1293 -0.3067
  546SOL    HW211453   3.757   3.508   1.268  1.8501  0.6834 -0.0219
  547SOL     OW11454   5.162   3.501   0.988 -0.1934  0.7160  0.4650
  547SOL    HW111455   5.251   3.515   1.033  0.0613  0.1486  0.1451
  547SOL    HW211456   5.170   3.426   0.922 -0.7617  1.0477  0.0153
  548SOL     OW11457   3.263   7.157   0.223  0.4125  0.5761 -0.4609
  548SOL    HW111458   3.226   7.162   0.316  0.2970 -1.4719 -0.3701
  548SOL    HW211459   3.318   7.238   0.205 -0.2235  1.3855  1.1096
  549SOL     OW11460   2.473   5.036   1.064  0.0422  0.4928 -0.5014
  549SOL    HW111461   2.399   5.022   1.129  0.4682 -3.3873 -0.7252
  549SOL    HW211462   2.541   5.098   1.104 -1.0211  0.3487  1.6250
  550SOL     OW11463   4.081   2.602   2.623  0.9217 -0.1855  0.4483
  550SOL    HW111464   4.142   2.526   2.643 -0.5299 -1.3734  0.4620
  550SOL    HW211465   4.060   2.602   2.525 -1.2687 -1.5245  0.8724
  551SOL     OW11466   4.603   2.588   1.620  0.6578  0.4861  0.4614
  551SOL    HW111467   4.667   2.613   1.548 -1.1677  0.6495 -1.1292
  551SOL    HW211468   4.512   2.572   1.581  0.0451 -1.1830  2.4722
  552SOL     OW11469   2.702   2.421   2.137 -0.2457  0.1290 -0.5685
  552SOL    HW111470   2.653   2.336   2.114 -0.3237  0.0326 -0.0478
  552SOL    HW211471   2.736   2.463   2.053  2.1127 -1.8218 -0.6503
  553SOL     OW11472   2.768   7.609   0.474  0.2310  0.2674 -0.1589
  553SOL    HW111473   2.843   7.591   0.537  0.0077  0.9206  0.2906
  553SOL    HW211474   2.712   7.684   0.509 -1.2494 -0.9214  0.0527
  554SOL     OW11475   2.623   3.508   1.367 -0.0408  0.6173 -0.4314
  554SOL    HW111476   2.575   3.459   1.440 -1.5333  1.1671 -1.0359
  554SOL    HW211477   2.565   3.581   1.332  0.2399 -0.2829 -2.8871
  555SOL     OW11478   3.167   4.526   0.280 -0.4389  0.0435 -0.2082
  555SOL    HW111479   3.255   4.539   0.325 -0.5733 -0.7299  0.2777
  555SOL    HW211480   3.176   4.546   0.182  0.9715 -2.8954 -0.7191
  556SOL     OW11481   3.433   7.766   2.438 -0.4622 -0.6844  0.1105
  556SOL    HW111482   3.395   7.770   2.346 -1.5297  0.8298  0.5893
  556SOL    HW211483   3.425   7.673   2.475 -1.3166 -0.9622 -0.7857
  557SOL     OW11484   3.031   3.440   2.827 -0.3704  0.0530  0.3366
  557SOL    HW111485   2.942   3.409   2.792 -0.2114  0.5236 -0.4925
  557SOL    HW211486   3.018   3.487   2.915 -0.7136 -1.5843  1.1793
  558SOL     OW11487   3.323   5.129   2.416 -0.3296  0.5309 -0.0150
  558SOL    HW111488   3.226   5.117   2.437 -0.7986 -0.5063 -2.7090
  558SOL    HW211489   3.375   5.128   2.502 -2.7411  1.9685  1.5565
  559SOL     OW11490   2.922   7.050   2.011 -0.5170 -0.0463  0.3328
  559SOL    HW111491   2.951   7.108   1.935  0.7902 -0.4121  0.5293
  559SOL    HW211492   2.830   7.075   2.040  0.1057  2.0768  0.5433
  560SOL     OW11493   2.777   6.545   2.109 -0.7114 -0.0778  0.4008
  560SOL    HW111494   2.759   6.471   2.173 -0.7668  1.4333  2.1522
  560SOL    HW211495   2.831   6.616   2.153  0.8707  0.1462 -1.7866
  561SOL     OW11496   2.942   1.615   0.023 -0.4615 -0.5198 -0.4767
  561SOL    HW111497   2.890   1.693  -0.013 -1.6171 -1.2361 -0.3891
  561SOL    HW211498   2.958   1.549  -0.051  1.1309  0.1101 -0.7191
  562SOL     OW11499   4.200   2.660   2.375 -0.3951 -0.4298  0.5651
  562SOL    HW111500   4.151   2.640   2.291  1.7832 -0.0037 -0.8553
  562SOL    HW211501   4.261   2.584   2.396  0.1106  0.0865  0.9726
  563SOL     OW11502   3.985   8.104   0.570  0.2842 -0.2017 -0.1037
  563SOL    HW111503   4.056   8.050   0.524 -1.5432 -1.0530 -2.0114
  563SOL    HW211504   3.982   8.196   0.530 -0.0767 -0.3583 -0.4430
  564SOL     OW11505   3.979   2.917   0.064  0.2593 -0.3038  0.0816
  564SOL    HW111506   4.059   2.904   0.006  0.5310  0.2811  0.3143
  564SOL    HW211507   4.001   2.983   0.136 -0.4507 -0.0925  0.1117
  565SOL     OW11508   3.875   4.620   1.265  0.0612  0.4776  1.0108
  565SOL    HW111509   3.839   4.649   1.353 -0.9490 -1.0257  1.1119
  565SOL    HW211510   3.913   4.699   1.216  1.0846  1.2323  2.9777
  566SOL     OW11511   2.913   0.069   0.098 -1.1924  0.0801  0.1335
  566SOL    HW111512   2.874   0.148   0.051 -2.2014 -0.2883  0.3236
  566SOL    HW211513   2.988   0.031   0.043 -1.8600  0.1099 -0.8207
  567SOL     OW11514   3.293   0.381   0.543 -0.2164  0.7843 -1.0346
  567SOL    HW111515   3.345   0.440   0.605 -0.6410 -0.6241  0.7067
  567SOL    HW211516   3.198   0.377   0.574 -0.5668  0.5147 -2.1331
  568SOL     OW11517   2.947   1.137   1.451  0.5731  0.1527  0.4013
  568SOL    HW111518   2.968   1.233   1.431  0.3550 -0.5230 -3.5461
  568SOL    HW211519   2.858   1.114   1.412  0.5413 -1.6076  1.4656
  569SOL     OW11520   2.605   0.031   1.363  0.1084  0.0882  0.3358
  569SOL    HW111521   2.692  -0.018   1.361 -0.1889 -0.4432  0.1885
  569SOL    HW211522   2.614   0.113   1.420  1.3474  1.2829 -1.5274
  570SOL     OW11523   4.052   8.659   0.056  0.3116  0.2471  0.0111
  570SOL    HW111524   4.129   8.600   0.034  0.5230  0.2163  0.8296
  570SOL    HW211525   3.966   8.608   0.046  0.3754  0.3228 -1.0394
  571SOL     OW11526   2.169   8.231   2.391  0.4526 -0.6270  0.6729
  571SOL    HW111527   2.080   8.270   2.368 -0.0875 -2.2650 -0.0659
  571SOL    HW211528   2.222   8.217   2.307  1.4290  0.3664  1.1064
  572SOL     OW11529   2.435   7.285   2.237 -0.2080 -0.3050  0.2105
  572SOL    HW111530   2.462   7.288   2.141 -2.1574  2.9657 -0.3160
  572SOL    HW211531   2.517   7.290   2.295  1.1497 -4.7500 -1.1995
  573SOL     OW11532   2.772   1.513   0.898 -0.1872  0.1014 -0.1467
  573SOL    HW111533   2.738   1.607   0.897  0.0106  0.1765  0.3013
  573SOL    HW211534   2.861   1.510   0.852 -0.3860  0.0596 -0.5303
  574SOL     OW11535   3.136   9.967   2.734 -0.3818 -0.0111  0.4170
  574SOL    HW111536   3.209   9.909   2.769 -0.2170 -0.1659 -0.1659
  574SOL    HW211537   3.095   9.923   2.653 -0.2066  0.7181 -0.0735
  575SOL     OW11538   4.058   8.427   0.964  0.6775  0.1651 -0.6486
  575SOL    HW111539   3.985   8.359   0.950  1.8779 -0.9763 -1.6092
  575SOL    HW211540   4.056   8.459   1.058 -0.7147 -0.2658 -0.5119
  576SOL     OW11541   2.180   0.101   2.811  0.2075 -0.0825 -0.5167
  576SOL    HW111542   2.224   0.029   2.864  0.6676  1.6440  1.5212
  576SOL    HW211543   2.081   0.094   2.823  0.1439 -1.3240 -1.6211
  577SOL     OW11544   8.278   5.458   2.650 -0.5599 -0.5158  0.4614
  577SOL    HW111545   8.348   5.404   2.603  1.2430  0.9016  1.4164
  577SOL    HW211546   8.226   5.511   2.584 -1.2676 -2.1806 -0.3375
  578SOL     OW11547   2.294   1.323   1.578  0.2677 -0.1253 -0.0482
  578SOL    HW111548   2.201   1.296   1.603 -0.3587  0.0617 -2.1090
  578SOL    HW211549   2.292   1.414   1.536  1.0392 -1.1270 -2.3382
  579SOL     OW11550   2.800   2.063   2.236 -0.1367  0.0910 -0.1743
  579SOL    HW111551   2.752   1.977   2.221  0.0077  0.1088 -0.7167
  579SOL    HW211552   2.781   2.126   2.161 -1.3381  1.0253  0.8822
  580SOL     OW11553   5.308   2.983   1.142  0.1183  0.7900 -0.5957
  580SOL    HW111554   5.327   2.917   1.070  1.1802 -0.7670  1.0557
  580SOL    HW211555   5.214   3.015   1.135 -0.1503 -0.2600 -1.9117
  581SOL     OW11556   3.319   1.089   2.264 -0.5144 -0.5625 -0.9246
  581SOL    HW111557   3.275   1.106   2.175 -0.6826 -0.0777 -0.7531
  581SOL    HW211558   3.309   1.171   2.321 -1.0264 -1.1259 -0.2040
  582SOL     OW11559   2.487   6.239   2.250 -0.0198 -0.5390 -0.5501
  582SOL    HW111560   2.489   6.211   2.346 -1.0026 -0.8341 -0.6096
  582SOL    HW211561   2.578   6.227   2.210  0.2591 -0.9475  0.1944
  583SOL     OW11562   4.091   8.111   1.129  0.3804 -0.1144 -0.0401
  583SOL    HW111563   4.048   8.188   1.081 -0.1795  0.2821  1.0790
  583SOL    HW211564   4.120   8.042   1.062 -0.7731  0.2253 -0.9094
  584SOL     OW11565   3.169   9.707   1.332 -0.6457 -0.6488  0.4014
  584SOL    HW111566   3.184   9.737   1.427 -1.8473 -0.0680  0.4118
  584SOL    HW211567   3.073   9.681   1.320 -0.6951  0.1146 -0.9002
  585SOL     OW11568   3.498   3.315   2.810 -0.2843  0.2576 -0.7432
  585SOL    HW111569   3.399   3.322   2.812 -0.2209  0.9407  0.6984
  585SOL    HW211570   3.536   3.389   2.754 -0.4458  1.8941  1.2697
  586SOL     OW11571   2.652   4.596   2.350 -0.6617 -0.0414 -0.9198
  586SOL    HW111572   2.720   4.550   2.408 -1.8105 -0.0396  0.4668
  586SOL    HW211573   2.683   4.688   2.329 -1.7131  1.1553  2.4830
  587SOL     OW11574   2.597   9.972   1.087  0.1487 -0.3713 -0.5227
  587SOL    HW111575   2.581  10.001   1.181 -0.6743 -0.9063 -0.4948
  587SOL    HW211576   2.691   9.992   1.061  1.3107 -3.0939  1.4482
  588SOL     OW11577   4.254   5.076   0.579 -0.6931  1.0490 -0.4731
  588SOL    HW111578   4.317   5.104   0.651  0.2862 -1.0748 -0.4534
  588SOL    HW211579   4.218   5.156   0.533 -1.2134  2.4298  2.2683
  589SOL     OW11580   2.770   3.362   2.816 -0.0124 -0.4654  0.0930
  589SOL    HW111581   2.722   3.275   2.830 -0.5396 -0.3985 -1.2652
  589SOL    HW211582   2.721   3.416   2.748  1.0149  0.3725  0.0140
  590SOL     OW11583   4.179   9.371   2.708 -0.5704 -0.3954  0.6999
  590SOL    HW111584   4.257   9.429   2.734 -0.5622 -0.5944  1.1180
  590SOL    HW211585   4.094   9.423   2.716 -0.5475 -0.3922  0.9108
  591SOL     OW11586   5.059   1.564   2.613 -0.7550 -0.1334 -0.6976
  591SOL    HW111587   5.025   1.656   2.633 -0.9960  0.0296 -1.8110
  591SOL    HW211588   5.072   1.555   2.514  0.2417 -0.9562 -0.4974
  592SOL     OW11589   3.260   1.288   0.217  0.3133  0.5461  0.2176
  592SOL    HW111590   3.276   1.376   0.173 -0.1489  0.7307  0.4144
  592SOL    HW211591   3.298   1.215   0.161 -0.3114  0.7751 -0.5163
  593SOL     OW11592   2.847   7.143   0.971 -0.0276 -0.5206  0.4013
  593SOL    HW111593   2.775   7.082   1.007 -1.6824  0.7516 -0.6679
  593SOL    HW211594   2.852   7.225   1.028 -0.0332 -0.2103 -0.0453
  594SOL     OW11595   4.762   1.668   0.346  0.5248 -0.9025  0.0960
  594SOL    HW111596   4.728   1.756   0.379  1.0777 -0.1404 -1.3191
  594SOL    HW211597   4.708   1.594   0.386 -1.1477  0.1623 -0.1358
  595SOL     OW11598   3.301   3.021   1.848 -0.1506  0.2206 -0.0195
  595SOL    HW111599   3.278   2.979   1.936  0.5588  1.5159  0.8000
  595SOL    HW211600   3.367   2.963   1.800  1.1807  0.6028  1.3061
  596SOL     OW11601   3.395   3.543   0.630 -0.1157  0.3572 -0.2397
  596SOL    HW111602   3.355   3.564   0.541 -0.9985 -3.6044 -0.8653
  596SOL    HW211603   3.322   3.525   0.696  0.5613 -0.6811  0.2404
  597SOL     OW11604   3.751   1.690   1.003 -0.2806  0.3504  0.2248
  597SOL    HW111605   3.803   1.673   1.087 -1.6039 -0.6417  0.8537
  597SOL    HW211606   3.775   1.781   0.967  2.2938 -0.3016  0.1893
  598SOL     OW11607   4.190   4.169   1.845  0.6596 -0.0477  0.0933
  598SOL    HW111608   4.190   4.269   1.844 -2.3112  0.0283  1.7518
  598SOL    HW211609   4.099   4.136   1.823  1.2816 -2.3658  0.8853
  599SOL     OW11610   4.636   4.998   0.600 -0.5597  0.7091  0.3497
  599SOL    HW111611   4.728   4.958   0.600 -0.3481  1.1949  0.3187
  599SOL    HW211612   4.581   4.955   0.528 -0.1825  0.8132 -0.0065
  600SOL     OW11613   3.035   9.781   0.809 -0.9057 -0.4392 -0.0460
  600SOL    HW111614   3.099   9.782   0.732 -2.9238  1.9342 -1.8205
  600SOL    HW211615   3.006   9.687   0.828  0.0016 -1.1091 -1.8971
  601SOL     OW11616   4.378   2.763   0.955  0.2829 -0.0636 -0.1520
  601SOL    HW111617   4.428   2.734   0.873  0.1655 -0.2705 -0.1496
  601SOL    HW211618   4.288   2.718   0.957 -0.1819  0.8414 -0.5185
  602SOL     OW11619   4.261   2.326   1.856 -0.4372 -0.0559 -0.4775
  602SOL    HW111620   4.245   2.257   1.786  1.8318  0.1331 -1.2133
  602SOL    HW211621   4.314   2.286   1.931 -1.2846  0.2230  0.2766
  603SOL     OW11622   2.946   0.282   1.088 -0.0913 -0.5979 -0.2770
  603SOL    HW111623   3.029   0.296   1.033  0.3382 -1.4182  0.1568
  603SOL    HW211624   2.871   0.256   1.028 -0.5519  2.0408 -0.9368
  604SOL     OW11625   3.943   3.300   1.491 -0.7697 -0.2218  0.4501
  604SOL    HW111626   4.038   3.326   1.475 -0.9032 -0.8485 -1.4645
  604SOL    HW211627   3.937   3.242   1.572  0.7626 -1.8967 -0.6083
  605SOL     OW11628   3.187   4.748   1.218 -0.3005 -0.5811 -0.6018
  605SOL    HW111629   3.123   4.672   1.210  1.3339 -2.3813  2.7212
  605SOL    HW211630   3.170   4.798   1.303  1.5544 -0.0136 -0.5296
  606SOL     OW11631   2.532   2.636   2.626  0.0306  0.3121 -0.0393
  606SOL    HW111632   2.533   2.678   2.717  2.8410 -1.8183  1.0142
  606SOL    HW211633   2.626   2.629   2.592 -0.6072 -2.5158 -1.3574
  607SOL     OW11634   2.265   6.827   2.045  0.4824 -0.2274  0.3691
  607SOL    HW111635   2.336   6.779   2.097  0.5494 -0.3953  0.1275
  607SOL    HW211636   2.205   6.876   2.107  0.4006 -0.6453  0.6189
  608SOL     OW11637   3.280   3.612   0.393  0.2981  0.1906 -0.3050
  608SOL    HW111638   3.271   3.699   0.343 -1.0515  1.2514  1.7055
  608SOL    HW211639   3.327   3.546   0.336  0.1072  1.8177 -2.4232
  609SOL     OW11640   3.110   3.599   1.568 -0.8673  0.0967 -0.3972
  609SOL    HW111641   3.166   3.520   1.545 -1.3410 -0.8462  1.6365
  609SOL    HW211642   3.025   3.597   1.515 -1.4177 -1.4100  0.5285
  610SOL     OW11643   3.083   1.010   1.623  0.0582 -0.3398 -0.7396
  610SOL    HW111644   3.023   0.954   1.681  0.4687  2.3650  2.4558
  610SOL    HW211645   3.027   1.068   1.564 -0.4965  0.5735  0.6524
  611SOL     OW11646   2.342   4.032   0.346 -0.8603 -0.8470  0.0156
  611SOL    HW111647   2.374   4.112   0.397  0.6694 -0.6795 -1.1681
  611SOL    HW211648   2.404   3.955   0.362 -1.2472 -1.2450 -0.3763
  612SOL     OW11649   1.981   2.302   0.606  0.0738 -0.2566 -0.0042
  612SOL    HW111650   1.977   2.250   0.520  0.4259 -0.7124  0.2510
  612SOL    HW211651   2.061   2.274   0.658  0.7984  1.2467 -0.2968
  613SOL     OW11652   3.525   2.888   1.631 -0.0451  0.4751  0.1832
  613SOL    HW111653   3.473   2.806   1.607  2.0758 -0.4939 -1.3120
  613SOL    HW211654   3.486   2.967   1.584 -0.5639 -0.1332 -0.4275
  614SOL     OW11655   4.241   2.008   0.815 -0.0209 -0.1727  0.0493
  614SOL    HW111656   4.162   1.979   0.760  1.0777 -1.5599 -0.8320
  614SOL    HW211657   4.308   2.052   0.756  1.1417 -1.6161  0.2687
  615SOL     OW11658   2.171   9.824   2.490  0.0561 -0.2149 -0.1919
  615SOL    HW111659   2.124   9.809   2.403 -1.6224  1.4585  0.3932
  615SOL    HW211660   2.270   9.816   2.477 -0.3316 -4.5783 -1.3108
  616SOL     OW11661   4.030   0.624   1.861 -0.1155 -0.2983 -0.0055
  616SOL    HW111662   4.081   0.605   1.945 -1.5061 -0.7715  0.7431
  616SOL    HW211663   4.006   0.538   1.816  1.4765 -0.0255 -1.4246
  617SOL     OW11664   4.115   0.530   0.536  0.4626 -0.6692  0.3054
  617SOL    HW111665   4.134   0.434   0.515 -1.0176 -0.6818 -1.0683
  617SOL    HW211666   4.086   0.577   0.453  2.0037  1.2004  0.7739
  618SOL     OW11667   2.919   1.700   2.210  0.3487  0.0884  0.4137
  618SOL    HW111668   2.912   1.702   2.310  3.4239  1.1378  0.6385
  618SOL    HW211669   2.964   1.783   2.178 -0.3955 -0.3439 -1.8524
  619SOL     OW11670   3.331   8.082   1.435  0.1598  0.1166  0.0675
  619SOL    HW111671   3.415   8.131   1.459  0.7805  0.3195 -2.4513
  619SOL    HW211672   3.349   7.983   1.433  0.0762  0.0899  0.5127
  620SOL     OW11673   2.771   0.810   0.374 -0.0907 -0.4437  0.0938
  620SOL    HW111674   2.729   0.786   0.462 -1.5153 -0.0904 -0.4812
  620SOL    HW211675   2.827   0.891   0.385  0.8447 -1.1998  0.9803
  621SOL     OW11676   3.988   1.984   0.987  0.3369  0.3212 -0.1274
  621SOL    HW111677   3.994   1.897   0.938 -1.1895  0.1818 -0.0828
  621SOL    HW211678   3.940   2.051   0.930  1.2502  1.0653 -0.0472
  622SOL     OW11679   3.732   8.330   2.110 -0.5659  0.0387  0.6421
  622SOL    HW111680   3.675   8.411   2.125 -0.7105 -0.1836  1.2925
  622SOL    HW211681   3.738   8.277   2.194  0.8779  0.2395  0.6854
  623SOL     OW11682   2.422   2.770   2.200 -0.0264 -0.3435 -0.0734
  623SOL    HW111683   2.425   2.837   2.274 -1.7549  0.0211 -0.3025
  623SOL    HW211684   2.448   2.680   2.235  1.7790  0.3264  0.3548
  624SOL     OW11685   3.734   2.280   1.130 -0.3810  0.2343 -0.2574
  624SOL    HW111686   3.673   2.324   1.197  1.4128  1.2134  0.7597
  624SOL    HW211687   3.798   2.347   1.094  0.8093 -1.0264 -0.5121
  625SOL     OW11688   3.408   9.938   2.270 -0.3330  0.0504  0.1694
  625SOL    HW111689   3.426   9.927   2.367 -1.3060  1.3047  0.5090
  625SOL    HW211690   3.332  10.002   2.257  0.9742  1.3365 -1.4495
  626SOL     OW11691   2.300   2.347   1.770 -0.4749  0.3558 -0.0344
  626SOL    HW111692   2.229   2.401   1.724 -1.6444 -1.6926 -0.6679
  626SOL    HW211693   2.360   2.409   1.821 -0.8585  2.3992 -1.9876
  627SOL     OW11694   4.269   1.194   0.142  0.3428 -0.2783 -0.2033
  627SOL    HW111695   4.328   1.264   0.103 -0.1697  0.5185  0.4324
  627SOL    HW211696   4.325   1.123   0.185  0.8495  0.3836  0.2367
  628SOL     OW11697   3.207   9.210   0.664  0.1296 -0.5791 -0.8731
  628SOL    HW111698   3.238   9.210   0.569 -0.7536  0.0448 -1.1675
  628SOL    HW211699   3.285   9.219   0.725  0.6239 -0.1737 -1.5636
  629SOL     OW11700   3.189   8.038   2.292  0.0782 -0.0110  0.0961
  629SOL    HW111701   3.199   8.003   2.386 -0.9184  0.5306  0.4106
  629SOL    HW211702   3.094   8.065   2.277  0.9351  3.0637  0.0273
  630SOL     OW11703   3.015   6.370   0.839  0.4711 -0.0708 -0.3225
  630SOL    HW111704   2.973   6.339   0.754  1.7916  0.9279 -1.3542
  630SOL    HW211705   3.036   6.291   0.896 -0.0445 -0.7749 -1.0949
  631SOL     OW11706   4.043   4.417   1.347 -0.0570 -0.0901 -0.2737
  631SOL    HW111707   4.110   4.453   1.283 -0.7685  0.7601 -0.5513
  631SOL    HW211708   3.962   4.476   1.347 -0.7292 -1.0034  0.1869
  632SOL     OW11709   3.739   2.159   1.684  0.6270  0.1849  0.0116
  632SOL    HW111710   3.772   2.089   1.620  0.8908  0.6517 -0.3693
  632SOL    HW211711   3.791   2.244   1.670 -1.3116  1.2071 -1.1932
  633SOL     OW11712   4.139   7.980   0.358  0.2590 -0.5468 -0.2942
  633SOL    HW111713   4.083   7.898   0.370 -1.1350  0.0999 -2.1417
  633SOL    HW211714   4.169   7.986   0.263  0.0775  1.2418 -0.2507
  634SOL     OW11715   4.431   2.343   2.400  0.0239  0.1255 -0.2817
  634SOL    HW111716   4.360   2.274   2.411 -0.3508  0.9826  3.1152
  634SOL    HW211717   4.492   2.316   2.326 -1.9884 -2.1962 -1.1705
  635SOL     OW11718   4.731   2.386   1.273 -0.3057 -0.1631  0.1369
  635SOL    HW111719   4.635   2.375   1.301 -0.3284 -1.1049 -0.2881
  635SOL    HW211720   4.779   2.440   1.342 -0.6641 -1.3822  1.3796
  636SOL     OW11721   3.161   9.911   0.352  0.4431 -0.6600 -0.3679
  636SOL    HW111722   3.094   9.844   0.320 -1.0361  0.8256 -0.4625
  636SOL    HW211723   3.113   9.991   0.388  2.1381 -0.5119  1.6592
  637SOL     OW11724   3.123   3.013   2.096 -0.1278  0.2192  0.1365
  637SOL    HW111725   3.078   2.984   2.012  1.9220 -1.9348 -0.3010
  637SOL    HW211726   3.076   2.973   2.175 -0.8217  0.5380 -0.1136
  638SOL     OW11727   3.406   2.079   0.953 -0.6596  0.3152 -0.1950
  638SOL    HW111728   3.477   2.147   0.975 -1.0254  0.4222  0.6652
  638SOL    HW211729   3.321   2.127   0.930 -0.1675  0.2219 -2.3172
  639SOL     OW11730   3.558   3.096   0.739 -0.5729  0.5862  0.2865
  639SOL    HW111731   3.551   3.050   0.828 -1.0400  0.8894  0.4100
  639SOL    HW211732   3.522   3.037   0.668  1.8089 -0.5373 -0.0137
  640SOL     OW11733   2.483   5.403   0.402 -0.2693  0.5195 -0.1968
  640SOL    HW111734   2.485   5.487   0.347  0.4457  1.3345  1.0541
  640SOL    HW211735   2.515   5.423   0.495 -0.4371 -1.0689  0.2161
  641SOL     OW11736   3.325   8.067   1.764  0.1355  0.3777  0.4081
  641SOL    HW111737   3.363   8.052   1.673  0.1801  0.3247  0.4352
  641SOL    HW211738   3.321   8.166   1.783  0.2868  0.3827  0.4166
  642SOL     OW11739   3.811   3.672   2.706 -0.4427  0.0164  0.1345
  642SOL    HW111740   3.874   3.693   2.781 -0.3109 -0.1496  0.0695
  642SOL    HW211741   3.863   3.639   2.627 -0.6493 -0.5114  0.2193
  643SOL     OW11742   2.968   5.049   1.644  0.3074  0.4733  0.2463
  643SOL    HW111743   3.045   4.986   1.634 -0.0116  0.5207 -3.1496
  643SOL    HW211744   2.907   5.016   1.717  1.3389 -1.8854  0.1032
  644SOL     OW11745   2.705   6.630   2.794 -0.5700  0.2506 -0.3094
  644SOL    HW111746   2.716   6.534   2.771 -2.1391 -0.0864  0.2312
  644SOL    HW211747   2.621   6.665   2.752 -0.8766  0.9224  0.8206
  645SOL     OW11748   4.137   1.122   2.638 -0.6537 -0.2369 -0.2778
  645SOL    HW111749   4.221   1.085   2.677 -0.8042 -0.7219 -0.4189
  645SOL    HW211750   4.067   1.050   2.632 -0.8782  0.0145 -0.7361
  646SOL     OW11751   3.044   0.659   0.092  0.4496  0.0363 -0.1374
  646SOL    HW111752   3.016   0.742   0.140 -0.3797 -0.4050  0.1506
  646SOL    HW211753   3.114   0.612   0.147  0.5262  0.2562 -0.0426
  647SOL     OW11754   3.659   5.508   1.192  0.0882  0.1297  0.0218
  647SOL    HW111755   3.712   5.513   1.107 -1.1811 -1.2598 -0.8708
  647SOL    HW211756   3.601   5.589   1.200 -1.3073 -0.7036 -1.4723
  648SOL     OW11757   3.806   5.637   0.622 -0.9057 -0.0154  0.3817
  648SOL    HW111758   3.746   5.616   0.544 -1.7586  1.3398  0.6473
  648SOL    HW211759   3.897   5.660   0.588 -1.4263  1.1521 -0.2968
  649SOL     OW11760   2.625   5.530   2.069 -0.6638 -0.5557 -0.2169
  649SOL    HW111761   2.552   5.494   2.011 -0.4455 -2.4806  0.6438
  649SOL    HW211762   2.596   5.617   2.108 -1.7912 -0.4392 -1.2791
  650SOL     OW11763   2.470   1.895   1.847  0.0539 -0.3511 -0.0106
  650SOL    HW111764   2.452   1.822   1.781 -0.6813 -0.1579 -0.0248
  650SOL    HW211765   2.419   1.977   1.821  0.5329  0.0359  0.2504
  651SOL     OW11766   4.338   8.991   2.052 -0.1862  0.3775 -0.0832
  651SOL    HW111767   4.435   8.975   2.034 -0.2668  0.4861 -0.6181
  651SOL    HW211768   4.319   9.089   2.044 -0.1395  0.4749  0.9956
  652SOL     OW11769   2.635   1.320   1.031  0.0067  0.2662  0.0460
  652SOL    HW111770   2.637   1.345   1.128 -1.4762  1.8870 -0.3168
  652SOL    HW211771   2.699   1.378   0.980  1.3210 -1.0675  0.1340
  653SOL     OW11772   3.250   1.527   2.183  0.1488  0.2253 -0.2554
  653SOL    HW111773   3.231   1.544   2.086 -1.6971 -1.6517 -0.2538
  653SOL    HW211774   3.237   1.430   2.203 -1.3390  0.9049  2.2767
  654SOL     OW11775   4.275   2.552   0.138 -0.4924 -0.5150  0.0977
  654SOL    HW111776   4.345   2.600   0.084  1.7478 -2.4066  1.2513
  654SOL    HW211777   4.216   2.499   0.076  2.2644 -2.9543 -0.5490
  655SOL     OW11778   2.809   7.703   1.759  0.2214 -0.1454  0.0035
  655SOL    HW111779   2.757   7.769   1.812  0.5771 -0.1006  0.2990
  655SOL    HW211780   2.776   7.702   1.664  1.2113  1.5450 -0.3818
  656SOL     OW11781   2.967   7.490   2.788  0.2569  0.3140  0.1111
  656SOL    HW111782   2.993   7.397   2.766 -0.5694 -0.5082  2.4190
  656SOL    HW211783   2.868   7.497   2.795  0.2998  1.3984 -0.1517
  657SOL     OW11784   5.125   1.415   0.007 -0.5055  0.2670 -0.2980
  657SOL    HW111785   5.098   1.463  -0.076 -1.2267 -1.0525 -0.8309
  657SOL    HW211786   5.067   1.445   0.083 -0.8628  0.3338 -0.5984
  658SOL     OW11787   2.746   3.665   0.741 -0.6368 -0.0523  0.3329
  658SOL    HW111788   2.794   3.594   0.689  0.4390  0.8898  0.0121
  658SOL    HW211789   2.766   3.755   0.701  0.0852  0.6810  2.2488
  659SOL     OW11790   2.873   5.319   0.982  0.0917 -0.3357  0.3033
  659SOL    HW111791   2.954   5.356   0.936 -0.5936  0.5544 -0.1925
  659SOL    HW211792   2.867   5.359   1.074  0.0107 -0.1260  0.2064
  660SOL     OW11793   3.304   3.145   0.246  0.0755  0.1528  0.4438
  660SOL    HW111794   3.334   3.241   0.245 -0.5959  0.3665  0.6869
  660SOL    HW211795   3.216   3.137   0.199 -0.9215  0.0120  2.3001
  661SOL     OW11796   3.713   4.387   1.483 -0.0100 -0.0158  0.0803
  661SOL    HW111797   3.678   4.466   1.534 -2.1999 -0.4716 -0.6568
  661SOL    HW211798   3.646   4.359   1.414  1.1967 -1.8632 -0.3896
  662SOL     OW11799   2.937   8.644   0.683 -0.4448 -0.1802 -0.3527
  662SOL    HW111800   3.018   8.689   0.720 -0.4757  0.3391 -0.9244
  662SOL    HW211801   2.894   8.590   0.755  0.1782 -0.1321  0.0597
  663SOL     OW11802   2.618   8.977   0.685 -0.1023 -0.3246  0.1542
  663SOL    HW111803   2.628   9.000   0.588  0.5719 -0.1799  0.2509
  663SOL    HW211804   2.696   9.015   0.736 -0.0172 -1.1090  0.6220
  664SOL     OW11805   3.759   3.001   2.761  0.5079  0.4474 -0.1285
  664SOL    HW111806   3.826   2.960   2.823  1.0543 -0.6857 -1.4538
  664SOL    HW211807   3.681   3.033   2.814  0.8207 -0.8097  1.1244
  665SOL     OW11808   2.390   1.768   2.825 -0.0197  0.1065  0.5389
  665SOL    HW111809   2.363   1.864   2.838 -2.6624 -0.4333 -0.6573
  665SOL    HW211810   2.333   1.727   2.754  0.1090 -2.7663  2.0360
  666SOL     OW11811   2.622   3.997   2.464 -0.7382 -0.3738 -0.3127
  666SOL    HW111812   2.678   3.949   2.531 -0.5633 -1.0338 -0.9294
  666SOL    HW211813   2.542   4.037   2.511 -0.0010  0.1885  0.4805
  667SOL     OW11814   3.256   1.574   1.919  0.0854  0.0807  0.1546
  667SOL    HW111815   3.197   1.646   1.883  0.5011  1.0595  1.3824
  667SOL    HW211816   3.343   1.575   1.871 -1.1699 -1.9693 -2.3031
  668SOL     OW11817   3.683   4.854   1.711  0.7964  0.5906  0.4485
  668SOL    HW111818   3.634   4.893   1.790 -0.6438  0.0847 -0.1668
  668SOL    HW211819   3.674   4.917   1.634  0.4080  0.1017  0.0961
  669SOL     OW11820   3.235   5.185   2.114  0.1078  0.4964  0.4247
  669SOL    HW111821   3.264   5.268   2.161  2.3697 -0.2992  0.4575
  669SOL    HW211822   3.250   5.106   2.174  0.1890 -0.1946 -0.5051
  670SOL     OW11823   2.245   8.448   0.273 -0.4566 -0.3822  0.8468
  670SOL    HW111824   2.215   8.498   0.192 -0.4617 -2.0266 -0.1870
  670SOL    HW211825   2.342   8.465   0.288 -0.4051 -0.2423  0.3810
  671SOL     OW11826   2.470   7.803   1.849  0.1770  0.3350 -0.1870
  671SOL    HW111827   2.387   7.813   1.903  1.1041  0.4397  1.2642
  671SOL    HW211828   2.541   7.865   1.885  0.6515  0.7862 -1.8598
  672SOL     OW11829   2.629   2.175   2.048 -0.6589 -0.1102 -0.0293
  672SOL    HW111830   2.609   2.204   1.955 -1.8402  0.1628  0.2989
  672SOL    HW211831   2.562   2.107   2.077  0.0421 -0.6130  0.4171
  673SOL     OW11832   4.060   0.487   1.269  0.4312 -0.4473 -0.0447
  673SOL    HW111833   3.974   0.492   1.320  0.6370  0.2281  0.2465
  673SOL    HW211834   4.076   0.574   1.222  2.5624  0.6693  2.5916
  674SOL     OW11835   4.360   8.165   0.391 -0.3740  0.0574  0.0613
  674SOL    HW111836   4.288   8.096   0.386 -1.5959  1.3597 -0.2886
  674SOL    HW211837   4.442   8.123   0.431 -0.8958 -1.7562 -0.7190
  675SOL     OW11838   3.590   9.140   2.814  0.3842 -0.1146 -0.1454
  675SOL    HW111839   3.667   9.077   2.802  1.5254  0.9584  1.2710
  675SOL    HW211840   3.508   9.089   2.837  0.4543 -1.3460 -2.4883
  676SOL     OW11841   4.342   1.936   0.487 -0.5039 -0.7970  0.2612
  676SOL    HW111842   4.371   1.936   0.583  1.7400  2.4690 -0.3206
  676SOL    HW211843   4.243   1.941   0.482 -0.5768  1.1082  2.4966
  677SOL     OW11844   3.844   9.846   1.463 -0.3266 -0.1094 -0.3778
  677SOL    HW111845   3.923   9.887   1.507  1.1922 -0.1792 -2.9330
  677SOL    HW211846   3.790   9.918   1.418 -1.0320 -0.2047  0.3120
  678SOL     OW11847   4.961   3.518   1.896 -0.2572  0.0026  0.1795
  678SOL    HW111848   5.059   3.513   1.916 -0.2008 -0.3685 -0.1926
  678SOL    HW211849   4.919   3.429   1.914 -0.4333  0.0183 -0.1511
  679SOL     OW11850   3.875   3.064   0.846  0.6744  0.0202  0.2740
  679SOL    HW111851   3.786   3.090   0.810  0.7913  1.4510  1.0163
  679SOL    HW211852   3.919   3.000   0.781 -1.2199 -1.3915  0.3277
  680SOL     OW11853   3.598   2.367   0.044 -0.1954  1.0820  0.5948
  680SOL    HW111854   3.503   2.399   0.050 -0.3662  0.6983 -0.0477
  680SOL    HW211855   3.642   2.409  -0.036 -0.2256  0.2082  0.1224
  681SOL     OW11856   2.568   3.290   0.308  0.6252 -0.1951 -0.0830
  681SOL    HW111857   2.544   3.275   0.403 -2.3894  3.5830 -0.0957
  681SOL    HW211858   2.634   3.365   0.302  1.7905 -1.2669 -0.9237
  682SOL     OW11859   5.106   2.875   0.781 -0.0626  0.3696 -0.1543
  682SOL    HW111860   5.031   2.877   0.846  0.5253  1.0628  0.5092
  682SOL    HW211861   5.072   2.899   0.690 -0.9134 -0.7643 -0.1517
  683SOL     OW11862   2.668   8.034   2.581  0.0314  0.1423  0.1818
  683SOL    HW111863   2.707   7.985   2.658 -1.0854  1.6826  1.7540
  683SOL    HW211864   2.582   7.989   2.553 -1.6867  1.8849  2.4707
  684SOL     OW11865   3.191   1.312   2.645 -0.4224  0.0663  0.4296
  684SOL    HW111866   3.154   1.396   2.606 -1.2221 -1.2357 -1.7267
  684SOL    HW211867   3.135   1.284   2.723 -0.3263  1.3521  0.9746
  685SOL     OW11868   4.600   1.480   0.422 -0.2595 -0.2202 -0.4956
  685SOL    HW111869   4.536   1.422   0.473  0.1399 -0.2568 -0.0326
  685SOL    HW211870   4.612   1.443   0.330 -0.3402 -0.6287 -0.3431
  686SOL     OW11871   3.896   9.244   2.576  0.5274  0.2327  0.0841
  686SOL    HW111872   3.956   9.177   2.620  1.3573 -0.0511 -1.4547
  686SOL    HW211873   3.856   9.205   2.493  0.0863  1.2384 -0.1891
  687SOL     OW11874   2.484   4.911   0.807 -0.2156  0.2378 -0.2115
  687SOL    HW111875   2.483   4.962   0.893  1.4527 -0.6972  0.3862
  687SOL    HW211876   2.391   4.907   0.769 -0.4140  3.4351 -0.1370
  688SOL     OW11877   4.056   1.597   2.061  0.3221 -0.2508  0.1430
  688SOL    HW111878   4.002   1.650   2.126 -0.3881 -1.2308  0.3608
  688SOL    HW211879   4.070   1.505   2.096 -2.1829 -1.5711 -2.1606
  689SOL     OW11880   3.448   2.459   2.038 -0.4181 -0.6925  0.0509
  689SOL    HW111881   3.453   2.372   2.086 -1.7748 -2.1741 -2.3373
  689SOL    HW211882   3.353   2.489   2.035 -0.1458  0.1309 -0.3853
  690SOL     OW11883   2.247   2.670   0.057 -0.1155 -0.3926 -0.2848
  690SOL    HW111884   2.312   2.741   0.029 -0.4860 -0.2563 -0.7984
  690SOL    HW211885   2.243   2.598  -0.012  1.1252 -1.5094  0.7818
  691SOL     OW11886   2.210   2.285   0.972  0.2072 -0.5852  0.1779
  691SOL    HW111887   2.297   2.272   0.923 -0.7365 -3.3345 -0.8727
  691SOL    HW211888   2.180   2.379   0.962  3.7630  0.8441  1.7545
  692SOL     OW11889   2.756   9.855   2.122  0.0449 -0.4049 -1.4554
  692SOL    HW111890   2.824   9.904   2.067  0.4166 -0.3868 -0.9797
  692SOL    HW211891   2.743   9.902   2.209 -0.6618 -0.3452 -1.5838
  693SOL     OW11892   2.750   7.661   2.323 -0.3890  0.1765 -0.4874
  693SOL    HW111893   2.784   7.751   2.352  0.5652 -0.2794 -0.1771
  693SOL    HW211894   2.671   7.636   2.379  1.1945 -0.5291  1.4983
  694SOL     OW11895   4.796   2.565   2.637 -0.0617 -0.3701  0.0708
  694SOL    HW111896   4.812   2.505   2.715  0.4907  0.2594  0.4489
  694SOL    HW211897   4.827   2.657   2.659 -3.0876  0.6242  0.3549
  695SOL     OW11898   3.088   1.047   2.831  0.6426 -0.7337 -0.3990
  695SOL    HW111899   3.050   1.139   2.844 -2.1574 -1.9205  0.2362
  695SOL    HW211900   3.088   1.026   2.733  0.6068 -0.3100 -0.4929
  696SOL     OW11901   2.444   0.260   2.797  0.1529  0.0860 -0.1054
  696SOL    HW111902   2.350   0.253   2.828  0.0619  0.9797 -0.1871
  696SOL    HW211903   2.501   0.299   2.869  0.6834 -1.5130  0.3631
  697SOL     OW11904   2.622   1.731   2.502  0.7231 -0.0862  0.8920
  697SOL    HW111905   2.648   1.789   2.580 -0.9603  2.3456 -0.2938
  697SOL    HW211906   2.537   1.684   2.523  0.6248  0.0406  0.7749
  698SOL     OW11907   3.181   3.527   1.964 -0.1278 -0.4254 -0.4647
  698SOL    HW111908   3.165   3.445   2.019 -0.4849  0.6738  1.1294
  698SOL    HW211909   3.105   3.540   1.900 -0.0217 -1.3829 -0.7913
  699SOL     OW11910   2.350   4.103   0.646  0.0217  0.1042 -0.4390
  699SOL    HW111911   2.298   4.040   0.589 -0.8012  0.9488 -0.6473
  699SOL    HW211912   2.390   4.054   0.723  0.9970 -1.0090 -1.6393
  700SOL     OW11913   3.918   4.154   0.462  0.4114 -0.3565 -0.5320
  700SOL    HW111914   3.910   4.108   0.374 -2.5153 -0.8326 -0.0646
  700SOL    HW211915   3.885   4.094   0.534  0.7371  0.8429  0.6433
  701SOL     OW11916   2.734   6.828   1.287 -0.0020 -0.2274 -0.5135
  701SOL    HW111917   2.767   6.917   1.319 -1.8666  1.4517 -3.0565
  701SOL    HW211918   2.806   6.759   1.300  1.0236  1.3548  2.6133
  702SOL     OW11919   3.686   0.563   0.054  1.0043  0.2040  0.3955
  702SOL    HW111920   3.593   0.540   0.024  1.9367 -3.2814  0.0411
  702SOL    HW211921   3.698   0.536   0.149  1.8190  0.1445  0.2749
  703SOL     OW11922   2.412   8.234   1.883 -0.1526  0.9852  0.1094
  703SOL    HW111923   2.431   8.325   1.921  0.1943  1.5569 -1.4023
  703SOL    HW211924   2.495   8.179   1.884  0.2955  1.6224 -1.4872
  704SOL     OW11925   3.418   0.854   2.180  0.3588  0.2167  0.3903
  704SOL    HW111926   3.395   0.949   2.201 -0.7388  0.4424 -1.7045
  704SOL    HW211927   3.490   0.852   2.110  0.7849 -0.4925  0.8427
  705SOL     OW11928   2.861   4.028   1.046  0.1717  0.7381 -0.7553
  705SOL    HW111929   2.939   4.013   0.986  2.0114 -0.1756  1.8040
  705SOL    HW211930   2.806   3.945   1.051 -0.8592  1.2907 -2.3227
  706SOL     OW11931   3.381   0.937   1.876 -0.1375 -0.2753  0.0030
  706SOL    HW111932   3.325   1.017   1.898  0.9430  0.7400 -0.8797
  706SOL    HW211933   3.321   0.858   1.859 -1.4288  1.1143 -2.2875
  707SOL     OW11934   4.396   4.729   0.700 -0.5124 -0.5486  0.0162
  707SOL    HW111935   4.403   4.788   0.620 -4.2581  0.2326  0.1658
  707SOL    HW211936   4.409   4.783   0.783  0.1135 -0.7245  0.0331
  708SOL     OW11937   2.589   3.869   1.813 -0.7382 -0.0894  0.5558
  708SOL    HW111938   2.635   3.953   1.784 -1.0309 -0.5154 -1.1731
  708SOL    HW211939   2.493   3.887   1.831 -1.0340 -0.2694 -0.8361
  709SOL     OW11940   3.941   2.685   1.673 -0.4802 -0.1497 -0.2239
  709SOL    HW111941   3.886   2.686   1.757 -0.1343 -1.7827  0.0261
  709SOL    HW211942   3.892   2.734   1.601 -0.7531  1.3356  0.9311
  710SOL     OW11943   2.928   1.066   0.414  0.2225 -0.1239  0.0899
  710SOL    HW111944   2.972   1.012   0.344  0.8392 -0.1623  0.5054
  710SOL    HW211945   2.963   1.159   0.413  2.2233 -0.8118  2.1045
  711SOL     OW11946   3.696   2.175   2.151  0.3474  0.1468 -0.1989
  711SOL    HW111947   3.614   2.203   2.203 -0.3022 -0.9326 -0.6152
  711SOL    HW211948   3.673   2.168   2.054  1.2881  1.1064 -0.5048
  712SOL     OW11949   4.329   0.596   0.725  0.2573 -0.2145  0.0360
  712SOL    HW111950   4.417   0.550   0.730 -0.7600 -2.1680  0.4810
  712SOL    HW211951   4.284   0.573   0.639  0.1185  0.6877 -0.1413
  713SOL     OW11952   3.641   2.749   1.125  0.5006 -0.2274 -0.1542
  713SOL    HW111953   3.723   2.789   1.166  0.9860 -0.4882 -0.8427
  713SOL    HW211954   3.564   2.759   1.187  1.2506 -0.7547  0.8817
  714SOL     OW11955   4.000   8.774   1.384  0.0185  0.0173 -0.6144
  714SOL    HW111956   4.061   8.700   1.411  0.5267  0.2118 -1.1995
  714SOL    HW211957   4.012   8.852   1.444 -1.3397 -0.7680  0.7169
  715SOL     OW11958   3.418   9.963   1.889 -0.5907 -0.1406  0.4056
  715SOL    HW111959   3.347   9.902   1.922  0.3529 -0.6007  1.6439
  715SOL    HW211960   3.490   9.971   1.958 -0.2028  1.5586 -0.1577
  716SOL     OW11961   2.306   3.675   0.329 -0.3394  0.1104  0.5510
  716SOL    HW111962   2.395   3.720   0.326 -1.1550  1.7642  0.5194
  716SOL    HW211963   2.234   3.744   0.318 -1.5802 -1.3612 -0.8159
  717SOL     OW11964   4.551   1.678   2.432  0.0992 -0.3536  0.1937
  717SOL    HW111965   4.589   1.601   2.483 -0.3728 -0.9031 -0.2632
  717SOL    HW211966   4.455   1.690   2.457 -0.2397 -0.8710 -0.8397
  718SOL     OW11967   2.959   4.257   1.153  0.4175  0.1582  0.2353
  718SOL    HW111968   2.897   4.180   1.137  1.5148 -1.0938  1.8245
  718SOL    HW211969   3.053   4.223   1.162  1.1483  1.8690 -0.6738
  719SOL     OW11970   2.441   6.966   1.872 -0.2906 -0.2825 -0.2757
  719SOL    HW111971   2.505   6.906   1.824 -1.3711 -1.0539 -0.7726
  719SOL    HW211972   2.375   6.910   1.923  0.5256  0.5237  1.6959
  720SOL     OW11973   2.460   3.815   2.669 -0.1521 -0.3353  0.1158
  720SOL    HW111974   2.432   3.908   2.646 -0.0783 -0.4432 -0.4079
  720SOL    HW211975   2.456   3.757   2.587 -1.0417 -0.9965  0.6150
  721SOL     OW11976   4.029   3.102   1.695 -0.4381 -0.1799 -0.3631
  721SOL    HW111977   4.055   3.043   1.619  0.5994  0.5099 -0.5386
  721SOL    HW211978   4.098   3.097   1.767 -0.5209  0.5563 -0.2281
  722SOL     OW11979   3.519   2.090   1.408 -0.3461  0.0595 -0.4370
  722SOL    HW111980   3.611   2.064   1.435 -0.9202 -0.5383  0.9937
  722SOL    HW211981   3.477   2.015   1.357 -0.3891 -0.0507 -0.2393
  723SOL     OW11982   2.527   7.758   2.726  0.5762  0.6691 -0.2141
  723SOL    HW111983   2.457   7.829   2.732  0.6313  0.7056  0.0146
  723SOL    HW211984   2.577   7.753   2.813  1.9167  1.7326 -0.9064
  724SOL     OW11985   3.735   4.215   2.520 -1.1329 -0.2888 -0.2013
  724SOL    HW111986   3.715   4.301   2.472 -0.1834  0.0485  0.0033
  724SOL    HW211987   3.731   4.139   2.455 -1.9681 -0.0996 -0.3861
  725SOL     OW11988   3.360   3.803   1.421  0.4372 -0.0505  0.6363
  725SOL    HW111989   3.442   3.786   1.477  0.3056  0.5182  1.0006
  725SOL    HW211990   3.294   3.730   1.439  1.5385 -1.4901 -0.9645
  726SOL     OW11991   4.244   3.449   0.290  0.2814 -0.4493 -0.1594
  726SOL    HW111992   4.222   3.358   0.254 -0.9752 -1.5467  3.1530
  726SOL    HW211993   4.305   3.440   0.368  0.4837  1.5869 -0.0658
  727SOL     OW11994   4.283   3.186   1.422  0.1177 -0.0073  0.0574
  727SOL    HW111995   4.322   3.269   1.462  2.3888 -0.4232 -1.2657
  727SOL    HW211996   4.284   3.193   1.322 -0.8976 -1.1045 -0.0444
  728SOL     OW11997   2.755   5.822   1.198  0.4563  0.0234  0.4887
  728SOL    HW111998   2.782   5.909   1.239  0.4401 -0.2463  1.0778
  728SOL    HW211999   2.721   5.838   1.106 -1.6987  0.9267  1.3948
  729SOL     OW12000   2.553   8.565   0.976 -0.2301 -0.1912  0.3833
  729SOL    HW112001   2.462   8.540   1.010 -0.7402  2.7535  1.2823
  729SOL    HW212002   2.548   8.580   0.877 -0.2537 -2.0034  0.0918
  730SOL     OW12003   3.874   5.327   1.534 -0.0534 -0.4972  0.0651
  730SOL    HW112004   3.833   5.414   1.561 -1.1325 -1.1645  0.6007
  730SOL    HW212005   3.888   5.327   1.435  0.5444  0.5372  0.1484
  731SOL     OW12006   4.184   2.335   1.494 -0.3060  0.0367 -0.2631
  731SOL    HW112007   4.095   2.351   1.451  0.5897  0.0128 -2.1782
  731SOL    HW212008   4.171   2.287   1.581 -2.0979 -1.0407 -1.0909
  732SOL     OW12009   2.810   3.051   2.106  1.1832 -0.3310 -0.2121
  732SOL    HW112010   2.849   3.124   2.050  1.8174 -0.3572  0.1884
  732SOL    HW212011   2.803   3.082   2.201  2.2326 -1.0732  0.1153
  733SOL     OW12012   2.239   7.908   0.659 -0.2457  0.1881  0.2151
  733SOL    HW112013   2.165   7.888   0.723 -0.3065  0.3916  0.2106
  733SOL    HW212014   2.327   7.896   0.706 -0.2610 -0.8004 -0.0015
  734SOL     OW12015   4.395   3.517   2.176  0.5213 -0.0449  0.1044
  734SOL    HW112016   4.477   3.488   2.127  1.6673  0.6100  1.5960
  734SOL    HW212017   4.407   3.611   2.208 -0.5007 -0.2170  1.0215
  735SOL     OW12018   3.903   4.684   1.533 -0.0942 -0.2260  0.0243
  735SOL    HW112019   3.982   4.652   1.586 -0.5385 -1.2212  0.0906
  735SOL    HW212020   3.824   4.692   1.594 -0.3921 -0.5664 -0.3176
  736SOL     OW12021   2.181   2.627   1.493 -0.5995  0.2892  0.1930
  736SOL    HW112022   2.146   2.690   1.423 -2.3999 -1.5639 -0.6267
  736SOL    HW212023   2.172   2.670   1.583  1.3683  2.5400 -0.6339
  737SOL     OW12024   3.425   7.842   1.460  0.5267  0.4716 -0.9270
  737SOL    HW112025   3.405   7.746   1.441 -3.0138  0.4040  2.5414
  737SOL    HW212026   3.524   7.854   1.472  1.2836 -2.2162 -3.6375
  738SOL     OW12027   4.904   2.022   0.283 -0.0148 -0.0036  0.4388
  738SOL    HW112028   4.862   2.046   0.195  0.3905 -0.1676  0.1986
  738SOL    HW212029   4.973   2.090   0.307  0.1217 -0.1490  0.4588
  739SOL     OW12030   4.133   2.954   2.466 -0.7580 -0.2066 -0.0042
  739SOL    HW112031   4.038   2.931   2.488 -0.5229 -0.8396  0.3541
  739SOL    HW212032   4.188   2.871   2.468 -0.3411  0.0378 -0.9816
  740SOL     OW12033   1.969   1.569   1.585  0.2755  0.1604  0.0432
  740SOL    HW112034   1.935   1.558   1.679  1.7300 -0.0368  0.5725
  740SOL    HW212035   1.984   1.666   1.567 -2.4633  0.4512 -0.9146
  741SOL     OW12036   2.639   4.419   0.523 -0.1576 -0.2190 -0.4856
  741SOL    HW112037   2.596   4.429   0.612  0.2316  2.2764 -0.5479
  741SOL    HW212038   2.575   4.375   0.459 -1.0148 -0.5309  0.5804
  742SOL     OW12039   4.270   3.261   1.146  0.6810  0.1918 -0.4441
  742SOL    HW112040   4.173   3.282   1.132  0.9231  0.1296 -2.2471
  742SOL    HW212041   4.291   3.173   1.106  1.4600  0.1381  0.0828
  743SOL     OW12042   2.727   2.994   1.792 -0.2250  1.1481 -0.1517
  743SOL    HW112043   2.684   3.005   1.702 -0.5805 -1.8489 -0.3953
  743SOL    HW212044   2.678   3.050   1.859 -2.4027  0.4443 -1.0990
  744SOL     OW12045   3.253   3.576   0.038 -0.4702  0.2727 -0.4196
  744SOL    HW112046   3.184   3.537  -0.023 -1.1214 -1.5326  1.4131
  744SOL    HW212047   3.209   3.612   0.120  0.5506  1.2228 -0.2756
  745SOL     OW12048   3.157   0.817   1.988 -0.4692 -0.1264  0.0080
  745SOL    HW112049   3.230   0.880   2.016  0.4780 -0.6952 -1.1160
  745SOL    HW212050   3.113   0.779   2.069  0.5251  0.1863  0.7081
  746SOL     OW12051   8.052   2.772   1.383 -0.2533 -1.0255  0.2415
  746SOL    HW112052   8.138   2.800   1.425  0.5077 -1.5051 -0.9807
  746SOL    HW212053   8.039   2.821   1.297 -1.2713 -0.8601  0.4871
  747SOL     OW12054   3.188   9.366   1.474  0.5044 -0.1557  0.1541
  747SOL    HW112055   3.173   9.268   1.458  1.9942 -0.4566  0.5123
  747SOL    HW212056   3.173   9.416   1.389 -0.7012 -0.6290  0.0708
  748SOL     OW12057   4.649   1.720   1.049  0.1917  0.3149 -0.5025
  748SOL    HW112058   4.632   1.807   1.002 -2.4299  0.1208  0.0212
  748SOL    HW212059   4.588   1.650   1.012 -1.3683 -0.0372  2.6417
  749SOL     OW12060   3.738   3.658   0.961 -0.3389 -0.5842  0.5022
  749SOL    HW112061   3.825   3.705   0.972  1.0257 -2.8082 -0.2807
  749SOL    HW212062   3.676   3.714   0.906  0.6553  0.9430  0.9084
  750SOL     OW12063   2.793   4.800   0.526  0.9062  0.0218 -0.4283
  750SOL    HW112064   2.742   4.726   0.570  2.9310  0.1179  2.1853
  750SOL    HW212065   2.851   4.761   0.454  1.0787 -0.7710  0.1284
  751SOL     OW12066   5.217   3.284   1.579  0.0184  0.2047 -0.1479
  751SOL    HW112067   5.175   3.206   1.532 -0.0872 -0.7998  1.5616
  751SOL    HW212068   5.146   3.350   1.604 -0.5130 -1.1585  2.1110
  752SOL     OW12069   4.495   2.474   2.621 -0.5493 -0.0753 -0.2410
  752SOL    HW112070   4.594   2.484   2.635 -0.4539  0.4516 -1.1773
  752SOL    HW212071   4.479   2.434   2.530 -1.1037 -3.6086  1.3318
  753SOL     OW12072   3.266   1.807   1.615 -0.2608  0.0483  0.4555
  753SOL    HW112073   3.313   1.884   1.656  0.7661 -0.8949  1.0830
  753SOL    HW212074   3.186   1.783   1.671 -0.6534  0.7168  0.1913
  754SOL     OW12075   2.584   9.268   2.511  0.0260  0.2170 -0.2920
  754SOL    HW112076   2.646   9.347   2.511  1.9371 -1.2534 -0.3565
  754SOL    HW212077   2.557   9.247   2.605 -0.4308  0.9150 -0.2692
  755SOL     OW12078   2.950   9.928   1.167  0.1900 -0.1606  0.2797
  755SOL    HW112079   2.947   9.831   1.191 -0.3345 -0.6159 -1.5439
  755SOL    HW212080   3.042   9.963   1.180  0.1195 -0.5820  2.1018
  756SOL     OW12081   3.097   9.104   2.385  0.1573  0.2605 -1.0798
  756SOL    HW112082   3.129   9.074   2.295  1.6127  0.2498 -0.5596
  756SOL    HW212083   3.021   9.168   2.373  1.4400  1.5808 -2.3703
  757SOL     OW12084   3.984   5.554   1.152  0.2914 -0.4706 -0.2393
  757SOL    HW112085   4.040   5.486   1.199  1.2719 -0.8524 -1.9283
  757SOL    HW212086   3.918   5.507   1.093 -2.0770 -0.0362  1.9919
  758SOL     OW12087   2.545   0.062   0.783  0.1296  0.5959 -0.2275
  758SOL    HW112088   2.632   0.111   0.785  0.3674  0.1793 -0.3308
  758SOL    HW212089   2.533   0.011   0.868 -1.3323  2.9164  0.9912
  759SOL     OW12090   3.453   8.514   0.939 -0.2426  0.8995 -0.0783
  759SOL    HW112091   3.390   8.568   0.883 -1.5712  0.7619  1.2405
  759SOL    HW212092   3.545   8.520   0.901 -1.1427  0.6186 -2.3862
  760SOL     OW12093   4.858   2.946   0.333  0.1428 -0.2333  0.4225
  760SOL    HW112094   4.914   2.920   0.412  1.9516  0.3833 -0.6112
  760SOL    HW212095   4.901   3.024   0.287 -0.8732 -0.6015 -1.1724
  761SOL     OW12096   3.712   1.810   1.285  0.3140 -0.0506 -0.0120
  761SOL    HW112097   3.622   1.772   1.265 -0.6058  1.7060  0.7231
  761SOL    HW212098   3.777   1.735   1.301 -1.3447 -1.3177  0.9699
  762SOL     OW12099   3.052   2.343   2.302  0.3598  0.1887  0.3416
  762SOL    HW112100   2.955   2.322   2.287 -0.2059  1.6248  1.8801
  762SOL    HW212101   3.061   2.413   2.373  2.4445  1.2987 -0.9538
  763SOL     OW12102   2.824   8.606   0.027  0.3006  0.7206  0.0747
  763SOL    HW112103   2.838   8.650  -0.062 -0.9317  2.4119  0.6746
  763SOL    HW212104   2.891   8.641   0.092  1.1805 -0.4908 -0.1817
  764SOL     OW12105   4.719   4.147   0.809 -0.7072  0.0113  0.4174
  764SOL    HW112106   4.662   4.082   0.860 -1.2933  0.7362  0.6918
  764SOL    HW212107   4.759   4.101   0.730 -0.6034 -0.8554  0.9622
  765SOL     OW12108   2.458   2.831   2.829  0.1880  0.0083 -0.0959
  765SOL    HW112109   2.529   2.867   2.890  0.1747 -0.7689  0.3818
  765SOL    HW212110   2.456   2.886   2.745  0.4647  0.8480  0.4331
  766SOL     OW12111   4.265   3.945   0.312  0.1483  0.0099 -0.5926
  766SOL    HW112112   4.328   3.908   0.244 -0.5925 -0.3669 -1.0826
  766SOL    HW212113   4.316   3.999   0.379  0.8898  0.3215 -1.4014
  767SOL     OW12114   3.021   0.152   0.412 -0.0218 -0.1687  0.4337
  767SOL    HW112115   3.109   0.180   0.376  0.9349 -1.6193  1.5669
  767SOL    HW212116   2.948   0.177   0.348  1.2838  0.3186 -0.8684
  768SOL     OW12117   3.868   7.904   0.668 -0.1691  0.4635  0.0477
  768SOL    HW112118   3.904   7.818   0.631 -0.6291 -0.0973  0.8939
  768SOL    HW212119   3.924   7.980   0.635  0.7588 -0.2405 -0.0222
  769SOL     OW12120   4.402   3.163   2.551  0.0468 -0.0019  0.0099
  769SOL    HW112121   4.329   3.095   2.550 -0.2297  0.2903 -0.5414
  769SOL    HW212122   4.377   3.238   2.489 -0.1064  1.0686  1.3528
  770SOL     OW12123   2.802   6.404   1.859 -0.1780 -0.1761  0.0388
  770SOL    HW112124   2.899   6.381   1.848 -0.7211 -1.8196 -1.6011
  770SOL    HW212125   2.787   6.443   1.950  1.9920 -0.0274  0.3564
  771SOL     OW12126   2.556   4.354   1.419 -0.0069 -0.3697 -0.3499
  771SOL    HW112127   2.565   4.255   1.428  0.1374 -0.2280  1.2985
  771SOL    HW212128   2.459   4.379   1.421 -0.0412 -0.4633 -0.7165
  772SOL     OW12129   3.013   2.795   0.418  0.3666 -0.5731 -0.1769
  772SOL    HW112130   2.951   2.746   0.478 -0.4269  0.3429 -0.2344
  772SOL    HW212131   3.106   2.761   0.431  0.3186  0.1090  2.0958
  773SOL     OW12132   2.911   4.015   1.896  0.1714  0.3496  0.5931
  773SOL    HW112133   2.835   4.078   1.912  0.8941  0.9479  1.7488
  773SOL    HW212134   2.997   4.061   1.918  0.9152 -0.1562 -1.1856
  774SOL     OW12135   3.484   1.757   0.457 -0.3894 -0.0459  0.6745
  774SOL    HW112136   3.494   1.785   0.552 -0.5005 -1.6681  1.1705
  774SOL    HW212137   3.533   1.672   0.441 -1.6184 -0.5954 -0.3386
  775SOL     OW12138   4.245   0.871   0.539  0.2207 -0.2256  0.4218
  775SOL    HW112139   4.292   0.813   0.472  0.7482 -0.1345  0.7123
  775SOL    HW212140   4.178   0.815   0.590  1.1461 -0.7228  1.1082
  776SOL     OW12141   2.510   1.897   1.533  0.1466  0.2467 -0.0062
  776SOL    HW112142   2.447   1.963   1.572 -0.0736 -0.7180  1.3160
  776SOL    HW212143   2.603   1.918   1.562  0.0489 -0.1378  0.6120
  777SOL     OW12144   2.475   6.674   2.162  0.4877  0.0006 -0.2194
  777SOL    HW112145   2.517   6.648   2.249  1.4262  0.1363 -0.6342
  777SOL    HW212146   2.456   6.591   2.109  3.1392  0.1157 -1.3828
  778SOL     OW12147   2.450   0.794   1.769 -0.0112  0.2438 -0.9681
  778SOL    HW112148   2.390   0.818   1.693 -0.1827  2.1113 -0.2738
  778SOL    HW212149   2.543   0.826   1.751  0.4850 -1.3848 -1.4079
  779SOL     OW12150   2.770   8.528   1.714  0.0761 -0.3791  0.5694
  779SOL    HW112151   2.829   8.515   1.794  2.7018 -2.3304 -1.5519
  779SOL    HW212152   2.731   8.440   1.687 -1.2039  0.3540  0.0075
  780SOL     OW12153   4.182   3.707   1.987  0.2500  0.4905 -0.0577
  780SOL    HW112154   4.250   3.747   1.926  0.9548 -0.4345  0.1134
  780SOL    HW212155   4.208   3.613   2.009  0.2267  0.9275  1.9642
  781SOL     OW12156   4.127   2.457   0.357  0.5282  0.4055 -0.2109
  781SOL    HW112157   4.177   2.492   0.278 -0.7710  1.1018 -0.7420
  781SOL    HW212158   4.190   2.409   0.418  1.6682  0.4846 -1.3107
  782SOL     OW12159   3.498   2.289   0.323 -0.6323  0.0763  0.1102
  782SOL    HW112160   3.512   2.191   0.338  1.1767  0.3689  0.4567
  782SOL    HW212161   3.529   2.313   0.231 -1.3218  0.2874 -0.0700
  783SOL     OW12162   2.309   3.840   1.832 -0.5850 -0.0727 -0.0437
  783SOL    HW112163   2.249   3.776   1.783  0.2654 -0.2773 -0.8437
  783SOL    HW212164   2.255   3.896   1.895 -1.5088 -0.7381 -0.2366
  784SOL     OW12165   3.414   4.427   1.236 -0.2770 -0.1681  0.0498
  784SOL    HW112166   3.453   4.505   1.187  0.5570 -1.0723 -0.7420
  784SOL    HW212167   3.377   4.458   1.324  0.3516  1.0555 -0.1095
  785SOL     OW12168   3.654   0.687   0.827 -0.0117  0.1245  0.3239
  785SOL    HW112169   3.626   0.778   0.796 -2.0286 -0.1232  1.3698
  785SOL    HW212170   3.748   0.692   0.862  0.8730  1.2235 -2.0636
  786SOL     OW12171   3.464   8.811   0.089  0.3089  0.0243  0.3417
  786SOL    HW112172   3.402   8.772   0.156 -0.1095 -0.7583 -0.4919
  786SOL    HW212173   3.418   8.884   0.039  1.4873  2.4996  2.7629
  787SOL     OW12174   2.696   2.864   0.148  0.0651 -0.1997  0.1575
  787SOL    HW112175   2.786   2.847   0.107 -0.5988 -0.4463 -1.2471
  787SOL    HW212176   2.657   2.778   0.180 -0.5541 -0.4066 -1.1295
  788SOL     OW12177   2.477   4.384   0.272  0.3956 -0.1679 -0.4480
  788SOL    HW112178   2.403   4.449   0.289  0.2769 -0.5399  0.5030
  788SOL    HW212179   2.484   4.366   0.174 -1.3744 -0.8185 -0.4703
  789SOL     OW12180   2.482   8.825   0.848 -0.4612 -0.6518  0.1702
  789SOL    HW112181   2.530   8.832   0.936  0.2187  0.1920 -0.2601
  789SOL    HW212182   2.528   8.882   0.780 -0.6727 -1.7328 -0.8886
  790SOL     OW12183   3.284   2.736   0.550 -0.5346 -0.1210 -0.1600
  790SOL    HW112184   3.242   2.812   0.598 -2.1044 -1.2085  0.2292
  790SOL    HW212185   3.355   2.695   0.607 -0.3103  0.4758 -0.0069
  791SOL     OW12186   3.702   2.026   1.033  0.4037  0.5859  0.2481
  791SOL    HW112187   3.667   1.983   1.116  1.7917  1.7752  1.4852
  791SOL    HW212188   3.727   2.121   1.053  2.3467  0.3944 -1.0867
  792SOL     OW12189   2.982   4.394   1.956  0.2379  0.4023  0.1817
  792SOL    HW112190   2.925   4.463   1.910 -2.6060 -1.5105  0.7496
  792SOL    HW212191   3.037   4.347   1.888  0.7682  1.9058 -0.4552
  793SOL     OW12192   3.104   4.756   2.298 -0.6242  0.6029 -0.1546
  793SOL    HW112193   3.052   4.686   2.248 -0.9786  0.0849  0.9222
  793SOL    HW212194   3.118   4.725   2.392  0.8219  1.1647 -0.1853
  794SOL     OW12195   3.491   2.016   0.354 -0.1050  0.1047  0.3500
  794SOL    HW112196   3.498   1.932   0.408  0.8468  0.4814  0.8244
  794SOL    HW212197   3.435   1.999   0.273  0.8942 -1.2462 -0.0678
  795SOL     OW12198   2.929   0.141   2.193  0.3312  0.0293  0.0053
  795SOL    HW112199   2.882   0.219   2.235 -1.7702 -0.4920 -1.3093
  795SOL    HW212200   2.914   0.143   2.094  1.7548 -1.0727 -0.2413
  796SOL     OW12201   3.105   7.705   0.006  0.1639 -0.2641  0.3066
  796SOL    HW112202   3.035   7.634   0.004  0.2237 -0.3141 -0.0799
  796SOL    HW212203   3.085   7.774  -0.063  1.7122 -1.4539 -1.3846
  797SOL     OW12204   4.149   3.645   0.888 -0.0593 -0.3955 -0.5678
  797SOL    HW112205   4.065   3.611   0.846  0.5051 -0.7317 -1.4324
  797SOL    HW212206   4.228   3.613   0.836  0.5716  0.5542 -0.2048
  798SOL     OW12207   2.343   1.757   2.364 -0.3931 -0.3493  0.2338
  798SOL    HW112208   2.310   1.663   2.363  1.0412 -0.8811  1.1784
  798SOL    HW212209   2.356   1.789   2.270 -2.7837 -0.3877 -0.1341
  799SOL     OW12210   4.014   1.952   0.626 -0.0554 -0.4467  0.6610
  799SOL    HW112211   3.938   2.012   0.651  0.7742  0.6178  0.6373
  799SOL    HW212212   4.003   1.864   0.671 -1.7961 -0.6221 -0.0684
  800SOL     OW12213   4.150   8.035   0.847  0.1760 -0.1726 -0.0094
  800SOL    HW112214   4.059   8.008   0.814 -0.5434  1.5483  0.5048
  800SOL    HW212215   4.219   7.975   0.806 -1.0622 -0.6795 -1.4200
  801SOL     OW12216   2.881   4.721   0.070 -0.1840 -0.5182 -0.4545
  801SOL    HW112217   2.876   4.744   0.167  0.8573 -1.7741 -0.0989
  801SOL    HW212218   2.805   4.659   0.047 -2.5831  2.5713 -1.2652
  802SOL     OW12219   2.813   1.063   0.957 -0.5036 -0.2266  0.5694
  802SOL    HW112220   2.895   1.037   1.009 -1.2805  1.0173  2.4691
  802SOL    HW212221   2.830   1.149   0.910  0.1653 -1.3041 -1.2231
  803SOL     OW12222   2.631   2.108   2.465  0.4815  0.6804  0.3518
  803SOL    HW112223   2.690   2.054   2.405  1.7803  1.8662  0.5458
  803SOL    HW212224   2.556   2.146   2.411  0.8850  0.6315 -0.2568
  804SOL     OW12225   2.643   7.765   0.124  0.3983  0.5550  0.5394
  804SOL    HW112226   2.675   7.675   0.153 -0.4162  0.0471 -0.1190
  804SOL    HW212227   2.633   7.824   0.205 -1.5489 -0.7597  1.3129
  805SOL     OW12228   3.782   3.770   2.259  1.0152  0.2335  0.4220
  805SOL    HW112229   3.865   3.723   2.286  1.1966 -0.0788 -0.6498
  805SOL    HW212230   3.794   3.809   2.167  0.6005  1.7025  0.9754
  806SOL     OW12231   2.433   1.530   0.382 -0.3483 -0.0587  0.4781
  806SOL    HW112232   2.531   1.529   0.402 -0.3575  0.3623  0.5512
  806SOL    HW212233   2.391   1.447   0.419  0.3938 -1.4835 -1.7169
  807SOL     OW12234   3.854   0.617   2.098  0.3059  0.1424 -0.3743
  807SOL    HW112235   3.794   0.582   2.026  1.7586 -0.0388 -1.5249
  807SOL    HW212236   3.917   0.545   2.127  0.2319  0.4442  0.5513
  808SOL     OW12237   3.255   3.320   1.522 -0.3119  0.4358 -0.2074
  808SOL    HW112238   3.314   3.312   1.602 -0.6923  1.3655  0.1699
  808SOL    HW212239   3.168   3.273   1.540  0.0603 -0.3696 -0.5172
  809SOL     OW12240   3.823   1.667   0.440 -0.5826 -0.3447  0.6372
  809SOL    HW112241   3.758   1.701   0.372 -0.6967 -2.5812 -0.4045
  809SOL    HW212242   3.781   1.671   0.530 -0.6299  2.1175  0.5515
  810SOL     OW12243   4.403   3.768   1.669  0.7962 -0.5543 -0.3025
  810SOL    HW112244   4.364   3.828   1.600 -0.1812 -1.0756 -0.2075
  810SOL    HW212245   4.381   3.673   1.647  0.0351 -0.6926  0.9915
  811SOL     OW12246   2.855   4.994   0.699  0.0035 -0.6834  0.2915
  811SOL    HW112247   2.835   4.921   0.633  0.0144  0.3359 -0.8562
  811SOL    HW212248   2.790   4.989   0.775  0.2231 -2.1016  0.3938
  812SOL     OW12249   3.022   8.028   2.842  0.6606 -0.1511  0.0240
  812SOL    HW112250   3.110   7.992   2.812  0.7830  0.4544 -0.3549
  812SOL    HW212251   3.008   8.007   2.938  1.2066 -0.2693  0.0763
  813SOL     OW12252   4.214   2.121   0.163 -0.4844 -0.5156 -0.0392
  813SOL    HW112253   4.171   2.104   0.252 -1.1490  0.2570 -0.2110
  813SOL    HW212254   4.268   2.041   0.137  0.7325 -0.2598  1.6284
  814SOL     OW12255   3.302   0.953   0.910 -0.1404 -0.2873 -0.0855
  814SOL    HW112256   3.323   0.856   0.901 -2.3745 -0.7746 -0.2450
  814SOL    HW212257   3.311   0.981   1.005 -0.1246 -0.8006  0.0647
  815SOL     OW12258   2.207   5.153   0.924 -0.6366 -0.0887  0.2404
  815SOL    HW112259   2.263   5.086   0.876  0.9466  0.7890  0.8074
  815SOL    HW212260   2.120   5.163   0.877  0.6677  0.3657 -2.1827
  816SOL     OW12261   3.235   7.952   0.226  0.2894  0.0122 -0.9102
  816SOL    HW112262   3.183   8.012   0.287  0.7269  0.5633 -1.0736
  816SOL    HW212263   3.281   8.007   0.156  0.4183 -0.5452 -1.2677
  817SOL     OW12264   2.407   2.911   2.541  0.4004 -0.6144  0.3283
  817SOL    HW112265   2.485   2.967   2.568  1.8016 -1.4919 -1.7687
  817SOL    HW212266   2.433   2.814   2.545 -0.1583 -0.8640 -1.5622
  818SOL     OW12267   2.956   3.263   2.009 -0.4034 -0.5901  0.0835
  818SOL    HW112268   3.045   3.279   2.053 -0.1213 -0.4017 -0.5500
  818SOL    HW212269   2.944   3.327   1.933 -2.1378  1.0155  1.6748
  819SOL     OW12270   4.150   2.775   0.251 -0.5030 -0.1368  0.4087
  819SOL    HW112271   4.193   2.692   0.215 -0.2137 -0.2225  0.9408
  819SOL    HW212272   4.081   2.807   0.187 -0.8030 -0.9413  0.3244
  820SOL     OW12273   4.193   4.695   2.570  0.5872  0.3973 -0.0386
  820SOL    HW112274   4.100   4.680   2.601  0.3307 -0.6434 -1.2766
  820SOL    HW212275   4.257   4.672   2.643 -0.0077 -2.0489 -0.2369
  821SOL     OW12276   4.455   1.980   2.170 -0.2161  0.0202 -0.6367
  821SOL    HW112277   4.483   1.953   2.262  0.5807  0.9269 -0.6051
  821SOL    HW212278   4.424   1.899   2.120 -2.0048 -0.2549  0.8754
  822SOL     OW12279   3.985   3.858   0.958  0.5063 -0.6575  0.1349
  822SOL    HW112280   4.068   3.823   0.914  0.3088  0.2651 -1.0165
  822SOL    HW212281   4.004   3.882   1.053  1.0345 -2.3756  0.4704
  823SOL     OW12282   2.924   2.359   2.719  0.2899  0.7817 -0.0633
  823SOL    HW112283   2.939   2.261   2.728  0.7878  0.8052 -0.6130
  823SOL    HW212284   2.837   2.376   2.672 -0.8904  0.6317  2.0235
  824SOL     OW12285   2.994   1.395   1.400  0.2711  0.0246 -0.4674
  824SOL    HW112286   3.024   1.448   1.480 -0.6887  0.3971 -0.3501
  824SOL    HW212287   2.981   1.456   1.322 -2.7296  0.2954  0.1804
  825SOL     OW12288   2.726   0.843   0.061  0.2012  0.0469 -0.3618
  825SOL    HW112289   2.773   0.833   0.149  0.5485  0.0311 -0.5465
  825SOL    HW212290   2.666   0.765   0.046 -1.8758  1.3447  1.0689
  826SOL     OW12291   2.944   9.307   0.638 -0.2436  0.4267  0.2150
  826SOL    HW112292   2.891   9.241   0.692 -1.6228  0.1595 -1.4171
  826SOL    HW212293   3.040   9.299   0.661 -0.6773 -0.5331  1.7475
  827SOL     OW12294   2.986   2.008   0.988 -0.4518 -0.4438  0.1858
  827SOL    HW112295   3.007   2.106   0.991  0.5479 -0.6565  0.4010
  827SOL    HW212296   3.066   1.956   1.017 -1.6285 -1.2608  2.0638
  828SOL     OW12297   3.906   4.243   1.983  0.3354  0.1665  0.3294
  828SOL    HW112298   3.967   4.320   1.964  0.9348  0.0443  1.7121
  828SOL    HW212299   3.925   4.207   2.074 -0.1920 -1.3926 -0.1662
  829SOL     OW12300   4.039   5.085   0.775 -0.5045  0.4166 -0.8473
  829SOL    HW112301   4.046   5.116   0.680  0.8205 -0.0745 -0.9165
  829SOL    HW212302   3.981   5.004   0.780  1.3920 -1.0140 -1.5855
  830SOL     OW12303   2.995   9.881   1.577 -0.0375 -0.1999  0.4872
  830SOL    HW112304   3.071   9.944   1.593 -1.5600  1.8890 -0.3830
  830SOL    HW212305   2.911   9.920   1.614 -1.1697 -1.3262 -0.8507
  831SOL     OW12306   3.739   3.015   1.920  0.0228  0.4158 -0.5371
  831SOL    HW112307   3.668   3.022   1.990  0.6788  0.3272  0.1351
  831SOL    HW212308   3.735   3.096   1.861 -0.0194  0.8655  0.0814
  832SOL     OW12309   3.119   7.784   1.574 -0.4800  0.5458  0.0788
  832SOL    HW112310   3.203   7.831   1.547  0.5128 -1.6123 -0.6105
  832SOL    HW212311   3.100   7.803   1.671  0.7546  1.0891  0.2147
  833SOL     OW12312   2.259   8.756   0.723  1.3571 -0.1019  0.9514
  833SOL    HW112313   2.331   8.791   0.782  2.1102 -1.2037  0.6961
  833SOL    HW212314   2.254   8.811   0.640 -0.3486  2.0612  2.4206
  834SOL     OW12315   2.748   7.950   2.113  0.1987  0.2515  0.5263
  834SOL    HW112316   2.787   7.862   2.087 -2.7218 -1.1786  0.8347
  834SOL    HW212317   2.761   7.965   2.211 -1.9420 -1.2551  1.0651
  835SOL     OW12318   2.526   0.076   0.252  0.1787  0.3346 -0.1936
  835SOL    HW112319   2.508   0.082   0.350  0.3100  0.4339 -0.1760
  835SOL    HW212320   2.614   0.032   0.237  0.0247  0.0563 -0.2744
  836SOL     OW12321   3.714   2.903   2.509  0.0286 -0.2792 -0.0253
  836SOL    HW112322   3.780   2.843   2.464 -0.6761 -3.4626  2.9551
  836SOL    HW212323   3.735   2.908   2.607 -2.4072  1.0212  0.4583
  837SOL     OW12324   3.884   2.223   0.431 -0.2050  0.8325 -0.1159
  837SOL    HW112325   3.879   2.277   0.346  3.1543  1.6565  0.1636
  837SOL    HW212326   3.917   2.131   0.410 -0.2686  0.7403  0.1867
  838SOL     OW12327   4.178   1.587   0.080 -0.5119 -0.4905  0.1246
  838SOL    HW112328   4.204   1.511   0.139 -0.9212 -0.7399 -0.0098
  838SOL    HW212329   4.123   1.552   0.004  0.5275 -0.2633 -0.7471
  839SOL     OW12330   2.090   1.782   1.473 -0.2685 -0.2893 -0.1262
  839SOL    HW112331   2.112   1.826   1.386  0.0952  1.1369  0.6688
  839SOL    HW212332   2.108   1.684   1.466 -1.5301 -0.4106 -2.0737
  840SOL     OW12333   3.689   1.661   0.677  0.1588 -0.3309  0.9160
  840SOL    HW112334   3.615   1.702   0.730  1.6784  0.8033  2.2099
  840SOL    HW212335   3.721   1.578   0.724 -0.4916 -0.9968  0.1932
  841SOL     OW12336   2.515   5.715   1.677  0.4364  0.0448 -0.3028
  841SOL    HW112337   2.587   5.724   1.746 -0.0555  0.9167  0.1037
  841SOL    HW212338   2.457   5.796   1.678  0.3678  0.0258 -1.6869
  842SOL     OW12339   3.885   9.096   2.354  0.3876  0.2091 -0.1347
  842SOL    HW112340   3.821   9.133   2.287  1.4572  3.3466  0.4805
  842SOL    HW212341   3.971   9.071   2.307 -0.2115 -1.2359 -0.4952
  843SOL     OW12342   3.824   7.956   1.118  0.4353  0.1223  0.1381
  843SOL    HW112343   3.767   8.016   1.174 -2.2345 -2.1536 -0.0394
  843SOL    HW212344   3.895   8.010   1.072 -1.1567  2.9191  0.8975
  844SOL     OW12345   3.935   2.282   0.856  0.3349  0.6905  0.0631
  844SOL    HW112346   3.872   2.205   0.852  0.7578  0.3956 -1.0848
  844SOL    HW212347   3.968   2.304   0.764  1.0292  1.5705  0.5035
  845SOL     OW12348   4.451   3.974   1.330 -0.0268 -0.3402  0.0952
  845SOL    HW112349   4.366   3.940   1.370  0.5940  0.7429  2.4722
  845SOL    HW212350   4.500   3.898   1.287 -1.1468 -1.3912  0.6273
  846SOL     OW12351   4.152   3.203   0.190  0.4360 -0.5337  0.4692
  846SOL    HW112352   4.247   3.174   0.199 -0.1288 -2.4232  0.4061
  846SOL    HW212353   4.131   3.220   0.094  0.9908  0.9066  0.5890
  847SOL     OW12354   2.861   3.717   0.964 -0.2240  0.3873  0.4669
  847SOL    HW112355   2.937   3.769   0.924 -0.9127  2.3066  1.6363
  847SOL    HW212356   2.799   3.689   0.891  1.1242 -0.4379 -0.3995
  848SOL     OW12357   2.264   8.381   0.542 -0.2955 -0.0701  0.0379
  848SOL    HW112358   2.224   8.404   0.453 -3.3832 -1.9659  0.8352
  848SOL    HW212359   2.326   8.304   0.532  1.2912  1.3038 -0.8412
  849SOL     OW12360   2.499   4.716   0.487  0.1871 -0.0546  0.4976
  849SOL    HW112361   2.513   4.798   0.542  0.3251 -0.5510  1.2109
  849SOL    HW212362   2.580   4.657   0.493  0.7151  0.4594 -1.2414
  850SOL     OW12363   2.595   9.121   0.204  0.3253 -0.5879 -0.2386
  850SOL    HW112364   2.519   9.096   0.144 -0.4540  1.3863 -0.1040
  850SOL    HW212365   2.666   9.166   0.150 -0.0402  0.4994  0.1789
  851SOL     OW12366   3.376   2.676   1.563  0.7281  0.0697  0.3520
  851SOL    HW112367   3.285   2.706   1.590  0.3919 -0.3152 -0.3354
  851SOL    HW212368   3.389   2.580   1.589  1.1822  0.3210  1.0507
  852SOL     OW12369   4.912   2.485   0.230 -0.3156  0.5670 -0.0832
  852SOL    HW112370   4.840   2.549   0.205  0.2655  0.8362 -1.0615
  852SOL    HW212371   4.930   2.492   0.328 -1.8561  0.2543  0.2358
  853SOL     OW12372   3.603   1.496   0.389 -0.4465 -0.0742  0.4390
  853SOL    HW112373   3.613   1.447   0.303 -0.6355 -0.9352  0.8939
  853SOL    HW212374   3.685   1.549   0.407 -1.0340  1.3531 -1.0255
  854SOL     OW12375   3.792   2.055   0.772 -0.0279  0.6874  0.0166
  854SOL    HW112376   3.725   2.088   0.705  0.2592 -0.5406 -0.9104
  854SOL    HW212377   3.744   2.014   0.849 -0.3662 -0.4796 -0.7974
  855SOL     OW12378   4.889   2.907   0.958  0.4800  0.2705  0.3309
  855SOL    HW112379   4.817   2.846   0.992  0.1475 -0.1246 -1.0296
  855SOL    HW212380   4.936   2.950   1.035  0.1774 -1.0884  1.2912
  856SOL     OW12381   3.998   3.544   0.311 -0.1006  0.0652 -0.6847
  856SOL    HW112382   4.016   3.543   0.410 -0.0301  1.7610 -0.6719
  856SOL    HW212383   4.078   3.510   0.263  0.3298  0.3975 -0.2138
  857SOL     OW12384   2.881   3.497   0.592  0.3867  0.2564  0.4150
  857SOL    HW112385   2.954   3.564   0.578  0.4159 -0.2008 -1.7778
  857SOL    HW212386   2.918   3.418   0.641  1.1421  0.4515  0.1678
  858SOL     OW12387   3.792   9.390   0.544  0.0461 -0.0824  0.1605
  858SOL    HW112388   3.831   9.476   0.576 -0.5871  0.7244 -1.1957
  858SOL    HW212389   3.723   9.359   0.609  0.5180  0.2609  0.8293
  859SOL     OW12390   3.546   9.589   2.104 -0.3655  0.7560  0.1745
  859SOL    HW112391   3.618   9.554   2.045 -1.0956  0.2519 -0.4182
  859SOL    HW212392   3.541   9.534   2.187 -1.1629 -0.2396 -0.5235
  860SOL     OW12393   2.698   7.254   2.315 -0.2247  0.5747 -0.2552
  860SOL    HW112394   2.773   7.320   2.304 -0.3782  0.7719 -0.1146
  860SOL    HW212395   2.695   7.223   2.410 -0.4789  0.7548 -0.2041
  861SOL     OW12396   2.324   1.892   0.825  0.0390 -0.1049 -0.4771
  861SOL    HW112397   2.385   1.817   0.852 -0.6758 -0.0639  1.2961
  861SOL    HW212398   2.232   1.857   0.811 -0.3969  0.4923  0.7980
  862SOL     OW12399   3.531   5.339   2.383 -0.6509 -0.5240  0.4156
  862SOL    HW112400   3.478   5.255   2.397  0.9608 -1.6269  0.1664
  862SOL    HW212401   3.580   5.333   2.296  0.3618  0.1726  0.9261
  863SOL     OW12402   3.302   9.657   2.356 -0.7075  0.0191 -0.0117
  863SOL    HW112403   3.352   9.743   2.367 -1.4791  0.6176 -0.9848
  863SOL    HW212404   3.362   9.588   2.318 -0.4199  0.5305 -0.5016
  864SOL     OW12405   3.007   9.694   0.267 -0.9673 -0.3561  0.0925
  864SOL    HW112406   3.061   9.654   0.193 -1.4794 -0.9990  0.0641
  864SOL    HW212407   2.911   9.698   0.239 -0.7397  2.0880 -0.4166
  865SOL     OW12408   3.993   2.878   0.683  0.3166 -0.3097  0.2405
  865SOL    HW112409   4.029   2.786   0.666  1.5629  0.3486 -0.8470
  865SOL    HW212410   3.907   2.890   0.634 -0.9221 -1.5782  2.0622
  866SOL     OW12411   4.312   3.358   2.377 -0.1584  0.1523  0.5757
  866SOL    HW112412   4.257   3.289   2.329  0.6958 -0.5653  0.6275
  866SOL    HW212413   4.328   3.435   2.316 -1.2853  0.4028  0.5811
  867SOL     OW12414   2.159   4.733   1.867 -0.5004 -0.7163  0.5237
  867SOL    HW112415   2.157   4.784   1.781  3.3414 -0.5068  0.4553
  867SOL    HW212416   2.193   4.641   1.849 -1.0843 -1.1462  1.6166
  868SOL     OW12417   3.971   4.848   1.129  0.1099  0.5416  0.2370
  868SOL    HW112418   4.030   4.893   1.195 -2.2911  0.6788  2.3625
  868SOL    HW212419   3.883   4.897   1.123 -0.5288 -0.7359 -1.4418
  869SOL     OW12420   2.569   8.316   2.474 -0.0734  0.2312 -0.5198
  869SOL    HW112421   2.544   8.225   2.508  0.0683  0.3014 -0.2329
  869SOL    HW212422   2.667   8.331   2.486 -0.3582  1.0411  0.8805
  870SOL     OW12423   2.908   3.530   1.422 -0.0633  0.5447 -0.1745
  870SOL    HW112424   2.956   3.465   1.362  0.2390 -0.6953  1.3828
  870SOL    HW212425   2.815   3.545   1.388  0.0389 -0.3147 -0.8416
  871SOL     OW12426   2.595   9.376   0.800  0.2866  0.5792 -0.3690
  871SOL    HW112427   2.595   9.442   0.725 -0.2576  1.2894  0.2589
  871SOL    HW212428   2.571   9.286   0.765  0.1767  0.8823 -1.0759
  872SOL     OW12429   2.916   8.269   2.681  0.4650  0.4541 -0.4115
  872SOL    HW112430   3.006   8.270   2.723  0.3095 -1.5478  0.0147
  872SOL    HW212431   2.865   8.190   2.713 -0.6911  0.4385 -2.2226
  873SOL     OW12432   4.167   3.971   2.193 -0.6103 -0.0232 -0.6026
  873SOL    HW112433   4.207   3.898   2.248 -0.4957  0.0721 -0.5575
  873SOL    HW212434   4.240   4.032   2.161 -0.7534  0.3276 -0.2609
  874SOL     OW12435   2.697   5.900   1.916  0.4001 -0.0873  0.2939
  874SOL    HW112436   2.769   5.832   1.901 -0.8202 -1.0286 -1.5055
  874SOL    HW212437   2.646   5.913   1.831 -0.1913  2.1604  0.9725
  875SOL     OW12438   2.529   4.507   2.623 -0.3286  0.5071 -0.6063
  875SOL    HW112439   2.565   4.578   2.562 -0.8273 -0.5118 -2.1252
  875SOL    HW212440   2.535   4.418   2.577 -1.6733 -0.1370  0.4427
  876SOL     OW12441   2.828   7.570   0.193 -0.1175 -0.0112  0.4069
  876SOL    HW112442   2.824   7.568   0.293  3.1976  1.8351  0.6352
  876SOL    HW212443   2.859   7.481   0.160 -0.3739 -0.3518  1.0583
  877SOL     OW12444   2.955   7.819   0.232  0.4137  0.7192 -0.4700
  877SOL    HW112445   2.905   7.739   0.198  0.4717 -0.2180  1.5874
  877SOL    HW212446   3.054   7.802   0.225  0.4824  1.9690 -3.1261
  878SOL     OW12447   2.502   3.975   0.839  0.4254 -0.4726  0.2018
  878SOL    HW112448   2.469   3.889   0.879  1.4020  0.4497  3.1735
  878SOL    HW212449   2.598   3.964   0.813  0.6764 -0.1942  0.9790
  879SOL     OW12450   2.479   8.904   2.254  0.0869 -0.3813 -0.3643
  879SOL    HW112451   2.417   8.924   2.178  1.5072 -0.3376 -1.5402
  879SOL    HW212452   2.524   8.816   2.237  1.2687  0.1800 -0.1332
  880SOL     OW12453   3.264   1.472   1.246 -0.5198 -0.8103 -0.0427
  880SOL    HW112454   3.359   1.456   1.222 -0.2683  1.2547 -0.4680
  880SOL    HW212455   3.205   1.413   1.190  0.3440  0.2430 -2.1014
  881SOL     OW12456   2.602   9.779   1.583 -0.0435  0.7718  0.1384
  881SOL    HW112457   2.622   9.695   1.532 -2.8105 -0.1092  0.4516
  881SOL    HW212458   2.582   9.852   1.519 -0.2161  0.5264 -0.0891
  882SOL     OW12459   2.717   1.492   0.461 -0.0138  0.6945 -0.5963
  882SOL    HW112460   2.748   1.512   0.368  0.4746  0.8230 -0.4034
  882SOL    HW212461   2.791   1.507   0.526 -0.2012  0.1173 -0.2353
  883SOL     OW12462   2.188   8.625   0.052 -0.0433 -0.1920  0.1646
  883SOL    HW112463   2.112   8.573   0.015 -0.2530  0.3276 -0.1377
  883SOL    HW212464   2.153   8.699   0.110  0.2242  0.2070 -0.1823
  884SOL     OW12465   2.869   6.790   1.831 -0.4694  0.4388  0.2085
  884SOL    HW112466   2.784   6.741   1.850  1.9924 -3.9519  0.6900
  884SOL    HW212467   2.913   6.815   1.918  0.0925  0.1371  0.0146
  885SOL     OW12468   2.708   3.438   1.929 -0.0871  0.7586  0.8376
  885SOL    HW112469   2.657   3.523   1.913  0.3224  0.5698 -1.7220
  885SOL    HW212470   2.801   3.448   1.893 -0.4319 -1.2082 -0.6529
  886SOL     OW12471   3.100   3.980   2.558  0.4712  0.1123  0.3160
  886SOL    HW112472   3.195   3.961   2.584 -0.7576 -2.3960  3.2225
  886SOL    HW212473   3.088   3.964   2.460  2.7364 -0.9095  0.1787
  887SOL     OW12474   3.433   4.567   2.668  0.0058 -0.0852 -0.2789
  887SOL    HW112475   3.501   4.641   2.664  1.1195 -1.0184  1.0197
  887SOL    HW212476   3.426   4.524   2.578 -0.0632  1.0528 -0.8385
  888SOL     OW12477   3.661   4.004   2.356 -0.2172  0.3160  0.1103
  888SOL    HW112478   3.712   3.921   2.332 -2.2731 -2.0526  3.5413
  888SOL    HW212479   3.567   3.996   2.323 -0.2203  1.6631 -0.2323
  889SOL     OW12480   3.723   8.464   1.664  0.1175 -0.1849 -0.0246
  889SOL    HW112481   3.792   8.536   1.673  1.9332 -1.9535  0.5455
  889SOL    HW212482   3.632   8.504   1.673  1.0006  2.3085 -1.4890
  890SOL     OW12483   2.820   2.337   0.753  0.2452 -0.0766  0.4457
  890SOL    HW112484   2.754   2.341   0.828  3.0479 -0.0412  2.9918
  890SOL    HW212485   2.904   2.293   0.784  1.7033  0.4543 -2.5378
  891SOL     OW12486   2.278   6.914   2.529  0.3017  0.1924  0.3576
  891SOL    HW112487   2.270   6.988   2.462  0.4265  1.4530  1.6928
  891SOL    HW212488   2.195   6.909   2.584  0.7440  0.1158  1.0328
  892SOL     OW12489   4.684   2.238   0.852  0.1140 -0.0242 -0.4630
  892SOL    HW112490   4.682   2.248   0.753 -0.6542  0.0127 -0.4463
  892SOL    HW212491   4.670   2.142   0.877 -0.1926  0.0389 -0.3818
  893SOL     OW12492   3.558   2.821   2.300  0.1589 -0.3115 -0.1514
  893SOL    HW112493   3.614   2.845   2.379  2.2537 -1.4660 -1.2502
  893SOL    HW212494   3.464   2.804   2.331  0.5905  0.7582  1.8501
  894SOL     OW12495   2.667   8.399   0.116  0.3734  0.0355 -0.1412
  894SOL    HW112496   2.589   8.359   0.069  0.5371 -0.9705  0.4278
  894SOL    HW212497   2.688   8.488   0.076  0.8510 -1.0393 -2.3266
  895SOL     OW12498   3.791   1.309   1.577  0.4910 -0.2224  0.8490
  895SOL    HW112499   3.763   1.354   1.662  0.6476 -0.7842  1.2072
  895SOL    HW212500   3.809   1.212   1.596 -3.9186 -1.4675 -0.7065
  896SOL     OW12501   3.019   1.318   0.012  0.0319 -0.3920 -0.2894
  896SOL    HW112502   3.095   1.320   0.076  1.0568 -1.8552 -1.4140
  896SOL    HW212503   2.933   1.332   0.061  0.9844  1.0434  1.0238
  897SOL     OW12504   3.269   6.109   0.179 -0.5353  0.9336  0.3658
  897SOL    HW112505   3.186   6.098   0.233 -2.7139 -0.7482 -3.1774
  897SOL    HW212506   3.272   6.202   0.141 -0.9857  0.8744  0.1820
  898SOL     OW12507   3.678   0.903   0.145  0.2342  0.4396 -0.2462
  898SOL    HW112508   3.757   0.943   0.192 -0.2572  0.7331  0.3392
  898SOL    HW212509   3.708   0.858   0.061  0.8041  1.9259 -0.8418
  899SOL     OW12510   2.924   2.188   1.964  0.2029  0.1046 -0.0475
  899SOL    HW112511   2.893   2.277   1.997 -0.1157  0.1603 -0.4953
  899SOL    HW212512   2.982   2.200   1.884  1.8095  0.0315  1.0701
  900SOL     OW12513   2.480   3.691   0.844 -0.1129  0.2082 -0.0873
  900SOL    HW112514   2.563   3.695   0.788  1.4549 -1.5700  2.0521
  900SOL    HW212515   2.403   3.661   0.787  1.0736  0.0486 -1.6622
  901SOL     OW12516   3.295   2.299   0.792  0.1254  0.2494  0.6573
  901SOL    HW112517   3.394   2.286   0.796  0.2996  1.2952  0.0917
  901SOL    HW212518   3.273   2.362   0.717 -0.8957  0.6702  1.2922
  902SOL     OW12519   2.895   5.614   0.936 -0.2018  0.0089 -0.0152
  902SOL    HW112520   2.803   5.574   0.937 -0.4474  0.4640 -1.8105
  902SOL    HW212521   2.896   5.698   0.990 -1.2552  0.8224 -1.2307
  903SOL     OW12522   3.364   0.992   1.181  0.6241  0.2957 -0.1270
  903SOL    HW112523   3.277   1.031   1.213  1.1066  1.5502 -0.3064
  903SOL    HW212524   3.438   1.056   1.201  1.8252 -1.6353  1.8685
  904SOL     OW12525   3.647   5.493   0.172 -0.2472  0.3858 -0.5854
  904SOL    HW112526   3.672   5.398   0.189 -0.7856  0.2944 -0.2742
  904SOL    HW212527   3.593   5.498   0.088 -0.5180  0.3629 -0.4153
  905SOL     OW12528   3.361   5.680   1.203 -0.0831  0.3617  0.7169
  905SOL    HW112529   3.389   5.669   1.107 -2.1382  0.8369  0.0302
  905SOL    HW212530   3.324   5.594   1.237  3.1214 -0.5898  1.9789
  906SOL     OW12531   2.546   9.669   1.123 -0.3793 -0.8991 -0.1432
  906SOL    HW112532   2.608   9.728   1.072  0.0012  1.3016  2.7479
  906SOL    HW212533   2.460   9.716   1.139 -0.1271 -1.1246  2.0637
  907SOL     OW12534   2.275   5.065   0.463  0.4986  0.2834 -0.3447
  907SOL    HW112535   2.331   5.144   0.437 -0.5309  0.7871 -1.0873
  907SOL    HW212536   2.255   5.010   0.381 -0.7103  0.5211 -0.2134
  908SOL     OW12537   3.915   9.087   1.330 -0.0859  0.1932  0.5502
  908SOL    HW112538   3.869   9.013   1.282  1.4900 -0.1089 -0.5292
  908SOL    HW212539   3.987   9.125   1.272 -0.5847  2.3024  1.2450
  909SOL     OW12540   2.731   2.928   1.237 -0.0740  0.7002  0.2697
  909SOL    HW112541   2.748   2.864   1.312  4.4196  1.3960  0.0053
  909SOL    HW212542   2.696   2.878   1.157 -2.3887 -0.4275  1.9148
  910SOL     OW12543   2.480   3.656   1.147 -0.1054  0.3457  0.2749
  910SOL    HW112544   2.527   3.568   1.159  1.0543  1.1778  2.0122
  910SOL    HW212545   2.479   3.680   1.050  1.5583 -0.5245  0.0197
  911SOL     OW12546   2.876   3.443   0.997  0.0839  0.9676 -0.4799
  911SOL    HW112547   2.836   3.534   1.005 -1.2086  0.4988 -1.3464
  911SOL    HW212548   2.895   3.407   1.088  0.8621  2.1990 -0.1381
  912SOL     OW12549   4.553   1.686   0.606  0.1038  0.0647 -0.0524
  912SOL    HW112550   4.589   1.612   0.549 -0.7680  0.5333 -1.2215
  912SOL    HW212551   4.584   1.774   0.570  1.2467  0.2861  1.4130
  913SOL     OW12552   3.567   2.392   1.308  0.6170 -0.2262  0.3216
  913SOL    HW112553   3.520   2.330   1.371 -0.3866  0.2673  0.0641
  913SOL    HW212554   3.633   2.447   1.359  0.0311 -0.0479  0.8946
  914SOL     OW12555   2.111   8.838   0.220 -0.9656 -0.0377  0.4402
  914SOL    HW112556   2.163   8.921   0.200 -1.2980 -0.1042 -0.7419
  914SOL    HW212557   2.126   8.811   0.315 -0.3375  1.0033  0.6412
  915SOL     OW12558   2.998   1.925   2.015  0.3753 -0.1644  0.7130
  915SOL    HW112559   2.964   2.017   1.998  1.2626  0.0240 -0.0155
  915SOL    HW212560   3.094   1.928   2.043  0.6049 -0.9119  0.0369
  916SOL     OW12561   2.746   1.122   0.163 -1.2911  0.3679  0.0425
  916SOL    HW112562   2.810   1.130   0.240 -0.3876  1.5097 -0.7909
  916SOL    HW212563   2.778   1.051   0.101 -1.1101  0.5837 -0.1124
  917SOL     OW12564   3.363   4.281   0.253 -0.2813 -0.0883 -0.0165
  917SOL    HW112565   3.369   4.216   0.177 -0.5459 -0.8352  0.5965
  917SOL    HW212566   3.271   4.277   0.293 -0.6357  1.4035 -0.6164
  918SOL     OW12567   3.574   4.102   1.074  1.0947  0.4800  0.5046
  918SOL    HW112568   3.528   4.017   1.097 -0.4327  1.4471  1.1105
  918SOL    HW212569   3.655   4.083   1.018  1.3562 -1.4240  1.5144
  919SOL     OW12570   3.233   1.778   0.334  0.0852  0.2272  0.3974
  919SOL    HW112571   3.322   1.792   0.378 -0.2494  1.6076  0.6684
  919SOL    HW212572   3.194   1.867   0.311  0.1499 -0.4588 -2.5120
  920SOL     OW12573   3.793   3.938   1.540 -0.2131  0.6383 -0.1794
  920SOL    HW112574   3.764   3.924   1.446  1.7674 -1.3594 -0.5169
  920SOL    HW212575   3.738   4.012   1.581 -3.8597 -1.1844 -1.5821
  921SOL     OW12576   3.031   3.091   2.833  0.9536  0.0519 -0.1239
  921SOL    HW112577   2.977   3.162   2.879 -0.5737  0.9960 -3.2038
  921SOL    HW212578   3.010   3.002   2.873  0.0345  0.8856  1.3023
  922SOL     OW12579   2.889   4.629   1.156 -0.3041 -0.1236  0.3907
  922SOL    HW112580   2.834   4.691   1.101  1.3954  0.2757 -0.8906
  922SOL    HW212581   2.830   4.559   1.196 -1.8067  0.6143 -0.4877
  923SOL     OW12582   3.510   4.508   0.656  0.2104 -0.5222  0.1600
  923SOL    HW112583   3.448   4.520   0.732 -0.1770  1.2064 -0.4133
  923SOL    HW212584   3.579   4.440   0.680 -1.0721 -1.4448  1.3015
  924SOL     OW12585   2.818   0.361   2.301 -0.5821 -0.5015  0.2973
  924SOL    HW112586   2.895   0.407   2.346 -1.1521 -1.2128  2.0343
  924SOL    HW212587   2.739   0.361   2.362 -1.3085 -1.7004 -0.6269
  925SOL     OW12588   2.801   1.499   1.191 -0.1804  0.4603  0.1744
  925SOL    HW112589   2.797   1.489   1.092 -0.7137  1.7744  0.0472
  925SOL    HW212590   2.708   1.503   1.228  0.0157 -0.0685  0.7260
  926SOL     OW12591   2.850   7.034   1.422 -0.4226  0.0979  0.1567
  926SOL    HW112592   2.834   7.043   1.520 -1.6147  0.2126 -0.0419
  926SOL    HW212593   2.877   7.122   1.384 -0.6939  0.2189  0.2479
  927SOL     OW12594   4.095   9.406   2.450 -0.1696 -0.1681  0.0451
  927SOL    HW112595   4.015   9.348   2.464 -0.3906  0.4845  1.5937
  927SOL    HW212596   4.161   9.391   2.523  0.9844 -0.4320 -1.0243
  928SOL     OW12597   3.377   4.818   0.751  0.1949 -0.1679 -0.9071
  928SOL    HW112598   3.413   4.818   0.844  1.3603  0.5471 -1.3519
  928SOL    HW212599   3.293   4.873   0.748  1.7751  2.3148 -0.8713
  929SOL     OW12600   2.833   5.263   0.490 -0.4577  0.4440 -0.0612
  929SOL    HW112601   2.804   5.168   0.500 -1.9226  0.8748 -0.0487
  929SOL    HW212602   2.823   5.291   0.395  0.3720  0.4646 -0.1458
  930SOL     OW12603   3.863   1.169   0.490  0.0378  0.0361  0.1433
  930SOL    HW112604   3.886   1.266   0.499  0.9506 -0.3241  2.0778
  930SOL    HW212605   3.885   1.122   0.576 -3.1284 -1.3227  0.2954
  931SOL     OW12606   2.686   4.276   2.227 -0.3759 -0.4661 -0.0050
  931SOL    HW112607   2.686   4.278   2.327 -1.8490  2.7904 -0.0241
  931SOL    HW212608   2.594   4.294   2.193  0.0143 -1.9821 -1.9830
  932SOL     OW12609   3.800   0.239   0.444  0.1121  0.7096  0.0192
  932SOL    HW112610   3.846   0.288   0.518  1.0279  0.6046 -0.4722
  932SOL    HW212611   3.704   0.227   0.467 -0.2652  3.2113 -0.0604
  933SOL     OW12612   2.742   4.424   1.203  0.7697 -0.6138 -0.6724
  933SOL    HW112613   2.680   4.399   1.278 -0.6294  0.5156 -1.4164
  933SOL    HW212614   2.795   4.344   1.176 -0.2262 -1.5688  0.1187
  934SOL     OW12615   3.728   4.013   0.623 -0.3511 -0.1323  0.4464
  934SOL    HW112616   3.744   3.915   0.612 -0.3287  0.0685 -1.5079
  934SOL    HW212617   3.714   4.034   0.720 -1.6829 -2.2638  0.7543
  935SOL     OW12618   2.685   2.288   1.009 -0.5798 -0.0233 -0.2208
  935SOL    HW112619   2.669   2.302   1.107 -0.3738  0.4980 -0.2572
  935SOL    HW212620   2.633   2.209   0.978 -1.2921  0.2948  0.1384
  936SOL     OW12621   0.107   8.428   2.359 -0.0245  0.5082 -0.1206
  936SOL    HW112622   0.131   8.373   2.278 -1.1112 -0.6594  0.3455
  936SOL    HW212623   0.080   8.367   2.433  0.8882  1.5891  1.1125
  937SOL     OW12624   3.705   8.904   1.134  0.7048 -0.0333  0.4280
  937SOL    HW112625   3.665   8.979   1.187 -0.3513  0.3324 -0.8716
  937SOL    HW212626   3.751   8.941   1.053 -0.6458 -0.8319 -0.7348
  938SOL     OW12627   2.505   3.609   1.923 -0.4013 -0.3419 -0.0646
  938SOL    HW112628   2.466   3.690   1.879  0.1732  0.2110  0.4503
  938SOL    HW212629   2.484   3.611   2.021  2.5286  0.9170  0.5671
  939SOL     OW12630   2.692   1.096   1.342 -0.0862  0.1936  0.1108
  939SOL    HW112631   2.649   1.068   1.256  2.7812 -0.6519 -1.0916
  939SOL    HW212632   2.621   1.116   1.410 -2.3558 -0.7932 -1.9190
  940SOL     OW12633   2.637   7.920   0.749  0.4387 -0.4106 -0.1259
  940SOL    HW112634   2.712   7.866   0.712  0.1720 -0.2645 -0.8841
  940SOL    HW212635   2.614   7.886   0.841  2.2515  0.3517  0.6297
  941SOL     OW12636   2.149   0.995   0.055  0.1373  0.0537 -0.1558
  941SOL    HW112637   2.235   1.000   0.105  1.0776 -1.7923 -1.4966
  941SOL    HW212638   2.077   0.962   0.116  0.9074 -0.6385  0.3960
  942SOL     OW12639   2.965   4.266   1.550 -0.5033  0.5191  0.3754
  942SOL    HW112640   3.001   4.198   1.486 -1.4089  1.5855 -1.2899
  942SOL    HW212641   2.984   4.358   1.516 -2.1187  1.0961  0.9863
  943SOL     OW12642   4.241   4.390   0.059  0.4458 -0.7507 -0.1264
  943SOL    HW112643   4.311   4.434   0.002  1.3760 -0.2988  1.3148
  943SOL    HW212644   4.245   4.428   0.152 -2.2462 -0.1800 -0.2090
  944SOL     OW12645   2.680   2.810   2.083 -0.5463  0.4944  0.3701
  944SOL    HW112646   2.735   2.889   2.056  0.7877 -1.0577 -1.6283
  944SOL    HW212647   2.605   2.840   2.143  0.0847  3.2086 -0.1300
  945SOL     OW12648   2.399   8.318   2.836 -0.0166  0.0536 -0.2413
  945SOL    HW112649   2.364   8.321   2.742 -0.4003 -0.2077 -0.1109
  945SOL    HW212650   2.363   8.236   2.881 -0.8268  0.8124  0.5185
  946SOL     OW12651   3.995   4.037   2.769 -0.5647  0.1304  0.0916
  946SOL    HW112652   4.088   4.032   2.733 -0.3359 -2.6970  0.9884
  946SOL    HW212653   3.931   4.056   2.694  0.7015  2.1888 -0.5119
  947SOL     OW12654   3.526   8.985   2.570  0.3981  0.1035  0.0748
  947SOL    HW112655   3.533   8.886   2.563  2.4426  0.1166  1.3765
  947SOL    HW212656   3.573   9.016   2.653  0.3599  2.2061 -0.6541
  948SOL     OW12657   2.432   3.669   2.452  0.3364  0.2647 -0.3745
  948SOL    HW112658   2.360   3.600   2.463  0.0483  0.5629 -0.3836
  948SOL    HW212659   2.481   3.652   2.367  1.0617 -0.6595  0.2240
  949SOL     OW12660   3.407   9.535   1.734  0.1023  0.3074  0.1170
  949SOL    HW112661   3.309   9.517   1.738  0.0748  0.1486 -0.9224
  949SOL    HW212662   3.451   9.504   1.818 -0.7721  0.6049  0.6873
  950SOL     OW12663   3.991   2.916   1.086 -0.6722  0.1618 -0.0919
  950SOL    HW112664   3.941   2.940   1.169 -0.6396  0.9914 -0.3069
  950SOL    HW212665   3.950   2.963   1.008  1.7183  2.5712  0.0221
  951SOL     OW12666   3.396   3.462   1.029  0.2935 -0.1607 -0.1178
  951SOL    HW112667   3.331   3.435   1.100  1.3950 -3.0261 -0.1350
  951SOL    HW212668   3.489   3.446   1.062  1.0536  3.5097 -0.2497
  952SOL     OW12669   2.835   7.042   1.695  0.4074  0.0941  0.1635
  952SOL    HW112670   2.749   7.076   1.732 -1.3172 -2.2492 -1.5282
  952SOL    HW212671   2.851   6.949   1.728  1.7518  0.1146 -0.3931
  953SOL     OW12672   2.685   7.178   2.733  0.3645  0.2080  0.0815
  953SOL    HW112673   2.763   7.221   2.686  0.6003  1.4225  1.5480
  953SOL    HW212674   2.703   7.175   2.831 -0.6312 -1.2532  0.2354
  954SOL     OW12675   3.386   5.230   1.302 -0.1658  0.8144  0.2082
  954SOL    HW112676   3.458   5.274   1.248 -0.1267  0.5748  0.0608
  954SOL    HW212677   3.301   5.230   1.250  0.1144 -0.3019 -0.2691
  955SOL     OW12678   4.119   4.611   1.903 -0.3053 -0.1052 -0.4981
  955SOL    HW112679   4.144   4.545   1.832 -5.6296 -1.2675 -1.4824
  955SOL    HW212680   4.110   4.564   1.990  1.3141  0.4242 -0.0200
  956SOL     OW12681   2.738   7.374   2.058  0.8600  0.6693 -0.1123
  956SOL    HW112682   2.837   7.368   2.048  0.6800  1.3474 -2.4761
  956SOL    HW212683   2.700   7.282   2.068  1.7238  0.4219  1.0667
  957SOL     OW12684   4.228   8.608   2.617  0.0257 -0.0618 -0.0426
  957SOL    HW112685   4.149   8.632   2.561  0.9147  1.1132 -0.8136
  957SOL    HW212686   4.309   8.659   2.585  1.3593 -2.1037  0.0043
  958SOL     OW12687   2.694   3.903   0.156  0.2309  0.5169 -0.4587
  958SOL    HW112688   2.780   3.872   0.115  1.7692  2.9921  0.7930
  958SOL    HW212689   2.617   3.867   0.103  2.0175 -1.3390 -1.8866
  959SOL     OW12690   4.327   4.502   0.586 -0.0166  0.2265  0.1390
  959SOL    HW112691   4.367   4.578   0.637 -0.1865  0.0518  0.5352
  959SOL    HW212692   4.382   4.420   0.599  1.5779  0.8649 -2.2997
  960SOL     OW12693   3.775   2.872   0.527  0.0581  0.0570 -0.2829
  960SOL    HW112694   3.727   2.786   0.510  0.2086 -0.0737 -0.0602
  960SOL    HW212695   3.715   2.949   0.506  0.3460 -0.0925 -1.6976
  961SOL     OW12696   3.805   9.095   0.946 -0.4136  0.0331  0.0195
  961SOL    HW112697   3.742   9.085   0.869 -0.6042  0.3721  0.1275
  961SOL    HW212698   3.875   9.163   0.924 -0.5402  0.2183  0.1927
  962SOL     OW12699   3.633   7.772   0.568 -0.4405  0.4446 -0.0017
  962SOL    HW112700   3.554   7.810   0.617  0.2192  1.7109  0.1026
  962SOL    HW212701   3.716   7.821   0.595  0.3487 -0.6647 -0.3474
  963SOL     OW12702   4.035   4.139   1.331  0.1839 -0.1903  0.3131
  963SOL    HW112703   3.936   4.133   1.343  0.2019 -0.4922  0.3276
  963SOL    HW212704   4.066   4.232   1.348 -0.2333  0.1426 -0.7638
  964SOL     OW12705   3.234   0.303   0.857  0.1169  0.1664  0.1890
  964SOL    HW112706   3.176   0.239   0.807  0.8117  0.4656 -1.0271
  964SOL    HW212707   3.306   0.253   0.905  0.0651 -0.0498  0.0406
  965SOL     OW12708   2.614   5.653   0.297  0.4286 -0.8258  0.6071
  965SOL    HW112709   2.581   5.732   0.348  2.4027  0.0418  0.5789
  965SOL    HW212710   2.673   5.683   0.222 -0.0075 -2.2519 -0.3384
  966SOL     OW12711   2.630   1.495   1.568 -0.0609  0.2191 -0.2052
  966SOL    HW112712   2.695   1.571   1.574  0.2880 -0.2563  2.8079
  966SOL    HW212713   2.542   1.523   1.606 -0.2391 -0.5710 -0.0186
  967SOL     OW12714   3.145   6.136   2.210 -0.2151 -0.6400  0.8870
  967SOL    HW112715   3.217   6.073   2.182  1.7390  1.4212  1.1838
  967SOL    HW212716   3.061   6.115   2.160  1.8080 -0.1980 -2.7979
  968SOL     OW12717   5.084   1.144   2.786  0.3618 -0.3561  0.1932
  968SOL    HW112718   5.150   1.078   2.822  0.2100 -0.1408  0.8732
  968SOL    HW212719   5.124   1.236   2.788  0.8776 -0.5276 -1.5241
  969SOL     OW12720   2.581   0.214   1.617  0.2983 -0.4668  0.0961
  969SOL    HW112721   2.587   0.235   1.715  1.2893  0.5321 -0.1643
  969SOL    HW212722   2.550   0.295   1.568 -1.8719 -1.4718 -0.2377
  970SOL     OW12723   4.327   0.586   2.802  0.2988  0.1424 -0.1800
  970SOL    HW112724   4.228   0.587   2.796  0.2283 -0.9347  0.7211
  970SOL    HW212725   4.366   0.611   2.713 -0.7665  0.4392 -0.5699
  971SOL     OW12726   3.958   4.068   1.726 -0.0075  0.0278 -0.5627
  971SOL    HW112727   3.959   4.030   1.819 -1.6730  2.4354  0.5040
  971SOL    HW212728   3.899   4.011   1.668  1.3607 -1.7236 -0.2953
  972SOL     OW12729   2.888   8.008   0.465 -0.4029 -0.4936  0.3376
  972SOL    HW112730   2.964   8.070   0.446 -0.5638  0.0609  1.4538
  972SOL    HW212731   2.893   7.929   0.403  1.5318 -0.8400  0.8886
  973SOL     OW12732   2.676   1.272   1.729 -0.6870 -0.0379 -0.2234
  973SOL    HW112733   2.672   1.295   1.826  0.2046  1.1202 -0.4515
  973SOL    HW212734   2.683   1.355   1.675  2.8048 -0.7843 -1.0487
  974SOL     OW12735   3.772   8.803   1.976  0.0553 -0.3044 -0.0189
  974SOL    HW112736   3.807   8.896   1.987  1.0918 -0.8202  1.2155
  974SOL    HW212737   3.849   8.739   1.968 -0.6174 -1.2130  0.6256
  975SOL     OW12738   2.782   7.081   0.714 -0.1835 -0.2587 -0.3240
  975SOL    HW112739   2.804   7.128   0.799 -0.8448 -1.1066  0.3203
  975SOL    HW212740   2.703   7.125   0.671 -1.5059 -1.4327  0.8427
  976SOL     OW12741   2.756   4.823   0.979 -0.0624 -0.0928  0.1956
  976SOL    HW112742   2.676   4.840   1.037  0.5871  3.0265  0.2531
  976SOL    HW212743   2.728   4.774   0.897 -1.5894 -1.2972  1.4004
  977SOL     OW12744   3.925   3.750   0.149 -0.0736 -0.4270  0.3375
  977SOL    HW112745   3.918   3.841   0.191 -0.4225 -0.0785 -0.4736
  977SOL    HW212746   3.946   3.683   0.220 -1.6519  0.0033  1.2427
  978SOL     OW12747   3.088   7.828   2.449 -0.3604  0.0788  0.6332
  978SOL    HW112748   3.009   7.800   2.504  0.9819 -1.6525  1.7707
  978SOL    HW212749   3.141   7.746   2.425  0.9831  1.1986 -0.2387
  979SOL     OW12750   2.691   9.432   1.060  0.1545  0.3071  0.4723
  979SOL    HW112751   2.676   9.410   0.963 -0.9189 -1.3179  0.9729
  979SOL    HW212752   2.629   9.505   1.087  0.0886  0.4076  0.0583
  980SOL     OW12753   4.177   2.117   2.491  0.1080  0.3382 -0.3436
  980SOL    HW112754   4.135   2.117   2.400 -0.5768 -0.5022 -0.0439
  980SOL    HW212755   4.108   2.141   2.560  0.2189 -0.6089  0.1071
  981SOL     OW12756   2.725   1.432   2.362  0.7211 -0.1350  0.5034
  981SOL    HW112757   2.758   1.488   2.438 -0.0205  0.9489  0.0283
  981SOL    HW212758   2.786   1.442   2.284  0.2542  0.4726  0.2191
  982SOL     OW12759   3.060   0.683   2.188  0.6974 -0.3350  0.3098
  982SOL    HW112760   2.998   0.627   2.134  0.6190  2.8867 -3.1611
  982SOL    HW212761   3.149   0.636   2.195  0.8816 -0.6359 -3.1455
  983SOL     OW12762   2.308   8.167   0.184 -0.1967 -0.3731 -0.3854
  983SOL    HW112763   2.241   8.235   0.212  0.2282  0.5402 -1.5158
  983SOL    HW212764   2.301   8.086   0.242 -0.4821  0.7727  1.2098
  984SOL     OW12765   3.625   3.384   0.682  0.5795 -0.0386 -0.0883
  984SOL    HW112766   3.547   3.442   0.660  0.1205 -0.1455  1.1782
  984SOL    HW212767   3.592   3.292   0.703  1.0049  0.0258  0.8704
  985SOL     OW12768   3.975   3.398   2.095  0.3745  0.4447 -0.0593
  985SOL    HW112769   3.943   3.345   2.174 -0.6587 -2.1729 -2.1365
  985SOL    HW212770   3.909   3.471   2.075  1.3202  2.0030  2.2476
  986SOL     OW12771   4.048   2.369   0.618 -0.3573  0.7454  0.1006
  986SOL    HW112772   4.126   2.308   0.605 -0.2867  0.5786  1.2739
  986SOL    HW212773   3.979   2.350   0.548 -0.2096 -0.4785  0.2760
  987SOL     OW12774   2.934   9.625   1.989 -0.2013 -0.0054 -0.5158
  987SOL    HW112775   2.879   9.541   1.995  0.6696 -0.7542 -2.5936
  987SOL    HW212776   2.881   9.702   2.023 -1.1596 -1.3315  1.0539
  988SOL     OW12777   3.219   6.388   0.085 -0.6966 -0.2354  0.3282
  988SOL    HW112778   3.178   6.423   0.000 -0.2403 -1.2284 -0.3132
  988SOL    HW212779   3.280   6.457   0.123  0.4448 -0.4210 -1.0984
  989SOL     OW12780   2.452   8.573   2.786  0.5396  0.5570 -0.1379
  989SOL    HW112781   2.443   8.474   2.776  0.4716  0.6025 -0.5363
  989SOL    HW212782   2.375   8.609   2.839 -0.5353  0.6699 -1.7606
  990SOL     OW12783   3.964   5.084   2.305  0.0152  0.1090  0.4913
  990SOL    HW112784   4.044   5.064   2.361 -1.6863 -0.8526  2.6403
  990SOL    HW212785   3.916   4.998   2.285  2.0409  0.0159 -4.7942
  991SOL     OW12786   4.468   1.334   0.043 -0.5970 -0.1502  0.0310
  991SOL    HW112787   4.466   1.412   0.106 -0.0618  0.6302 -0.9001
  991SOL    HW212788   4.553   1.283   0.056  0.0473  0.6772 -0.8326
  992SOL     OW12789   3.454   3.575   2.018  0.1722 -0.3010 -0.4307
  992SOL    HW112790   3.474   3.663   1.974 -1.3521  0.0075 -0.5502
  992SOL    HW212791   3.355   3.558   2.013  0.3433 -1.5690  0.4465
  993SOL     OW12792   3.113   3.327   2.388  0.1821  0.2096 -0.2133
  993SOL    HW112793   3.101   3.423   2.411  0.0448 -0.8210  4.3793
  993SOL    HW212794   3.210   3.307   2.377  0.3701  0.4602  0.9284
  994SOL     OW12795   4.436   4.014   2.439 -0.3004 -0.1712  0.1609
  994SOL    HW112796   4.520   4.065   2.457  0.8704 -1.5180 -1.3047
  994SOL    HW212797   4.359   4.077   2.430  0.5735  1.0786  1.4469
  995SOL     OW12798   2.515   0.128   0.517  0.0754  0.3205 -0.0705
  995SOL    HW112799   2.478   0.210   0.560  0.5638  0.9216 -0.7795
  995SOL    HW212800   2.530   0.058   0.586  0.2871  1.0587  0.6370
  996SOL     OW12801   3.400   4.569   0.425  0.2523  0.2524  0.3503
  996SOL    HW112802   3.437   4.592   0.515  0.2667 -0.8321  0.6334
  996SOL    HW212803   3.439   4.482   0.395  0.0808  0.5046 -0.6094
  997SOL     OW12804   2.447   3.820   0.086 -0.3668  0.0715 -0.4178
  997SOL    HW112805   2.354   3.800   0.117 -0.2665 -0.4182 -0.4148
  997SOL    HW212806   2.446   3.842  -0.011 -0.2863 -1.5780 -0.8104
  998SOL     OW12807   3.084   5.042   2.642  1.4362  0.4630  0.1023
  998SOL    HW112808   3.064   5.029   2.545  0.9097  0.3594  0.2182
  998SOL    HW212809   3.079   4.953   2.689 -1.3708  0.9128  0.7552
  999SOL     OW12810   4.912   3.739   0.898  0.3569  0.3444 -0.4224
  999SOL    HW112811   4.871   3.783   0.978 -0.3431  1.8891 -1.6063
  999SOL    HW212812   4.971   3.663   0.928 -1.7619 -0.6314  1.4257
 1000SOL     OW12813   4.251   4.194   2.362 -0.3274 -0.8783  0.0716
 1000SOL    HW112814   4.209   4.238   2.441 -0.6742  0.2642 -0.7297
 1000SOL    HW212815   4.262   4.261   2.289  1.0658 -1.6399 -0.4349
 1001SOL     OW12816   3.843   2.266   0.155 -0.3700 -0.1136 -0.3235
 1001SOL    HW112817   3.747   2.270   0.130 -0.4973 -2.2166 -0.2719
 1001SOL    HW212818   3.888   2.351   0.129 -2.3891  1.1810  0.3486
 1002SOL     OW12819   2.963   1.926   0.277 -0.4134  0.0993  0.1678
 1002SOL    HW112820   2.964   2.024   0.260  0.5058  0.0511 -0.0603
 1002SOL    HW212821   3.007   1.878   0.201  1.5617 -0.3034  1.5289
 1003SOL     OW12822   2.726   2.320   0.409 -0.9801  0.0886  0.2760
 1003SOL    HW112823   2.724   2.244   0.474 -0.2223  1.2991  1.7352
 1003SOL    HW212824   2.638   2.367   0.409 -0.4093  1.1545  1.7076
 1004SOL     OW12825   2.294   0.946   2.633  0.7222  0.3562 -0.6813
 1004SOL    HW112826   2.277   1.003   2.713  2.4886  0.6212 -0.4801
 1004SOL    HW212827   2.206   0.917   2.594 -0.1636  0.6395  1.0346
 1005SOL     OW12828   4.938   3.139   0.788 -0.7650 -0.1103 -0.0199
 1005SOL    HW112829   5.023   3.191   0.786  0.3494 -1.9577 -0.6853
 1005SOL    HW212830   4.943   3.069   0.859 -1.0057 -1.4350 -1.2928
 1006SOL     OW12831   3.522   1.867   0.825 -0.4255 -0.0449  1.0891
 1006SOL    HW112832   3.459   1.789   0.820 -1.1477  0.2656  4.1286
 1006SOL    HW212833   3.474   1.945   0.866  0.4102  1.8837 -1.5099
 1007SOL     OW12834   4.233   4.734   1.104  0.4653 -0.7396  0.1617
 1007SOL    HW112835   4.215   4.796   1.180  0.5999  1.2061 -1.3620
 1007SOL    HW212836   4.163   4.745   1.034  1.4147 -1.0850 -0.8663
 1008SOL     OW12837   3.053   2.291   0.954 -0.6234 -0.5612  0.2417
 1008SOL    HW112838   3.029   2.346   1.034 -2.1962  0.6248 -1.0092
 1008SOL    HW212839   3.125   2.336   0.903 -0.1581 -0.9299  0.5721
 1009SOL     OW12840   2.418   6.431   2.034 -0.3400  0.3964 -0.3201
 1009SOL    HW112841   2.459   6.403   1.948 -1.6955 -1.5486 -0.3658
 1009SOL    HW212842   2.430   6.358   2.102  1.0191  2.0417  1.2404
 1010SOL     OW12843   5.021   3.051   1.166 -0.7640 -0.2147  0.0599
 1010SOL    HW112844   4.989   3.144   1.148  0.2653  0.2541  0.6257
 1010SOL    HW212845   5.056   3.046   1.259  2.7942 -0.1471 -1.2202
 1011SOL     OW12846   3.806   8.161   1.685 -0.5471  0.2747 -0.9796
 1011SOL    HW112847   3.780   8.186   1.778 -0.0759  1.0960 -1.0632
 1011SOL    HW212848   3.833   8.243   1.635  2.0144 -0.5280 -0.9509
 1012SOL     OW12849   2.533   5.125   0.260 -0.3403 -0.2944  0.1546
 1012SOL    HW112850   2.612   5.086   0.307 -0.4033  2.3460  2.5489
 1012SOL    HW212851   2.530   5.223   0.276 -2.3395  0.1426 -2.5658
 1013SOL     OW12852   4.298   1.585   0.541 -0.7394  0.4826 -0.1356
 1013SOL    HW112853   4.255   1.598   0.452 -1.5394  4.9361  0.7747
 1013SOL    HW212854   4.387   1.631   0.542  0.3629 -1.5836  0.6607
 1014SOL     OW12855   2.883   0.897   0.722 -0.1721 -0.1448 -0.9257
 1014SOL    HW112856   2.887   0.913   0.821 -0.7647 -0.9043 -0.7710
 1014SOL    HW212857   2.801   0.844   0.700 -0.4435  0.6717 -1.9214
 1015SOL     OW12858   3.088   8.940   1.101  0.3774  0.8577  0.4087
 1015SOL    HW112859   3.110   8.990   1.017 -0.6411 -0.5105 -0.6906
 1015SOL    HW212860   3.117   8.845   1.092 -0.1372  0.5962  1.4472
 1016SOL     OW12861   4.194   2.012   1.915  0.5651 -0.1181  0.3765
 1016SOL    HW112862   4.239   1.963   1.990  0.8434 -1.0176 -0.3596
 1016SOL    HW212863   4.128   2.077   1.952  0.8241 -0.4338  1.4040
 1017SOL     OW12864   2.543   1.499   1.289  0.3566  0.6261 -0.7283
 1017SOL    HW112865   2.488   1.582   1.281  2.0961  1.8511 -0.2565
 1017SOL    HW212866   2.549   1.471   1.385  2.7944  2.0923 -0.4060
 1018SOL     OW12867   2.321   8.327   2.597 -0.2260  0.3986 -0.1806
 1018SOL    HW112868   2.256   8.307   2.525 -1.6557 -0.6710  1.3635
 1018SOL    HW212869   2.414   8.325   2.561 -0.7991 -2.0499 -1.5630
 1019SOL     OW12870   3.208   8.883   0.514  0.0140  0.5178  0.0141
 1019SOL    HW112871   3.267   8.962   0.525  0.3534 -0.0230  2.2826
 1019SOL    HW212872   3.263   8.803   0.489 -0.3910  1.0771 -2.8178
 1020SOL     OW12873   3.259   2.182   1.523  0.2231  0.1689  0.2289
 1020SOL    HW112874   3.343   2.128   1.513 -0.4996 -0.8059 -0.7356
 1020SOL    HW212875   3.226   2.208   1.432 -0.6541  0.3214  0.5933
 1021SOL     OW12876   3.978   5.052   1.933  0.1114 -0.1571  0.0223
 1021SOL    HW112877   4.027   5.064   2.019 -1.9455 -0.9517  1.3477
 1021SOL    HW212878   3.955   4.955   1.921 -0.3419  0.0728 -1.0213
 1022SOL     OW12879   2.931   8.261   1.572 -0.2278 -0.2995 -0.1740
 1022SOL    HW112880   2.967   8.331   1.634  1.1605 -1.3386  0.2362
 1022SOL    HW212881   2.982   8.263   1.486 -2.4079  1.3917 -1.4686
 1023SOL     OW12882   3.301   0.421   1.370 -0.4508  0.6116 -0.2110
 1023SOL    HW112883   3.387   0.370   1.369  0.0721  1.4427  0.8760
 1023SOL    HW212884   3.225   0.360   1.349  0.2673 -0.4008  0.1058
 1024SOL     OW12885   2.603   0.615   0.033  0.7202 -0.3638 -0.0404
 1024SOL    HW112886   2.613   0.527   0.079  0.2082 -0.3302  0.1307
 1024SOL    HW212887   2.512   0.652   0.048  0.2575 -0.7460 -1.7705
 1025SOL     OW12888   3.225   8.035   0.778 -0.6497  0.4440  0.1084
 1025SOL    HW112889   3.297   8.097   0.808 -0.1818  0.7417 -1.5903
 1025SOL    HW212890   3.135   8.073   0.802 -0.3401  1.4459 -0.3102
 1026SOL     OW12891   4.984   1.505   0.237  0.0650  0.2017  0.0869
 1026SOL    HW112892   4.958   1.598   0.265 -1.6731 -0.4658  0.7398
 1026SOL    HW212893   4.989   1.446   0.317 -2.0035 -1.0128 -0.6346
 1027SOL     OW12894   2.923   7.282   2.622  0.0581 -0.3297  0.3036
 1027SOL    HW112895   2.933   7.325   2.533 -0.1797 -0.1469  0.3640
 1027SOL    HW212896   2.987   7.206   2.630  0.7132  0.2229  0.3279
 1028SOL     OW12897   3.500   8.346   1.188 -0.2143  0.3594  0.2259
 1028SOL    HW112898   3.511   8.413   1.115 -0.0637 -0.7908 -0.8326
 1028SOL    HW212899   3.417   8.366   1.240  0.7315  2.3610  1.0253
 1029SOL     OW12900   4.736   4.324   2.670  0.1996 -0.2730  0.0321
 1029SOL    HW112901   4.726   4.243   2.612  0.7445 -0.1454 -0.2412
 1029SOL    HW212902   4.801   4.305   2.743  0.8603  0.1451 -0.4448
 1030SOL     OW12903   4.428   2.876   2.152  0.0182  0.1438 -0.1837
 1030SOL    HW112904   4.458   2.793   2.199  0.8179  0.9011  0.6851
 1030SOL    HW212905   4.331   2.869   2.130  0.2689 -1.3569 -0.8722
 1031SOL     OW12906   3.397   0.863   2.712  0.4929 -0.1016 -0.5016
 1031SOL    HW112907   3.404   0.949   2.763 -0.0601 -1.4310  1.9302
 1031SOL    HW212908   3.328   0.872   2.640  1.6395  1.9828 -1.3839
 1032SOL     OW12909   2.196   2.150   0.666 -0.4156  0.2537  0.0328
 1032SOL    HW112910   2.278   2.146   0.610 -0.6176  0.6465 -0.2962
 1032SOL    HW212911   2.206   2.090   0.746  0.3466  0.6124  0.2088
 1033SOL     OW12912   2.920   8.451   0.417 -0.3573  0.1488 -0.1309
 1033SOL    HW112913   2.831   8.405   0.406 -0.5547  0.1222  1.4768
 1033SOL    HW212914   2.913   8.520   0.490  0.3060  1.7985 -1.5840
 1034SOL     OW12915   3.361   5.934   0.735 -0.0375  0.0370 -0.4741
 1034SOL    HW112916   3.433   5.999   0.759  0.8421 -0.0568 -2.7159
 1034SOL    HW212917   3.393   5.876   0.660 -1.1783 -2.3400  0.8326
 1035SOL     OW12918   3.018   8.567   1.251 -0.0594 -0.8565 -0.6131
 1035SOL    HW112919   2.988   8.617   1.332  1.1078 -1.2926  0.1079
 1035SOL    HW212920   2.939   8.536   1.199 -0.8139 -0.7690  0.4762
 1036SOL     OW12921   3.391   2.895   2.515 -0.3054  0.1196  0.0020
 1036SOL    HW112922   3.406   2.822   2.581 -1.4982  1.8529  2.2551
 1036SOL    HW212923   3.440   2.977   2.544 -1.8702  1.2889 -0.5913
 1037SOL     OW12924   2.410   4.885   0.165  0.0754  0.5498 -0.5519
 1037SOL    HW112925   2.487   4.822   0.158  0.1556  0.7014 -1.0469
 1037SOL    HW212926   2.444   4.979   0.175 -0.0233  0.3573  1.9639
 1038SOL     OW12927   4.559   8.401   0.679 -0.1412 -0.0324 -0.0675
 1038SOL    HW112928   4.537   8.433   0.587  0.4573  0.1400 -0.1533
 1038SOL    HW212929   4.550   8.477   0.744 -2.3742 -0.5962  0.3092
 1039SOL     OW12930   2.234   8.774   0.454 -0.8027 -0.0896  0.1909
 1039SOL    HW112931   2.255   8.688   0.499  0.7740  0.5220  0.6739
 1039SOL    HW212932   2.311   8.801   0.396 -0.6804  1.6803  1.1329
 1040SOL     OW12933   2.810   6.363   1.065 -0.6877 -0.1481  0.4993
 1040SOL    HW112934   2.781   6.267   1.064  0.4689 -0.5070  0.1587
 1040SOL    HW212935   2.899   6.371   1.019 -0.4446  0.9759  1.1556
 1041SOL     OW12936   2.580   6.917   2.555  0.3023 -0.2548 -0.1995
 1041SOL    HW112937   2.624   6.991   2.605 -0.1907 -0.3050  0.3165
 1041SOL    HW212938   2.482   6.916   2.575 -0.4848  1.6455 -3.5419
 1042SOL     OW12939   3.782   0.509   2.460 -0.2870  0.2390 -0.5533
 1042SOL    HW112940   3.729   0.587   2.427 -3.1144 -1.4092 -0.1542
 1042SOL    HW212941   3.720   0.445   2.507  2.2249 -1.4508  0.5556
 1043SOL     OW12942   3.310   8.787   2.270 -0.2003  0.0636 -0.0672
 1043SOL    HW112943   3.292   8.806   2.174 -0.7743  0.8070  0.1744
 1043SOL    HW212944   3.393   8.835   2.298 -0.3375  0.3006 -0.0595
 1044SOL     OW12945   2.513   3.444   1.688  0.1938  0.6749 -0.2424
 1044SOL    HW112946   2.467   3.463   1.775  0.9910 -2.7533  0.9915
 1044SOL    HW212947   2.587   3.510   1.675 -1.1156  2.4059  0.6994
 1045SOL     OW12948   2.717   6.605   0.394 -0.0310  0.4265  0.2634
 1045SOL    HW112949   2.754   6.586   0.485  0.9371 -0.7919 -0.3614
 1045SOL    HW212950   2.623   6.639   0.402 -0.1617 -0.2484  1.6806
 1046SOL     OW12951   2.670   8.775   1.671 -0.0034  0.0983  0.6133
 1046SOL    HW112952   2.613   8.764   1.589  0.3452  0.9030  0.2621
 1046SOL    HW212953   2.716   8.688   1.691 -0.2777 -0.1688  0.1009
 1047SOL     OW12954   2.282   0.799   2.225 -0.1569 -0.6750  0.6165
 1047SOL    HW112955   2.357   0.842   2.276 -2.0048  2.8490  0.5495
 1047SOL    HW212956   2.204   0.785   2.286 -0.2981 -2.0990  0.1289
 1048SOL     OW12957   4.637   3.069   2.656 -0.3065 -0.2563 -0.4603
 1048SOL    HW112958   4.547   3.097   2.623  0.1486 -0.5710 -1.9951
 1048SOL    HW212959   4.696   3.049   2.578  0.8336 -0.8781  0.5530
 1049SOL     OW12960   3.728   3.247   1.300  0.1484  0.1364 -0.4448
 1049SOL    HW112961   3.781   3.276   1.379 -0.1207  0.5149 -0.4013
 1049SOL    HW212962   3.754   3.302   1.220  0.8475 -0.6472 -0.7646
 1050SOL     OW12963   3.209   8.891   1.607 -0.4989  0.1535 -0.2905
 1050SOL    HW112964   3.162   8.978   1.592 -0.5529  0.3287  0.8630
 1050SOL    HW212965   3.262   8.867   1.526 -2.4251  0.0457 -1.5529
 1051SOL     OW12966   3.286   5.238   0.763  0.4146 -0.1487  0.1956
 1051SOL    HW112967   3.249   5.246   0.855  0.6867  1.0982  0.2056
 1051SOL    HW212968   3.295   5.141   0.739 -0.8605 -0.4793  0.9867
 1052SOL     OW12969   2.626   8.040   1.896  0.2976  0.1051 -0.4860
 1052SOL    HW112970   2.673   8.027   1.983 -0.5775 -0.0718 -0.0285
 1052SOL    HW212971   2.692   8.041   1.822  1.3178  2.6280  0.4000
 1053SOL     OW12972   2.112   2.579   0.505  0.6471 -0.3471 -0.0624
 1053SOL    HW112973   2.064   2.606   0.422  0.7762 -2.0045 -0.6843
 1053SOL    HW212974   2.060   2.509   0.553  1.0442 -0.0878  0.7524
 1054SOL     OW12975   2.963   8.110   0.875  0.3241 -0.4599 -0.2148
 1054SOL    HW112976   3.018   8.177   0.926  0.7091 -1.3745  0.6017
 1054SOL    HW212977   2.869   8.142   0.868  0.8323  0.8603 -1.1227
 1055SOL     OW12978   4.726   1.489   0.046  0.4801  1.0978 -0.4280
 1055SOL    HW112979   4.749   1.582   0.073 -1.2607  1.5604 -0.4586
 1055SOL    HW212980   4.690   1.490  -0.048 -0.2726  0.5078 -0.1479
 1056SOL     OW12981   3.466   1.135   0.084 -0.5022  0.7468 -0.8104
 1056SOL    HW112982   3.528   1.057   0.091  1.2016  2.1916  0.7247
 1056SOL    HW212983   3.483   1.184  -0.001 -0.6361  0.2602 -1.1229
 1057SOL     OW12984   3.346   4.096   0.054  0.4221 -0.0078 -0.0073
 1057SOL    HW112985   3.369   3.999   0.060 -2.3270 -0.6791  0.3363
 1057SOL    HW212986   3.405   4.140  -0.014  4.0870 -1.1181  2.2644
 1058SOL     OW12987   2.333   9.935   0.111  0.2704 -0.1410  0.2786
 1058SOL    HW112988   2.294   9.892   0.193 -1.5124 -0.0618 -0.5133
 1058SOL    HW212989   2.392  10.011   0.138 -2.8666  1.9656  1.3946
 1059SOL     OW12990   3.784   4.630   0.648  0.2834  0.0481 -0.7423
 1059SOL    HW112991   3.699   4.646   0.598  1.0828  2.8316 -1.3136
 1059SOL    HW212992   3.772   4.555   0.713 -3.4000  2.0481  1.0356
 1060SOL     OW12993   4.847   3.834   2.717  0.3939  0.3466  0.2023
 1060SOL    HW112994   4.758   3.873   2.696  1.1392 -0.0673 -4.2779
 1060SOL    HW212995   4.914   3.908   2.728  0.1945  0.5591 -0.0015
 1061SOL     OW12996   3.212   7.898   2.665  0.2851  0.5235 -0.0304
 1061SOL    HW112997   3.175   7.868   2.577  2.3426 -0.2784 -0.6460
 1061SOL    HW212998   3.285   7.965   2.650  2.1346 -1.2051  0.9121
 1062SOL     OW12999   2.921   7.920   1.070  0.3267  0.1462  0.5819
 1062SOL    HW113000   2.940   7.998   1.010 -3.2026 -0.8578 -2.0101
 1062SOL    HW213001   2.969   7.839   1.036  0.2354  0.1193  0.5168
 1063SOL     OW13002   2.769   3.869   2.657 -0.4456 -0.0465 -0.5538
 1063SOL    HW113003   2.677   3.847   2.692 -0.8932 -0.0139 -1.7034
 1063SOL    HW213004   2.826   3.786   2.660 -0.8394 -0.3303 -0.8512
 1064SOL     OW13005   3.658   8.736   2.538  0.4886  0.1638  0.5761
 1064SOL    HW113006   3.659   8.716   2.440  0.2824  0.0491  0.5976
 1064SOL    HW213007   3.647   8.651   2.589  1.0755  0.1731  0.7136
 1065SOL     OW13008   4.528   0.805   1.196  0.1648 -0.5254 -0.2722
 1065SOL    HW113009   4.478   0.861   1.262  0.2510 -0.2696 -0.4217
 1065SOL    HW213010   4.615   0.849   1.175  0.1617 -0.6353 -0.5139
 1066SOL     OW13011   2.994   2.918   1.882  0.0603  0.8240 -0.2389
 1066SOL    HW113012   2.896   2.940   1.877  0.2321  1.5225 -0.6458
 1066SOL    HW213013   3.038   2.947   1.797  0.6643  0.7420  0.0480
 1067SOL     OW13014   2.677   8.764   1.095 -0.1976 -0.3704  0.1531
 1067SOL    HW113015   2.642   8.693   1.034 -1.2260  0.8190 -0.6754
 1067SOL    HW213016   2.680   8.730   1.189  1.5718 -2.2855 -0.5581
 1068SOL     OW13017   2.960   0.808   1.807 -0.1725  0.4491 -0.4734
 1068SOL    HW113018   3.040   0.769   1.852  0.6768  1.7021 -0.8991
 1068SOL    HW213019   2.915   0.873   1.868 -0.9614 -0.3598 -0.1785
 1069SOL     OW13020   3.031   4.009   1.465 -0.1984  0.0545  0.1233
 1069SOL    HW113021   2.978   3.930   1.436 -1.2742  0.7568  0.1225
 1069SOL    HW213022   3.111   4.019   1.407 -0.1280 -0.9552  0.0414
 1070SOL     OW13023   4.461   1.950   0.220 -0.3554  0.1132  0.3253
 1070SOL    HW113024   4.441   1.913   0.311 -1.4267  0.3058  0.1682
 1070SOL    HW213025   4.475   2.049   0.227 -1.9945  0.3798  0.0518
 1071SOL     OW13026   4.559   3.812   2.067 -0.0959 -0.2040  0.1446
 1071SOL    HW113027   4.643   3.762   2.047 -0.4032 -0.7930  0.2936
 1071SOL    HW213028   4.529   3.861   1.985  0.4521  0.0995  0.1245
 1072SOL     OW13029   2.719   2.764   0.576  0.5953 -0.0439 -0.4858
 1072SOL    HW113030   2.758   2.850   0.544  1.6602  0.1706  1.2698
 1072SOL    HW213031   2.637   2.741   0.523 -0.7875  3.0069  0.2358
 1073SOL     OW13032   2.554   2.887   1.576 -0.1365 -0.3879  0.2833
 1073SOL    HW113033   2.522   2.867   1.669  0.0525 -1.4679  0.1230
 1073SOL    HW213034   2.604   2.808   1.541  0.9221  0.5172 -0.2458
 1074SOL     OW13035   2.575   8.512   2.262  0.7887  0.5600 -0.4500
 1074SOL    HW113036   2.670   8.486   2.280  0.4414 -0.5454 -0.1824
 1074SOL    HW213037   2.514   8.457   2.319 -0.0850  0.3872 -1.5375
 1075SOL     OW13038   2.709   0.946   1.738 -0.2254 -0.2754 -0.3756
 1075SOL    HW113039   2.782   0.909   1.795 -0.7502 -1.7849 -0.6753
 1075SOL    HW213040   2.719   1.045   1.731  1.0235 -0.3255  0.6662
 1076SOL     OW13041   2.104   4.039   1.905 -0.2920 -0.6291  0.0633
 1076SOL    HW113042   2.096   4.119   1.845 -0.9748 -0.5161  0.2947
 1076SOL    HW213043   2.036   4.046   1.978  0.1715 -1.0336  0.5409
 1077SOL     OW13044   4.751   0.985   1.102  0.1195 -0.4444 -0.3103
 1077SOL    HW113045   4.680   1.055   1.089 -0.5517 -0.6682  1.7971
 1077SOL    HW213046   4.773   0.943   1.015 -0.8800  1.0560 -1.3182
 1078SOL     OW13047   3.307   0.606   2.290 -0.4141 -0.2643  0.5498
 1078SOL    HW113048   3.392   0.592   2.239 -0.8822 -0.5176 -0.1663
 1078SOL    HW213049   3.313   0.691   2.342 -1.0646  1.5944 -2.3007
 1079SOL     OW13050   3.134   2.626   0.823 -0.0171 -0.6054 -0.1285
 1079SOL    HW113051   3.181   2.712   0.802 -1.2708  0.0743 -0.2266
 1079SOL    HW213052   3.060   2.612   0.757 -0.6587 -1.0943  0.6882
 1080SOL     OW13053   2.937   1.676   2.475 -0.2751 -0.8085 -0.4076
 1080SOL    HW113054   3.028   1.635   2.476  0.7219  1.3615  1.2751
 1080SOL    HW213055   2.941   1.769   2.512 -3.1262 -0.5670 -0.5563
 1081SOL     OW13056   4.316   1.832   1.238 -0.0038 -0.2219  0.7538
 1081SOL    HW113057   4.310   1.748   1.184  0.3080  0.9233 -1.0769
 1081SOL    HW213058   4.354   1.905   1.183 -1.2728  1.4328  1.9988
 1082SOL     OW13059   3.949   1.847   1.700 -0.2832 -0.7394  0.2004
 1082SOL    HW113060   3.992   1.866   1.612  1.3993  0.9108  1.3451
 1082SOL    HW213061   3.972   1.754   1.729  0.3830 -0.7685 -0.4103
 1083SOL     OW13062   2.637   7.944   0.359 -0.1557 -0.2025 -0.3692
 1083SOL    HW113063   2.636   8.002   0.278 -0.6640 -0.7908 -0.7984
 1083SOL    HW213064   2.710   7.973   0.421  0.2377  0.2496 -1.0385
 1084SOL     OW13065   2.751   9.988   1.682  0.0376 -0.3708 -0.4679
 1084SOL    HW113066   2.690  10.066   1.665  0.0129 -0.3132 -0.1270
 1084SOL    HW213067   2.699   9.903   1.677 -0.0086 -0.3426 -0.4763
 1085SOL     OW13068   3.549   8.561   2.147 -0.3648 -0.5958 -0.5858
 1085SOL    HW113069   3.477   8.570   2.216 -1.6731 -0.6841 -1.9175
 1085SOL    HW213070   3.547   8.641   2.087 -0.8132 -1.6466 -1.9882
 1086SOL     OW13071   3.118   2.240   1.757 -0.1810 -0.2980 -0.1556
 1086SOL    HW113072   3.166   2.219   1.671  0.4373  0.3978  0.0141
 1086SOL    HW213073   3.129   2.338   1.778 -0.8972 -0.3260  0.3680
 1087SOL     OW13074   2.480   9.821   2.360 -0.2739  0.1117 -0.5021
 1087SOL    HW113075   2.503   9.728   2.330  2.0243  0.4369  0.1674
 1087SOL    HW213076   2.517   9.837   2.451  0.3943  2.0984 -1.1040
 1088SOL     OW13077   3.518   0.554   2.126 -0.6311  0.1578  0.3100
 1088SOL    HW113078   3.592   0.490   2.145 -0.7960  0.2141  1.1805
 1088SOL    HW213079   3.474   0.529   2.040  1.0134  0.7214 -0.7054
 1089SOL     OW13080   2.281   4.632   0.284  0.3573 -0.2300 -0.5772
 1089SOL    HW113081   2.305   4.712   0.229  0.3642 -0.1374 -0.4392
 1089SOL    HW213082   2.323   4.639   0.374  0.0145 -0.1893 -0.4208
 1090SOL     OW13083   3.116   5.038   0.270 -0.3424 -0.0098  0.2298
 1090SOL    HW113084   3.140   5.135   0.276 -0.7434  0.2346 -1.9414
 1090SOL    HW213085   3.020   5.029   0.244  0.0523 -0.9818 -0.9100
 1091SOL     OW13086   3.051   3.986   2.308 -0.7439  0.1730  0.2611
 1091SOL    HW113087   3.061   3.919   2.235  1.2344  0.6604  0.0412
 1091SOL    HW213088   3.036   4.077   2.270 -1.9682  0.0899  0.5252
 1092SOL     OW13089   3.682   2.615   0.474 -0.4251  0.0035  0.5450
 1092SOL    HW113090   3.758   2.557   0.446 -0.1121  0.0814  1.2068
 1092SOL    HW213091   3.597   2.579   0.437 -0.3694 -1.4906  1.8106
 1093SOL     OW13092   2.195   1.526   1.403 -0.1362 -0.9920 -0.7141
 1093SOL    HW113093   2.099   1.503   1.413 -0.5436  0.7604 -0.3682
 1093SOL    HW213094   2.229   1.496   1.314 -1.0777 -1.3516 -0.9460
 1094SOL     OW13095   3.997   0.995   0.707  0.7908  0.1194 -0.4557
 1094SOL    HW113096   3.992   0.895   0.702  1.9670 -0.0199  0.9491
 1094SOL    HW213097   4.092   1.024   0.712  0.3996  1.1161  2.3071
 1095SOL     OW13098   3.951   7.772   0.391 -0.0629  0.5259  0.6453
 1095SOL    HW113099   3.957   7.767   0.291 -0.7147 -0.1368  0.6402
 1095SOL    HW213100   3.892   7.699   0.425 -0.9725  1.6013  1.4046
 1096SOL     OW13101   3.028   4.018   0.238  0.0859  0.1584  0.1832
 1096SOL    HW113102   2.979   4.025   0.151 -0.2351  0.0229  0.3509
 1096SOL    HW213103   3.076   4.103   0.256 -1.3826  0.8789  0.7842
 1097SOL     OW13104   3.226   0.503   0.259 -0.0511 -0.3549  0.1228
 1097SOL    HW113105   3.222   0.540   0.352  1.3680 -0.5524  0.2732
 1097SOL    HW213106   3.231   0.403   0.263 -1.4983 -0.4558 -0.2190
 1098SOL     OW13107   3.184   3.648   0.832 -0.3424 -0.2615  0.0684
 1098SOL    HW113108   3.263   3.660   0.892  0.3578  0.2006 -0.9305
 1098SOL    HW213109   3.117   3.588   0.876 -0.8377  1.8083  2.2563
 1099SOL     OW13110   4.411   1.971   2.587 -0.4071  0.2839 -0.5624
 1099SOL    HW113111   4.328   2.019   2.560 -0.2201  0.6274 -0.5200
 1099SOL    HW213112   4.394   1.918   2.670 -0.4397  0.7611 -0.2649
 1100SOL     OW13113   2.853   0.454   1.469 -0.3917 -0.3589 -0.2468
 1100SOL    HW113114   2.901   0.396   1.536 -0.9372 -0.5092  0.0109
 1100SOL    HW213115   2.799   0.396   1.408 -2.9089  0.0060  1.5402
 1101SOL     OW13116   2.702   8.644   1.357 -0.5423 -0.2055 -0.3247
 1101SOL    HW113117   2.752   8.700   1.423  2.0392 -1.0253 -1.5375
 1101SOL    HW213118   2.663   8.565   1.403 -0.7419  0.4368  0.6343
 1102SOL     OW13119   2.785   4.011   1.624 -0.0030  0.0747 -0.3729
 1102SOL    HW113120   2.827   3.981   1.710  0.1726 -0.9775 -0.8281
 1102SOL    HW213121   2.854   4.056   1.568  0.2182 -0.5070 -0.5696
 1103SOL     OW13122   2.637   2.705   1.826 -0.1003 -0.1935  0.2845
 1103SOL    HW113123   2.716   2.754   1.790  0.6721 -0.9814  0.8805
 1103SOL    HW213124   2.625   2.728   1.923 -0.8343  0.2166  0.1006
 1104SOL     OW13125   2.975   2.842   0.124  0.8865  0.4515 -0.0900
 1104SOL    HW113126   3.059   2.830   0.071  0.1069  0.8792 -1.4550
 1104SOL    HW213127   2.985   2.798   0.213  2.0262 -0.7467 -0.7969
 1105SOL     OW13128   3.169   2.507   2.093  0.0760 -0.1986 -0.2021
 1105SOL    HW113129   3.145   2.466   2.182  0.3653 -0.2031 -0.1262
 1105SOL    HW213130   3.139   2.602   2.092  0.1075 -0.1867 -0.0830
 1106SOL     OW13131   3.738   8.196   0.761  0.8547  0.6464 -0.0769
 1106SOL    HW113132   3.765   8.259   0.688  1.1593  2.7942  1.8189
 1106SOL    HW213133   3.780   8.107   0.745  1.2474  1.1830 -2.2866
 1107SOL     OW13134   2.593   3.635   2.218  0.0986  0.3213  0.0032
 1107SOL    HW113135   2.641   3.722   2.207  0.5191  0.3301  1.7483
 1107SOL    HW213136   2.658   3.563   2.243 -0.2010 -0.5710 -1.7128
 1108SOL     OW13137   3.023   3.295   0.777  0.1472 -0.6967  0.0026
 1108SOL    HW113138   3.119   3.323   0.778  0.1220 -0.6107  1.3354
 1108SOL    HW213139   2.975   3.341   0.851 -0.7272 -1.4296 -0.1066
 1109SOL     OW13140   3.758   2.513   1.462 -0.0298 -0.2462 -0.3218
 1109SOL    HW113141   3.815   2.464   1.527  2.0676 -0.1151 -1.9961
 1109SOL    HW213142   3.700   2.579   1.511  0.2928 -1.2977  1.5154
 1110SOL     OW13143   2.920   5.559   2.219  0.1289 -0.2129 -0.8198
 1110SOL    HW113144   2.984   5.610   2.162  0.4494 -2.3317 -2.4124
 1110SOL    HW213145   2.838   5.537   2.165 -2.3949  3.1390  1.3921
 1111SOL     OW13146   4.166   4.799   0.295 -0.5982 -0.1960  0.5334
 1111SOL    HW113147   4.233   4.743   0.343 -0.2992  1.9899  2.8147
 1111SOL    HW213148   4.079   4.750   0.289 -0.4274 -0.8134  2.7546
 1112SOL     OW13149   3.566   0.296   1.115 -0.5008 -0.4329 -0.2782
 1112SOL    HW113150   3.567   0.386   1.072  1.1619 -0.5288 -0.4399
 1112SOL    HW213151   3.540   0.305   1.211 -1.2588  0.1097 -0.5350
 1113SOL     OW13152   4.029   1.869   2.707 -0.3614 -0.0549  0.3148
 1113SOL    HW113153   4.098   1.887   2.777  1.0997 -1.6237 -0.6706
 1113SOL    HW213154   3.971   1.793   2.737 -1.2175  0.7871  0.8213
 1114SOL     OW13155   3.475   5.312   1.036 -0.5592 -0.4905 -0.0057
 1114SOL    HW113156   3.527   5.390   1.003 -0.0729 -0.9406 -0.3043
 1114SOL    HW213157   3.378   5.324   1.014 -0.8175  1.0479  1.8495
 1115SOL     OW13158   3.791   1.470   0.841  0.8558 -0.0254  0.9254
 1115SOL    HW113159   3.764   1.552   0.892 -0.1437 -0.0954  0.5207
 1115SOL    HW213160   3.732   1.394   0.867  0.8952 -0.2754  0.2792
 1116SOL     OW13161   2.292   4.148   0.043 -0.0041  0.1106 -0.6169
 1116SOL    HW113162   2.244   4.226   0.003  3.2398  1.6494 -1.6996
 1116SOL    HW213163   2.346   4.178   0.121  1.2539 -1.0695 -1.0097
 1117SOL     OW13164   3.056   0.154   0.726  0.4708 -0.1514 -0.2682
 1117SOL    HW113165   3.053   0.132   0.628  0.5158  1.7727 -0.7369
 1117SOL    HW213166   3.024   0.076   0.779  2.5641 -2.0532 -1.6756
 1118SOL     OW13167   2.785   1.753   1.326 -0.1649  0.8649 -0.0470
 1118SOL    HW113168   2.764   1.656   1.310  2.4995  0.5696 -2.1353
 1118SOL    HW213169   2.746   1.808   1.252 -2.7498  1.5943  1.7849
 1119SOL     OW13170   2.710   5.363   2.504  0.0789 -0.3567 -0.1519
 1119SOL    HW113171   2.805   5.348   2.532 -0.3589 -3.5495 -0.1776
 1119SOL    HW213172   2.649   5.320   2.571 -1.3258  0.4924 -0.8659
 1120SOL     OW13173   3.862   8.214   1.000  0.0607  0.2467 -0.4717
 1120SOL    HW113174   3.807   8.198   1.082 -0.7410 -0.4582 -1.1272
 1120SOL    HW213175   3.807   8.193   0.919  1.4049 -0.8113 -1.1352
 1121SOL     OW13176   4.039   2.391   2.342  0.3815  0.4662 -0.5571
 1121SOL    HW113177   4.024   2.293   2.332  0.7610  0.4042 -0.5168
 1121SOL    HW213178   4.085   2.427   2.260 -3.7520  1.4305 -2.5734
 1122SOL     OW13179   4.020   0.684   0.252  0.8756  0.2405  0.5034
 1122SOL    HW113180   4.056   0.776   0.263 -1.5094  1.2935 -0.1366
 1122SOL    HW213181   4.015   0.662   0.154 -1.5808  0.7232  0.4889
 1123SOL     OW13182   4.827   3.701   1.239 -0.2191 -0.5690  0.0189
 1123SOL    HW113183   4.865   3.732   1.326 -0.7380 -2.6535  1.0362
 1123SOL    HW213184   4.860   3.608   1.220 -1.6620 -0.8831 -1.0347
 1124SOL     OW13185   4.417   9.282   2.151  0.2468  0.4453 -0.1818
 1124SOL    HW113186   4.398   9.281   2.053  3.1465  1.2502 -0.7707
 1124SOL    HW213187   4.350   9.340   2.197 -0.2948  1.1691 -1.8493
 1125SOL     OW13188   3.099   5.797   0.108  0.2608  0.3105 -0.1409
 1125SOL    HW113189   3.199   5.804   0.105  0.0799  2.7430 -1.6901
 1125SOL    HW213190   3.068   5.811   0.202  1.4838 -2.9128  0.8199
 1126SOL     OW13191   2.803   2.785   0.876 -0.3237 -0.3525  0.1258
 1126SOL    HW113192   2.767   2.756   0.787 -0.6498 -0.1613  0.1945
 1126SOL    HW213193   2.854   2.870   0.865 -2.1521  0.8106  0.4650
 1127SOL     OW13194   2.540   2.009   1.183  0.9227  0.0478 -0.1998
 1127SOL    HW113195   2.441   1.998   1.176  0.9382 -0.3448  0.1895
 1127SOL    HW213196   2.560   2.097   1.227  0.6977 -0.9777  2.0062
 1128SOL     OW13197   4.490   4.270   0.715  0.2587  0.4986  0.4460
 1128SOL    HW113198   4.568   4.226   0.760 -0.0425  2.1959  2.7206
 1128SOL    HW213199   4.406   4.247   0.764 -0.6475 -0.9421 -1.7134
 1129SOL     OW13200   2.539   8.813   0.070 -0.3695 -0.5266 -0.4732
 1129SOL    HW113201   2.528   8.717   0.045 -1.3402 -0.4299 -0.4286
 1129SOL    HW213202   2.512   8.826   0.165 -0.5468 -0.1445 -0.5754
 1130SOL     OW13203   3.428   2.713   1.306 -0.2625  0.3992 -0.0824
 1130SOL    HW113204   3.429   2.673   1.398 -0.6917  3.5820  1.3819
 1130SOL    HW213205   3.334   2.740   1.283  0.5002  3.8884  0.5604
 1131SOL     OW13206   2.783   6.547   0.656 -0.2921  0.0621  0.8539
 1131SOL    HW113207   2.855   6.478   0.663 -0.9914 -0.4814  2.8394
 1131SOL    HW213208   2.781   6.602   0.739 -2.0710  0.1591  0.7569
 1132SOL     OW13209   3.785   9.763   2.000  0.5554  0.2103  0.1178
 1132SOL    HW113210   3.707   9.813   2.038 -0.1832 -0.4547 -0.4818
 1132SOL    HW213211   3.751   9.688   1.943  1.6491  0.6195 -1.0898
 1133SOL     OW13212   4.250   8.352   0.580 -0.5142 -0.1278  0.0707
 1133SOL    HW113213   4.286   8.346   0.673 -1.0445  0.6595  0.3354
 1133SOL    HW213214   4.290   8.280   0.523  1.0656  0.4153  0.4778
 1134SOL     OW13215   2.984   6.922   0.642  0.2861 -0.1980 -0.2497
 1134SOL    HW113216   3.041   6.887   0.716  2.3245  1.3452 -1.0308
 1134SOL    HW213217   2.899   6.960   0.680  0.8875 -0.2929  1.1960
 1135SOL     OW13218   3.220   8.672   0.180  0.2035  0.7330 -0.5014
 1135SOL    HW113219   3.140   8.690   0.238  0.9162  1.6594  0.2143
 1135SOL    HW213220   3.203   8.710   0.089 -0.8129 -0.4898 -0.8375
 1136SOL     OW13221   3.335   3.169   2.309  0.5981  0.5794 -0.5842
 1136SOL    HW113222   3.358   3.143   2.403  1.3107  1.4272 -0.5134
 1136SOL    HW213223   3.253   3.121   2.280  1.4932 -1.1965 -0.2114
 1137SOL     OW13224   3.208   9.513   2.036 -0.3840  0.0339 -0.0491
 1137SOL    HW113225   3.110   9.536   2.036 -1.0306 -2.5438 -1.4279
 1137SOL    HW213226   3.260   9.591   2.071 -2.9485  1.3078  1.1011
 1138SOL     OW13227   2.440   6.792   0.903  0.8610  0.4918  0.1688
 1138SOL    HW113228   2.428   6.848   0.985 -1.0272  0.9151 -0.3786
 1138SOL    HW213229   2.434   6.696   0.927 -0.4997  0.6302  0.4153
 1139SOL     OW13230   3.142   9.352   2.552 -0.6065 -0.3331  0.0128
 1139SOL    HW113231   3.104   9.268   2.514 -1.3202  1.0660 -2.4438
 1139SOL    HW213232   3.129   9.427   2.487  1.1117  1.4240  1.6458
 1140SOL     OW13233   3.412   5.199   1.904 -0.7146  0.1405  0.1144
 1140SOL    HW113234   3.333   5.191   1.964 -1.5689 -1.0770 -1.1399
 1140SOL    HW213235   3.489   5.236   1.955 -1.1653 -1.6642  2.1931
 1141SOL     OW13236   3.104   9.497   1.690 -1.3546  0.1569  0.2388
 1141SOL    HW113237   3.158   9.474   1.609  1.9074  3.0093  1.5053
 1141SOL    HW213238   3.026   9.553   1.663 -0.6342  0.5791 -1.0149
 1142SOL     OW13239   4.257   5.137   0.970 -0.2686  0.4958  0.1373
 1142SOL    HW113240   4.176   5.150   0.914 -0.6937  0.5482  0.7600
 1142SOL    HW213241   4.337   5.122   0.911 -1.1240 -1.8794 -0.4396
 1143SOL     OW13242   3.375   0.671   1.184 -0.3835  0.2118 -0.8037
 1143SOL    HW113243   3.341   0.765   1.187 -0.9722 -0.0200 -0.1200
 1143SOL    HW213244   3.341   0.621   1.264  2.4594  0.3024  0.5215
 1144SOL     OW13245   4.118   1.033   1.461 -0.3433 -0.5665 -0.2874
 1144SOL    HW113246   4.081   0.942   1.443 -1.3235 -0.1066 -0.6451
 1144SOL    HW213247   4.083   1.066   1.549  0.3743 -0.7199  0.0586
 1145SOL     OW13248   2.703   3.557   0.393  0.0542 -0.2641  0.0464
 1145SOL    HW113249   2.767   3.522   0.462 -0.7486 -0.6744  0.6033
 1145SOL    HW213250   2.682   3.653   0.413  1.8933  0.4159 -1.2057
 1146SOL     OW13251   3.173   2.920   0.706  0.2016  0.0063 -0.1066
 1146SOL    HW113252   3.229   3.002   0.718  0.8500 -0.1941 -1.5917
 1146SOL    HW213253   3.080   2.939   0.736  0.4555  1.1439  0.0083
 1147SOL     OW13254   3.028   2.176   0.538  0.2160 -0.1077  0.2580
 1147SOL    HW113255   3.092   2.104   0.567  2.1840  1.5671  0.1834
 1147SOL    HW213256   2.941   2.165   0.587  0.7178 -2.1152  0.7498
 1148SOL     OW13257   3.284   1.844   1.302 -0.4458 -0.3078 -0.1469
 1148SOL    HW113258   3.246   1.840   1.394  0.2093  1.2392  0.2087
 1148SOL    HW213259   3.348   1.769   1.289 -2.0308 -1.7191 -0.0491
 1149SOL     OW13260   5.029   2.337   1.392 -0.1047 -0.4658  0.4387
 1149SOL    HW113261   5.119   2.376   1.412 -0.8926  0.3934  2.5114
 1149SOL    HW213262   4.959   2.389   1.442 -1.5350 -2.4338  0.5430
 1150SOL     OW13263   3.468   4.272   2.692  0.4826 -0.0037  0.1648
 1150SOL    HW113264   3.435   4.366   2.685  1.4980  0.3483  0.0053
 1150SOL    HW213265   3.566   4.269   2.671  0.2421 -1.2526 -0.8098
 1151SOL     OW13266   2.125   8.520   0.769 -0.1258 -0.6798 -0.3963
 1151SOL    HW113267   2.143   8.459   0.692  2.3707 -1.0173  0.3912
 1151SOL    HW213268   2.150   8.614   0.744 -0.6888 -0.5516 -0.4793
 1152SOL     OW13269   2.977   2.091   1.452  0.6120 -0.2047  0.0483
 1152SOL    HW113270   2.949   2.089   1.356 -1.6286  0.1110  0.6533
 1152SOL    HW213271   3.071   2.124   1.460  0.9095 -0.5162 -2.0492
 1153SOL     OW13272   2.396   1.307   1.955 -0.5377  0.0141 -0.3169
 1153SOL    HW113273   2.403   1.245   1.876 -2.3447 -1.5916  0.7454
 1153SOL    HW213274   2.487   1.324   1.992  0.5319  2.0385 -3.6553
 1154SOL     OW13275   2.585   6.541   0.988  0.0530  0.2683  0.2954
 1154SOL    HW113276   2.664   6.489   1.019  1.1503  2.1509  0.7133
 1154SOL    HW213277   2.557   6.605   1.059 -1.1555  0.4196 -0.3026
 1155SOL     OW13278   3.355   4.534   1.488 -0.8327  0.6729  0.1392
 1155SOL    HW113279   3.339   4.528   1.587 -1.9191  0.7352 -0.0249
 1155SOL    HW213280   3.444   4.576   1.471  0.1146 -0.8599  1.1076
 1156SOL     OW13281   3.147   1.346   1.048  0.0852  0.1482  0.4878
 1156SOL    HW113282   3.146   1.277   0.976 -1.6152 -0.2894  0.8984
 1156SOL    HW213283   3.112   1.432   1.012 -1.1261 -0.1735  0.8679
 1157SOL     OW13284   2.389   4.076   2.639 -0.5934 -0.2462 -0.0451
 1157SOL    HW113285   2.370   4.118   2.728 -2.2410  0.2593 -0.6223
 1157SOL    HW213286   2.372   4.142   2.566  2.0064 -0.2312 -0.7037
 1158SOL     OW13287   2.277   8.457   0.977  0.1928 -0.5595  0.2275
 1158SOL    HW113288   2.232   8.504   1.053  0.4298 -1.1231  0.7150
 1158SOL    HW213289   2.225   8.472   0.893  0.3719  0.7463  0.3403
 1159SOL     OW13290   3.405   9.790   1.062  0.2963 -0.1556 -0.0078
 1159SOL    HW113291   3.347   9.867   1.086 -0.7244 -1.6284  2.4511
 1159SOL    HW213292   3.412   9.783   0.963 -1.4985  1.6803 -0.2961
 1160SOL     OW13293   4.680   3.837   1.706  0.5429 -0.5404  0.1171
 1160SOL    HW113294   4.591   3.791   1.701  0.3334 -0.3143  1.5312
 1160SOL    HW213295   4.669   3.924   1.754  1.6922 -0.9427  1.1229
 1161SOL     OW13296   3.183   1.588   2.446 -0.2189  0.6365 -0.4278
 1161SOL    HW113297   3.258   1.626   2.501 -0.9286  2.5758 -0.7524
 1161SOL    HW213298   3.213   1.577   2.352  0.5266 -1.2578  0.0184
 1162SOL     OW13299   2.740   8.151   1.117  0.0510  0.7680 -0.1258
 1162SOL    HW113300   2.676   8.162   1.042  1.0100 -0.6066 -1.1561
 1162SOL    HW213301   2.748   8.054   1.141  1.0247  1.0215  0.6294
 1163SOL     OW13302   2.080   9.050   0.430 -0.2399 -0.2463  0.6477
 1163SOL    HW113303   2.134   8.971   0.459  1.3986  0.6129 -0.0110
 1163SOL    HW213304   2.016   9.023   0.358  0.2662 -0.9636  0.4693
 1164SOL     OW13305   3.273   3.330   1.245  0.1782  0.4597  0.3579
 1164SOL    HW113306   3.234   3.247   1.207  0.6781 -0.3525  1.5692
 1164SOL    HW213307   3.255   3.333   1.344  2.4999  0.4149  0.8181
 1165SOL     OW13308   3.349   8.664   0.428 -0.1488  0.0440  0.3498
 1165SOL    HW113309   3.275   8.650   0.362 -0.6050 -2.0141  1.2519
 1165SOL    HW213310   3.437   8.662   0.380 -0.4732 -1.3943 -0.2318
 1166SOL     OW13311   3.288   3.956   0.821 -0.0978  0.0553 -0.3689
 1166SOL    HW113312   3.313   4.007   0.739  1.8149 -0.5266 -0.1717
 1166SOL    HW213313   3.291   4.016   0.900  0.7032 -0.0096 -0.3469
 1167SOL     OW13314   4.418   2.426   1.375 -0.1188 -0.0610  0.4839
 1167SOL    HW113315   4.333   2.402   1.423 -0.9029  0.2205 -0.7528
 1167SOL    HW213316   4.423   2.525   1.363 -0.2386 -0.1829 -0.5847
 1168SOL     OW13317   4.032   2.272   2.001 -0.4387  0.1272 -0.0078
 1168SOL    HW113318   4.105   2.320   1.953  1.3280 -1.6602  0.8526
 1168SOL    HW213319   3.958   2.337   2.020  0.4294  1.7091 -1.8352
 1169SOL     OW13320   4.049   1.043   1.742 -0.5554 -0.2503 -0.1778
 1169SOL    HW113321   4.027   1.101   1.821 -0.6147  0.1707 -0.5031
 1169SOL    HW213322   4.038   0.947   1.767 -1.6929 -0.0830 -0.0019
 1170SOL     OW13323   2.819   8.444   0.834  0.9267  0.2741  0.7977
 1170SOL    HW113324   2.776   8.359   0.803 -0.4200  1.3925 -0.4546
 1170SOL    HW213325   2.801   8.457   0.931 -1.9322  0.9316  0.1961
 1171SOL     OW13326   3.318   8.565   0.697 -0.6474 -0.3827  0.3685
 1171SOL    HW113327   3.254   8.491   0.718 -0.0808 -0.8594  0.4021
 1171SOL    HW213328   3.330   8.570   0.597  0.9201 -1.6863  0.4809
 1172SOL     OW13329   4.587   1.637   2.175 -0.3610 -0.6346  0.2638
 1172SOL    HW113330   4.591   1.715   2.113 -0.7378 -1.6952 -1.1154
 1172SOL    HW213331   4.565   1.669   2.267  1.4812  1.0937  0.1373
 1173SOL     OW13332   4.254   2.427   2.723  0.4507  0.4672 -0.3334
 1173SOL    HW113333   4.347   2.431   2.686  0.2467 -0.2622 -0.9671
 1173SOL    HW213334   4.222   2.332   2.720 -0.5601  0.8112 -0.7579
 1174SOL     OW13335   2.785   1.866   1.563  0.0464  0.5715  0.2922
 1174SOL    HW113336   2.855   1.936   1.578  0.5095 -0.2271  1.9816
 1174SOL    HW213337   2.785   1.839   1.467  0.6013  2.1062 -0.1573
 1175SOL     OW13338   3.749   4.418   1.803  0.0842 -0.7212 -0.1340
 1175SOL    HW113339   3.827   4.431   1.741  0.9127  3.5897  1.6029
 1175SOL    HW213340   3.780   4.374   1.887  1.3978  3.5577  1.7462
 1176SOL     OW13341   2.910   1.203   0.653  0.4530  0.5242 -0.4306
 1176SOL    HW113342   2.884   1.119   0.606  1.1291  1.2017 -2.0562
 1176SOL    HW213343   2.990   1.186   0.710 -1.0109 -0.5649  1.3627
 1177SOL     OW13344   2.442   1.959   2.130  0.1824 -0.5985 -0.5522
 1177SOL    HW113345   2.420   1.912   2.045  2.2946 -2.6723 -0.0156
 1177SOL    HW213346   2.504   1.902   2.184  0.6489  1.6639  1.3746
 1178SOL     OW13347   2.955   8.770   0.224  0.4763 -0.8038 -0.1480
 1178SOL    HW113348   2.878   8.815   0.179  0.3004 -1.8723 -0.9387
 1178SOL    HW213349   2.965   8.805   0.318  0.4027  0.9224 -0.7648
 1179SOL     OW13350   4.004   1.073   1.006  0.3447 -0.3545  0.2884
 1179SOL    HW113351   4.005   1.061   0.907 -0.5172  0.2746  0.1912
 1179SOL    HW213352   4.035   1.166   1.028  1.5791 -0.8530  0.6772
 1180SOL     OW13353   3.693   5.225   0.144  0.5361  0.7410  0.7291
 1180SOL    HW113354   3.608   5.191   0.185  0.5353  2.0571  1.8433
 1180SOL    HW213355   3.761   5.152   0.145 -0.2506 -0.0069  0.7720
 1181SOL     OW13356   2.693   4.157   1.923  0.3951  0.0980  0.1339
 1181SOL    HW113357   2.728   4.247   1.896  0.2637  0.2465  0.4587
 1181SOL    HW213358   2.596   4.164   1.943 -0.1005 -0.5577 -1.9281
 1182SOL     OW13359   3.041   8.692   2.175 -0.7590  0.1246  0.5734
 1182SOL    HW113360   3.036   8.777   2.122  0.2174 -0.3907 -0.3559
 1182SOL    HW213361   3.128   8.689   2.224 -0.5502 -0.6024  0.1634
 1183SOL     OW13362   4.095   1.611   1.789  0.0001 -0.5483  0.0175
 1183SOL    HW113363   4.051   1.578   1.872  0.7201 -2.7562 -0.4365
 1183SOL    HW213364   4.180   1.659   1.812  1.2683 -2.9132  0.5096
 1184SOL     OW13365   3.751   8.838   0.240  0.4502 -0.0584 -0.7279
 1184SOL    HW113366   3.755   8.862   0.143 -0.4085 -1.1457 -1.0445
 1184SOL    HW213367   3.833   8.786   0.265  1.0460  0.9049 -0.6824
 1185SOL     OW13368   3.491   5.672   0.962 -0.1451  0.2862 -0.6112
 1185SOL    HW113369   3.581   5.707   0.936  0.2903 -1.2362 -1.2330
 1185SOL    HW213370   3.425   5.697   0.891  0.1301 -0.0145 -0.9791
 1186SOL     OW13371   3.235   2.308   0.048 -0.2013 -0.5480 -0.4514
 1186SOL    HW113372   3.194   2.239   0.108 -5.0860  0.8660 -1.9343
 1186SOL    HW213373   3.259   2.265  -0.039 -0.0122 -1.0905 -0.1331
 1187SOL     OW13374   4.428   3.148   0.163  0.1738  0.2639  0.1508
 1187SOL    HW113375   4.445   3.192   0.251 -0.3602 -0.5882  0.6947
 1187SOL    HW213376   4.513   3.143   0.111  0.2264  1.9470  0.0633
 1188SOL     OW13377   2.469   1.353   2.289 -0.6362  0.1343  0.6334
 1188SOL    HW113378   2.539   1.409   2.334 -1.6568  0.7125  1.5299
 1188SOL    HW213379   2.496   1.257   2.292  1.3433  0.5818 -1.2960
 1189SOL     OW13380   2.673   9.584   1.368 -0.0854  0.5127  0.2376
 1189SOL    HW113381   2.670   9.487   1.391  1.2454  0.5335  0.5517
 1189SOL    HW213382   2.605   9.604   1.298 -0.0173 -0.7431 -0.1929
 1190SOL     OW13383   2.350   4.847   2.012  1.0175  0.2317 -0.3722
 1190SOL    HW113384   2.384   4.793   2.089 -1.2621 -0.0819  0.4793
 1190SOL    HW213385   2.287   4.790   1.958 -1.1506  1.8787  0.3339
 1191SOL     OW13386   3.917   1.609   2.715  0.4269  0.3212 -0.0728
 1191SOL    HW113387   3.879   1.537   2.773 -0.3610  0.5658 -0.2730
 1191SOL    HW213388   3.932   1.572   2.623 -1.1329  0.7188 -0.5131
 1192SOL     OW13389   3.143   8.796   2.796  0.4366 -0.2509 -0.1207
 1192SOL    HW113390   3.075   8.751   2.738 -0.8105  2.6349 -0.9950
 1192SOL    HW213391   3.104   8.878   2.836  1.6812 -1.4735  3.8942
 1193SOL     OW13392   2.701   8.166   0.853  0.0335  0.4064 -0.3869
 1193SOL    HW113393   2.719   8.078   0.809  0.8774  1.0221 -1.2960
 1193SOL    HW213394   2.605   8.192   0.838 -0.3267 -0.5449  0.2331
 1194SOL     OW13395   2.900   3.044   0.787  0.0377 -0.1036 -0.2584
 1194SOL    HW113396   2.868   3.023   0.694 -0.5455 -1.6357  0.2644
 1194SOL    HW213397   2.943   3.134   0.788 -1.9765  0.9172 -1.5297
 1195SOL     OW13398   2.938   7.284   1.278 -0.0532 -0.0357  0.3154
 1195SOL    HW113399   2.922   7.336   1.362 -2.7009 -0.2668 -0.0150
 1195SOL    HW213400   2.919   7.341   1.199 -0.1526 -0.6214 -0.0899
 1196SOL     OW13401   2.963   6.339   2.510  0.1965  0.2383 -0.0116
 1196SOL    HW113402   3.023   6.384   2.444 -0.4451 -1.0830 -1.5215
 1196SOL    HW213403   2.990   6.244   2.520 -0.7755 -0.0037  0.3491
 1197SOL     OW13404   3.985   8.321   0.077 -0.2513  0.5605 -0.5081
 1197SOL    HW113405   4.063   8.280   0.124 -0.5643 -0.3703 -0.7898
 1197SOL    HW213406   3.918   8.353   0.144 -0.5312 -0.4382 -0.2946
 1198SOL     OW13407   3.936   3.143   0.404  0.1012 -0.0218 -0.5384
 1198SOL    HW113408   3.981   3.168   0.318  0.1316  0.1632 -0.4702
 1198SOL    HW213409   3.991   3.076   0.453  0.5355  0.5522 -0.2338
 1199SOL     OW13410   4.300   9.093   2.363 -0.2125  0.1091  0.0913
 1199SOL    HW113411   4.242   9.158   2.412  0.1517  0.8977 -0.5146
 1199SOL    HW213412   4.380   9.141   2.326 -0.8849 -0.3343 -1.9553
 1200SOL     OW13413   2.369   3.562   0.594 -0.0019  0.1428 -0.5065
 1200SOL    HW113414   2.384   3.463   0.589  1.2124  0.3657 -1.3015
 1200SOL    HW213415   2.350   3.598   0.503 -2.3455  0.3690  0.0303
 1201SOL     OW13416   3.569   8.869   2.250  0.0052 -1.1759 -0.5117
 1201SOL    HW113417   3.591   8.955   2.296  0.0897 -1.1181 -0.6607
 1201SOL    HW213418   3.636   8.851   2.178 -0.0406 -1.3407 -0.5142
 1202SOL     OW13419   4.155   5.310   1.617  0.1468 -0.9394  0.4899
 1202SOL    HW113420   4.064   5.300   1.576  0.0622 -1.2265  0.7440
 1202SOL    HW213421   4.176   5.228   1.670  0.4628 -0.7784  0.6106
 1203SOL     OW13422   4.548   2.530   0.245  0.3289 -0.3970 -0.4526
 1203SOL    HW113423   4.455   2.566   0.253 -0.0382 -1.1576 -1.2261
 1203SOL    HW213424   4.611   2.604   0.222 -0.0465  0.1673  0.3350
 1204SOL     OW13425   4.549   2.647   2.233 -0.7165 -0.0399 -0.2592
 1204SOL    HW113426   4.587   2.643   2.141 -0.5774  0.7441 -0.2425
 1204SOL    HW213427   4.614   2.607   2.298 -0.3132  0.4687 -0.3480
 1205SOL     OW13428   2.701   0.307   0.389 -0.3197  0.0463  0.5658
 1205SOL    HW113429   2.683   0.394   0.436  1.8058  0.6867  0.2457
 1205SOL    HW213430   2.661   0.232   0.442 -0.7513  1.0620  1.7103
 1206SOL     OW13431   2.759   6.299   2.276  0.1057  0.0465 -0.0782
 1206SOL    HW113432   2.777   6.204   2.249  1.7677  0.2227  0.3636
 1206SOL    HW213433   2.793   6.314   2.369 -0.4769  0.9761 -0.0108
 1207SOL     OW13434   2.974   4.713   0.352 -0.2386  0.1713 -0.2501
 1207SOL    HW113435   3.057   4.759   0.383  0.6409 -0.1037 -2.1534
 1207SOL    HW213436   2.997   4.621   0.319 -1.1879  0.3531 -1.4614
 1208SOL     OW13437   3.449   0.511   0.733 -0.0630 -0.0190 -0.4110
 1208SOL    HW113438   3.537   0.549   0.762 -0.0369  1.1636 -1.9573
 1208SOL    HW213439   3.414   0.451   0.804  0.5305  1.8920  1.5496
 1209SOL     OW13440   4.505   2.741   1.180 -0.7828  0.3180 -0.4038
 1209SOL    HW113441   4.459   2.753   1.092  0.6603  1.2324 -1.0747
 1209SOL    HW213442   4.438   2.741   1.254 -1.8715  1.4020 -1.3686
 1210SOL     OW13443   4.001   1.722   0.230 -0.1646  0.0727 -0.3879
 1210SOL    HW113444   3.953   1.656   0.288 -0.3335 -1.0642 -1.7760
 1210SOL    HW213445   4.075   1.675   0.182 -0.6401  0.7508 -1.8185
 1211SOL     OW13446   2.775   4.315   0.319 -0.3640  0.0070 -0.3802
 1211SOL    HW113447   2.727   4.356   0.397 -0.4284 -0.9526  0.0943
 1211SOL    HW213448   2.710   4.295   0.247 -0.8368 -2.1119  0.6137
 1212SOL     OW13449   2.215   4.901   0.723  0.5920  0.0004 -0.1676
 1212SOL    HW113450   2.218   4.936   0.630 -0.9142  1.2271  0.2280
 1212SOL    HW213451   2.120   4.893   0.753  1.0907  0.7721  1.6924
 1213SOL     OW13452   3.140   1.168   0.804 -0.6225 -0.2698 -0.2150
 1213SOL    HW113453   3.184   1.081   0.829  0.1739  0.7637  2.1404
 1213SOL    HW213454   3.207   1.226   0.758 -0.2862  0.2399  0.9030
 1214SOL     OW13455   3.436   2.448   0.535  0.2393  0.3471 -0.2983
 1214SOL    HW113456   3.436   2.386   0.456 -0.0921  0.0635 -0.0731
 1214SOL    HW213457   3.342   2.469   0.561  0.3256 -0.8800  1.0673
 1215SOL     OW13458   3.147   0.878   0.685  0.1224  0.2811 -0.0251
 1215SOL    HW113459   3.186   0.864   0.776  1.3288  1.1505 -0.3859
 1215SOL    HW213460   3.055   0.915   0.694  0.5729  1.2234  0.8561
 1216SOL     OW13461   2.613   6.699   1.911  0.0103 -0.3138 -0.2100
 1216SOL    HW113462   2.665   6.660   1.987  0.1823 -1.9175 -1.1390
 1216SOL    HW213463   2.536   6.639   1.890 -2.8903  2.5505  1.8438
 1217SOL     OW13464   3.089   1.365   1.932 -0.1373  0.1539  0.7343
 1217SOL    HW113465   3.169   1.425   1.932 -0.5167  0.6725 -0.6093
 1217SOL    HW213466   3.049   1.363   1.841 -0.5598 -1.5746  0.9410
 1218SOL     OW13467   3.499   2.662   0.696  0.4003 -0.4612  0.3818
 1218SOL    HW113468   3.558   2.684   0.774  1.3047 -0.1886 -0.3811
 1218SOL    HW213469   3.545   2.597   0.636 -0.7724 -1.5978  0.6766
 1219SOL     OW13470   2.691   9.022   0.444  0.5468  0.1442  0.3386
 1219SOL    HW113471   2.660   9.033   0.349 -0.8349  0.6306  0.8475
 1219SOL    HW213472   2.782   8.980   0.444  0.2299 -0.5830 -1.1822
 1220SOL     OW13473   3.310   9.756   2.801  0.2827  0.7617  0.3558
 1220SOL    HW113474   3.395   9.716   2.766 -1.5276 -0.6153 -2.7149
 1220SOL    HW213475   3.256   9.685   2.846 -0.2203  1.1555  0.3778
 1221SOL     OW13476   3.396   8.381   2.838  0.4533  0.5375 -0.2002
 1221SOL    HW113477   3.420   8.430   2.755 -1.4118 -1.6724 -2.1210
 1221SOL    HW213478   3.360   8.446   2.906  2.0861  2.3710 -1.0474
 1222SOL     OW13479   2.311   4.471   1.380  0.0101  0.1703  0.4649
 1222SOL    HW113480   2.295   4.568   1.396 -0.2954  0.0445  0.9287
 1222SOL    HW213481   2.284   4.448   1.287  0.4419  0.6062  0.2268
 1223SOL     OW13482   4.454   3.252   0.405 -0.0267  0.3429  0.0136
 1223SOL    HW113483   4.475   3.343   0.440  1.4620 -0.2389  0.6901
 1223SOL    HW213484   4.391   3.205   0.467  0.5716  0.2715  0.5687
 1224SOL     OW13485   2.109   7.619   2.622 -0.1547  0.4538 -0.5917
 1224SOL    HW113486   2.167   7.674   2.563  0.6590 -0.6286 -0.8134
 1224SOL    HW213487   2.162   7.543   2.660 -1.3517 -0.4017 -0.6000
 1225SOL     OW13488   3.348   8.032   0.494 -0.8274 -0.1017  0.3400
 1225SOL    HW113489   3.290   8.037   0.575 -1.3186  0.8004 -0.0675
 1225SOL    HW213490   3.293   8.010   0.414 -0.6607  1.0360 -0.0942
 1226SOL     OW13491   2.995   1.976   2.434 -0.3129 -0.2530 -0.4931
 1226SOL    HW113492   3.017   2.018   2.523 -1.1986 -3.3156  1.2619
 1226SOL    HW213493   2.951   2.043   2.375 -0.8071  1.5371  1.8300
 1227SOL     OW13494   3.062   5.043   2.359  0.3318 -0.8590 -0.4956
 1227SOL    HW113495   2.996   5.097   2.306 -1.9285 -0.3275  2.7041
 1227SOL    HW213496   3.050   4.946   2.337 -2.7428 -0.9294  1.2132
 1228SOL     OW13497   4.570   1.243   1.049 -0.4613 -0.0435 -0.1416
 1228SOL    HW113498   4.478   1.207   1.037 -0.6608  0.1310  0.8685
 1228SOL    HW213499   4.584   1.270   1.144  0.2636  0.9504 -0.5184
 1229SOL     OW13500   2.662   4.293   2.489  0.6485  0.2259 -0.7347
 1229SOL    HW113501   2.748   4.344   2.488  2.3901 -2.6502 -1.4382
 1229SOL    HW213502   2.680   4.196   2.505 -2.3230 -0.7142 -2.6224
 1230SOL     OW13503   2.467   7.539   1.829 -0.1753 -0.2148  0.4109
 1230SOL    HW113504   2.510   7.520   1.917  1.5212  0.0249 -0.3356
 1230SOL    HW213505   2.445   7.637   1.823  1.9206  0.2459 -0.3398
 1231SOL     OW13506   3.374   1.920   0.118  0.2933 -0.8863 -0.1135
 1231SOL    HW113507   3.464   1.946   0.084  0.0926 -1.9106 -1.4990
 1231SOL    HW213508   3.331   1.858   0.052 -0.6246 -1.9476  1.4686
 1232SOL     OW13509   4.699   3.105   1.138 -0.1515 -0.4517  0.1197
 1232SOL    HW113510   4.639   3.074   1.065 -1.4432  1.8220  0.1632
 1232SOL    HW213511   4.717   3.030   1.202 -2.3439 -1.3559 -0.2990
 1233SOL     OW13512   3.277   8.425   1.340 -0.4741 -0.1161 -0.3117
 1233SOL    HW113513   3.250   8.334   1.372 -0.1813 -0.4240 -0.9335
 1233SOL    HW213514   3.197   8.474   1.306 -0.8173  0.2775  1.0362
 1234SOL     OW13515   3.162   9.817   1.868 -0.1933  0.0688 -0.0261
 1234SOL    HW113516   3.172   9.823   1.768  0.9017  1.2058  0.1508
 1234SOL    HW213517   3.112   9.734   1.891  0.4581 -0.7360 -1.4687
 1235SOL     OW13518   2.795   3.142   1.374 -0.2010  0.1475  0.1335
 1235SOL    HW113519   2.770   3.063   1.317  0.3659  0.2516 -0.2763
 1235SOL    HW213520   2.724   3.159   1.441 -0.6998 -0.2273 -0.2920
 1236SOL     OW13521   3.656   8.617   0.005 -0.0439  0.1237  0.0236
 1236SOL    HW113522   3.592   8.685   0.040 -0.7410  1.1375 -3.0761
 1236SOL    HW213523   3.614   8.569  -0.072  2.4721 -0.1015 -1.2440
 1237SOL     OW13524   3.218   3.838   1.956  0.4225 -0.2188 -0.1734
 1237SOL    HW113525   3.148   3.780   1.998 -0.5360  1.3257  0.4306
 1237SOL    HW213526   3.174   3.897   1.888  1.3914 -0.2656 -0.8364
 1238SOL     OW13527   4.063   1.984   0.354  0.3509  0.3469  0.4073
 1238SOL    HW113528   4.018   1.915   0.297  2.3321  0.0536 -0.8513
 1238SOL    HW213529   4.047   1.963   0.450 -4.2918  1.6573  0.0759
 1239SOL     OW13530   2.572   4.641   0.816  0.1980  0.3996  0.2141
 1239SOL    HW113531   2.509   4.568   0.843  0.4426  0.0028 -0.2858
 1239SOL    HW213532   2.520   4.720   0.784 -0.0824  0.6496  1.2588
 1240SOL     OW13533   2.916   1.618   1.609 -0.2532  0.0758  0.5270
 1240SOL    HW113534   2.853   1.692   1.588 -1.9370 -1.0461  1.5245
 1240SOL    HW213535   2.991   1.618   1.543 -0.9649  1.7910 -0.3053
 1241SOL     OW13536   4.211   3.902   1.428  0.2521 -0.2575  0.2788
 1241SOL    HW113537   4.211   3.847   1.345  2.9558  1.0756 -0.6800
 1241SOL    HW213538   4.162   3.988   1.411  1.0699  0.1478 -0.0386
 1242SOL     OW13539   3.746   4.437   0.836 -0.7207  0.9040 -0.3739
 1242SOL    HW113540   3.830   4.383   0.846 -1.9932 -1.5121 -2.1593
 1242SOL    HW213541   3.749   4.514   0.899  2.4308  0.3609  0.2475
 1243SOL     OW13542   2.657   6.660   1.596 -0.5357 -0.1853  0.1953
 1243SOL    HW113543   2.680   6.705   1.510  0.5696 -2.2169 -0.6163
 1243SOL    HW213544   2.720   6.689   1.668  0.1600 -0.4273 -0.3177
 1244SOL     OW13545   2.914   4.012   2.828 -0.2821 -0.4345 -0.3154
 1244SOL    HW113546   2.858   3.971   2.756 -2.9338  2.1983  0.1748
 1244SOL    HW213547   2.987   4.066   2.787 -1.0709  0.1070 -1.0265
 1245SOL     OW13548   4.291   1.099   0.642  0.7366 -0.0324  0.2071
 1245SOL    HW113549   4.293   1.006   0.607  1.1773 -1.3733  3.5502
 1245SOL    HW213550   4.291   1.097   0.742 -1.1101  3.5404  0.3828
 1246SOL     OW13551   2.393   1.623   1.559 -0.5799 -0.4688  0.1914
 1246SOL    HW113552   2.316   1.603   1.499 -3.3023  1.7216  2.8336
 1246SOL    HW213553   2.426   1.716   1.543 -1.1225  0.0201  1.8346
 1247SOL     OW13554   3.541   1.494   2.452  0.6209  0.3022 -0.1601
 1247SOL    HW113555   3.636   1.466   2.465  0.7448 -0.2652 -2.1582
 1247SOL    HW213556   3.537   1.574   2.392 -0.0696  1.4519  1.3757
 1248SOL     OW13557   2.890   0.511   2.057  0.3927 -0.0379  0.1952
 1248SOL    HW113558   2.841   0.454   2.123  0.5568 -0.3092  0.0811
 1248SOL    HW213559   2.847   0.503   1.967  0.7343 -0.3862  0.0645
 1249SOL     OW13560   3.734   2.684   0.142 -0.5111  0.5805 -0.7053
 1249SOL    HW113561   3.637   2.689   0.116 -1.1006 -1.1702  1.0364
 1249SOL    HW213562   3.748   2.734   0.227 -0.5887 -2.0326  0.8761
 1250SOL     OW13563   3.058   5.811   2.101 -0.2006  0.3476  0.3898
 1250SOL    HW113564   3.146   5.773   2.128 -0.0505  1.0177  0.8605
 1250SOL    HW213565   3.037   5.784   2.008  0.7295  0.5695  0.1097
 1251SOL     OW13566   2.637   0.624   1.345 -0.3428 -0.0572  0.1906
 1251SOL    HW113567   2.730   0.587   1.335 -0.7392 -1.4446  1.4604
 1251SOL    HW213568   2.641   0.709   1.398  0.1819 -0.2063  0.3967
 1252SOL     OW13569   2.792   8.431   1.119  0.0327  0.1848 -0.1022
 1252SOL    HW113570   2.783   8.332   1.112  0.7055  0.0712  0.6004
 1252SOL    HW213571   2.703   8.474   1.102 -0.1729 -0.5130 -0.8228
 1253SOL     OW13572   3.019   1.311   0.336  0.4580  0.1745  0.0146
 1253SOL    HW113573   2.998   1.408   0.348 -2.3972 -0.2546 -1.2864
 1253SOL    HW213574   3.113   1.302   0.302  0.5926  2.4838 -0.3370
 1254SOL     OW13575   3.904   1.441   2.486 -0.2509 -0.0439  0.0623
 1254SOL    HW113576   3.851   1.361   2.459 -0.7391 -0.1025  1.1914
 1254SOL    HW213577   4.001   1.415   2.493 -0.0137  0.1049 -2.1568
 1255SOL     OW13578   3.607   9.564   1.349 -0.1725  0.5562 -0.2146
 1255SOL    HW113579   3.522   9.554   1.298 -0.0637 -3.1192  0.1671
 1255SOL    HW213580   3.678   9.604   1.291 -1.7090  2.1525 -1.0067
 1256SOL     OW13581   3.887   2.731   2.141  0.2624 -0.1741 -0.4590
 1256SOL    HW113582   3.798   2.709   2.104  0.6245 -0.6972 -1.0237
 1256SOL    HW213583   3.939   2.784   2.075 -0.1063  1.2596  0.3738
 1257SOL     OW13584   2.617   0.362   0.133 -0.1714  0.4171 -0.2297
 1257SOL    HW113585   2.693   0.319   0.085 -2.2340 -3.0882 -0.5087
 1257SOL    HW213586   2.633   0.357   0.232 -0.1784 -0.7029 -0.2739
 1258SOL     OW13587   3.931   3.926   1.983 -0.3443 -0.1352 -0.2040
 1258SOL    HW113588   3.925   3.981   2.067 -0.5361  2.1188 -1.6589
 1258SOL    HW213589   4.019   3.878   1.981  0.2177  0.8370  0.6568
 1259SOL     OW13590   3.720   3.449   0.334 -0.9232 -0.1424  0.1428
 1259SOL    HW113591   3.783   3.466   0.409 -0.7294 -0.1521 -0.0172
 1259SOL    HW213592   3.732   3.519   0.263 -1.5911  0.2698  0.4375
 1260SOL     OW13593   4.612   1.934   2.411  0.8360  0.2078  0.3728
 1260SOL    HW113594   4.616   1.834   2.410  1.1145  0.2217 -0.8138
 1260SOL    HW213595   4.549   1.964   2.483 -0.0880 -0.8433  0.0173
 1261SOL     OW13596   3.163   2.581   1.091 -0.4029 -0.2868 -0.2265
 1261SOL    HW113597   3.245   2.528   1.110  0.4260  0.9452 -0.3070
 1261SOL    HW213598   3.159   2.602   0.993 -1.2100 -0.9830 -0.3494
 1262SOL     OW13599   2.808   9.111   0.807 -0.6275 -0.2388 -0.0981
 1262SOL    HW113600   2.805   9.162   0.893  0.0674  2.3511 -1.5510
 1262SOL    HW213601   2.892   9.057   0.804 -0.5322 -0.1502  0.7473
 1263SOL     OW13602   4.483   8.613   0.857  0.2882  0.3986  0.7139
 1263SOL    HW113603   4.432   8.530   0.880 -0.4575  0.3583 -1.0049
 1263SOL    HW213604   4.444   8.691   0.906 -1.6981  0.4330 -0.8370
 1264SOL     OW13605   3.715   3.804   1.304  0.0383 -0.1721  0.0939
 1264SOL    HW113606   3.730   3.715   1.346 -0.4730 -0.0705  0.4900
 1264SOL    HW213607   3.629   3.802   1.253  0.9178 -0.4693 -1.4105
 1265SOL     OW13608   2.562   1.404   0.707  0.0528  0.4989  0.5795
 1265SOL    HW113609   2.594   1.476   0.644 -2.1961  0.9849 -0.0376
 1265SOL    HW213610   2.623   1.400   0.786  1.0810  2.0638 -0.1032
 1266SOL     OW13611   4.438   2.425   0.736  0.0151  0.0343  0.1748
 1266SOL    HW113612   4.519   2.472   0.701  0.0478  0.0132  0.2205
 1266SOL    HW213613   4.382   2.488   0.788  0.9418 -0.3772  1.7097
 1267SOL     OW13614   2.711   0.845   1.487  0.0436  0.4110 -0.8420
 1267SOL    HW113615   2.705   0.930   1.435 -3.5798  0.5879 -0.2754
 1267SOL    HW213616   2.714   0.865   1.584 -0.3417 -0.0758 -0.7266
 1268SOL     OW13617   2.907   1.422   2.153 -0.5938  0.0597 -0.1043
 1268SOL    HW113618   2.927   1.516   2.178 -1.6299  0.0306  0.8403
 1268SOL    HW213619   2.966   1.395   2.076  2.4063  0.2569  2.0099
 1269SOL     OW13620   2.203   4.978   1.295 -0.3239  0.1758  0.3588
 1269SOL    HW113621   2.108   4.999   1.319 -0.1128  1.0498  0.4420
 1269SOL    HW213622   2.255   5.063   1.288  0.2224 -0.2353 -0.6554
 1270SOL     OW13623   4.586   1.914   1.462  0.3661 -0.0354 -0.3345
 1270SOL    HW113624   4.556   1.948   1.373  1.2034 -0.4623 -0.7825
 1270SOL    HW213625   4.615   1.991   1.519  0.3678  0.1853 -0.6345
 1271SOL     OW13626   2.440   8.237   0.928 -0.2485  0.2742 -0.6083
 1271SOL    HW113627   2.367   8.268   0.989  0.3138 -0.0325  0.2362
 1271SOL    HW213628   2.451   8.302   0.853 -1.7773  0.0269 -1.0642
 1272SOL     OW13629   2.740   6.123   1.390 -0.4689 -0.1380 -0.1008
 1272SOL    HW113630   2.775   6.172   1.310  0.6913  0.0862  0.5322
 1272SOL    HW213631   2.649   6.157   1.414 -0.0416  1.0854 -0.2081
 1273SOL     OW13632   2.953   3.888   0.469  0.1909 -0.0095 -0.2578
 1273SOL    HW113633   2.985   3.941   0.391  3.6127  3.5898  3.3114
 1273SOL    HW213634   3.022   3.821   0.494 -0.3343 -0.3149  0.3904
 1274SOL     OW13635   2.852   0.558   2.750 -0.3116 -0.0261 -0.2986
 1274SOL    HW113636   2.770   0.570   2.807 -0.8839 -1.7297 -0.7420
 1274SOL    HW213637   2.929   0.604   2.794 -0.5943 -1.8686  2.2279
 1275SOL     OW13638   2.916   9.992   0.914 -0.0613  0.3501  0.1407
 1275SOL    HW113639   2.923   9.977   1.013 -0.0734 -1.9435 -0.1617
 1275SOL    HW213640   2.963   9.917   0.867  0.1516  1.5626 -1.5846
 1276SOL     OW13641   2.935   6.002   0.517  0.6355 -0.6879  0.4168
 1276SOL    HW113642   3.016   5.996   0.575  0.9675  1.1759  0.1772
 1276SOL    HW213643   2.855   6.022   0.574  0.6628 -0.6751  0.4509
 1277SOL     OW13644   3.132   7.121   1.175 -0.6159  0.2257 -0.6946
 1277SOL    HW113645   3.035   7.146   1.175 -0.2477  1.7123  0.2054
 1277SOL    HW213646   3.185   7.193   1.220  0.7185 -1.3287  0.2823
 1278SOL     OW13647   3.261   7.116   2.327 -0.3067  0.0139 -0.8372
 1278SOL    HW113648   3.174   7.073   2.301 -0.3158  0.7152 -2.0336
 1278SOL    HW213649   3.335   7.050   2.320 -0.5477 -0.2260 -1.1556
 1279SOL     OW13650   2.320   7.968   0.387 -0.0248  0.8540 -0.4409
 1279SOL    HW113651   2.408   7.921   0.379  0.2413  1.6767 -2.7256
 1279SOL    HW213652   2.289   7.964   0.482  2.8170  1.1536  0.5705
 1280SOL     OW13653   2.565   7.589   0.931 -0.1449  0.1644 -0.0875
 1280SOL    HW113654   2.492   7.572   0.864  1.1902  1.1053 -1.8354
 1280SOL    HW213655   2.654   7.569   0.889  0.6194 -1.1085  2.0633
 1281SOL     OW13656   4.936   2.819   2.742 -0.0842  0.6986  0.0590
 1281SOL    HW113657   4.994   2.899   2.750  2.6385 -1.0797 -1.2001
 1281SOL    HW213658   4.983   2.739   2.781 -2.4661 -0.4306  0.7245
 1282SOL     OW13659   3.171   7.720   1.207 -0.7021  0.0092  0.2260
 1282SOL    HW113660   3.259   7.752   1.242 -1.9697  2.7156  1.0379
 1282SOL    HW213661   3.132   7.654   1.271 -0.7168  1.1897  1.4349
 1283SOL     OW13662   2.334   2.450   1.268  0.4252 -0.3435 -0.5682
 1283SOL    HW113663   2.246   2.472   1.311  1.0037 -1.9536  1.5528
 1283SOL    HW213664   2.392   2.532   1.268 -0.3208  0.1963 -0.0756
 1284SOL     OW13665   2.797   0.559   1.717  0.4530 -0.3045  0.5254
 1284SOL    HW113666   2.877   0.612   1.745 -0.7325  1.1794  1.2184
 1284SOL    HW213667   2.793   0.555   1.617 -0.3309  2.3778  0.4121
 1285SOL     OW13668   4.033   0.727   0.703  0.0189 -0.3082  0.4393
 1285SOL    HW113669   3.975   0.704   0.781 -1.3488  0.2141 -0.4078
 1285SOL    HW213670   4.060   0.643   0.656 -2.7400 -0.3926 -1.0688
 1286SOL     OW13671   3.914   2.397   1.670  0.4590 -0.2588  0.4600
 1286SOL    HW113672   3.968   2.481   1.677 -0.6853  0.6274 -0.9010
 1286SOL    HW213673   3.841   2.400   1.739  0.2404  0.0041  0.2192
 1287SOL     OW13674   2.665   8.562   0.555 -0.1033 -0.1498 -0.4357
 1287SOL    HW113675   2.711   8.623   0.619 -0.7136 -0.1958  0.0440
 1287SOL    HW213676   2.610   8.495   0.605 -1.3447  0.4160 -1.0283
 1288SOL     OW13677   2.850   9.747   2.458  1.3281 -0.7514  0.1858
 1288SOL    HW113678   2.906   9.829   2.450 -2.1061  1.6471 -0.1051
 1288SOL    HW213679   2.761   9.771   2.498 -0.6967 -3.8832 -2.2494
 1289SOL     OW13680   2.563   5.195   1.507  0.3798  0.3460  0.4446
 1289SOL    HW113681   2.614   5.178   1.591  2.6056 -0.9488 -1.1199
 1289SOL    HW213682   2.563   5.293   1.487  3.9105  0.2409 -0.4581
 1290SOL     OW13683   3.399   9.893   0.195  0.4458  0.4444  0.5089
 1290SOL    HW113684   3.323   9.924   0.252 -0.4210  0.2228 -0.5150
 1290SOL    HW213685   3.367   9.880   0.101  1.7887  0.5150  0.0340
 1291SOL     OW13686   4.451   2.139   0.702  0.7431  0.6249  0.1320
 1291SOL    HW113687   4.533   2.135   0.645  0.3112  2.6537 -0.6751
 1291SOL    HW213688   4.436   2.234   0.731  0.8416 -0.3222  3.4692
 1292SOL     OW13689   2.922   9.292   2.284 -0.1639 -0.1204 -0.0820
 1292SOL    HW113690   2.973   9.378   2.293 -0.6256  0.2801 -1.1874
 1292SOL    HW213691   2.882   9.287   2.193 -1.5166 -0.7583  0.5440
 1293SOL     OW13692   2.315   6.636   2.459 -0.1250 -0.5119  0.1876
 1293SOL    HW113693   2.298   6.734   2.473 -0.5917 -0.8681  2.4114
 1293SOL    HW213694   2.258   6.603   2.384 -0.2484  0.8368 -0.3363
 1294SOL     OW13695   4.601   2.153   2.815 -0.3237  0.0936  0.0795
 1294SOL    HW113696   4.550   2.195   2.890 -1.8286 -0.0572 -0.8491
 1294SOL    HW213697   4.537   2.121   2.744  1.0045 -0.7982 -0.7370
 1295SOL     OW13698   3.398   0.140   0.988 -0.6533  0.2861  0.4125
 1295SOL    HW113699   3.465   0.192   1.042 -0.6444 -0.3954  1.0676
 1295SOL    HW213700   3.443   0.061   0.946 -1.1125 -0.3792  1.1516
 1296SOL     OW13701   4.218   3.133   2.275  0.5738  0.3371 -0.2121
 1296SOL    HW113702   4.144   3.146   2.208 -0.8791 -0.8441  1.1168
 1296SOL    HW213703   4.185   3.075   2.349  2.1717  1.5824  1.5130
 1297SOL     OW13704   4.767   1.233   0.018 -0.0949  0.0144 -0.5993
 1297SOL    HW113705   4.778   1.331   0.033 -1.6707 -0.1922  2.4509
 1297SOL    HW213706   4.847   1.196  -0.029  2.0407  2.1908  1.2404
 1298SOL     OW13707   3.953   9.793   2.633  0.4350 -0.1501  0.7489
 1298SOL    HW113708   3.894   9.859   2.681  0.3922 -1.4411  2.5475
 1298SOL    HW213709   3.977   9.719   2.696 -2.0693 -3.5129 -2.0369
 1299SOL     OW13710   3.348   8.505   2.353 -0.2863 -0.0014 -0.5173
 1299SOL    HW113711   3.302   8.593   2.341 -0.5335 -0.0949 -0.2650
 1299SOL    HW213712   3.284   8.431   2.330  0.0499 -0.1030 -1.1385
 1300SOL     OW13713   3.453   2.962   0.516 -0.3296  0.1363 -0.5977
 1300SOL    HW113714   3.502   2.994   0.435  1.2123 -2.3528 -0.7055
 1300SOL    HW213715   3.384   2.895   0.488  0.6404 -1.2002  0.2099
 1301SOL     OW13716   2.678   4.468   0.042  0.5564 -0.0531  0.4029
 1301SOL    HW113717   2.686   4.369   0.054  1.2752 -0.2017 -1.2178
 1301SOL    HW213718   2.622   4.487  -0.038 -2.0803  0.9083  2.3773
 1302SOL     OW13719   4.012   1.716   0.789 -0.5148 -0.3235  0.3345
 1302SOL    HW113720   4.098   1.664   0.782 -1.8030 -2.5815  0.6731
 1302SOL    HW213721   3.936   1.655   0.767 -2.0099  1.7627 -0.3456
 1303SOL     OW13722   3.171   5.466   1.916 -0.0303 -0.2526 -0.1024
 1303SOL    HW113723   3.166   5.489   2.013 -2.8847  0.5454 -0.4102
 1303SOL    HW213724   3.171   5.366   1.905 -0.0846 -0.3388  0.6932
 1304SOL     OW13725   3.425   2.907   0.204  0.3810  0.1887  0.0200
 1304SOL    HW113726   3.489   2.950   0.140  1.5202  0.1739  1.1514
 1304SOL    HW213727   3.360   2.975   0.236  0.5742  0.4743 -0.1904
 1305SOL     OW13728   3.752   8.200   1.254 -0.0062 -0.2785 -0.3436
 1305SOL    HW113729   3.802   8.249   1.325 -0.7898 -0.0701  0.0730
 1305SOL    HW213730   3.654   8.220   1.263 -0.3900 -2.2898  0.1248
 1306SOL     OW13731   3.998   3.337   1.066  0.3578  0.0999  0.1508
 1306SOL    HW113732   3.919   3.294   1.109 -1.1441  0.9853 -1.6478
 1306SOL    HW213733   3.986   3.436   1.064  0.9313  0.1573 -1.2387
 1307SOL     OW13734   3.955   1.884   2.442  0.4455  0.0306  0.4574
 1307SOL    HW113735   3.995   1.899   2.532 -2.6061  0.5729  1.7851
 1307SOL    HW213736   3.875   1.943   2.430 -0.5530 -1.6669 -1.7071
 1308SOL     OW13737   4.239   3.478   1.715  0.2355  0.1362  0.1900
 1308SOL    HW113738   4.160   3.533   1.687  0.2333  0.5070  0.9330
 1308SOL    HW213739   4.212   3.413   1.785  0.6442  0.4319  0.6265
 1309SOL     OW13740   4.456   4.169   1.141 -0.1435  0.9188  0.0268
 1309SOL    HW113741   4.452   4.100   1.213 -1.6794  1.0698  0.1123
 1309SOL    HW213742   4.517   4.243   1.169 -1.1188  1.2269  1.4207
 1310SOL     OW13743   2.997   4.281   2.614 -0.0473  0.1596 -0.0956
 1310SOL    HW113744   3.051   4.306   2.695 -0.7773 -0.4063  0.5833
 1310SOL    HW213745   2.998   4.181   2.604 -2.3956 -0.0060  0.9629
 1311SOL     OW13746   4.999   1.861   1.310  0.4033  0.7653  0.3234
 1311SOL    HW113747   4.914   1.811   1.330  0.6711  0.4677  0.7185
 1311SOL    HW213748   5.076   1.798   1.315  0.7897  1.3155  1.2289
 1312SOL     OW13749   2.844   8.395   2.448  0.2226 -0.1870 -0.6101
 1312SOL    HW113750   2.870   8.354   2.536 -1.7795 -0.2733 -0.0509
 1312SOL    HW213751   2.876   8.489   2.444 -1.0181  0.3005  0.8388
 1313SOL     OW13752   3.433   9.733   1.557  0.1324 -0.5084  0.6349
 1313SOL    HW113753   3.429   9.667   1.633  0.9857  0.4997  1.5653
 1313SOL    HW213754   3.464   9.686   1.474  2.7521 -0.8495  1.7787
 1314SOL     OW13755   2.243   1.497   2.333  0.2324 -0.3523 -0.4253
 1314SOL    HW113756   2.156   1.448   2.324  0.0868 -0.2101  0.1847
 1314SOL    HW213757   2.319   1.432   2.325  0.0291 -0.7736  0.9512
 1315SOL     OW13758   2.284   1.664   1.871 -0.4899 -0.7704  0.1861
 1315SOL    HW113759   2.279   1.588   1.806  0.1847 -0.8187  0.1875
 1315SOL    HW213760   2.320   1.631   1.958 -1.8022 -0.7976  0.7389
 1316SOL     OW13761   3.983   0.344   2.471 -0.4588 -0.2343  0.4288
 1316SOL    HW113762   3.918   0.419   2.456  0.1796  0.4207  0.8968
 1316SOL    HW213763   4.004   0.336   2.568 -0.0583 -0.6270  0.3135
 1317SOL     OW13764   3.162   2.445   0.578 -0.0311  0.0313  0.5456
 1317SOL    HW113765   3.119   2.528   0.613  0.1310  0.1195  0.5351
 1317SOL    HW213766   3.114   2.414   0.496 -1.1053 -0.7970  1.4759
 1318SOL     OW13767   3.201   5.484   1.283  0.2756 -0.5047 -0.4490
 1318SOL    HW113768   3.182   5.536   1.366  0.1649 -0.9561 -0.1945
 1318SOL    HW213769   3.168   5.390   1.293 -0.0294 -0.4760 -1.1227
 1319SOL     OW13770   2.942   3.272   1.602  0.2354  0.1266 -0.1602
 1319SOL    HW113771   2.885   3.241   1.526  0.3728  0.9215 -0.6016
 1319SOL    HW213772   2.885   3.293   1.681  0.0189 -0.0227 -0.2772
 1320SOL     OW13773   4.928   2.949   0.603 -0.4948  0.0412  0.0316
 1320SOL    HW113774   4.941   3.022   0.670  1.6185 -0.7707  0.5571
 1320SOL    HW213775   4.854   2.888   0.633 -0.3192  0.3257  1.0505
 1321SOL     OW13776   3.683   1.226   2.415 -0.0941  0.4062  0.4380
 1321SOL    HW113777   3.622   1.198   2.341 -0.5411  1.9276  0.2185
 1321SOL    HW213778   3.712   1.145   2.466 -0.9551 -0.5050 -0.4854
 1322SOL     OW13779   2.784   8.811   2.683  0.4752 -0.2441 -0.1133
 1322SOL    HW113780   2.718   8.854   2.745  0.6003 -0.2589  0.0281
 1322SOL    HW213781   2.763   8.839   2.589  0.9319  0.6151  0.0352
 1323SOL     OW13782   3.052   5.652   1.434  0.6284  0.7173  0.9835
 1323SOL    HW113783   3.109   5.641   1.515 -0.6375  1.1094  1.9462
 1323SOL    HW213784   2.955   5.645   1.460  0.2152  0.6467 -0.5212
 1324SOL     OW13785   2.059   1.262   2.322  0.3581 -0.0473 -0.1614
 1324SOL    HW113786   2.058   1.198   2.398 -0.3023  0.5804  0.3634
 1324SOL    HW213787   2.134   1.240   2.260  1.8561  0.3874  1.4807
 1325SOL     OW13788   2.520   2.650   1.309  0.4675 -0.1029 -0.3704
 1325SOL    HW113789   2.582   2.649   1.230  2.8227 -0.5958  1.4051
 1325SOL    HW213790   2.516   2.743   1.346 -0.9714  0.2187 -1.2837
 1326SOL     OW13791   3.049   4.298   0.289  0.8111  0.1379 -0.5813
 1326SOL    HW113792   3.082   4.392   0.282  1.2876 -0.1706 -3.0198
 1326SOL    HW213793   2.949   4.297   0.287  0.8191  0.5327 -2.0922
 1327SOL     OW13794   3.742   0.427   1.878 -0.7320  0.0597 -0.1799
 1327SOL    HW113795   3.725   0.382   1.966 -0.3533  2.6869  1.2623
 1327SOL    HW213796   3.838   0.415   1.852 -0.7824 -0.4931 -0.1202
 1328SOL     OW13797   2.322   4.089   1.609 -0.4549  0.1020  0.1485
 1328SOL    HW113798   2.295   3.996   1.587  1.0314 -0.2223 -0.3958
 1328SOL    HW213799   2.405   4.113   1.557 -0.1597  1.3157  1.1410
 1329SOL     OW13800   3.708   1.247   0.155  0.2904 -0.1065  0.6197
 1329SOL    HW113801   3.616   1.208   0.152  0.8162 -1.3912  1.1596
 1329SOL    HW213802   3.773   1.179   0.189  1.1361  1.4133  2.1309
 1330SOL     OW13803   4.488   1.576   0.174 -0.6229 -0.1519  0.1686
 1330SOL    HW113804   4.481   1.662   0.225 -0.6955  0.4582 -0.8499
 1330SOL    HW213805   4.581   1.567   0.137 -0.1151 -1.3200  1.6451
 1331SOL     OW13806   4.093   8.821   0.936 -0.0168 -0.0744 -0.4110
 1331SOL    HW113807   4.026   8.818   0.862  0.8052 -1.3798 -1.1198
 1331SOL    HW213808   4.067   8.754   1.006 -1.2393  1.7247  0.8885
 1332SOL     OW13809   2.481   4.767   2.240  0.0684 -0.7277 -0.5935
 1332SOL    HW113810   2.480   4.863   2.270 -0.9018 -0.3998 -1.6302
 1332SOL    HW213811   2.526   4.711   2.310 -1.1685  0.1671  0.9568
 1333SOL     OW13812   5.131   2.991   1.417 -0.3672  0.1007  0.0597
 1333SOL    HW113813   5.089   2.974   1.506 -1.8704 -1.3283 -0.9008
 1333SOL    HW213814   5.211   2.933   1.407 -1.7383 -1.7234 -0.5746
 1334SOL     OW13815   2.925   1.473   0.632  0.0386  0.2269 -0.0429
 1334SOL    HW113816   2.941   1.375   0.623  1.4239  0.4328  0.0834
 1334SOL    HW213817   3.002   1.523   0.592 -0.2576  1.2561  0.6540
 1335SOL     OW13818   3.898   1.052   0.257  0.7450 -0.3880 -0.8158
 1335SOL    HW113819   3.983   1.004   0.275  0.5774 -0.6770 -0.7962
 1335SOL    HW213820   3.865   1.095   0.341  1.3113  0.4339 -1.0098
 1336SOL     OW13821   4.402   1.789   2.842  0.5401  0.0682  0.5601
 1336SOL    HW113822   4.436   1.850   2.914 -0.8273  2.4889 -0.7724
 1336SOL    HW213823   4.342   1.720   2.881  2.5477 -0.8133  2.1754
 1337SOL     OW13824   3.886   0.642   0.939 -0.2055  0.0623 -0.2441
 1337SOL    HW113825   3.923   0.552   0.913 -1.5067 -0.5178 -0.1194
 1337SOL    HW213826   3.920   0.666   1.030 -1.0279 -0.9874  0.3510
 1338SOL     OW13827   2.429   4.358   2.117 -0.0753  0.4421 -0.2712
 1338SOL    HW113828   2.405   4.284   2.054  0.4029 -0.7520  0.9241
 1338SOL    HW213829   2.432   4.445   2.067 -0.0251 -0.4331 -1.8177
 1339SOL     OW13830   2.958   5.775   1.832 -0.1413  0.6431  0.4723
 1339SOL    HW113831   2.919   5.714   1.764  0.0978 -0.5082  1.3344
 1339SOL    HW213832   2.989   5.860   1.789  0.0448 -0.0890 -0.8463
 1340SOL     OW13833   3.596   2.676   2.072  0.6042 -0.0754  0.5572
 1340SOL    HW113834   3.589   2.738   2.150  2.0131 -1.1911  1.6008
 1340SOL    HW213835   3.526   2.606   2.078  0.4192  0.1100  0.5694
 1341SOL     OW13836   3.636   0.029   1.379  0.3970 -0.3042 -0.1952
 1341SOL    HW113837   3.612  -0.045   1.318 -1.2317  0.9200 -1.0802
 1341SOL    HW213838   3.589   0.017   1.467 -0.2817 -0.0318 -0.5230
 1342SOL     OW13839   3.105   8.258   1.059  0.2268  0.4516 -1.0076
 1342SOL    HW113840   3.090   8.262   1.158 -2.0405 -1.3238 -1.2259
 1342SOL    HW213841   3.183   8.198   1.040 -0.0571 -0.1506 -0.3315
 1343SOL     OW13842   3.258   0.801   1.532 -0.4763 -0.1298 -0.0816
 1343SOL    HW113843   3.348   0.840   1.510  0.5027 -0.7660  2.5931
 1343SOL    HW213844   3.195   0.874   1.557 -0.7920  0.3361 -2.1213
 1344SOL     OW13845   4.720   3.203   0.025  0.3854 -0.4690 -0.2265
 1344SOL    HW113846   4.663   3.283   0.008  1.2679  0.3214  0.4856
 1344SOL    HW213847   4.723   3.146  -0.057 -0.9214 -0.2099 -0.4628
 1345SOL     OW13848   4.814   3.728   1.937 -0.1683  0.1519  0.3215
 1345SOL    HW113849   4.779   3.748   1.845 -0.5049 -4.1033 -0.5599
 1345SOL    HW213850   4.874   3.648   1.934  1.7371  1.3664  3.4637
 1346SOL     OW13851   2.301   1.342   1.155 -0.0234  0.4898  0.3569
 1346SOL    HW113852   2.358   1.329   1.236 -0.8770  0.9548  1.0369
 1346SOL    HW213853   2.306   1.261   1.097  0.9902  0.3596  0.6217
 1347SOL     OW13854   2.794   2.466   1.898 -0.0228  0.3873 -0.7018
 1347SOL    HW113855   2.737   2.522   1.838  1.4428  3.1232  0.3734
 1347SOL    HW213856   2.883   2.452   1.856  1.2787  2.9651  1.1070
 1348SOL     OW13857   3.039   6.709   1.318 -0.2099  0.1728  0.5169
 1348SOL    HW113858   3.045   6.773   1.242 -1.0572  0.3628  0.6130
 1348SOL    HW213859   3.039   6.759   1.404  0.1123 -0.0136  0.6291
 1349SOL     OW13860   3.483   3.834   1.167 -0.2039  0.2247 -0.3249
 1349SOL    HW113861   3.420   3.816   1.243  0.1621 -0.8324 -0.2725
 1349SOL    HW213862   3.438   3.813   1.080  0.4257 -1.5448 -0.2325
 1350SOL     OW13863   3.171   4.333   0.557  0.4966 -0.4053  0.0140
 1350SOL    HW113864   3.225   4.412   0.586  1.0388 -0.1818 -1.5485
 1350SOL    HW213865   3.081   4.363   0.525 -0.2806 -0.6974  1.8466
 1351SOL     OW13866   4.465   3.469   1.200  0.0826  0.0943  0.3585
 1351SOL    HW113867   4.544   3.411   1.180  0.2547  0.8396 -1.1981
 1351SOL    HW213868   4.381   3.420   1.177  0.1409 -0.2816  0.9494
 1352SOL     OW13869   3.200   5.391   0.990 -0.8424 -0.4199  0.3947
 1352SOL    HW113870   3.157   5.410   1.079 -3.2629  0.4643 -0.8869
 1352SOL    HW213871   3.182   5.468   0.929  0.4480 -1.2074 -0.9952
 1353SOL     OW13872   3.243   3.270   2.790 -0.0415 -0.3047  0.4927
 1353SOL    HW113873   3.164   3.332   2.795  1.8094  2.1407  0.4127
 1353SOL    HW213874   3.211   3.175   2.789 -2.9508  0.6197  0.8747
 1354SOL     OW13875   4.730   1.746   0.080  0.0989 -0.0088 -0.5889
 1354SOL    HW113876   4.772   1.831   0.048 -1.0672  0.4329 -0.9587
 1354SOL    HW213877   4.740   1.739   0.179  2.2247 -0.5602 -0.8179
 1355SOL     OW13878   4.329   8.545   0.042 -0.1585  0.2634 -0.1118
 1355SOL    HW113879   4.411   8.582   0.087  0.1118  0.9037 -1.1169
 1355SOL    HW213880   4.307   8.601  -0.038 -2.1109  0.6459  0.6589
 1356SOL     OW13881   2.863   2.110   1.209 -0.2176  0.2305  0.3036
 1356SOL    HW113882   2.810   2.173   1.152 -0.0211 -0.2255 -0.3859
 1356SOL    HW213883   2.922   2.054   1.151 -0.7749 -0.9510  0.8642
 1357SOL     OW13884   3.129   3.884   1.710 -0.2511  0.1947 -0.1361
 1357SOL    HW113885   3.107   3.938   1.628 -1.3043  2.5562  1.6627
 1357SOL    HW213886   3.147   3.789   1.683 -0.0483  1.0443 -3.1583
 1358SOL     OW13887   3.533   9.469   2.341 -0.0812  0.1596  0.3250
 1358SOL    HW113888   3.485   9.435   2.421 -1.5244 -1.9258 -1.3800
 1358SOL    HW213889   3.631   9.472   2.360 -0.2435 -1.8135  1.6407
 1359SOL     OW13890   2.548   3.282   0.576 -0.2351 -0.0215  0.1147
 1359SOL    HW113891   2.552   3.202   0.635  1.5448  0.8575  1.2062
 1359SOL    HW213892   2.599   3.358   0.618  0.1974  0.9278 -2.0710
 1360SOL     OW13893   3.534   8.828   1.879  0.1089 -0.2308  0.0104
 1360SOL    HW113894   3.621   8.797   1.919  0.5684 -0.5350 -1.2054
 1360SOL    HW213895   3.548   8.915   1.832 -0.1027 -0.5812 -0.7128
 1361SOL     OW13896   3.768   1.030   2.620 -1.0611  0.5416  0.4624
 1361SOL    HW113897   3.771   0.930   2.622 -1.0528  0.4886 -1.4441
 1361SOL    HW213898   3.802   1.066   2.707 -0.5065 -1.0949  0.9431
 1362SOL     OW13899   3.645   4.166   1.617  0.1127  0.1214 -0.0660
 1362SOL    HW113900   3.619   4.218   1.698 -0.5093 -1.3603  0.6987
 1362SOL    HW213901   3.696   4.225   1.555  0.4913  1.3099  1.3446
 1363SOL     OW13902   2.819   7.934   2.375  0.5681 -0.1601  0.4078
 1363SOL    HW113903   2.763   7.979   2.444  0.7881  1.2370 -0.3094
 1363SOL    HW213904   2.870   8.003   2.324  0.3155 -1.1745 -1.2339
 1364SOL     OW13905   3.989   2.464   1.325 -0.1257  0.4136 -0.2752
 1364SOL    HW113906   3.972   2.436   1.231 -0.7383  2.6544 -0.8420
 1364SOL    HW213907   3.903   2.488   1.369  0.3302  0.8347  0.3927
 1365SOL     OW13908   3.392   0.606   0.004 -0.1836 -0.6342 -0.0817
 1365SOL    HW113909   3.349   0.603   0.094  1.9428 -0.4067  0.9896
 1365SOL    HW213910   3.406   0.701  -0.023  0.8073 -0.6955  0.1810
 1366SOL     OW13911   3.330   5.004   1.479 -0.6862  0.5250 -0.8110
 1366SOL    HW113912   3.342   5.064   1.400  1.5488  2.1707  0.7421
 1366SOL    HW213913   3.299   5.058   1.557 -2.5112 -1.0385 -0.4128
 1367SOL     OW13914   2.393   9.785   2.722  0.7390 -0.0142  0.0287
 1367SOL    HW113915   2.384   9.818   2.815  2.9639  3.8175 -1.0193
 1367SOL    HW213916   2.313   9.812   2.669  1.5411  1.8153 -0.2702
 1368SOL     OW13917   3.112   8.778   2.499  0.0128 -0.3266  0.0783
 1368SOL    HW113918   3.024   8.746   2.464 -0.2001  0.4745 -0.1316
 1368SOL    HW213919   3.160   8.828   2.428 -0.3152  1.1034  0.8410
 1369SOL     OW13920   2.874   6.023   2.128  0.1476  0.8229  0.1250
 1369SOL    HW113921   2.938   5.951   2.157  0.6856  0.9737 -0.6944
 1369SOL    HW213922   2.814   5.987   2.057 -1.8897  0.1227  2.1274
 1370SOL     OW13923   2.098   4.250   1.734  0.4227  0.0127 -0.4562
 1370SOL    HW113924   2.140   4.216   1.650 -0.1187  1.3773 -1.2997
 1370SOL    HW213925   2.128   4.345   1.749  1.0048 -0.4240  1.2187
 1371SOL     OW13926   3.773   8.006   0.274 -0.2746 -0.1239 -0.6177
 1371SOL    HW113927   3.739   7.951   0.198  0.8504  0.7976 -1.8049
 1371SOL    HW213928   3.837   7.953   0.329  1.0735  0.0851 -1.9596
 1372SOL     OW13929   3.059   7.559   1.392 -0.3874 -0.2073  0.0967
 1372SOL    HW113930   2.975   7.517   1.426 -1.9987  0.7845 -2.4747
 1372SOL    HW213931   3.090   7.630   1.455  0.1136 -2.4842  2.4585
 1373SOL     OW13932   3.712   4.779   0.115 -0.3493 -0.0555 -0.2519
 1373SOL    HW113933   3.762   4.694   0.100  0.1709  0.3099 -0.5790
 1373SOL    HW213934   3.660   4.772   0.201 -0.3551 -0.7222 -0.3075
 1374SOL     OW13935   3.717   4.624   1.042 -0.2648  0.1893  0.7668
 1374SOL    HW113936   3.647   4.690   1.069 -1.6087 -0.3217 -1.3725
 1374SOL    HW213937   3.778   4.607   1.120 -0.9365  2.5983  1.8695
 1375SOL     OW13938   4.314   0.546   0.224  0.1189  0.8190  0.0502
 1375SOL    HW113939   4.216   0.566   0.230 -0.0783 -0.2085  0.2747
 1375SOL    HW213940   4.339   0.538   0.127 -0.3433 -0.5010  0.0365
 1376SOL     OW13941   3.811   5.500   0.936  0.0964 -0.1175  0.0487
 1376SOL    HW113942   3.845   5.442   0.862  0.4847 -1.3728  1.2097
 1376SOL    HW213943   3.756   5.574   0.897 -0.7652 -1.4918 -1.4181
 1377SOL     OW13944   2.653   4.485   1.643  0.3165 -0.3818  0.3408
 1377SOL    HW113945   2.737   4.536   1.629  0.7779 -1.2527 -0.1276
 1377SOL    HW213946   2.624   4.444   1.556 -1.2008  0.8208  0.2427
 1378SOL     OW13947   3.671   3.087   0.379  0.4990  0.6568  0.4380
 1378SOL    HW113948   3.770   3.101   0.373  0.5845 -0.5779 -1.7682
 1378SOL    HW213949   3.626   3.175   0.395  1.8694  1.4599 -0.0259
 1379SOL     OW13950   3.527   3.069   2.135 -0.0697 -0.2194 -0.4783
 1379SOL    HW113951   3.557   2.997   2.198 -0.2992 -0.9413 -1.1784
 1379SOL    HW213952   3.460   3.127   2.180  0.1482 -0.4174  0.1098
 1380SOL     OW13953   2.776   5.015   0.379  0.0814  0.2259 -0.6127
 1380SOL    HW113954   2.818   4.996   0.289  0.9392 -2.0998  0.2298
 1380SOL    HW213955   2.791   4.937   0.439 -1.7761  1.1558  1.1113
 1381SOL     OW13956   3.129   6.032   1.808  0.1125  0.1416 -0.0302
 1381SOL    HW113957   3.134   6.025   1.708 -2.8524  0.0504 -0.2083
 1381SOL    HW213958   3.112   6.127   1.834  0.7334  0.1399  0.3988
 1382SOL     OW13959   5.002   3.502   1.616  0.4212 -0.2354 -0.3092
 1382SOL    HW113960   4.944   3.561   1.560 -1.6851  1.0603  3.0220
 1382SOL    HW213961   5.028   3.551   1.699  3.8128 -1.9060 -0.3309
 1383SOL     OW13962   3.083   2.580   2.774  0.5664 -0.3619  0.4810
 1383SOL    HW113963   3.041   2.489   2.784 -2.4479  1.1753  2.4959
 1383SOL    HW213964   3.141   2.598   2.853 -0.2754  0.1870  0.9750
 1384SOL     OW13965   4.135   1.326   0.547  0.5450  0.1148  0.1307
 1384SOL    HW113966   4.217   1.380   0.529  1.6658 -1.0359  1.6580
 1384SOL    HW213967   4.160   1.242   0.595 -1.2137 -1.5837 -1.8407
 1385SOL     OW13968   3.331   1.313   2.389  0.3884  0.3500 -0.0344
 1385SOL    HW113969   3.398   1.386   2.405  3.9071 -2.8085  0.1358
 1385SOL    HW213970   3.288   1.288   2.476  3.2248 -1.5297  0.8635
 1386SOL     OW13971   4.485   5.091   0.821  0.2009  0.7682 -0.3475
 1386SOL    HW113972   4.562   5.102   0.758  0.2689  1.3062 -0.1714
 1386SOL    HW213973   4.501   5.012   0.880  1.0080  1.3718  0.2528
 1387SOL     OW13974   3.002   9.967   2.476  0.1782 -0.0261 -0.0743
 1387SOL    HW113975   2.929  10.035   2.473 -0.4493 -0.5501  2.4677
 1387SOL    HW213976   3.067   9.986   2.402 -2.0790  0.9128 -1.8962
 1388SOL     OW13977   2.332   8.007   2.538 -0.3023 -0.0123 -0.1376
 1388SOL    HW113978   2.336   8.002   2.638  1.3298  1.4631 -0.1024
 1388SOL    HW213979   2.284   8.090   2.511 -1.0907 -0.6143 -0.5849
 1389SOL     OW13980   2.928   6.378   1.366  0.8088 -0.2648 -0.0614
 1389SOL    HW113981   2.940   6.476   1.378  4.2144 -0.5318 -0.6404
 1389SOL    HW213982   2.890   6.359   1.275  0.7874  0.4767 -0.2068
 1390SOL     OW13983   3.030   5.090   0.971 -0.2196  0.6924  0.3245
 1390SOL    HW113984   2.955   5.153   0.990 -1.7052 -1.2773  1.2782
 1390SOL    HW213985   3.010   5.038   0.888 -0.2568 -0.3026  0.9407
 1391SOL     OW13986   2.986   6.413   0.286 -0.5082 -0.1590  0.0075
 1391SOL    HW113987   3.052   6.416   0.211  0.3098 -1.5542  0.6509
 1391SOL    HW213988   2.975   6.505   0.324  1.2449  0.0663  0.0265
 1392SOL     OW13989   4.646   2.050   1.177  0.3437 -0.3308  0.4307
 1392SOL    HW113990   4.575   2.085   1.238  0.4040  2.4824 -1.0630
 1392SOL    HW213991   4.736   2.077   1.210  0.4415  0.1360 -0.1958
 1393SOL     OW13992   2.818   7.579   0.869 -0.3699  0.2634 -0.2019
 1393SOL    HW113993   2.858   7.531   0.792  1.3524 -0.9775  1.4203
 1393SOL    HW213994   2.858   7.671   0.876  0.8120 -0.2773  0.2657
 1394SOL     OW13995   3.480   3.155   2.569  0.3167 -0.5559  0.1787
 1394SOL    HW113996   3.559   3.201   2.528 -0.5036 -1.2278 -2.2546
 1394SOL    HW213997   3.464   3.192   2.660  2.1800  1.0421 -0.0938
 1395SOL     OW13998   3.967   4.300   0.094  0.1990 -0.0625 -0.5247
 1395SOL    HW113999   3.966   4.222   0.156 -0.2248  0.3112 -0.0528
 1395SOL    HW214000   4.042   4.361   0.118  0.1904 -0.0450 -0.5442
 1396SOL     OW14001   2.948   9.527   0.900 -0.3037  0.4133  0.7442
 1396SOL    HW114002   3.018   9.472   0.945  1.3143  1.2814 -0.6975
 1396SOL    HW214003   2.875   9.467   0.866  0.7524 -0.7024  0.4181
 1397SOL     OW14004   4.493   3.522   0.501  0.0783  0.6175 -0.0414
 1397SOL    HW114005   4.416   3.549   0.558  0.7496  0.9265  0.7323
 1397SOL    HW214006   4.576   3.567   0.534  0.8575 -0.8658  0.0332
 1398SOL     OW14007   4.510   3.613   0.228  0.6065 -0.1978  0.5986
 1398SOL    HW114008   4.490   3.567   0.315  0.7700 -0.6765  0.3864
 1398SOL    HW214009   4.444   3.582   0.159  1.9771 -1.7055 -0.0801
 1399SOL     OW14010   4.384   0.612   1.068 -0.5252 -0.1029  0.4312
 1399SOL    HW114011   4.442   0.684   1.106  0.2401 -0.4152 -0.1512
 1399SOL    HW214012   4.415   0.523   1.101 -1.4204 -0.1828  1.0813
 1400SOL     OW14013   3.361   8.721   2.643  0.4183 -0.1029 -0.1743
 1400SOL    HW114014   3.347   8.762   2.734  0.9528 -0.5187  0.0991
 1400SOL    HW214015   3.278   8.730   2.589 -0.2648 -0.8265  0.7464
 1401SOL     OW14016   4.517   1.521   0.887  0.0643 -0.2225 -1.1997
 1401SOL    HW114017   4.549   1.431   0.916  1.2328  0.6239  0.1666
 1401SOL    HW214018   4.571   1.553   0.809 -0.2720 -0.6467 -1.6079
 1402SOL     OW14019   4.059   4.433   2.133  0.5727  0.3194 -0.1908
 1402SOL    HW114020   4.027   4.407   2.224  0.5784 -1.0531 -0.5709
 1402SOL    HW214021   4.155   4.408   2.123  0.2141 -0.7320 -1.0313
 1403SOL     OW14022   2.924   7.951   1.443 -0.5743 -0.1543  0.4578
 1403SOL    HW114023   2.854   7.979   1.508 -0.9220 -0.2559  0.1281
 1403SOL    HW214024   2.985   7.885   1.486 -0.8000 -0.2171  0.6826
 1404SOL     OW14025   3.951   4.130   2.232  0.2240  0.2421  0.5212
 1404SOL    HW114026   3.942   4.168   2.324 -2.2492 -1.2811  0.9664
 1404SOL    HW214027   4.033   4.073   2.227  0.8975  1.1226  1.4953
 1405SOL     OW14028   2.600   1.965   2.721 -0.2324 -0.1145  0.2961
 1405SOL    HW114029   2.513   1.934   2.685 -0.2430  0.2144  0.0485
 1405SOL    HW214030   2.645   2.025   2.656  1.2203 -2.0727 -0.5832
 1406SOL     OW14031   3.266   4.933   1.027 -0.4178 -0.1608 -0.1299
 1406SOL    HW114032   3.235   4.863   1.092  1.0796 -0.7991 -0.0926
 1406SOL    HW214033   3.187   4.986   0.996 -1.3680 -0.8923  0.9831
 1407SOL     OW14034   3.081   8.183   1.353  0.2201  0.8284  0.1156
 1407SOL    HW114035   3.173   8.149   1.375 -0.4099 -0.5928  0.6566
 1407SOL    HW214036   3.019   8.105   1.342 -1.2451  1.8148  1.1832
 1408SOL     OW14037   2.360   3.928   1.109 -0.5250 -0.0607 -0.9534
 1408SOL    HW114038   2.391   3.841   1.146 -1.6777  0.3168  0.9826
 1408SOL    HW214039   2.262   3.923   1.089 -0.9313  1.1925  0.5342
 1409SOL     OW14040   3.482   0.916   1.443 -0.1252  0.0328 -0.0692
 1409SOL    HW114041   3.525   1.006   1.449 -0.3141  0.0761  0.6622
 1409SOL    HW214042   3.421   0.914   1.364  3.0306 -0.8174 -2.6031
 1410SOL     OW14043   2.873   8.682   2.392  0.1812 -0.2148  0.1524
 1410SOL    HW114044   2.775   8.702   2.395  0.0934 -0.7228  0.8674
 1410SOL    HW214045   2.909   8.706   2.302 -0.5424  0.2319 -0.0273
 1411SOL     OW14046   3.815   3.352   2.564 -0.0461 -0.4099 -0.1712
 1411SOL    HW114047   3.737   3.408   2.594  0.6578  0.2761  0.3810
 1411SOL    HW214048   3.832   3.279   2.630  0.9853  0.6034  0.6960
 1412SOL     OW14049   3.758   4.125   1.278 -0.2732 -0.2194  0.6788
 1412SOL    HW114050   3.802   4.206   1.238 -0.3631 -1.1981 -1.4247
 1412SOL    HW214051   3.671   4.108   1.231 -0.5251 -1.2225  1.4999
 1413SOL     OW14052   4.300   3.182   0.624  0.9308  0.6547  0.2843
 1413SOL    HW114053   4.253   3.105   0.582  0.9241 -0.3607  2.1365
 1413SOL    HW214054   4.236   3.234   0.681  0.9038  2.1155 -1.0382
 1414SOL     OW14055   3.114   6.126   1.281 -0.2049 -0.6962  0.0278
 1414SOL    HW114056   3.071   6.156   1.366  0.7144  1.9502 -0.3885
 1414SOL    HW214057   3.151   6.034   1.293 -0.1386 -0.3840  2.4622
 1415SOL     OW14058   2.416   1.752   1.294 -0.2812 -0.1303  1.8108
 1415SOL    HW114059   2.317   1.766   1.301 -0.2929  1.5332 -0.8134
 1415SOL    HW214060   2.464   1.834   1.325  0.2299 -0.2828  1.4366
 1416SOL     OW14061   3.168   2.955   2.387  0.1231  0.7896 -0.1031
 1416SOL    HW114062   3.254   2.936   2.434 -0.8209 -0.3750  1.2059
 1416SOL    HW214063   3.105   3.002   2.449 -0.5903  0.6124 -0.6769
 1417SOL     OW14064   2.652   2.377   2.584  0.1943  0.4637  0.7122
 1417SOL    HW114065   2.561   2.418   2.588 -0.0290 -0.0498  0.9276
 1417SOL    HW214066   2.644   2.279   2.568  0.7179  0.4522  0.4976
 1418SOL     OW14067   4.284   8.268   0.115  0.1727  0.4773  0.6996
 1418SOL    HW114068   4.290   8.365   0.092  2.2620  0.2281  0.0750
 1418SOL    HW214069   4.338   8.249   0.197  1.9014 -0.5549 -0.6164
 1419SOL     OW14070   3.941   3.586   2.480 -0.6587 -0.2432 -0.2008
 1419SOL    HW114071   4.001   3.598   2.400 -0.4644  1.9696  0.2555
 1419SOL    HW214072   3.908   3.492   2.482 -0.8565 -0.2868 -3.0262
 1420SOL     OW14073   2.503   6.951   2.249  0.1946 -0.1449  0.2448
 1420SOL    HW114074   2.541   6.932   2.340 -0.3867 -0.5977  0.3945
 1420SOL    HW214075   2.515   6.870   2.191  1.9138  0.6486 -0.5457
 1421SOL     OW14076   3.478   3.135   1.462 -0.2366 -0.0139  0.4576
 1421SOL    HW114077   3.410   3.207   1.450 -0.9479 -0.9156 -1.0396
 1421SOL    HW214078   3.564   3.163   1.418  0.0314  0.6194  1.3470
 1422SOL     OW14079   3.802   4.052   0.923  0.3981 -0.1262 -0.1656
 1422SOL    HW114080   3.850   4.138   0.943 -0.3600 -0.0965  1.5708
 1422SOL    HW214081   3.863   3.975   0.939  0.2014 -0.0407  0.9917
 1423SOL     OW14082   3.456   2.243   2.266 -0.1198  0.5117  0.1873
 1423SOL    HW114083   3.436   2.320   2.326 -1.1079 -1.0124  1.8598
 1423SOL    HW214084   3.378   2.180   2.265  0.7508 -0.5763 -0.9819
 1424SOL     OW14085   3.109   3.003   1.634 -0.0832  0.2302  0.3372
 1424SOL    HW114086   3.075   3.078   1.577  1.2810  0.7978  0.2594
 1424SOL    HW214087   3.151   3.040   1.717 -1.2713 -0.5559  1.3105
 1425SOL     OW14088   4.180   2.803   2.759 -0.8908  0.1365 -0.7490
 1425SOL    HW114089   4.278   2.785   2.757 -0.9457 -0.6249  1.6598
 1425SOL    HW214090   4.132   2.733   2.705 -0.2076 -0.2774 -0.8252
 1426SOL     OW14091   3.123   5.597   0.780 -0.3753  0.3771  0.0635
 1426SOL    HW114092   3.037   5.614   0.827 -1.8815 -0.9822 -2.1311
 1426SOL    HW214093   3.106   5.543   0.698  2.4077  1.2080 -1.1060
 1427SOL     OW14094   2.963   1.778   0.742 -0.5743 -0.1658 -0.3398
 1427SOL    HW114095   2.943   1.874   0.764 -1.6133  0.1233 -2.4828
 1427SOL    HW214096   2.934   1.758   0.649 -1.6115 -2.9480  0.5288
 1428SOL     OW14097   2.325   2.086   1.648 -0.1323 -0.2367 -0.0986
 1428SOL    HW114098   2.284   2.171   1.682 -1.8844 -0.2205 -2.1488
 1428SOL    HW214099   2.266   2.009   1.672  0.2340 -0.5961 -0.3502
 1429SOL     OW14100   3.179   0.089   2.292 -0.4234  0.1930 -0.0522
 1429SOL    HW114101   3.208   0.184   2.308  1.7227  0.3370 -4.2646
 1429SOL    HW214102   3.100   0.088   2.230 -0.1782 -0.8099 -0.3488
 1430SOL     OW14103   5.055   3.518   0.634 -0.7622  0.0909  0.0854
 1430SOL    HW114104   5.069   3.615   0.649 -2.5411  0.2710  0.7113
 1430SOL    HW214105   4.979   3.486   0.691 -0.0548 -1.7046  0.0554
 1431SOL     OW14106   2.731   9.316   0.453  0.3472 -0.2932  0.3577
 1431SOL    HW114107   2.683   9.229   0.452  0.3170 -0.2869  0.9323
 1431SOL    HW214108   2.816   9.307   0.505  1.0985 -0.3677 -0.8616
 1432SOL     OW14109   2.601   1.162   0.540 -0.0062  0.4297 -0.3678
 1432SOL    HW114110   2.578   1.258   0.552 -0.8001  0.3322 -1.0843
 1432SOL    HW214111   2.699   1.149   0.558 -0.1765  1.1065  1.1638
 1433SOL     OW14112   4.458   2.277   0.153  0.0015 -0.1984  0.6165
 1433SOL    HW114113   4.476   2.374   0.168  0.0654 -0.4310  2.1070
 1433SOL    HW214114   4.360   2.259   0.166 -0.3885  0.0415 -1.8067
 1434SOL     OW14115   2.787   0.950   2.667  0.6372 -0.2413  0.3376
 1434SOL    HW114116   2.778   0.942   2.766  0.8653 -0.1547  0.3653
 1434SOL    HW214117   2.702   0.984   2.628  0.9969  1.0322  0.6472
 1435SOL     OW14118   3.018   0.459   0.680 -0.2732 -0.0932 -0.4139
 1435SOL    HW114119   3.066   0.534   0.634  1.6349 -2.3805 -2.2270
 1435SOL    HW214120   3.070   0.429   0.760 -0.2265 -0.5314 -0.6071
 1436SOL     OW14121   2.499   8.380   0.665  0.3018  0.2221  0.1078
 1436SOL    HW114122   2.407   8.416   0.648 -0.2014 -0.4143  1.4233
 1436SOL    HW214123   2.503   8.283   0.641  0.8561  0.4225 -0.6595
 1437SOL     OW14124   3.907   3.032   2.141  0.1144  0.0573 -0.0578
 1437SOL    HW114125   3.870   3.100   2.204  0.0200 -1.8931  2.0840
 1437SOL    HW214126   3.855   3.033   2.055 -1.5212  0.9247  0.9179
 1438SOL     OW14127   3.083   7.808   2.046 -0.9097 -0.2755  0.2690
 1438SOL    HW114128   2.987   7.779   2.053 -1.2236  0.7480  0.3732
 1438SOL    HW214129   3.128   7.794   2.134 -1.5749  1.2992  0.8834
 1439SOL     OW14130   4.152   3.002   0.496  0.1165  0.1010 -0.0879
 1439SOL    HW114131   4.168   2.935   0.423  1.1179 -0.4014  0.5741
 1439SOL    HW214132   4.106   2.956   0.573  0.3096  0.3078  0.1488
 1440SOL     OW14133   2.940   8.863   0.472 -0.2360  0.2067 -0.5290
 1440SOL    HW114134   3.035   8.896   0.475 -0.3650  0.6056 -0.9103
 1440SOL    HW214135   2.927   8.794   0.544  1.0508 -1.7303 -2.0926
 1441SOL     OW14136   3.136   0.667   0.524 -0.6675 -0.3633 -0.3984
 1441SOL    HW114137   3.061   0.682   0.461 -0.0262 -0.6286 -1.2344
 1441SOL    HW214138   3.146   0.746   0.585 -2.5781 -0.9631  0.7263
 1442SOL     OW14139   2.569   0.510   1.885 -0.3074  0.0261 -0.1631
 1442SOL    HW114140   2.656   0.533   1.840 -0.9502  2.0173 -0.4222
 1442SOL    HW214141   2.543   0.585   1.946 -1.8765 -0.5468 -0.1293
 1443SOL     OW14142   3.129   6.313   1.838  0.2627 -0.1768 -0.0517
 1443SOL    HW114143   3.165   6.362   1.917  1.5389  0.2037 -0.8647
 1443SOL    HW214144   3.118   6.376   1.761 -2.2205 -0.2606  0.1862
 1444SOL     OW14145   3.651   8.003   2.428  0.2068  0.1064 -0.6012
 1444SOL    HW114146   3.647   7.937   2.503  0.6437  0.3972 -0.3194
 1444SOL    HW214147   3.649   7.954   2.341  3.1514 -0.4520 -0.3869
 1445SOL     OW14148   5.027   2.589   0.759  0.3448  0.0045 -0.4120
 1445SOL    HW114149   5.016   2.550   0.850 -0.4181  2.7626  0.6885
 1445SOL    HW214150   5.110   2.645   0.756 -0.5625  1.3354 -0.9107
 1446SOL     OW14151   3.131   4.846   1.537  0.2771  0.1918  0.0808
 1446SOL    HW114152   3.211   4.900   1.510  1.2291 -1.3440 -0.2729
 1446SOL    HW214153   3.150   4.798   1.623 -0.4290  0.1743  0.2301
 1447SOL     OW14154   4.513   3.814   0.584  0.5569 -0.1682  0.4073
 1447SOL    HW114155   4.456   3.763   0.647  0.2035 -0.4169 -0.1074
 1447SOL    HW214156   4.609   3.793   0.602  0.4579 -0.2067  0.8851
 1448SOL     OW14157   2.662   1.881   0.972 -0.6063  0.1635 -0.0898
 1448SOL    HW114158   2.605   1.919   1.044  0.6322 -0.5261  1.2809
 1448SOL    HW214159   2.739   1.942   0.953  1.3691 -1.5764  2.0998
 1449SOL     OW14160   2.585   8.117   0.168 -0.2562  0.1627  1.0548
 1449SOL    HW114161   2.645   8.196   0.163 -1.6563  1.2792  1.4265
 1449SOL    HW214162   2.492   8.144   0.145 -0.1513 -2.1095 -2.4115
 1450SOL     OW14163   2.567   7.841   0.996  0.1922 -0.1414  0.2540
 1450SOL    HW114164   2.557   7.865   1.092 -0.0067  1.8589 -0.2421
 1450SOL    HW214165   2.569   7.742   0.986 -1.9162 -0.4066  2.1223
 1451SOL     OW14166   4.237   4.476   0.322 -0.3253 -0.3661 -0.0471
 1451SOL    HW114167   4.287   4.490   0.407  0.3148 -0.0989 -0.4628
 1451SOL    HW214168   4.141   4.459   0.342  0.0037 -1.2960  0.7880
 1452SOL     OW14169   3.274   0.866   2.441 -0.2982 -0.0004  0.2878
 1452SOL    HW114170   3.196   0.916   2.479  1.0537  0.4328  2.5837
 1452SOL    HW214171   3.301   0.908   2.354 -1.7772  0.6720  0.1414
 1453SOL     OW14172   2.926   4.844   1.352 -0.2133  0.4622  1.0537
 1453SOL    HW114173   2.918   4.751   1.316  0.3956  0.7928  0.0263
 1453SOL    HW214174   2.993   4.845   1.427 -0.5031  0.0040  1.3225
 1454SOL     OW14175   3.484   0.257   0.165 -0.3746  0.1923 -0.1984
 1454SOL    HW114176   3.566   0.200   0.155 -2.0230 -2.3138 -0.1290
 1454SOL    HW214177   3.453   0.287   0.075 -1.0332 -1.3547 -0.5048
 1455SOL     OW14178   2.965   4.201   2.158  0.4203 -0.3552  0.2522
 1455SOL    HW114179   2.867   4.221   2.168  0.5668 -0.5665  2.2954
 1455SOL    HW214180   3.002   4.254   2.081 -1.1643  0.1591 -0.1871
 1456SOL     OW14181   3.043   6.832   1.564 -0.2457 -0.0296 -0.5339
 1456SOL    HW114182   3.023   6.765   1.635 -0.9397  0.6642 -0.0614
 1456SOL    HW214183   2.980   6.910   1.573  0.6344  0.7470 -0.9835
 1457SOL     OW14184   3.528   5.037   1.007  0.5079  0.1564 -0.0363
 1457SOL    HW114185   3.501   5.133   1.014  1.1509  0.4869 -1.7797
 1457SOL    HW214186   3.450   4.979   1.030 -0.3954  1.1111 -0.6340
 1458SOL     OW14187   3.355   2.560   0.060 -0.1420 -0.1781  0.3854
 1458SOL    HW114188   3.315   2.468   0.070 -1.7419  0.6498  1.9458
 1458SOL    HW214189   3.364   2.602   0.151 -2.2750  2.3828 -0.5194
 1459SOL     OW14190   3.978   0.054   2.505  0.0993 -0.1073  0.6716
 1459SOL    HW114191   3.953   0.117   2.579 -1.2400  0.7468 -0.4797
 1459SOL    HW214192   3.990  -0.038   2.542  0.9909  0.5935  2.2018
 1460SOL     OW14193   4.107   2.653   0.635  0.0658 -0.2294  0.9735
 1460SOL    HW114194   4.203   2.660   0.606 -0.1288 -0.3343  0.3010
 1460SOL    HW214195   4.073   2.561   0.613 -0.2336 -0.1421  1.0756
 1461SOL     OW14196   3.197   3.816   0.215 -0.0038 -1.4380 -0.8851
 1461SOL    HW114197   3.279   3.838   0.163 -0.4639  0.7384 -0.7311
 1461SOL    HW214198   3.135   3.895   0.215 -0.6185 -1.8759  1.7759
 1462SOL     OW14199   3.707   5.754   0.856  0.1842  0.6320  0.6585
 1462SOL    HW114200   3.793   5.787   0.894  1.4298 -1.3101 -0.4043
 1462SOL    HW214201   3.723   5.719   0.763 -1.8096  0.5116  0.3384
 1463SOL     OW14202   2.161   6.299   1.599 -0.6663 -0.2671  0.1808
 1463SOL    HW114203   2.152   6.355   1.682 -0.5465 -0.4380  0.3094
 1463SOL    HW214204   2.077   6.307   1.545 -0.4913  0.3594 -0.0059
 1464SOL     OW14205   3.493   8.795   0.732  0.5011  0.8172 -0.4400
 1464SOL    HW114206   3.401   8.758   0.737 -0.0154  2.0667 -0.5559
 1464SOL    HW214207   3.559   8.720   0.734 -0.5101 -0.0854 -0.4101
 1465SOL     OW14208   3.633   0.454   0.299 -0.0039 -0.4546 -0.8176
 1465SOL    HW114209   3.559   0.399   0.259 -1.8300 -1.4829  3.7238
 1465SOL    HW214210   3.690   0.396   0.357  2.2161  1.1378 -1.3356
 1466SOL     OW14211   3.792   2.486   2.421  0.2148 -0.4301 -0.0589
 1466SOL    HW114212   3.802   2.584   2.403 -0.3882 -1.0263 -3.9007
 1466SOL    HW214213   3.881   2.441   2.408  0.7055 -0.3302  2.5938
 1467SOL     OW14214   4.309   2.581   1.934 -0.3224  0.2503  0.2458
 1467SOL    HW114215   4.287   2.507   1.870 -1.4272  0.2672  0.5942
 1467SOL    HW214216   4.302   2.669   1.887  3.2320  0.0774 -0.8053
 1468SOL     OW14217   2.769   9.483   0.226  0.5601 -0.4686 -0.0621
 1468SOL    HW114218   2.696   9.550   0.235  0.3091 -0.7297 -0.1189
 1468SOL    HW214219   2.762   9.416   0.300  1.1993 -0.0606  0.3618
 1469SOL     OW14220   2.364   3.446   0.168  0.4411 -0.1126  0.1288
 1469SOL    HW114221   2.358   3.525   0.229 -2.8063 -0.3179  0.1610
 1469SOL    HW214222   2.429   3.379   0.205 -0.4469  0.3756  2.6304
 1470SOL     OW14223   2.875   5.558   0.403  0.0482  0.2237  0.2935
 1470SOL    HW114224   2.784   5.578   0.366 -0.1421 -0.3417  0.4498
 1470SOL    HW214225   2.871   5.559   0.503 -0.3362 -2.2125  0.3204
 1471SOL     OW14226   2.573   6.005   0.225 -0.0681  1.0228 -0.0879
 1471SOL    HW114227   2.590   6.040   0.133 -0.5478 -1.1988 -1.0482
 1471SOL    HW214228   2.638   5.933   0.246 -1.2876  0.0752  0.4879
 1472SOL     OW14229   2.650   0.166   2.623 -0.1954 -0.1670 -0.4045
 1472SOL    HW114230   2.647   0.249   2.568  0.3753  0.1680  0.0544
 1472SOL    HW214231   2.571   0.164   2.684 -0.4828 -0.2148 -0.7810
 1473SOL     OW14232   3.916   4.673   0.346 -0.2826  0.0922 -0.3996
 1473SOL    HW114233   3.936   4.588   0.396 -0.9847  0.5190  0.6383
 1473SOL    HW214234   3.820   4.697   0.359  0.2937  1.9232  0.7135
 1474SOL     OW14235   3.655   0.268   2.605 -0.1247 -0.5185 -0.6259
 1474SOL    HW114236   3.602   0.210   2.543  0.0632 -2.0942  0.6703
 1474SOL    HW214237   3.594   0.326   2.658 -0.3709 -0.2991 -1.1446
 1475SOL     OW14238   3.766   4.515   0.080 -0.0070  0.2151  0.1783
 1475SOL    HW114239   3.824   4.435   0.065  0.0836  0.3895 -0.4018
 1475SOL    HW214240   3.701   4.495   0.153 -1.2095 -1.0528 -1.1873
 1476SOL     OW14241   2.972   8.301   0.122  0.1308  0.3157  0.2027
 1476SOL    HW114242   2.982   8.389   0.168  0.2591  1.1954 -1.4695
 1476SOL    HW214243   2.910   8.311   0.044  2.3748 -0.3960 -1.7081
 1477SOL     OW14244   2.936   9.973   1.941 -0.5033 -0.0065  0.2957
 1477SOL    HW114245   2.889   9.954   1.855 -0.3027  3.8477 -0.7836
 1477SOL    HW214246   3.034   9.958   1.931 -0.6211 -0.7477  0.2394
 1478SOL     OW14247   2.382   1.918   2.573  0.8391  0.3571 -0.1785
 1478SOL    HW114248   2.394   2.005   2.525 -0.3389 -0.4813 -2.0629
 1478SOL    HW214249   2.352   1.848   2.508  0.3330 -1.1146  1.5880
 1479SOL     OW14250   3.042   9.131   1.445  0.2244  0.1409  0.2420
 1479SOL    HW114251   3.125   9.104   1.397  1.4824 -1.1392  3.0269
 1479SOL    HW214252   2.962   9.102   1.392  1.5562 -0.5057 -1.4454
 1480SOL     OW14253   4.016   4.359   2.407 -0.4178  0.0430 -0.4883
 1480SOL    HW114254   3.998   4.355   2.505 -2.7130  0.9059 -0.8353
 1480SOL    HW214255   4.106   4.398   2.391  0.3428 -0.9166  1.2898
 1481SOL     OW14256   3.140   5.838   1.259  0.0185 -0.1944  0.1549
 1481SOL    HW114257   3.108   5.780   1.334  0.4084 -1.1490 -0.4049
 1481SOL    HW214258   3.218   5.794   1.214  0.8287  1.1411  0.2200
 1482SOL     OW14259   3.034   6.213   1.541 -0.9024  0.0555  0.6870
 1482SOL    HW114260   2.980   6.173   1.616 -2.0007  0.2434  0.0071
 1482SOL    HW214261   2.980   6.283   1.495 -0.2211 -0.0480 -0.2814
 1483SOL     OW14262   4.273   0.843   0.900 -0.0807  0.2281 -0.7198
 1483SOL    HW114263   4.192   0.805   0.858 -1.0889  0.7217  0.7292
 1483SOL    HW214264   4.333   0.769   0.930  0.2437 -0.1301 -2.2071
 1484SOL     OW14265   3.093   8.447   1.799  0.0050  0.1573  0.1387
 1484SOL    HW114266   3.030   8.407   1.865 -1.0018  0.4734 -0.6214
 1484SOL    HW214267   3.103   8.545   1.818  0.0436  0.1671  0.0662
 1485SOL     OW14268   4.708   3.145   0.485 -0.5794  0.0013  0.0452
 1485SOL    HW114269   4.669   3.205   0.415  0.6402  1.5058  0.6434
 1485SOL    HW214270   4.738   3.059   0.442 -1.8104  0.0275 -0.9055
 1486SOL     OW14271   4.532   3.021   0.963  0.2335  0.0589 -0.1249
 1486SOL    HW114272   4.434   3.028   0.985  0.1522 -0.3838 -0.3312
 1486SOL    HW214273   4.544   3.030   0.865  0.6945  3.0067  0.1522
 1487SOL     OW14274   3.376   4.006   2.603 -0.5103 -0.0785  0.0179
 1487SOL    HW114275   3.381   4.100   2.567  0.6901 -0.5927 -1.2247
 1487SOL    HW214276   3.465   3.980   2.640 -0.6007 -1.0300 -0.4231
 1488SOL     OW14277   4.383   3.995   1.914 -0.1330  0.3877  0.2062
 1488SOL    HW114278   4.310   4.051   1.877 -0.9885 -0.4342  0.6390
 1488SOL    HW214279   4.432   3.950   1.840  1.9538  3.3841 -0.3017
 1489SOL     OW14280   2.949   0.903   2.286  0.0106 -0.0467 -0.2745
 1489SOL    HW114281   2.997   0.818   2.264  1.4844  0.7598 -0.2676
 1489SOL    HW214282   2.850   0.888   2.282  0.2591 -1.6633 -0.6168
 1490SOL     OW14283   4.655   2.881   1.355  0.6740  0.0173  0.6676
 1490SOL    HW114284   4.591   2.922   1.419  1.7914  0.4263  1.5470
 1490SOL    HW214285   4.605   2.835   1.282 -0.6024  0.8197  1.0285
 1491SOL     OW14286   3.754   1.774   0.052  0.3732  0.2571 -0.3436
 1491SOL    HW114287   3.827   1.774   0.121  1.0108  0.5187 -1.0163
 1491SOL    HW214288   3.784   1.725  -0.029 -0.1218  0.5505 -0.7074
 1492SOL     OW14289   4.340   3.517   2.847 -0.6816 -0.1897  0.2761
 1492SOL    HW114290   4.280   3.592   2.819 -0.6613 -0.2173  0.1581
 1492SOL    HW214291   4.289   3.452   2.903 -0.6714 -0.0286  0.4759
 1493SOL     OW14292   3.134   1.120   1.253  0.0437 -0.5916  0.1538
 1493SOL    HW114293   3.060   1.105   1.318  0.6820  0.8349  1.2405
 1493SOL    HW214294   3.118   1.205   1.203  0.8922 -0.3141  0.3386
 1494SOL     OW14295   4.247   3.134   1.861  0.2781 -0.5029 -0.8972
 1494SOL    HW114296   4.272   3.223   1.900 -0.4737 -1.4736  1.8907
 1494SOL    HW214297   4.303   3.117   1.779  1.8164  1.6513 -0.3441
 1495SOL     OW14298   2.879   1.861   2.776 -0.0079  0.2323  0.7169
 1495SOL    HW114299   2.927   1.947   2.757 -1.7588  0.3162 -4.1508
 1495SOL    HW214300   2.780   1.877   2.778 -0.2462 -1.2385  2.6258
 1496SOL     OW14301   3.094   8.211   0.345  0.8434 -0.0499 -0.9080
 1496SOL    HW114302   3.094   8.294   0.400 -0.0681 -0.8775  0.3831
 1496SOL    HW214303   3.056   8.231   0.255 -0.7658  0.6227 -0.0983
 1497SOL     OW14304   3.640   9.338   2.588 -0.4100 -0.0040 -0.2144
 1497SOL    HW114305   3.590   9.257   2.557 -0.2732  0.1562 -0.8494
 1497SOL    HW214306   3.733   9.313   2.613 -0.9144 -0.3854  1.3894
 1498SOL     OW14307   2.596   2.291   1.259  0.5077 -0.4921 -0.1268
 1498SOL    HW114308   2.507   2.334   1.275  1.0624  0.5508  0.1347
 1498SOL    HW214309   2.646   2.285   1.345  0.1037 -2.4373  0.0068
 1499SOL     OW14310   2.943   4.585   2.154 -0.2321  0.1258  0.2087
 1499SOL    HW114311   2.980   4.520   2.088 -2.6401 -0.5974 -0.4752
 1499SOL    HW214312   2.893   4.536   2.225 -3.5481  1.2538 -1.2450
 1500SOL     OW14313   2.911   2.586   0.615  0.4019 -0.2552  0.3654
 1500SOL    HW114314   2.816   2.612   0.594  0.5310 -1.8672 -2.4947
 1500SOL    HW214315   2.912   2.494   0.655  0.9086 -1.4822 -2.3387
 1501SOL     OW14316   4.476   2.890   2.454  0.2504  0.7450 -0.0990
 1501SOL    HW114317   4.468   2.790   2.455  0.2911  0.7430 -0.0062
 1501SOL    HW214318   4.442   2.925   2.366  0.3312  0.6417 -0.1711
 1502SOL     OW14319   4.155   0.483   0.927  0.2051 -0.1280  0.6642
 1502SOL    HW114320   4.223   0.451   0.993  1.2380 -1.2556 -0.9180
 1502SOL    HW214321   4.201   0.528   0.851 -0.9095  0.1893  0.1616
 1503SOL     OW14322   2.380   6.058   1.919 -0.4850  0.5227  0.3038
 1503SOL    HW114323   2.286   6.084   1.900 -1.0006  0.2269  2.2606
 1503SOL    HW214324   2.385   6.017   2.011  1.3273 -0.6222 -0.2775
 1504SOL     OW14325   4.922   3.174   0.221 -0.1075  0.5925  0.3782
 1504SOL    HW114326   4.961   3.249   0.274  0.5747  0.0047  0.7263
 1504SOL    HW214327   4.903   3.204   0.128 -0.7113  1.4548  0.7821
 1505SOL     OW14328   2.519   4.529   1.888  0.0848 -0.4359  0.3936
 1505SOL    HW114329   2.558   4.612   1.927 -0.4354 -1.2040  2.6435
 1505SOL    HW214330   2.561   4.510   1.799  1.2542  1.4172  0.5380
 1506SOL     OW14331   3.582   3.517   2.646  0.2211  0.3625 -0.4085
 1506SOL    HW114332   3.500   3.561   2.609 -0.5811 -0.2408  0.6167
 1506SOL    HW214333   3.650   3.587   2.667 -0.8308  1.0721  0.6775
 1507SOL     OW14334   2.437   2.494   2.230  0.0642 -0.0877  0.3614
 1507SOL    HW114335   2.535   2.482   2.213  0.1546 -0.0410  0.8346
 1507SOL    HW214336   2.399   2.409   2.266  0.0320  0.0442  0.6395
 1508SOL     OW14337   3.111   8.424   0.796  0.0619 -0.0961  0.0422
 1508SOL    HW114338   3.138   8.379   0.881  1.3823 -0.0581 -0.3507
 1508SOL    HW214339   3.012   8.419   0.786  0.1278 -2.3533  0.3003
 1509SOL     OW14340   2.900   9.427   2.659  0.3526  0.1749  0.4928
 1509SOL    HW114341   2.991   9.400   2.627  0.3112  0.6620 -0.0400
 1509SOL    HW214342   2.884   9.523   2.636 -0.6078 -0.1283 -0.1082
 1510SOL     OW14343   4.844   3.430   0.796 -0.1780  0.5583  0.2529
 1510SOL    HW114344   4.778   3.426   0.870  0.0265  1.2791  0.4771
 1510SOL    HW214345   4.860   3.337   0.760 -0.5624  0.2608  0.8451
 1511SOL     OW14346   3.979   3.858   1.243 -0.0228 -0.5898  0.8054
 1511SOL    HW114347   3.892   3.825   1.278 -0.7508 -0.6525 -0.9909
 1511SOL    HW214348   3.994   3.952   1.274  0.6070 -1.4997  3.3963
 1512SOL     OW14349   2.988   6.134   0.273 -0.4423 -0.2336 -0.1564
 1512SOL    HW114350   2.963   6.095   0.362  1.4615  0.8886  0.8899
 1512SOL    HW214351   3.008   6.231   0.283  0.7732 -0.3099 -1.6311
 1513SOL     OW14352   3.222   3.262   2.061  0.8986 -0.3908  0.1014
 1513SOL    HW114353   3.286   3.272   2.138 -0.0807 -0.5207  0.9485
 1513SOL    HW214354   3.203   3.164   2.047  1.9980 -0.4440 -1.0860
 1514SOL     OW14355   3.584   2.992   0.994  0.2350  0.0108 -0.1831
 1514SOL    HW114356   3.659   3.058   0.985  0.2240  0.1531  0.7786
 1514SOL    HW214357   3.619   2.907   1.032 -0.4424  0.7390  2.1281
 1515SOL     OW14358   3.596   3.080   0.099  0.2692 -0.5128 -0.3144
 1515SOL    HW114359   3.639   3.080   0.189  2.7423 -2.7550 -1.4542
 1515SOL    HW214360   3.584   3.175   0.068 -0.0246  0.2624  2.0423
 1516SOL     OW14361   3.662   0.441   1.623  0.4391 -1.0141 -0.5001
 1516SOL    HW114362   3.682   0.530   1.583 -0.5378 -0.7402 -0.4043
 1516SOL    HW214363   3.674   0.446   1.723  0.7727 -1.0996 -0.5361
 1517SOL     OW14364   2.271   5.361   1.089 -0.0237 -0.2431  0.8529
 1517SOL    HW114365   2.233   5.283   1.038 -1.5801  0.1389  1.4033
 1517SOL    HW214366   2.353   5.393   1.043 -0.2533 -1.2090 -0.2759
 1518SOL     OW14367   2.822   9.045   2.122 -0.3738  0.2328  0.2454
 1518SOL    HW114368   2.803   9.038   2.024 -0.4235 -0.5354  0.3014
 1518SOL    HW214369   2.739   9.070   2.171 -0.0149  2.1071 -0.0543
 1519SOL     OW14370   2.693   3.145   0.109  0.1570 -0.2447  0.0047
 1519SOL    HW114371   2.701   3.049   0.135 -0.9559 -0.2317  0.4220
 1519SOL    HW214372   2.622   3.189   0.164  2.6325  1.5560  1.8221
 1520SOL     OW14373   3.937   2.761   2.395  0.0072  1.0295  0.2720
 1520SOL    HW114374   3.920   2.755   2.297 -0.8039  0.4302  0.4410
 1520SOL    HW214375   4.035   2.751   2.413  0.0763  0.4186 -0.4301
 1521SOL     OW14376   3.387   5.002   0.036 -0.1876 -0.0877 -0.6066
 1521SOL    HW114377   3.435   5.041   0.115  1.6768 -0.8437 -1.3345
 1521SOL    HW214378   3.312   5.062   0.009 -0.0344  0.8278  0.9298
 1522SOL     OW14379   2.690   3.363   2.231  0.0022 -0.0103  0.1482
 1522SOL    HW114380   2.716   3.357   2.135 -0.1522 -0.9109  0.1616
 1522SOL    HW214381   2.745   3.300   2.285 -1.6550 -1.3820  0.2841
 1523SOL     OW14382   3.818   2.403   2.102 -0.2442 -0.8284  0.0242
 1523SOL    HW114383   3.780   2.315   2.132 -0.8603 -1.2530 -1.9527
 1523SOL    HW214384   3.828   2.464   2.181 -2.9897 -1.4735  0.9085
 1524SOL     OW14385   3.606   4.416   0.269 -0.0692  0.3255  0.5272
 1524SOL    HW114386   3.539   4.359   0.220  2.7055 -2.0546 -0.6149
 1524SOL    HW214387   3.634   4.369   0.353  0.1388  1.3571  1.0375
 1525SOL     OW14388   2.228   2.074   1.133 -0.5663  1.0192  0.1437
 1525SOL    HW114389   2.225   2.145   1.063  0.9051  0.6376 -0.3187
 1525SOL    HW214390   2.198   2.112   1.221 -0.7948  1.9348 -0.3258
 1526SOL     OW14391   4.048   2.129   2.234 -0.2515 -0.4357 -0.0430
 1526SOL    HW114392   4.025   2.169   2.146  0.1969 -0.9213 -0.3814
 1526SOL    HW214393   4.016   2.034   2.237 -0.4807 -0.3452  0.4071
 1527SOL     OW14394   3.243   9.206   1.677  0.4708  0.2398 -0.0579
 1527SOL    HW114395   3.212   9.282   1.620 -0.8911 -0.1488  0.1232
 1527SOL    HW214396   3.191   9.205   1.762  0.2992 -1.0268 -0.1619
 1528SOL     OW14397   3.308   0.696   0.861 -0.3728 -0.1864  0.1962
 1528SOL    HW114398   3.325   0.666   0.955 -1.0197  0.3585  0.4967
 1528SOL    HW214399   3.359   0.638   0.797  0.6839 -0.0720  0.9250
 1529SOL     OW14400   3.611   1.676   2.259 -0.4333 -0.6913  0.1691
 1529SOL    HW114401   3.691   1.728   2.228  0.2918 -0.8646  1.6516
 1529SOL    HW214402   3.591   1.603   2.194  0.2298 -0.2486 -0.5394
 1530SOL     OW14403   3.211   8.664   1.066  0.8827  0.1303 -0.3774
 1530SOL    HW114404   3.292   8.608   1.085 -0.6094 -2.1419 -0.4657
 1530SOL    HW214405   3.138   8.638   1.129  0.9165  3.8107  1.2610
 1531SOL     OW14406   4.715   1.890   0.481 -0.1548  0.2020  0.6007
 1531SOL    HW114407   4.752   1.882   0.573 -0.3930 -1.5725  0.5641
 1531SOL    HW214408   4.786   1.922   0.419  0.8938 -1.5712  0.8455
 1532SOL     OW14409   2.549   6.412   1.778  0.1092  0.1651  0.0960
 1532SOL    HW114410   2.573   6.473   1.702  0.0577 -0.0370 -0.0866
 1532SOL    HW214411   2.633   6.375   1.818  0.2741  2.5360  2.0458
 1533SOL     OW14412   3.393   2.417   2.508  0.4616  0.0118 -0.2600
 1533SOL    HW114413   3.304   2.449   2.477  1.0248  1.2087 -0.6628
 1533SOL    HW214414   3.435   2.487   2.566  0.7619 -0.9152  0.6601
 1534SOL     OW14415   4.262   1.570   0.812  0.1304  0.0388  0.6826
 1534SOL    HW114416   4.255   1.569   0.712 -0.3767 -1.3746  0.7295
 1534SOL    HW214417   4.357   1.550   0.839 -0.3324 -2.3809  0.5418
 1535SOL     OW14418   2.635   6.371   0.775  0.4000  0.2145 -0.1015
 1535SOL    HW114419   2.588   6.415   0.852  0.0082  1.2931 -0.9470
 1535SOL    HW214420   2.687   6.439   0.724 -0.3680 -0.2447 -1.5390
 1536SOL     OW14421   3.445   3.796   1.837  0.1920  0.1219 -0.6281
 1536SOL    HW114422   3.490   3.885   1.826  2.8475 -0.9429  0.9128
 1536SOL    HW214423   3.348   3.809   1.857  0.8502  2.7591  1.1015
 1537SOL     OW14424   3.767   8.958   2.766  0.0847  0.0773 -0.0125
 1537SOL    HW114425   3.788   8.865   2.735  0.9216 -0.0339  0.8512
 1537SOL    HW214426   3.845   9.017   2.746  0.9022 -0.1262  2.3740
 1538SOL     OW14427   3.456   5.321   2.732  1.0446 -0.7570  0.1453
 1538SOL    HW114428   3.528   5.299   2.797  1.6895  1.0752  0.0694
 1538SOL    HW214429   3.391   5.245   2.728  1.0315 -0.9344  2.8413
 1539SOL     OW14430   3.775   4.484   2.438  0.2666 -0.8459 -0.4247
 1539SOL    HW114431   3.866   4.449   2.417  0.9790  1.7912 -1.9967
 1539SOL    HW214432   3.783   4.576   2.477 -1.7053 -0.8842  0.1378
 1540SOL     OW14433   2.820   7.451   1.097  0.5887 -0.2042  0.1075
 1540SOL    HW114434   2.807   7.489   1.005  0.4364 -1.9967 -0.6251
 1540SOL    HW214435   2.761   7.499   1.161 -0.9733 -0.4226 -1.1319
 1541SOL     OW14436   4.738   3.672   0.682 -0.0356  0.4727  0.3848
 1541SOL    HW114437   4.773   3.580   0.702 -1.1625 -0.0893 -0.1593
 1541SOL    HW214438   4.779   3.737   0.745  0.3384 -0.4918  1.1631
 1542SOL     OW14439   4.635   4.191   0.253  0.0023  0.2496 -0.5583
 1542SOL    HW114440   4.555   4.147   0.293 -0.4219 -0.4829 -2.1977
 1542SOL    HW214441   4.670   4.259   0.317  1.7783 -3.6540  2.9324
 1543SOL     OW14442   2.579   9.362   2.085 -0.6608 -0.8140 -0.4256
 1543SOL    HW114443   2.548   9.341   1.992  1.8319 -1.7357 -1.0756
 1543SOL    HW214444   2.567   9.282   2.143 -0.4327 -0.8520 -0.4317
 1544SOL     OW14445   2.402   5.425   1.953 -0.0957 -0.3971 -0.0596
 1544SOL    HW114446   2.434   5.330   1.963  1.1564  0.0330  0.1063
 1544SOL    HW214447   2.308   5.425   1.920  0.7046 -1.6995 -2.4689
  10.00000  10.00000   2.84800
