chitosan Film  in water:acetic acid 2% t= 2000.00000 step= 2000000
12238
    1CHTO  H203    1   4.949   6.906   2.505 -2.4264  0.5598  0.8334
    1CHTO   O82    2   4.963   6.924   2.596  0.3894 -0.2411  0.6097
    1CHTO  C123    3   5.089   6.896   2.647 -0.9082 -0.2760 -0.2999
    1CHTO  H227    4   5.118   6.967   2.726  0.3957 -0.9634 -0.1398
    1CHTO   O77    5   5.075   6.766   2.711  0.5120  0.3948 -0.6061
    1CHTO  C118    6   5.190   6.711   2.773  0.4361  0.3999 -0.5380
    1CHTO  H222    7   5.218   6.781   2.853 -1.0351  0.8998 -0.4393
    1CHTO  C125    8   5.145   6.575   2.844 -0.0353  0.1307 -0.2158
    1CHTO   O84    9   5.122   6.458   2.761  0.3834 -0.4062 -0.5151
    1CHTO  H205   10   5.201   6.407   2.752  0.9298 -0.1283  2.2120
    1CHTO  C114   11   5.303   6.693   2.663  0.5077  0.5080  0.2238
    1CHTO  H218   12   5.267   6.622   2.589  1.7143 -1.8768  1.8599
    1CHTO  C116   13   5.333   6.822   2.587  0.3638  0.1517 -0.5229
    1CHTO  H220   14   5.392   6.887   2.655 -0.9798  0.4140  0.3987
    1CHTO   O79   15   5.414   6.792   2.474  0.2705 -0.1208  0.2390
    1CHTO  H201   16   5.463   6.871   2.461 -1.4015  0.7899 -0.5757
    1CHTO  C120   17   5.207   6.904   2.544  0.6753 -0.2178 -0.1596
    1CHTO  H224   18   5.175   6.849   2.453  0.1780  2.5558 -1.7110
    1CHTO   N21   19   5.243   7.048   2.510 -0.7697  0.2685  0.3076
    1CHTO  H211   20   5.346   7.045   2.476 -0.4813  0.1571  1.1805
    1CHTO  H212   21   5.224   7.112   2.595  0.4055  0.0685  0.7395
    1CHTO   O75   22   5.419   6.645   2.738  0.0778  0.0284 -0.3741
    1CHTO  C112   23   5.478   6.516   2.698  0.3861  0.0905 -0.6581
    1CHTO  H216   24   5.466   6.507   2.589  1.1727 -2.6889 -0.5379
    1CHTO   O73   25   5.409   6.411   2.768  0.8296  0.3682  0.1310
    1CHTO  C113   26   5.459   6.280   2.731  0.0449  0.0203 -0.3216
    1CHTO  H217   27   5.446   6.266   2.622 -0.0160  0.8732 -0.4303
    1CHTO  C124   28   5.378   6.171   2.802  0.6254  0.0962 -0.3533
    1CHTO   O83   29   5.238   6.167   2.756 -0.5138 -0.1923 -0.5686
    1CHTO  H204   30   5.191   6.099   2.800 -0.4906  0.4347  0.4381
    1CHTO  C109   31   5.607   6.267   2.764  0.3477 -0.1806  0.5745
    1CHTO  H213   32   5.623   6.298   2.868  1.7298 -0.6647  0.5230
    1CHTO  C110   33   5.697   6.372   2.687  0.0517  0.1467 -0.1267
    1CHTO  H214   34   5.690   6.346   2.582  2.7185 -0.7946 -0.1254
    1CHTO   O78   35   5.828   6.361   2.737  0.3539 -0.2448 -0.4280
    1CHTO  H200   36   5.870   6.428   2.688 -1.4957  1.6388  0.4988
    1CHTO  C111   37   5.635   6.514   2.725 -0.7831 -0.0590  0.2540
    1CHTO  H215   38   5.647   6.527   2.833 -0.9882 -0.2802  0.3064
    1CHTO   N19   39   5.693   6.632   2.659 -0.1523 -0.6829  0.0408
    1CHTO  H207   40   5.642   6.722   2.689 -0.0418 -0.5457 -0.1847
    1CHTO  H208   41   5.680   6.632   2.552  0.1645  0.0036 -0.0022
    1CHTO   O74   42   5.653   6.124   2.749 -0.3060  0.0819  0.0060
    1CHTO  C115   43   5.762   6.081   2.833 -0.3361 -0.2460 -0.4376
    1CHTO  H219   44   5.783   6.147   2.916  2.3446 -1.7939  0.1719
    1CHTO   O76   45   5.731   5.945   2.897 -0.4100 -0.2523  0.1906
    1CHTO  C122   46   5.685   5.845   2.805  0.7204  0.4424 -0.2395
    1CHTO  H226   47   5.584   5.868   2.770  0.3957  3.1513  2.2729
    1CHTO  C126   48   5.675   5.709   2.881  0.4340 -0.7356  0.5898
    1CHTO   O85   49   5.635   5.606   2.791  0.2229 -0.3683 -0.3714
    1CHTO  H206   50   5.582   5.640   2.722  0.1779 -0.7756 -0.5418
    1CHTO  C121   51   5.778   5.829   2.680  0.0189 -0.3523  0.4095
    1CHTO  H225   52   5.809   5.726   2.656  1.3756 -0.0020  0.5883
    1CHTO   O81   53   5.705   5.882   2.567 -0.0948  0.1798 -0.4130
    1CHTO  H202   54   5.703   5.976   2.569 -0.9005  0.1667 -0.1726
    1CHTO  C119   55   5.912   5.908   2.700 -0.0586  0.2508  0.0922
    1CHTO  H223   56   5.955   5.847   2.779  1.5103  0.5945 -0.4718
    1CHTO  C117   57   5.899   6.052   2.750  0.4015  0.0019 -0.0617
    1CHTO  H221   58   5.904   6.125   2.669 -0.8897  0.3799  0.1830
    1CHTO   N20   59   6.019   6.094   2.831 -0.5490  0.1083  0.2559
    1CHTO  H209   60   6.018   6.195   2.869  1.8837  0.2931 -0.0464
    1CHTO  H210   61   6.047   6.026   2.910 -0.7253 -1.6557 -1.1814
    1CHTO   O80   62   6.024   5.889   2.591 -0.6348  0.4135 -0.3091
    1CHTO  C103   63   6.155   5.785   2.615  0.1121 -0.2592  0.1487
    1CHTO  H190   64   6.176   5.784   2.722  1.2598  0.2718 -0.0729
    1CHTO  C101   65   6.132   5.636   2.572  0.4571 -0.4318 -0.1421
    1CHTO  H188   66   6.092   5.630   2.471 -1.1489 -0.8823  0.4992
    1CHTO   O68   67   6.040   5.600   2.655 -0.2220 -0.2914 -0.8024
    1CHTO  H168   68   5.996   5.526   2.617 -1.0351  0.6794 -1.8104
    1CHTO   C99   69   6.263   5.548   2.579  0.1052  0.7154  0.1847
    1CHTO  H186   70   6.288   5.538   2.686  2.5021  0.8253 -0.3205
    1CHTO   N17   71   6.254   5.410   2.522  0.2640  0.0333 -0.0029
    1CHTO  H174   72   6.189   5.352   2.586  1.0625 -0.1569  0.6321
    1CHTO  H175   73   6.354   5.372   2.510  0.1216 -0.0666 -0.9164
    1CHTO   C97   74   6.385   5.624   2.515 -1.0867 -0.5960 -0.1536
    1CHTO  H184   75   6.372   5.631   2.406  0.6334  0.1431 -0.3360
    1CHTO   O64   76   6.393   5.757   2.572  0.5896  0.0510 -0.3165
    1CHTO  C104   77   6.282   5.842   2.547  0.4671  0.7426  0.9999
    1CHTO  H191   78   6.266   5.843   2.439 -1.2365  1.5966  1.2326
    1CHTO  C108   79   6.326   5.981   2.583  0.3878  0.1356  0.4743
    1CHTO   O71   80   6.389   6.001   2.714  0.5612 -0.6006 -0.1637
    1CHTO  H171   81   6.470   6.048   2.703  0.9829 -1.6015 -1.3799
    1CHTO   O62   82   6.517   5.564   2.547 -0.9611  0.1649 -0.2083
    1CHTO   C91   83   6.600   5.541   2.427  0.5451  0.7555 -0.2921
    1CHTO  H178   84   6.531   5.515   2.347  0.8267 -0.7236 -0.0714
    1CHTO   C92   85   6.674   5.409   2.456 -0.2333 -0.1794  0.4005
    1CHTO  H179   86   6.715   5.416   2.558 -2.2123  0.9250  1.1357
    1CHTO   O66   87   6.573   5.301   2.458  0.1119  0.5281  0.7281
    1CHTO  H166   88   6.534   5.291   2.543 -0.1292  0.1657  0.5723
    1CHTO   C93   89   6.783   5.375   2.357 -0.3984 -0.3584  0.4175
    1CHTO  H180   90   6.743   5.349   2.258  0.7685  0.1556 -0.2002
    1CHTO   N16   91   6.864   5.252   2.396  0.2906 -0.2137 -0.4058
    1CHTO  H172   92   6.948   5.237   2.330  0.9268  1.4446  0.0046
    1CHTO  H173   93   6.813   5.158   2.413  0.6169 -0.7218 -2.1164
    1CHTO   C94   94   6.880   5.500   2.344 -0.0073  0.6015  0.4290
    1CHTO  H181   95   6.915   5.536   2.440  2.7231  0.8631 -0.5985
    1CHTO   O61   96   6.796   5.600   2.283 -1.0719 -0.3700  0.5580
    1CHTO   C95   97   6.706   5.649   2.377  1.2104 -0.2379  0.4928
    1CHTO  H182   98   6.756   5.686   2.466  0.3562  1.4818  0.2726
    1CHTO  C106   99   6.628   5.777   2.321  0.7187  0.5067  0.5033
    1CHTO   O69  100   6.538   5.746   2.216 -0.3755  0.7020  0.1522
    1CHTO  H169  101   6.497   5.822   2.179 -2.9650 -1.3436 -1.3986
    1CHTO   O63  102   7.011   5.479   2.244 -0.4834  0.7183  0.3323
    1CHTO   C96  103   7.142   5.546   2.306  0.3093  0.7696 -0.7589
    1CHTO  H183  104   7.115   5.633   2.365 -1.8817  1.1065 -2.2257
    1CHTO   C98  105   7.254   5.599   2.213 -0.8726 -0.0129 -0.1933
    1CHTO  H185  106   7.222   5.665   2.131  1.5203  2.3794  0.7257
    1CHTO   O67  107   7.348   5.674   2.289  0.2180 -0.0539 -0.3779
    1CHTO  H167  108   7.324   5.765   2.292  1.1772  0.1468  3.0492
    1CHTO  C102  109   7.334   5.478   2.142 -1.2414  0.0964 -0.1695
    1CHTO  H189  110   7.440   5.507   2.138 -1.0118 -0.9371 -2.4453
    1CHTO   N18  111   7.288   5.445   2.005  0.5627 -0.4739 -0.1182
    1CHTO  H176  112   7.192   5.495   1.994  0.0781 -1.2879  0.3529
    1CHTO  H177  113   7.282   5.339   1.987 -2.6692 -0.4177  0.3764
    1CHTO  C105  114   7.335   5.350   2.238 -1.2659  0.3070  0.4224
    1CHTO  H192  115   7.253   5.286   2.204  1.7427 -2.2841 -2.4451
    1CHTO   O65  116   7.331   5.400   2.371 -0.0694  0.1986 -0.0636
    1CHTO  C100  117   7.202   5.436   2.406  0.7792  0.1627 -0.6454
    1CHTO  H187  118   7.140   5.345   2.416  1.3259 -0.0829  0.5771
    1CHTO  C107  119   7.216   5.489   2.552  0.2756  0.4032  0.0407
    1CHTO   O70  120   7.092   5.503   2.616 -0.0341 -0.4347 -0.1022
    1CHTO  H170  121   7.039   5.567   2.572  0.3201 -1.3447 -1.8901
    1CHTO   O57  122   7.481   5.284   2.211 -0.1287 -0.2487 -0.1053
    1CHTO   C85  123   7.490   5.145   2.202 -0.3751 -0.0296 -0.4955
    1CHTO  H157  124   7.409   5.128   2.128  2.5522 -4.6467 -2.8841
    1CHTO   C83  125   7.464   5.081   2.341  0.7912  0.3756 -0.2442
    1CHTO  H155  126   7.366   5.118   2.371  1.6828  1.4150  1.4852
    1CHTO   O56  127   7.547   5.138   2.446  0.0256 -0.0418 -0.2856
    1CHTO  H135  128   7.627   5.090   2.449 -0.1309 -0.2213  1.4508
    1CHTO   C81  129   7.457   4.926   2.332 -0.1318  0.2802  0.8929
    1CHTO  H153  130   7.386   4.893   2.256  1.2968 -2.5973  0.6995
    1CHTO   N14  131   7.408   4.861   2.459 -0.0958 -0.2721  0.1256
    1CHTO  H141  132   7.457   4.766   2.462  1.4436  0.5323  1.3399
    1CHTO  H142  133   7.302   4.851   2.458 -0.0031 -1.2991 -0.8559
    1CHTO   C79  134   7.601   4.864   2.286  0.5724 -0.5146 -0.2774
    1CHTO  H151  135   7.577   4.764   2.250 -2.2930  0.4187 -1.1424
    1CHTO   O52  136   7.650   4.937   2.167  0.1361 -0.1247 -0.6195
    1CHTO   C86  137   7.623   5.086   2.153 -0.4133 -0.4805 -0.5809
    1CHTO  H158  138   7.712   5.122   2.208 -0.5776  0.9829 -1.2519
    1CHTO   C90  139   7.642   5.118   2.003 -0.6746 -0.0962 -1.0522
    1CHTO   O60  140   7.601   5.246   1.959  0.3346  0.4024  0.5114
    1CHTO  H138  141   7.657   5.309   2.001  2.1924  0.4222 -1.8811
    1CHTO   O50  142   7.707   4.881   2.379  0.3067 -0.0031  0.1313
    1CHTO   C73  143   7.826   4.819   2.428 -0.5739 -0.1268 -0.0212
    1CHTO  H145  144   7.892   4.792   2.344 -1.1531  1.1041 -0.8824
    1CHTO   C74  145   7.804   4.698   2.519 -0.3238  0.3204  0.2248
    1CHTO  H146  146   7.747   4.626   2.458 -0.0051  0.0017  0.2996
    1CHTO   O54  147   7.938   4.634   2.539 -0.0154  0.1197  0.3159
    1CHTO  H133  148   7.972   4.621   2.453 -0.6371 -0.5877  0.1681
    1CHTO   C75  149   7.725   4.742   2.649 -0.5381 -0.1671 -0.8890
    1CHTO  H147  150   7.626   4.777   2.617 -1.0111 -0.4100  0.2705
    1CHTO   N13  151   7.699   4.625   2.733  0.5174  0.2015  0.1630
    1CHTO  H139  152   7.792   4.572   2.743  0.8347  1.2051  3.2899
    1CHTO  H140  153   7.630   4.561   2.681  2.0730  0.9831 -2.9379
    1CHTO   C76  154   7.794   4.855   2.726 -0.2115 -0.2792  0.0782
    1CHTO  H148  155   7.886   4.815   2.769 -0.4803 -0.3174  0.6268
    1CHTO   O49  156   7.823   4.962   2.640  0.3175  0.2312  0.4542
    1CHTO   C77  157   7.900   4.924   2.519 -0.7809  0.3975 -0.2966
    1CHTO  H149  158   7.996   4.887   2.556 -0.9401  1.3771  1.1144
    1CHTO   C88  159   7.936   5.060   2.455  0.4044  0.0961 -0.3865
    1CHTO   O58  160   8.068   5.050   2.358 -0.2121  0.3930  0.5626
    1CHTO  H136  161   8.051   5.062   2.266 -0.5902 -0.3230  0.5386
    1CHTO   O51  162   7.691   4.921   2.839  0.2487  0.0253  0.1457
    1CHTO   C78  163   7.703   5.095   2.876  0.4931  0.5470 -0.6918
    1CHTO  H150  164   7.758   5.145   2.794 -1.0721 -0.6000 -2.5113
    1CHTO   C80  165   7.771   5.123   3.011  0.4874  0.5324  0.3231
    1CHTO  H152  166   7.710   5.064   3.082 -2.6345  2.0980 -0.9744
    1CHTO   O55  167   7.910   5.066   3.008  0.5698  0.1178 -0.2982
    1CHTO  H134  168   7.939   5.070   2.919  2.6686  1.4154  0.4158
    1CHTO   C84  169   7.771   5.276   3.054 -0.2603  0.0431 -0.0584
    1CHTO  H156  170   7.847   5.322   2.990 -2.0305  1.7138 -0.9984
    1CHTO   N15  171   7.822   5.284   3.192 -0.0776  0.1302  0.3181
    1CHTO  H143  172   7.922   5.247   3.200 -0.2317 -0.9809 -2.4945
    1CHTO  H144  173   7.753   5.228   3.251 -0.4351 -1.0775 -1.2420
    1CHTO   C87  174   7.636   5.342   3.026  0.5067 -0.0335 -0.1673
    1CHTO  H159  175   7.560   5.316   3.100 -0.4216 -1.5688 -1.6151
    1CHTO   O53  176   7.590   5.300   2.891 -0.0398  0.1691  0.4139
    1CHTO   C82  177   7.565   5.157   2.876 -0.1999 -0.2595  0.3030
    1CHTO  H154  178   7.503   5.120   2.958 -2.6589 -0.2773 -1.5163
    1CHTO   C89  179   7.488   5.133   2.749  0.8681  0.4509  0.2306
    1CHTO   O59  180   7.358   5.203   2.738 -0.5422 -0.5601 -0.0537
    1CHTO  H137  181   7.283   5.151   2.716 -0.2875 -0.2516 -1.6980
    1CHTO   O45  182   7.652   5.514   3.028 -0.7205  0.0604  0.3613
    1CHTO   C67  183   7.560   5.585   2.933  0.2682 -0.5290 -0.1311
    1CHTO  H124  184   7.575   5.548   2.831  1.3366 -2.7800  0.7942
    1CHTO   C65  185   7.409   5.571   2.968  0.1754 -0.0949 -0.2120
    1CHTO  H122  186   7.388   5.469   3.001  1.9651 -0.4392 -0.0367
    1CHTO   O44  187   7.323   5.600   2.851 -0.1438  0.0379 -0.0086
    1CHTO  H102  188   7.241   5.633   2.882 -1.0870 -1.5435 -0.7806
    1CHTO   C63  189   7.380   5.654   3.100 -0.8976  0.3998  0.4180
    1CHTO  H120  190   7.453   5.623   3.175 -1.0690 -2.0930 -0.3876
    1CHTO   N11  191   7.242   5.630   3.158 -0.2851 -0.4936  0.1076
    1CHTO  H108  192   7.229   5.690   3.246  1.9859 -0.1673  0.2611
    1CHTO  H109  193   7.231   5.528   3.190  0.9225 -0.3450  1.0465
    1CHTO   C61  194   7.419   5.806   3.087  0.5914  0.2385  0.1816
    1CHTO  H118  195   7.417   5.851   3.187 -0.8940 -0.7403  0.6090
    1CHTO   O40  196   7.553   5.821   3.038  0.3771  0.0005  0.6646
    1CHTO   C68  197   7.609   5.742   2.931  0.0090  0.0878  0.4411
    1CHTO  H125  198   7.717   5.757   2.954  0.0434 -0.1444  0.4336
    1CHTO   C72  199   7.576   5.809   2.793  0.1949  0.2629  0.5470
    1CHTO   O48  200   7.640   5.934   2.781  0.1160 -0.2078 -0.3726
    1CHTO  H105  201   7.588   5.995   2.733  0.7587 -0.0859 -0.9205
    1CHTO   O38  202   7.332   5.879   2.997  0.2652  0.4576  0.3707
    1CHTO   C55  203   7.262   5.995   3.044  0.0844 -0.8662  0.1323
    1CHTO  H112  204   7.265   6.014   3.153 -2.1325  1.3487 -0.1417
    1CHTO   C56  205   7.112   5.978   2.995 -0.9283  0.1005  0.4606
    1CHTO  H113  206   7.116   5.910   2.908 -0.7888  0.5975  0.0753
    1CHTO   O42  207   7.043   5.895   3.094 -0.3855  0.4390  0.0729
    1CHTO  H100  208   7.029   5.958   3.162  2.3249 -0.4044  1.5097
    1CHTO   C57  209   7.030   6.108   2.975 -0.2811 -0.7387  0.1656
    1CHTO  H114  210   6.971   6.128   3.064 -0.0233  1.6928 -0.1951
    1CHTO   N10  211   6.922   6.088   2.872  0.0649 -0.2898  0.5006
    1CHTO  H106  212   6.832   6.060   2.925 -1.4820  0.6451 -1.5982
    1CHTO  H107  213   6.949   6.018   2.795  0.4900  2.0618 -1.5352
    1CHTO   C58  214   7.119   6.230   2.942  0.1090  0.6066 -0.4691
    1CHTO  H115  215   7.146   6.231   2.834  1.1167  1.9189 -0.2194
    1CHTO   O37  216   7.242   6.231   3.022  0.2467  0.4059  0.2396
    1CHTO   C59  217   7.326   6.125   2.982  0.0244 -0.4029  0.3678
    1CHTO  H116  218   7.331   6.116   2.874  1.9083  0.6118  0.3665
    1CHTO   C70  219   7.471   6.138   3.020 -0.7653 -0.3160 -0.1955
    1CHTO   O46  220   7.537   6.258   2.969  0.5669  0.4650 -0.4152
    1CHTO  H103  221   7.623   6.238   2.998  1.6504  1.6199 -2.7338
    1CHTO   O39  222   7.041   6.358   2.961  0.0737  0.3816 -0.4394
    1CHTO   C60  223   7.056   6.460   2.857 -0.1148  0.1473  0.2918
    1CHTO  H117  224   7.129   6.436   2.780 -1.3494  2.0405 -1.5516
    1CHTO   C62  225   6.912   6.482   2.794  0.1343 -1.0783  0.6112
    1CHTO  H119  226   6.902   6.388   2.735  0.4019 -0.5190 -0.3479
    1CHTO   O43  227   6.834   6.525   2.908 -0.0680  0.0866 -0.0193
    1CHTO  H101  228   6.743   6.510   2.896  0.0617 -1.9063  1.2828
    1CHTO   C66  229   6.914   6.587   2.674 -0.2717 -0.4403  0.1101
    1CHTO  H123  230   6.971   6.547   2.591  0.6791  0.5112  0.2906
    1CHTO   N12  231   6.777   6.608   2.614  0.0385  0.1274 -0.0323
    1CHTO  H110  232   6.797   6.662   2.523 -0.6341  0.4971  0.0382
    1CHTO  H111  233   6.728   6.514   2.592 -0.1051  0.1247  0.2977
    1CHTO   C69  234   6.965   6.723   2.728 -0.2411 -0.1331 -0.0227
    1CHTO  H126  235   6.879   6.754   2.792 -1.0623 -1.7419 -0.3017
    1CHTO   O41  236   7.113   6.711   2.801  0.3307  0.6104  0.0484
    1CHTO   C64  237   7.107   6.596   2.915  0.0259 -0.6569  0.2964
    1CHTO  H121  238   7.039   6.623   2.998 -1.8194  0.8544 -1.6522
    1CHTO   C71  239   7.246   6.575   2.962  0.1881 -0.7174  0.0453
    1CHTO   O47  240   7.292   6.686   3.038 -0.3044  0.3116 -0.5100
    1CHTO  H104  241   7.332   6.758   2.993  0.9398  0.5634  0.9228
    1CHTO   O34  242   6.988   6.835   2.604  0.1503 -0.6014  0.0954
    1CHTO   C49  243   7.001   6.987   2.584  0.2540 -1.2037  0.4795
    1CHTO   H91  244   7.005   6.996   2.475 -1.3645 -0.5834  0.4519
    1CHTO   C47  245   7.131   7.037   2.649 -0.5675 -0.5149 -0.3778
    1CHTO   H89  246   7.153   7.141   2.615 -1.3389 -0.2760 -0.1595
    1CHTO   O33  247   7.233   6.946   2.616 -0.0441 -0.4693 -0.0265
    1CHTO   H70  248   7.318   6.985   2.621 -1.1811  2.1274  0.3373
    1CHTO   C45  249   7.104   7.034   2.812 -0.3968  0.1822 -0.2622
    1CHTO   H87  250   7.074   6.932   2.839 -2.2581  0.1989 -2.1311
    1CHTO    N8  251   7.224   7.072   2.886 -0.0956 -0.1175  0.2175
    1CHTO   H75  252   7.251   7.002   2.964 -0.5654  0.5391  0.9738
    1CHTO   H76  253   7.231   7.175   2.918 -1.5971  0.3658 -0.9702
    1CHTO   C43  254   6.986   7.139   2.847 -0.4091 -0.2048 -0.4137
    1CHTO   H85  255   6.975   7.135   2.955  2.3698 -1.1274 -0.1274
    1CHTO   O29  256   6.864   7.099   2.773 -0.1973 -0.3255  0.0531
    1CHTO   C50  257   6.878   7.072   2.633  0.4465 -0.0765  0.5135
    1CHTO   H92  258   6.790   7.009   2.617  1.0843 -0.8709  0.0653
    1CHTO   C54  259   6.855   7.194   2.544 -0.2017 -0.2049  0.4461
    1CHTO   O36  260   6.725   7.247   2.568 -0.5886  0.6597 -0.3201
    1CHTO   H72  261   6.731   7.336   2.539  0.3727  0.6009 -0.3052
    1CHTO   O27  262   7.019   7.272   2.817  0.7179 -0.3088  0.0764
    1CHTO   C37  263   7.022   7.399   2.884 -0.1177  0.4501  0.6226
    1CHTO   H79  264   7.012   7.386   2.992 -1.0901 -0.3995  0.4353
    1CHTO   C38  265   7.151   7.471   2.852  0.0413 -0.1374  0.0761
    1CHTO   H80  266   7.168   7.467   2.744 -0.4788 -0.6899  0.0105
    1CHTO   O31  267   7.256   7.399   2.922  0.1896  0.1205  0.0465
    1CHTO   H68  268   7.297   7.346   2.857 -0.0578  2.7746 -2.4081
    1CHTO   C39  269   7.132   7.622   2.915 -0.5659  0.3447 -0.1765
    1CHTO   H81  270   7.116   7.612   3.023 -2.4934 -0.0278 -0.4839
    1CHTO    N7  271   7.257   7.705   2.917  0.7715 -0.0050 -0.0977
    1CHTO   H73  272   7.317   7.723   2.829  2.7325  1.4170  1.4564
    1CHTO   H74  273   7.245   7.797   2.973  0.8395  0.6317 -1.1126
    1CHTO   C40  274   7.012   7.694   2.839  0.3057  0.8092  0.0622
    1CHTO   H82  275   7.043   7.690   2.734 -1.4609  0.2748 -0.4577
    1CHTO   O26  276   6.894   7.619   2.864  0.1714  0.3762 -0.0135
    1CHTO   C41  277   6.901   7.481   2.833  0.3564  0.2773 -0.3008
    1CHTO   H83  278   6.901   7.466   2.724  1.4837  1.9564 -0.5370
    1CHTO   C52  279   6.767   7.421   2.887  0.2123  1.1581  0.2098
    1CHTO   O35  280   6.636   7.448   2.789 -0.8785 -0.5596  0.0136
    1CHTO   H71  281   6.582   7.373   2.774 -1.0993 -0.2698 -0.6380
    1CHTO   O28  282   6.975   7.819   2.887 -0.0329 -0.1137 -0.4324
    1CHTO   C42  283   6.935   7.926   2.795  0.2513 -1.0937 -0.3995
    1CHTO   H84  284   6.942   7.886   2.694 -3.7440 -1.4605 -0.6288
    1CHTO   C44  285   7.033   8.048   2.803 -1.2558  0.1105  0.2573
    1CHTO   H86  286   7.040   8.079   2.908  0.0877  1.4530 -0.2143
    1CHTO   O32  287   7.157   7.991   2.760 -0.5355  0.3812 -0.5465
    1CHTO   H69  288   7.160   7.991   2.666  1.2158  0.8717 -0.5133
    1CHTO   C48  289   6.992   8.175   2.722  0.0231  1.1740 -0.6457
    1CHTO   H90  290   6.992   8.149   2.616  0.1013 -1.6032  0.0004
    1CHTO    N9  291   7.092   8.284   2.748 -0.0047 -0.0036 -0.8108
    1CHTO   H77  292   7.087   8.345   2.837  0.4363 -2.0574  0.6356
    1CHTO   H78  293   7.082   8.350   2.663  0.1985  1.6156  0.3987
    1CHTO   C51  294   6.840   8.209   2.753 -0.4349  0.0911  0.0383
    1CHTO   H93  295   6.836   8.222   2.861 -3.2469 -1.3761  0.1563
    1CHTO   O30  296   6.759   8.096   2.715  0.0802  0.5848  0.0263
    1CHTO   C46  297   6.793   7.974   2.812  0.0417 -0.2948  0.1058
    1CHTO   H88  298   6.772   8.003   2.915 -2.9483  0.6307 -0.7207
    1CHTO   C53  299   6.694   7.862   2.774 -0.3001  0.1515 -0.7724
    1CHTO   O72  300   6.563   7.918   2.773  0.1908 -0.3106  0.2571
    1CHTO  H199  301   6.527   7.915   2.859 -1.3096 -2.8928 -0.4036
    1CHTO   O22  302   6.796   8.322   2.678 -0.4399 -0.3014 -0.1012
    1CHTO   C31  303   6.754   8.340   2.539 -0.3714 -0.5599  0.3432
    1CHTO   H59  304   6.712   8.443   2.533  1.9743  0.3931 -0.5571
    1CHTO   C29  305   6.873   8.337   2.437  0.3562  0.3361  1.2514
    1CHTO   H57  306   6.923   8.238   2.436 -0.9871 -0.3472  0.1241
    1CHTO   O21  307   6.978   8.435   2.478 -0.1056 -0.0865 -0.3144
    1CHTO   H37  308   6.967   8.525   2.453 -1.3606  0.2669  1.4346
    1CHTO   C27  309   6.824   8.366   2.289  0.3386  0.5953  0.3654
    1CHTO   H55  310   6.775   8.464   2.281  0.1678  0.5851  1.2164
    1CHTO    N5  311   6.936   8.361   2.190  0.6159 -0.7619  0.5794
    1CHTO   H43  312   7.003   8.277   2.204 -0.4868 -1.7355  0.1241
    1CHTO   H44  313   6.904   8.387   2.090  0.3822 -1.8718  0.3611
    1CHTO   C25  314   6.699   8.268   2.253  0.0981  0.8269  0.1143
    1CHTO   H53  315   6.728   8.162   2.252  3.2130  1.6511  0.6181
    1CHTO   O17  316   6.598   8.297   2.356 -0.6553 -0.4390 -0.7687
    1CHTO   C32  317   6.634   8.251   2.487  0.3317  0.1352 -0.3223
    1CHTO   H60  318   6.660   8.145   2.486  0.0407  0.0521  0.8202
    1CHTO   C36  319   6.502   8.241   2.582  0.4010 -0.3319 -0.7066
    1CHTO   O25  320   6.444   8.365   2.629  0.3909  0.5107 -0.5417
    1CHTO   H40  321   6.376   8.352   2.692  1.0829 -2.1300 -0.2605
    1CHTO   O15  322   6.657   8.281   2.116 -0.3845 -0.0413 -0.1117
    1CHTO   C19  323   6.574   8.221   2.009  0.3270  1.0133 -0.3075
    1CHTO   H47  324   6.488   8.289   2.018 -1.3737 -1.1384 -0.0741
    1CHTO   C20  325   6.623   8.236   1.866 -0.5445 -1.1846 -0.0225
    1CHTO   H48  326   6.732   8.222   1.858 -0.4438 -0.0399 -0.6895
    1CHTO   O19  327   6.606   8.379   1.839 -0.0184 -0.2025  0.6861
    1CHTO   H35  328   6.678   8.424   1.800 -1.6408  1.8571  0.0051
    1CHTO   C21  329   6.547   8.150   1.757 -0.2512 -0.3198 -0.2160
    1CHTO   H49  330   6.455   8.203   1.730  1.0763  1.7542 -0.8037
    1CHTO    N4  331   6.631   8.153   1.636 -0.2129 -0.2144  0.4633
    1CHTO   H41  332   6.692   8.065   1.627 -0.4371 -0.4937  1.6597
    1CHTO   H42  333   6.591   8.172   1.538 -0.5673 -0.6309  0.5268
    1CHTO   C22  334   6.518   8.006   1.821 -0.2033 -0.1573 -0.4375
    1CHTO   H50  335   6.606   7.945   1.840  0.2072 -0.5227 -3.2871
    1CHTO   O14  336   6.445   8.020   1.941  0.3729 -0.2579 -0.2483
    1CHTO   C23  337   6.517   8.083   2.048 -0.2219  0.1305 -0.1505
    1CHTO   H51  338   6.596   8.016   2.085  0.5914  0.3638 -1.3944
    1CHTO   C34  339   6.414   8.099   2.159 -0.8424 -0.9453 -0.5167
    1CHTO   O23  340   6.333   7.988   2.198  0.1845  0.0163  0.0535
    1CHTO   H38  341   6.274   8.012   2.266  0.9359 -0.3517  0.8449
    1CHTO   O16  342   6.429   7.927   1.738 -0.3999 -0.4967 -0.1202
    1CHTO   C24  343   6.473   7.794   1.675  0.1393  1.1499  0.7593
    1CHTO   H52  344   6.580   7.779   1.681  0.3979  1.7626 -1.6444
    1CHTO   C26  345   6.439   7.797   1.519  0.0752  0.0392  0.2446
    1CHTO   H54  346   6.329   7.803   1.506 -0.4911 -0.9980  4.0784
    1CHTO   O20  347   6.508   7.906   1.459  0.8382  0.3163  0.2480
    1CHTO   H36  348   6.476   7.928   1.373  2.8114  0.5465 -0.4452
    1CHTO   C30  349   6.484   7.665   1.453  0.1143  0.0376 -0.5366
    1CHTO   H58  350   6.586   7.643   1.485  0.1692 -1.9670 -2.0036
    1CHTO    N6  351   6.469   7.659   1.306 -0.1404  0.3200 -0.0033
    1CHTO   H45  352   6.523   7.739   1.258 -0.9097  0.8493  0.0158
    1CHTO   H46  353   6.367   7.662   1.271 -0.1039 -0.6379 -0.2102
    1CHTO   C33  354   6.406   7.546   1.518 -0.1998  0.4138  0.3910
    1CHTO   H61  355   6.297   7.559   1.506 -0.3804 -2.5124 -1.8315
    1CHTO   O18  356   6.430   7.550   1.661  0.3107  0.7454  0.0262
    1CHTO   C28  357   6.402   7.668   1.737  0.6309 -0.0050  0.4915
    1CHTO   H56  358   6.295   7.689   1.738  0.7151  0.4099  1.1564
    1CHTO   C35  359   6.448   7.632   1.878  0.0148 -0.0457 -0.4679
    1CHTO   O24  360   6.424   7.735   1.976 -0.5695 -0.1984  0.2408
    1CHTO   H39  361   6.505   7.771   2.007 -1.2692  0.1734  1.7144
    1CHTO    O9  362   6.436   7.411   1.464 -0.3192  0.4746  0.1000
    1CHTO   C13  363   6.412   7.281   1.578  0.2804 -0.5095 -0.5098
    1CHTO   H26  364   6.323   7.314   1.635 -0.1256 -0.2529 -1.2832
    1CHTO   C11  365   6.539   7.263   1.674 -0.0953  0.3862  0.4594
    1CHTO   H24  366   6.550   7.339   1.753 -0.1021 -0.0671  0.9000
    1CHTO    O8  367   6.655   7.262   1.594 -0.8586 -0.5921 -0.3738
    1CHTO    H3  368   6.646   7.197   1.528  0.4886  1.5709 -2.7797
    1CHTO    C9  369   6.521   7.117   1.730 -0.3908 -0.1229 -0.5411
    1CHTO   H22  370   6.420   7.109   1.773 -0.0391 -2.9673 -0.1623
    1CHTO    N2  371   6.608   7.091   1.848 -0.6048  0.0866  0.3281
    1CHTO   H10  372   6.708   7.082   1.808 -1.2105  1.3441 -1.5343
    1CHTO   H11  373   6.605   7.155   1.935 -0.1556  1.2496 -0.4882
    1CHTO    C7  374   6.528   7.005   1.613 -0.1548 -1.5791 -0.0201
    1CHTO   H20  375   6.460   6.924   1.646 -1.2558 -0.1640  1.2048
    1CHTO    O4  376   6.474   7.053   1.491 -0.0605 -0.0355 -1.2652
    1CHTO   C14  377   6.367   7.151   1.500 -0.0034  0.4644  0.2538
    1CHTO   H27  378   6.283   7.099   1.550  0.6562  0.3228  1.2300
    1CHTO   C18  379   6.330   7.177   1.354  0.1170  0.6940  0.6319
    1CHTO   O13  380   6.220   7.270   1.339  0.0985  0.1003  0.1475
    1CHTO    H7  381   6.139   7.228   1.359  0.1369 -0.7161 -1.3518
    1CHTO    O2  382   6.661   6.951   1.586  0.4710  0.1499 -1.0326
    1CHTO    C1  383   6.691   6.811   1.574  0.1628  0.3428  0.4535
    1CHTO   H14  384   6.599   6.756   1.545  0.6332 -0.1996 -0.0155
    1CHTO    C2  385   6.756   6.747   1.703  0.4969 -0.1850  0.0734
    1CHTO   H15  386   6.826   6.821   1.746  0.3252  2.3215 -3.7608
    1CHTO    O6  387   6.652   6.739   1.798  0.0101  0.2731 -0.1911
    1CHTO    H1  388   6.614   6.653   1.799  0.3347  0.1260  1.3611
    1CHTO    C3  389   6.825   6.599   1.675  0.1190  0.0712  0.5810
    1CHTO   H16  390   6.746   6.524   1.666  0.3367  0.0321 -1.2440
    1CHTO    N1  391   6.912   6.548   1.783 -0.2293  0.3095  0.4365
    1CHTO    H8  392   7.007   6.521   1.739  1.5703 -0.5972  4.6173
    1CHTO    H9  393   6.928   6.624   1.858  0.9417 -2.5945  3.2480
    1CHTO    C4  394   6.893   6.602   1.538  0.0755  0.0539  0.7638
    1CHTO   H17  395   6.978   6.671   1.541 -1.1216  1.4960  2.7770
    1CHTO    O1  396   6.816   6.648   1.430  0.0199 -0.7695 -0.0288
    1CHTO    C5  397   6.780   6.788   1.451  0.4097 -0.1062  0.1859
    1CHTO   H18  398   6.876   6.839   1.463 -0.0550  1.0838 -0.9470
    1CHTO   C16  399   6.711   6.852   1.324  1.2330 -0.5930  0.6253
    1CHTO   O11  400   6.789   6.825   1.203 -0.5313 -0.3381  0.5322
    1CHTO    H5  401   6.740   6.776   1.140  0.1327 -0.9941  0.5273
    1CHTO    O3  402   6.923   6.471   1.487  0.1600 -0.5653  0.3098
    1CHTO    C6  403   7.052   6.456   1.421 -0.6919 -0.2817 -0.4380
    1CHTO   H19  404   7.090   6.547   1.375 -0.6889 -0.8429 -1.5566
    1CHTO    C8  405   7.163   6.381   1.510  0.4197  0.5706 -0.3105
    1CHTO   H21  406   7.110   6.303   1.566 -0.9730  0.3336 -1.9332
    1CHTO    O7  407   7.207   6.470   1.609  0.1239 -0.5456 -0.1248
    1CHTO    H2  408   7.144   6.486   1.676 -0.6458 -0.7303 -0.8003
    1CHTO   C12  409   7.277   6.332   1.414  0.3398  0.2393 -0.3208
    1CHTO   H25  410   7.319   6.431   1.384  1.2459  0.5434  1.8557
    1CHTO    N3  411   7.381   6.257   1.496 -0.1973  0.4108  0.1576
    1CHTO   H12  412   7.331   6.174   1.545 -0.2208  0.2239 -0.1842
    1CHTO   H13  413   7.426   6.321   1.571 -0.6102  1.3715 -0.4143
    1CHTO   C15  414   7.222   6.255   1.295 -0.8185  0.1678  0.0248
    1CHTO   H28  415   7.186   6.153   1.309  1.6248 -1.3441 -3.7191
    1CHTO   O10  416   7.344   6.243   1.190 -0.1295 -0.7047  0.1787
    1CHTO    H4  417   7.405   6.174   1.205  1.1825  0.6292  1.0706
    1CHTO    O5  418   7.129   6.335   1.222  0.3250 -0.1545  0.2121
    1CHTO   C10  419   7.014   6.366   1.299  0.0216  0.5066 -0.7524
    1CHTO   H23  420   6.963   6.275   1.332 -3.1392  2.8216  1.1057
    1CHTO   C17  421   6.916   6.434   1.201 -0.3932  0.1134  0.1577
    1CHTO   O12  422   6.958   6.566   1.168 -0.0460 -0.3940 -0.0942
    1CHTO    H6  423   6.885   6.624   1.155  1.0230  0.9903  0.0625
    2CHTO  H203  424   5.919   4.506  -0.183  0.2913  0.6635 -1.8141
    2CHTO   O82  425   5.965   4.569  -0.131 -0.8144 -0.5638  0.7048
    2CHTO  C123  426   5.879   4.643  -0.047  0.3547  0.3212  0.0481
    2CHTO  H227  427   5.931   4.736  -0.018 -1.6929  1.9038 -1.2552
    2CHTO   O77  428   5.766   4.674  -0.138 -0.1345 -0.3285  0.3399
    2CHTO  C118  429   5.660   4.742  -0.066 -0.6253  0.0374  0.8598
    2CHTO  H222  430   5.697   4.832  -0.015  3.3319 -2.5900  2.9082
    2CHTO  C125  431   5.568   4.784  -0.186 -0.4412  0.8023  0.1704
    2CHTO   O84  432   5.638   4.865  -0.275 -0.1263  0.9891 -0.0161
    2CHTO  H205  433   5.598   4.874  -0.359  2.4490  2.2257 -1.1553
    2CHTO  C114  434   5.592   4.657   0.041  0.2729 -0.0244 -0.2883
    2CHTO  H218  435   5.550   4.569  -0.009 -1.2337  0.9667 -0.7960
    2CHTO  C116  436   5.694   4.608   0.143 -0.3562  0.6222  0.5366
    2CHTO  H220  437   5.722   4.691   0.211  0.3374  1.3347 -0.5993
    2CHTO   O79  438   5.630   4.504   0.222  0.2552 -0.1164  0.6607
    2CHTO  H201  439   5.585   4.547   0.292  0.0380 -0.9568  1.0353
    2CHTO  C120  440   5.832   4.556   0.076 -0.0255  0.4709  0.1454
    2CHTO  H224  441   5.801   4.454   0.046  0.8574 -0.7960  3.3221
    2CHTO   N21  442   5.939   4.536   0.175 -0.0466 -0.4293  0.2949
    2CHTO  H211  443   6.002   4.622   0.190 -0.0672 -0.6673  1.7611
    2CHTO  H212  444   6.002   4.454   0.146  0.2210  0.1566 -0.8161
    2CHTO   O75  445   5.485   4.740   0.096 -0.1406  0.8101 -0.6219
    2CHTO  C112  446   5.351   4.673   0.129  0.4536 -0.2032 -0.3775
    2CHTO  H216  447   5.371   4.594   0.203 -1.0313  0.0028  0.2631
    2CHTO   O73  448   5.299   4.619   0.005  0.1812  0.6408  0.1396
    2CHTO  C113  449   5.179   4.545   0.020 -0.2685  0.0575 -0.2922
    2CHTO  H217  450   5.188   4.471   0.102  0.1116 -0.0682 -0.4448
    2CHTO  C124  451   5.149   4.475  -0.111  0.1720  0.1383  0.2342
    2CHTO   O83  452   5.245   4.371  -0.128 -0.2331  0.2104 -0.1367
    2CHTO  H204  453   5.218   4.315  -0.199  0.4157 -2.5303  1.6947
    2CHTO  C109  454   5.068   4.645   0.052  0.8858 -0.3057 -0.5089
    2CHTO  H213  455   5.071   4.720  -0.028 -1.3811  1.5165  1.0204
    2CHTO  C110  456   5.111   4.713   0.187  0.7938 -0.1952 -0.7939
    2CHTO  H214  457   5.107   4.640   0.268 -0.9011 -0.2401 -0.9000
    2CHTO   O78  458   5.014   4.821   0.219 -0.2949 -0.4783 -0.6228
    2CHTO  H200  459   5.004   4.878   0.146  1.4168  1.3307  0.4977
    2CHTO  C111  460   5.250   4.774   0.189 -0.0393 -0.7556  0.1588
    2CHTO  H215  461   5.257   4.861   0.122 -0.7361 -0.7036  0.1503
    2CHTO   N19  462   5.293   4.824   0.325 -0.1742  0.0308 -0.5657
    2CHTO  H207  463   5.240   4.915   0.349 -1.2603 -1.0280  1.1222
    2CHTO  H208  464   5.393   4.865   0.323  0.1010 -0.6750 -1.4252
    2CHTO   O74  465   4.933   4.584   0.051  0.6414  0.1899  0.3874
    2CHTO  C115  466   4.842   4.672  -0.053 -0.1695  0.8165 -0.1069
    2CHTO  H219  467   4.882   4.773  -0.060  2.2684 -0.0256  1.1866
    2CHTO   O76  468   4.846   4.603  -0.210 -0.0631  0.1412  1.0244
    2CHTO  C122  469   4.752   4.666  -0.295  1.1383  0.0739  0.5270
    2CHTO  H226  470   4.768   4.613  -0.390  1.3281 -1.8543  1.6079
    2CHTO  C126  471   4.806   4.816  -0.321 -0.0646  0.0922  0.0771
    2CHTO   O85  472   4.942   4.820  -0.365  0.0517  0.2532 -0.5763
    2CHTO  H206  473   4.953   4.767  -0.442  0.2228  1.5325 -1.4481
    2CHTO  C121  474   4.608   4.678  -0.249  0.2305  0.5662  0.6846
    2CHTO  H225  475   4.554   4.747  -0.317 -0.2198  1.3246  1.7975
    2CHTO   O81  476   4.551   4.543  -0.265  0.2501  0.2220  0.0114
    2CHTO  H202  477   4.498   4.509  -0.196 -1.6656  0.7131 -1.1925
    2CHTO  C119  478   4.599   4.729  -0.103 -0.6646  0.5924  0.4043
    2CHTO  H223  479   4.632   4.832  -0.104  0.8341  0.1201 -0.8746
    2CHTO  C117  480   4.693   4.662   0.002 -0.0649  0.2990  1.0751
    2CHTO  H221  481   4.673   4.555   0.011  0.9257 -0.1370 -1.3574
    2CHTO   N20  482   4.673   4.714   0.139 -0.1430  0.9928  0.4280
    2CHTO  H209  483   4.570   4.692   0.164 -0.3373 -1.8066 -2.4457
    2CHTO  H210  484   4.739   4.656   0.201  1.8037 -0.4779 -2.8385
    2CHTO   O80  485   4.441   4.734  -0.064  0.5901 -0.3557  0.3487
    2CHTO  C103  486   4.356   4.839  -0.119  0.4780 -0.9270  0.0504
    2CHTO  H190  487   4.409   4.906  -0.187 -0.1306 -0.1461  0.3381
    2CHTO  C101  488   4.226   4.790  -0.194 -0.1317 -0.2124  0.1431
    2CHTO  H188  489   4.175   4.726  -0.121  1.1253  1.1326  2.2547
    2CHTO   O68  490   4.285   4.707  -0.318 -0.1757 -0.2949 -0.0820
    2CHTO  H168  491   4.292   4.755  -0.398 -3.5598 -0.7330 -0.7441
    2CHTO   C99  492   4.120   4.910  -0.230  0.0069  0.3529 -0.3993
    2CHTO  H186  493   4.173   4.985  -0.292 -2.7945  2.6659 -0.1521
    2CHTO   N17  494   4.003   4.863  -0.314  0.4151  0.5386 -0.4322
    2CHTO  H174  495   4.046   4.815  -0.401  0.4789 -0.8372  0.3387
    2CHTO  H175  496   3.949   4.953  -0.340 -0.0721 -0.2109 -2.1017
    2CHTO   C97  497   4.089   4.982  -0.102 -0.4226 -0.1277 -0.0414
    2CHTO  H184  498   4.043   4.909  -0.034 -1.5709  0.7903  0.2047
    2CHTO   O64  499   4.210   5.032  -0.046 -0.0935 -0.0398  0.5446
    2CHTO  C104  500   4.300   4.930   0.002 -0.1074  0.9055 -0.3700
    2CHTO  H191  501   4.250   4.865   0.075  0.4180 -0.4422 -1.1852
    2CHTO  C108  502   4.419   4.996   0.075  0.2251 -0.5516  0.1145
    2CHTO   O71  503   4.437   4.934   0.205  0.3399 -0.5846 -0.0992
    2CHTO  H171  504   4.373   4.965   0.266 -2.2048 -1.6213 -2.1670
    2CHTO   O62  505   4.009   5.099  -0.116  0.0267 -0.4076  0.6327
    2CHTO   C91  506   3.903   5.115  -0.022 -0.9162 -0.3305  0.1588
    2CHTO  H178  507   3.880   5.024   0.033 -0.8502 -1.4727 -1.6477
    2CHTO   C92  508   3.760   5.125  -0.093 -0.3316  0.7224  0.1857
    2CHTO  H179  509   3.744   5.040  -0.161  2.3531  2.3627 -2.6425
    2CHTO   O66  510   3.659   5.113   0.006 -1.3073 -0.2621  0.2664
    2CHTO  H166  511   3.659   5.032   0.053 -1.6167 -0.4370 -0.0342
    2CHTO   C93  512   3.750   5.269  -0.168 -0.2553  0.2197  0.1807
    2CHTO  H180  513   3.645   5.283  -0.198 -0.1362 -0.3800 -0.5334
    2CHTO   N16  514   3.825   5.258  -0.295 -0.2522  0.0223  0.2636
    2CHTO  H172  515   3.926   5.227  -0.275  0.5527  1.6550 -1.1473
    2CHTO  H173  516   3.812   5.353  -0.345 -0.6430  0.6126  1.4795
    2CHTO   C94  517   3.796   5.385  -0.071  0.1613  0.4977 -0.2594
    2CHTO  H181  518   3.885   5.437  -0.107  0.0075  1.2276  0.4102
    2CHTO   O61  519   3.826   5.339   0.063  0.4808  0.1261 -0.6707
    2CHTO   C95  520   3.929   5.240   0.070  0.5972 -0.3083 -0.1917
    2CHTO  H182  521   4.024   5.283   0.038  0.2490  0.6576  0.0533
    2CHTO  C106  522   3.950   5.194   0.213 -0.3346  0.0323 -0.1837
    2CHTO   O69  523   4.034   5.073   0.222 -0.4741 -0.5746  0.1124
    2CHTO  H169  524   4.119   5.098   0.193 -0.5171  0.0403  0.5006
    2CHTO   O63  525   3.660   5.492  -0.069 -0.5197  0.2420 -0.1278
    2CHTO   C96  526   3.689   5.645  -0.078  0.4251  0.2822 -0.6085
    2CHTO  H183  527   3.794   5.667  -0.098  1.0140 -1.4322  0.4583
    2CHTO   C98  528   3.648   5.723   0.053  0.1125  0.4602  0.1936
    2CHTO  H185  529   3.540   5.721   0.074 -0.3224  1.2699 -1.8408
    2CHTO   O67  530   3.718   5.663   0.166 -0.3077 -0.2215 -0.3191
    2CHTO  H167  531   3.684   5.698   0.247 -0.3508 -2.3747  0.6168
    2CHTO  C102  532   3.695   5.880   0.037 -0.3549  0.1527 -0.2197
    2CHTO  H189  533   3.805   5.876   0.026 -0.4879  0.2451 -1.7419
    2CHTO   N18  534   3.683   5.969   0.157 -0.4716 -0.0743 -0.3334
    2CHTO  H176  535   3.738   5.919   0.235 -0.2638  0.0757 -0.3853
    2CHTO  H177  536   3.720   6.067   0.130  0.5042 -0.7431 -1.3990
    2CHTO  C105  537   3.639   5.936  -0.095  0.6903 -0.5326  0.2219
    2CHTO  H192  538   3.531   5.947  -0.090  0.7793 -0.1188  1.2873
    2CHTO   O65  539   3.656   5.848  -0.202 -0.3381  0.5262  0.2636
    2CHTO  C100  540   3.609   5.708  -0.186 -0.0901  0.2766 -0.4126
    2CHTO  H187  541   3.501   5.710  -0.166 -0.2884 -2.0787 -1.0761
    2CHTO  C107  542   3.620   5.629  -0.319 -0.8512  0.2177  0.2705
    2CHTO   O70  543   3.750   5.599  -0.368  0.0303 -0.9780 -0.2789
    2CHTO  H170  544   3.808   5.594  -0.294 -0.3275  0.9053  0.1374
    2CHTO   O57  545   3.727   6.080  -0.128  0.5340  0.4072  0.3843
    2CHTO   C85  546   3.659   6.194  -0.185 -0.0336 -0.3357 -0.0949
    2CHTO  H157  547   3.559   6.202  -0.139 -1.3657 -2.0834 -2.5612
    2CHTO   C83  548   3.623   6.164  -0.333  0.4235 -0.4081  0.0197
    2CHTO  H155  549   3.570   6.069  -0.335  0.0863 -0.1971 -1.7078
    2CHTO   O56  550   3.743   6.122  -0.400  0.3744 -0.0673  0.1776
    2CHTO  H135  551   3.758   6.175  -0.476  0.6460  1.0134  0.9755
    2CHTO   C81  552   3.541   6.279  -0.397  0.7478  0.6719 -0.2827
    2CHTO  H153  553   3.458   6.296  -0.328  0.6805  0.5825 -0.3408
    2CHTO   N14  554   3.485   6.244  -0.526  0.5084  0.0449 -0.4400
    2CHTO  H141  555   3.404   6.176  -0.510  0.6385 -0.1228 -0.4916
    2CHTO  H142  556   3.452   6.328  -0.583 -1.7103 -1.1077 -0.9049
    2CHTO   C79  557   3.626   6.406  -0.398  0.6862 -0.4098 -0.5428
    2CHTO  H151  558   3.564   6.485  -0.440  1.9250  1.2315  0.6271
    2CHTO   O52  559   3.664   6.446  -0.257 -0.4309 -0.2924  0.5869
    2CHTO   C86  560   3.736   6.334  -0.190  0.3816 -0.3334 -0.8102
    2CHTO  H158  561   3.833   6.339  -0.243  0.5374  0.9430 -0.4178
    2CHTO   C90  562   3.768   6.378  -0.043  0.0363  0.3027 -0.4832
    2CHTO   O60  563   3.648   6.390   0.040 -0.9541  0.1279 -0.1620
    2CHTO  H138  564   3.672   6.360   0.125 -0.8248  0.4301 -0.0927
    2CHTO   O50  565   3.745   6.406  -0.474  1.1310  0.0414 -0.7247
    2CHTO   C73  566   3.831   6.479  -0.558  0.3903 -0.4208  0.6757
    2CHTO  H145  567   3.792   6.581  -0.571  1.7704  0.2043  1.3260
    2CHTO   C74  568   3.840   6.419  -0.694 -0.8764  0.5116  0.3187
    2CHTO  H146  569   3.746   6.415  -0.750  0.8752  0.7607 -2.7564
    2CHTO   O54  570   3.918   6.513  -0.772 -0.0298  0.0842  0.2985
    2CHTO  H133  571   3.896   6.506  -0.863 -1.7557  2.2659  0.5131
    2CHTO   C75  572   3.907   6.275  -0.685  0.0311 -0.2395 -0.3880
    2CHTO  H147  573   3.839   6.206  -0.632  0.8212 -0.3573  0.4922
    2CHTO   N13  574   3.926   6.208  -0.814  0.6161  0.3128  0.1823
    2CHTO  H139  575   3.903   6.283  -0.888  0.8431 -1.1359 -1.3799
    2CHTO  H140  576   3.848   6.133  -0.819 -0.5072  1.4313  0.5201
    2CHTO   C76  577   4.037   6.276  -0.595  0.1278 -0.4692  0.0153
    2CHTO  H148  578   4.116   6.329  -0.647 -0.9995  0.1596 -1.0926
    2CHTO   O49  579   4.017   6.344  -0.471  0.2477  0.2445 -0.2695
    2CHTO   C77  580   3.978   6.479  -0.500  0.6530  0.0729  0.1288
    2CHTO  H149  581   4.041   6.524  -0.577 -0.3703 -0.4010 -1.0089
    2CHTO   C88  582   3.987   6.561  -0.375 -0.8385 -0.0766 -0.4898
    2CHTO   O58  583   4.142   6.588  -0.350  0.1075  0.4530  0.0891
    2CHTO  H136  584   4.162   6.623  -0.266  2.1461  0.9390 -0.5669
    2CHTO   O51  585   4.088   6.113  -0.570  0.1326 -0.1453  0.0083
    2CHTO   C78  586   4.171   6.093  -0.440 -0.1768  0.0627  0.1703
    2CHTO  H150  587   4.156   6.169  -0.360  3.3708  1.0719 -0.0313
    2CHTO   C80  588   4.319   6.103  -0.473  0.3226  0.2931 -0.4053
    2CHTO  H152  589   4.348   6.031  -0.552  2.3982 -0.5815  1.1197
    2CHTO   O55  590   4.354   6.228  -0.533  0.4824 -0.3281  0.8897
    2CHTO  H134  591   4.358   6.297  -0.470  1.9957  0.4935 -0.0709
    2CHTO   C84  592   4.413   6.059  -0.348  0.1052 -0.5162  0.4007
    2CHTO  H156  593   4.416   6.124  -0.261 -1.6633  2.6657 -1.8080
    2CHTO   N15  594   4.555   6.056  -0.397  0.1186 -0.1539  0.6842
    2CHTO  H143  595   4.604   6.118  -0.325 -0.7023  0.3869  0.7831
    2CHTO  H144  596   4.564   6.099  -0.494  0.3070 -1.4713  0.1117
    2CHTO   C87  597   4.363   5.925  -0.299  0.0353 -1.0880  0.0529
    2CHTO  H159  598   4.376   5.855  -0.382 -0.0227  0.2418 -1.1012
    2CHTO   O53  599   4.224   5.926  -0.268 -0.5791  0.4507  0.4186
    2CHTO   C82  600   4.139   5.959  -0.377  0.8328  0.3473 -0.3404
    2CHTO  H154  601   4.139   5.880  -0.452 -2.0607 -0.2912  0.2670
    2CHTO   C89  602   3.993   5.967  -0.323  0.5432 -0.1610 -0.6328
    2CHTO   O59  603   3.939   5.845  -0.263 -0.5743 -0.3779  0.6617
    2CHTO  H137  604   3.964   5.765  -0.306  4.7289  1.6867 -0.4527
    2CHTO   O45  605   4.443   5.870  -0.175 -0.7370  0.6970 -0.1305
    2CHTO   C67  606   4.371   5.821  -0.061  0.4679 -0.0405  0.3763
    2CHTO  H124  607   4.277   5.872  -0.041 -0.7171 -1.8873 -0.2916
    2CHTO   C65  608   4.339   5.670  -0.080 -0.1590 -0.6621 -1.2312
    2CHTO  H122  609   4.412   5.630  -0.150 -1.0017 -0.1759 -2.3922
    2CHTO   O44  610   4.215   5.667  -0.151  0.5205 -0.2300 -0.5403
    2CHTO  H102  611   4.234   5.691  -0.240  0.9444 -1.2779 -0.7316
    2CHTO   C63  612   4.356   5.578   0.048 -0.0066  0.1200  0.3275
    2CHTO  H120  613   4.462   5.556   0.062  0.1427  0.4890 -0.2035
    2CHTO   N11  614   4.311   5.438   0.045  0.2647  0.0127 -0.0720
    2CHTO  H108  615   4.362   5.390  -0.036 -1.9695 -0.6242 -1.1415
    2CHTO  H109  616   4.204   5.445   0.043  0.0954 -1.7233  1.5293
    2CHTO   C61  617   4.311   5.655   0.183 -0.6884  0.4993 -0.0641
    2CHTO  H118  618   4.335   5.603   0.277 -1.3405 -0.9028 -0.6645
    2CHTO   O40  619   4.377   5.784   0.185 -0.0719  0.1976  0.4992
    2CHTO   C68  620   4.453   5.844   0.071 -0.0388  0.0189 -0.3395
    2CHTO  H125  621   4.542   5.780   0.062 -0.2883 -0.3748 -0.0137
    2CHTO   C72  622   4.506   5.991   0.095 -0.1210  0.0694 -0.0382
    2CHTO   O48  623   4.396   6.083   0.101 -0.0445 -0.0849 -0.0742
    2CHTO  H105  624   4.339   6.078   0.175 -0.1278  2.5939  0.0807
    2CHTO   O38  625   4.175   5.695   0.182  0.2555 -0.0633  0.1613
    2CHTO   C55  626   4.115   5.738   0.307  0.1954 -0.2388  0.0933
    2CHTO  H112  627   4.196   5.773   0.371  0.7366  1.6654 -1.5939
    2CHTO   C56  628   4.037   5.620   0.374 -0.4645 -0.8008 -0.3607
    2CHTO  H113  629   3.978   5.575   0.293 -0.8716  0.8403 -0.9866
    2CHTO   O42  630   4.130   5.520   0.407  0.4573 -0.5461 -0.0429
    2CHTO  H100  631   4.094   5.459   0.468 -0.6700 -0.8482 -0.9973
    2CHTO   C57  632   3.948   5.667   0.501  0.0660 -0.6788 -0.0013
    2CHTO  H114  633   4.021   5.689   0.580 -0.5866 -0.0256  0.4273
    2CHTO   N10  634   3.861   5.565   0.556 -0.9072 -0.1854 -0.6605
    2CHTO  H106  635   3.917   5.512   0.632 -0.7758  1.6161  0.5306
    2CHTO  H107  636   3.831   5.497   0.477 -0.8242 -0.8874 -0.0902
    2CHTO   C58  637   3.868   5.794   0.465  0.5191 -0.0639 -0.1581
    2CHTO  H115  638   3.794   5.759   0.390  0.3747  0.1000 -0.0902
    2CHTO   O37  639   3.961   5.896   0.420  0.4143 -0.1832 -0.4604
    2CHTO   C59  640   4.021   5.862   0.289 -0.4687 -0.4427 -0.1557
    2CHTO  H116  641   3.950   5.826   0.215  0.6526 -1.3549 -0.8113
    2CHTO   C70  642   4.097   5.978   0.216 -0.5992 -0.0230 -0.1208
    2CHTO   O46  643   4.010   6.086   0.184 -0.1208 -0.3856  0.1560
    2CHTO  H103  644   3.933   6.054   0.141 -1.0084  0.0727  1.3453
    2CHTO   O39  645   3.816   5.869   0.574  0.2832  0.1543  0.2926
    2CHTO   C60  646   3.688   5.931   0.543  0.0669 -0.0758  0.7806
    2CHTO  H117  647   3.692   5.973   0.442  0.6433 -1.8422  0.0255
    2CHTO   C62  648   3.578   5.822   0.553 -0.1946  0.6945  0.4125
    2CHTO  H119  649   3.602   5.744   0.479  1.7187  0.1103  1.6180
    2CHTO   O43  650   3.571   5.761   0.684 -0.0940 -0.1327  0.3028
    2CHTO  H101  651   3.489   5.724   0.710  1.3615 -2.0685  2.3209
    2CHTO   C66  652   3.440   5.891   0.497 -0.6657  0.1475 -0.0579
    2CHTO  H123  653   3.457   5.945   0.404 -0.8322  0.3217  0.0131
    2CHTO   N12  654   3.329   5.792   0.477 -0.2873  0.7847  0.5401
    2CHTO  H110  655   3.297   5.741   0.566 -0.7770  2.7303  1.5233
    2CHTO  H111  656   3.242   5.835   0.428 -0.0735  0.6907  0.0707
    2CHTO   C69  657   3.404   5.999   0.601  0.5256  0.2066 -0.4350
    2CHTO  H126  658   3.387   5.943   0.696 -0.6657  1.8146  0.3272
    2CHTO   O41  659   3.521   6.115   0.599 -0.0935 -0.3323 -0.4428
    2CHTO   C64  660   3.661   6.048   0.637 -0.1386 -0.0066 -0.3890
    2CHTO  H121  661   3.666   6.017   0.743  0.1319  1.1312 -0.0593
    2CHTO   C71  662   3.762   6.161   0.611  0.0640 -0.3496  0.3330
    2CHTO   O47  663   3.750   6.275   0.700  0.1375 -0.9528 -0.0618
    2CHTO  H104  664   3.779   6.255   0.787 -2.6528 -1.9341  0.6953
    2CHTO   O34  665   3.270   6.069   0.575 -0.4193  0.2460 -0.0200
    2CHTO   C49  666   3.202   6.179   0.649  0.1439  0.8417  0.5797
    2CHTO   H91  667   3.154   6.120   0.727  0.2939 -0.5257 -0.3600
    2CHTO   C47  668   3.104   6.250   0.547  0.5981  0.0016 -0.0583
    2CHTO   H89  669   3.032   6.317   0.600 -0.7743 -1.9369  0.5527
    2CHTO   O33  670   3.020   6.149   0.484  0.0231  0.5558  0.2663
    2CHTO   H70  671   2.966   6.119   0.554  1.6460  0.2846  1.4405
    2CHTO   C45  672   3.183   6.336   0.442  0.4388  0.1108 -0.4945
    2CHTO   H87  673   3.254   6.268   0.393  0.6573  1.0790 -1.5388
    2CHTO    N8  674   3.092   6.388   0.334  0.6286 -0.0371  0.4959
    2CHTO   H75  675   3.043   6.305   0.285  1.0265 -0.8048  1.3906
    2CHTO   H76  676   3.137   6.468   0.276  3.0169 -0.9749  0.9963
    2CHTO   C43  677   3.269   6.444   0.522 -0.2930 -0.3349  0.5391
    2CHTO   H85  678   3.326   6.500   0.448  0.4869  0.9001  2.0582
    2CHTO   O29  679   3.359   6.374   0.616  0.9620 -0.5354 -0.2677
    2CHTO   C50  680   3.301   6.283   0.712 -0.1867  0.5051 -0.7275
    2CHTO   H92  681   3.378   6.224   0.763 -0.1554 -0.6610 -2.1051
    2CHTO   C54  682   3.238   6.342   0.839 -0.1831 -0.2811 -0.1588
    2CHTO   O36  683   3.216   6.247   0.953  0.5900 -0.8458  0.1995
    2CHTO   H72  684   3.211   6.289   1.037 -1.2758 -0.0923 -0.2598
    2CHTO   O27  685   3.186   6.538   0.590 -0.1391 -0.0534 -0.2015
    2CHTO   C37  686   3.098   6.646   0.606 -0.0086  0.1786 -0.3314
    2CHTO   H79  687   3.011   6.639   0.539 -1.3815  3.7012  0.9718
    2CHTO   C38  688   3.027   6.637   0.751 -0.0296  0.2463  0.2117
    2CHTO   H80  689   3.111   6.631   0.821 -1.8298  2.2752  2.6556
    2CHTO   O31  690   2.940   6.519   0.755 -0.0282 -0.4417  0.0749
    2CHTO   H68  691   2.878   6.502   0.686  0.9836  2.4092 -1.6095
    2CHTO   C39  692   2.940   6.763   0.783 -0.1918 -0.2013 -0.1619
    2CHTO   H81  693   2.856   6.762   0.713 -0.7825  0.6302  0.5215
    2CHTO    N7  694   2.899   6.755   0.933  0.2998 -0.2365  0.4624
    2CHTO   H73  695   2.840   6.845   0.944 -1.1749 -1.0979 -0.2768
    2CHTO   H74  696   2.985   6.762   0.998  0.9925 -2.1907 -0.1951
    2CHTO   C40  697   3.020   6.895   0.742 -0.1874 -0.0100 -0.6346
    2CHTO   H82  698   3.096   6.926   0.815  0.3655  0.3556 -1.3590
    2CHTO   O26  699   3.074   6.890   0.612  0.4670 -0.7195 -0.2304
    2CHTO   C41  700   3.165   6.782   0.581 -0.5672  0.4553  0.0489
    2CHTO   H83  701   3.257   6.784   0.642 -1.6489  1.1113  1.6793
    2CHTO   C52  702   3.214   6.805   0.435 -0.0645 -0.5404 -0.1061
    2CHTO   O35  703   3.106   6.830   0.335 -0.4642 -0.3436  0.0945
    2CHTO   H71  704   3.057   6.756   0.305 -1.3331 -0.2543  1.2472
    2CHTO   O28  705   2.919   7.004   0.740  0.3169 -0.1406  0.8345
    2CHTO   C42  706   2.958   7.143   0.768  0.1407 -0.1658  0.8105
    2CHTO   H84  707   2.879   7.199   0.717 -0.8104 -1.2004  1.1102
    2CHTO   C44  708   3.091   7.193   0.718 -0.4338  0.1215  0.1419
    2CHTO   H86  709   3.172   7.139   0.767 -1.9403 -1.2387  1.1831
    2CHTO   O32  710   3.104   7.164   0.572  0.2141  0.3258  0.1381
    2CHTO   H69  711   3.193   7.140   0.555 -0.3462 -1.3798 -0.4231
    2CHTO   C48  712   3.112   7.343   0.751 -0.1597 -0.2800  0.1903
    2CHTO   H90  713   3.033   7.399   0.701  1.3630  1.0571 -0.7807
    2CHTO    N9  714   3.245   7.397   0.694  1.1384 -0.0854  0.1317
    2CHTO   H77  715   3.266   7.496   0.731 -1.4724  0.8686 -0.7886
    2CHTO   H78  716   3.325   7.327   0.713  1.2494  0.4019  1.5094
    2CHTO   C51  717   3.096   7.370   0.902 -0.5262 -0.1371 -0.5776
    2CHTO   H93  718   3.180   7.316   0.945 -0.1807  0.6946 -0.1960
    2CHTO   O30  719   2.966   7.320   0.944 -0.6215 -0.9069 -0.0045
    2CHTO   C46  720   2.947   7.172   0.918  0.1146  0.6870 -0.1177
    2CHTO   H88  721   3.014   7.106   0.974 -2.0036  0.2257  1.9896
    2CHTO   C53  722   2.807   7.146   0.976  0.1349 -0.7078 -0.9482
    2CHTO   O72  723   2.775   7.182   1.111  0.5129  0.1371  0.0010
    2CHTO  H199  724   2.724   7.113   1.149 -1.2605  0.7856 -1.1278
    2CHTO   O22  725   3.087   7.511   0.941  0.0429  0.1548 -0.2823
    2CHTO   C31  726   3.114   7.560   1.078 -0.3019 -0.3034 -0.2626
    2CHTO   H59  727   3.097   7.669   1.074  1.3503 -0.0097  0.3343
    2CHTO   C29  728   3.030   7.498   1.186 -0.8260 -0.3407  0.4048
    2CHTO   H57  729   3.042   7.389   1.183 -2.6101 -0.6009  2.2621
    2CHTO   O21  730   2.895   7.509   1.146 -0.1138  0.2587  0.3147
    2CHTO   H37  731   2.872   7.447   1.079  0.2256  2.4433 -1.9146
    2CHTO   C27  732   3.062   7.549   1.323  0.0124 -0.6774 -0.5136
    2CHTO   H55  733   3.044   7.657   1.327 -0.3649 -0.7783  0.8131
    2CHTO    N5  734   2.978   7.486   1.432  0.1931  0.0098 -0.0304
    2CHTO   H43  735   2.891   7.446   1.383  0.2796 -0.9083  0.5455
    2CHTO   H44  736   2.954   7.558   1.509  1.6528 -0.9089  1.3085
    2CHTO   C25  737   3.217   7.517   1.352 -0.2006 -0.7537 -0.5272
    2CHTO   H53  738   3.227   7.408   1.352  0.8490 -0.6716  1.3702
    2CHTO   O17  739   3.298   7.583   1.250  0.5899 -0.6295 -0.0579
    2CHTO   C32  740   3.273   7.545   1.109  0.1505 -0.0683 -0.3641
    2CHTO   H60  741   3.301   7.440   1.098 -2.4462 -0.5593 -3.2078
    2CHTO   C36  742   3.353   7.647   1.024  0.2391  0.6987 -0.1048
    2CHTO   O25  743   3.493   7.626   1.017 -0.3010  0.7864  0.6233
    2CHTO   H40  744   3.536   7.670   1.088 -0.0341  2.9765 -0.8704
    2CHTO   O15  745   3.267   7.567   1.485 -0.7027 -0.4244  0.1822
    2CHTO   C19  746   3.362   7.539   1.590  0.0432 -0.0025  0.1329
    2CHTO   H47  747   3.356   7.430   1.604  2.9503 -1.1702 -6.1971
    2CHTO   C20  748   3.508   7.572   1.550  0.3853  0.2749  0.0497
    2CHTO   H48  749   3.521   7.675   1.512 -1.4333 -0.3024 -2.2533
    2CHTO   O19  750   3.535   7.488   1.436  0.6032 -0.4094 -0.0965
    2CHTO   H35  751   3.481   7.504   1.362  0.0242  0.9037  0.6004
    2CHTO   C21  752   3.602   7.550   1.669  0.2265  0.1897  0.2942
    2CHTO   H49  753   3.616   7.442   1.674 -0.3693  0.0501 -0.9790
    2CHTO    N4  754   3.740   7.604   1.645  0.0064  0.6806  0.5060
    2CHTO   H41  755   3.799   7.535   1.587 -1.3293 -0.0438  0.0022
    2CHTO   H42  756   3.736   7.690   1.580 -1.6230  0.1979 -0.0401
    2CHTO   C22  757   3.546   7.607   1.804 -0.4013  0.6939 -0.1699
    2CHTO   H50  758   3.545   7.716   1.803  0.0376  0.6969 -1.5641
    2CHTO   O14  759   3.413   7.562   1.822 -0.2710  0.3180  0.8553
    2CHTO   C23  760   3.323   7.613   1.722 -0.1768  0.5517 -0.5852
    2CHTO   H51  761   3.345   7.721   1.718  0.2438  0.5847  1.8817
    2CHTO   C34  762   3.177   7.596   1.770 -0.2501  0.3347  0.4702
    2CHTO   O23  763   3.160   7.654   1.899  0.0678 -0.5636  0.5628
    2CHTO   H38  764   3.103   7.603   1.953 -1.2963  0.1720 -0.1507
    2CHTO   O16  765   3.611   7.555   1.928  0.1107  0.4522  0.0294
    2CHTO   C24  766   3.576   7.660   2.053 -0.0392  0.4873  0.1317
    2CHTO   H52  767   3.496   7.729   2.027 -0.2885 -0.1102 -0.7054
    2CHTO   C26  768   3.707   7.735   2.082  0.4760  0.0107 -0.0938
    2CHTO   H54  769   3.787   7.659   2.097 -0.5426 -1.3134 -1.1907
    2CHTO   O20  770   3.733   7.811   1.962  0.3191 -0.0772  0.2072
    2CHTO   H36  771   3.786   7.886   1.977  1.4504 -0.9494  0.6485
    2CHTO   C30  772   3.701   7.829   2.205  0.4219  1.0561 -0.2323
    2CHTO   H58  773   3.628   7.909   2.183  0.2110  1.0428  0.4147
    2CHTO    N6  774   3.844   7.882   2.230 -0.0942  0.6199 -0.6451
    2CHTO   H45  775   3.927   7.837   2.178  2.0155  1.2546  2.1053
    2CHTO   H46  776   3.847   7.988   2.212 -0.0955  1.0418  1.7123
    2CHTO   C33  777   3.648   7.738   2.325  0.6004 -0.5808 -0.3126
    2CHTO   H61  778   3.715   7.654   2.343 -1.2014 -1.8516  0.6329
    2CHTO   O18  779   3.520   7.685   2.289 -0.4908 -0.1612 -0.2469
    2CHTO   C28  780   3.526   7.587   2.179  0.2206  0.2455  0.1068
    2CHTO   H56  781   3.599   7.514   2.215  0.7687  0.8885  0.3196
    2CHTO   C35  782   3.377   7.540   2.164  0.1097  0.3342 -0.3534
    2CHTO   O24  783   3.359   7.424   2.085 -0.2950  0.3817  0.4420
    2CHTO   H39  784   3.443   7.384   2.073  0.3661  2.6015 -3.1081
    2CHTO    O9  785   3.632   7.812   2.447 -0.3549  0.8157 -0.0027
    2CHTO   C13  786   3.608   7.715   2.570 -0.7509 -0.2524 -0.0423
    2CHTO   H26  787   3.665   7.623   2.545  0.5819  0.3878  0.5843
    2CHTO   C11  788   3.449   7.683   2.583 -0.1248 -0.4385  0.7522
    2CHTO   H24  789   3.413   7.614   2.505 -1.3512  0.9832  0.0339
    2CHTO    O8  790   3.376   7.806   2.567 -0.7013 -0.2476  0.0243
    2CHTO    H3  791   3.361   7.823   2.476 -0.5395 -2.7019 -0.4820
    2CHTO    C9  792   3.421   7.620   2.719  0.5888  0.3379  0.3442
    2CHTO   H22  793   3.493   7.537   2.730  2.3577  1.7889 -0.0228
    2CHTO    N2  794   3.287   7.551   2.722  0.6675  0.6266  0.6583
    2CHTO   H10  795   3.205   7.621   2.719 -0.2219 -0.4525 -2.5623
    2CHTO   H11  796   3.271   7.493   2.811  4.1668  0.9365  1.5634
    2CHTO    C7  797   3.454   7.724   2.832 -0.5915 -0.4488 -0.3198
    2CHTO   H20  798   3.467   7.666   2.926  2.9505  0.0975 -0.4091
    2CHTO    O4  799   3.563   7.814   2.796 -0.2122 -0.0860 -0.0284
    2CHTO   C14  800   3.663   7.787   2.700 -0.5132 -0.7812 -0.4597
    2CHTO   H27  801   3.733   7.714   2.746  0.1720  0.7561  0.9784
    2CHTO   C18  802   3.743   7.911   2.691 -0.4754  0.0147  0.3933
    2CHTO   O13  803   3.669   8.023   2.646  0.3355 -0.0586 -0.7748
    2CHTO    H7  804   3.714   8.101   2.674 -0.6630 -0.0301  0.8224
    2CHTO    O2  805   3.324   7.817   2.857 -0.6087 -0.1311  0.2420
    2CHTO    C1  806   3.318   7.861   2.993 -0.4619 -0.3620 -0.5223
    2CHTO   H14  807   3.422   7.859   3.032 -0.5696  0.8791 -0.1588
    2CHTO    C2  808   3.228   7.782   3.096  0.9068  0.4406  0.2846
    2CHTO   H15  809   3.132   7.783   3.041  0.7201  2.0003  0.6140
    2CHTO    O6  810   3.281   7.649   3.123 -1.2573  0.5891 -0.8494
    2CHTO    H1  811   3.225   7.579   3.152  0.3954 -0.0701  0.8104
    2CHTO    C3  812   3.194   7.856   3.234 -0.0065 -0.4067 -0.3730
    2CHTO   H16  813   3.280   7.856   3.302 -0.5806  0.5015  0.3559
    2CHTO    N1  814   3.097   7.778   3.317 -0.4445  0.5521  0.7283
    2CHTO    H8  815   3.130   7.677   3.336  0.3649  0.1924 -2.3710
    2CHTO    H9  816   3.095   7.835   3.409  1.0613  1.0307  0.4766
    2CHTO    C4  817   3.170   8.007   3.207 -0.3302 -0.6868 -0.3052
    2CHTO   H17  818   3.077   8.018   3.149 -0.2469  1.2631 -0.0876
    2CHTO    O1  819   3.278   8.059   3.129 -0.1585 -0.1692 -0.6021
    2CHTO    C5  820   3.287   8.010   2.991  0.2018  0.3656  0.0919
    2CHTO   H18  821   3.188   8.017   2.945  0.3705  0.7771 -0.2093
    2CHTO   C16  822   3.390   8.098   2.917  0.7418 -0.0984 -0.0513
    2CHTO   O11  823   3.521   8.081   2.968  0.6866  0.3142  0.9113
    2CHTO    H5  824   3.599   8.088   2.916 -0.9442 -0.2472 -1.6386
    2CHTO    O3  825   3.164   8.086   3.325  0.3043  0.1123 -0.4208
    2CHTO    C6  826   3.035   8.149   3.348 -0.3937  0.4540 -0.3649
    2CHTO   H19  827   2.949   8.092   3.312 -0.9763 -0.2138  1.9993
    2CHTO    C8  828   3.026   8.155   3.503 -0.1920 -0.0328  0.1716
    2CHTO   H21  829   3.117   8.203   3.539 -1.3796  1.3997  1.2945
    2CHTO    O7  830   3.029   8.017   3.550  0.0579 -0.4684  0.4123
    2CHTO    H2  831   3.022   7.947   3.488  0.6503 -0.6253  0.5129
    2CHTO   C12  832   2.899   8.248   3.550 -0.2820  0.0227  0.2090
    2CHTO   H25  833   2.810   8.185   3.527  0.3429 -1.0967  0.7987
    2CHTO    N3  834   2.899   8.270   3.698  0.6989  0.8427 -0.4823
    2CHTO   H12  835   2.808   8.320   3.730  0.4751  0.1582 -0.0276
    2CHTO   H13  836   2.978   8.338   3.725 -0.5455  3.1353 -2.3635
    2CHTO   C15  837   2.891   8.383   3.457 -0.3427  0.1532  0.0254
    2CHTO   H28  838   2.963   8.461   3.483  1.0189 -1.1934  0.3637
    2CHTO   O10  839   2.757   8.461   3.456  0.9752  0.5395 -0.5813
    2CHTO    H4  840   2.722   8.446   3.541  3.1626 -2.6841 -0.1377
    2CHTO    O5  841   2.907   8.351   3.319  0.4088 -0.2785  0.5917
    2CHTO   C10  842   3.030   8.294   3.286 -0.1839 -0.3001  0.0796
    2CHTO   H23  843   3.116   8.347   3.328 -0.3434 -0.5609  0.7465
    2CHTO   C17  844   3.035   8.304   3.129 -0.1766  0.3657 -0.1930
    2CHTO   O12  845   3.166   8.335   3.094  0.3415  0.0929  0.7047
    2CHTO    H6  846   3.173   8.429   3.087 -0.2386  0.0190 -1.4183
    3CHTO  H203  847   7.759   1.680   1.656  0.9273  1.6358  1.9820
    3CHTO   O82  848   7.669   1.701   1.673  0.2002  0.0206  0.3260
    3CHTO  C123  849   7.610   1.605   1.765 -0.2239  0.1664  0.2660
    3CHTO  H227  850   7.659   1.612   1.863 -0.9522 -0.3638  0.6727
    3CHTO   O77  851   7.486   1.668   1.769  0.3028  0.6446  0.4765
    3CHTO  C118  852   7.388   1.599   1.851 -0.6863 -1.0063  0.1083
    3CHTO  H222  853   7.422   1.580   1.954 -0.5258 -0.7509  0.1028
    3CHTO  C125  854   7.268   1.696   1.859 -0.1491  0.3636  0.3079
    3CHTO   O84  855   7.220   1.712   1.725  0.7180  0.3064  0.4027
    3CHTO  H205  856   7.158   1.782   1.720  0.3391 -0.0695 -0.1742
    3CHTO  C114  857   7.357   1.465   1.786 -0.3981  0.3317  0.7853
    3CHTO  H218  858   7.343   1.479   1.678  1.9815 -4.2632 -0.2821
    3CHTO  C116  859   7.488   1.380   1.790  0.4875  0.3019  0.1616
    3CHTO  H220  860   7.526   1.369   1.894  1.4118 -0.7748 -0.2787
    3CHTO   O79  861   7.462   1.248   1.735  0.4426 -0.2044 -0.3506
    3CHTO  H201  862   7.389   1.203   1.771  0.8504 -2.1115 -1.8220
    3CHTO  C120  863   7.597   1.455   1.705  0.2796  0.4356  0.1378
    3CHTO  H224  864   7.563   1.452   1.599 -2.2293 -1.7417  0.9510
    3CHTO   N21  865   7.727   1.386   1.709  0.1635 -0.0821 -0.2567
    3CHTO  H211  866   7.744   1.312   1.631 -0.9900  0.1837 -0.7694
    3CHTO  H212  867   7.769   1.351   1.802  1.5836 -1.7263 -1.4855
    3CHTO   O75  868   7.249   1.397   1.853 -0.1517 -0.2998 -0.5363
    3CHTO  C112  869   7.135   1.340   1.750  0.4640  0.9066  0.3619
    3CHTO  H216  870   7.188   1.315   1.657 -0.1393  1.9054 -0.2573
    3CHTO   O73  871   7.038   1.442   1.733 -0.2689  0.2148 -0.1914
    3CHTO  C113  872   6.914   1.406   1.667  0.1289 -0.0665  0.2124
    3CHTO  H217  873   6.943   1.367   1.567 -0.9387  1.6549 -0.7941
    3CHTO  C124  874   6.833   1.538   1.652  0.2096 -0.0148 -0.0807
    3CHTO   O83  875   6.726   1.534   1.564 -0.1898  0.1107 -0.2029
    3CHTO  H204  876   6.745   1.494   1.482  0.7364 -1.5415  0.7953
    3CHTO  C109  877   6.839   1.299   1.745  0.0075  0.1607 -0.0696
    3CHTO  H213  878   6.815   1.344   1.842 -0.9178 -0.3364 -0.0660
    3CHTO  C110  879   6.937   1.170   1.755  0.1735 -0.2383 -0.0612
    3CHTO  H214  880   6.956   1.130   1.655 -0.0453 -2.9988  0.9735
    3CHTO   O78  881   6.875   1.065   1.832  0.0130  0.1524 -0.0127
    3CHTO  H200  882   6.876   1.080   1.924  0.7927  1.3663 -0.2024
    3CHTO  C111  883   7.076   1.210   1.816 -0.4043  0.9424 -0.5748
    3CHTO  H215  884   7.057   1.233   1.922  0.8677 -3.9253  0.8403
    3CHTO   N19  885   7.174   1.098   1.812  0.4255 -0.5170 -0.1045
    3CHTO  H207  886   7.138   1.013   1.869 -0.0106 -0.8993 -0.9486
    3CHTO  H208  887   7.274   1.128   1.842  1.1105 -2.1809 -0.6777
    3CHTO   O74  888   6.717   1.265   1.687  0.0165 -0.2702  0.1342
    3CHTO  C115  889   6.602   1.246   1.787  0.1325 -0.0885  0.1992
    3CHTO  H219  890   6.629   1.179   1.869 -1.4308  0.4573  1.1896
    3CHTO   O76  891   6.553   1.382   1.856 -0.5233 -0.1118  0.6223
    3CHTO  C122  892   6.466   1.471   1.789  0.1324  0.0581 -0.1987
    3CHTO  H226  893   6.524   1.513   1.707 -0.2331 -0.5706 -0.7830
    3CHTO  C126  894   6.426   1.584   1.891  0.4884 -0.6143 -0.2280
    3CHTO   O85  895   6.542   1.638   1.952 -0.3993  0.2193 -0.3314
    3CHTO  H206  896   6.519   1.714   2.002 -3.2710 -1.7253  1.4008
    3CHTO  C121  897   6.337   1.394   1.735  0.4790  0.4911 -0.3159
    3CHTO  H225  898   6.242   1.427   1.781  0.5026  2.0581 -1.3708
    3CHTO   O81  899   6.331   1.407   1.592 -0.2039  0.2625 -0.4796
    3CHTO  H202  900   6.335   1.495   1.562 -2.1012  0.9551  1.2099
    3CHTO  C119  901   6.349   1.236   1.753 -0.5926 -0.0053  0.3243
    3CHTO  H223  902   6.341   1.216   1.859  0.5519  0.2391  0.4642
    3CHTO  C117  903   6.485   1.174   1.709  0.3695 -0.4040  0.0920
    3CHTO  H221  904   6.502   1.181   1.602 -1.0885  2.6462  0.0020
    3CHTO   N20  905   6.488   1.033   1.738 -0.5362  0.6846 -0.3527
    3CHTO  H209  906   6.398   0.987   1.697 -0.6678  1.4288 -0.9130
    3CHTO  H210  907   6.566   0.985   1.681 -1.2708  1.2848 -1.9060
    3CHTO   O80  908   6.208   1.161   1.694  0.4677 -0.6295 -0.0960
    3CHTO  C103  909   6.075   1.176   1.768  1.1261 -0.8394  0.1138
    3CHTO  H190  910   6.080   1.211   1.871  0.9199 -1.2561  0.2690
    3CHTO  C101  911   5.954   1.250   1.699  0.2418  0.0575 -0.0186
    3CHTO  H188  912   5.962   1.224   1.593  0.7881 -3.5621  0.8494
    3CHTO   O68  913   5.979   1.390   1.715  0.1885  0.6907  0.8314
    3CHTO  H168  914   6.066   1.412   1.689 -0.9274  1.9777 -2.0728
    3CHTO   C99  915   5.806   1.210   1.757  0.6668  0.1507  0.2309
    3CHTO  H186  916   5.802   1.230   1.866  2.0789  0.5713  0.2178
    3CHTO   N17  917   5.691   1.275   1.691  1.0722  0.2250  0.2697
    3CHTO  H174  918   5.691   1.234   1.591  0.8357 -3.0643  1.5449
    3CHTO  H175  919   5.598   1.249   1.740  0.5603  0.1324 -0.7308
    3CHTO   C97  920   5.802   1.057   1.744  0.3617  0.3856 -0.3340
    3CHTO  H184  921   5.821   1.029   1.639  1.6798  2.2942 -0.6319
    3CHTO   O64  922   5.906   1.003   1.832  0.3748  0.3334 -0.3436
    3CHTO  C104  923   6.038   1.025   1.777 -0.3941  0.1410 -0.1221
    3CHTO  H191  924   6.039   0.978   1.678 -0.8280 -2.3261  1.0113
    3CHTO  C108  925   6.129   0.936   1.866 -0.0996  0.1624  0.6125
    3CHTO   O71  926   6.108   0.972   2.002  0.1205  0.1343 -0.2297
    3CHTO  H171  927   6.016   0.988   2.013  0.6214  1.8804  1.7279
    3CHTO   O62  928   5.678   1.000   1.803  0.1962 -0.2034  0.0636
    3CHTO   C91  929   5.639   0.866   1.774 -0.4408  0.0847 -0.1005
    3CHTO  H178  930   5.670   0.842   1.672  1.8288  1.6466  0.1836
    3CHTO   C92  931   5.485   0.868   1.765  0.5360  0.2806 -0.0827
    3CHTO  H179  932   5.441   0.907   1.858 -0.4576 -0.3269 -0.2860
    3CHTO   O66  933   5.449   0.973   1.675  0.1164 -0.3134 -0.2010
    3CHTO  H166  934   5.356   0.978   1.670  0.0253  0.5574  1.8838
    3CHTO   C93  935   5.433   0.728   1.728 -0.8901 -0.4222  0.4264
    3CHTO  H180  936   5.471   0.702   1.628 -1.1521 -4.0367  1.2000
    3CHTO   N16  937   5.284   0.724   1.728 -0.1694  0.1441 -0.0236
    3CHTO  H172  938   5.246   0.795   1.655 -0.7388 -0.2294 -0.0872
    3CHTO  H173  939   5.234   0.734   1.823  0.0991  0.1829  0.1139
    3CHTO   C94  940   5.491   0.616   1.830 -0.6118  0.8635 -0.0180
    3CHTO  H181  941   5.409   0.580   1.893 -0.2514  0.9973  0.5269
    3CHTO   O61  942   5.592   0.658   1.922  0.2330  0.2998  0.2440
    3CHTO   C95  943   5.683   0.759   1.879  0.2169  0.0631  0.0878
    3CHTO  H182  944   5.709   0.815   1.968 -0.1261 -1.1098  0.9462
    3CHTO  C106  945   5.808   0.687   1.822 -0.3747 -0.0101  0.3177
    3CHTO   O69  946   5.864   0.587   1.910  0.0171 -0.3830 -0.1006
    3CHTO  H169  947   5.891   0.508   1.869 -0.1978  0.0523 -1.0984
    3CHTO   O63  948   5.554   0.497   1.755 -0.0767  0.0919  0.3870
    3CHTO   C96  949   5.490   0.358   1.751  0.7078  0.9731  0.3835
    3CHTO  H183  950   5.557   0.286   1.704 -1.6991 -0.4201 -1.0645
    3CHTO   C98  951   5.346   0.347   1.679 -0.0859  0.1435  0.5734
    3CHTO  H185  952   5.285   0.428   1.723 -0.1364  0.9367 -0.9493
    3CHTO   O67  953   5.365   0.383   1.545 -0.0323 -0.1440  0.6483
    3CHTO  H167  954   5.429   0.337   1.494 -2.4060 -1.7476 -1.0118
    3CHTO  C102  955   5.267   0.208   1.695 -0.6488 -0.1893  0.1684
    3CHTO  H189  956   5.325   0.131   1.642 -2.1194 -0.4268 -1.0933
    3CHTO   N18  957   5.132   0.204   1.638 -0.3878  0.6102  0.1627
    3CHTO  H176  958   5.129   0.226   1.532 -3.5988  0.8465  0.2731
    3CHTO  H177  959   5.092   0.105   1.653 -0.7216  0.3641 -2.1914
    3CHTO  C105  960   5.270   0.175   1.848  0.3565  0.3213  0.5283
    3CHTO  H192  961   5.211   0.247   1.904 -3.3894 -2.1961  0.0183
    3CHTO   O65  962   5.406   0.180   1.896  0.3972 -0.0218 -0.1936
    3CHTO  C100  963   5.477   0.306   1.894  0.0402 -0.2047 -0.0190
    3CHTO  H187  964   5.412   0.374   1.952  0.4401  0.9095 -0.8538
    3CHTO  C107  965   5.617   0.294   1.958  0.1435  0.2825 -0.7128
    3CHTO   O70  966   5.632   0.208   2.069  0.0051  0.2993 -0.3265
    3CHTO  H170  967   5.624   0.117   2.045 -0.5220 -0.1648  1.5500
    3CHTO   O57  968   5.216   0.016   1.878  0.4100 -0.6261 -0.0578
    3CHTO   C85  969   5.174  -0.040   1.998  0.2741 -0.2006  0.0579
    3CHTO  H157  970   5.139  -0.143   1.976  1.2299 -0.4915 -0.1371
    3CHTO   C83  971   5.043   0.031   2.050  0.6970  0.6074  0.1202
    3CHTO  H155  972   4.962   0.026   1.978  1.7418 -2.7101 -0.9227
    3CHTO   O56  973   5.070   0.166   2.078  0.2686  0.1268  0.3216
    3CHTO  H135  974   4.995   0.219   2.096  0.1882 -0.9388  3.5005
    3CHTO   C81  975   4.997  -0.039   2.183 -0.0917 -0.3948  0.1887
    3CHTO  H153  976   4.983  -0.146   2.163 -0.6693 -0.2791 -0.0407
    3CHTO   N14  977   4.863   0.016   2.230 -0.2786 -0.2689 -0.1271
    3CHTO  H141  978   4.836   0.001   2.333 -2.3369  0.0076 -0.6031
    3CHTO  H142  979   4.857   0.121   2.211 -0.2246 -0.4925 -1.3615
    3CHTO   C79  980   5.112  -0.023   2.290 -0.2207  0.6805 -0.1849
    3CHTO  H151  981   5.081  -0.082   2.376 -2.3194  1.5406 -0.2972
    3CHTO   O52  982   5.241  -0.090   2.245  0.0900  0.3210 -0.0086
    3CHTO   C86  983   5.284  -0.038   2.119 -0.0520  0.2411 -0.0613
    3CHTO  H158  984   5.315   0.066   2.142 -3.5934  1.0584  1.3120
    3CHTO   C90  985   5.412  -0.114   2.075 -0.0211 -0.4168 -0.4591
    3CHTO   O60  986   5.523  -0.116   2.160 -0.3827 -0.3175  0.6453
    3CHTO  H138  987   5.516  -0.181   2.228  1.5284  1.9267  3.1313
    3CHTO   O50  988   5.144   0.108   2.337 -0.1653  0.5294 -0.2842
    3CHTO   C73  989   5.161   0.189   2.456  0.1310 -0.0866 -0.7973
    3CHTO  H145  990   5.230   0.143   2.529  0.4699  0.7238 -0.6014
    3CHTO   C74  991   5.029   0.201   2.541 -0.0954  0.6077  0.5482
    3CHTO  H146  992   4.986   0.101   2.558  0.1169  0.7260  1.8511
    3CHTO   O54  993   5.071   0.254   2.669  0.0108  0.2299 -0.1333
    3CHTO  H133  994   5.034   0.206   2.740 -0.1553 -0.2823 -0.5645
    3CHTO   C75  995   4.929   0.295   2.463  0.0810  0.1041 -0.1231
    3CHTO  H147  996   4.885   0.237   2.381  1.5461 -1.9522  0.5064
    3CHTO   N13  997   4.814   0.338   2.541 -0.1750 -0.2113 -0.5562
    3CHTO  H139  998   4.736   0.264   2.552  1.7832 -2.3778 -0.9416
    3CHTO  H140  999   4.776   0.421   2.483  1.9277 -0.8765 -2.9867
    3CHTO   C76 1000   5.005   0.427   2.403 -0.3890 -0.2789 -0.4673
    3CHTO  H148 1001   5.026   0.498   2.483  0.1484  0.7505 -1.5085
    3CHTO   O49 1002   5.127   0.387   2.332 -0.3452  0.2660  0.5836
    3CHTO   C77 1003   5.215   0.322   2.417 -0.2508 -0.9922  0.5447
    3CHTO  H149 1004   5.229   0.381   2.508 -2.2946  1.2908 -0.5582
    3CHTO   C88 1005   5.347   0.321   2.345  0.0598  0.2514 -0.6941
    3CHTO   O58 1006   5.469   0.289   2.430  0.7687  0.3628  0.3359
    3CHTO  H136 1007   5.474   0.197   2.447  0.0228 -0.2823 -2.5007
    3CHTO   O51 1008   4.914   0.493   2.291  0.6470  0.1892  0.0869
    3CHTO   C78 1009   4.951   0.624   2.266  0.3270 -0.7711 -0.4616
    3CHTO  H150 1010   5.058   0.646   2.284  0.0722  1.5358 -1.4793
    3CHTO   C80 1011   4.864   0.717   2.345 -0.5508  0.0008 -0.5392
    3CHTO  H152 1012   4.757   0.690   2.332 -1.3282  1.6197  2.0753
    3CHTO   O55 1013   4.899   0.671   2.480  0.7880 -1.0273 -0.2494
    3CHTO  H134 1014   4.981   0.698   2.516  0.1491  0.7780 -0.0624
    3CHTO   C84 1015   4.898   0.874   2.318 -0.8003 -0.1489  0.4020
    3CHTO  H156 1016   5.000   0.894   2.349 -0.7728  0.3966 -0.0244
    3CHTO   N15 1017   4.823   0.979   2.398 -0.0713 -0.6994 -0.1895
    3CHTO  H143 1018   4.719   0.968   2.375 -0.5378 -1.8379  2.3396
    3CHTO  H144 1019   4.855   1.079   2.378 -0.6789 -0.4602  0.0082
    3CHTO   C87 1020   4.885   0.904   2.162 -0.0337 -0.0461 -0.6098
    3CHTO  H159 1021   4.781   0.896   2.133  0.0080 -0.2800 -0.6958
    3CHTO   O53 1022   4.966   0.800   2.088 -0.5704  0.2416  0.3782
    3CHTO   C82 1023   4.939   0.659   2.114  0.3019 -1.1855 -0.1863
    3CHTO  H154 1024   4.841   0.643   2.069 -0.0954  1.2726 -0.3156
    3CHTO   C89 1025   5.036   0.569   2.036  0.0441 -0.5691  0.7033
    3CHTO   O59 1026   5.004   0.569   1.897  0.5934  0.9975  0.5856
    3CHTO  H137 1027   5.082   0.575   1.845 -0.9607 -1.0308 -2.0700
    3CHTO   O45 1028   4.945   1.056   2.129  0.3223  0.1380  0.4033
    3CHTO   C67 1029   5.085   1.087   2.131  0.3116 -0.0951  0.5857
    3CHTO  H124 1030   5.131   0.997   2.171 -1.8804 -2.0953 -1.2658
    3CHTO   C65 1031   5.132   1.112   1.983 -0.6356 -0.6172  0.7942
    3CHTO  H122 1032   5.046   1.161   1.937  0.5124  0.8763  0.1783
    3CHTO   O44 1033   5.158   0.986   1.921 -0.2339 -0.5020  0.2798
    3CHTO  H102 1034   5.077   0.938   1.915 -0.4290 -0.5446  2.7509
    3CHTO   C63 1035   5.244   1.218   1.972  0.8275 -0.1969 -0.6797
    3CHTO  H120 1036   5.202   1.317   1.989 -1.3222 -1.2526  0.3013
    3CHTO   N11 1037   5.301   1.232   1.831  0.4703 -0.2493  0.4309
    3CHTO  H108 1038   5.335   1.332   1.811  1.1276 -0.6215 -0.3424
    3CHTO  H109 1039   5.216   1.229   1.766  1.1528  1.1064 -0.5822
    3CHTO   C61 1040   5.347   1.206   2.083  0.0425 -0.9443  0.3271
    3CHTO  H118 1041   5.405   1.299   2.079  0.5173 -1.2216  0.6673
    3CHTO   O40 1042   5.279   1.210   2.217  0.2777 -0.5589  0.2122
    3CHTO   C68 1043   5.132   1.209   2.225 -0.2554 -0.5995 -0.5464
    3CHTO  H125 1044   5.096   1.305   2.183 -0.0383  0.4642  1.6316
    3CHTO   C72 1045   5.096   1.204   2.371  0.4534 -0.2811 -0.5508
    3CHTO   O48 1046   4.986   1.295   2.390 -0.1072 -0.1601  0.0191
    3CHTO  H105 1047   4.957   1.292   2.479 -3.5613 -0.9147 -1.0762
    3CHTO   O38 1048   5.424   1.084   2.064  0.3260 -0.3269  0.5930
    3CHTO   C55 1049   5.517   1.036   2.164  0.4486  0.9959 -0.6964
    3CHTO  H112 1050   5.479   1.070   2.262 -1.7013  0.3204 -1.2641
    3CHTO   C56 1051   5.671   1.085   2.135  0.4213  0.1585  0.1908
    3CHTO  H113 1052   5.703   1.047   2.037  0.1092  1.2319 -0.3325
    3CHTO   O42 1053   5.667   1.230   2.130 -0.3949  0.1901 -0.0698
    3CHTO  H100 1054   5.740   1.258   2.181 -1.4461  0.8160  1.1156
    3CHTO   C57 1055   5.748   1.026   2.252  0.2330  0.3236 -0.4719
    3CHTO  H114 1056   5.708   1.066   2.345 -0.8448  0.4969 -0.9968
    3CHTO   N10 1057   5.889   1.075   2.252  0.0152 -0.8273  0.3483
    3CHTO  H106 1058   5.891   1.163   2.315  0.9634 -0.0317 -0.7585
    3CHTO  H107 1059   5.959   1.005   2.297  0.8240  1.4183  2.7355
    3CHTO   C58 1060   5.735   0.870   2.254 -0.4331 -0.0321 -0.0803
    3CHTO  H115 1061   5.777   0.831   2.159  1.4658  1.7654 -0.0036
    3CHTO   O37 1062   5.601   0.831   2.271  0.2244  0.2617  0.3401
    3CHTO   C59 1063   5.506   0.882   2.173 -0.4896 -0.2373 -0.3250
    3CHTO  H116 1064   5.532   0.844   2.074  1.3103 -0.3299  0.1584
    3CHTO   C70 1065   5.368   0.829   2.218  0.4521 -0.0099  0.2237
    3CHTO   O46 1066   5.365   0.689   2.185  0.1446  0.0264 -0.4437
    3CHTO  H103 1067   5.391   0.636   2.258  2.2494 -0.7166 -1.6650
    3CHTO   O39 1068   5.816   0.801   2.377  0.5602  0.0151 -0.0122
    3CHTO   C60 1069   5.835   0.661   2.358 -0.0950  1.0733 -0.3575
    3CHTO  H117 1070   5.756   0.618   2.295 -1.9273  0.9968  1.9219
    3CHTO   C62 1071   5.970   0.628   2.293 -0.6118  0.0498  0.5376
    3CHTO  H119 1072   5.978   0.684   2.197  0.6448  0.7086  1.0105
    3CHTO   O43 1073   6.079   0.679   2.379 -0.3938 -0.3270  0.2144
    3CHTO  H101 1074   6.069   0.773   2.375  1.3484 -0.0956  1.0188
    3CHTO   C66 1075   5.980   0.471   2.263 -0.9824  0.7877 -0.2873
    3CHTO  H123 1076   5.900   0.437   2.197 -1.5273  1.3287  0.0817
    3CHTO   N12 1077   6.102   0.445   2.183  0.2865  0.6805  0.4913
    3CHTO  H110 1078   6.173   0.380   2.231 -0.6024 -0.6723 -0.0177
    3CHTO  H111 1079   6.145   0.534   2.138 -1.0971  0.0537 -2.1775
    3CHTO   C69 1080   5.951   0.386   2.391  0.0747  0.8174 -0.3007
    3CHTO  H126 1081   6.034   0.406   2.461 -0.5176  0.0875  0.6298
    3CHTO   O41 1082   5.800   0.423   2.473 -0.3132 -0.1466  0.5511
    3CHTO   C64 1083   5.807   0.588   2.498  0.2471 -0.2513  0.0958
    3CHTO  H121 1084   5.892   0.607   2.567  2.0458 -0.9292 -1.8916
    3CHTO   C71 1085   5.678   0.632   2.574  0.1188  0.5455  0.4377
    3CHTO   O47 1086   5.563   0.578   2.510 -0.0524 -0.5863 -0.2120
    3CHTO  H104 1087   5.550   0.489   2.538 -3.2083 -0.1970 -0.3224
    3CHTO   O34 1088   5.939   0.233   2.348  0.0395  0.7521  0.3171
    3CHTO   C49 1089   6.060   0.108   2.333 -0.2699  0.1641 -0.3537
    3CHTO   H91 1090   6.143   0.154   2.279 -0.1240  0.3873  0.0671
    3CHTO   C47 1091   5.998  -0.004   2.244  0.0031 -0.5352  0.0462
    3CHTO   H89 1092   6.005   0.040   2.142  0.5079 -1.6498 -0.3983
    3CHTO   O33 1093   5.861  -0.031   2.272  0.0093  0.0584 -0.6881
    3CHTO   H70 1094   5.806   0.043   2.254  0.3058 -0.1121 -2.4685
    3CHTO   C45 1095   6.079  -0.145   2.263 -0.0806  0.3459  0.4279
    3CHTO   H87 1096   6.030  -0.214   2.334  1.3563 -1.0200  0.1189
    3CHTO    N8 1097   6.085  -0.218   2.133 -0.3331 -0.0664  0.2956
    3CHTO   H75 1098   6.158  -0.295   2.156 -0.3179  0.5198  2.3256
    3CHTO   H76 1099   5.988  -0.265   2.121 -1.1402  0.4833  4.0936
    3CHTO   C43 1100   6.226  -0.122   2.336 -0.5987 -0.1996 -1.4285
    3CHTO   H85 1101   6.272  -0.219   2.354 -1.0812  0.0741  1.4008
    3CHTO   O29 1102   6.201  -0.054   2.458 -0.2001 -0.1120  0.2900
    3CHTO   C50 1103   6.108   0.042   2.471  0.6108 -0.3022  1.7051
    3CHTO   H92 1104   6.011   0.017   2.516 -1.3328  0.5624 -1.8471
    3CHTO   C54 1105   6.159   0.154   2.560  0.1651 -0.1693 -0.1391
    3CHTO   O36 1106   6.278   0.209   2.509  0.2019  0.1600  0.0601
    3CHTO   H72 1107   6.317   0.271   2.568  0.4543 -1.0190  1.1515
    3CHTO   O27 1108   6.315  -0.041   2.258  0.3927 -0.1573  0.7381
    3CHTO   C37 1109   6.431   0.042   2.234 -0.3645 -0.6689 -0.1692
    3CHTO   H79 1110   6.430   0.126   2.304  0.5808 -0.4658 -0.3998
    3CHTO   C38 1111   6.547  -0.047   2.274  0.3739 -0.1471  0.7067
    3CHTO   H80 1112   6.542  -0.140   2.215  1.4218 -0.1741  0.6580
    3CHTO   O31 1113   6.526  -0.079   2.415  0.8211  0.2786 -0.1627
    3CHTO   H68 1114   6.556  -0.012   2.473 -1.4350 -0.4639  1.9520
    3CHTO   C39 1115   6.684   0.028   2.246  0.2101  0.4439 -0.0180
    3CHTO   H81 1116   6.691   0.109   2.317 -0.3226  1.0084 -0.6034
    3CHTO    N7 1117   6.801  -0.069   2.268  0.7612 -0.1188 -0.3233
    3CHTO   H73 1118   6.863  -0.070   2.180  0.0637  0.2921 -0.8271
    3CHTO   H74 1119   6.774  -0.169   2.300  2.7169 -0.4623  0.3108
    3CHTO   C40 1120   6.675   0.077   2.102  0.7914 -0.4347  0.6617
    3CHTO   H82 1121   6.677   0.004   2.021 -0.8300  2.6522 -2.3340
    3CHTO   O26 1122   6.558   0.161   2.085  0.4305  0.1553  0.0750
    3CHTO   C41 1123   6.433   0.089   2.085 -0.1544  0.8222 -0.1587
    3CHTO   H83 1124   6.434   0.002   2.018 -1.7197  0.0830  0.7648
    3CHTO   C52 1125   6.337   0.195   2.044  0.0812  0.0925 -0.6607
    3CHTO   O35 1126   6.339   0.217   1.895  0.5376 -0.0828 -0.6595
    3CHTO   H71 1127   6.297   0.145   1.853  1.7089 -0.1398 -1.7601
    3CHTO   O28 1128   6.779   0.179   2.079  0.1815 -0.5135  0.2764
    3CHTO   C42 1129   6.781   0.281   1.975 -0.8714  0.1704  0.6721
    3CHTO   H84 1130   6.888   0.279   1.953 -0.8264  0.7386  0.8270
    3CHTO   C44 1131   6.749   0.426   2.024  0.4263  0.0946 -0.2638
    3CHTO   H86 1132   6.652   0.420   2.072 -0.3648  0.5794 -1.7499
    3CHTO   O32 1133   6.845   0.453   2.127  0.3952 -0.9217  0.3480
    3CHTO   H69 1134   6.820   0.534   2.166 -0.7409  0.0361 -2.2680
    3CHTO   C48 1135   6.733   0.541   1.918  0.6198  0.1886 -0.3138
    3CHTO   H90 1136   6.835   0.562   1.887  0.9714  0.3639  0.9355
    3CHTO    N9 1137   6.668   0.663   1.975 -0.0348  0.4646 -0.6098
    3CHTO   H77 1138   6.714   0.744   1.920  1.1738  0.8073  0.8565
    3CHTO   H78 1139   6.690   0.681   2.079  2.3012 -1.4205 -0.7220
    3CHTO   C51 1140   6.654   0.484   1.794 -0.2628 -0.1374 -0.2474
    3CHTO   H93 1141   6.549   0.465   1.816 -0.7553  1.7140 -0.8892
    3CHTO   O30 1142   6.719   0.372   1.746  0.1731  0.0210 -0.1536
    3CHTO   C46 1143   6.709   0.246   1.839  0.0312 -1.1434 -0.4274
    3CHTO   H88 1144   6.603   0.231   1.859 -0.9945  3.4879 -1.8378
    3CHTO   C53 1145   6.772   0.130   1.763  0.3051 -0.3532 -1.0369
    3CHTO   O72 1146   6.684   0.082   1.663 -0.2077 -0.3790  0.1363
    3CHTO  H199 1147   6.724   0.004   1.631  0.5083 -0.3596  0.9470
    3CHTO   O22 1148   6.670   0.580   1.685  0.4737  0.5300 -0.2227
    3CHTO   C31 1149   6.567   0.599   1.576 -0.5471 -0.6420 -0.2623
    3CHTO   H59 1150   6.543   0.499   1.533 -2.1927  0.1172 -1.1618
    3CHTO   C29 1151   6.432   0.658   1.620 -0.0054  0.3290  0.0268
    3CHTO   H57 1152   6.450   0.743   1.687  1.7139  0.4581 -0.5866
    3CHTO   O21 1153   6.364   0.563   1.698  0.0366  0.1080  0.0698
    3CHTO   H37 1154   6.280   0.588   1.730 -0.4272 -0.8413 -0.4048
    3CHTO   C27 1155   6.333   0.701   1.506 -0.2009 -0.3292 -0.0796
    3CHTO   H55 1156   6.296   0.609   1.459  1.2608 -0.8687 -0.1991
    3CHTO    N5 1157   6.218   0.781   1.564 -0.0931 -0.4516  0.2057
    3CHTO   H43 1158   6.181   0.859   1.500  1.6768 -0.9317 -1.4934
    3CHTO   H44 1159   6.248   0.820   1.660  3.4672  0.1037 -1.0608
    3CHTO   C25 1160   6.407   0.763   1.388 -0.1691 -0.3681 -0.1217
    3CHTO   H53 1161   6.420   0.870   1.410 -1.2647 -0.3286  0.3714
    3CHTO   O17 1162   6.529   0.694   1.355  0.0300 -0.1348 -0.0647
    3CHTO   C32 1163   6.630   0.684   1.458 -0.2746  0.1967  0.5590
    3CHTO   H60 1164   6.649   0.785   1.494  0.2806  1.3558 -2.8018
    3CHTO   C36 1165   6.751   0.617   1.391 -0.3821 -0.2399 -0.7655
    3CHTO   O25 1166   6.862   0.610   1.488  0.0960  0.3820 -0.5786
    3CHTO   H40 1167   6.838   0.551   1.556  0.5098  1.2984  0.3828
    3CHTO   O15 1168   6.313   0.767   1.276  0.3181  0.0936 -0.5194
    3CHTO   C19 1169   6.257   0.852   1.166  0.2854  0.4911 -0.4395
    3CHTO   H47 1170   6.194   0.784   1.108 -1.0314 -0.8617  2.4682
    3CHTO   C20 1171   6.164   0.965   1.221 -0.5449  0.4311  0.9742
    3CHTO   H48 1172   6.208   1.024   1.302  0.6985  2.1585 -0.9185
    3CHTO   O19 1173   6.056   0.898   1.282 -0.2186  0.0723 -0.3047
    3CHTO   H35 1174   6.005   0.858   1.214  1.0470  0.1508 -1.2986
    3CHTO   C21 1175   6.123   1.062   1.099  0.0258 -0.0650  0.1592
    3CHTO   H49 1176   6.061   1.003   1.031  2.1051 -2.0987 -0.0648
    3CHTO    N4 1177   6.036   1.174   1.145  0.4055  0.3486 -0.2682
    3CHTO   H41 1178   6.085   1.269   1.135  2.7038 -0.7358  0.1875
    3CHTO   H42 1179   6.007   1.160   1.249  1.3804 -1.3237 -0.2044
    3CHTO   C22 1180   6.252   1.103   1.020  0.5911  0.1429 -0.5109
    3CHTO   H50 1181   6.312   1.173   1.077 -0.6777 -0.2018  1.2951
    3CHTO   O14 1182   6.325   0.994   0.974 -0.0358 -0.5461 -0.5882
    3CHTO   C23 1183   6.371   0.901   1.067  0.1741 -0.5827 -0.1842
    3CHTO   H51 1184   6.457   0.941   1.123 -0.8585  2.1914 -0.5220
    3CHTO   C34 1185   6.431   0.774   0.993  0.7003 -0.0139  0.9027
    3CHTO   O23 1186   6.346   0.706   0.907  1.0312  0.7414  0.0263
    3CHTO   H38 1187   6.370   0.726   0.818 -0.4773 -1.5922 -0.9514
    3CHTO   O16 1188   6.211   1.177   0.904 -0.5129  0.0793  0.3636
    3CHTO   C24 1189   6.323   1.299   0.861  0.5472  0.1764 -0.5122
    3CHTO   H52 1190   6.352   1.358   0.947  0.1291 -0.2821 -0.0546
    3CHTO   C26 1191   6.239   1.379   0.767 -0.5124  0.4738  0.3307
    3CHTO   H54 1192   6.191   1.314   0.691 -0.8616 -0.3402  1.2496
    3CHTO   O20 1193   6.122   1.428   0.837  0.0923  0.4371  0.0230
    3CHTO   H36 1194   6.062   1.366   0.875 -0.1262  0.3506 -0.4560
    3CHTO   C30 1195   6.322   1.488   0.699  0.4878 -0.4826  0.4398
    3CHTO   H58 1196   6.378   1.565   0.754  2.5693 -0.1539 -2.0091
    3CHTO    N6 1197   6.234   1.567   0.608  0.4570  0.3160  0.7187
    3CHTO   H45 1198   6.148   1.591   0.669  0.2805  0.0825  0.5640
    3CHTO   H46 1199   6.281   1.660   0.581  0.2639  0.4294  0.7757
    3CHTO   C33 1200   6.440   1.422   0.613 -1.2698 -0.6747 -0.0361
    3CHTO   H61 1201   6.395   1.363   0.533  0.0897  0.5318 -1.7305
    3CHTO   O18 1202   6.513   1.337   0.700 -0.2444  0.0242  0.2250
    3CHTO   C28 1203   6.451   1.245   0.787 -0.2128  0.3856 -0.1192
    3CHTO   H56 1204   6.422   1.158   0.728  2.2200  0.3409 -1.2751
    3CHTO   C35 1205   6.550   1.198   0.884 -0.1708 -0.0329 -0.3553
    3CHTO   O24 1206   6.651   1.112   0.827 -0.3174  0.1964  0.6871
    3CHTO   H39 1207   6.685   1.074   0.906 -1.1304  2.5107  2.2228
    3CHTO    O9 1208   6.529   1.516   0.551  0.7478  0.2634  0.1436
    3CHTO   C13 1209   6.639   1.597   0.660  0.6918  0.1309  0.6211
    3CHTO   H26 1210   6.607   1.573   0.763 -4.1901  0.2271 -0.7840
    3CHTO   C11 1211   6.632   1.751   0.638 -0.0999  0.2717  0.3422
    3CHTO   H24 1212   6.531   1.782   0.669 -1.7048  1.6012 -5.5386
    3CHTO    O8 1213   6.650   1.804   0.506 -0.6498 -0.9305  0.4897
    3CHTO    H3 1214   6.737   1.796   0.473 -0.7102  1.9012 -0.5040
    3CHTO    C9 1215   6.727   1.815   0.742  0.9473  0.0554 -0.0665
    3CHTO   H22 1216   6.691   1.784   0.841  1.4509  0.6748  0.3214
    3CHTO    N2 1217   6.705   1.963   0.756  0.1133 -0.0096  0.1202
    3CHTO   H10 1218   6.656   2.015   0.675  0.6400 -1.4815 -1.1776
    3CHTO   H11 1219   6.799   2.012   0.776  0.8795 -1.2719 -0.3225
    3CHTO    C7 1220   6.876   1.779   0.718 -0.2705  0.0275 -0.6487
    3CHTO   H20 1221   6.919   1.753   0.817  0.5405  0.2643 -0.9278
    3CHTO    O4 1222   6.886   1.665   0.631 -0.6032 -0.3770 -0.6244
    3CHTO   C14 1223   6.794   1.555   0.645  0.1964 -0.2905 -0.4270
    3CHTO   H27 1224   6.842   1.505   0.731  0.8047 -0.4714 -0.8636
    3CHTO   C18 1225   6.819   1.460   0.524 -0.6799  0.7968 -0.6690
    3CHTO   O13 1226   6.757   1.334   0.556 -0.1864  0.1000  0.4569
    3CHTO    H7 1227   6.709   1.293   0.486  2.9689 -0.6420 -1.3996
    3CHTO    O2 1228   6.984   1.905   0.653  0.1356 -0.0234  0.1421
    3CHTO    C1 1229   7.108   1.864   0.604 -0.7206 -0.5933  0.3285
    3CHTO   H14 1230   7.118   1.754   0.609  3.2174 -0.2183  2.6685
    3CHTO    C2 1231   7.222   1.932   0.683 -0.2277  0.5617  0.0153
    3CHTO   H15 1232   7.211   2.041   0.682  1.4598  0.7713  2.3366
    3CHTO    O6 1233   7.210   1.883   0.819  0.1635 -0.1445  0.1283
    3CHTO    H1 1234   7.265   1.928   0.880  2.3221  2.3485 -3.5010
    3CHTO    C3 1235   7.362   1.889   0.624 -0.3963  0.5240 -0.4149
    3CHTO   H16 1236   7.382   1.781   0.630  1.9817  1.0053  1.1440
    3CHTO    N1 1237   7.480   1.941   0.704  0.0976  0.3265  0.1130
    3CHTO    H8 1238   7.454   2.023   0.768 -0.0427  0.0309  0.4350
    3CHTO    H9 1239   7.529   1.856   0.750  0.6833  0.8740  0.5009
    3CHTO    C4 1240   7.369   1.931   0.471 -0.8046  0.0070  0.8251
    3CHTO   H17 1241   7.361   2.039   0.473  0.9352  0.1479  1.0900
    3CHTO    O1 1242   7.257   1.865   0.409 -0.1290  0.1578  0.0801
    3CHTO    C5 1243   7.123   1.893   0.452 -0.0156  0.5342 -0.4287
    3CHTO   H18 1244   7.098   1.994   0.421  2.9859  1.1139 -1.1400
    3CHTO   C16 1245   7.034   1.800   0.372 -0.6522  0.1148  0.7568
    3CHTO   O11 1246   6.900   1.845   0.354 -0.3395 -0.2552 -0.4260
    3CHTO    H5 1247   6.902   1.927   0.309  1.8744 -1.0030 -1.7343
    3CHTO    O3 1248   7.490   1.890   0.400  0.1849  0.0154  0.8582
    3CHTO    C6 1249   7.517   1.979   0.285  0.5158  0.5961 -0.9452
    3CHTO   H19 1250   7.429   2.035   0.251 -0.9371 -1.4068 -0.5574
    3CHTO    C8 1251   7.634   2.078   0.306 -0.6173 -0.2165  0.1844
    3CHTO   H21 1252   7.727   2.028   0.329 -1.5248 -2.0759 -0.1335
    3CHTO    O7 1253   7.595   2.169   0.415 -0.0388 -0.0134  0.0235
    3CHTO    H2 1254   7.578   2.255   0.382  0.7102 -0.0898 -0.5847
    3CHTO   C12 1255   7.663   2.152   0.165  0.3860  0.4759  0.0374
    3CHTO   H25 1256   7.570   2.205   0.138  0.4755  0.7935  0.3638
    3CHTO    N3 1257   7.772   2.259   0.183  0.5781  0.4280 -0.8677
    3CHTO   H12 1258   7.864   2.211   0.213 -0.2040 -0.0242  0.9001
    3CHTO   H13 1259   7.791   2.315   0.093  1.8523  1.9116  0.3074
    3CHTO   C15 1260   7.694   2.047   0.054  0.3038 -0.0190  0.2759
    3CHTO   H28 1261   7.784   1.993   0.085 -1.2243 -0.5748  4.0953
    3CHTO   O10 1262   7.713   2.092  -0.069  0.2089 -0.1455 -0.1421
    3CHTO    H4 1263   7.764   2.170  -0.074 -0.1329  0.0296 -1.0110
    3CHTO    O5 1264   7.583   1.956   0.047  0.8123  0.2526 -0.0148
    3CHTO   C10 1265   7.555   1.884   0.170 -0.0374 -0.6406  0.4203
    3CHTO   H23 1266   7.646   1.829   0.195  1.5605  2.7224  2.3746
    3CHTO   C17 1267   7.448   1.778   0.143  0.3797 -0.0532  0.6260
    3CHTO   O12 1268   7.320   1.838   0.113 -0.2772 -0.2237 -0.0884
    3CHTO    H6 1269   7.257   1.770   0.129  0.0606 -0.2463  1.1500
    4CHTO  H203 1270   5.824   7.073   2.358 -0.4587  1.5878 -1.4590
    4CHTO   O82 1271   5.872   7.129   2.416  0.4452 -0.5214 -0.0613
    4CHTO  C123 1272   5.806   7.254   2.414  0.0269 -0.2081 -0.3577
    4CHTO  H227 1273   5.705   7.236   2.452  0.6756  1.7971  2.5096
    4CHTO   O77 1274   5.893   7.319   2.508  0.2855 -0.0577  0.7795
    4CHTO  C118 1275   5.856   7.454   2.552  0.1970 -0.0284 -0.0670
    4CHTO  H222 1276   5.761   7.460   2.607 -0.9063  2.1021 -2.0857
    4CHTO  C125 1277   5.976   7.503   2.642 -0.6246 -0.1611 -0.0947
    4CHTO   O84 1278   5.947   7.467   2.775  0.1394 -0.5313 -0.2961
    4CHTO  H205 1279   5.891   7.392   2.776  0.0815 -0.5159 -1.5546
    4CHTO  C114 1280   5.838   7.548   2.434 -0.2558 -0.2737 -0.4795
    4CHTO  H218 1281   5.934   7.565   2.387  0.1230 -0.6372  0.1582
    4CHTO  C116 1282   5.759   7.488   2.315 -0.3169 -0.2170 -0.0761
    4CHTO  H220 1283   5.651   7.489   2.341 -0.4322 -1.2287 -0.4726
    4CHTO   O79 1284   5.768   7.568   2.198  0.3567 -0.1365  0.0175
    4CHTO  H201 1285   5.718   7.524   2.132  1.3590 -0.0440 -0.8174
    4CHTO  C120 1286   5.800   7.338   2.282  0.3015  1.0584 -0.0477
    4CHTO  H224 1287   5.903   7.336   2.238 -0.4298 -0.5318 -1.7763
    4CHTO   N21 1288   5.711   7.269   2.181  0.2853  0.5701 -0.4369
    4CHTO  H211 1289   5.622   7.331   2.179 -0.6947 -0.8338 -0.6003
    4CHTO  H212 1290   5.752   7.265   2.081  0.8513 -2.2185 -0.1237
    4CHTO   O75 1291   5.770   7.667   2.483  0.0272  0.0849 -0.1768
    4CHTO  C112 1292   5.843   7.810   2.413  0.6809  0.0922  0.0740
    4CHTO  H216 1293   5.857   7.797   2.305  1.4512 -2.0747  0.3918
    4CHTO   O73 1294   5.970   7.833   2.481 -0.3407 -0.0325  0.4782
    4CHTO  C113 1295   6.041   7.949   2.429  0.3687 -0.5974 -0.2428
    4CHTO  H217 1296   6.078   7.937   2.325  0.4082 -0.6004 -0.2282
    4CHTO  C124 1297   6.166   7.960   2.519  0.9149  0.2580  0.1647
    4CHTO   O83 1298   6.249   7.845   2.503 -0.0933 -0.0688 -0.0461
    4CHTO  H204 1299   6.286   7.819   2.585  0.9435  1.1118 -0.1269
    4CHTO  C109 1300   5.951   8.071   2.438 -0.0956 -0.5040 -0.3172
    4CHTO  H213 1301   5.937   8.094   2.544 -0.8262  0.0740 -0.5310
    4CHTO  C110 1302   5.805   8.048   2.374 -0.4491 -0.6069 -0.6901
    4CHTO  H214 1303   5.823   8.039   2.267  0.6420 -0.6207 -0.5178
    4CHTO   O78 1304   5.720   8.166   2.396 -0.4834 -0.5111 -0.6892
    4CHTO  H200 1305   5.728   8.224   2.322 -1.8818  0.6655  0.0542
    4CHTO  C111 1306   5.736   7.926   2.432 -0.1156  0.0164 -0.5465
    4CHTO  H215 1307   5.717   7.946   2.539 -1.3021 -0.2995 -0.6968
    4CHTO   N19 1308   5.603   7.895   2.371  0.3294 -0.2992 -0.8455
    4CHTO  H207 1309   5.558   7.805   2.411 -1.0824  0.3572 -0.9144
    4CHTO  H208 1310   5.521   7.962   2.391  0.8768 -0.1164  0.8734
    4CHTO   O74 1311   6.026   8.188   2.383 -0.5495 -0.1105  0.2388
    4CHTO  C115 1312   5.946   8.342   2.394  0.0851 -1.0046 -0.2167
    4CHTO  H219 1313   5.850   8.341   2.344  0.7197  0.5353 -1.5105
    4CHTO   O76 1314   5.915   8.376   2.546 -0.3018  0.4381 -0.5884
    4CHTO  C122 1315   5.856   8.507   2.570 -0.4346 -0.4136  0.7473
    4CHTO  H226 1316   5.861   8.518   2.678 -0.0426  1.0784  0.5915
    4CHTO  C126 1317   5.713   8.527   2.521  0.1884  0.0321  0.4540
    4CHTO   O85 1318   5.636   8.410   2.533 -0.5280  0.0918 -0.0629
    4CHTO  H206 1319   5.548   8.426   2.504 -0.9898 -0.4985  0.9667
    4CHTO  C121 1320   5.960   8.615   2.513 -0.7224  0.1847 -0.6495
    4CHTO  H225 1321   5.916   8.715   2.532  1.8694  1.3612 -0.6589
    4CHTO   O81 1322   6.086   8.595   2.573  0.3642 -0.3281 -0.0563
    4CHTO  H202 1323   6.151   8.647   2.529  1.2827 -0.6515  0.9094
    4CHTO  C119 1324   5.981   8.592   2.363 -0.4804 -1.1081  0.4885
    4CHTO  H223 1325   5.880   8.596   2.322 -0.5567  0.5168  0.8201
    4CHTO  C117 1326   6.039   8.447   2.337 -0.0067 -0.5681  0.0464
    4CHTO  H221 1327   6.136   8.427   2.383 -0.6690 -3.0106  0.4505
    4CHTO   N20 1328   6.055   8.420   2.186 -0.1242  0.3186 -0.2224
    4CHTO  H209 1329   5.976   8.352   2.156 -2.9642  1.4696  4.0936
    4CHTO  H210 1330   6.152   8.384   2.156  0.3893  1.8191 -0.4234
    4CHTO   O80 1331   6.052   8.720   2.278 -0.1797 -0.9949 -0.6490
    4CHTO  C103 1332   6.144   8.813   2.345 -0.6126  0.0884  0.1574
    4CHTO  H190 1333   6.126   8.810   2.452  3.4698 -0.2712  0.9427
    4CHTO  C101 1334   6.308   8.786   2.330 -0.1047 -0.3015  0.1981
    4CHTO  H188 1335   6.332   8.806   2.226 -1.9192 -0.2611 -0.2401
    4CHTO   O68 1336   6.350   8.632   2.370  0.9903  0.4245  0.5085
    4CHTO  H168 1337   6.272   8.582   2.355  0.6106  0.8050  1.1570
    4CHTO   C99 1338   6.383   8.899   2.416 -0.3288 -0.4257  0.2103
    4CHTO  H186 1339   6.343   8.896   2.519  0.1429 -1.9734  0.3709
    4CHTO   N17 1340   6.532   8.880   2.416  0.2943  0.5557  0.0330
    4CHTO  H174 1341   6.561   8.905   2.517 -0.1024 -1.0937  0.5826
    4CHTO  H175 1342   6.575   8.937   2.335  1.6819 -1.5723 -0.7911
    4CHTO   C97 1343   6.342   9.038   2.362 -0.0284  0.3662 -0.2134
    4CHTO  H184 1344   6.375   9.051   2.258  1.0783 -2.1646 -0.2277
    4CHTO   O64 1345   6.201   9.054   2.372  0.0308  0.6041  0.7161
    4CHTO  C104 1346   6.113   8.960   2.306 -0.5579  0.3364 -0.8100
    4CHTO  H191 1347   6.114   8.972   2.197  2.3986  0.9776 -0.7312
    4CHTO  C108 1348   5.969   8.999   2.338 -0.7689  0.3952 -0.1038
    4CHTO   O71 1349   5.940   9.132   2.293 -0.0297  0.3196  0.0833
    4CHTO  H171 1350   5.850   9.155   2.304 -0.6996 -1.9760 -0.2762
    4CHTO   O62 1351   6.387   9.153   2.435  0.4052  0.2946 -0.0569
    4CHTO   C91 1352   6.415   9.272   2.355  0.3052  0.2089  0.2097
    4CHTO  H178 1353   6.403   9.251   2.249 -0.7559  1.4853  0.0643
    4CHTO   C92 1354   6.568   9.315   2.366 -0.1473 -0.0533 -0.3615
    4CHTO  H179 1355   6.586   9.347   2.470  0.2137 -0.7974 -0.1942
    4CHTO   O66 1356   6.638   9.197   2.341 -0.9726  0.5905  0.2295
    4CHTO  H166 1357   6.610   9.156   2.262  0.7927 -0.1321 -0.0346
    4CHTO   C93 1358   6.603   9.420   2.255  0.0038 -0.6119 -0.1820
    4CHTO  H180 1359   6.632   9.361   2.166  1.6603  0.1018 -0.1391
    4CHTO   N16 1360   6.731   9.496   2.276  0.0964  0.0769  0.6005
    4CHTO  H172 1361   6.813   9.452   2.222  0.1717  0.0630  0.7242
    4CHTO  H173 1362   6.744   9.526   2.379 -0.7791  1.0506  0.4344
    4CHTO   C94 1363   6.482   9.513   2.213 -0.2738  0.2946  0.1488
    4CHTO  H181 1364   6.514   9.615   2.192  0.9083 -0.4768 -1.9378
    4CHTO   O61 1365   6.393   9.525   2.326 -0.4159 -0.0679  0.2963
    4CHTO   C95 1366   6.328   9.404   2.380 -0.4418  0.3190  0.4640
    4CHTO  H182 1367   6.311   9.416   2.487 -3.0647  2.1501 -0.1162
    4CHTO  C106 1368   6.181   9.402   2.316  0.3692 -0.0856 -0.0335
    4CHTO   O69 1369   6.100   9.518   2.361  0.2770  0.8622 -0.2192
    4CHTO  H169 1370   6.128   9.539   2.448 -1.7563  0.2872  0.5858
    4CHTO   O63 1371   6.403   9.458   2.087  0.4901 -0.6854  0.0284
    4CHTO   C96 1372   6.465   9.466   1.944 -0.6355  0.0237  0.3853
    4CHTO  H183 1373   6.574   9.471   1.949 -0.5003  0.1643 -2.1800
    4CHTO   C98 1374   6.427   9.595   1.858 -0.1732 -0.7513 -0.1455
    4CHTO  H185 1375   6.319   9.610   1.867  0.2824  3.9527 -0.9235
    4CHTO   O67 1376   6.485   9.713   1.922  0.3223 -0.1102 -0.3025
    4CHTO  H167 1377   6.576   9.694   1.935  0.9111  2.2030 -0.8204
    4CHTO  C102 1378   6.467   9.580   1.700  0.2986 -0.7954  1.3685
    4CHTO  H189 1379   6.577   9.576   1.697  0.3856  1.4335 -0.6132
    4CHTO   N18 1380   6.435   9.698   1.614  0.2645  0.3914  0.4710
    4CHTO  H176 1381   6.330   9.722   1.617  0.3553  1.2943 -2.1391
    4CHTO  H177 1382   6.499   9.776   1.653  0.8573 -0.4999  1.3216
    4CHTO  C105 1383   6.417   9.448   1.651  0.5593 -0.3477  0.6626
    4CHTO  H192 1384   6.308   9.451   1.645  0.5936 -0.6990 -0.1177
    4CHTO   O65 1385   6.466   9.335   1.728 -0.1999 -0.9614  0.4786
    4CHTO  C100 1386   6.417   9.338   1.855 -0.1745 -0.3566  0.3796
    4CHTO  H187 1387   6.309   9.354   1.842 -0.5653 -1.3667  2.1194
    4CHTO  C107 1388   6.442   9.203   1.927 -0.0310  0.8186  0.1091
    4CHTO   O70 1389   6.324   9.165   2.012 -0.1978 -0.1576 -0.7212
    4CHTO  H170 1390   6.245   9.166   1.960  0.4076 -0.6996 -1.6708
    4CHTO   O57 1391   6.486   9.426   1.514  0.0078  0.4332  0.1833
    4CHTO   C85 1392   6.417   9.354   1.406  0.2974  0.2778  0.1643
    4CHTO  H157 1393   6.308   9.375   1.413 -0.3388 -2.6845 -0.2694
    4CHTO   C83 1394   6.415   9.198   1.425  0.5057  0.0112  0.0457
    4CHTO  H155 1395   6.372   9.186   1.524  2.6884  2.5751  1.3908
    4CHTO   O56 1396   6.547   9.146   1.431 -0.5683 -0.0768  0.1930
    4CHTO  H135 1397   6.570   9.140   1.522  0.4084  1.4245  0.0700
    4CHTO   C81 1398   6.320   9.135   1.317  0.7235  0.3260 -0.1242
    4CHTO  H153 1399   6.226   9.190   1.317  0.8833  0.6038 -1.0615
    4CHTO   N14 1400   6.281   8.998   1.344 -1.5958 -0.3108  0.4744
    4CHTO  H141 1401   6.364   8.929   1.344  0.5163  2.1502  0.3022
    4CHTO  H142 1402   6.231   8.990   1.438  0.9371 -1.4795  1.7856
    4CHTO   C79 1403   6.384   9.164   1.179  0.4823 -0.3726  0.1339
    4CHTO  H151 1404   6.321   9.122   1.100 -1.0347  0.5401  0.8310
    4CHTO   O52 1405   6.400   9.313   1.156  0.3635 -0.1909 -0.1629
    4CHTO   C86 1406   6.469   9.380   1.263 -0.2117  0.2395  0.0695
    4CHTO  H158 1407   6.575   9.350   1.252 -0.1618 -0.4380  2.1574
    4CHTO   C90 1408   6.475   9.532   1.244  0.0707  0.0079  0.3825
    4CHTO   O60 1409   6.340   9.589   1.254  0.1945 -0.6745 -0.4428
    4CHTO  H138 1410   6.310   9.603   1.166 -0.7202 -1.4663 -0.2686
    4CHTO   O50 1411   6.510   9.098   1.154 -0.6978 -0.0803  0.3022
    4CHTO   C73 1412   6.551   9.053   1.024  0.5523 -0.0524 -0.0372
    4CHTO  H145 1413   6.517   9.117   0.942  2.2342 -1.1569 -1.6575
    4CHTO   C74 1414   6.505   8.903   1.002  0.8648  0.2262  0.3870
    4CHTO  H146 1415   6.395   8.899   1.006  0.7992  1.8043  0.4425
    4CHTO   O54 1416   6.541   8.857   0.869 -0.5191  0.1565 -0.2898
    4CHTO  H133 1417   6.633   8.855   0.855 -0.4700  0.5635 -0.0286
    4CHTO   C75 1418   6.565   8.809   1.120  0.2440 -0.4203 -0.0271
    4CHTO  H147 1419   6.530   8.851   1.215 -1.0082  1.0911 -1.1181
    4CHTO   N13 1420   6.526   8.666   1.113 -0.2714 -0.6802  0.1605
    4CHTO  H139 1421   6.446   8.624   1.172 -1.8688 -0.9876 -2.1794
    4CHTO  H140 1422   6.519   8.643   1.008  0.4485 -3.5122  0.6870
    4CHTO   C76 1423   6.721   8.826   1.111 -0.3864 -0.0386  0.5489
    4CHTO  H148 1424   6.749   8.791   1.012 -0.5670  1.4300 -0.0451
    4CHTO   O49 1425   6.753   8.972   1.127  0.1086 -0.5216  0.1009
    4CHTO   C77 1426   6.704   9.060   1.024  0.1463 -0.1239  0.2592
    4CHTO  H149 1427   6.742   9.014   0.933  1.1597  0.8823  0.1703
    4CHTO   C88 1428   6.769   9.204   1.038 -0.2666 -0.0419 -0.3891
    4CHTO   O58 1429   6.898   9.188   1.043 -0.0533  0.0973  0.0507
    4CHTO  H136 1430   6.934   9.160   0.961  1.1671 -1.0445  0.9531
    4CHTO   O51 1431   6.788   8.761   1.230 -0.0507  0.3368 -0.5990
    4CHTO   C78 1432   6.920   8.673   1.206 -0.2385  0.0898 -0.2376
    4CHTO  H150 1433   6.960   8.645   1.306 -0.3184 -1.2820 -0.5795
    4CHTO   C80 1434   7.024   8.757   1.123 -0.2003  0.1430  0.5469
    4CHTO  H152 1435   6.966   8.796   1.037  0.1129 -1.2174 -0.2803
    4CHTO   O55 1436   7.068   8.860   1.205  0.8630  0.2413  0.2531
    4CHTO  H134 1437   7.151   8.889   1.173 -1.4307  2.5492 -4.0928
    4CHTO   C84 1438   7.138   8.656   1.069  0.0612  0.3281 -0.4844
    4CHTO  H156 1439   7.182   8.606   1.155 -0.4137  0.7217 -0.0042
    4CHTO   N15 1440   7.243   8.727   0.997  0.6571  0.1130  0.3404
    4CHTO  H143 1441   7.297   8.793   1.061 -0.5001  1.2447  0.1671
    4CHTO  H144 1442   7.314   8.658   0.956  1.3314  1.4530 -0.7761
    4CHTO   C87 1443   7.070   8.545   0.984 -0.8340 -0.4020  0.3222
    4CHTO  H159 1444   7.019   8.609   0.913  1.1224  1.5106  0.5744
    4CHTO   O53 1445   6.984   8.471   1.071 -0.5266 -0.3212 -0.6086
    4CHTO   C82 1446   6.882   8.546   1.135  0.0695 -0.9350  0.1541
    4CHTO  H154 1447   6.806   8.561   1.059  2.6314 -0.7092 -2.4573
    4CHTO   C89 1448   6.823   8.460   1.244 -0.1293 -0.4074 -0.2108
    4CHTO   O59 1449   6.757   8.341   1.197  0.1043 -0.4284  0.2463
    4CHTO  H137 1450   6.730   8.300   1.277 -0.3937 -0.2740  0.1565
    4CHTO   O45 1451   7.162   8.432   0.929 -0.0475  0.0373  0.2371
    4CHTO   C67 1452   7.149   8.407   0.792 -0.2787  0.0087  0.0022
    4CHTO  H124 1453   7.124   8.497   0.736 -0.9637 -0.0428  0.2327
    4CHTO   C65 1454   7.279   8.341   0.728  0.4572  0.4657 -0.3584
    4CHTO  H122 1455   7.363   8.407   0.747  0.4302  0.7008 -1.0190
    4CHTO   O44 1456   7.273   8.317   0.587  0.0203  0.2742  0.2767
    4CHTO  H102 1457   7.200   8.261   0.571  0.7532 -1.4568  2.6618
    4CHTO   C63 1458   7.306   8.210   0.815  0.3954  0.2114 -0.4856
    4CHTO  H120 1459   7.315   8.240   0.920  2.7004  1.2989 -0.9721
    4CHTO   N11 1460   7.441   8.141   0.793 -0.5269  0.0495  0.2953
    4CHTO  H108 1461   7.512   8.205   0.840  0.3456  0.2065 -1.2273
    4CHTO  H109 1462   7.440   8.053   0.854  0.5962 -0.5630 -0.5495
    4CHTO   C61 1463   7.185   8.111   0.810  0.1665  0.2244  0.3595
    4CHTO  H118 1464   7.200   8.053   0.902 -0.6248  0.1766  0.4610
    4CHTO   O40 1465   7.051   8.179   0.815 -0.0331 -0.2541 -0.5239
    4CHTO   C68 1466   7.021   8.315   0.774  0.8360 -0.0354 -0.5180
    4CHTO  H125 1467   6.940   8.353   0.839 -1.0956 -2.4959 -1.3788
    4CHTO   C72 1468   6.958   8.298   0.633 -0.0721 -0.3873 -0.0054
    4CHTO   O48 1469   6.937   8.430   0.567  0.0022  0.0045 -0.1329
    4CHTO  H105 1470   6.906   8.419   0.479 -1.8968  2.0188  0.2294
    4CHTO   O38 1471   7.197   8.020   0.700  0.3517  0.3932 -0.1944
    4CHTO   C55 1472   7.142   7.888   0.721 -0.7325 -0.4436 -0.0179
    4CHTO  H112 1473   7.044   7.908   0.768 -0.3242  1.3383  0.1143
    4CHTO   C56 1474   7.231   7.778   0.802 -0.3930  0.0814 -0.2403
    4CHTO  H113 1475   7.325   7.755   0.750 -0.6076  0.6862 -0.9010
    4CHTO   O42 1476   7.272   7.842   0.922 -0.5960  0.1349  0.0554
    4CHTO  H100 1477   7.316   7.780   0.977 -0.3211 -0.0581 -0.3776
    4CHTO   C57 1478   7.151   7.647   0.826  0.0208 -0.2170 -0.3088
    4CHTO  H114 1479   7.059   7.684   0.873  1.6599  1.2354  1.8545
    4CHTO   N10 1480   7.218   7.535   0.900  0.5778  0.3916  0.2971
    4CHTO  H106 1481   7.275   7.463   0.844 -0.0849 -0.4601  0.7008
    4CHTO  H107 1482   7.280   7.584   0.973  1.9150  0.6465 -1.0018
    4CHTO   C58 1483   7.105   7.602   0.686  0.8779 -0.4406 -0.3885
    4CHTO  H115 1484   7.188   7.553   0.632  0.3017 -0.5805 -1.1546
    4CHTO   O37 1485   7.043   7.700   0.601 -0.2160  0.3684  0.1015
    4CHTO   C59 1486   7.106   7.828   0.583  0.0684 -0.9589 -0.0006
    4CHTO  H116 1487   7.197   7.817   0.525  1.4522  0.2370  1.8834
    4CHTO   C70 1488   7.004   7.910   0.508 -0.7894 -0.4073  0.2144
    4CHTO   O46 1489   7.056   8.031   0.460 -0.5722 -0.1116  0.3244
    4CHTO  H103 1490   7.136   8.049   0.505  0.4279 -0.9606 -1.0722
    4CHTO   O39 1491   6.982   7.518   0.715  0.5919  0.2945  0.5858
    4CHTO   C60 1492   6.958   7.410   0.625  0.0723  0.1161 -0.0379
    4CHTO  H117 1493   6.981   7.451   0.527  0.6901 -0.2497 -0.0501
    4CHTO   C62 1494   7.044   7.282   0.662 -0.4040  0.2108  0.5925
    4CHTO  H119 1495   7.146   7.325   0.659 -0.5373  0.4694 -1.8847
    4CHTO   O43 1496   7.011   7.237   0.795  0.6738 -0.1891  0.2177
    4CHTO  H101 1497   6.988   7.313   0.845  0.4681  0.2442 -0.5301
    4CHTO   C66 1498   7.020   7.165   0.558 -0.4435 -0.8893  0.2842
    4CHTO  H123 1499   7.031   7.214   0.461 -2.1123 -0.6227  0.2212
    4CHTO   N12 1500   7.109   7.049   0.573 -0.3593 -0.2184 -0.0948
    4CHTO  H110 1501   7.058   6.959   0.543 -0.7026  1.2061 -3.9834
    4CHTO  H111 1502   7.205   7.059   0.524 -0.6081 -0.8657 -0.7344
    4CHTO   C69 1503   6.866   7.138   0.560 -0.0019  0.0950  0.1310
    4CHTO  H126 1504   6.826   7.100   0.657 -1.2707  0.0528 -0.3966
    4CHTO   O41 1505   6.788   7.266   0.533 -0.1049 -0.4449  0.1196
    4CHTO   C64 1506   6.807   7.375   0.616 -0.1321 -0.1397  0.1304
    4CHTO  H121 1507   6.753   7.368   0.713  0.9777 -1.6301  0.6521
    4CHTO   C71 1508   6.743   7.504   0.570  0.8416 -0.5855 -0.1807
    4CHTO   O47 1509   6.773   7.565   0.446  0.2259 -0.3372  0.0139
    4CHTO  H104 1510   6.734   7.650   0.435  1.4155  0.1386 -0.6693
    4CHTO   O34 1511   6.829   7.028   0.448  0.6092  0.0447  0.0682
    4CHTO   C49 1512   6.723   6.956   0.402  0.1760  0.1874 -0.0394
    4CHTO   H91 1513   6.653   7.017   0.345  0.4052  0.9849  0.5430
    4CHTO   C47 1514   6.634   6.907   0.518 -0.0106  0.5817  0.0442
    4CHTO   H89 1515   6.548   6.851   0.476 -1.1550  1.8970  0.5417
    4CHTO   O33 1516   6.582   7.024   0.583 -0.1141 -0.2597  0.3204
    4CHTO   H70 1517   6.565   7.014   0.675 -2.1017 -1.7530 -0.1830
    4CHTO   C45 1518   6.720   6.811   0.611  0.3431 -0.3441 -0.1523
    4CHTO   H87 1519   6.780   6.867   0.684  0.2157 -0.0361 -0.2818
    4CHTO    N8 1520   6.626   6.729   0.689  0.3764  0.3730 -0.5994
    4CHTO   H75 1521   6.572   6.774   0.771 -1.3754 -2.5151 -0.0742
    4CHTO   H76 1522   6.559   6.670   0.628 -0.8754 -1.1272  2.1441
    4CHTO   C43 1523   6.827   6.718   0.523 -0.1852  0.4408 -0.4765
    4CHTO   H85 1524   6.920   6.776   0.525  0.7256 -0.9223 -2.0437
    4CHTO   O29 1525   6.778   6.708   0.392 -0.6020 -0.5940  0.0993
    4CHTO   C50 1526   6.760   6.832   0.317  0.3243  0.2043  0.5851
    4CHTO   H92 1527   6.857   6.847   0.269 -0.7262 -0.1663 -1.7439
    4CHTO   C54 1528   6.643   6.814   0.201  0.1229 -0.0182  0.7871
    4CHTO   O36 1529   6.626   6.925   0.117  0.0952  0.2059  0.0186
    4CHTO   H72 1530   6.652   7.005   0.159 -0.7999  1.2664 -1.3907
    4CHTO   O27 1531   6.869   6.594   0.584  0.6572 -0.0470 -0.0043
    4CHTO   C37 1532   6.958   6.483   0.582 -0.6431 -0.1346  0.6825
    4CHTO   H79 1533   6.981   6.460   0.477 -0.9383  1.4706  0.2639
    4CHTO   C38 1534   7.096   6.506   0.656 -0.4542  0.4722 -0.4879
    4CHTO   H80 1535   7.080   6.542   0.759  0.3470 -3.3152  1.0696
    4CHTO   O31 1536   7.159   6.611   0.573 -0.3089 -0.5518  0.2099
    4CHTO   H68 1537   7.249   6.588   0.562 -0.3146 -1.2446  1.5776
    4CHTO   C39 1538   7.184   6.370   0.672  1.3194 -1.1217  0.3713
    4CHTO   H81 1539   7.207   6.335   0.571 -0.4169  1.1490 -0.8789
    4CHTO    N7 1540   7.318   6.389   0.744  0.0190 -0.5133  0.1973
    4CHTO   H73 1541   7.289   6.446   0.831  2.5962 -0.0852  0.8179
    4CHTO   H74 1542   7.371   6.299   0.772  2.0670 -0.2181 -2.5895
    4CHTO   C40 1543   7.093   6.254   0.736  0.3289 -0.4893  0.3068
    4CHTO   H82 1544   7.077   6.280   0.841 -0.3495 -2.1779  0.6343
    4CHTO   O26 1545   6.969   6.249   0.659  0.2709 -0.3952  0.1339
    4CHTO   C41 1546   6.879   6.367   0.645 -0.1816  0.2680 -0.3210
    4CHTO   H83 1547   6.836   6.401   0.741  1.7763  2.9477 -0.3436
    4CHTO   C52 1548   6.760   6.315   0.564 -0.3272 -0.4263  0.2717
    4CHTO   O35 1549   6.822   6.275   0.416  0.3817 -0.0074 -1.2106
    4CHTO   H71 1550   6.907   6.239   0.432 -0.2585 -0.4185  1.6316
    4CHTO   O28 1551   7.130   6.120   0.722 -0.7300  0.6272 -0.1976
    4CHTO   C42 1552   7.213   6.039   0.811 -0.1456  0.2925  0.3401
    4CHTO   H84 1553   7.280   6.113   0.855  1.2270  0.3373 -1.7734
    4CHTO   C44 1554   7.310   5.938   0.740  0.4389 -0.7881 -0.0114
    4CHTO   H86 1555   7.251   5.866   0.684 -0.3930  0.7202 -1.1199
    4CHTO   O32 1556   7.390   6.009   0.640 -0.1639  0.2988 -0.4779
    4CHTO   H69 1557   7.352   6.006   0.555  0.8575 -1.8948 -0.8921
    4CHTO   C48 1558   7.398   5.856   0.839  0.2817  0.2559 -0.3625
    4CHTO   H90 1559   7.471   5.925   0.881  1.9053 -1.2263 -0.6622
    4CHTO    N9 1560   7.481   5.742   0.777  0.3400 -0.4380 -0.1180
    4CHTO   H77 1561   7.528   5.793   0.694 -0.4796  1.1655  0.3644
    4CHTO   H78 1562   7.407   5.674   0.737  0.1339 -0.4503  0.2900
    4CHTO   C51 1563   7.306   5.798   0.948 -0.2984 -0.2174 -0.1974
    4CHTO   H93 1564   7.235   5.729   0.902  1.6109 -2.0334 -0.4903
    4CHTO   O30 1565   7.237   5.909   1.022 -0.4519 -0.0414 -0.2686
    4CHTO   C46 1566   7.135   5.975   0.928 -0.3018 -1.3559 -0.3177
    4CHTO   H88 1567   7.059   5.907   0.888 -1.8956 -1.8085  3.2436
    4CHTO   C53 1568   7.053   6.085   1.009 -0.7734  0.3200  0.5001
    4CHTO   O72 1569   7.001   6.046   1.135 -0.4002  0.4857  0.7242
    4CHTO  H199 1570   6.928   5.987   1.127 -1.5793  2.0139  0.0136
    4CHTO   O22 1571   7.390   5.725   1.040  0.0232  0.0148 -0.1483
    4CHTO   C31 1572   7.366   5.711   1.188  0.2701 -0.4563 -0.1932
    4CHTO   H59 1573   7.274   5.768   1.212 -0.0896 -0.2844 -1.9139
    4CHTO   C29 1574   7.344   5.560   1.220 -0.2693  0.1055  0.0609
    4CHTO   H57 1575   7.436   5.504   1.197 -0.4516 -0.7295  1.3066
    4CHTO   O21 1576   7.239   5.509   1.137 -0.0136  0.1912 -0.5056
    4CHTO   H37 1577   7.252   5.417   1.124  1.0079  0.4899 -1.6748
    4CHTO   C27 1578   7.309   5.546   1.373 -0.2445  0.5579 -0.4137
    4CHTO   H55 1579   7.209   5.592   1.382 -0.3524  0.3043 -0.3043
    4CHTO    N5 1580   7.302   5.404   1.414 -0.6401  0.1453  0.5043
    4CHTO   H43 1581   7.279   5.379   1.517  0.9503 -3.1510  0.1137
    4CHTO   H44 1582   7.388   5.352   1.375 -2.6493 -1.5703 -1.7995
    4CHTO   C25 1583   7.409   5.622   1.463 -0.6808 -0.4766 -0.1374
    4CHTO   H53 1584   7.509   5.577   1.461 -0.4515  0.0291  0.0127
    4CHTO   O17 1585   7.431   5.756   1.412 -1.0458  0.1394  0.2860
    4CHTO   C32 1586   7.476   5.763   1.281  0.2626  0.2984  0.1544
    4CHTO   H60 1587   7.567   5.706   1.264 -0.4084 -1.5817  2.5318
    4CHTO   C36 1588   7.509   5.902   1.240 -0.1257  0.0130 -0.0067
    4CHTO   O25 1589   7.616   5.960   1.318  0.1182  0.5715  0.4385
    4CHTO   H40 1590   7.612   6.053   1.319  0.8537  0.6038  0.5025
    4CHTO   O15 1591   7.345   5.633   1.621  0.3525  0.1347 -0.3516
    4CHTO   C19 1592   7.356   5.733   1.729  0.0818 -0.3328  0.3952
    4CHTO   H47 1593   7.276   5.696   1.794 -0.9256  0.5842 -0.3052
    4CHTO   C20 1594   7.483   5.732   1.813  0.3468 -0.1982  0.2417
    4CHTO   H48 1595   7.571   5.769   1.758 -0.4656 -0.5865 -1.3455
    4CHTO   O19 1596   7.521   5.598   1.854  0.3645  0.5316  0.2137
    4CHTO   H35 1597   7.457   5.568   1.916  1.7613 -0.7136  1.0862
    4CHTO   C21 1598   7.462   5.831   1.933 -0.6109 -0.8993 -0.6453
    4CHTO   H49 1599   7.388   5.785   1.998 -0.3141  0.0927  0.4109
    4CHTO    N4 1600   7.582   5.853   2.015  0.5656 -0.5757  0.2586
    4CHTO   H41 1601   7.626   5.948   1.991  1.3437 -0.2332  2.8702
    4CHTO   H42 1602   7.654   5.778   1.985  1.0179  0.0424 -0.2148
    4CHTO   C22 1603   7.401   5.968   1.885  0.2429  0.2450  0.3809
    4CHTO   H50 1604   7.477   6.015   1.823  0.7576 -2.2620 -0.9745
    4CHTO   O14 1605   7.287   5.947   1.799 -0.2695 -0.6345  0.7999
    4CHTO   C23 1606   7.324   5.877   1.681  0.2475  0.2000  0.2470
    4CHTO   H51 1607   7.408   5.927   1.632 -1.5898  0.9552 -2.2805
    4CHTO   C34 1608   7.196   5.871   1.600  1.0068  0.5579 -0.0062
    4CHTO   O23 1609   7.161   6.010   1.553 -0.1745  0.0724  0.8330
    4CHTO   H38 1610   7.190   6.013   1.464  1.5695 -0.0450  1.3763
    4CHTO   O16 1611   7.372   6.057   1.995  0.4681  0.0544 -0.2229
    4CHTO   C24 1612   7.371   6.221   1.943 -0.2425  0.0495 -0.9515
    4CHTO   H52 1613   7.410   6.232   1.842 -1.2113 -1.1240 -1.4611
    4CHTO   C26 1614   7.476   6.289   2.039 -0.6280 -0.1728  0.9330
    4CHTO   H54 1615   7.467   6.245   2.141 -0.2902  1.5251  1.7045
    4CHTO   O20 1616   7.603   6.235   1.994  0.1908 -0.0736 -0.1781
    4CHTO   H36 1617   7.679   6.285   2.018 -0.0126  0.1384  0.0243
    4CHTO   C30 1618   7.471   6.443   2.037 -0.1670 -0.0696 -0.5718
    4CHTO   H58 1619   7.523   6.481   1.949 -0.5194  0.1273 -0.6981
    4CHTO    N6 1620   7.555   6.490   2.151 -0.4094 -0.1939 -0.5046
    4CHTO   H45 1621   7.598   6.587   2.131 -0.6769  0.2085  0.7946
    4CHTO   H46 1622   7.638   6.422   2.167 -0.9416 -0.4304  1.4561
    4CHTO   C33 1623   7.329   6.505   2.025  0.0127  0.1065 -0.0410
    4CHTO   H61 1624   7.283   6.507   2.125  0.4700  2.5932  0.1765
    4CHTO   O18 1625   7.246   6.432   1.936  0.0409 -0.4115 -0.0331
    4CHTO   C28 1626   7.240   6.286   1.955  0.0003  0.0285  0.2116
    4CHTO   H56 1627   7.205   6.266   2.056  0.2116 -0.1809  0.2418
    4CHTO   C35 1628   7.145   6.233   1.847  0.8225 -0.0314  0.8661
    4CHTO   O24 1629   7.012   6.240   1.897  0.5640  0.3111  0.3074
    4CHTO   H39 1630   7.009   6.182   1.970  0.5526  1.2585  1.0623
    4CHTO    O9 1631   7.339   6.645   1.985 -0.6497 -0.3825 -0.1859
    4CHTO   C13 1632   7.206   6.731   2.025 -0.7121 -1.0897 -0.2306
    4CHTO   H26 1633   7.119   6.664   2.041 -2.2660  0.9895  0.1559
    4CHTO   C11 1634   7.177   6.842   1.917  0.6988  0.5796  0.1534
    4CHTO   H24 1635   7.155   6.791   1.822  1.0927 -2.1036  1.4465
    4CHTO    O8 1636   7.305   6.905   1.900  0.7373  0.2858 -0.5847
    4CHTO    H3 1637   7.360   6.868   1.833  0.0921 -0.0703 -0.9181
    4CHTO    C9 1638   7.054   6.924   1.964 -0.2411  0.0188 -0.1540
    4CHTO   H22 1639   6.975   6.848   1.976 -0.2239  0.1865  1.1164
    4CHTO    N2 1640   7.002   7.017   1.861  0.4954  0.5298  0.0660
    4CHTO   H10 1641   6.981   6.962   1.771  0.8837  0.6225 -0.0821
    4CHTO   H11 1642   6.910   7.065   1.893  1.1350  0.9311  1.3384
    4CHTO    C7 1643   7.092   6.995   2.105 -0.2144 -0.4114 -0.1342
    4CHTO   H20 1644   6.999   7.035   2.151  0.2815 -0.2604  0.7579
    4CHTO    O4 1645   7.153   6.902   2.205 -0.3206  0.2309  0.2483
    4CHTO   C14 1646   7.242   6.796   2.171 -0.8477 -0.0888 -0.1467
    4CHTO   H27 1647   7.228   6.711   2.241  2.3808 -0.7228 -0.2069
    4CHTO   C18 1648   7.385   6.855   2.198 -0.0386  0.4122  0.2484
    4CHTO   O13 1649   7.415   6.848   2.335  0.1371  0.4487  1.2067
    4CHTO    H7 1650   7.426   6.760   2.367 -1.2118  0.5058  1.8711
    4CHTO    O2 1651   7.214   7.135   2.075  0.7004 -0.0250 -0.4905
    4CHTO    C1 1652   7.157   7.269   2.089  0.5652  0.4218 -0.5763
    4CHTO   H14 1653   7.047   7.261   2.102  0.6629 -0.5693 -0.3407
    4CHTO    C2 1654   7.193   7.368   1.967  0.2550 -0.4517  0.0854
    4CHTO   H15 1655   7.302   7.358   1.954  0.4384 -1.6493  2.2313
    4CHTO    O6 1656   7.141   7.315   1.849 -0.0905 -0.5692  0.7611
    4CHTO    H1 1657   7.107   7.227   1.855  2.0061 -1.3280  1.8547
    4CHTO    C3 1658   7.165   7.526   1.985  0.3853  0.3481 -0.6464
    4CHTO   H16 1659   7.057   7.537   1.966 -0.2135 -3.8990 -0.0761
    4CHTO    N1 1660   7.235   7.606   1.880 -0.0374  0.2991 -0.6722
    4CHTO    H8 1661   7.233   7.710   1.909 -1.0893 -0.0397  0.5413
    4CHTO    H9 1662   7.180   7.599   1.787 -0.2697 -0.0860 -0.5090
    4CHTO    C4 1663   7.193   7.565   2.127  0.6843  0.2071 -0.4195
    4CHTO   H17 1664   7.300   7.572   2.147  0.4941  0.1935  0.6633
    4CHTO    O1 1665   7.137   7.467   2.222  0.2744 -0.0154  0.5455
    4CHTO    C5 1666   7.200   7.339   2.218 -0.2134 -0.4695  0.2059
    4CHTO   H18 1667   7.308   7.344   2.234 -0.2282  0.0368  0.1668
    4CHTO   C16 1668   7.148   7.275   2.345  0.1861  0.7494 -0.7393
    4CHTO   O11 1669   7.205   7.328   2.463  0.0630 -0.0533 -0.0304
    4CHTO    H5 1670   7.211   7.421   2.475  3.8035  0.4429 -4.4919
    4CHTO    O3 1671   7.137   7.691   2.168 -0.6003 -0.2711  0.3006
    4CHTO    C6 1672   7.216   7.788   2.255  0.2054  0.2391  0.4368
    4CHTO   H19 1673   7.317   7.750   2.269  0.1208 -0.1468  0.0199
    4CHTO    C8 1674   7.228   7.916   2.180 -0.6529 -0.6528 -0.3295
    4CHTO   H21 1675   7.127   7.953   2.163 -0.2611  1.0144  0.8539
    4CHTO    O7 1676   7.308   7.893   2.062 -0.2154 -0.7639 -0.2325
    4CHTO    H2 1677   7.354   7.969   2.030  0.5838 -1.5583 -1.0082
    4CHTO   C12 1678   7.293   8.027   2.272 -0.2924 -0.7410 -0.2906
    4CHTO   H25 1679   7.395   7.995   2.305 -0.7615 -0.9146  1.0449
    4CHTO    N3 1680   7.309   8.157   2.195 -0.1225  0.1592 -0.6860
    4CHTO   H12 1681   7.377   8.222   2.249 -0.9212  1.3147 -1.0555
    4CHTO   H13 1682   7.359   8.132   2.102 -0.5447 -1.6144 -0.4633
    4CHTO   C15 1683   7.208   8.043   2.405 -0.0308 -0.6575  0.5112
    4CHTO   H28 1684   7.125   8.114   2.396  0.6970  0.3987  1.9206
    4CHTO   O10 1685   7.303   8.109   2.515  0.4872  0.1447 -0.5172
    4CHTO    H4 1686   7.273   8.198   2.525  1.8729  0.6829 -0.9665
    4CHTO    O5 1687   7.192   7.911   2.475 -0.2927 -0.0191 -0.2105
    4CHTO   C10 1688   7.149   7.805   2.394  0.8639 -0.1536  0.1189
    4CHTO   H23 1689   7.046   7.825   2.364  1.0586 -1.5884 -1.5650
    4CHTO   C17 1690   7.152   7.685   2.490 -0.2422  0.1722 -0.1652
    4CHTO   O12 1691   7.279   7.635   2.523 -0.3632  0.3641 -0.2462
    4CHTO    H6 1692   7.259   7.545   2.537  1.6651 -0.1932 -0.7463
    5CHTO  H203 1693   7.907   3.625   1.310 -0.0141 -0.0062  0.3131
    5CHTO   O82 1694   7.819   3.596   1.322 -0.2280  0.3901 -0.2830
    5CHTO  C123 1695   7.819   3.488   1.416 -1.0183 -0.4122 -0.4488
    5CHTO  H227 1696   7.909   3.428   1.398 -0.6725  0.1115 -0.4758
    5CHTO   O77 1697   7.825   3.557   1.551  0.8698 -0.0780 -0.6989
    5CHTO  C118 1698   7.842   3.462   1.650 -0.2289  0.3657 -0.4734
    5CHTO  H222 1699   7.921   3.396   1.611  0.3540  0.8998 -0.1971
    5CHTO  C125 1700   7.888   3.528   1.782  0.3219  0.2643 -0.2421
    5CHTO   O84 1701   7.795   3.633   1.812  0.6372 -0.4114  0.4710
    5CHTO  H205 1702   7.706   3.606   1.805  0.6443 -0.4409  0.4871
    5CHTO  C114 1703   7.707   3.389   1.669  0.0793  0.2758  0.7044
    5CHTO  H218 1704   7.625   3.461   1.679 -0.0357  0.3022 -0.3112
    5CHTO  C116 1705   7.669   3.311   1.545 -0.0241 -0.0412 -0.3612
    5CHTO  H220 1706   7.737   3.223   1.546 -1.1775 -0.9542  1.7089
    5CHTO   O79 1707   7.535   3.256   1.576  0.2672  0.2360  0.2513
    5CHTO  H201 1708   7.470   3.287   1.516 -1.5303 -1.3890  1.2862
    5CHTO  C120 1709   7.675   3.412   1.418  0.2912  0.5486 -0.8315
    5CHTO  H224 1710   7.592   3.483   1.436  1.0549  1.0027  0.9945
    5CHTO   N21 1711   7.656   3.336   1.294 -0.4436  0.2173 -0.0435
    5CHTO  H211 1712   7.691   3.396   1.211 -0.1307 -1.8760 -1.4449
    5CHTO  H212 1713   7.551   3.312   1.284 -0.2611 -0.3833 -0.5602
    5CHTO   O75 1714   7.714   3.317   1.793 -0.2112  0.4728  0.6120
    5CHTO  C112 1715   7.586   3.329   1.898  0.0312  0.3693 -1.1060
    5CHTO  H216 1716   7.499   3.328   1.832 -1.4440 -0.7816  0.8115
    5CHTO   O73 1717   7.601   3.455   1.961  0.1595 -0.0309 -0.2721
    5CHTO  C113 1718   7.488   3.507   2.034  0.1857  0.0390 -0.2186
    5CHTO  H217 1719   7.393   3.491   1.978  0.0307 -0.5238  0.2032
    5CHTO  C124 1720   7.501   3.659   2.062 -0.5474  0.0413 -0.0938
    5CHTO   O83 1721   7.470   3.734   1.945  0.0483  0.0630 -0.7679
    5CHTO  H204 1722   7.417   3.806   1.973  1.3255  0.2867  1.1462
    5CHTO  C109 1723   7.479   3.420   2.165  0.3716 -0.2137 -0.0614
    5CHTO  H213 1724   7.561   3.448   2.232  0.7406  1.3510 -1.1381
    5CHTO  C110 1725   7.480   3.268   2.122 -0.1138 -0.1205  0.2348
    5CHTO  H214 1726   7.380   3.241   2.089  1.4022 -2.9813 -2.2592
    5CHTO   O78 1727   7.498   3.185   2.240  0.0315 -0.1608 -0.4432
    5CHTO  H200 1728   7.420   3.168   2.290 -0.5046  2.1191 -0.4667
    5CHTO  C111 1729   7.579   3.223   2.011 -0.1983  0.2897 -0.3423
    5CHTO  H215 1730   7.680   3.216   2.052 -0.0877 -0.6310 -0.7473
    5CHTO   N19 1731   7.551   3.091   1.949  0.4220 -0.0878 -0.0023
    5CHTO  H207 1732   7.591   3.082   1.849  1.2768  1.0219  0.2309
    5CHTO  H208 1733   7.588   3.013   2.013  0.4152 -2.0296 -2.3114
    5CHTO   O74 1734   7.354   3.455   2.225 -0.3212 -0.3174  0.2200
    5CHTO  C115 1735   7.335   3.427   2.367 -0.0062  0.8744 -0.1249
    5CHTO  H219 1736   7.413   3.362   2.406 -2.6624 -0.9317  2.4788
    5CHTO   O76 1737   7.339   3.553   2.453  0.0449  0.4973  0.1437
    5CHTO  C122 1738   7.247   3.656   2.402 -0.0662  0.7025 -0.1950
    5CHTO  H226 1739   7.303   3.708   2.324  1.7215 -1.0657 -0.1205
    5CHTO  C126 1740   7.219   3.767   2.505  0.1276  0.2218  0.3171
    5CHTO   O85 1741   7.154   3.717   2.624  0.7863  0.1519  0.0310
    5CHTO  H206 1742   7.190   3.759   2.699 -1.0824 -2.0627  2.2881
    5CHTO  C121 1743   7.108   3.603   2.350 -0.2681 -0.0859 -0.4103
    5CHTO  H225 1744   7.031   3.673   2.389  0.5057 -0.5212  2.0004
    5CHTO   O81 1745   7.098   3.615   2.205  0.5943  0.0680  0.4328
    5CHTO  H202 1746   7.112   3.699   2.167 -0.2011 -0.6680 -1.5116
    5CHTO  C119 1747   7.082   3.459   2.414 -0.5798  0.1869  0.4272
    5CHTO  H223 1748   7.086   3.482   2.521 -1.0810  1.4715  0.1776
    5CHTO  C117 1749   7.201   3.355   2.380  0.7443 -0.6746 -0.0034
    5CHTO  H221 1750   7.184   3.315   2.279  0.0525  2.4562 -1.1757
    5CHTO   N20 1751   7.194   3.236   2.472  0.6740 -0.0680 -0.6865
    5CHTO  H209 1752   7.258   3.260   2.555 -0.0729  1.3293 -0.4931
    5CHTO  H210 1753   7.237   3.158   2.411  2.2477  1.1192 -1.1479
    5CHTO   O80 1754   6.948   3.415   2.402 -0.3796 -0.0611 -0.2672
    5CHTO  C103 1755   6.860   3.441   2.268  0.4579  0.0037 -0.1221
    5CHTO  H190 1756   6.858   3.544   2.232  0.9019  0.2576  0.5752
    5CHTO  C101 1757   6.890   3.338   2.154  0.3255 -0.4026  0.1492
    5CHTO  H188 1758   6.921   3.245   2.200  0.5413 -0.2680  0.2783
    5CHTO   O68 1759   6.999   3.377   2.072  0.3743  0.1439 -0.0691
    5CHTO  H168 1760   7.069   3.411   2.124 -2.1895  3.5840  1.2850
    5CHTO   C99 1761   6.756   3.311   2.062 -1.0280 -0.5209 -0.9639
    5CHTO  H186 1762   6.741   3.409   2.013 -1.0011  0.3962  0.8086
    5CHTO   N17 1763   6.773   3.203   1.961  0.6932  0.3553 -0.6197
    5CHTO  H174 1764   6.831   3.120   1.999  0.9253  0.0925 -1.5491
    5CHTO  H175 1765   6.678   3.160   1.934  1.6018 -0.5379 -2.4449
    5CHTO   C97 1766   6.634   3.277   2.152  0.1748 -0.0927  0.0404
    5CHTO  H184 1767   6.641   3.179   2.202  1.0210 -0.8395 -1.4976
    5CHTO   O64 1768   6.625   3.386   2.241 -0.0805  0.1552  0.4569
    5CHTO  C104 1769   6.726   3.417   2.345  0.1396 -0.4313 -0.7463
    5CHTO  H191 1770   6.736   3.330   2.410  2.0758 -1.0114 -1.7672
    5CHTO  C108 1771   6.673   3.539   2.426 -0.3619  0.4458 -0.7427
    5CHTO   O71 1772   6.699   3.513   2.565  0.0494 -0.0495  0.2038
    5CHTO  H171 1773   6.648   3.443   2.602 -1.4957  1.5584  1.1967
    5CHTO   O62 1774   6.514   3.291   2.077 -0.3678 -0.1257  0.1185
    5CHTO   C91 1775   6.397   3.248   2.150 -0.5165 -0.3593  0.0865
    5CHTO  H178 1776   6.419   3.233   2.255  0.0107  1.0352  0.1805
    5CHTO   C92 1777   6.360   3.103   2.094 -0.5604  0.5514 -0.0094
    5CHTO  H179 1778   6.340   3.120   1.987 -1.4797  3.8703  0.6384
    5CHTO   O66 1779   6.477   3.016   2.110 -0.3549  0.4431 -0.1891
    5CHTO  H166 1780   6.448   2.928   2.102 -0.4842  0.5338 -0.6984
    5CHTO   C93 1781   6.229   3.056   2.160 -0.1937  0.4485 -0.2096
    5CHTO  H180 1782   6.246   3.053   2.269  1.4389 -0.9167 -0.4892
    5CHTO   N16 1783   6.189   2.916   2.119 -0.2323  0.3502  0.2965
    5CHTO  H172 1784   6.273   2.862   2.081  0.1052  0.5170  0.7982
    5CHTO  H173 1785   6.139   2.856   2.195 -1.5597  0.0271 -0.8074
    5CHTO   C94 1786   6.122   3.157   2.127  0.2950 -0.6955 -0.5229
    5CHTO  H181 1787   6.113   3.171   2.019 -0.0381 -1.4440 -0.5968
    5CHTO   O61 1788   6.153   3.279   2.195 -0.4352 -0.2849 -0.0801
    5CHTO   C95 1789   6.271   3.337   2.138  0.3703  0.0750 -0.0353
    5CHTO  H182 1790   6.255   3.368   2.035 -4.1923  0.3047  0.5962
    5CHTO  C106 1791   6.296   3.477   2.208  0.5461  0.0695 -0.4723
    5CHTO   O69 1792   6.322   3.473   2.346  0.0197 -0.2578 -0.5312
    5CHTO  H169 1793   6.391   3.411   2.362  1.1897  1.3610  0.8763
    5CHTO   O63 1794   5.965   3.125   2.185 -0.2520  0.6297  0.1007
    5CHTO   C96 1795   5.864   3.121   2.071  1.0046 -0.2051  0.2523
    5CHTO  H183 1796   5.914   3.080   1.983  0.6249  0.4706 -0.2830
    5CHTO   C98 1797   5.778   3.245   2.023 -0.0547  0.2187 -0.7611
    5CHTO  H185 1798   5.717   3.280   2.108  0.0667 -0.8619 -0.2291
    5CHTO   O67 1799   5.869   3.354   2.000  0.0009  0.1964  0.4004
    5CHTO  H167 1800   5.895   3.379   2.087  1.4230 -0.8828  0.3114
    5CHTO  C102 1801   5.691   3.198   1.897  0.2423  0.5556 -0.6673
    5CHTO  H189 1802   5.761   3.192   1.812  0.2522  1.0189 -0.6928
    5CHTO   N18 1803   5.594   3.303   1.843 -0.0068 -0.1171  1.1760
    5CHTO  H176 1804   5.568   3.293   1.739 -0.1142  0.9087  1.1004
    5CHTO  H177 1805   5.627   3.404   1.862  0.8795 -0.1747 -0.0281
    5CHTO  C105 1806   5.614   3.063   1.909 -0.5750  0.4379  0.0149
    5CHTO  H192 1807   5.513   3.084   1.945 -2.0568 -1.8433 -2.5932
    5CHTO   O65 1808   5.685   2.967   1.993  0.4124  0.5855  0.1261
    5CHTO  C100 1809   5.751   3.010   2.108  0.3302  0.2056  0.7225
    5CHTO  H187 1810   5.681   3.061   2.175 -1.2073  0.7252 -1.2456
    5CHTO  C107 1811   5.796   2.884   2.182  0.0697  0.7266 -0.6939
    5CHTO   O70 1812   5.835   2.915   2.319 -0.5734  0.2303 -0.1215
    5CHTO  H170 1813   5.804   3.002   2.337 -1.5768 -0.2752  0.6736
    5CHTO   O57 1814   5.615   2.995   1.744  0.3470 -0.5404  0.6826
    5CHTO   C85 1815   5.494   2.917   1.712 -1.0203 -0.0133 -0.3103
    5CHTO  H157 1816   5.415   2.964   1.775  2.8135  2.2532  2.9960
    5CHTO   C83 1817   5.502   2.779   1.779  0.0343 -0.5126 -0.2153
    5CHTO  H155 1818   5.507   2.793   1.887 -3.9858 -0.5133  0.0620
    5CHTO   O56 1819   5.628   2.725   1.737 -0.3359 -0.8177  0.0935
    5CHTO  H135 1820   5.609   2.634   1.725 -1.4344 -0.4694 -0.8702
    5CHTO   C81 1821   5.369   2.698   1.755  0.4400 -0.2187 -0.3032
    5CHTO  H153 1822   5.290   2.761   1.797  1.4836  1.1279 -0.3452
    5CHTO   N14 1823   5.365   2.575   1.830 -0.3187  0.6042  0.0603
    5CHTO  H141 1824   5.394   2.602   1.929  1.1944 -0.1533 -0.1663
    5CHTO  H142 1825   5.265   2.537   1.825  0.3936 -1.4671  1.1656
    5CHTO   C79 1826   5.343   2.684   1.602 -0.0438  0.4686 -0.2065
    5CHTO  H151 1827   5.245   2.637   1.587 -0.6059  1.4012  0.4989
    5CHTO   O52 1828   5.336   2.817   1.539 -0.8522 -0.4510  0.5037
    5CHTO   C86 1829   5.453   2.909   1.563  0.3729 -0.6652  0.0040
    5CHTO  H158 1830   5.539   2.874   1.502  0.6519  0.5647 -0.3144
    5CHTO   C90 1831   5.408   3.033   1.508  0.0111 -0.6506  0.5843
    5CHTO   O60 1832   5.500   3.146   1.519 -0.2615 -0.5741  0.0690
    5CHTO  H138 1833   5.458   3.211   1.467 -1.7839 -2.9225 -1.7935
    5CHTO   O50 1834   5.445   2.614   1.537  0.2861  0.2545 -0.1844
    5CHTO   C73 1835   5.488   2.531   1.430 -0.0520 -0.4881 -0.0682
    5CHTO  H145 1836   5.418   2.539   1.345 -0.0329 -1.3760 -0.1793
    5CHTO   C74 1837   5.490   2.384   1.470 -0.2972  0.2043 -0.2362
    5CHTO  H146 1838   5.390   2.354   1.504  0.2161 -1.2241  0.0290
    5CHTO   O54 1839   5.503   2.306   1.354  1.1411 -0.2097 -0.3090
    5CHTO  H133 1840   5.552   2.325   1.276 -0.0745 -0.4904 -1.1760
    5CHTO   C75 1841   5.600   2.359   1.579 -0.2124 -0.0585  0.6536
    5CHTO  H147 1842   5.564   2.407   1.671 -0.3179  4.3489 -1.5319
    5CHTO   N13 1843   5.618   2.210   1.614  0.1116 -0.6897 -1.0621
    5CHTO  H139 1844   5.653   2.144   1.536  0.6109 -2.2192  0.4070
    5CHTO  H140 1845   5.521   2.173   1.643  0.5936  0.0501  1.6263
    5CHTO   C76 1846   5.741   2.423   1.538 -0.0842 -0.3138 -0.1516
    5CHTO  H148 1847   5.779   2.366   1.453 -2.5004 -0.9754 -0.8442
    5CHTO   O49 1848   5.727   2.570   1.484  0.1093  0.6712  0.4603
    5CHTO   C77 1849   5.630   2.580   1.377 -0.3495  0.0634  0.5794
    5CHTO  H149 1850   5.666   2.516   1.296 -0.4807 -0.2766  0.7861
    5CHTO   C88 1851   5.630   2.722   1.320  0.4566 -0.6195 -0.1837
    5CHTO   O58 1852   5.550   2.736   1.204  0.1868  0.1780 -0.6297
    5CHTO  H136 1853   5.553   2.823   1.168  0.5927  0.3880 -0.0999
    5CHTO   O51 1854   5.838   2.424   1.680  0.4986 -0.3658 -0.1185
    5CHTO   C78 1855   5.992   2.489   1.657 -0.5261 -0.2502 -0.5923
    5CHTO  H150 1856   5.994   2.558   1.570  1.8265  1.6738  0.9107
    5CHTO   C80 1857   6.093   2.375   1.633  0.1403  0.7851  0.0357
    5CHTO  H152 1858   6.078   2.298   1.711  4.1643  1.1201  1.2360
    5CHTO   O55 1859   6.057   2.310   1.512 -0.2526  0.0319 -0.2033
    5CHTO  H134 1860   6.063   2.216   1.521 -0.0511 -0.0774 -1.4519
    5CHTO   C84 1861   6.244   2.408   1.623 -0.1659 -0.2332 -0.3588
    5CHTO  H156 1862   6.254   2.473   1.536  0.6811  1.3759  0.8857
    5CHTO   N15 1863   6.340   2.298   1.618 -0.8167  0.4147 -0.1168
    5CHTO  H143 1864   6.430   2.318   1.563  0.1726  1.8133  1.9144
    5CHTO  H144 1865   6.293   2.213   1.574 -1.6496  1.3334 -1.0331
    5CHTO   C87 1866   6.282   2.510   1.737 -0.0770 -0.4973 -0.3048
    5CHTO  H159 1867   6.288   2.469   1.838 -3.1354  2.4984  1.1940
    5CHTO   O53 1868   6.187   2.623   1.741  0.3596  0.1109 -0.1458
    5CHTO   C82 1869   6.048   2.576   1.769  0.7676 -0.1755 -0.0606
    5CHTO  H154 1870   6.051   2.522   1.863  1.6255 -0.3914 -0.2097
    5CHTO   C89 1871   5.957   2.694   1.785  0.2348 -0.2189 -0.0319
    5CHTO   O59 1872   5.994   2.761   1.903  0.0403 -0.2222 -0.5395
    5CHTO  H137 1873   5.917   2.755   1.957  0.7576 -3.3430  0.2371
    5CHTO   O45 1874   6.452   2.579   1.694  0.5712  0.5855  0.1288
    5CHTO   C67 1875   6.535   2.605   1.806  0.0337  0.4912 -0.9434
    5CHTO  H124 1876   6.482   2.620   1.900  1.5425 -0.9818  0.1608
    5CHTO   C65 1877   6.629   2.488   1.825  0.0448 -0.9914  0.1236
    5CHTO  H122 1878   6.644   2.454   1.723 -0.7354  0.1851 -0.3964
    5CHTO   O44 1879   6.557   2.393   1.905  0.3039  0.1326 -0.0394
    5CHTO  H102 1880   6.612   2.317   1.910 -1.0539 -0.9107 -0.6767
    5CHTO   C63 1881   6.776   2.527   1.874  0.7057  0.5587  0.0348
    5CHTO  H120 1882   6.827   2.571   1.788 -0.1040 -0.9640 -1.2437
    5CHTO   N11 1883   6.868   2.419   1.928  0.2499 -0.2483  0.0465
    5CHTO  H108 1884   6.853   2.334   1.864 -2.7014 -0.0027  0.3772
    5CHTO  H109 1885   6.835   2.387   2.024  0.9235  2.0502  1.0731
    5CHTO   C61 1886   6.763   2.653   1.970 -0.5862 -0.4400  0.8181
    5CHTO  H118 1887   6.863   2.692   1.996 -0.6896  1.4368 -1.4188
    5CHTO   O40 1888   6.694   2.765   1.904  0.1667 -0.4746 -0.5105
    5CHTO   C68 1889   6.613   2.741   1.776 -0.6603  0.5333 -0.0692
    5CHTO  H125 1890   6.663   2.714   1.681 -2.3295 -0.1053 -0.7741
    5CHTO   C72 1891   6.516   2.857   1.751 -0.1412 -0.3918  0.1091
    5CHTO   O48 1892   6.595   2.969   1.719 -0.4479 -0.2330 -0.1643
    5CHTO  H105 1893   6.609   3.029   1.790 -0.9570 -0.8041  0.4299
    5CHTO   O38 1894   6.697   2.624   2.089  0.2395 -0.1635  0.1253
    5CHTO   C55 1895   6.643   2.726   2.176 -0.5168  0.0248 -0.1971
    5CHTO  H112 1896   6.569   2.789   2.124 -0.5804 -0.1370 -0.3058
    5CHTO   C56 1897   6.755   2.808   2.246 -0.2242 -0.0694 -0.2917
    5CHTO  H113 1898   6.834   2.746   2.291 -0.7084 -1.4754 -1.3478
    5CHTO   O42 1899   6.798   2.903   2.141 -0.4277 -0.2790 -0.1911
    5CHTO  H100 1900   6.852   2.858   2.078 -1.1380 -0.2587 -0.8107
    5CHTO   C57 1901   6.696   2.905   2.360  0.2473 -0.3709 -1.0992
    5CHTO  H114 1902   6.632   2.977   2.307  0.1370  1.0282  0.8749
    5CHTO   N10 1903   6.800   2.978   2.436  0.1590 -0.0480  0.1870
    5CHTO  H106 1904   6.810   2.947   2.539 -0.6292  0.3862  0.3952
    5CHTO  H107 1905   6.791   3.085   2.441 -2.8152 -0.3527  3.2390
    5CHTO   C58 1906   6.604   2.818   2.447  0.2029  0.4019  0.0770
    5CHTO  H115 1907   6.668   2.744   2.499 -1.3334 -0.5974  0.5865
    5CHTO   O37 1908   6.502   2.745   2.374  0.1515 -0.1998  0.8603
    5CHTO   C59 1909   6.567   2.649   2.285 -0.3721  0.2191 -0.0774
    5CHTO  H116 1910   6.632   2.574   2.330 -1.5488 -0.8624 -0.1756
    5CHTO   C70 1911   6.464   2.557   2.225  0.3485  0.0429  0.7288
    5CHTO   O46 1912   6.340   2.609   2.178  0.2633  0.8543 -0.1985
    5CHTO  H103 1913   6.361   2.641   2.092  3.6951  1.2275  0.7511
    5CHTO   O39 1914   6.510   2.923   2.577  0.5361 -0.1600  0.2106
    5CHTO   C60 1915   6.385   2.975   2.526 -0.1894  0.0488 -0.5499
    5CHTO  H117 1916   6.395   2.974   2.417 -0.9993 -0.8693 -0.6244
    5CHTO   C62 1917   6.264   2.884   2.580 -0.2356 -0.2355  0.3287
    5CHTO  H119 1918   6.279   2.785   2.532  0.7919 -0.2041  0.5661
    5CHTO   O43 1919   6.282   2.873   2.724 -0.3279 -0.1341 -0.0732
    5CHTO  H101 1920   6.333   2.796   2.739 -1.5472 -1.2096 -1.3696
    5CHTO   C66 1921   6.114   2.938   2.536 -0.0711  0.2184 -0.5130
    5CHTO  H123 1922   6.102   2.921   2.429  0.7363  2.4053 -0.9821
    5CHTO   N12 1923   6.008   2.857   2.596  0.0491 -0.4320  0.1936
    5CHTO  H110 1924   5.962   2.918   2.672  1.2508  0.7903 -0.0393
    5CHTO  H111 1925   5.931   2.821   2.529  0.8139 -2.4574  0.3426
    5CHTO   C69 1926   6.105   3.090   2.549  0.6660  0.9532  0.3416
    5CHTO  H126 1927   6.096   3.104   2.659 -0.7234  1.3561  0.1820
    5CHTO   O41 1928   6.235   3.157   2.497  0.1513  0.4955  0.4049
    5CHTO   C64 1929   6.354   3.121   2.571  0.7878  0.0215 -0.5568
    5CHTO  H121 1930   6.335   3.135   2.680  0.3056 -0.6208 -0.5574
    5CHTO   C71 1931   6.472   3.211   2.537  0.4615  0.1880  0.3848
    5CHTO   O47 1932   6.464   3.336   2.599  0.1976  0.4841 -0.0751
    5CHTO  H104 1933   6.506   3.336   2.682 -1.3799  0.7183  0.7549
    5CHTO   O34 1934   5.974   3.161   2.487  0.3720 -0.0827 -0.0453
    5CHTO   C49 1935   5.933   3.322   2.454  0.5542  0.1730  0.3675
    5CHTO   H91 1936   5.979   3.347   2.359  0.2938  0.3343  0.2854
    5CHTO   C47 1937   5.974   3.402   2.572  0.4464 -0.0956 -0.6197
    5CHTO   H89 1938   5.948   3.507   2.546 -0.7629 -0.5776 -1.4108
    5CHTO   O33 1939   6.115   3.388   2.584 -0.2991 -0.1328  0.3513
    5CHTO   H70 1940   6.148   3.456   2.529 -2.1615 -0.5450 -1.3476
    5CHTO   C45 1941   5.890   3.346   2.694  0.1032  0.2171 -0.3077
    5CHTO   H87 1942   5.903   3.237   2.698 -0.8701  0.1251  0.4989
    5CHTO    N8 1943   5.928   3.408   2.823 -0.9467  1.5915  0.8080
    5CHTO   H75 1944   5.904   3.513   2.829 -0.8261  1.7350 -0.8677
    5CHTO   H76 1945   6.033   3.396   2.846 -1.4097 -0.7747  1.8410
    5CHTO   C43 1946   5.730   3.358   2.660  0.3518  0.6124 -0.3409
    5CHTO   H85 1947   5.679   3.314   2.746  0.8675 -0.0314 -0.3581
    5CHTO   O29 1948   5.689   3.301   2.533  0.5365  0.4383  0.4246
    5CHTO   C50 1949   5.782   3.331   2.426 -0.5877  0.0504 -0.4443
    5CHTO   H92 1950   5.760   3.257   2.348  0.5213 -0.2728 -0.4482
    5CHTO   C54 1951   5.753   3.473   2.359 -0.4053  0.1841  0.0394
    5CHTO   O36 1952   5.631   3.481   2.303 -0.3589  0.3826 -0.4546
    5CHTO   H72 1953   5.619   3.559   2.252 -2.6733 -0.6788 -1.6135
    5CHTO   O27 1954   5.690   3.495   2.660 -0.2973  0.0372  0.3159
    5CHTO   C37 1955   5.575   3.574   2.700  0.3925 -0.5008  0.0560
    5CHTO   H79 1956   5.557   3.653   2.625 -0.8911 -0.3953  0.4694
    5CHTO   C38 1957   5.444   3.490   2.682  0.1607  0.1917  0.5707
    5CHTO   H80 1958   5.464   3.389   2.722 -1.2261  0.0650  0.9558
    5CHTO   O31 1959   5.427   3.454   2.545  0.5436 -0.1914 -0.3821
    5CHTO   H68 1960   5.399   3.525   2.490 -1.4235  1.1643  2.2559
    5CHTO   C39 1961   5.313   3.550   2.737  0.1233  0.1627  0.2312
    5CHTO   H81 1962   5.271   3.625   2.670  1.3406  0.8065  0.1876
    5CHTO    N7 1963   5.201   3.447   2.746 -0.0524 -0.0390  0.4298
    5CHTO   H73 1964   5.231   3.352   2.704 -1.5049  0.4483 -1.8432
    5CHTO   H74 1965   5.139   3.438   2.834 -0.5049 -1.0944  0.0084
    5CHTO   C40 1966   5.332   3.620   2.875 -0.2418 -0.3069  0.0259
    5CHTO   H82 1967   5.343   3.538   2.946 -2.1246 -0.6352 -0.0345
    5CHTO   O26 1968   5.449   3.700   2.874 -0.2689  0.1644 -0.3542
    5CHTO   C41 1969   5.574   3.638   2.840 -0.4354  0.6523 -0.2401
    5CHTO   H83 1970   5.610   3.563   2.912 -2.1333 -0.0638 -0.1184
    5CHTO   C52 1971   5.691   3.738   2.848 -0.0578  0.3759  0.0158
    5CHTO   O35 1972   5.741   3.770   2.974 -0.3356  0.7961  0.4858
    5CHTO   H71 1973   5.665   3.803   3.018  0.4569  1.1474  1.6273
    5CHTO   O28 1974   5.229   3.715   2.911  0.3263  0.0435  0.0708
    5CHTO   C42 1975   5.209   3.777   3.050 -0.4232 -0.5840 -0.0742
    5CHTO   H84 1976   5.130   3.850   3.029 -1.5829 -2.2954 -1.8000
    5CHTO   C44 1977   5.325   3.853   3.119 -0.3701  0.2199 -0.5704
    5CHTO   H86 1978   5.399   3.882   3.045 -1.7728  4.3467 -0.4596
    5CHTO   O32 1979   5.274   3.977   3.168 -0.8998  0.4254  0.3614
    5CHTO   H69 1980   5.315   3.992   3.251  0.6628 -1.9408  0.0485
    5CHTO   C48 1981   5.397   3.773   3.243 -0.3299  0.1271  0.6058
    5CHTO   H90 1982   5.349   3.789   3.339 -0.4207  0.9351  0.4303
    5CHTO    N9 1983   5.533   3.831   3.260  0.4606 -0.0020 -0.5283
    5CHTO   H77 1984   5.587   3.837   3.166  0.1493 -0.1561 -0.7164
    5CHTO   H78 1985   5.523   3.930   3.302 -1.0227 -1.0318  1.6190
    5CHTO   C51 1986   5.387   3.619   3.206 -0.0301  0.7921 -0.4660
    5CHTO   H93 1987   5.447   3.608   3.116 -0.7965  0.7731 -0.9821
    5CHTO   O30 1988   5.257   3.570   3.188  0.3957 -0.3783  0.0190
    5CHTO   C46 1989   5.144   3.667   3.131 -0.9084  0.0885  0.7506
    5CHTO   H88 1990   5.082   3.609   3.062 -0.4315  0.7743 -0.2794
    5CHTO   C53 1991   5.067   3.715   3.251  0.4798 -0.0372 -0.3361
    5CHTO   O72 1992   4.992   3.609   3.294 -0.1581  0.2823  0.1406
    5CHTO  H199 1993   4.951   3.556   3.228 -1.5496  0.0099  1.2150
    5CHTO   O22 1994   5.453   3.531   3.298  0.0754  0.2752 -0.0930
    5CHTO   C31 1995   5.499   3.389   3.254  0.0809  0.2437  1.4616
    5CHTO   H59 1996   5.521   3.335   3.348  0.7874 -2.4699 -0.2065
    5CHTO   C29 1997   5.400   3.300   3.175  0.6615  0.0147  0.1363
    5CHTO   H57 1998   5.369   3.363   3.091  0.9124  1.6091  1.2217
    5CHTO   O21 1999   5.286   3.300   3.265 -0.3831  0.4939  0.5004
    5CHTO   H37 2000   5.217   3.354   3.231  0.9170  2.6728  1.2203
    5CHTO   C27 2001   5.449   3.149   3.138  0.0979 -0.4396 -0.3791
    5CHTO   H55 2002   5.467   3.093   3.230  0.6553  0.6970  0.2129
    5CHTO    N5 2003   5.358   3.075   3.054  0.0110 -0.3927 -0.8694
    5CHTO   H43 2004   5.333   3.134   2.967 -0.4072 -0.6087 -0.8948
    5CHTO   H44 2005   5.265   3.057   3.105 -0.6320  0.4691 -1.7234
    5CHTO   C25 2006   5.585   3.164   3.074 -0.4564  0.7114 -0.0466
    5CHTO   H53 2007   5.570   3.202   2.972 -0.8827  0.2756 -0.1504
    5CHTO   O17 2008   5.674   3.252   3.146  0.3055 -0.5608 -0.3272
    5CHTO   C32 2009   5.626   3.383   3.176  0.0092  0.5673 -0.0996
    5CHTO   H60 2010   5.618   3.443   3.086 -3.4680 -0.7756 -0.7581
    5CHTO   C36 2011   5.735   3.468   3.252  0.2578  0.3037 -0.1911
    5CHTO   O25 2012   5.846   3.476   3.166 -1.1001  0.7414 -0.6117
    5CHTO   H40 2013   5.909   3.540   3.195 -0.8287 -0.8798  2.6324
    5CHTO   O15 2014   5.655   3.011   3.092 -0.0662  0.3000  0.6468
    5CHTO   C19 2015   5.763   2.934   3.150 -0.2345  0.1739  0.3971
    5CHTO   H47 2016   5.814   2.998   3.223 -0.7454  0.6754  0.3096
    5CHTO   C20 2017   5.714   2.801   3.212  0.7305 -0.0442  0.1492
    5CHTO   H48 2018   5.664   2.740   3.137 -1.6149  1.8955  0.0773
    5CHTO   O19 2019   5.619   2.825   3.323  0.3393 -0.1648 -0.0889
    5CHTO   H35 2020   5.553   2.886   3.294 -1.1890 -2.0856 -0.7761
    5CHTO   C21 2021   5.843   2.721   3.269  0.0307  0.2855  0.1465
    5CHTO   H49 2022   5.874   2.775   3.359 -0.3940  3.7972 -1.7001
    5CHTO    N4 2023   5.809   2.587   3.310  0.3223  0.8401  0.1120
    5CHTO   H41 2024   5.733   2.587   3.387  0.4824  0.6154  0.2705
    5CHTO   H42 2025   5.783   2.522   3.228 -0.9826  0.3552  0.9084
    5CHTO   C22 2026   5.964   2.719   3.174  0.3632 -0.4090  0.8089
    5CHTO   H50 2027   5.948   2.652   3.090  1.0060  1.1119 -0.5690
    5CHTO   O14 2028   5.981   2.856   3.123 -0.3293  0.3758 -0.5916
    5CHTO   C23 2029   5.874   2.908   3.048  1.1707  0.2528 -0.0014
    5CHTO   H51 2030   5.843   2.835   2.972 -0.6154  1.6994 -0.7217
    5CHTO   C34 2031   5.929   3.042   2.996  0.3321 -0.4802  0.6241
    5CHTO   O23 2032   6.045   3.018   2.912  0.5237  0.3952 -0.1268
    5CHTO   H38 2033   6.010   3.008   2.825 -2.8205  1.5050  1.0174
    5CHTO   O16 2034   6.094   2.703   3.236  0.0836 -0.3906  0.3137
    5CHTO   C24 2035   6.197   2.617   3.149  0.2689  0.0888  0.1406
    5CHTO   H52 2036   6.153   2.595   3.052 -2.0740  0.5042  1.0676
    5CHTO   C26 2037   6.235   2.478   3.208  0.6093 -0.0853 -0.2369
    5CHTO   H54 2038   6.261   2.489   3.315  2.6154 -2.9158 -0.3915
    5CHTO   O20 2039   6.120   2.397   3.217 -0.0562 -0.4915 -0.8172
    5CHTO   H36 2040   6.070   2.404   3.296  0.3458 -0.2845 -0.5795
    5CHTO   C30 2041   6.344   2.399   3.138 -0.2355 -0.4262  0.2843
    5CHTO   H58 2042   6.311   2.361   3.041 -1.5380  0.4568  0.3807
    5CHTO    N6 2043   6.390   2.272   3.201  0.2228  0.2312 -0.0460
    5CHTO   H45 2044   6.473   2.231   3.146  2.1884  3.7378  0.1552
    5CHTO   H46 2045   6.418   2.285   3.305 -0.3476  0.6074  0.0651
    5CHTO   C33 2046   6.463   2.499   3.115 -0.3249  0.5291 -0.2485
    5CHTO   H61 2047   6.509   2.524   3.212 -2.4025  0.5609  0.7508
    5CHTO   O18 2048   6.421   2.618   3.054  0.4321 -0.7131 -0.1211
    5CHTO   C28 2049   6.325   2.701   3.123  0.0476  0.0720  0.3892
    5CHTO   H56 2050   6.373   2.726   3.218 -0.0127 -1.9020  0.9478
    5CHTO   C35 2051   6.288   2.829   3.051 -0.2092  0.6611  0.6001
    5CHTO   O24 2052   6.233   2.931   3.132  0.3753 -0.1632 -0.0201
    5CHTO   H39 2053   6.294   3.000   3.147  0.2810  0.3198 -1.6926
    5CHTO    O9 2054   6.574   2.440   3.041  0.2426 -0.0101  0.5606
    5CHTO   C13 2055   6.557   2.420   2.896 -0.0764  0.7030  0.1054
    5CHTO   H26 2056   6.455   2.384   2.873 -0.6249  2.2760  0.0014
    5CHTO   C11 2057   6.672   2.308   2.857 -0.1439 -0.0295  0.2294
    5CHTO   H24 2058   6.650   2.221   2.919  1.5193  0.3534  1.3780
    5CHTO    O8 2059   6.798   2.349   2.895 -0.6353  0.0890 -0.0539
    5CHTO    H3 2060   6.854   2.282   2.861 -1.9202 -1.8377  1.5332
    5CHTO    C9 2061   6.657   2.269   2.708  0.0541  0.2129  0.8470
    5CHTO   H22 2062   6.550   2.249   2.690  0.2316 -1.1744  1.2639
    5CHTO    N2 2063   6.732   2.153   2.663  0.0950  0.4340  0.2708
    5CHTO   H10 2064   6.669   2.085   2.608  0.7050 -0.8469  1.1330
    5CHTO   H11 2065   6.763   2.104   2.754 -0.4206 -0.0115  0.2087
    5CHTO    C7 2066   6.693   2.400   2.623 -0.4819  0.3953 -0.6779
    5CHTO   H20 2067   6.663   2.377   2.518 -0.1171 -0.1177 -0.6749
    5CHTO    O4 2068   6.608   2.514   2.662  0.1569 -0.4914 -0.1373
    5CHTO   C14 2069   6.591   2.543   2.801 -0.0027 -0.1476  0.1788
    5CHTO   H27 2070   6.499   2.603   2.811  0.2569  0.3720 -0.5313
    5CHTO   C18 2071   6.708   2.624   2.859  0.4483  0.7245 -0.1296
    5CHTO   O13 2072   6.708   2.755   2.807 -0.1250  0.0513  0.3032
    5CHTO    H7 2073   6.791   2.793   2.828 -0.1614  0.6977 -0.7090
    5CHTO    O2 2074   6.856   2.436   2.634  0.2513 -0.1576  0.6792
    5CHTO    C1 2075   6.909   2.474   2.506 -0.5058  0.1294 -0.1805
    5CHTO   H14 2076   6.835   2.538   2.453 -1.9927  0.2643  1.9880
    5CHTO    C2 2077   6.940   2.352   2.411  0.0799 -0.1004  0.1388
    5CHTO   H15 2078   6.984   2.276   2.477 -0.9225 -0.5426  0.2979
    5CHTO    O6 2079   6.812   2.315   2.356  0.4041 -0.0856  0.2967
    5CHTO    H1 2080   6.815   2.280   2.269 -3.5321  0.4758 -0.1353
    5CHTO    C3 2081   7.038   2.402   2.300  0.4538  0.1981  0.7924
    5CHTO   H16 2082   6.990   2.473   2.231  0.9422  0.6521  0.9152
    5CHTO    N1 2083   7.077   2.280   2.225 -0.1123 -0.4074  0.0677
    5CHTO    H8 2084   7.167   2.232   2.261  2.2623  1.6581 -2.8800
    5CHTO    H9 2085   7.095   2.299   2.121  0.8622  1.5286  0.5702
    5CHTO    C4 2086   7.161   2.479   2.358 -0.5877  0.7466  0.4864
    5CHTO   H17 2087   7.212   2.413   2.429 -1.3041 -1.7111 -1.2145
    5CHTO    O1 2088   7.112   2.601   2.422 -0.2416 -0.0799  0.3490
    5CHTO    C5 2089   7.033   2.569   2.536  0.4631  0.8741 -0.6189
    5CHTO   H18 2090   7.098   2.520   2.608  0.2374  0.5603 -0.6272
    5CHTO   C16 2091   6.981   2.692   2.609  0.3450 -0.1423  0.4800
    5CHTO   O11 2092   7.077   2.768   2.679 -0.5994  0.2170  0.2184
    5CHTO    H5 2093   7.073   2.768   2.773 -2.1198 -1.3566  0.1750
    5CHTO    O3 2094   7.238   2.536   2.248 -0.1511 -0.2004  0.6690
    5CHTO    C6 2095   7.376   2.571   2.288 -0.2691 -1.0381  0.1584
    5CHTO   H19 2096   7.385   2.573   2.396  3.3277  0.9371 -0.1002
    5CHTO    C8 2097   7.475   2.464   2.237  0.2030  0.2786  0.0057
    5CHTO   H21 2098   7.480   2.469   2.128 -0.7167  0.3194 -0.0413
    5CHTO    O7 2099   7.424   2.335   2.283  0.0891 -0.4986  0.4436
    5CHTO    H2 2100   7.423   2.333   2.376 -2.8048 -2.2169  0.4313
    5CHTO   C12 2101   7.616   2.494   2.300 -0.1005 -0.1106 -0.0599
    5CHTO   H25 2102   7.609   2.512   2.410  1.2985  0.3488 -0.0315
    5CHTO    N3 2103   7.714   2.381   2.286  0.3080  0.0593  0.4428
    5CHTO   H12 2104   7.808   2.409   2.330 -1.0570  3.4705  1.3426
    5CHTO   H13 2105   7.667   2.304   2.345 -1.4082  1.2401  0.6294
    5CHTO   C15 2106   7.655   2.634   2.238 -1.0605 -0.0264  0.4226
    5CHTO   H28 2107   7.667   2.632   2.130 -0.0600 -0.1115  0.5254
    5CHTO   O10 2108   7.792   2.695   2.312 -0.0969 -0.9387 -0.2062
    5CHTO    H4 2109   7.861   2.632   2.326  1.1778  0.7815  1.5051
    5CHTO    O5 2110   7.562   2.738   2.279  0.1142 -0.0506 -0.6425
    5CHTO   C10 2111   7.427   2.716   2.236  0.0980  0.3196 -0.5617
    5CHTO   H23 2112   7.427   2.713   2.127 -1.7394 -0.0873 -0.5742
    5CHTO   C17 2113   7.326   2.831   2.275 -0.4024 -0.9587 -0.2988
    5CHTO   O12 2114   7.313   2.862   2.412  0.2366  0.2017  0.0206
    5CHTO    H6 2115   7.392   2.900   2.445 -0.9110  1.6994  1.1260
    6CHTO  H203 2116   6.366   4.648   0.216 -0.5913  1.5104 -1.4989
    6CHTO   O82 2117   6.275   4.650   0.241 -0.1456  0.6770  0.2579
    6CHTO  C123 2118   6.244   4.779   0.297 -0.2317 -0.0043  0.0239
    6CHTO  H227 2119   6.304   4.853   0.241 -2.4062  1.8258  0.0432
    6CHTO   O77 2120   6.101   4.797   0.278  0.4453  0.2359 -0.0586
    6CHTO  C118 2121   6.049   4.928   0.314  0.4066  0.1544 -0.0464
    6CHTO  H222 2122   6.103   4.999   0.249  2.8555 -0.6448  1.0565
    6CHTO  C125 2123   5.900   4.940   0.287  0.2043 -0.8118 -0.5028
    6CHTO   O84 2124   5.866   4.906   0.149 -0.4755 -0.2437 -0.3412
    6CHTO  H205 2125   5.774   4.901   0.132 -0.2618 -0.1370 -1.5654
    6CHTO  C114 2126   6.070   4.959   0.465  0.2450  0.0925  0.0253
    6CHTO  H218 2127   6.009   4.889   0.523 -0.2938 -0.6465 -1.4150
    6CHTO  C116 2128   6.215   4.928   0.507  0.5928 -1.0899 -0.5109
    6CHTO  H220 2129   6.275   5.011   0.464  1.1555 -0.2336  1.8557
    6CHTO   O79 2130   6.214   4.924   0.648  0.3381 -0.4218  0.1132
    6CHTO  H201 2131   6.220   5.008   0.688 -0.5131 -0.8245  1.1023
    6CHTO  C120 2132   6.279   4.791   0.453  0.1086  0.3556  0.3150
    6CHTO  H224 2133   6.234   4.716   0.521  0.1571 -0.6176 -0.7093
    6CHTO   N21 2134   6.424   4.778   0.482 -0.5092 -0.3467  0.1118
    6CHTO  H211 2135   6.447   4.673   0.483  1.4333  0.0361 -1.2721
    6CHTO  H212 2136   6.482   4.826   0.405 -0.1879 -1.7850 -0.5632
    6CHTO   O75 2137   6.024   5.096   0.495 -0.0468 -0.4431  0.1884
    6CHTO  C112 2138   5.938   5.115   0.618 -0.5696  0.1933  0.4587
    6CHTO  H216 2139   5.970   5.041   0.693  2.2345  0.4457 -0.4480
    6CHTO   O73 2140   5.802   5.097   0.578  0.1207 -0.7112  0.3215
    6CHTO  C113 2141   5.713   5.116   0.687 -0.4499  0.3722 -0.2744
    6CHTO  H217 2142   5.742   5.037   0.759 -3.6753  0.3226  1.0398
    6CHTO  C124 2143   5.575   5.076   0.640  0.1369 -0.0231  0.2748
    6CHTO   O83 2144   5.477   5.052   0.738  0.0060  0.6272  0.0599
    6CHTO  H204 2145   5.457   5.138   0.769 -0.4165  1.3855 -2.2237
    6CHTO  C109 2146   5.720   5.262   0.735  0.5307 -0.0697 -0.2671
    6CHTO  H213 2147   5.691   5.319   0.645 -2.6399  1.4118  1.6191
    6CHTO  C110 2148   5.860   5.301   0.778 -0.0227 -0.0665  0.2216
    6CHTO  H214 2149   5.883   5.245   0.868 -0.0203  1.0264  0.9040
    6CHTO   O78 2150   5.870   5.434   0.817 -0.2843  0.1889 -0.3830
    6CHTO  H200 2151   5.955   5.473   0.814 -0.0385 -0.3423 -0.4142
    6CHTO  C111 2152   5.964   5.260   0.666  0.9026 -0.7083  0.3215
    6CHTO  H215 2153   5.944   5.319   0.575  1.5159  2.2218  2.0187
    6CHTO   N19 2154   6.108   5.283   0.701 -0.1734 -0.5852 -0.3991
    6CHTO  H207 2155   6.173   5.232   0.631  0.5426 -0.3062  0.0553
    6CHTO  H208 2156   6.152   5.382   0.693  2.3330 -1.6782 -0.6891
    6CHTO   O74 2157   5.615   5.281   0.841 -0.8137  0.0050  0.1178
    6CHTO  C115 2158   5.650   5.310   0.989  0.4317  0.3242 -0.7227
    6CHTO  H219 2159   5.756   5.320   1.008  0.4279  0.5056 -0.8032
    6CHTO   O76 2160   5.587   5.439   1.034  0.2367  0.4936 -0.9212
    6CHTO  C122 2161   5.446   5.448   1.009 -0.0224  0.3039 -0.1367
    6CHTO  H226 2162   5.434   5.456   0.901 -0.2200  2.7318  0.0376
    6CHTO  C126 2163   5.402   5.577   1.068  0.5764 -0.4372 -0.4716
    6CHTO   O85 2164   5.468   5.685   1.010 -0.1001 -0.0247  0.6295
    6CHTO  H206 2165   5.511   5.745   1.068  1.0358 -1.4224  1.2592
    6CHTO  C121 2166   5.367   5.320   1.061 -0.5383 -0.1955  0.5376
    6CHTO  H225 2167   5.286   5.356   1.128 -0.8522 -1.8080  1.0640
    6CHTO   O81 2168   5.306   5.248   0.951 -0.0823 -0.3076 -0.1380
    6CHTO  H202 2169   5.305   5.305   0.876  0.8859 -0.5422 -0.3324
    6CHTO  C119 2170   5.460   5.229   1.153  0.1939  0.5304  0.1165
    6CHTO  H223 2171   5.488   5.284   1.243 -0.9423  0.2764  0.6217
    6CHTO  C117 2172   5.597   5.186   1.071  0.3683  0.2656 -0.5456
    6CHTO  H221 2173   5.576   5.115   0.990 -1.9113 -1.4542  1.4976
    6CHTO   N20 2174   5.691   5.120   1.163 -0.1285  0.3334 -0.3266
    6CHTO  H209 2175   5.777   5.184   1.174  1.1261 -1.6690  2.1780
    6CHTO  H210 2176   5.644   5.106   1.259  0.6616  0.9423  0.1610
    6CHTO   O80 2177   5.377   5.092   1.226  0.2558 -0.3340 -0.1032
    6CHTO  C103 2178   5.324   5.108   1.374  0.4742 -0.5365  0.0895
    6CHTO  H190 2179   5.378   5.184   1.431 -0.3908 -0.1747  0.4375
    6CHTO  C101 2180   5.170   5.138   1.386  0.2189  0.9774  0.0395
    6CHTO  H188 2181   5.129   5.098   1.294 -1.4679  2.7469 -0.0320
    6CHTO   O68 2182   5.137   5.285   1.389  0.4213  0.3807 -0.5894
    6CHTO  H168 2183   5.170   5.322   1.310 -1.5202 -1.2742 -2.2507
    6CHTO   C99 2184   5.092   5.081   1.516 -0.1282 -0.7279  0.1381
    6CHTO  H186 2185   5.117   5.146   1.602  1.7208 -0.8883 -0.2689
    6CHTO   N17 2186   4.943   5.073   1.503  0.8672  0.0274  0.2459
    6CHTO  H174 2187   4.914   5.153   1.437  1.0898  0.5926  0.8317
    6CHTO  H175 2188   4.895   4.980   1.476 -0.1898  0.9575 -1.1487
    6CHTO   C97 2189   5.152   4.944   1.552 -0.2679  0.4495 -0.1328
    6CHTO  H184 2190   5.116   4.871   1.478  1.3061 -0.9014  0.4092
    6CHTO   O64 2191   5.293   4.949   1.560 -0.3702  0.1984  0.2468
    6CHTO  C104 2192   5.355   4.972   1.436  0.3397  0.3458  0.2507
    6CHTO  H191 2193   5.333   4.896   1.361 -1.9393  3.0994 -1.9921
    6CHTO  C108 2194   5.508   4.953   1.469 -0.2989 -0.6287  0.6058
    6CHTO   O71 2195   5.558   5.058   1.553  0.4823 -0.1726  0.1604
    6CHTO  H171 2196   5.649   5.040   1.563  0.1423 -1.2063  1.4138
    6CHTO   O62 2197   5.113   4.905   1.681  0.5435 -0.1171  0.1122
    6CHTO   C91 2198   5.082   4.764   1.718  0.1399 -0.2835 -0.0347
    6CHTO  H178 2199   5.083   4.765   1.827  2.3246 -0.8189 -0.0227
    6CHTO   C92 2200   5.202   4.666   1.677  0.1646  1.1028  0.2644
    6CHTO  H179 2201   5.213   4.671   1.568 -1.8189  1.1501  0.0488
    6CHTO   O66 2202   5.326   4.705   1.741 -0.4617 -0.3884  0.9141
    6CHTO  H166 2203   5.361   4.781   1.700  0.1943 -1.0671  0.1776
    6CHTO   C93 2204   5.163   4.511   1.717 -0.0329  1.0168  0.0151
    6CHTO  H180 2205   5.156   4.497   1.826  3.3067  0.1405  0.1708
    6CHTO   N16 2206   5.268   4.415   1.675 -0.2897 -0.1123 -0.8836
    6CHTO  H172 2207   5.363   4.445   1.715  0.2170  0.7676 -2.6762
    6CHTO  H173 2208   5.268   4.423   1.567  1.7881  1.8420 -0.7627
    6CHTO   C94 2209   5.024   4.482   1.656 -0.1804 -0.4449 -0.0949
    6CHTO  H181 2210   5.024   4.492   1.547  0.0589 -1.3320 -0.1858
    6CHTO   O61 2211   4.929   4.581   1.706 -0.0929 -0.6190  0.2995
    6CHTO   C95 2212   4.953   4.709   1.650  0.0833  0.2949 -0.5108
    6CHTO  H182 2213   4.957   4.702   1.541  1.7683  1.9618 -0.5857
    6CHTO  C106 2214   4.823   4.795   1.676 -0.5024  0.1249 -0.1897
    6CHTO   O69 2215   4.699   4.726   1.643 -0.0630 -0.2579 -0.1087
    6CHTO  H169 2216   4.628   4.750   1.701  0.4538 -0.7683  0.7404
    6CHTO   O63 2217   4.960   4.338   1.724  0.1924  0.4487  0.3919
    6CHTO   C96 2218   4.923   4.237   1.616 -0.3088  0.9101 -0.5200
    6CHTO  H183 2219   4.990   4.254   1.532  0.4172 -3.1235 -0.8491
    6CHTO   C98 2220   4.774   4.258   1.558 -0.4031  0.5474  0.5747
    6CHTO  H185 2221   4.702   4.260   1.642 -1.8111  0.1918 -0.6010
    6CHTO   O67 2222   4.766   4.385   1.495 -0.1008 -0.2204 -0.0483
    6CHTO  H167 2223   4.750   4.450   1.561  0.7227 -0.9312  0.8349
    6CHTO  C102 2224   4.723   4.142   1.453  0.5069  0.6619 -0.6522
    6CHTO  H189 2225   4.753   4.179   1.354 -0.7833 -0.9196 -1.6655
    6CHTO   N18 2226   4.579   4.112   1.453  0.0461  0.7565  0.1622
    6CHTO  H176 2227   4.524   4.199   1.421 -0.6378  0.5442  0.7337
    6CHTO  H177 2228   4.562   4.038   1.375 -0.2679  0.4392  0.5261
    6CHTO  C105 2229   4.824   4.023   1.463 -0.6323 -0.0311 -0.3016
    6CHTO  H192 2230   4.777   3.931   1.428  1.0979 -1.5475  1.2530
    6CHTO   O65 2231   4.857   3.990   1.599  0.0974  0.1805  0.1321
    6CHTO  C100 2232   4.944   4.082   1.674  0.4914  0.0428 -0.0244
    6CHTO  H187 2233   4.919   4.083   1.781  1.2486  1.7965  0.1452
    6CHTO  C107 2234   5.088   4.040   1.661  0.3833 -0.7517 -0.6188
    6CHTO   O70 2235   5.170   4.089   1.764  0.4066  0.7860  0.0717
    6CHTO  H170 2236   5.236   4.026   1.789  0.7229  1.7211  1.7186
    6CHTO   O57 2237   4.966   4.076   1.350 -0.3571  0.3859  0.2778
    6CHTO   C85 2238   4.951   4.072   1.207  0.0632 -0.7476 -0.1629
    6CHTO  H157 2239   4.846   4.062   1.173  0.2669 -2.5428 -0.3254
    6CHTO   C83 2240   5.012   3.933   1.164  0.2029 -0.6256  0.4987
    6CHTO  H155 2241   4.948   3.854   1.204 -0.9215 -0.4429 -0.9101
    6CHTO   O56 2242   5.142   3.910   1.222  0.4766  0.0354  0.5415
    6CHTO  H135 2243   5.157   3.830   1.269  1.1268 -0.3544 -0.3099
    6CHTO   C81 2244   5.013   3.932   1.004 -0.0268 -0.1208 -0.0346
    6CHTO  H153 2245   4.912   3.948   0.967  0.2805 -1.2608 -1.4059
    6CHTO   N14 2246   5.045   3.800   0.950 -0.6021  0.4174  0.1524
    6CHTO  H141 2247   5.076   3.802   0.848  0.5951  1.0638  0.5136
    6CHTO  H142 2248   4.971   3.725   0.970  0.3400 -0.2650  1.1601
    6CHTO   C79 2249   5.099   4.049   0.945 -0.6120 -0.3777  0.3791
    6CHTO  H151 2250   5.082   4.050   0.838 -2.6187  2.1569  0.6644
    6CHTO   O52 2251   5.037   4.175   0.994 -0.0201  0.6167  0.6625
    6CHTO   C86 2252   5.022   4.194   1.141  0.1706 -0.2289  1.0427
    6CHTO  H158 2253   5.128   4.212   1.169 -0.0162 -1.3395  2.5343
    6CHTO   C90 2254   4.946   4.321   1.177 -0.0560 -0.5469  0.5778
    6CHTO   O60 2255   5.035   4.432   1.187 -0.4576 -0.1206  0.1714
    6CHTO  H138 2256   5.090   4.443   1.111  0.5709  1.4774  1.1136
    6CHTO   O50 2257   5.234   4.049   0.987  0.3429 -0.2876  0.9175
    6CHTO   C73 2258   5.373   4.073   0.957 -0.4168  0.6337 -0.1849
    6CHTO  H145 2259   5.391   4.015   0.865  1.9645  1.1657 -0.0667
    6CHTO   C74 2260   5.461   4.031   1.075  0.5111 -0.4939  0.1412
    6CHTO  H146 2261   5.436   3.924   1.085 -1.5017 -0.1662 -1.2503
    6CHTO   O54 2262   5.600   4.039   1.038 -0.0845 -0.7827  0.2626
    6CHTO  H133 2263   5.631   3.952   1.022 -0.8914 -1.1746  0.7755
    6CHTO   C75 2264   5.424   4.115   1.203 -0.0213 -0.5474  0.6029
    6CHTO  H147 2265   5.316   4.099   1.216 -0.5741  1.5173 -1.1091
    6CHTO   N13 2266   5.496   4.069   1.320  0.0130 -0.4706 -0.6568
    6CHTO  H139 2267   5.475   4.134   1.404  0.7940 -1.5655  0.4005
    6CHTO  H140 2268   5.456   3.970   1.337 -0.1784 -0.4641 -1.0583
    6CHTO   C76 2269   5.449   4.266   1.174  0.7487  0.6271  0.7173
    6CHTO  H148 2270   5.555   4.273   1.151  0.6979 -2.3435 -0.7521
    6CHTO   O49 2271   5.380   4.314   1.054  0.4804 -0.1180 -0.2857
    6CHTO   C77 2272   5.405   4.230   0.936 -0.1999  0.4886  0.5357
    6CHTO  H149 2273   5.510   4.240   0.908  0.0147 -0.1623  1.0998
    6CHTO   C88 2274   5.321   4.271   0.816  0.4943 -0.2128  0.1298
    6CHTO   O58 2275   5.325   4.396   0.776 -0.0605  0.5043 -0.2458
    6CHTO  H136 2276   5.306   4.394   0.685  0.8123  2.0379 -0.4789
    6CHTO   O51 2277   5.412   4.367   1.298  0.0529 -0.1148 -0.1832
    6CHTO   C78 2278   5.489   4.500   1.307 -0.9932  1.0217  0.4560
    6CHTO  H150 2279   5.444   4.549   1.396 -1.2243  1.6316  0.0090
    6CHTO   C80 2280   5.473   4.593   1.179 -0.2863  0.0179  1.1351
    6CHTO  H152 2281   5.484   4.528   1.090  0.8971  1.2682  0.3439
    6CHTO   O55 2282   5.343   4.660   1.165 -0.1342 -0.0889 -0.4969
    6CHTO  H134 2283   5.330   4.722   1.096  0.8047  2.1057  1.2372
    6CHTO   C84 2284   5.591   4.697   1.169  0.2249  0.0702  0.0887
    6CHTO  H156 2285   5.574   4.785   1.230  0.4985  0.0511  0.1889
    6CHTO   N15 2286   5.611   4.749   1.029 -0.2674 -0.5522  0.1427
    6CHTO  H143 2287   5.535   4.821   1.006 -0.8671 -0.7962  1.3333
    6CHTO  H144 2288   5.595   4.667   0.963 -1.6962 -0.2908  0.1582
    6CHTO   C87 2289   5.726   4.651   1.220  0.0765  0.6575  0.6231
    6CHTO  H159 2290   5.768   4.577   1.153 -0.8902  2.4861 -2.0662
    6CHTO   O53 2291   5.709   4.586   1.355 -0.1373  0.0746 -0.2087
    6CHTO   C82 2292   5.634   4.466   1.356 -0.4235  0.3252 -0.1075
    6CHTO  H154 2293   5.680   4.388   1.295 -0.9754 -0.3627  0.3490
    6CHTO   C89 2294   5.626   4.414   1.509  0.2348 -0.7331  0.1769
    6CHTO   O59 2295   5.757   4.395   1.549  0.4733  0.2534  0.5618
    6CHTO  H137 2296   5.771   4.307   1.580  1.6870  0.6768  1.2727
    6CHTO   O45 2297   5.836   4.785   1.249  0.3010  1.2528  0.2107
    6CHTO   C67 2298   5.955   4.757   1.169  1.1580  0.0923 -0.7699
    6CHTO  H124 2299   5.938   4.672   1.102 -2.2286  1.1856 -1.3838
    6CHTO   C65 2300   5.995   4.876   1.085 -0.4386 -0.5278  0.9858
    6CHTO  H122 2301   5.901   4.904   1.039 -1.7807 -5.1508  0.6759
    6CHTO   O44 2302   6.093   4.829   0.987  0.3781  0.5186 -0.0926
    6CHTO  H102 2303   6.142   4.756   1.020 -1.8787 -0.5036  1.0974
    6CHTO   C63 2304   6.039   4.996   1.177  0.4470 -0.4803 -0.9263
    6CHTO  H120 2305   5.957   5.021   1.244  0.2755 -1.4685 -0.7590
    6CHTO   N11 2306   6.060   5.129   1.109 -0.2893  0.0065 -0.4510
    6CHTO  H108 2307   5.999   5.127   1.021 -0.2048  0.8133 -0.5283
    6CHTO  H109 2308   6.163   5.130   1.081 -0.5745  0.5101 -1.4987
    6CHTO   C61 2309   6.160   4.948   1.269 -0.2268 -0.3029 -0.7391
    6CHTO  H118 2310   6.185   5.020   1.348  2.0727 -3.8560  1.9736
    6CHTO   O40 2311   6.130   4.830   1.343  0.4304  0.1334 -0.6566
    6CHTO   C68 2312   6.064   4.713   1.278 -0.0489 -0.0486 -0.2784
    6CHTO  H125 2313   6.014   4.655   1.358  0.6836 -2.8943 -1.8164
    6CHTO   C72 2314   6.170   4.615   1.216 -0.5988  0.4841  0.2281
    6CHTO   O48 2315   6.111   4.502   1.165 -0.4729  0.2983 -0.3822
    6CHTO  H105 2316   6.174   4.441   1.134 -1.3792 -2.3206  2.6889
    6CHTO   O38 2317   6.279   4.920   1.193  0.0448 -0.6650  0.5752
    6CHTO   C55 2318   6.402   4.991   1.227 -0.1373 -0.2709  0.2651
    6CHTO  H112 2319   6.374   5.066   1.302 -2.8716  0.8206 -1.7476
    6CHTO   C56 2320   6.466   5.068   1.093  0.9632  0.0526 -0.0203
    6CHTO  H113 2321   6.479   5.000   1.007 -3.6807  0.8739 -1.5289
    6CHTO   O42 2322   6.364   5.158   1.040  0.1988  0.4819  0.2044
    6CHTO  H100 2323   6.381   5.244   1.073  1.9305 -0.1944  1.1785
    6CHTO   C57 2324   6.601   5.138   1.140  0.6564  0.1980 -0.4352
    6CHTO  H114 2325   6.572   5.214   1.212 -1.3184  0.9980 -2.0556
    6CHTO   N10 2326   6.667   5.199   1.025 -0.4313 -0.0289 -0.2344
    6CHTO  H106 2327   6.731   5.124   0.982 -0.1754  0.9238 -1.5449
    6CHTO  H107 2328   6.595   5.232   0.951 -0.4707  0.3032 -0.0518
    6CHTO   C58 2329   6.696   5.031   1.206 -0.3692 -0.6991  0.9343
    6CHTO  H115 2330   6.730   4.957   1.131 -0.3790  0.8295 -0.5878
    6CHTO   O37 2331   6.636   4.971   1.321 -0.3709 -0.3659  0.4887
    6CHTO   C59 2332   6.511   4.901   1.286 -0.9904  0.0650 -0.4356
    6CHTO  H116 2333   6.546   4.817   1.226 -1.2275 -0.2522 -0.1326
    6CHTO   C70 2334   6.456   4.843   1.420 -0.0914 -0.0165 -0.2810
    6CHTO   O46 2335   6.542   4.767   1.509 -0.8163 -0.2182  0.1682
    6CHTO  H103 2336   6.596   4.701   1.470  1.9994  1.1289  1.6199
    6CHTO   O39 2337   6.841   5.114   1.274 -0.3705 -0.1956  0.0044
    6CHTO   C60 2338   6.961   5.043   1.243 -0.8070  0.8289 -0.2476
    6CHTO  H117 2339   6.937   4.941   1.212  0.7277  0.2934  0.2485
    6CHTO   C62 2340   7.047   5.124   1.138  0.2328 -0.5672 -0.2110
    6CHTO  H119 2341   6.983   5.125   1.048  1.0687  1.3865 -0.8115
    6CHTO   O43 2342   7.063   5.262   1.179  0.1019  0.0369 -0.2987
    6CHTO  H101 2343   7.083   5.317   1.106  0.0177 -0.3186 -0.5851
    6CHTO   C66 2344   7.182   5.056   1.121  0.0003 -0.2805 -0.8794
    6CHTO  H123 2345   7.178   4.954   1.086  2.2312 -0.5530 -0.4039
    6CHTO   N12 2346   7.252   5.121   1.008 -0.0030  0.1319 -0.3820
    6CHTO  H110 2347   7.336   5.065   0.969 -0.3608  0.6398 -1.9062
    6CHTO  H111 2348   7.282   5.218   1.044 -1.4121  0.5089 -0.2129
    6CHTO   C69 2349   7.250   5.057   1.261 -0.3096 -0.3306  0.0517
    6CHTO  H126 2350   7.279   5.157   1.299  2.1280 -1.1434  0.4241
    6CHTO   O41 2351   7.152   4.988   1.364 -0.2250 -0.5660 -0.0218
    6CHTO   C64 2352   7.037   5.030   1.379 -0.5053  0.3079  0.5699
    6CHTO  H121 2353   7.037   5.125   1.436 -1.0937  1.4326 -1.2568
    6CHTO   C71 2354   6.963   4.932   1.477 -0.5342 -0.7187  0.3437
    6CHTO   O47 2355   6.826   4.949   1.498 -0.1745 -0.5163 -0.4960
    6CHTO  H104 2356   6.783   4.873   1.532 -1.7463  0.3545 -0.5029
    6CHTO   O34 2357   7.391   4.976   1.258 -0.5944  0.0717  0.1953
    6CHTO   C49 2358   7.533   5.025   1.184  0.7622  0.2782 -0.7593
    6CHTO   H91 2359   7.521   5.002   1.078 -1.9477  1.2259 -0.6894
    6CHTO   C47 2360   7.648   4.943   1.243  0.3151  0.1484  0.4646
    6CHTO   H89 2361   7.728   4.973   1.172 -0.2185  1.4373  0.4046
    6CHTO   O33 2362   7.615   4.809   1.214 -0.2706  0.2120 -0.3561
    6CHTO   H70 2363   7.567   4.760   1.279 -1.7758 -1.6453 -2.7988
    6CHTO   C45 2364   7.685   4.994   1.397 -0.2000  0.6005  0.1222
    6CHTO   H87 2365   7.594   4.970   1.455 -0.2004 -0.1992 -0.2038
    6CHTO    N8 2366   7.795   4.911   1.457  0.0093 -0.2853  0.3062
    6CHTO   H75 2367   7.849   4.977   1.524  1.8373  0.3409 -1.7256
    6CHTO   H76 2368   7.749   4.826   1.504  0.0609 -0.0616  0.7659
    6CHTO   C43 2369   7.702   5.162   1.412  0.7549 -0.4657  0.5750
    6CHTO   H85 2370   7.694   5.178   1.519  1.9548 -0.9887  0.7512
    6CHTO   O29 2371   7.595   5.227   1.339 -0.2203 -0.3713  0.1104
    6CHTO   C50 2372   7.558   5.180   1.210 -0.1180  0.6214  0.4062
    6CHTO   H92 2373   7.464   5.236   1.198 -1.1507 -1.4832 -1.7137
    6CHTO   C54 2374   7.636   5.237   1.091  0.4514 -0.2630 -0.3762
    6CHTO   O36 2375   7.593   5.374   1.051 -0.2490 -0.2181  0.2005
    6CHTO   H72 2376   7.625   5.437   1.113 -1.4329 -1.1033  1.7298
    6CHTO   O27 2377   7.832   5.214   1.360  0.3117 -0.4912  0.0724
    6CHTO   C37 2378   7.915   5.318   1.426  0.5231 -0.2065  0.2401
    6CHTO   H79 2379   7.997   5.336   1.356 -0.4772 -0.6313 -1.0591
    6CHTO   C38 2380   7.828   5.452   1.448  0.2329 -0.1264  0.1651
    6CHTO   H80 2381   7.742   5.421   1.509  1.6562 -0.5677  1.9685
    6CHTO   O31 2382   7.796   5.514   1.322  0.4208  0.5833  0.3341
    6CHTO   H68 2383   7.713   5.557   1.329 -1.1365 -2.0287 -1.2322
    6CHTO   C39 2384   7.907   5.560   1.533  1.1399 -0.0574  0.4351
    6CHTO   H81 2385   7.993   5.600   1.480  1.3120 -1.1638 -0.1313
    6CHTO    N7 2386   7.839   5.687   1.557  0.3575  0.3793 -0.5120
    6CHTO   H73 2387   7.881   5.773   1.507 -0.4615  1.3318  0.4158
    6CHTO   H74 2388   7.739   5.689   1.516  1.1334  1.4753 -2.4459
    6CHTO   C40 2389   7.952   5.491   1.666  0.2645 -0.7990 -0.1554
    6CHTO   H82 2390   7.862   5.458   1.717 -1.6294  1.4253 -1.9756
    6CHTO   O26 2391   8.037   5.378   1.628  0.1319  0.3751 -0.5371
    6CHTO   C41 2392   7.968   5.267   1.562 -0.0041 -0.2717 -1.4136
    6CHTO   H83 2393   7.887   5.233   1.627 -1.1199  1.8075 -1.6771
    6CHTO   C52 2394   8.069   5.147   1.535  0.0563 -0.0341 -0.4206
    6CHTO   O35 2395   8.113   5.089   1.659 -0.6261  0.1454 -0.1175
    6CHTO   H71 2396   8.138   5.000   1.641 -0.7129 -0.2646  1.7478
    6CHTO   O28 2397   8.036   5.574   1.746 -0.0703 -0.3765  0.0229
    6CHTO   C42 2398   8.027   5.574   1.897  0.1130  0.3736 -0.4942
    6CHTO   H84 2399   8.133   5.571   1.925  0.3407 -0.1428 -1.3822
    6CHTO   C44 2400   7.961   5.451   1.966  0.5530  0.1632  0.0163
    6CHTO   H86 2401   7.854   5.455   1.947  0.0168  0.3330  2.8626
    6CHTO   O32 2402   8.019   5.338   1.902 -0.5665  0.2095 -0.1856
    6CHTO   H69 2403   7.994   5.320   1.813 -0.0496 -0.9652 -0.1016
    6CHTO   C48 2404   7.975   5.458   2.125  0.1307 -0.1949  0.3628
    6CHTO   H90 2405   8.080   5.453   2.157  0.9279 -0.3454 -2.1394
    6CHTO    N9 2406   7.918   5.338   2.196  0.0918 -0.1548  0.3500
    6CHTO   H77 2407   7.900   5.263   2.120  2.1022 -0.7285  0.3963
    6CHTO   H78 2408   7.825   5.368   2.242 -0.3499  0.2681 -0.8068
    6CHTO   C51 2409   7.905   5.587   2.176 -0.0330  0.6940 -0.7299
    6CHTO   H93 2410   7.804   5.589   2.135 -0.8328  1.5007  1.1946
    6CHTO   O30 2411   7.989   5.695   2.124 -0.4681 -0.5992  0.1172
    6CHTO   C46 2412   7.964   5.701   1.966  0.1302 -0.3889 -0.8277
    6CHTO   H88 2413   7.859   5.709   1.941 -0.7063 -1.9052  2.0273
    6CHTO   C53 2414   8.028   5.837   1.905 -0.0736  0.4215  0.2009
    6CHTO   O72 2415   8.169   5.846   1.912  0.5476  0.0742  0.0302
    6CHTO  H199 2416   8.207   5.804   1.837 -1.1257 -0.8336 -0.3324
    6CHTO   O22 2417   7.902   5.615   2.314  0.6548  0.7264 -0.2326
    6CHTO   C31 2418   7.821   5.713   2.383 -0.4788  0.1338  0.0653
    6CHTO   H59 2419   7.839   5.695   2.491 -1.4639 -0.1676  0.1876
    6CHTO   C29 2420   7.854   5.864   2.359 -0.4845  0.2070  0.1284
    6CHTO   H57 2421   7.853   5.879   2.250  0.9207  3.4999  0.5125
    6CHTO   O21 2422   7.988   5.892   2.394 -0.5123 -0.2336 -0.4919
    6CHTO   H37 2423   8.001   5.985   2.402  2.0259 -0.2897 -3.2335
    6CHTO   C27 2424   7.750   5.963   2.433 -0.3438  0.7237 -0.0492
    6CHTO   H55 2425   7.785   5.959   2.537  0.0693  0.3612 -0.1997
    6CHTO    N5 2426   7.761   6.100   2.392 -0.9366  0.0103  0.3287
    6CHTO   H43 2427   7.787   6.168   2.472  0.4829  0.7286 -0.7138
    6CHTO   H44 2428   7.840   6.104   2.319 -0.1110 -0.2657  1.1956
    6CHTO   C25 2429   7.606   5.915   2.419  0.2632  0.2650  0.7432
    6CHTO   H53 2430   7.568   5.942   2.319 -0.5134  2.7565  1.6727
    6CHTO   O17 2431   7.583   5.771   2.438  0.0607  0.1071  0.4626
    6CHTO   C32 2432   7.665   5.682   2.363 -0.3462 -0.6323  0.3260
    6CHTO   H60 2433   7.634   5.697   2.260 -2.7777  1.0548  1.2783
    6CHTO   C36 2434   7.633   5.532   2.403 -0.0471 -0.2149 -0.0413
    6CHTO   O25 2435   7.616   5.506   2.541  0.2761  0.4279  0.2285
    6CHTO   H40 2436   7.530   5.476   2.562  0.8579 -1.0929  0.5173
    6CHTO   O15 2437   7.507   6.002   2.541 -0.0479 -0.2036 -0.4234
    6CHTO   C19 2438   7.395   6.093   2.563 -0.1679 -1.0715 -0.0068
    6CHTO   H47 2439   7.371   6.077   2.670  0.0648  0.6538  0.3212
    6CHTO   C20 2440   7.425   6.245   2.551 -0.2916 -0.4555 -0.1035
    6CHTO   H48 2441   7.466   6.269   2.452 -1.9324  0.1939 -0.6511
    6CHTO   O19 2442   7.516   6.272   2.655  0.0223  0.7522  0.2725
    6CHTO   H35 2443   7.565   6.345   2.622  0.7603  0.5980  1.0116
    6CHTO   C21 2444   7.291   6.329   2.563 -0.2085  0.1031  0.2235
    6CHTO   H49 2445   7.252   6.314   2.663 -0.2542  1.2365  0.3736
    6CHTO    N4 2446   7.319   6.477   2.548 -0.5789  0.3077  0.0078
    6CHTO   H41 2447   7.408   6.497   2.605 -0.4785  0.3108 -0.1502
    6CHTO   H42 2448   7.241   6.533   2.599 -0.7371 -0.7847  0.9790
    6CHTO   C22 2449   7.188   6.279   2.455  0.2700  0.5444  0.2415
    6CHTO   H50 2450   7.224   6.298   2.354  1.0635  0.1156  0.4428
    6CHTO   O14 2451   7.161   6.136   2.474 -0.0511 -0.2650 -0.1398
    6CHTO   C23 2452   7.272   6.048   2.477 -0.4567  0.1803 -0.2271
    6CHTO   H51 2453   7.301   6.017   2.376 -0.3040 -0.4136 -0.0037
    6CHTO   C34 2454   7.220   5.916   2.539  0.0889  0.2636 -0.3033
    6CHTO   O23 2455   7.101   5.868   2.467  0.2920 -0.2263  0.6475
    6CHTO   H38 2456   7.028   5.926   2.477  0.9625  0.4908  1.4009
    6CHTO   O16 2457   7.054   6.335   2.472  0.4982  0.2804  0.0823
    6CHTO   C24 2458   6.945   6.333   2.336  0.6724  0.0341  0.7683
    6CHTO   H52 2459   6.981   6.270   2.255  2.2425  1.7793  0.0703
    6CHTO   C26 2460   6.916   6.472   2.283 -0.9712 -0.1117 -0.7831
    6CHTO   H54 2461   6.889   6.533   2.371  1.9234  2.7299 -1.7741
    6CHTO   O20 2462   7.044   6.512   2.225  0.0199  0.2167  0.1633
    6CHTO   H36 2463   7.026   6.575   2.158  1.3452 -1.2424 -1.6164
    6CHTO   C30 2464   6.800   6.474   2.176  0.2058 -0.0824 -0.0387
    6CHTO   H58 2465   6.818   6.400   2.096  0.5283 -0.0453  0.0010
    6CHTO    N6 2466   6.783   6.600   2.098  0.2995 -0.1875  0.1400
    6CHTO   H45 2467   6.687   6.638   2.128 -0.7449 -2.0623 -0.6993
    6CHTO   H46 2468   6.860   6.675   2.107  1.5346 -1.6596  2.0982
    6CHTO   C33 2469   6.673   6.425   2.253 -0.4510 -0.1212  0.3753
    6CHTO   H61 2470   6.649   6.474   2.348 -0.5514 -1.3571  0.9875
    6CHTO   O18 2471   6.701   6.293   2.283 -0.1179  0.0049  0.1778
    6CHTO   C28 2472   6.808   6.273   2.380 -0.3633 -0.4865 -0.6842
    6CHTO   H56 2473   6.782   6.318   2.476 -2.0320 -0.3412 -1.1884
    6CHTO   C35 2474   6.821   6.124   2.410 -0.9489 -0.4608  0.0166
    6CHTO   O24 2475   6.905   6.085   2.519 -0.3576  0.4094 -0.1404
    6CHTO   H39 2476   6.991   6.124   2.514  0.3237 -0.7985  1.6372
    6CHTO    O9 2477   6.551   6.443   2.179  0.6423 -0.0081 -0.6450
    6CHTO   C13 2478   6.426   6.486   2.276  0.5057  0.1723  0.3218
    6CHTO   H26 2479   6.452   6.577   2.335  1.1245 -0.1540  0.5526
    6CHTO   C11 2480   6.375   6.366   2.368 -0.2541 -0.8099 -0.0208
    6CHTO   H24 2481   6.449   6.344   2.447  1.4135 -0.3508 -1.4369
    6CHTO    O8 2482   6.346   6.245   2.287  0.1558 -0.0722  0.2490
    6CHTO    H3 2483   6.316   6.273   2.202 -1.9299  0.7673  1.2232
    6CHTO    C9 2484   6.247   6.417   2.444 -0.4970  0.5418 -0.5610
    6CHTO   H22 2485   6.275   6.505   2.504 -2.8887  0.3591  0.9287
    6CHTO    N2 2486   6.201   6.325   2.550  0.2786 -0.1345  0.5453
    6CHTO   H10 2487   6.135   6.380   2.615 -0.9713  0.5387 -1.2551
    6CHTO   H11 2488   6.155   6.237   2.508 -0.3296  1.3108 -1.8892
    6CHTO    C7 2489   6.141   6.462   2.341 -1.1179 -0.2456 -0.3736
    6CHTO   H20 2490   6.055   6.504   2.397 -1.2261  0.9017 -1.3703
    6CHTO    O4 2491   6.185   6.562   2.251 -0.7555  0.2348  0.1119
    6CHTO   C14 2492   6.308   6.533   2.181  0.5751 -0.2035 -0.2648
    6CHTO   H27 2493   6.343   6.631   2.143 -0.2255  0.6436  1.1870
    6CHTO   C18 2494   6.291   6.446   2.051 -0.4267  1.0012  0.3316
    6CHTO   O13 2495   6.206   6.516   1.957 -0.4588  0.1680  0.1209
    6CHTO    H7 2496   6.119   6.531   1.988 -1.2709  1.1312 -2.4720
    6CHTO    O2 2497   6.083   6.334   2.245  0.0191 -0.6412 -0.6180
    6CHTO    C1 2498   5.949   6.324   2.198  0.1467  0.3699 -0.0388
    6CHTO   H14 2499   5.950   6.253   2.112  1.7239  0.9847 -0.5371
    6CHTO    C2 2500   5.869   6.457   2.156 -0.8421 -0.5468  0.0959
    6CHTO   H15 2501   5.880   6.531   2.237 -0.4335  2.0148 -2.2085
    6CHTO    O6 2502   5.929   6.509   2.035 -0.3002  0.4480 -0.4145
    6CHTO    H1 2503   5.926   6.441   1.971 -0.5725  0.4417 -0.3957
    6CHTO    C3 2504   5.718   6.437   2.127 -0.7834  0.4640 -0.3868
    6CHTO   H16 2505   5.709   6.370   2.040  0.3435  1.2896 -1.1544
    6CHTO    N1 2506   5.653   6.566   2.101 -0.4690  0.2796  0.0747
    6CHTO    H8 2507   5.682   6.643   2.171 -2.3642  0.6313  0.4956
    6CHTO    H9 2508   5.673   6.591   1.998  0.6060  3.2522  0.9285
    6CHTO    C4 2509   5.658   6.354   2.250 -0.0515  0.2494 -0.2990
    6CHTO   H17 2510   5.657   6.412   2.343  1.2222 -0.7481  0.3520
    6CHTO    O1 2511   5.725   6.226   2.264 -0.0658 -0.0520 -0.1346
    6CHTO    C5 2512   5.870   6.241   2.299 -0.1251 -0.0664 -0.6345
    6CHTO   H18 2513   5.863   6.289   2.397 -2.8822  2.1619 -1.8494
    6CHTO   C16 2514   5.926   6.099   2.311  0.2530 -0.3052  0.6409
    6CHTO   O11 2515   6.040   6.077   2.392 -0.0712  0.0982 -0.7996
    6CHTO    H5 2516   6.105   6.145   2.381 -1.3669  1.1685 -2.0007
    6CHTO    O3 2517   5.529   6.310   2.212 -0.8664  0.1305 -0.0938
    6CHTO    C6 2518   5.422   6.304   2.304 -0.1985  0.4856 -0.0526
    6CHTO   H19 2519   5.441   6.333   2.407 -0.0357 -3.0370  0.9566
    6CHTO    C8 2520   5.304   6.403   2.268  0.0521 -0.0241 -0.2292
    6CHTO   H21 2521   5.270   6.364   2.172 -1.6690 -1.2322  0.8382
    6CHTO    O7 2522   5.360   6.534   2.257 -0.1218 -0.6038 -0.3275
    6CHTO    H2 2523   5.292   6.596   2.235  0.8419  0.4217 -0.4651
    6CHTO   C12 2524   5.196   6.386   2.377  0.0145  0.7595 -1.0199
    6CHTO   H25 2525   5.253   6.395   2.471 -1.4594  1.8097 -0.2086
    6CHTO    N3 2526   5.096   6.496   2.379 -0.3379  0.4939  0.2051
    6CHTO   H12 2527   5.145   6.592   2.382 -0.6417  0.6524  0.0468
    6CHTO   H13 2528   5.033   6.487   2.292  0.2828  0.1111 -0.2148
    6CHTO   C15 2529   5.142   6.239   2.374 -0.0965  0.9242 -0.2122
    6CHTO   H28 2530   5.080   6.223   2.286 -2.3283  2.0928  1.0771
    6CHTO   O10 2531   5.049   6.203   2.503 -0.0287  0.3118 -0.2044
    6CHTO    H4 2532   5.002   6.125   2.481 -1.6279  1.4509 -0.8656
    6CHTO    O5 2533   5.252   6.143   2.386 -0.2146 -0.5899  0.3285
    6CHTO   C10 2534   5.377   6.161   2.306  0.2822  0.5225  0.1023
    6CHTO   H23 2535   5.364   6.136   2.200 -0.8248 -0.1919  0.3900
    6CHTO   C17 2536   5.481   6.072   2.364 -0.5381 -0.8841  0.2713
    6CHTO   O12 2537   5.458   5.934   2.337  0.5643 -0.4653  0.2272
    6CHTO    H6 2538   5.438   5.885   2.414 -1.6866 -0.1640 -0.1212
    7CHTO  H203 2539   4.732   2.451  -0.389 -3.0141 -1.4156 -2.7428
    7CHTO   O82 2540   4.804   2.417  -0.438 -0.5142 -0.4779  0.2078
    7CHTO  C123 2541   4.925   2.484  -0.395 -0.2350 -0.6806 -0.1411
    7CHTO  H227 2542   4.901   2.578  -0.343 -0.3781 -1.6341  1.5471
    7CHTO   O77 2543   4.981   2.389  -0.306 -0.0763 -0.4216 -0.6574
    7CHTO  C118 2544   5.104   2.427  -0.247  0.5756 -0.5546  0.8984
    7CHTO  H222 2545   5.092   2.528  -0.204 -1.6396 -1.2466  1.9634
    7CHTO  C125 2546   5.150   2.335  -0.128 -0.4160 -0.0639 -0.3791
    7CHTO   O84 2547   5.214   2.216  -0.176 -0.7668  0.2338 -0.8967
    7CHTO  H205 2548   5.192   2.141  -0.124  2.2522 -0.8968 -1.1644
    7CHTO  C114 2549   5.208   2.437  -0.352 -0.4330  0.7662  0.2455
    7CHTO  H218 2550   5.221   2.337  -0.394 -0.0844  0.5364  0.9057
    7CHTO  C116 2551   5.166   2.533  -0.465  1.2648 -0.6893  0.0069
    7CHTO  H220 2552   5.176   2.638  -0.430 -0.5468 -1.2424  2.3397
    7CHTO   O79 2553   5.262   2.521  -0.573 -0.8502 -0.0562  0.5675
    7CHTO  H201 2554   5.224   2.509  -0.658 -1.5672  2.3584  0.5227
    7CHTO  C120 2555   5.018   2.517  -0.513  0.1929 -0.2719  0.4938
    7CHTO  H224 2556   5.023   2.434  -0.587 -0.3682 -1.1619  1.4422
    7CHTO   N21 2557   4.964   2.639  -0.585  0.2285 -0.4832  0.0330
    7CHTO  H211 2558   5.020   2.726  -0.553  0.7178 -0.5638 -0.5928
    7CHTO  H212 2559   4.974   2.612  -0.689  0.9848  0.1283 -0.0609
    7CHTO   O75 2560   5.331   2.474  -0.286 -0.0809 -0.0648 -0.3550
    7CHTO  C112 2561   5.466   2.419  -0.332  0.3743 -0.2719  0.4590
    7CHTO  H216 2562   5.467   2.396  -0.439 -1.6131 -3.7916  1.1190
    7CHTO   O73 2563   5.497   2.307  -0.254  0.4562  0.6081  0.3334
    7CHTO  C113 2564   5.626   2.247  -0.277  0.4677  1.3751 -0.4690
    7CHTO  H217 2565   5.637   2.216  -0.383  2.0637 -1.7324  0.5465
    7CHTO  C124 2566   5.629   2.122  -0.184 -0.2828  0.0966 -0.2773
    7CHTO   O83 2567   5.552   2.016  -0.238  0.1740 -0.9316  0.2279
    7CHTO  H204 2568   5.596   1.975  -0.310  2.5643  2.2574 -0.2524
    7CHTO  C109 2569   5.737   2.346  -0.240 -0.3385 -0.4815  0.0905
    7CHTO  H213 2570   5.726   2.368  -0.132  0.0439  1.8876 -0.3256
    7CHTO  C110 2571   5.715   2.474  -0.320  0.9165 -0.3422  0.2751
    7CHTO  H214 2572   5.738   2.449  -0.424 -0.2104  1.1833 -0.3538
    7CHTO   O78 2573   5.815   2.565  -0.285 -0.1960 -0.4532  0.6525
    7CHTO  H200 2574   5.796   2.644  -0.332  1.6853 -0.2829  0.1218
    7CHTO  C111 2575   5.571   2.533  -0.309  0.4852  0.0518 -0.1923
    7CHTO  H215 2576   5.572   2.585  -0.213  0.3604 -0.6619  0.1962
    7CHTO   N19 2577   5.544   2.634  -0.412  0.1448  0.4233 -0.0180
    7CHTO  H207 2578   5.442   2.667  -0.398  0.2034  0.3962  0.5062
    7CHTO  H208 2579   5.609   2.715  -0.386  3.1710 -1.9146  0.0113
    7CHTO   O74 2580   5.868   2.284  -0.266 -0.3370 -0.5105  0.7937
    7CHTO  C115 2581   5.976   2.322  -0.149 -0.4191 -0.3172  0.4355
    7CHTO  H219 2582   5.968   2.426  -0.117 -0.8509  0.3256 -1.6652
    7CHTO   O76 2583   5.958   2.241  -0.019  0.7654 -0.7280  0.0852
    7CHTO  C122 2584   6.055   2.260   0.086 -0.2811  0.2377  1.3892
    7CHTO  H226 2585   6.048   2.172   0.150 -2.1278 -1.7014 -1.3867
    7CHTO  C126 2586   6.022   2.377   0.171 -0.1558 -0.1441 -0.3991
    7CHTO   O85 2587   5.911   2.357   0.264 -0.5278  0.4161  0.0021
    7CHTO  H206 2588   5.904   2.439   0.309  0.5249  2.1446 -2.8560
    7CHTO  C121 2589   6.204   2.273   0.033  0.4206  0.5816 -0.0002
    7CHTO  H225 2590   6.239   2.378   0.030  0.8700  0.4698  0.9202
    7CHTO   O81 2591   6.292   2.220   0.128 -0.0255 -0.6109 -0.8501
    7CHTO  H202 2592   6.380   2.243   0.107  0.0328 -0.9801 -1.0106
    7CHTO  C119 2593   6.214   2.212  -0.109 -0.3731  0.0062  0.4229
    7CHTO  H223 2594   6.317   2.223  -0.142 -0.9613  0.9557 -1.1179
    7CHTO  C117 2595   6.125   2.294  -0.211  0.1327 -0.3633  0.2238
    7CHTO  H221 2596   6.100   2.242  -0.304 -1.0418  2.5392 -1.1364
    7CHTO   N20 2597   6.183   2.418  -0.256  0.1541 -0.6313  0.5495
    7CHTO  H209 2598   6.226   2.406  -0.354 -1.1580  0.2855 -0.1342
    7CHTO  H210 2599   6.102   2.487  -0.272  0.2069 -0.7479 -0.2356
    7CHTO   O80 2600   6.201   2.056  -0.116  0.5281 -0.4442 -0.2004
    7CHTO  C103 2601   6.199   1.972  -0.261 -0.8373  0.1450 -0.2122
    7CHTO  H190 2602   6.167   2.040  -0.340 -1.6610  0.8320  0.7057
    7CHTO  C101 2603   6.330   1.909  -0.298  0.6446 -0.1609  0.3005
    7CHTO  H188 2604   6.363   1.842  -0.219  0.2681 -0.4227  0.2389
    7CHTO   O68 2605   6.439   2.032  -0.316  0.1196 -1.0299  0.3052
    7CHTO  H168 2606   6.526   2.023  -0.282  0.5006  3.2416  0.7558
    7CHTO   C99 2607   6.313   1.824  -0.433 -0.0236 -0.2492  0.2003
    7CHTO  H186 2608   6.268   1.885  -0.513  2.1250  2.1688  0.7777
    7CHTO   N17 2609   6.434   1.764  -0.493  0.1600 -0.3527  0.0019
    7CHTO  H174 2610   6.415   1.729  -0.594  1.2979 -1.1135  0.0331
    7CHTO  H175 2611   6.513   1.838  -0.498 -0.6087  0.4675 -0.0040
    7CHTO   C97 2612   6.201   1.712  -0.404 -0.4136 -0.5734 -0.0074
    7CHTO  H184 2613   6.243   1.648  -0.325  2.7987  0.4309 -0.7995
    7CHTO   O64 2614   6.075   1.775  -0.360 -0.0961  0.5894 -0.7888
    7CHTO  C104 2615   6.088   1.861  -0.246  1.1293  0.2386  0.3961
    7CHTO  H191 2616   6.108   1.807  -0.153 -0.4174 -1.4631 -0.2155
    7CHTO  C108 2617   5.951   1.926  -0.223 -0.3973  0.3654 -0.5854
    7CHTO   O71 2618   5.838   1.832  -0.198  0.3427 -0.7259  0.4192
    7CHTO  H171 2619   5.798   1.815  -0.281 -1.1506 -1.1129  1.2002
    7CHTO   O62 2620   6.161   1.642  -0.523  0.3378 -0.2007  0.0446
    7CHTO   C91 2621   6.127   1.505  -0.515 -0.5780  0.5893 -0.2438
    7CHTO  H178 2622   6.218   1.455  -0.547 -1.2201 -1.7996  1.4890
    7CHTO   C92 2623   6.025   1.471  -0.632 -0.1327 -0.3773 -0.9311
    7CHTO  H179 2624   6.066   1.506  -0.728 -0.0969  0.8369 -0.4791
    7CHTO   O66 2625   6.019   1.327  -0.650  0.2870 -0.1102 -0.3763
    7CHTO  H166 2626   5.990   1.292  -0.568 -1.1155 -0.1055 -0.8463
    7CHTO   C93 2627   5.883   1.531  -0.604  0.2922 -0.4458 -0.0228
    7CHTO  H180 2628   5.815   1.483  -0.676  1.0596 -2.5263  0.6140
    7CHTO   N16 2629   5.864   1.674  -0.632  0.1506  0.4183  0.1160
    7CHTO  H172 2630   5.766   1.709  -0.604 -0.5994 -2.1824  0.8349
    7CHTO  H173 2631   5.891   1.687  -0.735  2.6938 -1.5460  0.4874
    7CHTO   C94 2632   5.833   1.507  -0.461 -0.0427  0.5986 -0.3699
    7CHTO  H181 2633   5.841   1.594  -0.396 -0.1878 -1.2437  2.1877
    7CHTO   O61 2634   5.926   1.417  -0.394  0.0229  0.7664  0.4978
    7CHTO   C95 2635   6.068   1.457  -0.378  0.4319 -0.2999  0.3017
    7CHTO  H182 2636   6.071   1.540  -0.307 -0.4177  0.2395 -0.2771
    7CHTO  C106 2637   6.152   1.339  -0.325 -0.1210  0.3881 -0.1640
    7CHTO   O69 2638   6.098   1.284  -0.207  0.5334  0.3969 -0.2818
    7CHTO  H169 2639   6.169   1.237  -0.167 -0.0115  0.0293  0.2577
    7CHTO   O63 2640   5.689   1.456  -0.458  0.0198  0.2038  0.0838
    7CHTO   C96 2641   5.591   1.514  -0.343  0.2657  0.1213  0.0492
    7CHTO  H183 2642   5.579   1.621  -0.364  0.0483  0.9618  4.1513
    7CHTO   C98 2643   5.648   1.499  -0.196  0.0616  0.1051 -0.3377
    7CHTO  H185 2644   5.749   1.542  -0.188  0.9119 -2.0636  1.0859
    7CHTO   O67 2645   5.559   1.579  -0.117 -0.2974 -0.0999  0.2091
    7CHTO  H167 2646   5.485   1.535  -0.080  0.6801 -0.3251  1.9943
    7CHTO  C102 2647   5.636   1.348  -0.127  0.5585 -0.1963  0.5669
    7CHTO  H189 2648   5.620   1.366  -0.020  2.9398 -2.3985  1.3530
    7CHTO   N18 2649   5.757   1.266  -0.140 -0.0739 -0.8266 -0.2311
    7CHTO  H176 2650   5.839   1.304  -0.080 -0.2447  0.0393 -0.5438
    7CHTO  H177 2651   5.744   1.163  -0.108 -0.6406 -0.2240  1.5560
    7CHTO  C105 2652   5.512   1.272  -0.179  0.3134 -0.2672  0.2757
    7CHTO  H192 2653   5.536   1.205  -0.262  0.1838  0.5995 -0.4744
    7CHTO   O65 2654   5.414   1.363  -0.236 -0.4694  0.2908 -0.6073
    7CHTO  C100 2655   5.447   1.440  -0.357  0.3321 -0.4272  0.1207
    7CHTO  H187 2656   5.448   1.368  -0.440  0.0606 -0.0189 -0.2379
    7CHTO  C107 2657   5.335   1.534  -0.397 -0.2306  0.2911 -0.3420
    7CHTO   O70 2658   5.343   1.662  -0.335 -0.7186  0.2489 -0.6187
    7CHTO  H170 2659   5.351   1.647  -0.243  0.2610 -1.2204 -0.9306
    7CHTO   O57 2660   5.469   1.183  -0.034  0.3821  0.1056  0.0063
    7CHTO   C85 2661   5.470   1.041  -0.029  0.5135  0.0751 -0.0563
    7CHTO  H157 2662   5.540   1.007  -0.108  0.1498  0.8614 -0.7341
    7CHTO   C83 2663   5.337   0.981  -0.066  0.1869 -0.8577  0.4250
    7CHTO  H155 2664   5.317   1.025  -0.164 -0.7738 -1.7480  0.2163
    7CHTO   O56 2665   5.236   1.022   0.028  0.5739  0.1703  0.0218
    7CHTO  H135 2666   5.156   0.974   0.016  0.0581  0.9271  0.3664
    7CHTO   C81 2667   5.359   0.828  -0.082 -0.2639 -0.8308  0.2675
    7CHTO  H153 2668   5.425   0.805  -0.166 -0.9200  2.5148 -1.2424
    7CHTO   N14 2669   5.235   0.761  -0.141 -0.0784 -0.0830  0.0549
    7CHTO  H141 2670   5.262   0.697  -0.222  1.8857  1.1436 -0.2857
    7CHTO  H142 2671   5.164   0.832  -0.180  0.6614  1.1777  0.9713
    7CHTO   C79 2672   5.408   0.762   0.053 -0.1022 -0.1642 -0.2735
    7CHTO  H151 2673   5.448   0.664   0.027 -0.8309 -0.2884 -0.9622
    7CHTO   O52 2674   5.528   0.829   0.103 -0.4126 -0.0728  0.0453
    7CHTO   C86 2675   5.506   0.976   0.112 -0.8066  1.2363 -0.4987
    7CHTO  H158 2676   5.423   0.983   0.185  0.1587 -3.4637  1.2368
    7CHTO   C90 2677   5.630   1.043   0.182 -0.3693 -0.2790 -0.5125
    7CHTO   O60 2678   5.595   1.082   0.314  0.1273 -0.1345  0.4369
    7CHTO  H138 2679   5.578   1.004   0.363 -3.0698  0.7020  0.8152
    7CHTO   O50 2680   5.300   0.759   0.151 -0.5511 -0.2379 -0.0228
    7CHTO   C73 2681   5.310   0.643   0.233 -0.1635 -0.3025 -0.4081
    7CHTO  H145 2682   5.409   0.595   0.231 -0.7135 -1.4894  0.1336
    7CHTO   C74 2683   5.212   0.543   0.171  0.0760  0.5633  0.4361
    7CHTO  H146 2684   5.243   0.538   0.065 -0.9101  0.9584  0.1205
    7CHTO   O54 2685   5.227   0.412   0.223 -0.3577 -0.0934 -0.1442
    7CHTO  H133 2686   5.315   0.398   0.254 -0.3447 -2.4353 -1.1141
    7CHTO   C75 2687   5.064   0.593   0.182 -0.5805  0.4528  0.4746
    7CHTO  H147 2688   5.058   0.691   0.132 -1.6329  0.7841  1.2271
    7CHTO   N13 2689   4.967   0.505   0.109  0.6106  0.2963 -0.3592
    7CHTO  H139 2690   5.003   0.474   0.012  0.1215 -1.7839  0.1002
    7CHTO  H140 2691   4.883   0.570   0.092 -0.6160 -1.7136 -2.2439
    7CHTO   C76 2692   5.035   0.628   0.332  0.3515  0.2834 -0.6077
    7CHTO  H148 2693   5.050   0.535   0.388 -2.0234  0.6683  0.7158
    7CHTO   O49 2694   5.129   0.727   0.374  0.0640  0.0267 -0.1112
    7CHTO   C77 2695   5.263   0.668   0.380 -1.2791 -0.6062 -0.0890
    7CHTO  H149 2696   5.292   0.579   0.435 -2.1232 -2.1060 -2.0240
    7CHTO   C88 2697   5.353   0.772   0.446  0.4556 -0.1819  0.9110
    7CHTO   O58 2698   5.306   0.795   0.589  0.2167 -0.3354  0.2700
    7CHTO  H136 2699   5.333   0.716   0.631 -1.4192 -0.5551  0.9164
    7CHTO   O51 2700   4.896   0.698   0.345  0.1244  0.7742  0.2284
    7CHTO   C78 2701   4.835   0.678   0.484  0.7455  0.3680 -0.1462
    7CHTO  H150 2702   4.908   0.644   0.561 -2.6319 -3.1894  1.6509
    7CHTO   C80 2703   4.736   0.561   0.468 -0.3297  0.0202  0.4433
    7CHTO  H152 2704   4.659   0.599   0.398  0.0813 -1.1048 -0.6324
    7CHTO   O55 2705   4.803   0.450   0.416  0.2788  0.4512  0.3951
    7CHTO  H134 2706   4.791   0.376   0.471  0.8079  0.8388  1.0357
    7CHTO   C84 2707   4.661   0.526   0.603  0.2172 -0.6617  0.0018
    7CHTO  H156 2708   4.729   0.484   0.677 -0.0063 -0.4876  0.3068
    7CHTO   N15 2709   4.563   0.412   0.587 -0.3309 -0.2700 -1.0639
    7CHTO  H143 2710   4.554   0.345   0.670 -2.1929  1.8755  0.5336
    7CHTO  H144 2711   4.467   0.455   0.569  0.2867  1.1975 -0.8753
    7CHTO   C87 2712   4.589   0.647   0.662  0.1683 -0.8499 -0.0552
    7CHTO  H159 2713   4.498   0.664   0.605 -0.9344  2.1724  2.4420
    7CHTO   O53 2714   4.704   0.793   0.659  0.0363 -0.5881 -0.2583
    7CHTO   C82 2715   4.761   0.808   0.527 -0.2397  0.3400 -0.2427
    7CHTO  H154 2716   4.674   0.823   0.463  0.0797 -1.1473 -1.0413
    7CHTO   C89 2717   4.846   0.933   0.518 -0.3581  0.0712  0.0818
    7CHTO   O59 2718   4.977   0.917   0.579 -0.0454  0.0401  0.0730
    7CHTO  H137 2719   4.974   0.906   0.672 -0.5928 -0.4776 -0.0011
    7CHTO   O45 2720   4.540   0.622   0.827  0.3564 -0.3531 -0.2853
    7CHTO   C67 2721   4.599   0.707   0.928 -0.1659 -0.1457 -0.5642
    7CHTO  H124 2722   4.688   0.755   0.888 -0.1905 -1.3382 -2.0825
    7CHTO   C65 2723   4.497   0.822   0.969  0.2290  0.3133  0.5780
    7CHTO  H122 2724   4.398   0.779   0.954  0.7749 -0.3167 -1.4253
    7CHTO   O44 2725   4.521   0.930   0.875  0.3425  0.0102 -0.2047
    7CHTO  H102 2726   4.589   0.983   0.910 -0.0505 -0.4609  1.3165
    7CHTO   C63 2727   4.519   0.856   1.123 -0.0004  0.2905  0.2563
    7CHTO  H120 2728   4.471   0.777   1.181 -0.1310  0.1618 -0.0280
    7CHTO   N11 2729   4.438   0.975   1.164  0.0583 -0.3466  0.1624
    7CHTO  H108 2730   4.436   0.993   1.270  4.2297 -0.3060  0.3085
    7CHTO  H109 2731   4.467   1.058   1.104  0.7568 -1.4325 -1.0136
    7CHTO   C61 2732   4.673   0.846   1.164  0.6727  0.3088 -0.0787
    7CHTO  H118 2733   4.679   0.872   1.271  0.7626  1.5603 -0.3767
    7CHTO   O40 2734   4.719   0.710   1.149 -0.1432  0.0433  0.7786
    7CHTO   C68 2735   4.652   0.621   1.046  0.0778 -0.4367  0.0938
    7CHTO  H125 2736   4.564   0.570   1.092  0.7550 -1.5327  0.2014
    7CHTO   C72 2737   4.749   0.509   0.998  0.0801 -0.3439  0.4236
    7CHTO   O48 2738   4.792   0.419   1.100 -0.3051 -0.2688  0.0850
    7CHTO  H105 2739   4.863   0.461   1.146 -3.2267  2.2109  2.5487
    7CHTO   O38 2740   4.750   0.925   1.077 -0.1352  0.1415 -0.1380
    7CHTO   C55 2741   4.870   0.992   1.113 -0.4229 -0.0807  0.6802
    7CHTO  H112 2742   4.921   0.944   1.198  0.4108 -0.7987 -0.2257
    7CHTO   C56 2743   4.833   1.145   1.135 -0.1947 -0.0797  0.5423
    7CHTO  H113 2744   4.772   1.181   1.052  1.2083 -0.1485 -0.5356
    7CHTO   O42 2745   4.758   1.149   1.257 -0.2005  0.8300  0.3120
    7CHTO  H100 2746   4.686   1.090   1.260 -0.1074  0.7639  3.8001
    7CHTO   C57 2747   4.965   1.236   1.148 -0.4493 -0.6087 -0.4019
    7CHTO  H114 2748   5.006   1.198   1.241 -0.6938 -2.3067 -0.9702
    7CHTO   N10 2749   4.940   1.384   1.163 -0.4559 -0.0761 -0.4199
    7CHTO  H106 2750   4.841   1.404   1.127 -0.1267 -0.5231 -1.6013
    7CHTO  H107 2751   5.012   1.444   1.109  0.1021 -0.9573 -0.6763
    7CHTO   C58 2752   5.065   1.205   1.035  0.1194 -0.4139 -0.0200
    7CHTO  H115 2753   5.024   1.246   0.940 -1.3854 -0.6277  0.5165
    7CHTO   O37 2754   5.087   1.064   1.024 -0.7405 -0.3078  0.2046
    7CHTO   C59 2755   4.974   0.980   0.998  0.4980  0.1579  0.0538
    7CHTO  H116 2756   4.927   1.007   0.903 -1.1452 -1.3181  0.4190
    7CHTO   C70 2757   5.019   0.835   0.983  0.0270  0.5557 -0.7582
    7CHTO   O46 2758   5.098   0.803   0.866  0.3633 -0.0983  0.3806
    7CHTO  H103 2759   5.055   0.842   0.793  3.4341  0.4329 -1.2167
    7CHTO   O39 2760   5.213   1.279   1.059 -0.2516  0.3413 -0.0052
    7CHTO   C60 2761   5.326   1.230   0.986  0.0140 -0.0063 -0.1043
    7CHTO  H117 2762   5.343   1.129   1.021 -0.9993 -0.3161 -0.4975
    7CHTO   C62 2763   5.291   1.209   0.827 -0.5533 -0.2829 -0.2877
    7CHTO  H119 2764   5.218   1.127   0.811 -0.9773  0.3345 -1.5794
    7CHTO   O43 2765   5.231   1.324   0.777  0.2944  0.3916 -0.2227
    7CHTO  H101 2766   5.137   1.318   0.777  0.3831 -1.3679  0.2494
    7CHTO   C66 2767   5.423   1.170   0.747 -0.0250 -0.0924  0.1869
    7CHTO  H123 2768   5.446   1.066   0.774 -1.7680 -0.7936 -0.9409
    7CHTO   N12 2769   5.405   1.153   0.601 -0.0107 -0.0385 -0.2813
    7CHTO  H110 2770   5.330   1.226   0.573  1.4214  1.6457  0.1889
    7CHTO  H111 2771   5.491   1.174   0.540 -0.9088  0.8280 -1.2700
    7CHTO   C69 2772   5.545   1.267   0.767 -0.0043 -0.7105  0.0072
    7CHTO  H126 2773   5.504   1.369   0.755  1.8225 -0.1576 -1.5828
    7CHTO   O41 2774   5.580   1.253   0.932  0.1921  0.0874  0.2546
    7CHTO   C64 2775   5.463   1.305   1.015 -0.5351 -0.6359  0.4404
    7CHTO  H121 2776   5.442   1.413   0.999 -2.7209 -1.2308 -0.8688
    7CHTO   C71 2777   5.498   1.280   1.162  0.9509 -0.9276 -0.0438
    7CHTO   O47 2778   5.623   1.319   1.200 -0.0062 -0.3352  0.1591
    7CHTO  H104 2779   5.608   1.341   1.290  0.4648  1.0996 -0.0903
    7CHTO   O34 2780   5.674   1.252   0.662 -0.5958 -0.4300 -0.1533
    7CHTO   C49 2781   5.784   1.180   0.701 -1.0802 -0.3676 -0.1703
    7CHTO   H91 2782   5.804   1.210   0.804  1.5872  0.3422 -0.8518
    7CHTO   C47 2783   5.907   1.226   0.620 -0.2917  0.2746  0.1685
    7CHTO   H89 2784   5.993   1.174   0.667 -0.1488 -1.8100 -2.3093
    7CHTO   O33 2785   5.925   1.371   0.627 -0.2187 -0.1053  0.4212
    7CHTO   H70 2786   5.847   1.420   0.645 -0.8559 -0.8480 -0.3037
    7CHTO   C45 2787   5.895   1.166   0.477 -0.1265 -0.3100 -0.6942
    7CHTO   H87 2788   5.797   1.196   0.436 -0.0556 -0.3320 -0.8817
    7CHTO    N8 2789   6.001   1.202   0.385  0.0190  0.1569 -0.4234
    7CHTO   H75 2790   5.984   1.136   0.301  1.8049  0.1834 -0.8377
    7CHTO   H76 2791   5.985   1.308   0.368  0.1191  0.1816 -0.3679
    7CHTO   C43 2792   5.895   1.008   0.479  0.3557 -0.0278 -0.3390
    7CHTO   H85 2793   5.880   0.959   0.383 -0.9086  0.6930 -0.5091
    7CHTO   O29 2794   5.784   0.972   0.567 -0.3283 -0.2316 -0.4656
    7CHTO   C50 2795   5.755   1.026   0.696 -0.4578  0.4140 -0.8192
    7CHTO   H92 2796   5.650   1.001   0.719 -0.7090  1.4702 -0.7757
    7CHTO   C54 2797   5.841   0.953   0.801  0.6461  0.3349 -0.3209
    7CHTO   O36 2798   5.786   0.980   0.931  0.0945  0.0609  0.3378
    7CHTO   H72 2799   5.843   0.961   1.002  2.7662  1.9885 -1.1871
    7CHTO   O27 2800   6.011   0.948   0.537 -0.3228  0.2742 -0.1558
    7CHTO   C37 2801   6.082   0.832   0.581 -0.6542 -0.3257  0.6470
    7CHTO   H79 2802   6.071   0.822   0.690 -1.1658  0.5454  0.6813
    7CHTO   C38 2803   6.026   0.699   0.517 -0.1139 -0.4003 -0.5176
    7CHTO   H80 2804   6.027   0.705   0.407 -2.9350  0.8683 -0.5284
    7CHTO   O31 2805   5.883   0.686   0.548  0.1218  0.0413 -0.1062
    7CHTO   H68 2806   5.844   0.606   0.518  0.5708 -0.8837  1.7040
    7CHTO   C39 2807   6.095   0.573   0.574 -0.2566  0.0041  0.5607
    7CHTO   H81 2808   6.080   0.577   0.682 -1.6439  1.3787  0.3314
    7CHTO    N7 2809   6.041   0.437   0.516 -0.5593 -0.0377 -0.0012
    7CHTO   H73 2810   5.998   0.388   0.602  1.2173  0.3743  1.1319
    7CHTO   H74 2811   6.132   0.379   0.511 -0.3653  0.1752  1.0390
    7CHTO   C40 2812   6.253   0.590   0.563  0.4157 -0.5347  0.4410
    7CHTO   H82 2813   6.281   0.571   0.459  0.6907 -0.0412  0.4202
    7CHTO   O26 2814   6.294   0.718   0.605  0.3181  0.0907  0.1365
    7CHTO   C41 2815   6.226   0.831   0.536 -0.1868 -0.6353 -0.5907
    7CHTO   H83 2816   6.231   0.812   0.428  0.8269  1.2055 -0.8751
    7CHTO   C52 2817   6.292   0.965   0.573 -0.2294  0.0664 -0.2723
    7CHTO   O35 2818   6.450   0.966   0.581  0.3981  0.0749  0.3711
    7CHTO   H71 2819   6.485   1.049   0.554 -1.5327  0.9371  0.4383
    7CHTO   O28 2820   6.330   0.501   0.648  0.0564 -0.3523 -0.5077
    7CHTO   C42 2821   6.465   0.461   0.616 -0.4214  0.2947 -0.5955
    7CHTO   H84 2822   6.507   0.431   0.712  0.0574 -0.9176 -1.1738
    7CHTO   C44 2823   6.559   0.586   0.567 -0.3216  0.3458 -0.6162
    7CHTO   H86 2824   6.508   0.628   0.480 -0.6528  0.8799 -0.1631
    7CHTO   O32 2825   6.570   0.684   0.672 -0.4251  0.3455 -0.2092
    7CHTO   H69 2826   6.490   0.726   0.695 -0.5649 -0.1292  0.1642
    7CHTO   C48 2827   6.702   0.529   0.525 -0.0137 -0.8940  0.2243
    7CHTO   H90 2828   6.755   0.497   0.615  0.9771  0.1340  0.0144
    7CHTO    N9 2829   6.789   0.636   0.475 -0.3161 -0.7784 -0.1891
    7CHTO   H77 2830   6.881   0.639   0.531 -0.0311  0.3913 -0.6964
    7CHTO   H78 2831   6.809   0.618   0.370 -3.1081  0.7235 -1.0299
    7CHTO   C51 2832   6.680   0.406   0.430  0.2249  0.7002  0.2339
    7CHTO   H93 2833   6.624   0.439   0.342  0.9361 -0.1983 -0.5643
    7CHTO   O30 2834   6.612   0.303   0.505  0.4754 -0.2302 -0.2202
    7CHTO   C46 2835   6.476   0.337   0.519  0.3262  0.5796  0.0573
    7CHTO   H88 2836   6.430   0.360   0.423 -0.5191  0.4111  0.4102
    7CHTO   C53 2837   6.406   0.210   0.571 -0.3719 -0.3006 -0.6345
    7CHTO   O72 2838   6.269   0.207   0.524  0.4647 -0.0723 -0.5311
    7CHTO  H199 2839   6.236   0.293   0.506  1.0322  0.2758  0.0612
    7CHTO   O22 2840   6.798   0.334   0.384 -0.0544  0.3449 -0.9945
    7CHTO   C31 2841   6.818   0.281   0.249 -0.3858  0.4623  0.5620
    7CHTO   H59 2842   6.901   0.208   0.258 -1.5106 -0.6509  2.1901
    7CHTO   C29 2843   6.695   0.203   0.193  0.8394  0.3128  0.3068
    7CHTO   H57 2844   6.602   0.255   0.220 -1.0914 -2.5686 -0.6504
    7CHTO   O21 2845   6.695   0.078   0.264 -0.3285 -0.1075  0.1631
    7CHTO   H37 2846   6.738   0.007   0.221  1.9966  1.0787  0.5044
    7CHTO   C27 2847   6.697   0.182   0.033  0.0550  0.1470 -1.0368
    7CHTO   H55 2848   6.775   0.108   0.012 -0.9063 -1.3422  0.4828
    7CHTO    N5 2849   6.565   0.127  -0.016 -0.1240  0.4719 -0.6470
    7CHTO   H43 2850   6.569   0.093  -0.118  0.5258 -2.4641  0.3246
    7CHTO   H44 2851   6.520   0.048   0.040  1.1970  1.0916  1.3463
    7CHTO   C25 2852   6.736   0.318  -0.038 -0.1522  0.6536  0.6072
    7CHTO   H53 2853   6.656   0.386  -0.004 -0.1829  0.4873  0.8674
    7CHTO   O17 2854   6.866   0.346   0.011 -0.4207 -0.3295  0.2648
    7CHTO   C32 2855   6.866   0.392   0.148  0.5471  0.8148 -0.1466
    7CHTO   H60 2856   6.798   0.477   0.149  0.8823  1.1313 -2.6500
    7CHTO   C36 2857   7.011   0.428   0.192 -0.6691 -0.2013  1.0930
    7CHTO   O25 2858   7.045   0.553   0.131 -0.0606  0.8371  0.2315
    7CHTO   H40 2859   7.095   0.591   0.201 -1.8602  2.4037  0.6925
    7CHTO   O15 2860   6.761   0.297  -0.213  0.3805  0.1685  0.0403
    7CHTO   C19 2861   6.737   0.420  -0.286 -0.5822 -0.0350 -0.2722
    7CHTO   H47 2862   6.752   0.381  -0.388  2.2776 -1.4950  0.6515
    7CHTO   C20 2863   6.597   0.492  -0.271 -0.2157  0.1238  0.0017
    7CHTO   H48 2864   6.582   0.527  -0.168  0.2407 -0.5980  0.3229
    7CHTO   O19 2865   6.498   0.391  -0.300  0.1065 -0.0294 -0.1401
    7CHTO   H35 2866   6.481   0.337  -0.225  0.4933 -0.7443 -0.5638
    7CHTO   C21 2867   6.585   0.611  -0.372 -0.8819 -0.7079 -0.5473
    7CHTO   H49 2868   6.586   0.572  -0.474  0.3267 -1.5839 -0.2266
    7CHTO    N4 2869   6.456   0.680  -0.354 -0.4589  0.1798 -0.1449
    7CHTO   H41 2870   6.443   0.741  -0.442 -0.7413  0.0527 -0.1916
    7CHTO   H42 2871   6.476   0.746  -0.271 -1.3155 -0.3578  0.5027
    7CHTO   C22 2872   6.703   0.708  -0.355  0.7513 -0.5135 -0.1850
    7CHTO   H50 2873   6.697   0.759  -0.259  1.6351 -2.7458  1.0766
    7CHTO   O14 2874   6.827   0.627  -0.374  0.1771  0.2894 -0.4547
    7CHTO   C23 2875   6.846   0.528  -0.269  0.3579  0.2216 -0.0530
    7CHTO   H51 2876   6.837   0.581  -0.173  0.5786  2.1368 -1.0511
    7CHTO   C34 2877   6.983   0.458  -0.283 -0.2483 -0.1308 -0.0237
    7CHTO   O23 2878   7.101   0.546  -0.290 -0.1196  0.1795  0.2288
    7CHTO   H38 2879   7.112   0.590  -0.208  1.0341 -0.5758  0.4871
    7CHTO   O16 2880   6.713   0.803  -0.465  0.0813 -0.0582  0.1318
    7CHTO   C24 2881   6.714   0.962  -0.422 -0.0205 -1.0039  0.5109
    7CHTO   H52 2882   6.701   0.976  -0.314 -0.6929  3.3307 -0.0825
    7CHTO   C26 2883   6.597   1.023  -0.500 -0.4594  0.2601 -0.3740
    7CHTO   H54 2884   6.601   0.994  -0.607 -2.2965 -0.7196 -0.1970
    7CHTO   O20 2885   6.477   0.966  -0.452 -0.7857  0.4002 -0.2629
    7CHTO   H36 2886   6.431   0.920  -0.520 -2.5848  1.6408  0.0718
    7CHTO   C30 2887   6.596   1.177  -0.482  0.3605 -0.1211  0.0386
    7CHTO   H58 2888   6.575   1.209  -0.378 -0.4759  0.4933 -0.3136
    7CHTO    N6 2889   6.483   1.242  -0.553  0.5200 -0.6021  0.3342
    7CHTO   H45 2890   6.397   1.177  -0.551 -0.9883  1.3271 -0.0492
    7CHTO   H46 2891   6.508   1.268  -0.655  0.0282  0.8483  0.5674
    7CHTO   C33 2892   6.728   1.238  -0.524 -0.1938  0.5091  0.1210
    7CHTO   H61 2893   6.746   1.219  -0.631 -0.3936  0.3080  0.1225
    7CHTO   O18 2894   6.828   1.164  -0.453  0.1233 -0.1426  0.3396
    7CHTO   C28 2895   6.848   1.027  -0.463 -0.1121 -0.0312  0.5434
    7CHTO   H56 2896   6.877   0.999  -0.565  0.0080  0.6248  0.3932
    7CHTO   C35 2897   6.964   0.986  -0.375 -0.4623  0.7337  0.0300
    7CHTO   O24 2898   7.088   1.060  -0.397  0.2274 -0.1265 -0.0215
    7CHTO   H39 2899   7.127   1.079  -0.314 -0.2250  0.9675 -0.0594
    7CHTO    O9 2900   6.742   1.385  -0.501  0.2826  0.0034  0.1810
    7CHTO   C13 2901   6.877   1.448  -0.569  0.4557  0.0116  0.5483
    7CHTO   H26 2902   6.880   1.412  -0.674 -2.1159  1.3472 -0.0149
    7CHTO   C11 2903   7.010   1.405  -0.490  0.1819  0.5210 -0.4556
    7CHTO   H24 2904   7.016   1.295  -0.496 -3.5589 -0.0420  3.1411
    7CHTO    O8 2905   6.986   1.423  -0.349  0.2240 -0.1091 -0.0941
    7CHTO    H3 2906   6.955   1.343  -0.311  1.0119 -0.4284 -0.1267
    7CHTO    C9 2907   7.137   1.475  -0.548  0.0886  0.5753 -0.1972
    7CHTO   H22 2908   7.145   1.435  -0.650 -0.5179 -0.3601  0.1115
    7CHTO    N2 2909   7.271   1.429  -0.487  0.5757 -0.0140  0.8086
    7CHTO   H10 2910   7.258   1.420  -0.381 -0.3037  2.4034  0.9294
    7CHTO   H11 2911   7.340   1.511  -0.495 -0.0183  0.6237  2.0890
    7CHTO    C7 2912   7.114   1.633  -0.533 -0.7764  0.0324 -0.1630
    7CHTO   H20 2913   7.203   1.674  -0.584  0.5099 -3.1593 -0.5762
    7CHTO    O4 2914   6.993   1.669  -0.595 -0.2409 -0.1429 -0.2510
    7CHTO   C14 2915   6.861   1.610  -0.570 -0.7951 -0.6230  0.9423
    7CHTO   H27 2916   6.790   1.628  -0.653 -1.4585 -0.0425  1.6305
    7CHTO   C18 2917   6.801   1.676  -0.442  0.1136  0.0692  0.4999
    7CHTO   O13 2918   6.784   1.812  -0.473 -0.4284 -0.6249  0.4616
    7CHTO    H7 2919   6.799   1.831  -0.564  0.2543 -0.7828  0.5397
    7CHTO    O2 2920   7.113   1.685  -0.367  0.5661  0.3666  0.3935
    7CHTO    C1 2921   7.135   1.826  -0.345  0.4340 -0.1773 -0.5032
    7CHTO   H14 2922   7.061   1.882  -0.406  1.4010  0.5265 -1.0539
    7CHTO    C2 2923   7.282   1.875  -0.386 -0.3117  0.6199  0.7243
    7CHTO   H15 2924   7.340   1.798  -0.335 -1.0557  0.0867  0.7824
    7CHTO    O6 2925   7.299   1.873  -0.530  0.1676  0.1776  0.1463
    7CHTO    H1 2926   7.378   1.908  -0.566 -0.3736  0.7754 -0.4795
    7CHTO    C3 2927   7.327   2.016  -0.328 -0.3925 -0.1848 -0.6673
    7CHTO   H16 2928   7.266   2.083  -0.390 -0.6009 -0.9399 -1.2878
    7CHTO    N1 2929   7.470   2.049  -0.348  0.6058 -0.4347 -0.1325
    7CHTO    H8 2930   7.525   2.032  -0.256  0.4825  2.1464  0.4600
    7CHTO    H9 2931   7.472   2.156  -0.361  0.6820 -0.6258 -1.7813
    7CHTO    C4 2932   7.266   2.034  -0.185  1.2055  0.1358 -0.6730
    7CHTO   H17 2933   7.326   1.976  -0.115  2.6529  0.0797 -1.9475
    7CHTO    O1 2934   7.125   1.996  -0.171 -0.6808 -0.1896 -0.0673
    7CHTO    C5 2935   7.100   1.854  -0.193 -1.1542  0.5194 -0.2670
    7CHTO   H18 2936   7.160   1.804  -0.117 -0.2866  1.8277 -0.0720
    7CHTO   C16 2937   6.952   1.826  -0.163 -0.1801 -0.9935 -0.1487
    7CHTO   O11 2938   6.928   1.837  -0.026  0.2505  0.5280  0.6087
    7CHTO    H5 2939   6.842   1.806  -0.003 -0.8567  1.9621 -1.4884
    7CHTO    O3 2940   7.247   2.172  -0.159  0.1107  0.0374 -0.2094
    7CHTO    C6 2941   7.303   2.219  -0.033  0.0778 -0.6644  0.4143
    7CHTO   H19 2942   7.377   2.155   0.015  1.7187  1.1472  0.3256
    7CHTO    C8 2943   7.379   2.355  -0.063  0.6877  0.5275 -0.4632
    7CHTO   H21 2944   7.316   2.421  -0.122 -1.3511 -1.6439 -0.7424
    7CHTO    O7 2945   7.491   2.317  -0.139  0.2840 -0.7234 -0.0250
    7CHTO    H2 2946   7.560   2.294  -0.079  0.6247  2.1752  0.7501
    7CHTO   C12 2947   7.404   2.440   0.071  0.1354 -0.5913  0.1624
    7CHTO   H25 2948   7.490   2.396   0.125  0.3583 -1.2369 -0.7130
    7CHTO    N3 2949   7.468   2.575   0.038 -0.2070  0.1901  0.1076
    7CHTO   H12 2950   7.411   2.634  -0.033  0.9646  0.8660 -0.2810
    7CHTO   H13 2951   7.484   2.630   0.129 -1.0136  0.4040  0.1236
    7CHTO   C15 2952   7.278   2.453   0.163  0.3832 -0.6426  0.7472
    7CHTO   H28 2953   7.205   2.517   0.114  2.3866 -0.3485 -1.9509
    7CHTO   O10 2954   7.315   2.498   0.294 -0.1468  0.3172 -0.1814
    7CHTO    H4 2955   7.302   2.591   0.294 -0.1473  0.3246 -2.0022
    7CHTO    O5 2956   7.224   2.323   0.192  0.6087  0.0790  0.3413
    7CHTO   C10 2957   7.191   2.247   0.070 -0.0526  0.5456 -0.9821
    7CHTO   H23 2958   7.119   2.300   0.007 -2.7755 -0.8986  0.8051
    7CHTO   C17 2959   7.119   2.123   0.122  0.2589 -0.1920  0.3275
    7CHTO   O12 2960   6.991   2.146   0.184 -0.0470  0.2036 -0.0234
    7CHTO    H6 2961   6.933   2.183   0.121 -2.0727 -0.8591  1.1752
    8CHTO  H203 2962   6.834   9.247   2.169 -0.0303  0.5592 -1.1430
    8CHTO   O82 2963   6.918   9.211   2.150 -0.2586 -0.5853 -0.0256
    8CHTO  C123 2964   6.892   9.122   2.040  0.1631  0.5504 -0.5889
    8CHTO  H227 2965   6.989   9.082   2.007  0.5453  1.4718 -0.6152
    8CHTO   O77 2966   6.817   9.007   2.092 -0.4861 -0.4916  0.8419
    8CHTO  C118 2967   6.797   8.891   2.009 -0.0272  0.5700 -0.2039
    8CHTO  H222 2968   6.895   8.850   1.980 -0.1183 -0.0680  0.3767
    8CHTO  C125 2969   6.720   8.778   2.092  0.3002 -0.1478  0.6339
    8CHTO   O84 2970   6.809   8.718   2.187 -0.5934 -0.9061 -0.0055
    8CHTO  H205 2971   6.863   8.649   2.153  2.1147  0.6308  1.0536
    8CHTO  C114 2972   6.711   8.939   1.889  0.2489 -0.4787 -0.3131
    8CHTO  H218 2973   6.615   8.973   1.929  0.3003 -0.1073 -0.5105
    8CHTO  C116 2974   6.769   9.059   1.817  0.3777  0.2420 -0.4149
    8CHTO  H220 2975   6.854   9.024   1.754  0.5454 -4.3223  2.0956
    8CHTO   O79 2976   6.683   9.105   1.715  0.2634  0.3520 -0.1717
    8CHTO  H201 2977   6.680   9.199   1.721  0.9606  0.3496  0.2747
    8CHTO  C120 2978   6.819   9.177   1.909 -0.8257  0.1356 -0.3488
    8CHTO  H224 2979   6.735   9.243   1.939  0.5713  0.1342  3.7454
    8CHTO   N21 2980   6.910   9.268   1.834 -0.0631  0.3233  0.0903
    8CHTO  H211 2981   6.957   9.223   1.747 -1.2693 -0.2632 -0.2683
    8CHTO  H212 2982   6.987   9.316   1.893 -0.4118  2.2909 -1.0210
    8CHTO   O75 2983   6.697   8.825   1.806  0.6409 -0.3701 -0.5702
    8CHTO  C112 2984   6.551   8.825   1.739 -0.2697 -0.1641  0.1699
    8CHTO  H216 2985   6.540   8.915   1.677  2.1026  0.9305  1.2940
    8CHTO   O73 2986   6.452   8.814   1.841  0.1346  0.4766  0.1386
    8CHTO  C113 2987   6.316   8.842   1.805 -0.3311  0.4728 -0.4245
    8CHTO  H217 2988   6.303   8.950   1.782 -1.7847  0.1202 -1.3360
    8CHTO  C124 2989   6.245   8.824   1.940 -0.1572 -0.4851 -0.4896
    8CHTO   O83 2990   6.257   8.694   2.003 -0.5500 -0.3867 -0.3236
    8CHTO  H204 2991   6.220   8.692   2.089  0.3333 -0.6150  0.0527
    8CHTO  C109 2992   6.276   8.738   1.690 -0.0345 -0.1550 -0.0967
    8CHTO  H213 2993   6.263   8.641   1.742  0.9391  0.6462  1.6961
    8CHTO  C110 2994   6.382   8.731   1.578 -0.4218  0.7280  0.0430
    8CHTO  H214 2995   6.365   8.827   1.528  0.0800 -0.3164 -2.1825
    8CHTO   O78 2996   6.346   8.631   1.483 -0.0959  0.5031  0.1056
    8CHTO  H200 2997   6.279   8.657   1.423 -1.2048 -0.5939  0.8236
    8CHTO  C111 2998   6.531   8.707   1.638  0.5388 -0.5720  0.1208
    8CHTO  H215 2999   6.539   8.609   1.687  0.0626 -0.0715  1.2134
    8CHTO   N19 3000   6.629   8.710   1.529 -0.1618  0.1020  0.2897
    8CHTO  H207 3001   6.630   8.796   1.463 -0.0787 -0.9128 -1.0343
    8CHTO  H208 3002   6.582   8.637   1.465 -2.6997  2.4708 -0.6167
    8CHTO   O74 3003   6.145   8.779   1.636  1.0079  0.0898  0.0686
    8CHTO  C115 3004   6.024   8.679   1.654  0.2276  0.0800  0.6490
    8CHTO  H219 3005   6.043   8.578   1.618 -0.7921 -1.1823  3.4783
    8CHTO   O76 3006   5.976   8.655   1.818  0.1909 -0.3464  0.7580
    8CHTO  C122 3007   5.907   8.763   1.881  0.2822 -0.0891  0.9496
    8CHTO  H226 3008   5.990   8.832   1.894  0.1962 -0.0351  1.2228
    8CHTO  C126 3009   5.854   8.724   2.029  0.6757  0.6709  0.6533
    8CHTO   O85 3010   5.775   8.610   2.047  0.4937 -0.6271  0.0515
    8CHTO  H206 3011   5.706   8.631   1.987  1.6772  1.1981 -0.7204
    8CHTO  C121 3012   5.794   8.843   1.800 -0.0383 -0.2908  0.3739
    8CHTO  H225 3013   5.710   8.770   1.793  1.5664 -2.5368  3.4587
    8CHTO   O81 3014   5.745   8.957   1.876 -0.2731  0.1596  0.2480
    8CHTO  H202 3015   5.784   9.034   1.841 -1.1894 -0.6878 -2.8747
    8CHTO  C119 3016   5.846   8.873   1.657  0.2672  1.0818  0.1534
    8CHTO  H223 3017   5.771   8.920   1.594  0.1532  0.8378  0.1077
    8CHTO  C117 3018   5.894   8.745   1.573 -0.5858  0.4904  0.4451
    8CHTO  H221 3019   5.940   8.776   1.480  3.7621 -2.0229  1.5987
    8CHTO   N20 3020   5.789   8.644   1.539  0.3180 -0.0575 -0.0254
    8CHTO  H209 3021   5.825   8.559   1.483 -0.5226  0.0611 -0.7690
    8CHTO  H210 3022   5.751   8.602   1.631  0.8924  0.1526  0.3090
    8CHTO   O80 3023   5.956   8.971   1.649 -0.1986  0.2494  0.2051
    8CHTO  C103 3024   5.919   9.136   1.682 -0.0346 -0.3268  0.0608
    8CHTO  H190 3025   5.814   9.143   1.709  0.5249  1.2509  1.9756
    8CHTO  C101 3026   6.005   9.211   1.797 -0.5584  0.3201 -0.1765
    8CHTO  H188 3027   6.112   9.193   1.788 -0.9373 -1.3053 -1.6928
    8CHTO   O68 3028   5.963   9.150   1.938  0.0261  0.2195  1.3041
    8CHTO  H168 3029   5.871   9.171   1.945 -0.6212 -1.4859 -1.5793
    8CHTO   C99 3030   5.970   9.372   1.790 -0.6054 -0.7719  0.2722
    8CHTO  H186 3031   5.861   9.388   1.807 -0.6136  0.9106 -1.1193
    8CHTO   N17 3032   6.040   9.459   1.893 -0.3356  0.5085  0.1145
    8CHTO  H174 3033   6.050   9.563   1.868 -3.8412  1.0025  0.4099
    8CHTO  H175 3034   5.973   9.470   1.977 -0.0160  3.0937  0.0636
    8CHTO   C97 3035   5.995   9.417   1.645 -0.3946 -0.1338  0.4502
    8CHTO  H184 3036   6.099   9.391   1.617  0.4678  3.3288  0.2257
    8CHTO   O64 3037   5.901   9.341   1.564  0.4355 -0.0846  0.2155
    8CHTO  C104 3038   5.933   9.203   1.550  0.4730 -0.3007  0.8116
    8CHTO  H191 3039   6.038   9.202   1.523  0.7938  2.7976  1.7282
    8CHTO  C108 3040   5.861   9.145   1.429  0.3320  0.1879 -0.2186
    8CHTO   O71 3041   5.722   9.157   1.437  0.2867  0.4698 -0.1116
    8CHTO  H171 3042   5.683   9.239   1.458  0.3628  0.4286  0.1900
    8CHTO   O62 3043   5.954   9.555   1.633 -0.3729 -0.4465 -0.0546
    8CHTO   C91 3044   6.022   9.638   1.541  0.1835 -0.9342  0.6920
    8CHTO  H178 3045   6.121   9.595   1.527  1.4333  1.4927  1.7642
    8CHTO   C92 3046   6.035   9.775   1.611  0.0414  0.2596 -0.1408
    8CHTO  H179 3047   5.942   9.799   1.664  0.2365 -0.9586  0.7565
    8CHTO   O66 3048   6.129   9.757   1.721 -0.8820  0.3267  0.2687
    8CHTO  H166 3049   6.096   9.704   1.791  2.4793 -1.7085  0.4652
    8CHTO   C93 3050   6.078   9.897   1.519 -0.4752  0.3155  0.3829
    8CHTO  H180 3051   6.186   9.896   1.500 -0.2126  3.7372  1.3350
    8CHTO   N16 3052   6.054  10.027   1.580 -0.4472  0.3731  0.6640
    8CHTO  H172 3053   5.951  10.057   1.594 -0.0163  2.2479 -0.1430
    8CHTO  H173 3054   6.112  10.104   1.533 -0.8993 -0.6594 -1.6165
    8CHTO   C94 3055   6.006   9.891   1.377 -0.8489 -0.1557 -0.1859
    8CHTO  H181 3056   5.897   9.896   1.385 -0.7842 -0.0831  0.6713
    8CHTO   O61 3057   6.034   9.764   1.318 -0.0874 -0.0324  0.1067
    8CHTO   C95 3058   5.965   9.658   1.393  0.3528  0.4658 -0.4140
    8CHTO  H182 3059   5.860   9.685   1.393 -0.2629 -1.5581  3.4064
    8CHTO  C106 3060   5.980   9.525   1.305  0.4558 -0.4558 -0.5355
    8CHTO   O69 3061   5.913   9.543   1.181  0.6465 -0.0020 -0.2354
    8CHTO  H169 3062   5.870   9.625   1.164  0.6796 -0.0249 -0.4391
    8CHTO   O63 3063   6.059   9.997   1.289 -0.2930  0.1290 -0.2461
    8CHTO   C96 3064   5.984  10.011   1.138  0.0216  0.0736  0.5324
    8CHTO  H183 3065   5.914   9.928   1.130  0.3740 -0.2667  0.9320
    8CHTO   C98 3066   6.080  10.003   1.022  0.2222  0.1767  0.3187
    8CHTO  H185 3067   6.153  10.085   1.024 -0.3180  0.6628  0.1853
    8CHTO   O67 3068   6.153   9.882   1.041  0.0685  0.4529 -0.3252
    8CHTO  H167 3069   6.210   9.891   1.115  1.4037  0.1586 -1.2921
    8CHTO  C102 3070   5.998  10.018   0.887 -0.8188 -0.4710  0.0095
    8CHTO  H189 3071   5.942   9.924   0.871 -2.3437  0.3687  0.3672
    8CHTO   N18 3072   6.087  10.030   0.764  0.3625  0.3911  0.2308
    8CHTO  H176 3073   6.159  10.111   0.770  2.8273 -1.7292  0.3327
    8CHTO  H177 3074   6.126   9.945   0.710 -0.7973 -0.0319  0.0599
    8CHTO  C105 3075   5.892  10.134   0.895  0.6615 -0.4043 -0.0574
    8CHTO  H192 3076   5.939  10.231   0.876  0.5408  0.0003  1.6165
    8CHTO   O65 3077   5.814  10.136   1.017  0.3233  0.1235  0.2919
    8CHTO  C100 3078   5.903  10.144   1.132  0.2151  0.3447  0.1364
    8CHTO  H187 3079   5.972  10.229   1.121  0.3800  0.5052  2.2589
    8CHTO  C107 3080   5.811  10.174   1.251 -0.0523 -0.1381  0.0637
    8CHTO   O70 3081   5.864  10.228   1.375  0.2664 -0.6068 -0.0627
    8CHTO  H170 3082   5.932  10.170   1.403  1.5279  1.7116  1.9542
    8CHTO   O57 3083   5.785  10.122   0.790 -0.1838  0.0961  0.1040
    8CHTO   C85 3084   5.743  10.233   0.703  0.8342  0.3004 -0.4190
    8CHTO  H157 3085   5.847  10.269   0.685  2.0124 -2.8814 -0.3870
    8CHTO   C83 3086   5.665  10.344   0.776 -0.6029  0.6258 -0.4212
    8CHTO  H155 3087   5.726  10.382   0.857 -1.0057 -1.8933  1.1123
    8CHTO   O56 3088   5.548  10.289   0.848 -0.2379 -0.2163  0.2458
    8CHTO  H135 3089   5.587  10.246   0.922  1.4934  1.5219  0.3827
    8CHTO   C81 3090   5.638  10.454   0.672  0.4146 -0.1523  0.2479
    8CHTO  H153 3091   5.734  10.480   0.629 -0.3671 -0.0250 -1.4478
    8CHTO   N14 3092   5.589  10.580   0.731 -0.5778  0.7871 -0.0661
    8CHTO  H141 3093   5.541  10.640   0.656 -0.7870  0.3185 -0.3140
    8CHTO  H142 3094   5.663  10.638   0.780  1.4083  0.0679 -2.1458
    8CHTO   C79 3095   5.549  10.395   0.554  0.3567 -0.2538  0.6948
    8CHTO  H151 3096   5.530  10.473   0.481  1.2256 -0.7691 -0.0931
    8CHTO   O52 3097   5.619  10.288   0.485  0.1863 -0.0024 -0.2361
    8CHTO   C86 3098   5.672  10.175   0.567 -0.0154 -0.2295 -0.3843
    8CHTO  H158 3099   5.591  10.107   0.603  0.5866  0.2448  1.9313
    8CHTO   C90 3100   5.770  10.092   0.483 -0.3083 -0.3476 -1.2231
    8CHTO   O60 3101   5.692  10.013   0.396 -0.4916 -0.4541  0.1562
    8CHTO  H138 3102   5.706   9.924   0.421  0.7470 -0.5756 -0.8708
    8CHTO   O50 3103   5.419  10.346   0.593  0.0197 -0.8235 -0.5521
    8CHTO   C73 3104   5.281  10.336   0.562 -0.3510  0.6128 -0.9458
    8CHTO  H145 3105   5.261  10.375   0.461 -0.5864  0.9657 -0.7625
    8CHTO   C74 3106   5.185  10.426   0.654  0.1608  0.3985 -0.6506
    8CHTO  H146 3107   5.226  10.527   0.641  0.6345  0.1668 -0.9559
    8CHTO   O54 3108   5.049  10.420   0.601 -0.5845  0.1750 -0.1193
    8CHTO  H133 3109   5.033  10.501   0.558  0.2786 -0.2002 -1.1697
    8CHTO   C75 3110   5.199  10.375   0.801  0.2619  0.1625 -0.1714
    8CHTO  H147 3111   5.300  10.399   0.837  0.5070 -0.8954 -0.1502
    8CHTO   N13 3112   5.106  10.424   0.903  0.2070  0.0607  0.2397
    8CHTO  H139 3113   5.050  10.506   0.859 -0.1449  0.2925  1.1068
    8CHTO  H140 3114   5.159  10.454   0.991  0.4093  0.6756 -0.0939
    8CHTO   C76 3115   5.189  10.214   0.812 -0.8698 -1.1091  0.7537
    8CHTO  H148 3116   5.085  10.182   0.801 -0.9859 -0.3868 -0.3271
    8CHTO   O49 3117   5.263  10.141   0.704  0.3479 -0.1304 -0.3729
    8CHTO   C77 3118   5.245  10.187   0.570  0.7952  0.0296  0.5382
    8CHTO  H149 3119   5.144  10.175   0.529  2.0471 -2.4723 -1.9890
    8CHTO   C88 3120   5.334  10.101   0.472  0.1023  0.2574 -0.5187
    8CHTO   O58 3121   5.321  10.144   0.333 -0.2952 -0.6177  0.0535
    8CHTO  H136 3122   5.412  10.149   0.310 -0.4277 -0.8176 -0.5116
    8CHTO   O51 3123   5.259  10.164   0.940 -0.1120 -0.0962  0.2991
    8CHTO   C78 3124   5.227  10.033   1.014 -0.0999 -0.3213  0.7801
    8CHTO  H150 3125   5.201   9.953   0.941  0.1953  0.5725 -0.3159
    8CHTO   C80 3126   5.112  10.053   1.117 -0.2064 -0.3965  0.2716
    8CHTO  H152 3127   5.137  10.141   1.181  2.2192 -0.6695 -0.2528
    8CHTO   O55 3128   4.999  10.057   1.040 -0.2143 -0.4476 -0.0848
    8CHTO  H134 3129   4.927  10.098   1.084 -0.6191  0.7324 -1.7993
    8CHTO   C84 3130   5.113   9.933   1.217 -0.2166  0.2628  0.0620
    8CHTO  H156 3131   5.073   9.852   1.156 -1.0404 -0.0753  1.0440
    8CHTO   N15 3132   5.005   9.951   1.319  0.1304  0.0241  1.1399
    8CHTO  H143 3133   5.045   9.971   1.416  0.0133 -0.8439  1.3800
    8CHTO  H144 3134   4.925  10.019   1.301  2.1854  2.1728 -0.0187
    8CHTO   C87 3135   5.253   9.914   1.282  0.5935  0.1002  0.1003
    8CHTO  H159 3136   5.261  10.003   1.346  0.7066 -0.0519  0.2980
    8CHTO   O53 3137   5.354   9.891   1.163 -0.6043  0.0784 -0.1260
    8CHTO   C82 3138   5.363  10.004   1.077  0.4917 -0.1492 -0.4428
    8CHTO  H154 3139   5.389  10.093   1.135 -2.3209  1.6997 -1.8736
    8CHTO   C89 3140   5.477   9.978   0.978 -0.7563 -0.5753 -0.1163
    8CHTO   O59 3141   5.598   9.927   1.036  0.6219  0.6956 -0.4857
    8CHTO  H137 3142   5.656   9.899   0.968  0.1440  0.1269 -0.6629
    8CHTO   O45 3143   5.257   9.776   1.384 -0.2191 -0.1722 -0.2021
    8CHTO   C67 3144   5.352   9.768   1.491 -0.3673  0.2848 -0.3127
    8CHTO  H124 3145   5.371   9.661   1.495 -0.8740  0.2451  1.6012
    8CHTO   C65 3146   5.481   9.855   1.476  0.3487 -0.1996  0.1606
    8CHTO  H122 3147   5.445   9.948   1.432 -1.1816 -1.5904 -1.5946
    8CHTO   O44 3148   5.559   9.780   1.386  0.1993  0.4525  0.1506
    8CHTO  H102 3149   5.598   9.843   1.329 -0.4125 -0.5016 -1.3569
    8CHTO   C63 3150   5.542   9.907   1.610  0.1596 -0.2036 -0.0676
    8CHTO  H120 3151   5.474   9.985   1.643 -0.7095 -0.0494 -2.1518
    8CHTO   N11 3152   5.671   9.971   1.608  0.0371 -0.3164 -0.0925
    8CHTO  H108 3153   5.712   9.948   1.705 -0.6548 -0.4078  0.1819
    8CHTO  H109 3154   5.735   9.922   1.537 -0.5304 -0.0316 -0.7980
    8CHTO   C61 3155   5.524   9.785   1.714  0.8099  0.3577 -0.2100
    8CHTO  H118 3156   5.563   9.821   1.810 -2.4215  2.8643  0.2408
    8CHTO   O40 3157   5.383   9.753   1.737  0.3444 -0.0212  0.5094
    8CHTO   C68 3158   5.287   9.800   1.630 -0.3358 -0.2794 -0.5573
    8CHTO  H125 3159   5.278   9.909   1.649 -1.2283  0.1727 -3.2527
    8CHTO   C72 3160   5.150   9.750   1.651 -0.9958  0.1138 -0.1287
    8CHTO   O48 3161   5.139   9.605   1.663  0.1032 -0.6273 -0.1308
    8CHTO  H105 3162   5.166   9.570   1.746  0.7921  1.7889  0.7090
    8CHTO   O38 3163   5.598   9.666   1.673 -0.8043 -0.1281 -0.0921
    8CHTO   C55 3164   5.598   9.542   1.744  0.3525 -0.0331 -0.4261
    8CHTO  H112 3165   5.704   9.519   1.764  0.9009 -0.0151 -3.1762
    8CHTO   C56 3166   5.534   9.436   1.635  0.8627  0.3472 -0.3177
    8CHTO  H113 3167   5.448   9.482   1.583 -1.2242  0.8212  3.3935
    8CHTO   O42 3168   5.626   9.421   1.525 -0.0915 -0.4228 -0.2371
    8CHTO  H100 3169   5.575   9.421   1.446 -0.4574 -0.9301 -0.0014
    8CHTO   C57 3170   5.473   9.309   1.702  0.4776 -0.0632  0.0404
    8CHTO  H114 3171   5.552   9.241   1.732  0.2250 -0.9297 -1.2010
    8CHTO   N10 3172   5.398   9.228   1.607  0.3052 -0.4774 -0.1129
    8CHTO  H106 3173   5.468   9.158   1.565  0.8438 -0.7433  1.1956
    8CHTO  H107 3174   5.329   9.171   1.668 -0.3610 -0.0016 -0.4180
    8CHTO   C58 3175   5.392   9.358   1.824 -0.2759  0.8661 -0.2335
    8CHTO  H115 3176   5.325   9.444   1.799  0.1283  1.9822  2.3781
    8CHTO   O37 3177   5.491   9.412   1.910  0.1282  0.1508  0.7118
    8CHTO   C59 3178   5.532   9.540   1.884 -1.2039  0.0271  0.2465
    8CHTO  H116 3179   5.448   9.609   1.892 -1.9772 -0.7542 -0.9806
    8CHTO   C70 3180   5.641   9.580   1.990 -0.1729  0.1033 -0.0874
    8CHTO   O46 3181   5.692   9.713   1.953  0.1527  0.8821 -0.9461
    8CHTO  H103 3182   5.639   9.778   1.996  0.8116  0.7065  0.1500
    8CHTO   O39 3183   5.312   9.246   1.908 -0.2259 -0.5909 -0.4148
    8CHTO   C60 3184   5.173   9.287   1.925  0.0596 -0.1999 -0.6839
    8CHTO  H117 3185   5.153   9.389   1.893  0.1067  0.7028  2.0654
    8CHTO   C62 3186   5.082   9.199   1.828  0.3956 -0.4134  0.3506
    8CHTO  H119 3187   5.125   9.219   1.728  3.2697  1.1079  1.8238
    8CHTO   O43 3188   5.116   9.063   1.838 -0.0840 -0.4307  0.0220
    8CHTO  H101 3189   5.043   9.013   1.806 -1.1856  0.4457  1.0971
    8CHTO   C66 3190   4.933   9.237   1.847 -0.3433 -0.5013 -0.1819
    8CHTO  H123 3191   4.922   9.343   1.824  1.7086 -0.0859  0.6561
    8CHTO   N12 3192   4.837   9.164   1.760  0.3136  0.2569 -0.4250
    8CHTO  H110 3193   4.873   9.188   1.661  1.2657  0.3926 -0.0557
    8CHTO  H111 3194   4.736   9.197   1.777  0.6419  1.4744 -0.7963
    8CHTO   C69 3195   4.894   9.223   1.997 -0.6394  0.1287 -0.0464
    8CHTO  H126 3196   4.898   9.118   2.033  0.5729 -0.8765 -2.9639
    8CHTO   O41 3197   4.987   9.323   2.073  0.1542 -0.3070  0.2903
    8CHTO   C64 3198   5.135   9.289   2.070  0.2239  0.1323 -0.5774
    8CHTO  H121 3199   5.148   9.192   2.123 -1.1573  0.1880 -0.1116
    8CHTO   C71 3200   5.210   9.399   2.152 -0.5492 -0.5392 -0.0774
    8CHTO   O47 3201   5.220   9.535   2.111  0.4216 -0.0051  0.3710
    8CHTO  H104 3202   5.281   9.601   2.139 -0.3198  1.3783 -1.1510
    8CHTO   O34 3203   4.745   9.264   2.014 -0.2753 -0.0484 -0.2523
    8CHTO   C49 3204   4.662   9.415   2.040  0.0925  1.0278 -0.6313
    8CHTO   H91 3205   4.665   9.439   2.147  1.0102  0.2523 -0.4786
    8CHTO   C47 3206   4.517   9.413   1.997 -0.0887  0.5366  0.5951
    8CHTO   H89 3207   4.462   9.504   2.027 -0.2129  0.5637  0.2974
    8CHTO   O33 3208   4.458   9.296   2.062  0.1097  0.0724  0.2612
    8CHTO   H70 3209   4.421   9.332   2.140 -0.2019  0.3025  0.0096
    8CHTO   C45 3210   4.506   9.396   1.834  0.3095 -0.0559 -0.1962
    8CHTO   H87 3211   4.562   9.306   1.803 -0.1365  0.0234 -1.2564
    8CHTO    N8 3212   4.362   9.378   1.789  0.1215  0.1667  0.1336
    8CHTO   H75 3213   4.295   9.383   1.874 -1.0525 -0.7016 -0.7219
    8CHTO   H76 3214   4.342   9.465   1.729  0.4096  1.1578  1.4454
    8CHTO   C43 3215   4.580   9.519   1.765 -0.3482  0.2369 -0.2580
    8CHTO   H85 3216   4.584   9.499   1.658 -0.8731 -0.6150 -0.1158
    8CHTO   O29 3217   4.714   9.524   1.818  0.3800  0.1419  0.1516
    8CHTO   C50 3218   4.732   9.528   1.961 -0.7318 -0.1464 -0.0789
    8CHTO   H92 3219   4.840   9.519   1.979 -0.6747  1.1533  0.3098
    8CHTO   C54 3220   4.716   9.663   2.019 -0.3772 -0.2807 -0.0356
    8CHTO   O36 3221   4.801   9.759   1.968  0.3595  0.1029 -0.2091
    8CHTO   H72 3222   4.769   9.800   1.891  1.7136  0.2975 -0.6775
    8CHTO   O27 3223   4.500   9.641   1.770  0.1054  0.5309  0.0890
    8CHTO   C37 3224   4.409   9.736   1.707 -0.2136  0.9710 -0.2462
    8CHTO   H79 3225   4.309   9.693   1.696  0.9866 -2.4738  1.5199
    8CHTO   C38 3226   4.414   9.869   1.794  0.7594 -0.0108 -0.3730
    8CHTO   H80 3227   4.519   9.887   1.820  0.7050 -1.9974  1.3076
    8CHTO   O31 3228   4.341   9.839   1.908  0.1191  0.3950 -0.1308
    8CHTO   H68 3229   4.364   9.900   1.976 -1.5224  0.8232  0.0743
    8CHTO   C39 3230   4.358   9.999   1.721 -0.5622 -0.4319 -0.0586
    8CHTO   H81 3231   4.250  10.006   1.714 -0.6596 -1.0909  0.7512
    8CHTO    N7 3232   4.399  10.124   1.796  0.5035 -0.5562 -0.2403
    8CHTO   H73 3233   4.506  10.122   1.812  0.4494 -1.1526  0.0664
    8CHTO   H74 3234   4.358  10.211   1.747 -1.6976 -1.1941  0.3767
    8CHTO   C40 3235   4.415   9.994   1.572  0.3844  0.3616 -0.3281
    8CHTO   H82 3236   4.522  10.003   1.587  0.2281  0.2137  0.9621
    8CHTO   O26 3237   4.380   9.878   1.503  0.4632 -0.4487 -0.3706
    8CHTO   C41 3238   4.459   9.765   1.561  0.7125  0.0524 -0.5735
    8CHTO   H83 3239   4.565   9.789   1.571  0.8669 -0.4217 -1.0680
    8CHTO   C52 3240   4.445   9.650   1.459 -0.7120  0.1526  0.3847
    8CHTO   O35 3241   4.533   9.676   1.341 -0.2628 -0.6369  1.0876
    8CHTO   H71 3242   4.620   9.700   1.367 -1.3187  0.2304  4.0319
    8CHTO   O28 3243   4.366  10.096   1.491 -0.0665 -0.3658  0.0793
    8CHTO   C42 3244   4.343  10.089   1.345 -0.3444 -0.9956 -0.1273
    8CHTO   H84 3245   4.312  10.192   1.322  0.1883 -0.5075  1.2888
    8CHTO   C44 3246   4.233   9.999   1.293  0.0878  0.0427 -0.1343
    8CHTO   H86 3247   4.263   9.894   1.307  1.4157  0.3530 -0.5210
    8CHTO   O32 3248   4.107  10.010   1.367  0.3896  0.7157  0.3841
    8CHTO   H69 3249   4.089  10.101   1.380 -2.1407  0.2853  0.0762
    8CHTO   C48 3250   4.214  10.020   1.135  0.6976  0.0773  0.6956
    8CHTO   H90 3251   4.156  10.113   1.131 -2.3771 -1.7674  0.9025
    8CHTO    N9 3252   4.118   9.923   1.066  0.1750 -0.0757  0.7580
    8CHTO   H77 3253   4.152   9.820   1.061 -0.5249 -0.2574 -0.3655
    8CHTO   H78 3254   4.012   9.924   1.090 -0.0245  0.9265 -0.1044
    8CHTO   C51 3255   4.345  10.035   1.048 -0.1997  0.2112 -0.6902
    8CHTO   H93 3256   4.384   9.934   1.039  0.9494  0.4840  1.0139
    8CHTO   O30 3257   4.434  10.115   1.126 -0.0494 -0.7292 -0.0951
    8CHTO   C46 3258   4.467  10.068   1.264  0.4879  0.2192 -0.0205
    8CHTO   H88 3259   4.490   9.962   1.276  0.3227  0.2721  0.8230
    8CHTO   C53 3260   4.585  10.152   1.312 -0.1262 -0.1375  0.3819
    8CHTO   O72 3261   4.692  10.157   1.215  0.0923 -0.3094 -0.9847
    8CHTO  H199 3262   4.734  10.238   1.236 -1.2373  0.8896 -2.7772
    8CHTO   O22 3263   4.327  10.107   0.921 -0.1635 -0.1782  0.3957
    8CHTO   C31 3264   4.417  10.077   0.811  0.8552 -0.0584  0.1384
    8CHTO   H59 3265   4.396  10.145   0.725  0.6117  0.9614  0.9945
    8CHTO   C29 3266   4.563  10.102   0.848 -0.9776  0.6179 -0.0414
    8CHTO   H57 3267   4.585  10.032   0.930  0.4596 -0.2731 -1.1680
    8CHTO   O21 3268   4.583  10.237   0.899 -0.5285  0.1581 -0.3164
    8CHTO   H37 3269   4.645  10.250   0.968  2.0061  1.0147 -2.6442
    8CHTO   C27 3270   4.663  10.073   0.732  0.5672 -0.6680  0.4421
    8CHTO   H55 3271   4.654  10.142   0.647 -0.6580 -1.2124  0.1163
    8CHTO    N5 3272   4.800  10.070   0.772 -0.3833  0.4085 -0.6010
    8CHTO   H43 3273   4.867  10.004   0.719 -1.3284 -0.6203 -0.5650
    8CHTO   H44 3274   4.847  10.166   0.763  0.9222 -0.1009  0.5306
    8CHTO   C25 3275   4.632   9.922   0.689  0.3929  0.4835  0.3700
    8CHTO   H53 3276   4.650   9.857   0.775 -0.0665  3.2265  2.6224
    8CHTO   O17 3277   4.497   9.895   0.651 -0.1245 -0.2065  0.2431
    8CHTO   C32 3278   4.407   9.925   0.756 -0.2720  0.2743  0.8677
    8CHTO   H60 3279   4.425   9.854   0.837  2.3665 -1.1114 -0.8664
    8CHTO   C36 3280   4.260   9.891   0.706 -0.1276 -0.0166 -0.3159
    8CHTO   O25 3281   4.253   9.753   0.672  0.3882 -0.2270  0.6681
    8CHTO   H40 3282   4.199   9.704   0.731 -2.8975  0.7932 -1.3896
    8CHTO   O15 3283   4.736   9.874   0.574 -0.0408  0.4212  0.2328
    8CHTO   C19 3284   4.793   9.881   0.442  0.0418 -0.6223 -0.5666
    8CHTO   H47 3285   4.731   9.804   0.395 -3.4540  2.0902 -0.5993
    8CHTO   C20 3286   4.786  10.021   0.376  0.5476  0.2705  0.0896
    8CHTO   H48 3287   4.841  10.093   0.437  1.0148 -1.2759  1.5205
    8CHTO   O19 3288   4.644  10.051   0.367 -0.2704  0.4022 -0.2157
    8CHTO   H35 3289   4.606  10.017   0.289  0.0275  2.0555 -1.1030
    8CHTO   C21 3290   4.854  10.023   0.239 -1.1099  0.0906 -0.4455
    8CHTO   H49 3291   4.787   9.967   0.174  1.1774 -1.5806 -1.4574
    8CHTO    N4 3292   4.875  10.156   0.182  0.4263 -0.2375  0.3442
    8CHTO   H41 3293   4.884  10.229   0.261  2.0468  0.4587 -0.4522
    8CHTO   H42 3294   4.798  10.191   0.113 -1.0011  1.5216  2.7261
    8CHTO   C22 3295   4.985   9.945   0.236 -0.3761 -0.1853 -0.0616
    8CHTO   H50 3296   5.060  10.004   0.288  1.0158 -3.5316  1.8582
    8CHTO   O14 3297   4.976   9.814   0.299 -0.8182  0.3107 -0.0891
    8CHTO   C23 3298   4.932   9.823   0.435 -0.6640  0.0572  0.1746
    8CHTO   H51 3299   5.004   9.891   0.485 -0.3732  0.8907 -1.3451
    8CHTO   C34 3300   4.947   9.683   0.490 -0.0015  0.5861  0.4116
    8CHTO   O23 3301   5.084   9.645   0.505  0.3481 -0.0292 -0.2641
    8CHTO   H38 3302   5.121   9.721   0.547 -0.0661  0.7407 -1.2849
    8CHTO   O16 3303   5.026   9.901   0.109 -0.6436  0.0132  0.0599
    8CHTO   C24 3304   5.164   9.831   0.091  0.7144  0.7566  0.3890
    8CHTO   H52 3305   5.215   9.809   0.185  3.4332 -0.1231 -1.2440
    8CHTO   C26 3306   5.248   9.912  -0.002  0.1170 -0.0346  0.7375
    8CHTO   H54 3307   5.186   9.952  -0.085  0.3488  1.9771  1.4874
    8CHTO   O20 3308   5.297  10.033   0.059  0.0348 -0.0680 -0.9906
    8CHTO   H36 3309   5.326  10.008   0.145 -0.0468  0.9768 -0.6459
    8CHTO   C30 3310   5.375   9.836  -0.060  0.7431  0.1859 -0.9092
    8CHTO   H58 3311   5.456   9.821   0.013 -0.8004  0.9971  1.0092
    8CHTO    N6 3312   5.438   9.910  -0.171 -0.6191  0.9795  0.3767
    8CHTO   H45 3313   5.493   9.836  -0.228 -4.0187 -2.7166  1.6239
    8CHTO   H46 3314   5.501   9.985  -0.128 -0.8164  0.7979  0.9813
    8CHTO   C33 3315   5.341   9.692  -0.108 -1.2525 -0.6926 -0.0086
    8CHTO   H61 3316   5.277   9.698  -0.198  0.1389 -1.0588 -1.0441
    8CHTO   O18 3317   5.261   9.632  -0.012 -0.3507  0.0213 -0.4619
    8CHTO   C28 3318   5.129   9.697   0.020  0.0877  0.0416  0.5741
    8CHTO   H56 3319   5.084   9.721  -0.076 -2.5059  0.0665  1.7723
    8CHTO   C35 3320   5.034   9.608   0.098 -0.2206  0.6429  0.4298
    8CHTO   O24 3321   4.999   9.495   0.030  0.0558 -0.5119  0.1466
    8CHTO   H39 3322   4.912   9.487  -0.005 -0.6298 -0.1870  1.7078
    8CHTO    O9 3323   5.459   9.613  -0.146 -0.6330 -0.0120  1.7154
    8CHTO   C13 3324   5.446   9.443  -0.147  0.0892  0.6246 -0.3696
    8CHTO   H26 3325   5.360   9.411  -0.210  1.6254 -2.2447 -1.1187
    8CHTO   C11 3326   5.433   9.386  -0.002 -0.1496 -0.0134  1.0173
    8CHTO   H24 3327   5.331   9.402   0.038 -0.8905  1.4314 -1.3300
    8CHTO    O8 3328   5.522   9.448   0.087 -0.0365 -0.1935 -0.1414
    8CHTO    H3 3329   5.614   9.439   0.071  0.2766  2.4300 -0.0635
    8CHTO    C9 3330   5.464   9.233  -0.004  1.0690  0.4375 -0.1477
    8CHTO   H22 3331   5.397   9.189  -0.079  1.3174 -1.5626  0.7418
    8CHTO    N2 3332   5.428   9.151   0.116  0.8542 -0.1539 -0.3001
    8CHTO   H10 3333   5.400   9.216   0.197 -2.3688 -0.8512 -0.7922
    8CHTO   H11 3334   5.348   9.081   0.097  1.7985 -1.8029  1.5641
    8CHTO    C7 3335   5.616   9.213  -0.053 -0.6918  0.3184 -0.7509
    8CHTO   H20 3336   5.613   9.126  -0.122  0.2949 -0.2019 -0.1554
    8CHTO    O4 3337   5.661   9.325  -0.128  0.3231  0.2092  0.0548
    8CHTO   C14 3338   5.576   9.380  -0.232 -0.1497 -0.3616 -0.1933
    8CHTO   H27 3339   5.539   9.302  -0.302 -2.1885  0.7116 -0.3612
    8CHTO   C18 3340   5.639   9.487  -0.319  0.0503  0.5041  0.1497
    8CHTO   O13 3341   5.765   9.449  -0.375  0.1469  0.3108  0.3727
    8CHTO    H7 3342   5.758   9.415  -0.462  0.8395  0.1079  0.3910
    8CHTO    O2 3343   5.735   9.179   0.072  0.2535 -0.0251 -0.0969
    8CHTO    C1 3344   5.848   9.104   0.019  1.0488  0.7753 -0.0038
    8CHTO   H14 3345   5.844   9.103  -0.092 -0.0255  0.8966  0.0350
    8CHTO    C2 3346   5.853   8.954   0.079 -0.7011  0.7192  0.3437
    8CHTO   H15 3347   5.852   8.968   0.188  0.9904  0.5424  0.4024
    8CHTO    O6 3348   5.740   8.884   0.043  0.1091  0.0830  0.0971
    8CHTO    H1 3349   5.739   8.856  -0.047 -3.0726  0.5501 -0.0932
    8CHTO    C3 3350   5.993   8.885   0.037  0.1179 -0.6627  0.1190
    8CHTO   H16 3351   5.995   8.866  -0.071  3.2849  2.2847 -0.4653
    8CHTO    N1 3352   6.020   8.758   0.113 -0.6323  0.5901 -0.3730
    8CHTO    H8 3353   6.105   8.704   0.074 -0.6563 -1.4699  2.3393
    8CHTO    H9 3354   6.040   8.777   0.217  1.9880 -1.1543 -0.4952
    8CHTO    C4 3355   6.119   8.983   0.052  0.0027 -0.0974  0.5090
    8CHTO   H17 3356   6.137   9.006   0.157 -0.0035  1.3547  0.1946
    8CHTO    O1 3357   6.079   9.098  -0.024  0.0182 -0.1872 -0.8582
    8CHTO    C5 3358   5.983   9.179   0.044 -0.3557  0.2300 -0.5959
    8CHTO   H18 3359   5.993   9.194   0.151 -2.7823  1.5021 -0.4938
    8CHTO   C16 3360   5.972   9.317  -0.023 -0.3017 -0.2195 -0.0438
    8CHTO   O11 3361   6.104   9.374  -0.026 -0.5118 -0.9265 -0.3667
    8CHTO    H5 3362   6.119   9.438   0.041 -2.2275 -2.4925  1.5364
    8CHTO    O3 3363   6.246   8.941  -0.009  0.5705 -0.2909 -0.2109
    8CHTO    C6 3364   6.352   8.911   0.085 -1.1277 -0.3671 -0.4715
    8CHTO   H19 3365   6.328   8.915   0.191 -0.0064  2.7739 -0.2830
    8CHTO    C8 3366   6.405   8.764   0.057  0.2147 -0.1236 -0.4331
    8CHTO   H21 3367   6.401   8.749  -0.051  3.3768 -0.8557 -0.5159
    8CHTO    O7 3368   6.319   8.662   0.117 -0.3312  0.0582 -0.4645
    8CHTO    H2 3369   6.324   8.675   0.209  3.0797 -0.8874 -0.4684
    8CHTO   C12 3370   6.555   8.745   0.102  0.1111  0.8896 -0.6335
    8CHTO   H25 3371   6.551   8.721   0.210  0.8970  2.5423 -0.2292
    8CHTO    N3 3372   6.621   8.626   0.039 -0.1231  0.4249  0.7318
    8CHTO   H12 3373   6.567   8.534   0.053 -0.5008  0.2335 -1.7112
    8CHTO   H13 3374   6.725   8.620   0.069 -0.3613 -3.0999  1.0425
    8CHTO   C15 3375   6.645   8.869   0.078  0.4261 -0.0954 -0.5429
    8CHTO   H28 3376   6.671   8.889  -0.026  0.8338 -0.8044 -0.5768
    8CHTO   O10 3377   6.788   8.845   0.173  0.5698  0.1790  0.5335
    8CHTO    H4 3378   6.775   8.858   0.265 -1.0989 -0.3378  0.3777
    8CHTO    O5 3379   6.585   8.986   0.140 -0.1228 -0.5672 -0.3568
    8CHTO   C10 3380   6.468   9.024   0.067  0.0505  0.3038 -0.9167
    8CHTO   H23 3381   6.503   9.023  -0.036 -0.3253 -1.0138 -1.0398
    8CHTO   C17 3382   6.429   9.173   0.094 -0.2638  0.3966  0.4068
    8CHTO   O12 3383   6.401   9.190   0.233  0.8107 -0.0351  0.1380
    8CHTO    H6 3384   6.453   9.134   0.288 -2.3942 -2.3694  0.9547
    9CHTO  H203 3385   7.372   4.043   1.384  0.1989 -0.5787 -1.8155
    9CHTO   O82 3386   7.453   4.052   1.430 -0.7629 -0.6999 -0.0751
    9CHTO  C123 3387   7.569   4.051   1.339 -0.1145 -1.1239 -0.7038
    9CHTO  H227 3388   7.553   3.976   1.259 -1.7573 -0.2682 -1.2075
    9CHTO   O77 3389   7.564   4.184   1.288 -0.1729 -0.2912  0.3177
    9CHTO  C118 3390   7.677   4.215   1.200  0.0137  1.2257 -0.0122
    9CHTO  H222 3391   7.682   4.144   1.116  1.0661 -0.4789  1.4736
    9CHTO  C125 3392   7.662   4.367   1.148  0.0925  0.0178  0.3349
    9CHTO   O84 3393   7.648   4.478   1.244 -0.0834  0.3735  0.0684
    9CHTO  H205 3394   7.721   4.454   1.298  0.6860 -1.7056 -1.8259
    9CHTO  C114 3395   7.808   4.202   1.280  0.4893 -0.4825 -0.3940
    9CHTO  H218 3396   7.809   4.274   1.362  0.0775 -2.1190  1.0879
    9CHTO  C116 3397   7.831   4.057   1.346  0.2995 -0.1203  0.1752
    9CHTO  H220 3398   7.842   3.977   1.270  1.0505 -0.9161  1.1213
    9CHTO   O79 3399   7.955   4.054   1.415  0.3954 -0.0820  0.3878
    9CHTO  H201 3400   8.023   4.043   1.351 -0.7517  1.7107 -1.1731
    9CHTO  C120 3401   7.699   4.023   1.427 -0.2025  0.2628 -0.3979
    9CHTO  H224 3402   7.701   4.086   1.518 -0.0129 -1.2023  0.6424
    9CHTO   N21 3403   7.711   3.882   1.484  0.1352 -0.6603 -0.1712
    9CHTO  H211 3404   7.613   3.841   1.505  0.5840 -0.6483  2.1026
    9CHTO  H212 3405   7.773   3.878   1.573 -3.4798  0.1125  2.4941
    9CHTO   O75 3406   7.909   4.231   1.185 -0.5940  0.3929 -0.5836
    9CHTO  C112 3407   7.948   4.138   1.062  0.2714 -0.3779 -0.5859
    9CHTO  H216 3408   7.855   4.110   1.011 -0.5800 -0.3222  0.9267
    9CHTO   O73 3409   8.019   4.025   1.098  0.1781  0.1539 -0.8988
    9CHTO  C113 3410   8.027   3.935   0.984 -0.7150  0.3035  0.2646
    9CHTO  H217 3411   7.928   3.900   0.949 -0.5673 -1.4265  1.5153
    9CHTO  C124 3412   8.074   3.805   1.042  0.7039  0.7900 -0.1784
    9CHTO   O83 3413   8.090   3.720   0.935  0.2817 -0.0958  0.0740
    9CHTO  H204 3414   8.063   3.635   0.962 -0.0689 -0.1351 -0.3961
    9CHTO  C109 3415   8.119   3.996   0.869  0.2866  0.1327 -0.3566
    9CHTO  H213 3416   8.220   4.000   0.910 -0.2174 -1.6750  1.0990
    9CHTO  C110 3417   8.061   4.141   0.835 -0.6670 -0.1590  0.4526
    9CHTO  H214 3418   7.961   4.114   0.801 -1.0298  1.9355 -0.1910
    9CHTO   O78 3419   8.141   4.214   0.738  0.1598  0.1715  0.1917
    9CHTO  H200 3420   8.231   4.200   0.758 -0.0720  1.1273  1.9636
    9CHTO  C111 3421   8.048   4.222   0.970  0.4083 -0.6856  0.2603
    9CHTO  H215 3422   8.146   4.216   1.019 -0.4021  0.0396  2.0328
    9CHTO   N19 3423   8.014   4.367   0.952 -0.4771 -0.6221 -0.2255
    9CHTO  H207 3424   8.012   4.401   0.849 -0.4882 -1.0814 -0.3797
    9CHTO  H208 3425   8.081   4.430   1.009 -0.7747  2.6979 -3.3029
    9CHTO   O74 3426   8.112   3.918   0.744  0.5611  0.0800  0.3410
    9CHTO  C115 3427   8.256   3.897   0.669  0.2864  0.3036 -0.5738
    9CHTO  H219 3428   8.333   3.965   0.706 -1.6891  2.4739 -0.3579
    9CHTO   O76 3429   8.307   3.754   0.685  0.0971  0.0565  0.4380
    9CHTO  C122 3430   8.212   3.662   0.622  0.0374  0.3668  0.1025
    9CHTO  H226 3431   8.113   3.678   0.663 -0.4258 -1.0921 -0.4047
    9CHTO  C126 3432   8.247   3.511   0.658  0.6097  0.1263 -0.6953
    9CHTO   O85 3433   8.146   3.422   0.618  0.3033  0.2871 -0.0774
    9CHTO  H206 3434   8.157   3.389   0.531 -4.1020 -2.3208  0.2032
    9CHTO  C121 3435   8.217   3.686   0.463  0.5075  0.4179  0.0267
    9CHTO  H225 3436   8.324   3.693   0.436  1.1960 -2.2845  1.8502
    9CHTO   O81 3437   8.147   3.585   0.392  0.2035  0.5655 -0.0056
    9CHTO  H202 3438   8.122   3.618   0.308  1.7194  1.3408 -0.1689
    9CHTO  C119 3439   8.155   3.826   0.441 -0.1809 -0.1373  0.2288
    9CHTO  H223 3440   8.157   3.862   0.338  1.5680  2.0111  0.9736
    9CHTO  C117 3441   8.236   3.942   0.515 -0.4450 -0.3205  0.1082
    9CHTO  H221 3442   8.183   4.035   0.530  0.4223 -0.0582  1.7163
    9CHTO   N20 3443   8.366   3.965   0.444 -0.5146 -0.6750 -0.3738
    9CHTO  H209 3444   8.382   4.072   0.431 -1.3086 -0.5505 -0.3401
    9CHTO  H210 3445   8.440   3.925   0.512 -1.4263 -0.3644  0.8083
    9CHTO   O80 3446   8.006   3.836   0.482  0.4335 -0.6195 -0.0466
    9CHTO  C103 3447   7.894   3.914   0.385 -0.3044  0.0278  0.1528
    9CHTO  H190 3448   7.794   3.917   0.428 -1.6424 -0.0764 -2.7945
    9CHTO  C101 3449   7.945   4.061   0.346  0.8818  0.4388 -0.1407
    9CHTO  H188 3450   8.053   4.064   0.330  0.7245 -2.4360 -2.2089
    9CHTO   O68 3451   7.916   4.157   0.463 -0.2293  0.1901  0.3165
    9CHTO  H168 3452   7.859   4.121   0.529 -1.1531  1.4690  0.2356
    9CHTO   C99 3453   7.877   4.103   0.208  0.5185  0.0009 -0.6823
    9CHTO  H186 3454   7.772   4.125   0.238  1.6283  1.9280  1.9751
    9CHTO   N17 3455   7.940   4.229   0.151 -0.0337  0.2941 -0.1897
    9CHTO  H174 3456   7.879   4.316   0.171  1.1771  1.3769 -1.0913
    9CHTO  H175 3457   8.043   4.238   0.183  0.8760 -2.0215 -2.2836
    9CHTO   C97 3458   7.876   3.989   0.099  0.0942 -0.4276  0.3916
    9CHTO  H184 3459   7.976   3.976   0.056  0.0771 -0.0489  0.2341
    9CHTO   O64 3460   7.820   3.866   0.146  1.0903  0.6874 -0.5686
    9CHTO  C104 3461   7.887   3.806   0.260  0.4158 -0.4318 -0.0674
    9CHTO  H191 3462   7.986   3.768   0.236  0.0794  0.4350 -3.0556
    9CHTO  C108 3463   7.809   3.682   0.309 -0.3187  0.1602  0.0971
    9CHTO   O71 3464   7.678   3.722   0.346 -0.0328 -0.2632 -0.6063
    9CHTO  H171 3465   7.624   3.715   0.269 -0.8276  2.5864 -0.3522
    9CHTO   O62 3466   7.789   4.027  -0.009  0.5671 -0.3907 -0.4669
    9CHTO   C91 3467   7.801   3.954  -0.131  0.2980  0.2062 -0.2996
    9CHTO  H178 3468   7.871   3.872  -0.119 -0.6792 -0.2068  3.3923
    9CHTO   C92 3469   7.847   4.050  -0.247  0.4135 -1.4429 -0.1064
    9CHTO  H179 3470   7.946   4.091  -0.224 -0.9121  1.4979  0.7345
    9CHTO   O66 3471   7.859   3.982  -0.378 -0.1852  0.6239  0.3033
    9CHTO  H166 3472   7.871   4.044  -0.448 -1.7357  0.4975 -0.0901
    9CHTO   C93 3473   7.748   4.174  -0.281  0.5897  0.2271 -0.0301
    9CHTO  H180 3474   7.743   4.196  -0.389 -0.0438 -0.6296 -0.1814
    9CHTO   N16 3475   7.797   4.305  -0.227 -0.0443  0.3895 -0.3617
    9CHTO  H172 3476   7.898   4.320  -0.264  0.4807 -1.1856  0.3429
    9CHTO  H173 3477   7.727   4.384  -0.245 -1.3512 -0.6005  0.3033
    9CHTO   C94 3478   7.604   4.127  -0.233  0.4497 -0.4334 -0.8443
    9CHTO  H181 3479   7.587   4.154  -0.129  1.2642  0.7913 -1.0243
    9CHTO   O61 3480   7.581   3.979  -0.250 -0.1052 -0.6031 -0.1170
    9CHTO   C95 3481   7.658   3.890  -0.167  0.0598 -0.4481  0.7275
    9CHTO  H182 3482   7.596   3.864  -0.081 -0.9462 -0.7238 -0.0689
    9CHTO  C106 3483   7.668   3.755  -0.250 -0.4738 -0.3430 -0.3644
    9CHTO   O69 3484   7.726   3.663  -0.162 -0.2764  0.1048  0.2066
    9CHTO  H169 3485   7.697   3.674  -0.073 -0.7564 -0.4829  0.1264
    9CHTO   O63 3486   7.507   4.195  -0.324 -0.6647 -0.3225  0.0586
    9CHTO   C96 3487   7.355   4.200  -0.261 -0.0127  0.0683 -0.6084
    9CHTO  H183 3488   7.328   4.133  -0.179  0.8676 -1.3735 -1.4722
    9CHTO   C98 3489   7.262   4.176  -0.382  0.4910  0.0618  0.2131
    9CHTO  H185 3490   7.300   4.228  -0.472  0.0065 -0.2534 -0.1815
    9CHTO   O67 3491   7.276   4.035  -0.414  0.0195 -0.0921 -0.3679
    9CHTO  H167 3492   7.366   4.016  -0.433  0.2957 -0.0193  0.8432
    9CHTO  C102 3493   7.108   4.205  -0.356 -0.3304  0.1400  0.1703
    9CHTO  H189 3494   7.074   4.132  -0.280  0.4595  0.8277  1.1902
    9CHTO   N18 3495   7.019   4.186  -0.474  0.2008  0.5332 -0.1486
    9CHTO  H176 3496   6.919   4.216  -0.445  0.4926 -0.5313  2.0605
    9CHTO  H177 3497   7.048   4.230  -0.569 -0.6725 -0.6330 -0.9742
    9CHTO  C105 3498   7.101   4.349  -0.295  0.3292 -0.6557 -0.2907
    9CHTO  H192 3499   7.136   4.414  -0.376 -4.1667  1.0074 -1.0557
    9CHTO   O65 3500   7.190   4.361  -0.177 -0.6555  0.0017  0.1285
    9CHTO  C100 3501   7.328   4.345  -0.210  0.2078  0.1061  0.0092
    9CHTO  H187 3502   7.357   4.418  -0.287  1.0278  0.3087  0.5073
    9CHTO  C107 3503   7.410   4.375  -0.083  0.5457  0.2632 -0.1391
    9CHTO   O70 3504   7.398   4.504  -0.028  0.2829 -0.3515 -0.7041
    9CHTO  H170 3505   7.435   4.515   0.057  1.8073 -1.9193 -1.1480
    9CHTO   O57 3506   6.943   4.381  -0.246 -0.7213 -0.0457  0.3411
    9CHTO   C85 3507   6.877   4.509  -0.274 -0.1621  0.0725 -0.2206
    9CHTO  H157 3508   6.855   4.512  -0.383  0.1257  1.6051 -0.2363
    9CHTO   C83 3509   6.974   4.630  -0.254  0.4076  0.5320  0.1399
    9CHTO  H155 3510   7.061   4.614  -0.318 -0.6337  0.0776 -1.1771
    9CHTO   O56 3511   7.027   4.629  -0.121 -0.2995  0.5590  0.2341
    9CHTO  H135 3512   7.106   4.578  -0.115  0.0566  0.9960 -0.5894
    9CHTO   C81 3513   6.896   4.762  -0.301  0.0993 -0.5463  0.3603
    9CHTO  H153 3514   6.867   4.756  -0.406  1.3621 -0.0731 -0.0252
    9CHTO   N14 3515   6.971   4.887  -0.302 -0.3265 -0.0215 -0.1370
    9CHTO  H141 3516   7.061   4.884  -0.244  0.2937  1.0287 -1.0247
    9CHTO  H142 3517   7.001   4.908  -0.402  1.3245  1.6608  0.6658
    9CHTO   C79 3518   6.770   4.768  -0.202  0.4015  0.9014 -0.0600
    9CHTO  H151 3519   6.710   4.856  -0.228 -0.2871 -0.0756 -1.9054
    9CHTO   O52 3520   6.685   4.650  -0.217 -0.1395  0.0381 -0.3151
    9CHTO   C86 3521   6.751   4.526  -0.195 -0.1777  0.0714 -0.0278
    9CHTO  H158 3522   6.764   4.514  -0.085 -0.8567 -2.7298 -0.2142
    9CHTO   C90 3523   6.641   4.421  -0.238 -0.0530  0.1240 -0.8874
    9CHTO   O60 3524   6.520   4.432  -0.163  0.4571 -0.5465 -0.8870
    9CHTO  H138 3525   6.455   4.382  -0.208 -3.2522  2.2198  1.0646
    9CHTO   O50 3526   6.810   4.810  -0.069  0.7139 -0.2855 -0.5925
    9CHTO   C73 3527   6.740   4.874   0.043 -0.2662  0.3170 -0.0667
    9CHTO  H145 3528   6.633   4.847   0.043 -0.5156  1.2155 -1.5964
    9CHTO   C74 3529   6.749   5.036   0.030  0.2977  0.4505  0.3004
    9CHTO  H146 3530   6.715   5.046  -0.074 -1.4386 -2.1020  0.5887
    9CHTO   O54 3531   6.644   5.092   0.110 -0.0298 -0.9332 -0.7828
    9CHTO  H133 3532   6.667   5.179   0.137  1.8332 -1.4083 -0.7422
    9CHTO   C75 3533   6.894   5.084   0.052  0.7729 -0.5277 -0.5909
    9CHTO  H147 3534   6.952   5.045  -0.033  0.1432 -1.9410 -0.3852
    9CHTO   N13 3535   6.907   5.232   0.060 -0.0981 -0.5375 -0.4237
    9CHTO  H139 3536   6.824   5.295   0.089 -0.5705 -0.8612 -1.0526
    9CHTO  H140 3537   7.002   5.264   0.100 -1.1080  0.2853  1.3909
    9CHTO   C76 3538   6.958   5.011   0.184 -0.3116  0.1849  0.3764
    9CHTO  H148 3539   6.909   5.042   0.276  0.7312  0.3031  0.8997
    9CHTO   O49 3540   6.952   4.864   0.171  0.3250  0.3638 -0.1194
    9CHTO   C77 3541   6.813   4.823   0.172  0.4411  0.1694  0.8163
    9CHTO  H149 3542   6.773   4.875   0.258 -0.0415  0.5977  0.3303
    9CHTO   C88 3543   6.798   4.672   0.195  0.0742 -0.1705  0.4333
    9CHTO   O58 3544   6.788   4.643   0.323  0.1239 -0.2821  0.5951
    9CHTO  H136 3545   6.706   4.681   0.348 -1.0068 -1.9791 -0.4275
    9CHTO   O51 3546   7.134   5.041   0.204  0.6471  0.0765  0.4415
    9CHTO   C78 3547   7.184   5.004   0.331 -0.0341 -0.3910 -0.8604
    9CHTO  H150 3548   7.097   4.969   0.391  0.8258  1.1989  1.3621
    9CHTO   C80 3549   7.241   5.136   0.398  0.5953 -0.0433 -0.2410
    9CHTO  H152 3550   7.321   5.171   0.329 -1.7538 -0.4716 -3.2601
    9CHTO   O55 3551   7.137   5.238   0.413 -0.5124  0.1944  0.1565
    9CHTO  H134 3552   7.124   5.286   0.334 -0.3936  1.9367  1.1756
    9CHTO   C84 3553   7.306   5.097   0.535 -0.3469 -0.1372  0.2575
    9CHTO  H156 3554   7.232   5.048   0.599  0.6786 -0.6269  1.0897
    9CHTO   N15 3555   7.371   5.217   0.607 -0.0946 -0.0881  0.0311
    9CHTO  H143 3556   7.468   5.193   0.645  1.1008  1.7467 -1.7604
    9CHTO  H144 3557   7.309   5.261   0.683  0.4882 -0.4118  0.6984
    9CHTO   C87 3558   7.406   4.981   0.529 -0.6170  0.3332 -0.2773
    9CHTO  H159 3559   7.491   5.000   0.463 -0.1238  0.0204  0.2675
    9CHTO   O53 3560   7.330   4.866   0.464  0.2001  0.3763  0.1842
    9CHTO   C82 3561   7.285   4.893   0.331 -0.0250 -0.9524  0.7345
    9CHTO  H154 3562   7.371   4.930   0.275  0.3190 -1.6631  0.7933
    9CHTO   C89 3563   7.233   4.762   0.264 -0.1783 -0.7628 -0.2064
    9CHTO   O59 3564   7.333   4.652   0.259  0.0403 -0.3273 -0.3377
    9CHTO  H137 3565   7.315   4.574   0.211  2.0895 -0.7212 -0.5011
    9CHTO   O45 3566   7.465   4.937   0.682 -0.7146 -0.6772  0.2829
    9CHTO   C67 3567   7.533   4.808   0.686 -0.5838 -0.1823  0.1951
    9CHTO  H124 3568   7.496   4.753   0.599  0.9614  0.3617 -0.8161
    9CHTO   C65 3569   7.683   4.838   0.676  0.3635  0.4606  0.2000
    9CHTO  H122 3570   7.703   4.935   0.721  3.2709  0.8803 -1.8447
    9CHTO   O44 3571   7.705   4.852   0.531  0.4037 -0.0769  0.0373
    9CHTO  H102 3572   7.796   4.865   0.510  1.1111 -2.2051  1.6452
    9CHTO   C63 3573   7.778   4.732   0.745 -0.0848  0.2192  0.7483
    9CHTO  H120 3574   7.786   4.761   0.850  0.2715  0.4207  0.6640
    9CHTO   N11 3575   7.924   4.737   0.713  0.1952 -0.4456  0.0218
    9CHTO  H108 3576   7.971   4.832   0.709 -0.0806 -0.2728  0.7987
    9CHTO  H109 3577   7.975   4.683   0.790  0.7637  1.1083  0.7451
    9CHTO   C61 3578   7.717   4.587   0.753  0.2988 -0.1792  0.8254
    9CHTO  H118 3579   7.778   4.537   0.830 -1.5442  0.4133  2.7087
    9CHTO   O40 3580   7.575   4.586   0.801  0.1937  0.6325 -0.4742
    9CHTO   C68 3581   7.506   4.719   0.809 -0.0151  0.0665 -0.5497
    9CHTO  H125 3582   7.541   4.771   0.901  0.6171 -1.1958 -0.0643
    9CHTO   C72 3583   7.352   4.707   0.823 -0.4364  0.3439 -0.3627
    9CHTO   O48 3584   7.323   4.635   0.945 -0.0965  0.2077  0.3695
    9CHTO  H105 3585   7.367   4.677   1.016 -0.6338  2.9760 -0.8713
    9CHTO   O38 3586   7.730   4.504   0.632  0.0089 -0.8084  0.6771
    9CHTO   C55 3587   7.632   4.396   0.600 -0.3058  0.2474  0.7813
    9CHTO  H112 3588   7.533   4.439   0.625 -1.0778 -0.9191 -0.1904
    9CHTO   C56 3589   7.662   4.263   0.678  0.0396  0.2418  0.1277
    9CHTO  H113 3590   7.766   4.232   0.660 -0.5185 -3.0118  2.0812
    9CHTO   O42 3591   7.663   4.286   0.823 -0.2818  0.9308  0.5951
    9CHTO  H100 3592   7.737   4.339   0.846  1.2381 -1.1379  0.6130
    9CHTO   C57 3593   7.557   4.153   0.644 -0.7076  0.0100  0.2851
    9CHTO  H114 3594   7.461   4.182   0.686 -1.5283 -0.9556 -0.8977
    9CHTO   N10 3595   7.595   4.017   0.695  0.4735 -0.3280 -0.2378
    9CHTO  H106 3596   7.510   3.952   0.710 -0.8095  1.6665  1.4774
    9CHTO  H107 3597   7.670   3.974   0.630  0.9968  0.7360 -0.3455
    9CHTO   C58 3598   7.534   4.142   0.489 -0.0926 -0.5072 -0.1154
    9CHTO  H115 3599   7.619   4.091   0.439  1.8445  1.2465  1.3217
    9CHTO   O37 3600   7.517   4.270   0.420 -0.3502 -0.0401  0.2576
    9CHTO   C59 3601   7.623   4.361   0.447 -0.0950 -0.0437 -0.4068
    9CHTO  H116 3602   7.716   4.317   0.411 -0.0246 -0.2008 -0.0351
    9CHTO   C70 3603   7.588   4.490   0.369 -0.1595  0.6148  0.4114
    9CHTO   O46 3604   7.690   4.594   0.366  0.1913  0.5826  0.0020
    9CHTO  H103 3605   7.704   4.633   0.451  0.1755  0.5555  0.0170
    9CHTO   O39 3606   7.383   4.057   0.452 -0.4254  0.3747  0.8190
    9CHTO   C60 3607   7.396   3.915   0.424  0.6729 -0.1815  0.1330
    9CHTO  H117 3608   7.501   3.889   0.409  0.5161 -0.7140 -0.0281
    9CHTO   C62 3609   7.318   3.841   0.534  0.0211 -0.2270 -0.2937
    9CHTO  H119 3610   7.372   3.852   0.631 -1.4950 -1.9282  0.7791
    9CHTO   O43 3611   7.189   3.895   0.562 -0.0573 -0.1473  0.0846
    9CHTO  H101 3612   7.145   3.906   0.480 -0.9073 -0.9345  0.4221
    9CHTO   C66 3613   7.323   3.682   0.488  0.2179  0.0218  0.0288
    9CHTO  H123 3614   7.426   3.653   0.468 -0.5743 -2.9730  0.0352
    9CHTO   N12 3615   7.287   3.595   0.606 -0.3330 -0.0254 -0.2744
    9CHTO  H110 3616   7.291   3.491   0.579  0.8088  0.3692 -1.6261
    9CHTO  H111 3617   7.343   3.632   0.692  0.0334 -2.6290  0.6493
    9CHTO   C69 3618   7.240   3.650   0.367 -0.6239 -0.0885 -0.0026
    9CHTO  H126 3619   7.135   3.682   0.385 -1.2872 -1.0116 -2.1129
    9CHTO   O41 3620   7.293   3.751   0.239 -0.1376 -0.3026 -1.0001
    9CHTO   C64 3621   7.330   3.904   0.287 -0.3969  0.0687 -0.5117
    9CHTO  H121 3622   7.251   3.979   0.269  0.7855  1.9281  1.7966
    9CHTO   C71 3623   7.433   3.938   0.172 -0.1275 -0.0100 -0.3323
    9CHTO   O47 3624   7.377   3.932   0.039  0.1227  0.3487 -0.0056
    9CHTO  H104 3625   7.295   3.975   0.026  0.0713  0.4227  0.5629
    9CHTO   O34 3626   7.250   3.495   0.326  0.0088  0.2935 -0.4141
    9CHTO   C49 3627   7.324   3.400   0.207  0.3593  0.7750  0.5812
    9CHTO   H91 3628   7.290   3.438   0.110  0.8737  0.5170  0.3025
    9CHTO   C47 3629   7.286   3.252   0.226  0.4339  0.5144 -0.1528
    9CHTO   H89 3630   7.322   3.195   0.138 -1.2779 -0.9790  0.0671
    9CHTO   O33 3631   7.145   3.240   0.226 -0.1862  0.2431 -0.1993
    9CHTO   H70 3632   7.124   3.150   0.217 -1.1879  0.3898  0.5736
    9CHTO   C45 3633   7.354   3.189   0.361  0.6906 -0.0794 -0.2440
    9CHTO   H87 3634   7.291   3.208   0.448  1.2148  1.8579 -0.2712
    9CHTO    N8 3635   7.369   3.047   0.338 -0.6505  0.3057  0.4335
    9CHTO   H75 3636   7.469   3.011   0.356 -0.6472 -0.5423 -1.2469
    9CHTO   H76 3637   7.300   2.985   0.393 -0.9207  0.7906  0.6435
    9CHTO   C43 3638   7.489   3.263   0.407 -0.7602 -0.7171 -0.2252
    9CHTO   H85 3639   7.451   3.346   0.467  0.2196  0.7767 -1.6319
    9CHTO   O29 3640   7.555   3.314   0.292  0.0495 -0.5267  0.1025
    9CHTO   C50 3641   7.478   3.413   0.220 -0.0805  0.0538 -0.2348
    9CHTO   H92 3642   7.498   3.508   0.272  0.3625  1.5961 -3.1530
    9CHTO   C54 3643   7.548   3.434   0.080  0.0085  0.1165 -0.1653
    9CHTO   O36 3644   7.492   3.542  -0.001  0.6362  0.0087 -0.8555
    9CHTO   H72 3645   7.549   3.552  -0.075  2.5556  0.0390  0.6171
    9CHTO   O27 3646   7.584   3.196   0.490  0.4566 -0.8086  0.2053
    9CHTO   C37 3647   7.643   3.235   0.616 -0.4231 -0.1313 -0.2271
    9CHTO   H79 3648   7.721   3.165   0.647  1.1877  2.7180  2.4351
    9CHTO   C38 3649   7.703   3.377   0.594 -0.5596  0.0885 -0.0476
    9CHTO   H80 3650   7.630   3.445   0.548  2.6181  3.6844  0.0163
    9CHTO   O31 3651   7.816   3.354   0.503 -0.2302 -0.2823 -0.6569
    9CHTO   H68 3652   7.864   3.434   0.499  0.1057 -0.4810 -0.6078
    9CHTO   C39 3653   7.752   3.438   0.735  0.6888  0.4642 -0.1728
    9CHTO   H81 3654   7.812   3.364   0.788  2.1416  0.5684 -1.6282
    9CHTO    N7 3655   7.832   3.570   0.728 -0.2790  0.2731 -0.4499
    9CHTO   H73 3656   7.900   3.561   0.645  1.4993 -1.2719  1.1358
    9CHTO   H74 3657   7.885   3.591   0.819 -3.1775  0.9970  1.1458
    9CHTO   C40 3658   7.619   3.456   0.820 -0.1958 -0.2845  0.1048
    9CHTO   H82 3659   7.551   3.517   0.762 -0.1559 -0.8360 -0.5271
    9CHTO   O26 3660   7.569   3.318   0.841 -0.4712 -0.3387 -0.3632
    9CHTO   C41 3661   7.532   3.238   0.727  0.3957  0.3318 -0.3893
    9CHTO   H83 3662   7.449   3.285   0.674 -0.1340  2.1309  1.9568
    9CHTO   C52 3663   7.495   3.103   0.786  0.2104 -0.1018 -0.6192
    9CHTO   O35 3664   7.400   3.018   0.716 -0.2697  0.0844 -0.4900
    9CHTO   H71 3665   7.376   2.944   0.769 -0.8955 -0.1970 -1.1446
    9CHTO   O28 3666   7.629   3.514   0.950 -0.5051 -0.8258  0.7758
    9CHTO   C42 3667   7.512   3.578   1.010 -0.2276 -0.0860 -1.2612
    9CHTO   H84 3668   7.535   3.566   1.116  1.8051  2.8035 -1.3219
    9CHTO   C44 3669   7.368   3.534   0.987  0.1095 -0.4391 -0.2009
    9CHTO   H86 3670   7.355   3.528   0.879  0.4026 -3.2085 -0.1111
    9CHTO   O32 3671   7.367   3.402   1.042 -0.6843 -0.2003 -0.0245
    9CHTO   H69 3672   7.288   3.355   1.022 -0.5981 -0.6675  0.7353
    9CHTO   C48 3673   7.250   3.617   1.039 -0.4026  0.2545 -0.4208
    9CHTO   H90 3674   7.260   3.606   1.147  0.0447  0.2134 -0.4676
    9CHTO    N9 3675   7.119   3.555   1.001  0.0019  0.2849  0.3626
    9CHTO   H77 3676   7.114   3.528   0.897  3.3777 -1.4462  0.5882
    9CHTO   H78 3677   7.113   3.459   1.051  0.3346  0.0461 -0.0538
    9CHTO   C51 3678   7.267   3.766   0.994 -0.5223  0.4082 -0.4491
    9CHTO   H93 3679   7.260   3.770   0.885 -0.1406  0.5303 -0.4706
    9CHTO   O30 3680   7.393   3.817   1.044  0.0190  0.0499 -0.0117
    9CHTO   C46 3681   7.526   3.729   0.979 -0.1522 -0.3402  0.2162
    9CHTO   H88 3682   7.518   3.744   0.872  1.4617 -3.1673 -0.3666
    9CHTO   C53 3683   7.653   3.791   1.044 -0.4206 -0.3034  0.6601
    9CHTO   O72 3684   7.644   3.934   1.019 -0.1362  0.0281 -0.3953
    9CHTO  H199 3685   7.684   3.976   1.093  1.8559  0.2506 -1.5525
    9CHTO   O22 3686   7.162   3.846   1.052  1.2388 -0.0900  0.1123
    9CHTO   C31 3687   7.139   3.990   1.007 -0.4690  0.4983 -0.2661
    9CHTO   H59 3688   7.073   4.034   1.085 -1.3048 -0.1409 -0.6001
    9CHTO   C29 3689   7.267   4.077   0.996  0.5417 -0.6732 -0.2076
    9CHTO   H57 3690   7.342   4.033   0.929  2.4306  1.6548  0.3030
    9CHTO   O21 3691   7.317   4.080   1.123  0.4227  0.2776 -0.5844
    9CHTO   H37 3692   7.377   4.010   1.143 -1.2811 -2.0311 -3.1675
    9CHTO   C27 3693   7.233   4.224   0.945 -0.0085  0.0745  0.5153
    9CHTO   H55 3694   7.165   4.275   1.015  1.7614  0.0862  2.2442
    9CHTO    N5 3695   7.350   4.304   0.930 -0.5368 -0.1601  0.1442
    9CHTO   H43 3696   7.393   4.309   1.029 -3.4042 -2.3721  1.5611
    9CHTO   H44 3697   7.416   4.265   0.853  2.5979  0.3838  2.4274
    9CHTO   C25 3698   7.151   4.212   0.817  0.7578  0.7732  0.4777
    9CHTO   H53 3699   7.219   4.148   0.759 -0.7483  1.9892 -2.7401
    9CHTO   O17 3700   7.027   4.134   0.847 -0.0163 -0.2299 -0.2870
    9CHTO   C32 3701   7.061   3.996   0.878 -0.0055  0.0182  0.6646
    9CHTO   H60 3702   7.121   3.952   0.798 -1.0640 -0.5796  0.1794
    9CHTO   C36 3703   6.934   3.923   0.893 -0.1015  0.6170 -0.1042
    9CHTO   O25 3704   6.878   3.869   0.772 -0.1578 -0.7113  0.1777
    9CHTO   H40 3705   6.896   3.926   0.700  1.5793 -0.8951  0.4596
    9CHTO   O15 3706   7.101   4.352   0.739 -0.5520 -0.4633  0.4767
    9CHTO   C19 3707   7.059   4.372   0.598  0.9230 -0.3147  0.4246
    9CHTO   H47 3708   7.037   4.480   0.599 -1.4814 -0.7593 -0.2724
    9CHTO   C20 3709   7.174   4.343   0.489  0.7151  0.2198 -0.3563
    9CHTO   H48 3710   7.211   4.240   0.493  2.0659  0.7059  0.1494
    9CHTO   O19 3711   7.276   4.434   0.534  0.0643  0.0223 -0.3939
    9CHTO   H35 3712   7.344   4.451   0.471  1.2729 -0.3164  0.7930
    9CHTO   C21 3713   7.123   4.373   0.339  0.1639 -0.7973 -0.6125
    9CHTO   H49 3714   7.108   4.480   0.324 -0.1460 -0.7288  0.1526
    9CHTO    N4 3715   7.215   4.335   0.231  0.3768  0.3300 -0.8217
    9CHTO   H41 3716   7.250   4.234   0.248  0.4954  0.7403  1.5764
    9CHTO   H42 3717   7.303   4.396   0.228  0.5508  0.0505 -1.6228
    9CHTO   C22 3718   6.983   4.304   0.323  0.5947  0.0903 -0.3864
    9CHTO   H50 3719   7.006   4.197   0.319  0.0983  0.0288 -1.7899
    9CHTO   O14 3720   6.896   4.321   0.426  0.4456 -0.3839  0.5423
    9CHTO   C23 3721   6.924   4.303   0.568  0.1862 -0.3943 -0.4298
    9CHTO   H51 3722   6.929   4.195   0.586 -2.6433 -0.4941 -0.0449
    9CHTO   C34 3723   6.809   4.353   0.653 -0.2468 -0.1364  1.1409
    9CHTO   O23 3724   6.814   4.339   0.795 -0.1765 -0.0775  0.0747
    9CHTO   H38 3725   6.848   4.254   0.817  0.4082  0.2752  0.5669
    9CHTO   O16 3726   6.920   4.339   0.197 -0.0368 -0.1454  0.4690
    9CHTO   C24 3727   6.822   4.202   0.130  0.0549  0.8235  0.6155
    9CHTO   H52 3728   6.802   4.125   0.205  2.0489 -0.9935 -0.6603
    9CHTO   C26 3729   6.884   4.138   0.007 -0.5745  0.0469  0.8114
    9CHTO   H54 3730   6.911   4.219  -0.063 -1.2658  0.5928  1.1741
    9CHTO   O20 3731   7.013   4.077   0.039  0.0565  0.4033 -0.5595
    9CHTO   H36 3732   7.002   4.018   0.111  3.2850  1.6723  1.0761
    9CHTO   C30 3733   6.795   4.023  -0.056 -0.0834  0.0309 -0.3855
    9CHTO   H58 3734   6.790   3.936   0.011 -1.4625  1.4290  1.3787
    9CHTO    N6 3735   6.842   3.972  -0.187  0.1024 -0.2800  0.0324
    9CHTO   H45 3736   6.774   3.893  -0.217  0.8584 -1.3923  1.2100
    9CHTO   H46 3737   6.836   4.047  -0.265  0.3210 -0.5294 -0.2240
    9CHTO   C33 3738   6.650   4.077  -0.080  0.6477  0.6428 -0.7479
    9CHTO   H61 3739   6.654   4.145  -0.167 -1.2351  0.8792 -0.6566
    9CHTO   O18 3740   6.605   4.145   0.041  0.1776 -0.0438  0.4282
    9CHTO   C28 3741   6.688   4.252   0.086  0.4972 -0.2187  1.1276
    9CHTO   H56 3742   6.709   4.326   0.008  0.0461 -1.7166 -0.4428
    9CHTO   C35 3743   6.616   4.322   0.202 -0.1797 -0.0546 -0.1463
    9CHTO   O24 3744   6.499   4.392   0.159 -0.4370  0.3600  0.0182
    9CHTO   H39 3745   6.485   4.444   0.235  1.0317  0.4564  0.2264
    9CHTO    O9 3746   6.559   3.974  -0.123  0.2166 -0.2161 -0.1995
    9CHTO   C13 3747   6.422   4.053  -0.207 -0.2865 -0.3814 -0.2597
    9CHTO   H26 3748   6.450   4.107  -0.299  0.6998 -0.1460  0.1755
    9CHTO   C11 3749   6.333   4.149  -0.108  0.3646 -0.2802 -0.0644
    9CHTO   H24 3750   6.399   4.231  -0.076 -0.8434  0.9790 -0.7190
    9CHTO    O8 3751   6.288   4.074   0.009 -0.0931 -0.4077  0.0590
    9CHTO    H3 3752   6.243   4.127   0.072 -4.3295 -1.6957 -1.6982
    9CHTO    C9 3753   6.214   4.213  -0.190  0.1155 -0.0734 -0.7954
    9CHTO   H22 3754   6.261   4.265  -0.275 -0.1432 -2.6755 -2.5860
    9CHTO    N2 3755   6.141   4.321  -0.115  0.1489 -0.0138  0.3634
    9CHTO   H10 3756   6.034   4.313  -0.099  0.4154 -1.0174  1.7517
    9CHTO   H11 3757   6.193   4.369  -0.034  0.8784  0.5906 -0.4583
    9CHTO    C7 3758   6.125   4.097  -0.238  0.3747  0.5212 -0.7110
    9CHTO   H20 3759   6.043   4.148  -0.292  0.6049  0.1751 -1.4036
    9CHTO    O4 3760   6.197   4.001  -0.317  0.0762  0.0926  0.2653
    9CHTO   C14 3761   6.319   3.941  -0.269 -0.2720 -0.3762 -0.1421
    9CHTO   H27 3762   6.365   3.902  -0.362  2.5717 -1.8774  1.8042
    9CHTO   C18 3763   6.286   3.817  -0.175  0.2417  0.4577  0.0581
    9CHTO   O13 3764   6.204   3.721  -0.244 -0.1848 -0.0755  0.1749
    9CHTO    H7 3765   6.187   3.648  -0.188 -2.2768  1.1144  1.1474
    9CHTO    O2 3766   6.061   4.025  -0.127  0.7869 -0.8974  0.3666
    9CHTO    C1 3767   5.924   3.980  -0.127  0.6526 -0.3029 -0.3854
    9CHTO   H14 3768   5.912   3.889  -0.066  0.5343  1.1087  1.7420
    9CHTO    C2 3769   5.854   3.954  -0.267  0.0102 -0.1990  0.4495
    9CHTO   H15 3770   5.867   4.042  -0.331 -0.1126 -0.4081  0.1354
    9CHTO    O6 3771   5.909   3.842  -0.335  0.6870  0.2663  0.4835
    9CHTO    H1 3772   5.998   3.854  -0.362  0.1336  1.3058 -0.9608
    9CHTO    C3 3773   5.698   3.929  -0.240  0.2833  0.4612  0.0094
    9CHTO   H16 3774   5.699   3.825  -0.204  0.1129  0.3424 -0.3270
    9CHTO    N1 3775   5.617   3.923  -0.368  0.1971  0.3820  0.2273
    9CHTO    H8 3776   5.538   3.996  -0.374  0.2919  0.6186  1.6581
    9CHTO    H9 3777   5.583   3.827  -0.402 -0.2608  0.4184  0.5837
    9CHTO    C4 3778   5.621   4.019  -0.138  0.2313 -0.7024 -0.3809
    9CHTO   H17 3779   5.591   4.110  -0.190 -2.6289 -1.7326 -0.6208
    9CHTO    O1 3780   5.708   4.049  -0.022  0.6293 -0.1961 -0.0527
    9CHTO    C5 3781   5.839   4.089  -0.060  0.5514 -0.4565 -0.6872
    9CHTO   H18 3782   5.833   4.182  -0.118  1.0482 -0.9106 -1.4728
    9CHTO   C16 3783   5.904   4.129   0.080  0.4493 -0.1783  0.1543
    9CHTO   O11 3784   5.927   4.015   0.168 -0.0055  0.2210  0.7014
    9CHTO    H5 3785   5.991   4.036   0.233  1.0803  1.0262 -0.5926
    9CHTO    O3 3786   5.507   3.954  -0.075 -0.4837  0.6243  0.0734
    9CHTO    C6 3787   5.371   4.024  -0.064 -0.3550  0.2389  0.0187
    9CHTO   H19 3788   5.369   4.108  -0.133 -1.5202  1.1601  1.1439
    9CHTO    C8 3789   5.252   3.921  -0.092 -0.3389 -0.4566 -0.2885
    9CHTO   H21 3790   5.271   3.834  -0.030 -0.5696  1.1275  2.0593
    9CHTO    O7 3791   5.258   3.887  -0.232 -0.1921 -0.2480 -0.2989
    9CHTO    H2 3792   5.239   3.796  -0.244 -0.7577 -0.1473 -0.1618
    9CHTO   C12 3793   5.115   3.983  -0.055  0.4135 -0.8369  0.9462
    9CHTO   H25 3794   5.086   4.055  -0.135 -2.4489 -1.8879  0.9674
    9CHTO    N3 3795   5.007   3.875  -0.055  0.0523 -0.3463  0.1981
    9CHTO   H12 3796   5.028   3.818   0.034 -3.1922 -1.5840  0.2325
    9CHTO   H13 3797   4.909   3.920  -0.047 -0.6140 -1.6419 -0.5200
    9CHTO   C15 3798   5.117   4.052   0.082  0.6469  0.0971  0.4529
    9CHTO   H28 3799   5.111   3.980   0.164  3.1511  0.7211  1.2547
    9CHTO   O10 3800   5.014   4.140   0.095 -0.4914  0.7613 -0.2961
    9CHTO    H4 3801   5.021   4.203   0.026  1.5574  0.0324 -0.7827
    9CHTO    O5 3802   5.232   4.134   0.112  0.2773  0.1134 -1.0291
    9CHTO   C10 3803   5.361   4.079   0.078  0.2992 -0.0312 -0.3980
    9CHTO   H23 3804   5.380   3.995   0.145 -0.3831  1.7066  2.0240
    9CHTO   C17 3805   5.471   4.184   0.107 -0.0192 -0.3343 -0.2146
    9CHTO   O12 3806   5.488   4.296   0.019 -1.0365  0.3117 -1.1577
    9CHTO    H6 3807   5.489   4.378   0.064 -2.4364  0.3553 -1.1837
   10CHTO  H203 3808   4.706   6.336  -0.230  0.6091 -0.8422  2.1513
   10CHTO   O82 3809   4.706   6.423  -0.195 -0.3795  0.4395 -0.8445
   10CHTO  C123 3810   4.576   6.487  -0.223  1.1626  0.9275  0.1096
   10CHTO  H227 3811   4.554   6.483  -0.331  2.4887 -3.3820 -0.0930
   10CHTO   O77 3812   4.479   6.415  -0.140  0.2321 -0.1944 -0.0974
   10CHTO  C118 3813   4.349   6.479  -0.141 -0.0708 -0.4888 -0.3751
   10CHTO  H222 3814   4.316   6.488  -0.246 -1.1282  1.6256  0.1142
   10CHTO  C125 3815   4.250   6.381  -0.075  0.4648 -0.0673  0.8966
   10CHTO   O84 3816   4.199   6.285  -0.172 -0.2303  0.1818  0.0783
   10CHTO  H205 3817   4.228   6.201  -0.143  1.6893  0.5596 -0.6479
   10CHTO  C114 3818   4.354   6.609  -0.056  0.4073 -0.7556  0.5716
   10CHTO  H218 3819   4.396   6.578   0.040 -1.2508 -1.6455  1.0415
   10CHTO  C116 3820   4.445   6.704  -0.140 -0.2720  0.1530 -0.3091
   10CHTO  H220 3821   4.398   6.736  -0.235 -0.0623  0.5448 -0.2795
   10CHTO   O79 3822   4.453   6.827  -0.067 -0.1581  0.3120 -0.6004
   10CHTO  H201 3823   4.377   6.879  -0.083 -0.4163  1.5896  4.1184
   10CHTO  C120 3824   4.587   6.640  -0.178 -0.2888 -0.2189  0.7523
   10CHTO  H224 3825   4.654   6.651  -0.090  1.2100  0.0248 -0.4050
   10CHTO   N21 3826   4.666   6.723  -0.274 -0.3349  0.3012 -0.2189
   10CHTO  H211 3827   4.595   6.779  -0.334  0.6118  0.4348 -1.2449
   10CHTO  H212 3828   4.734   6.791  -0.226  2.7200  0.1339 -4.0109
   10CHTO   O75 3829   4.216   6.650  -0.039 -0.6342  0.3032  0.2057
   10CHTO  C112 3830   4.190   6.738   0.085  0.0700  0.2855 -0.9685
   10CHTO  H216 3831   4.275   6.806   0.104  0.1171  0.2730 -1.1410
   10CHTO   O73 3832   4.165   6.647   0.198 -0.5326 -0.2455 -0.4107
   10CHTO  C113 3833   4.122   6.706   0.323  0.4598 -0.2392  0.3094
   10CHTO  H217 3834   4.217   6.759   0.343  0.2506 -0.2828  1.4317
   10CHTO  C124 3835   4.104   6.588   0.418  0.1348  0.4194  0.1315
   10CHTO   O83 3836   4.090   6.644   0.554  0.1593 -0.4024 -0.0835
   10CHTO  H204 3837   4.175   6.672   0.584  0.5197 -0.5951 -0.9107
   10CHTO  C109 3838   3.990   6.784   0.296 -0.4166  0.1720  0.0070
   10CHTO  H213 3839   3.914   6.711   0.265  1.7814 -1.6230 -1.3082
   10CHTO  C110 3840   4.009   6.891   0.181 -0.6529 -0.5857 -0.0869
   10CHTO  H214 3841   4.075   6.972   0.213 -1.2607  0.1878 -0.7734
   10CHTO   O78 3842   3.884   6.958   0.143  0.1188  0.2828  0.3418
   10CHTO  H200 3843   3.820   6.907   0.097  1.3076  1.0507 -2.2669
   10CHTO  C111 3844   4.063   6.822   0.052 -0.0511 -1.1048 -0.2330
   10CHTO  H215 3845   3.983   6.756   0.015 -0.2744  0.4327 -2.5970
   10CHTO   N19 3846   4.083   6.921  -0.056 -0.1563 -0.0520 -0.1997
   10CHTO  H207 3847   4.183   6.908  -0.094 -0.3883 -2.4594 -0.0360
   10CHTO  H208 3848   4.014   6.906  -0.138  1.2073 -0.8072 -1.2296
   10CHTO   O74 3849   3.947   6.845   0.417 -0.2484 -0.5135  0.2549
   10CHTO  C115 3850   3.769   6.875   0.422 -0.7783 -0.0495 -0.5060
   10CHTO  H219 3851   3.732   6.934   0.337 -0.2579  0.3718 -0.4413
   10CHTO   O76 3852   3.680   6.732   0.421 -0.0415 -0.3264 -0.3656
   10CHTO  C122 3853   3.718   6.644   0.521 -0.1783  0.5189 -0.0394
   10CHTO  H226 3854   3.820   6.614   0.500  0.4011  2.1142  0.4478
   10CHTO  C126 3855   3.628   6.515   0.506  0.1517 -0.0473 -0.6126
   10CHTO   O85 3856   3.614   6.474   0.370 -0.1180  0.3296 -0.1072
   10CHTO  H206 3857   3.543   6.518   0.326 -1.2227  0.1065  1.4110
   10CHTO  C121 3858   3.715   6.707   0.665 -0.2557 -0.4358  0.6036
   10CHTO  H225 3859   3.652   6.641   0.728  1.5688 -1.9073  0.9291
   10CHTO   O81 3860   3.846   6.702   0.726  0.6330  0.1871 -0.2416
   10CHTO  H202 3861   3.870   6.613   0.742 -2.0305 -0.2882  1.4727
   10CHTO  C119 3862   3.658   6.857   0.661 -0.5013 -0.0141 -0.0591
   10CHTO  H223 3863   3.557   6.846   0.620 -1.0127  2.9260  0.2334
   10CHTO  C117 3864   3.743   6.946   0.557  0.2283  0.0690  0.2530
   10CHTO  H221 3865   3.838   6.978   0.599 -0.6765  0.7583  1.8231
   10CHTO   N20 3866   3.668   7.075   0.527  0.3097 -1.4055 -0.1382
   10CHTO  H209 3867   3.727   7.129   0.455 -0.1983 -3.0241 -1.8007
   10CHTO  H210 3868   3.565   7.059   0.499  0.3653 -0.1901 -1.0871
   10CHTO   O80 3869   3.632   6.908   0.786  0.3030 -0.0849  0.3762
   10CHTO  C103 3870   3.476   6.896   0.847 -0.2993 -0.4530  0.0018
   10CHTO  H190 3871   3.400   6.924   0.774  0.6032 -1.2026 -1.2421
   10CHTO  C101 3872   3.427   6.764   0.922 -0.6647  1.1838  0.2477
   10CHTO  H188 3873   3.505   6.746   0.996  0.1144  2.0135 -0.3634
   10CHTO   O68 3874   3.432   6.658   0.829  0.2520 -0.3330 -0.0534
   10CHTO  H168 3875   3.516   6.653   0.787  0.4829  0.1741  0.3437
   10CHTO   C99 3876   3.295   6.782   1.005  0.5271  0.0024 -0.2195
   10CHTO  H186 3877   3.216   6.798   0.929  0.9203 -0.1546 -0.6691
   10CHTO   N17 3878   3.264   6.656   1.084 -0.4885  0.5873 -0.1456
   10CHTO  H174 3879   3.174   6.663   1.143  0.6271  0.0165  1.6553
   10CHTO  H175 3880   3.353   6.629   1.140 -1.2807 -0.5719  0.5759
   10CHTO   C97 3881   3.302   6.909   1.095  0.1433  0.4000  0.0179
   10CHTO  H184 3882   3.368   6.894   1.182 -0.0319  3.1997  0.6741
   10CHTO   O64 3883   3.338   7.019   1.017  0.4379  0.1578 -0.2505
   10CHTO  C104 3884   3.471   7.006   0.957 -0.8831 -0.7209 -0.3138
   10CHTO  H191 3885   3.545   6.993   1.036  0.2866  1.1374 -1.0634
   10CHTO  C108 3886   3.507   7.144   0.903 -0.2861 -0.1373  0.4269
   10CHTO   O71 3887   3.493   7.255   0.994  0.0958 -0.6160 -0.5451
   10CHTO  H171 3888   3.529   7.325   0.944  1.2983 -1.5286 -1.0037
   10CHTO   O62 3889   3.172   6.936   1.149 -0.1317  0.7347 -0.0804
   10CHTO   C91 3890   3.153   6.958   1.291  0.3925 -0.3240 -0.0980
   10CHTO  H178 3891   3.209   6.882   1.346  1.1657  0.7046  0.5436
   10CHTO   C92 3892   3.008   6.915   1.322  0.8491 -0.3529  0.5976
   10CHTO  H179 3893   2.951   6.980   1.254  0.5011 -1.6220 -0.3271
   10CHTO   O66 3894   2.987   6.784   1.272 -0.0902  0.5322 -0.2974
   10CHTO  H166 3895   2.994   6.782   1.178  0.4791  1.2483 -0.2676
   10CHTO   C93 3896   2.964   6.928   1.476 -0.3558 -0.9674 -0.6901
   10CHTO  H180 3897   3.010   6.846   1.532 -0.5999 -0.1096  0.8075
   10CHTO   N16 3898   2.822   6.912   1.503  0.1867  0.2980  0.2673
   10CHTO  H172 3899   2.746   6.928   1.428  1.0384 -0.5336 -0.7865
   10CHTO  H173 3900   2.793   6.947   1.601 -1.1024  1.7275 -0.6149
   10CHTO   C94 3901   3.010   7.069   1.540  0.2135  0.7694 -0.6301
   10CHTO  H181 3902   2.960   7.153   1.491  0.1902  0.2651 -1.4908
   10CHTO   O61 3903   3.140   7.089   1.504 -1.0547 -0.2202 -0.3895
   10CHTO   C95 3904   3.174   7.095   1.360 -0.5128  0.0184 -0.1580
   10CHTO  H182 3905   3.118   7.173   1.308  0.0775  0.7140  0.2573
   10CHTO  C106 3906   3.322   7.131   1.345 -0.7645  0.3291 -0.3775
   10CHTO   O69 3907   3.354   7.235   1.435  0.2037 -0.3515  0.6509
   10CHTO  H169 3908   3.310   7.214   1.515 -0.0472 -1.4607  0.2261
   10CHTO   O63 3909   3.001   7.061   1.710 -0.2058 -0.2878  0.0503
   10CHTO   C96 3910   3.110   6.943   1.802 -0.0996  0.4670 -0.3227
   10CHTO  H183 3911   3.178   6.894   1.731 -0.4983 -0.9893  0.2694
   10CHTO   C98 3912   3.030   6.824   1.868  0.5917 -0.0297 -0.5113
   10CHTO  H185 3913   2.939   6.868   1.912  1.2753  0.1100  0.8039
   10CHTO   O67 3914   2.984   6.739   1.758 -0.6459 -0.2768 -0.0064
   10CHTO  H167 3915   2.898   6.704   1.771 -1.0386  0.1572 -1.3238
   10CHTO  C102 3916   3.096   6.737   1.979 -0.5314 -0.9057  0.0025
   10CHTO  H189 3917   3.179   6.681   1.933 -0.0913  0.7918 -1.2919
   10CHTO   N18 3918   3.004   6.646   2.047  0.2200 -0.4432  0.0960
   10CHTO  H176 3919   2.913   6.641   1.989  0.4587  4.4290 -0.8691
   10CHTO  H177 3920   3.065   6.557   2.045  0.4699 -0.2512 -0.9352
   10CHTO  C105 3921   3.160   6.839   2.077 -0.2160 -0.4061  0.1018
   10CHTO  H192 3922   3.084   6.905   2.119  2.0395  1.2882  1.6842
   10CHTO   O65 3923   3.246   6.936   2.007  1.0922 -0.2268 -0.0320
   10CHTO  C100 3924   3.183   7.029   1.913 -0.3067 -0.8155 -0.0107
   10CHTO  H187 3925   3.103   7.094   1.951 -0.8165  0.1183 -2.5771
   10CHTO  C107 3926   3.291   7.114   1.851  0.0527 -0.0355  0.3703
   10CHTO   O70 3927   3.243   7.217   1.761  0.0767  0.1682  0.0203
   10CHTO  H170 3928   3.317   7.258   1.722  0.8815  2.2826  3.5027
   10CHTO   O57 3929   3.242   6.766   2.192 -0.1465 -0.2732 -0.4032
   10CHTO   C85 3930   3.191   6.787   2.329 -0.0041  0.2483  0.5687
   10CHTO  H157 3931   3.088   6.756   2.304  1.1513 -2.3337 -1.2265
   10CHTO   C83 3932   3.196   6.938   2.372 -0.1201  0.2253 -0.2684
   10CHTO  H155 3933   3.126   6.984   2.303 -0.2405  0.4547  0.0053
   10CHTO   O56 3934   3.327   6.987   2.344  0.2438 -0.1366 -0.5205
   10CHTO  H135 3935   3.338   6.957   2.256  1.3427 -0.0839 -0.4034
   10CHTO   C81 3936   3.134   6.960   2.511  0.8351 -0.6536 -0.6109
   10CHTO  H153 3937   3.029   6.931   2.510  0.5378  0.3588  0.0211
   10CHTO   N14 3938   3.128   7.105   2.546  0.2285 -0.1493 -0.2761
   10CHTO  H141 3939   3.079   7.116   2.641  1.2568 -1.4056  0.4054
   10CHTO  H142 3940   3.072   7.156   2.470  2.4048 -2.1308 -3.3328
   10CHTO   C79 3941   3.201   6.864   2.618 -0.5530 -0.0201  0.1388
   10CHTO  H151 3942   3.135   6.863   2.706  0.0178  2.6892  0.6457
   10CHTO   O52 3943   3.212   6.727   2.572  0.2779  0.6020 -0.0649
   10CHTO   C86 3944   3.262   6.698   2.440  0.4157 -0.9799  0.1616
   10CHTO  H158 3945   3.370   6.722   2.432 -0.4083  3.4984  1.2082
   10CHTO   C90 3946   3.245   6.548   2.404  0.2977  0.4312  0.4366
   10CHTO   O60 3947   3.302   6.463   2.506  0.4019  0.1100  0.3809
   10CHTO  H138 3948   3.395   6.464   2.516  0.5018 -2.5619 -0.0584
   10CHTO   O50 3949   3.339   6.895   2.645 -0.4246  0.4922 -0.2747
   10CHTO   C73 3950   3.430   6.872   2.760 -0.4488 -0.1016 -0.3160
   10CHTO  H145 3951   3.418   6.766   2.786  0.7654 -0.6927 -2.0495
   10CHTO   C74 3952   3.400   6.978   2.872  0.6230  0.4960 -0.2512
   10CHTO  H146 3953   3.292   6.961   2.888  0.9416 -1.5957 -0.1298
   10CHTO   O54 3954   3.474   6.941   2.992  0.2828  0.0161  0.0256
   10CHTO  H133 3955   3.445   6.995   3.063  2.0800  1.1127 -0.0558
   10CHTO   C75 3956   3.433   7.120   2.814  0.8935  0.2342 -0.4477
   10CHTO  H147 3957   3.364   7.140   2.730 -0.4549 -1.8406  0.1220
   10CHTO   N13 3958   3.389   7.219   2.912 -0.1747 -0.0869 -0.0549
   10CHTO  H139 3959   3.399   7.320   2.874 -3.3762 -0.5881 -2.4069
   10CHTO  H140 3960   3.454   7.218   2.999 -0.4432 -0.0878  0.1465
   10CHTO   C76 3961   3.587   7.124   2.765  0.3100 -0.3951 -0.1814
   10CHTO  H148 3962   3.646   7.110   2.856 -0.2842 -0.8247  0.1438
   10CHTO   O49 3963   3.608   7.015   2.674 -0.1974 -0.0631  0.3059
   10CHTO   C77 3964   3.566   6.881   2.718 -0.4159 -0.1811  0.4697
   10CHTO  H149 3965   3.627   6.850   2.803 -2.5792 -1.6548  1.5595
   10CHTO   C88 3966   3.599   6.790   2.603 -0.1404 -0.2003  0.9162
   10CHTO   O58 3967   3.740   6.803   2.575 -0.0223  0.3008 -0.2162
   10CHTO  H136 3968   3.766   6.742   2.509  0.7751  0.7517 -0.3271
   10CHTO   O51 3969   3.618   7.260   2.675 -0.3865  0.0739 -0.5411
   10CHTO   C78 3970   3.774   7.278   2.653  1.0913 -0.2663 -0.7061
   10CHTO  H150 3971   3.826   7.180   2.663  0.9007 -0.1121  2.4162
   10CHTO   C80 3972   3.828   7.385   2.759  0.6168  0.4957  0.3558
   10CHTO  H152 3973   3.774   7.480   2.744 -0.9548 -0.6762 -1.6398
   10CHTO   O55 3974   3.806   7.327   2.894  0.1448 -0.2007  0.0285
   10CHTO  H134 3975   3.715   7.327   2.915  0.4875  0.1446  1.5775
   10CHTO   C84 3976   3.983   7.405   2.735  0.7186  0.6333 -0.1868
   10CHTO  H156 3977   4.037   7.314   2.762  0.6163  0.6926  0.2162
   10CHTO   N15 3978   4.044   7.508   2.823  0.2353 -0.3468  0.2413
   10CHTO  H143 3979   4.151   7.504   2.814  0.1273 -2.8001 -0.3616
   10CHTO  H144 3980   4.016   7.505   2.926 -2.0083 -0.3468 -0.3359
   10CHTO   C87 3981   4.009   7.438   2.584 -0.2461 -0.2754 -0.0946
   10CHTO  H159 3982   3.967   7.537   2.566  2.4483  0.9275 -0.0477
   10CHTO   O53 3983   3.946   7.331   2.493 -0.5854  0.5212  0.1351
   10CHTO   C82 3984   3.800   7.331   2.513 -0.9160  0.4975 -0.2803
   10CHTO  H154 3985   3.756   7.428   2.491 -0.5651  0.3979 -1.4365
   10CHTO   C89 3986   3.734   7.227   2.420 -0.1236  0.2828  0.1358
   10CHTO   O59 3987   3.732   7.274   2.285 -0.6597 -0.2633 -0.0234
   10CHTO  H137 3988   3.757   7.209   2.222 -0.9743 -0.0461 -0.3738
   10CHTO   O45 3989   4.176   7.438   2.543  0.1415 -0.0961 -0.2827
   10CHTO   C67 3990   4.191   7.545   2.445 -0.3223 -0.6727 -0.1454
   10CHTO  H124 3991   4.104   7.546   2.380 -0.0559  0.0244 -0.5041
   10CHTO   C65 3992   4.200   7.683   2.520 -0.2657 -0.1885  0.1489
   10CHTO  H122 3993   4.120   7.677   2.593 -0.7641  0.0101 -0.3843
   10CHTO   O44 3994   4.161   7.791   2.436 -0.1123  0.0852  0.1924
   10CHTO  H102 3995   4.234   7.850   2.433  0.3190 -0.4435  0.1550
   10CHTO   C63 3996   4.336   7.688   2.596 -0.6464  0.7051  0.5749
   10CHTO  H120 3997   4.341   7.606   2.668  1.9476 -0.2669 -0.6238
   10CHTO   N11 3998   4.344   7.805   2.689  0.5732  0.5147 -0.0063
   10CHTO  H108 3999   4.259   7.809   2.755  1.5349 -0.2510  1.3120
   10CHTO  H109 4000   4.438   7.792   2.739  0.6898 -1.2403 -0.6406
   10CHTO   C61 4001   4.454   7.672   2.487  0.8233  0.0363  0.3413
   10CHTO  H118 4002   4.545   7.673   2.550 -1.5395  0.9690  3.9026
   10CHTO   O40 4003   4.439   7.551   2.423 -0.1875  0.1139 -0.2303
   10CHTO   C68 4004   4.315   7.518   2.355  0.5030  0.0530  0.2923
   10CHTO  H125 4005   4.323   7.410   2.331 -3.8806  0.2501 -2.5161
   10CHTO   C72 4006   4.312   7.598   2.214 -0.1061  0.7159 -0.0350
   10CHTO   O48 4007   4.416   7.537   2.132  0.5616 -0.9765 -0.1434
   10CHTO  H105 4008   4.427   7.594   2.059  0.2245 -1.1417 -0.3261
   10CHTO   O38 4009   4.462   7.787   2.402 -0.3451 -0.1875  0.2095
   10CHTO   C55 4010   4.548   7.906   2.389  0.5792  0.0832  0.0199
   10CHTO  H112 4011   4.612   7.896   2.301  0.7065 -0.0869  0.1302
   10CHTO   C56 4012   4.636   7.929   2.521  0.2825 -0.1505  0.9512
   10CHTO  H113 4013   4.564   7.921   2.604 -0.3699 -0.3587  0.3711
   10CHTO   O42 4014   4.727   7.817   2.537 -0.0613 -0.5841 -0.0526
   10CHTO  H100 4015   4.782   7.810   2.461 -3.2322 -1.6880 -2.4004
   10CHTO   C57 4016   4.702   8.081   2.516  0.3964  0.6182 -0.0085
   10CHTO  H114 4017   4.776   8.065   2.437  0.9493 -1.0053  0.8161
   10CHTO   N10 4018   4.763   8.115   2.644  0.3776  0.1292 -0.0268
   10CHTO  H106 4019   4.791   8.219   2.650  1.1444 -0.1422  1.1155
   10CHTO  H107 4020   4.848   8.058   2.678 -0.3740 -1.5912 -0.9916
   10CHTO   C58 4021   4.602   8.181   2.467 -0.2617 -0.5178  1.4281
   10CHTO  H115 4022   4.529   8.200   2.549 -1.3987 -0.2524  0.3730
   10CHTO   O37 4023   4.528   8.154   2.343 -0.1373 -0.0670  0.1920
   10CHTO   C59 4024   4.455   8.030   2.356 -0.5003  0.1538 -0.1163
   10CHTO  H116 4025   4.369   8.033   2.423  1.1308 -2.4804  2.2275
   10CHTO   C70 4026   4.407   8.015   2.213 -0.1397  0.2981  0.4150
   10CHTO   O46 4027   4.296   8.102   2.195 -0.0397 -0.0067  0.0448
   10CHTO  H103 4028   4.213   8.059   2.204  0.0847 -0.4405 -0.8792
   10CHTO   O39 4029   4.684   8.326   2.425 -0.2272  0.2588  0.7711
   10CHTO   C60 4030   4.592   8.437   2.397 -0.6567 -0.1455  0.2125
   10CHTO  H117 4031   4.489   8.404   2.402 -1.0908  0.5856 -2.7244
   10CHTO   C62 4032   4.602   8.554   2.493 -0.4769  0.0137 -0.2527
   10CHTO  H119 4033   4.589   8.510   2.594  1.9693 -2.9053 -1.1257
   10CHTO   O43 4034   4.730   8.612   2.507  0.0891 -0.3624  0.5538
   10CHTO  H101 4035   4.736   8.653   2.591 -1.2353  1.1959 -0.0932
   10CHTO   C66 4036   4.485   8.666   2.465 -0.7982  0.5541  0.0911
   10CHTO  H123 4037   4.387   8.618   2.461  0.2074 -1.6043  0.7163
   10CHTO   N12 4038   4.476   8.768   2.570  0.6383  0.2929 -0.4527
   10CHTO  H110 4039   4.391   8.834   2.563 -1.2022 -2.0293 -0.7131
   10CHTO  H111 4040   4.467   8.721   2.667 -0.1121  1.2012 -0.0748
   10CHTO   C69 4041   4.511   8.728   2.326 -0.0869 -0.0281 -0.5759
   10CHTO  H126 4042   4.614   8.770   2.328  0.6236 -1.7359  1.0472
   10CHTO   O41 4043   4.509   8.608   2.219 -0.6546 -0.2364  0.1089
   10CHTO   C64 4044   4.612   8.487   2.249  0.4536  0.0901 -0.1885
   10CHTO  H121 4045   4.717   8.523   2.244  0.9926 -1.3843  0.3208
   10CHTO   C71 4046   4.584   8.378   2.141  0.5080 -0.5296  0.2157
   10CHTO   O47 4047   4.688   8.286   2.106 -0.0643  0.2259  0.2197
   10CHTO  H104 4048   4.667   8.248   2.023 -2.7019  1.6252  0.2083
   10CHTO   O34 4049   4.411   8.839   2.284  0.1153  0.3351 -0.1120
   10CHTO   C49 4050   4.291   8.925   2.253  0.0190 -0.6271  0.2153
   10CHTO   H91 4051   4.311   9.027   2.288  0.1462 -0.2478 -0.9646
   10CHTO   C47 4052   4.179   8.869   2.347 -0.2157 -0.3189  0.4565
   10CHTO   H89 4053   4.201   8.905   2.450 -0.9231  2.4455 -0.3260
   10CHTO   O33 4054   4.162   8.725   2.339  0.4773  0.5381  0.0143
   10CHTO   H70 4055   4.127   8.704   2.255  3.3572 -2.1589 -0.6343
   10CHTO   C45 4056   4.031   8.941   2.304 -0.5403  0.0552  0.0946
   10CHTO   H87 4057   3.985   8.852   2.259  1.8387 -0.8523 -0.6204
   10CHTO    N8 4058   3.961   8.978   2.424  0.2887  0.7358  0.1699
   10CHTO   H75 4059   3.855   8.991   2.406  0.5816  0.6360 -1.6815
   10CHTO   H76 4060   3.999   9.058   2.485 -1.8038  1.9153 -0.0379
   10CHTO   C43 4061   4.039   9.050   2.192  0.1651  0.2023 -0.2496
   10CHTO   H85 4062   3.940   9.085   2.163  0.0808 -0.4950 -0.7970
   10CHTO   O29 4063   4.115   8.997   2.083 -0.2651  0.5344 -0.0392
   10CHTO   C50 4064   4.235   8.922   2.107  0.0582 -0.6706  0.2792
   10CHTO   H92 4065   4.218   8.818   2.074 -1.2906  0.4241 -2.6790
   10CHTO   C54 4066   4.334   8.978   1.998 -0.0666 -0.0480 -0.3472
   10CHTO   O36 4067   4.469   8.925   2.008 -0.2824 -0.4085 -0.3213
   10CHTO   H72 4068   4.474   8.832   2.010 -0.7762 -0.4597 -1.2547
   10CHTO   O27 4069   4.109   9.162   2.224 -0.6893  0.1368  0.0703
   10CHTO   C37 4070   4.141   9.292   2.177  0.6436  0.7159  0.4843
   10CHTO   H79 4071   4.244   9.296   2.137  0.5967  1.3678  0.4203
   10CHTO   C38 4072   4.039   9.335   2.065  0.3765 -0.1991 -0.4376
   10CHTO   H80 4073   3.937   9.319   2.104 -0.6120  3.3585 -1.4309
   10CHTO   O31 4074   4.063   9.242   1.954  0.5618 -0.1198 -0.2751
   10CHTO   H68 4075   4.011   9.165   1.965 -1.0689  1.1399  1.1164
   10CHTO   C39 4076   4.065   9.481   2.015  0.2017  0.9069  0.0523
   10CHTO   H81 4077   4.166   9.480   1.975  0.2127 -0.0885  0.0970
   10CHTO    N7 4078   3.975   9.532   1.914  0.0556  0.3926 -0.0865
   10CHTO   H73 4079   3.961   9.455   1.840 -1.8101  0.7656 -0.1673
   10CHTO   H74 4080   3.881   9.555   1.963  0.5116 -1.1233  1.5954
   10CHTO   C40 4081   4.075   9.580   2.136  0.3677  0.1734  0.2854
   10CHTO   H82 4082   3.981   9.611   2.182  0.2244 -0.7709  0.6590
   10CHTO   O26 4083   4.163   9.523   2.235 -0.2782  0.3709  0.0592
   10CHTO   C41 4084   4.132   9.394   2.293 -0.2958  0.0905  0.0234
   10CHTO   H83 4085   4.030   9.400   2.335  0.1562  1.0321  0.9941
   10CHTO   C52 4086   4.234   9.355   2.414  0.7855 -0.9241  0.2929
   10CHTO   O35 4087   4.390   9.393   2.391  0.3082 -0.0779  0.0453
   10CHTO   H71 4088   4.417   9.475   2.427  0.6141 -0.6926  1.2305
   10CHTO   O28 4089   4.147   9.701   2.105 -0.4950 -0.8097  0.5240
   10CHTO   C42 4090   4.143   9.819   2.186  0.5811  0.6868 -0.7968
   10CHTO   H84 4091   4.098   9.774   2.275  0.0270  1.0374 -0.8956
   10CHTO   C44 4092   4.043   9.915   2.133  0.3468  0.0731  0.1114
   10CHTO   H86 4093   4.062   9.930   2.027 -0.6924 -1.1096 -0.2510
   10CHTO   O32 4094   3.910   9.858   2.158  0.0960 -0.1485 -0.0117
   10CHTO   H69 4095   3.892   9.783   2.105 -0.2583  1.5593 -2.4003
   10CHTO   C48 4096   4.055  10.058   2.204  0.0079  0.6620 -0.2952
   10CHTO   H90 4097   4.016  10.049   2.305  2.2993  1.3482  0.6669
   10CHTO    N9 4098   3.978  10.170   2.137 -0.5016  0.1663  0.1323
   10CHTO   H77 4099   3.920  10.220   2.214  1.2080  0.8412  1.0223
   10CHTO   H78 4100   3.915  10.134   2.058  0.8499  2.2269 -1.9621
   10CHTO   C51 4101   4.206  10.102   2.212  0.6494 -0.0203  0.2300
   10CHTO   H93 4102   4.251  10.117   2.114 -2.9880 -2.9327 -2.0485
   10CHTO   O30 4103   4.279  10.011   2.295  0.0380 -0.3209 -0.0152
   10CHTO   C46 4104   4.291   9.868   2.221 -0.1365  0.1104  0.2513
   10CHTO   H88 4105   4.356   9.881   2.134 -0.0720 -0.4736  0.2111
   10CHTO   C53 4106   4.371   9.792   2.323  0.0611  0.0570 -0.2107
   10CHTO   O72 4107   4.434   9.669   2.266  0.0549  0.2211  0.0820
   10CHTO  H199 4108   4.527   9.670   2.275  0.1043  1.3376 -0.4081
   10CHTO   O22 4109   4.224  10.221   2.290 -0.1151 -0.5021 -0.0024
   10CHTO   C31 4110   4.321  10.325   2.249 -0.0888 -0.3566  0.1216
   10CHTO   H59 4111   4.334  10.391   2.338 -1.2864 -0.0644  0.0830
   10CHTO   C29 4112   4.471  10.277   2.210 -0.4150  0.3264  0.2264
   10CHTO   H57 4113   4.457  10.190   2.143  0.9523  1.2700 -1.3227
   10CHTO   O21 4114   4.532  10.231   2.335  0.6672  0.2777  0.2110
   10CHTO   H37 4115   4.569  10.145   2.334 -2.2982 -1.0505  0.5269
   10CHTO   C27 4116   4.565  10.380   2.134  0.0491 -0.1989 -0.6475
   10CHTO   H55 4117   4.574  10.475   2.189 -0.6965 -1.6777  2.0712
   10CHTO    N5 4118   4.696  10.325   2.092  0.3882  0.3576 -0.1912
   10CHTO   H43 4119   4.751  10.388   2.023  2.3883 -0.6524  0.4307
   10CHTO   H44 4120   4.675  10.228   2.048  1.2346  0.2846 -0.4515
   10CHTO   C25 4121   4.482  10.431   2.014 -0.2035 -0.6579  0.9503
   10CHTO   H53 4122   4.458  10.338   1.960  1.9775  1.6279 -4.3068
   10CHTO   O17 4123   4.363  10.499   2.065 -0.0831  0.5595  0.3984
   10CHTO   C32 4124   4.269  10.415   2.135  0.5546  0.2586 -0.0608
   10CHTO   H60 4125   4.231  10.349   2.057 -1.8319  0.4837  0.8811
   10CHTO   C36 4126   4.158  10.517   2.195  0.2348 -0.1738  0.3941
   10CHTO   O25 4127   4.091  10.574   2.083  0.1957  0.6747  0.7033
   10CHTO   H40 4128   4.000  10.574   2.105 -0.2967 -1.8497 -1.0523
   10CHTO   O15 4129   4.539  10.522   1.927  0.3533  0.2904 -0.5785
   10CHTO   C19 4130   4.564  10.599   1.809 -0.4602  0.5258 -0.0726
   10CHTO   H47 4131   4.476  10.581   1.746  0.1240 -1.7309 -0.2778
   10CHTO   C20 4132   4.584  10.755   1.828 -0.7305  0.0429  0.5001
   10CHTO   H48 4133   4.658  10.780   1.905  0.7032 -0.8264 -0.5640
   10CHTO   O19 4134   4.456  10.792   1.878  0.1257 -0.0665 -0.2222
   10CHTO   H35 4135   4.431  10.749   1.957  0.2257  0.8166  0.3032
   10CHTO   C21 4136   4.614  10.825   1.690 -0.1286 -0.3552  1.0332
   10CHTO   H49 4137   4.527  10.811   1.625  2.0037  0.3673 -2.0803
   10CHTO    N4 4138   4.626  10.968   1.707 -0.5595 -0.4026  0.2890
   10CHTO   H41 4139   4.602  10.990   1.810  4.0334 -0.1610  1.4083
   10CHTO   H42 4140   4.548  11.017   1.650 -1.2520  1.5751  2.8440
   10CHTO   C22 4141   4.736  10.756   1.635 -0.2740  0.0650 -1.0103
   10CHTO   H50 4142   4.815  10.760   1.710 -0.6100  0.1530 -0.6606
   10CHTO   O14 4143   4.703  10.620   1.607 -0.0104 -0.1291  0.3415
   10CHTO   C23 4144   4.689  10.547   1.731  1.2469  0.8449 -0.0099
   10CHTO   H51 4145   4.785  10.561   1.784  1.1168 -0.6446  0.6489
   10CHTO   C34 4146   4.674  10.399   1.697 -0.2026 -0.4151  0.2244
   10CHTO   O23 4147   4.791  10.351   1.640 -0.6075  0.5638 -0.2894
   10CHTO   H38 4148   4.803  10.259   1.654 -1.0803  0.7615  1.4966
   10CHTO   O16 4149   4.797  10.823   1.522  0.3715 -0.3483  0.0809
   10CHTO   C24 4150   4.957  10.827   1.527  0.8782  0.8320 -0.2006
   10CHTO   H52 4151   4.997  10.788   1.620 -1.7101 -0.0121  0.6130
   10CHTO   C26 4152   5.004  10.979   1.516 -0.1932 -0.0593  0.5789
   10CHTO   H54 4153   4.952  11.021   1.427  0.8873  2.4880  1.0925
   10CHTO   O20 4154   4.963  11.051   1.634 -0.2198 -0.0010  0.2806
   10CHTO   H36 4155   4.989  11.013   1.716  0.0065 -3.1989 -1.2292
   10CHTO   C30 4156   5.151  10.991   1.480  0.6118 -0.5673  0.0120
   10CHTO   H58 4157   5.209  10.976   1.573 -2.7080 -2.3930  1.9018
   10CHTO    N6 4158   5.184  11.129   1.430 -0.7837  0.0183 -0.1625
   10CHTO   H45 4159   5.275  11.166   1.474 -1.2679  0.8013  0.2067
   10CHTO   H46 4160   5.198  11.136   1.324 -1.6167 -1.2884 -0.3708
   10CHTO   C33 4161   5.182  10.880   1.374  0.1092  0.1809  0.3579
   10CHTO   H61 4162   5.130  10.903   1.280  1.6176 -2.2061 -1.1274
   10CHTO   O18 4163   5.141  10.752   1.416  0.1217 -0.5268  0.3816
   10CHTO   C28 4164   5.001  10.733   1.408 -0.2673  0.2519 -0.1562
   10CHTO   H56 4165   4.955  10.767   1.316 -1.6575  1.6260  1.0256
   10CHTO   C35 4166   4.970  10.584   1.430 -0.5825  0.6207  0.2950
   10CHTO   O24 4167   4.987  10.512   1.307 -0.1175 -0.6492  0.1480
   10CHTO   H39 4168   5.009  10.422   1.321 -0.0202 -0.8060 -0.9811
   10CHTO    O9 4169   5.321  10.885   1.346  0.1262 -0.0634 -0.3139
   10CHTO   C13 4170   5.376  10.817   1.228  0.1712  0.1922 -0.5949
   10CHTO   H26 4171   5.303  10.846   1.150  0.5999 -1.1561 -1.5190
   10CHTO   C11 4172   5.377  10.664   1.254 -0.6787  0.2178 -0.2118
   10CHTO   H24 4173   5.277  10.619   1.264 -0.1101 -1.1008 -0.3402
   10CHTO    O8 4174   5.442  10.640   1.385 -0.2073  0.7376  0.3087
   10CHTO    H3 4175   5.387  10.667   1.456 -1.6767 -2.8569  0.6297
   10CHTO    C9 4176   5.454  10.596   1.138 -0.2415 -0.6010 -0.1543
   10CHTO   H22 4177   5.393  10.617   1.049  0.5811 -1.9500 -1.0495
   10CHTO    N2 4178   5.454  10.447   1.145 -0.3098 -0.9356 -0.0634
   10CHTO   H10 4179   5.377  10.404   1.083 -0.9039 -2.0802  1.4199
   10CHTO   H11 4180   5.543  10.408   1.098  0.6634  0.0540  0.9140
   10CHTO    C7 4181   5.594  10.648   1.113  0.1294 -0.8013 -0.0915
   10CHTO   H20 4182   5.617  10.607   1.012  1.2070  1.3789 -0.7487
   10CHTO    O4 4183   5.598  10.794   1.105 -0.1169 -0.4997  1.0800
   10CHTO   C14 4184   5.524  10.878   1.195  0.1237 -0.1227 -0.0806
   10CHTO   H27 4185   5.510  10.978   1.148 -2.9132 -0.0270  0.9401
   10CHTO   C18 4186   5.601  10.904   1.328  0.0020  0.1009  0.6035
   10CHTO   O13 4187   5.729  10.967   1.316  0.1612  0.6747 -0.6875
   10CHTO    H7 4188   5.795  10.910   1.282 -1.8489 -1.6672 -0.8409
   10CHTO    O2 4189   5.695  10.604   1.228  0.1026 -0.0189 -0.1634
   10CHTO    C1 4190   5.837  10.613   1.195  0.1889 -0.2830  0.4633
   10CHTO   H14 4191   5.860  10.720   1.179 -0.7479 -0.2040 -0.4284
   10CHTO    C2 4192   5.892  10.539   1.062  0.6584 -0.3846 -0.3095
   10CHTO   H15 4193   5.841  10.442   1.062  0.4706 -0.2865 -1.5098
   10CHTO    O6 4194   5.851  10.615   0.947  0.3337  0.1485  0.5418
   10CHTO    H1 4195   5.882  10.568   0.872 -0.6228 -0.6523  0.6535
   10CHTO    C3 4196   6.045  10.524   1.049 -0.2049 -0.0304  0.0629
   10CHTO   H16 4197   6.083  10.625   1.030 -0.7814  0.1814  0.0252
   10CHTO    N1 4198   6.096  10.439   0.940 -0.1221  0.1287 -0.1552
   10CHTO    H8 4199   6.015  10.392   0.885  1.0370 -2.2533  0.1140
   10CHTO    H9 4200   6.171  10.488   0.881  1.6059 -2.0239  0.2052
   10CHTO    C4 4201   6.111  10.478   1.190 -0.2496  0.6159  0.6794
   10CHTO   H17 4202   6.085  10.374   1.207 -2.0582  1.1154  1.0669
   10CHTO    O1 4203   6.055  10.565   1.301  0.2062  0.4957 -0.3956
   10CHTO    C5 4204   5.913  10.555   1.318 -0.4356  0.0066 -0.6439
   10CHTO   H18 4205   5.892  10.449   1.331  1.3160 -0.3319 -0.4057
   10CHTO   C16 4206   5.865  10.624   1.445  0.1432  0.2607  0.5424
   10CHTO   O11 4207   5.899  10.758   1.456 -0.0125  0.3569 -0.0314
   10CHTO    H5 4208   5.854  10.811   1.394 -0.7385  2.0031  1.8680
   10CHTO    O3 4209   6.251  10.492   1.195  0.2605 -0.2366  0.0638
   10CHTO    C6 4210   6.344  10.377   1.177  0.0545  0.4250  0.6533
   10CHTO   H19 4211   6.288  10.295   1.132 -1.3138  0.0614  2.9311
   10CHTO    C8 4212   6.467  10.419   1.096 -0.2916 -0.1271  0.2503
   10CHTO   H21 4213   6.502  10.516   1.132 -2.3347  0.7747 -0.1576
   10CHTO    O7 4214   6.426  10.449   0.968 -0.5397  0.0936  0.0147
   10CHTO    H2 4215   6.404  10.540   0.962 -1.4218  0.0273  1.9763
   10CHTO   C12 4216   6.576  10.303   1.096  0.0198  0.5783  0.0397
   10CHTO   H25 4217   6.536  10.226   1.026  0.1623  0.9514 -0.4554
   10CHTO    N3 4218   6.702  10.356   1.033 -0.2971  0.7077  0.3523
   10CHTO   H12 4219   6.701  10.396   0.933 -1.9259  0.9759  0.4634
   10CHTO   H13 4220   6.758  10.424   1.096  2.3743 -1.5470  0.4995
   10CHTO   C15 4221   6.598  10.245   1.238  0.1012 -0.2068  0.3053
   10CHTO   H28 4222   6.650  10.316   1.302 -1.2839  0.3055  0.8775
   10CHTO   O10 4223   6.690  10.115   1.230  0.2976 -0.2155  0.2452
   10CHTO    H4 4224   6.672  10.068   1.309 -2.2492  0.8570  0.3766
   10CHTO    O5 4225   6.474  10.206   1.301  0.2027 -0.4634  0.6970
   10CHTO   C10 4226   6.398  10.324   1.317  0.6767  0.1656 -0.5198
   10CHTO   H23 4227   6.461  10.401   1.361  1.6980 -1.3037  0.6187
   10CHTO   C17 4228   6.288  10.277   1.417  0.1105 -0.6975  0.3674
   10CHTO   O12 4229   6.181  10.367   1.452 -0.4702 -0.1374  0.4324
   10CHTO    H6 4230   6.136  10.388   1.372  2.0919 -0.6912 -1.2401
   11CHTO  H203 4231   6.791   4.788   0.678 -0.3195 -0.5130  0.1936
   11CHTO   O82 4232   6.757   4.836   0.605 -0.2125 -0.1296  0.3984
   11CHTO  C123 4233   6.827   4.960   0.584 -0.2745 -0.4624  1.0401
   11CHTO  H227 4234   6.909   4.941   0.512  0.3307  1.1856  1.2813
   11CHTO   O77 4235   6.707   5.025   0.542 -0.3233 -0.2429  0.0935
   11CHTO  C118 4236   6.724   5.167   0.529  0.6016  0.2923  0.1456
   11CHTO  H222 4237   6.800   5.186   0.452 -0.2914 -0.9998 -1.0624
   11CHTO  C125 4238   6.584   5.214   0.485 -0.5945  0.9227  0.5578
   11CHTO   O84 4239   6.500   5.199   0.595 -0.8532 -0.3434  0.3039
   11CHTO  H205 4240   6.470   5.283   0.624  2.5049 -0.0598  3.2839
   11CHTO  C114 4241   6.780   5.233   0.652  0.1050 -0.5448  0.1882
   11CHTO  H218 4242   6.713   5.215   0.736 -1.2661 -0.2394 -0.8374
   11CHTO  C116 4243   6.914   5.171   0.687 -0.0404  0.3041  0.1031
   11CHTO  H220 4244   6.989   5.187   0.606  1.0456 -0.2310  0.9925
   11CHTO   O79 4245   6.956   5.252   0.800  0.5851  0.5631 -0.3763
   11CHTO  H201 4246   7.019   5.316   0.771  0.1085  1.3284  0.2450
   11CHTO  C120 4247   6.890   5.019   0.718 -0.4732 -0.5230 -0.1591
   11CHTO  H224 4248   6.820   5.009   0.804  0.7318 -0.1999  0.8888
   11CHTO   N21 4249   7.015   4.953   0.759  0.0816  0.8037 -0.2518
   11CHTO  H211 4250   7.028   4.961   0.866  1.3398 -0.0369 -0.3369
   11CHTO  H212 4251   7.016   4.851   0.723  1.0140  0.8016 -0.2208
   11CHTO   O75 4252   6.796   5.371   0.621 -0.1309  0.0788 -0.1868
   11CHTO  C112 4253   6.739   5.472   0.745 -0.8853 -0.5264  0.9173
   11CHTO  H216 4254   6.764   5.430   0.843  2.3008  1.2883  0.9272
   11CHTO   O73 4255   6.593   5.484   0.723  0.2257 -1.0835  0.2036
   11CHTO  C113 4256   6.521   5.570   0.811  0.1719 -0.5263  0.5579
   11CHTO  H217 4257   6.538   5.539   0.916  1.0629 -2.2446 -0.0820
   11CHTO  C124 4258   6.370   5.562   0.783 -0.4313  0.1642  0.6545
   11CHTO   O83 4259   6.331   5.562   0.642 -0.1405 -0.0842 -0.2648
   11CHTO  H204 4260   6.361   5.640   0.599 -0.1622 -0.6307 -1.2872
   11CHTO  C109 4261   6.577   5.720   0.795 -0.5669 -0.1409 -0.1094
   11CHTO  H213 4262   6.562   5.748   0.689  1.2486  1.2389 -0.0113
   11CHTO  C110 4263   6.725   5.724   0.830 -0.0206 -0.1380  0.3514
   11CHTO  H214 4264   6.742   5.711   0.936 -0.3986  0.7824  0.5248
   11CHTO   O78 4265   6.776   5.855   0.793 -0.1713  0.0285  0.2062
   11CHTO  H200 4266   6.764   5.919   0.861  1.5369  1.2519 -0.6283
   11CHTO  C111 4267   6.802   5.618   0.738  0.5094  0.3906 -0.8604
   11CHTO  H215 4268   6.787   5.647   0.633 -0.4234  0.9519 -0.5670
   11CHTO   N19 4269   6.953   5.608   0.752  0.0436  0.4945 -0.2201
   11CHTO  H207 4270   7.001   5.567   0.665  0.2978 -1.7484  0.9163
   11CHTO  H208 4271   6.988   5.548   0.835  2.1862  0.7914 -0.8932
   11CHTO   O74 4272   6.505   5.807   0.884  0.6389 -0.5046  0.5385
   11CHTO  C115 4273   6.450   5.943   0.786 -0.4613 -0.0304 -0.2256
   11CHTO  H219 4274   6.522   5.964   0.706  1.1093  0.2292  1.2146
   11CHTO   O76 4275   6.305   5.908   0.716  0.4863  0.8208 -0.0927
   11CHTO  C122 4276   6.201   5.902   0.809  0.6369  0.6825  0.2174
   11CHTO  H226 4277   6.211   5.812   0.870  0.0521  1.2701  1.1901
   11CHTO  C126 4278   6.068   5.884   0.727 -0.6517  0.4721 -0.2519
   11CHTO   O85 4279   6.007   5.752   0.727 -0.6995 -0.5206  0.0017
   11CHTO  H206 4280   5.916   5.771   0.739 -0.1912  2.3728 -0.4218
   11CHTO  C121 4281   6.195   6.023   0.915  0.0802 -0.1206 -0.3422
   11CHTO  H225 4282   6.095   6.069   0.910  0.4880  0.6073 -2.3603
   11CHTO   O81 4283   6.203   5.996   1.054  0.1615  0.2079  0.0191
   11CHTO  H202 4284   6.289   5.974   1.085 -0.8211 -2.6106  0.9258
   11CHTO  C119 4285   6.295   6.126   0.878  0.2222 -0.3466  0.2011
   11CHTO  H223 4286   6.281   6.150   0.772 -0.6443 -0.7708  0.2075
   11CHTO  C117 4287   6.443   6.070   0.883 -0.4072  0.3239  0.5020
   11CHTO  H221 4288   6.474   6.034   0.981  0.0444  2.2488  1.0784
   11CHTO   N20 4289   6.540   6.177   0.849 -0.0445 -0.0456 -0.0979
   11CHTO  H209 4290   6.538   6.256   0.922  1.4406 -0.3551  0.2817
   11CHTO  H210 4291   6.638   6.133   0.844 -0.0983 -0.2609  0.6000
   11CHTO   O80 4292   6.256   6.291   0.958 -0.4320 -0.1851 -0.1000
   11CHTO  C103 4293   6.251   6.315   1.111 -0.0072  0.5929  0.4563
   11CHTO  H190 4294   6.256   6.226   1.175  1.0517  0.9131  0.8267
   11CHTO  C101 4295   6.360   6.411   1.162 -0.1975  0.6290  0.2088
   11CHTO  H188 4296   6.372   6.485   1.083 -1.0469  0.5946  0.0346
   11CHTO   O68 4297   6.501   6.322   1.181 -0.1501 -0.1170  0.0443
   11CHTO  H168 4298   6.494   6.271   1.260 -0.6314  1.5892  1.1352
   11CHTO   C99 4299   6.329   6.484   1.303  0.3513 -0.5235 -0.3278
   11CHTO  H186 4300   6.341   6.405   1.379  1.3665  0.5296  0.6377
   11CHTO   N17 4301   6.425   6.591   1.336  0.0350  0.1705  0.4978
   11CHTO  H174 4302   6.500   6.607   1.260 -2.6186  0.4873 -2.1324
   11CHTO  H175 4303   6.473   6.566   1.429 -1.1931 -2.1951  0.5428
   11CHTO   C97 4304   6.183   6.531   1.321  0.1520 -0.0387  0.0581
   11CHTO  H184 4305   6.176   6.632   1.279 -0.5352  0.6112  1.6979
   11CHTO   O64 4306   6.086   6.436   1.262  0.1796  0.0713 -0.1671
   11CHTO  C104 4307   6.109   6.380   1.131 -0.5826  0.4176 -0.2145
   11CHTO  H191 4308   6.100   6.465   1.063 -1.9754  0.9886  0.6629
   11CHTO  C108 4309   5.999   6.276   1.089 -0.2079 -0.3234  0.1238
   11CHTO   O71 4310   5.990   6.156   1.168  0.0129  0.0488  0.2719
   11CHTO  H171 4311   5.995   6.181   1.258 -0.2987 -1.8457  0.8353
   11CHTO   O62 4312   6.147   6.536   1.460  0.6293  0.5411 -0.6967
   11CHTO   C91 4313   6.046   6.627   1.495  0.0233 -0.5240  0.4316
   11CHTO  H178 4314   5.978   6.654   1.415  2.4037  1.6266 -0.9370
   11CHTO   C92 4315   6.111   6.765   1.532  0.8942  0.2247 -0.3211
   11CHTO  H179 4316   6.201   6.782   1.471 -0.5163  0.9686 -2.2569
   11CHTO   O66 4317   6.013   6.864   1.500 -0.4224 -0.3254  0.4463
   11CHTO  H166 4318   6.006   6.873   1.407  1.8128  1.6132  0.4024
   11CHTO   C93 4319   6.154   6.778   1.676  0.0695  0.0394  0.4117
   11CHTO  H180 4320   6.186   6.882   1.690 -0.0301  0.3090 -1.2473
   11CHTO   N16 4321   6.275   6.701   1.719  0.2777  0.6746 -0.0336
   11CHTO  H172 4322   6.352   6.694   1.643 -0.7304  1.0231 -1.1057
   11CHTO  H173 4323   6.239   6.602   1.744  1.7511  0.2371  0.3962
   11CHTO   C94 4324   6.031   6.750   1.773  0.7934  0.3019  0.6438
   11CHTO  H181 4325   6.055   6.682   1.854  1.2088 -0.1216  0.1665
   11CHTO   O61 4326   5.920   6.693   1.701 -0.1934  0.1238  0.1605
   11CHTO   C95 4327   5.954   6.580   1.615 -0.0636 -0.4563 -0.7067
   11CHTO  H182 4328   6.001   6.500   1.672 -1.7269 -0.4055  0.7643
   11CHTO  C106 4329   5.818   6.529   1.573  0.2544 -0.0450  1.0281
   11CHTO   O69 4330   5.828   6.403   1.499 -0.1528 -0.2395 -0.2648
   11CHTO  H169 4331   5.841   6.333   1.560  0.3820  0.3665  0.3194
   11CHTO   O63 4332   5.976   6.891   1.832 -0.4225 -0.2592 -0.4106
   11CHTO   C96 4333   6.064   6.943   1.932 -0.0211 -0.0129 -0.4006
   11CHTO  H183 4334   6.165   6.909   1.910  0.4845 -1.2469  3.3820
   11CHTO   C98 4335   6.035   6.887   2.076  0.5257  0.2994  0.0381
   11CHTO  H185 4336   5.929   6.904   2.100  0.3101 -1.3165  0.2719
   11CHTO   O67 4337   6.053   6.743   2.078  0.0482  0.0730  0.0633
   11CHTO  H167 4338   6.145   6.731   2.063  0.1794  0.9974  0.0384
   11CHTO  C102 4339   6.132   6.958   2.186  0.0329  0.1310  0.6690
   11CHTO  H189 4340   6.233   6.920   2.165  0.6661  1.3166  1.4841
   11CHTO   N18 4341   6.104   6.921   2.326 -0.3817 -0.1784 -0.3857
   11CHTO  H176 4342   6.107   6.813   2.331 -0.2271 -0.1052  1.6509
   11CHTO  H177 4343   6.006   6.951   2.358  0.0283  0.1389  0.6076
   11CHTO  C105 4344   6.137   7.113   2.166  0.5881 -0.2238  0.0642
   11CHTO  H192 4345   6.041   7.153   2.197 -0.0870 -0.0767 -2.1021
   11CHTO   O65 4346   6.160   7.155   2.031  0.0652 -0.1378  0.2013
   11CHTO  C100 4347   6.055   7.103   1.947  0.1064 -0.4621  0.0209
   11CHTO  H187 4348   5.955   7.117   1.992 -0.4034 -1.9072 -0.6396
   11CHTO  C107 4349   6.066   7.183   1.819  0.3271 -0.5693 -0.8809
   11CHTO   O70 4350   5.966   7.149   1.730 -0.0609  0.2569  0.2754
   11CHTO  H170 4351   6.000   7.077   1.681 -4.1154 -1.1171 -0.7084
   11CHTO   O57 4352   6.256   7.172   2.255 -1.0254 -0.3453 -0.9178
   11CHTO   C85 4353   6.234   7.300   2.325 -0.0973  0.8467  0.2073
   11CHTO  H157 4354   6.129   7.307   2.360  0.0752 -1.1846  1.1832
   11CHTO   C83 4355   6.244   7.419   2.230  1.0964 -0.4493  0.6709
   11CHTO  H155 4356   6.155   7.411   2.168  1.5037  0.5117 -0.0384
   11CHTO   O56 4357   6.352   7.399   2.143 -0.1235 -0.0322 -0.0384
   11CHTO  H135 4358   6.364   7.477   2.092  0.0584 -2.3174 -3.6168
   11CHTO   C81 4359   6.243   7.551   2.311  0.2448 -0.0433 -0.1019
   11CHTO  H153 4360   6.159   7.553   2.380  0.0803 -1.4735 -0.2567
   11CHTO   N14 4361   6.207   7.662   2.225 -0.0382 -0.8486 -0.2588
   11CHTO  H141 4362   6.294   7.722   2.208 -0.0802 -1.3933 -2.5107
   11CHTO  H142 4363   6.129   7.724   2.265  2.6019  1.8673  0.9197
   11CHTO   C79 4364   6.374   7.560   2.396  0.3125  0.1925 -0.3635
   11CHTO  H151 4365   6.374   7.653   2.453  1.2073  2.1125 -3.3343
   11CHTO   O52 4366   6.372   7.456   2.493  0.8686  0.4079 -0.5619
   11CHTO   C86 4367   6.335   7.322   2.451 -0.2329  0.2356  0.6283
   11CHTO  H158 4368   6.435   7.282   2.427 -0.0203  1.2389 -0.1749
   11CHTO   C90 4369   6.288   7.229   2.571  0.1475  0.0176 -0.2267
   11CHTO   O60 4370   6.401   7.162   2.616  0.0450 -0.8613 -0.2535
   11CHTO  H138 4371   6.459   7.210   2.672 -0.9181  1.2148 -0.9885
   11CHTO   O50 4372   6.495   7.566   2.314 -0.0350  0.6402 -0.3697
   11CHTO   C73 4373   6.624   7.524   2.364  0.2188  0.4474  0.1854
   11CHTO  H145 4374   6.613   7.444   2.439 -0.3497  0.2008 -0.1582
   11CHTO   C74 4375   6.686   7.654   2.427 -0.1565  0.7275  0.0273
   11CHTO  H146 4376   6.619   7.684   2.509  0.8860  3.6313 -0.1207
   11CHTO   O54 4377   6.812   7.614   2.496  0.4544  0.1811 -0.0440
   11CHTO  H133 4378   6.853   7.692   2.529 -1.8823  0.8039  1.5264
   11CHTO   C75 4379   6.697   7.768   2.314 -0.1870  0.3539 -0.4547
   11CHTO  H147 4380   6.595   7.779   2.274 -0.0915  0.9860 -0.5219
   11CHTO   N13 4381   6.744   7.898   2.373  0.2175 -0.1442  0.0638
   11CHTO  H139 4382   6.849   7.884   2.395 -0.1156 -1.6568  0.7253
   11CHTO  H140 4383   6.734   7.969   2.292  2.3911 -0.6255 -0.6651
   11CHTO   C76 4384   6.786   7.710   2.194 -0.4375 -0.3930  0.3369
   11CHTO  H148 4385   6.890   7.706   2.226 -0.6697  2.2245  1.5127
   11CHTO   O49 4386   6.751   7.574   2.148  0.0396 -0.2075 -0.0322
   11CHTO   C77 4387   6.721   7.479   2.251  0.2973 -0.3554 -0.2273
   11CHTO  H149 4388   6.814   7.445   2.295  0.7474 -0.6479 -1.3827
   11CHTO   C88 4389   6.660   7.355   2.180  0.3852 -0.0707 -0.7941
   11CHTO   O58 4390   6.656   7.232   2.267 -0.0778  0.1039  0.1269
   11CHTO  H136 4391   6.747   7.212   2.278 -0.1471 -0.1237  0.2904
   11CHTO   O51 4392   6.761   7.802   2.062 -0.4193 -0.0691 -0.2392
   11CHTO   C78 4393   6.880   7.838   1.976  0.9283  0.0023  0.1887
   11CHTO  H150 4394   6.973   7.788   2.012  0.2687  1.3143  3.8887
   11CHTO   C80 4395   6.904   7.991   1.970  0.1455  0.3195 -0.7509
   11CHTO  H152 4396   6.814   8.035   1.923 -0.0463  1.7031  0.8400
   11CHTO   O55 4397   6.923   8.036   2.108  0.2738  0.5549 -0.1795
   11CHTO  H134 4398   6.982   7.978   2.152  1.4052  1.4517 -0.4938
   11CHTO   C84 4399   7.018   8.025   1.870  0.5137  0.1003  0.6525
   11CHTO  H156 4400   7.109   7.989   1.917 -0.8579 -1.8153  1.9351
   11CHTO   N15 4401   7.044   8.174   1.858  0.1642 -0.2526 -0.3182
   11CHTO  H143 4402   6.958   8.237   1.850 -0.4942 -0.8508  1.7354
   11CHTO  H144 4403   7.115   8.207   1.785 -0.7043  0.9607 -0.6341
   11CHTO   C87 4404   6.997   7.958   1.726 -0.1724  0.3223 -0.0015
   11CHTO  H159 4405   6.907   8.002   1.684 -0.2882 -0.5522 -0.6786
   11CHTO   O53 4406   6.973   7.813   1.757  0.1072 -0.6025  0.0396
   11CHTO   C82 4407   6.855   7.784   1.834  0.5733 -0.2433 -0.1895
   11CHTO  H154 4408   6.772   7.831   1.782 -0.1932 -0.4220  0.8734
   11CHTO   C89 4409   6.829   7.632   1.843  0.4740 -0.0363  0.0663
   11CHTO   O59 4410   6.848   7.570   1.717  0.0850 -0.1667 -0.2584
   11CHTO  H137 4411   6.932   7.589   1.681  0.3164  1.4072  1.0561
   11CHTO   O45 4412   7.128   7.969   1.616 -0.0327 -0.6484  0.2886
   11CHTO   C67 4413   7.088   7.927   1.485  0.3522  0.0664 -0.0197
   11CHTO  H124 4414   6.998   7.866   1.481  1.3687 -1.5517  1.3129
   11CHTO   C65 4415   7.069   8.041   1.387 -0.2034  0.1674  0.0264
   11CHTO  H122 4416   7.142   8.120   1.406 -1.3371  1.0858  0.6231
   11CHTO   O44 4417   6.937   8.100   1.416 -0.0778 -0.0447 -0.9192
   11CHTO  H102 4418   6.915   8.169   1.356  0.0546  1.1974  0.4188
   11CHTO   C63 4419   7.104   8.003   1.236 -0.0078 -0.7321  0.2161
   11CHTO  H120 4420   7.211   8.022   1.224 -0.1627  0.2665  0.3569
   11CHTO   N11 4421   7.051   8.097   1.138 -0.3053  0.5442 -0.3996
   11CHTO  H108 4422   7.081   8.073   1.038  0.1795 -2.0866  0.3445
   11CHTO  H109 4423   7.071   8.200   1.157  1.4596 -0.5413  4.0689
   11CHTO   C61 4424   7.084   7.849   1.208  0.1023 -0.6150  0.0292
   11CHTO  H118 4425   7.102   7.821   1.103 -0.4202  0.1319 -0.2582
   11CHTO   O40 4426   7.174   7.773   1.294  0.0146 -0.0725 -0.0225
   11CHTO   C68 4427   7.204   7.829   1.429  0.1066  0.0903  0.1000
   11CHTO  H125 4428   7.303   7.878   1.417 -0.0032  0.6356  1.3355
   11CHTO   C72 4429   7.221   7.713   1.524 -0.1366 -0.0767 -1.0047
   11CHTO   O48 4430   7.313   7.617   1.474 -0.0394 -0.0124  0.4080
   11CHTO  H105 4431   7.305   7.543   1.532  0.1161 -1.5731 -1.5387
   11CHTO   O38 4432   6.947   7.803   1.226 -0.5998 -0.3256  0.3178
   11CHTO   C55 4433   6.905   7.694   1.143  0.7256  0.9987  0.1706
   11CHTO  H112 4434   6.985   7.643   1.086  1.0712  3.1415 -1.2953
   11CHTO   C56 4435   6.794   7.750   1.046  0.0737 -0.5926  1.0533
   11CHTO  H113 4436   6.720   7.802   1.107  0.2740  0.5803  0.3046
   11CHTO   O42 4437   6.835   7.859   0.965  0.0107  0.1956  0.0485
   11CHTO  H100 4438   6.920   7.838   0.933 -0.9579 -1.0873 -1.7369
   11CHTO   C57 4439   6.733   7.626   0.959  0.1181  0.2248  0.0223
   11CHTO  H114 4440   6.804   7.585   0.887 -1.1656  0.1119 -1.2126
   11CHTO   N10 4441   6.612   7.659   0.881 -0.0586  0.4263 -0.1438
   11CHTO  H106 4442   6.551   7.577   0.847 -0.6221  0.4152  0.8741
   11CHTO  H107 4443   6.548   7.731   0.930 -3.5946 -1.7096 -1.4877
   11CHTO   C58 4444   6.694   7.503   1.052  0.0609  0.2876  0.4552
   11CHTO  H115 4445   6.600   7.523   1.108 -0.3161 -0.0894 -0.0388
   11CHTO   O37 4446   6.806   7.475   1.139 -0.3580 -0.8140 -0.3192
   11CHTO   C59 4447   6.853   7.577   1.231 -0.8271  0.9239 -0.2064
   11CHTO  H116 4448   6.769   7.607   1.293 -0.6368 -2.5123  1.8329
   11CHTO   C70 4449   6.959   7.527   1.325 -0.4893  0.1790  0.6466
   11CHTO   O46 4450   6.933   7.404   1.395 -0.5226 -0.0518  0.3783
   11CHTO  H103 4451   6.870   7.427   1.460 -1.6669  0.1471 -0.7800
   11CHTO   O39 4452   6.674   7.367   0.961  0.6393 -0.4524  0.3414
   11CHTO   C60 4453   6.572   7.273   0.999 -0.4375 -0.8080  0.1834
   11CHTO  H117 4454   6.575   7.272   1.108  1.7249  0.2277  0.1595
   11CHTO   C62 4455   6.440   7.316   0.926  0.3328 -0.0540 -0.0156
   11CHTO  H119 4456   6.415   7.421   0.954  1.0950 -0.3103  1.7032
   11CHTO   O43 4457   6.452   7.319   0.784  0.1474  0.2054 -0.2155
   11CHTO  H101 4458   6.476   7.403   0.750  1.4124 -0.1214 -0.1470
   11CHTO   C66 4459   6.325   7.209   0.966 -0.0587 -0.3659 -0.1172
   11CHTO  H123 4460   6.310   7.207   1.074  3.5565 -2.7463  0.4350
   11CHTO   N12 4461   6.194   7.254   0.923  0.7547  0.3973  0.3784
   11CHTO  H110 4462   6.155   7.339   0.978 -1.4755  0.0343 -0.5798
   11CHTO  H111 4463   6.124   7.172   0.918  1.6691 -0.2698 -2.1987
   11CHTO   C69 4464   6.353   7.069   0.913  0.0773 -0.1901 -0.0277
   11CHTO  H126 4465   6.379   7.065   0.806  1.0315 -0.6861  0.2134
   11CHTO   O41 4466   6.479   7.028   0.994 -0.3807  0.3670  0.1472
   11CHTO   C64 4467   6.603   7.133   0.945 -0.4209  0.3024 -0.3478
   11CHTO  H121 4468   6.612   7.151   0.836 -1.4234  1.9990 -0.1728
   11CHTO   C71 4469   6.735   7.077   0.995  0.2384 -0.5006 -0.1497
   11CHTO   O47 4470   6.769   6.952   0.927 -0.2721 -0.3223 -0.8614
   11CHTO  H104 4471   6.855   6.924   0.950 -0.5588 -0.9443 -0.5407
   11CHTO   O34 4472   6.237   6.968   0.939  0.0574  0.3775  0.2557
   11CHTO   C49 4473   6.145   6.890   1.049 -0.0459 -0.5241  0.3343
   11CHTO   H91 4474   6.197   6.892   1.145  1.6048 -0.7915 -0.5524
   11CHTO   C47 4475   6.143   6.745   0.999  0.9913 -0.8921 -0.0006
   11CHTO   H89 4476   6.088   6.683   1.073 -2.5828  1.0753 -0.9123
   11CHTO   O33 4477   6.281   6.695   0.980 -0.0475  0.3952  0.7554
   11CHTO   H70 4478   6.281   6.607   0.947 -0.1933  0.9157 -0.6544
   11CHTO   C45 4479   6.057   6.735   0.860 -0.3897 -0.0442 -0.2206
   11CHTO   H87 4480   6.104   6.799   0.784  3.4484 -1.6735  0.6777
   11CHTO    N8 4481   6.034   6.603   0.797  0.4744  0.3447  0.3274
   11CHTO   H75 4482   6.130   6.558   0.776  1.3452  2.4001 -0.2228
   11CHTO   H76 4483   5.976   6.539   0.862 -1.8015  0.5962 -1.3937
   11CHTO   C43 4484   5.910   6.805   0.889  0.2500 -0.5551  0.3075
   11CHTO   H85 4485   5.858   6.813   0.794 -1.0831 -0.4152  1.0330
   11CHTO   O29 4486   5.920   6.933   0.951  0.4110  0.3371 -0.6699
   11CHTO   C50 4487   6.006   6.953   1.068 -0.3249  0.2816 -0.2453
   11CHTO   H92 4488   6.020   7.062   1.076 -0.0981  0.1799  0.7850
   11CHTO   C54 4489   5.916   6.915   1.194 -0.3203  1.0013 -0.4217
   11CHTO   O36 4490   5.806   7.009   1.213 -0.8497  0.4226 -0.0758
   11CHTO   H72 4491   5.807   7.047   1.299  1.1243 -0.5894  0.3868
   11CHTO   O27 4492   5.821   6.724   0.972  0.5526 -0.6770 -0.3646
   11CHTO   C37 4493   5.679   6.721   1.010 -0.9521 -0.1793  0.2687
   11CHTO   H79 4494   5.669   6.772   1.107  0.8474  0.5490  0.0802
   11CHTO   C38 4495   5.591   6.796   0.910  0.4728 -0.7394  0.5870
   11CHTO   H80 4496   5.620   6.760   0.810 -0.0602 -1.9486  0.8532
   11CHTO   O31 4497   5.629   6.935   0.921  0.7305  0.0304  0.1263
   11CHTO   H68 4498   5.610   6.963   1.008  0.8717 -0.2291  0.2441
   11CHTO   C39 4499   5.437   6.776   0.937 -0.3296 -0.4558  0.4360
   11CHTO   H81 4500   5.410   6.815   1.035 -1.1439 -1.7408  0.7338
   11CHTO    N7 4501   5.348   6.851   0.839  0.0102 -0.3435 -0.2790
   11CHTO   H73 4502   5.368   6.827   0.736 -0.4025 -1.6032 -0.0730
   11CHTO   H74 4503   5.246   6.820   0.852 -0.0258 -0.4716 -0.8344
   11CHTO   C40 4504   5.405   6.625   0.946  0.5686 -0.0749  0.2882
   11CHTO   H82 4505   5.424   6.574   0.852 -0.5928  1.8785 -1.0717
   11CHTO   O26 4506   5.484   6.571   1.052 -0.5680 -0.6436 -0.0283
   11CHTO   C41 4507   5.626   6.579   1.022 -0.3176 -0.1547 -0.1089
   11CHTO   H83 4508   5.646   6.524   0.929  0.8982 -0.5121  0.3613
   11CHTO   C52 4509   5.715   6.503   1.123  0.7860  0.4463 -1.0696
   11CHTO   O35 4510   5.670   6.522   1.260 -0.2780  0.7827 -0.4565
   11CHTO   H71 4511   5.675   6.444   1.312  0.2060  1.0054 -0.1663
   11CHTO   O28 4512   5.273   6.598   1.005  0.0447  0.1786 -0.1440
   11CHTO   C42 4513   5.200   6.478   0.966 -0.0212  0.1072  0.0143
   11CHTO   H84 4514   5.255   6.425   0.888  1.4025  3.5572 -1.4510
   11CHTO   C44 4515   5.061   6.503   0.903  0.0814  0.6666 -0.1135
   11CHTO   H86 4516   4.990   6.558   0.966  2.2287  1.5556  1.6134
   11CHTO   O32 4517   5.079   6.589   0.787  0.5491  0.5753 -0.0266
   11CHTO   H69 4518   5.114   6.534   0.719 -0.5185  0.7571 -0.7214
   11CHTO   C48 4519   4.982   6.373   0.866 -0.5709 -0.0703 -0.3092
   11CHTO   H90 4520   5.029   6.312   0.788  1.9468 -1.0421  1.9327
   11CHTO    N9 4521   4.840   6.397   0.811 -0.2584  0.4333 -0.1665
   11CHTO   H77 4522   4.826   6.358   0.711  1.6149 -0.8506  0.0458
   11CHTO   H78 4523   4.824   6.502   0.791  0.2050  0.2558 -1.5649
   11CHTO   C51 4524   4.988   6.275   0.991  0.5218  0.1043  0.3639
   11CHTO   H93 4525   4.924   6.315   1.070 -1.6652  1.9512 -2.2367
   11CHTO   O30 4526   5.120   6.262   1.039 -0.1285  0.5174  0.1460
   11CHTO   C46 4527   5.177   6.376   1.084 -0.4377  0.1899  0.8181
   11CHTO   H88 4528   5.112   6.421   1.159  0.8425  2.3240  0.6773
   11CHTO   C53 4529   5.319   6.326   1.139  0.4428 -0.3899 -0.1413
   11CHTO   O72 4530   5.409   6.284   1.034 -0.8440  0.0916  0.1325
   11CHTO  H199 4531   5.484   6.241   1.068 -0.2765 -0.3388 -1.6255
   11CHTO   O22 4532   4.954   6.137   0.953  0.8537 -0.3052 -0.0792
   11CHTO   C31 4533   4.930   6.035   1.062  0.2227  0.3634  0.1508
   11CHTO   H59 4534   4.988   6.070   1.149  1.0052  0.4923 -0.4218
   11CHTO   C29 4535   4.782   6.025   1.103 -0.5766 -0.7398 -0.0832
   11CHTO   H57 4536   4.719   6.022   1.012  0.4934 -1.3780 -0.8197
   11CHTO   O21 4537   4.734   6.147   1.165  0.7959 -0.1500 -0.0860
   11CHTO   H37 4538   4.809   6.192   1.201  1.4309 -0.8281 -0.5443
   11CHTO   C27 4539   4.749   5.902   1.193 -0.0220 -0.3632  0.4973
   11CHTO   H55 4540   4.793   5.914   1.293 -1.1454  0.0848  0.9459
   11CHTO    N5 4541   4.598   5.876   1.214  0.2087  0.4625 -0.0611
   11CHTO   H43 4542   4.573   5.913   1.312 -1.7992  1.7444 -1.0307
   11CHTO   H44 4543   4.560   5.934   1.131 -1.2598  1.3637  1.2263
   11CHTO   C25 4544   4.830   5.779   1.156 -0.1037 -0.3096 -0.3015
   11CHTO   H53 4545   4.791   5.733   1.064  2.2920 -0.3569 -1.3340
   11CHTO   O17 4546   4.964   5.809   1.137 -0.1090  0.1188 -0.6342
   11CHTO   C32 4547   4.982   5.891   1.021  0.4280 -0.0011 -0.2317
   11CHTO   H60 4548   4.925   5.853   0.936  1.4704 -0.6096 -0.6782
   11CHTO   C36 4549   5.132   5.877   0.983 -0.0976  0.1870  0.2175
   11CHTO   O25 4550   5.159   5.957   0.869 -0.0795 -0.3245  0.1679
   11CHTO   H40 4551   5.232   6.016   0.872  1.4683 -2.2034 -0.2017
   11CHTO   O15 4552   4.828   5.669   1.263  0.5076  0.5018 -1.1547
   11CHTO   C19 4553   4.774   5.532   1.279  0.0366 -0.7821 -0.4396
   11CHTO   H47 4554   4.833   5.486   1.359 -0.7399 -0.9450  0.0422
   11CHTO   C20 4555   4.615   5.539   1.314 -0.3577  0.3083  0.1823
   11CHTO   H48 4556   4.556   5.585   1.233  1.1627 -1.0557 -1.7658
   11CHTO   O19 4557   4.602   5.620   1.436  0.1209 -0.3032 -0.3283
   11CHTO   H35 4558   4.614   5.707   1.404  0.3605 -0.6814 -1.2805
   11CHTO   C21 4559   4.549   5.395   1.335  0.5479 -0.4500 -0.4940
   11CHTO   H49 4560   4.593   5.349   1.423 -0.1201  1.5490  0.9119
   11CHTO    N4 4561   4.404   5.407   1.368 -0.1542  0.6889  0.1538
   11CHTO   H41 4562   4.396   5.481   1.446  2.1979  0.2345  0.8737
   11CHTO   H42 4563   4.342   5.435   1.284  0.7847  0.7024 -0.5298
   11CHTO   C22 4564   4.584   5.316   1.208  0.6097  0.1013 -0.3102
   11CHTO   H50 4565   4.535   5.358   1.120  1.5204 -0.7858 -1.2457
   11CHTO   O14 4566   4.724   5.313   1.188 -0.7403  0.1214 -0.4127
   11CHTO   C23 4567   4.798   5.433   1.160  0.4796  0.3639  0.1480
   11CHTO   H51 4568   4.767   5.477   1.064  2.8745 -0.0419 -0.8564
   11CHTO   C34 4569   4.946   5.406   1.156  0.2727  0.3859  0.3211
   11CHTO   O23 4570   5.007   5.494   1.065 -0.1610  0.3453 -0.4651
   11CHTO   H38 4571   5.099   5.502   1.076 -0.1892 -0.2419  0.2367
   11CHTO   O16 4572   4.544   5.181   1.232 -0.1212  0.1314 -0.2220
   11CHTO   C24 4573   4.476   5.111   1.078 -0.5565 -0.1792 -0.2814
   11CHTO   H52 4574   4.513   5.158   0.987 -0.0505  0.1909  0.1131
   11CHTO   C26 4575   4.321   5.130   1.082  0.1833 -0.7713  0.4098
   11CHTO   H54 4576   4.278   5.075   1.168  1.6175 -0.5360  1.2926
   11CHTO   O20 4577   4.296   5.268   1.100 -0.6300 -0.3620  0.0312
   11CHTO   H36 4578   4.213   5.302   1.127  0.0056  1.8761 -0.7434
   11CHTO   C30 4579   4.268   5.072   0.952  0.2225 -0.1451 -0.1467
   11CHTO   H58 4580   4.271   5.157   0.883  0.2933 -1.0313 -1.2557
   11CHTO    N6 4581   4.121   5.054   0.969 -0.0645  0.5703 -0.3212
   11CHTO   H45 4582   4.069   5.014   0.883  0.1533 -0.0500 -0.1743
   11CHTO   H46 4583   4.069   5.139   1.008  0.6298  0.7076  0.3196
   11CHTO   C33 4584   4.328   4.933   0.907  0.3043 -0.4496 -0.2027
   11CHTO   H61 4585   4.271   4.851   0.954  0.9111 -0.3041  0.7908
   11CHTO   O18 4586   4.465   4.910   0.933  0.3160  0.0087 -0.3351
   11CHTO   C28 4587   4.521   4.958   1.060  0.2368 -0.8511 -0.3930
   11CHTO   H56 4588   4.485   4.897   1.143  0.1561 -0.5378 -0.1976
   11CHTO   C35 4589   4.677   4.962   1.042  0.2810  0.1593  0.0866
   11CHTO   O24 4590   4.737   5.004   1.161  0.3623 -0.1820 -0.3564
   11CHTO   H39 4591   4.721   5.097   1.166  2.0327  0.1679 -1.3632
   11CHTO    O9 4592   4.299   4.917   0.769 -0.2895  0.2230  0.0027
   11CHTO   C13 4593   4.401   5.023   0.677  0.9565 -0.2042 -0.4086
   11CHTO   H26 4594   4.460   5.088   0.745 -1.5834 -1.0001  2.6982
   11CHTO   C11 4595   4.313   5.111   0.573  0.0233  0.1453  0.6968
   11CHTO   H24 4596   4.241   5.168   0.634 -0.7320  0.2626 -0.3075
   11CHTO    O8 4597   4.233   5.019   0.496  0.3577  0.2379 -0.7335
   11CHTO    H3 4598   4.280   4.964   0.436 -0.0805 -1.1065  0.1334
   11CHTO    C9 4599   4.406   5.213   0.498  0.3927 -0.0369  0.2965
   11CHTO   H22 4600   4.415   5.296   0.570  1.3891 -2.9370  3.6989
   11CHTO    N2 4601   4.328   5.264   0.378  1.2321 -0.1391  0.5598
   11CHTO   H10 4602   4.367   5.354   0.334  1.3455 -0.8203 -0.7548
   11CHTO   H11 4603   4.310   5.184   0.308 -0.1030  1.4709 -0.9756
   11CHTO    C7 4604   4.551   5.156   0.473  0.8072 -0.0714  1.3578
   11CHTO   H20 4605   4.613   5.199   0.554  2.6762 -0.0241 -0.0505
   11CHTO    O4 4606   4.544   5.014   0.462 -0.9127  0.1225 -0.1660
   11CHTO   C14 4607   4.518   4.950   0.592  0.7085 -0.6937  0.4640
   11CHTO   H27 4608   4.612   4.965   0.649  2.1239 -1.3391 -1.6318
   11CHTO   C18 4609   4.499   4.801   0.578  0.1736  0.3284  0.1970
   11CHTO   O13 4610   4.595   4.738   0.490  0.2010 -0.2763 -0.1825
   11CHTO    H7 4611   4.575   4.647   0.474 -0.8677 -0.1753  0.4771
   11CHTO    O2 4612   4.625   5.214   0.349  0.0138  0.4566  0.6189
   11CHTO    C1 4613   4.720   5.316   0.364  0.5974 -0.9072  0.1229
   11CHTO   H14 4614   4.760   5.304   0.467 -0.7389  0.3045  0.8028
   11CHTO    C2 4615   4.663   5.469   0.357 -0.4728  0.8208  0.0968
   11CHTO   H15 4616   4.587   5.468   0.278 -2.1594  0.5197  1.6888
   11CHTO    O6 4617   4.597   5.487   0.482 -0.1037 -0.0346 -0.0941
   11CHTO    H1 4618   4.640   5.437   0.548 -0.0353 -2.2806 -1.7683
   11CHTO    C3 4619   4.780   5.578   0.339  0.2221  0.2634 -0.2223
   11CHTO   H16 4620   4.830   5.590   0.436 -2.2268  1.0774  0.9788
   11CHTO    N1 4621   4.723   5.712   0.307 -0.2335 -0.1508 -0.5678
   11CHTO    H8 4622   4.654   5.724   0.389 -0.0027 -1.0928 -0.2225
   11CHTO    H9 4623   4.669   5.708   0.214 -1.7317 -0.2451  0.2875
   11CHTO    C4 4624   4.888   5.519   0.239  0.0135  0.1530  0.4734
   11CHTO   H17 4625   4.846   5.517   0.138 -0.9136  0.9029  0.8358
   11CHTO    O1 4626   4.932   5.396   0.283 -0.1504  0.4811 -0.0441
   11CHTO    C5 4627   4.834   5.294   0.261  0.3963 -0.1487  0.8054
   11CHTO   H18 4628   4.788   5.297   0.162 -2.7249 -1.4296  2.1298
   11CHTO   C16 4629   4.903   5.154   0.265  0.1277 -0.1605 -0.4340
   11CHTO   O11 4630   4.996   5.140   0.156  0.1202 -0.3429  0.3354
   11CHTO    H5 4631   5.079   5.179   0.177 -0.5848  1.1726  0.3499
   11CHTO    O3 4632   5.006   5.593   0.241 -0.4622 -0.0840 -0.4042
   11CHTO    C6 4633   5.089   5.601   0.116 -0.3744 -0.7301  0.1675
   11CHTO   H19 4634   5.071   5.508   0.062 -1.4074  0.0778 -0.8854
   11CHTO    C8 4635   5.043   5.724   0.036  0.4173  0.5873  0.1177
   11CHTO   H21 4636   5.049   5.819   0.090 -0.5595  2.0682 -2.2552
   11CHTO    O7 4637   4.907   5.691  -0.003  0.0861  0.0134  0.0957
   11CHTO    H2 4638   4.894   5.599  -0.021  0.6952 -0.0151 -0.1882
   11CHTO   C12 4639   5.150   5.744  -0.078  0.9217 -0.7197 -0.2435
   11CHTO   H25 4640   5.132   5.663  -0.150 -1.4251 -0.4947  0.0430
   11CHTO    N3 4641   5.120   5.863  -0.153 -0.0688 -0.1530 -0.0912
   11CHTO   H12 4642   5.015   5.886  -0.158  0.0110 -0.0137 -1.2849
   11CHTO   H13 4643   5.169   5.863  -0.249 -0.4539 -0.1352 -0.2876
   11CHTO   C15 4644   5.300   5.747  -0.026  0.4382  0.2591 -0.0762
   11CHTO   H28 4645   5.305   5.834   0.040 -0.9669  0.1370  0.1929
   11CHTO   O10 4646   5.396   5.762  -0.142 -0.5762 -0.4144 -0.5764
   11CHTO    H4 4647   5.459   5.830  -0.125  0.0345 -1.4301  1.3687
   11CHTO    O5 4648   5.331   5.628   0.043 -0.6139  0.5589  0.1614
   11CHTO   C10 4649   5.245   5.606   0.157 -0.4337 -0.4578 -0.1275
   11CHTO   H23 4650   5.278   5.682   0.228 -0.2515  1.0329 -1.7648
   11CHTO   C17 4651   5.273   5.472   0.214  0.2413 -0.3247 -0.2310
   11CHTO   O12 4652   5.400   5.482   0.277 -0.1857  0.0445  0.0448
   11CHTO    H6 4653   5.436   5.412   0.328 -1.3910 -0.3956  0.2947
   12CHTO  H203 4654   4.916  12.056  -0.043  0.5279 -1.1202  1.1494
   12CHTO   O82 4655   4.928  11.982  -0.100 -0.1020 -0.2976 -0.0808
   12CHTO  C123 4656   4.954  11.866  -0.009  0.2611 -0.1013 -0.4004
   12CHTO  H227 4657   4.992  11.899   0.088  1.1332  0.8941 -1.0757
   12CHTO   O77 4658   4.822  11.807   0.000  0.1569 -0.3822  0.5135
   12CHTO  C118 4659   4.801  11.688   0.081 -0.0348 -0.3180  0.5169
   12CHTO  H222 4660   4.826  11.714   0.185  0.3855  0.0198  0.3355
   12CHTO  C125 4661   4.648  11.658   0.064  0.1894 -0.5066 -0.3254
   12CHTO   O84 4662   4.563  11.765   0.115  0.3844 -0.1814  0.3849
   12CHTO  H205 4663   4.477  11.756   0.078  0.4281  0.5009  0.1084
   12CHTO  C114 4664   4.887  11.574   0.029 -0.7457 -0.2458  0.4412
   12CHTO  H218 4665   4.855  11.550  -0.072  0.8239 -0.6000  0.0281
   12CHTO  C116 4666   5.032  11.619   0.008 -0.0460 -0.1181  0.1774
   12CHTO  H220 4667   5.086  11.623   0.105 -0.3635 -0.8184  0.3883
   12CHTO   O79 4668   5.097  11.509  -0.062 -0.6325 -0.5385 -0.2570
   12CHTO  H201 4669   5.176  11.545  -0.100  0.4789 -2.6452 -0.0448
   12CHTO  C120 4670   5.051  11.758  -0.071 -0.2475 -0.8014  0.6185
   12CHTO  H224 4671   5.015  11.747  -0.176 -1.0530  1.5650  0.6099
   12CHTO   N21 4672   5.191  11.813  -0.069 -0.0934  0.7830 -0.2136
   12CHTO  H211 4673   5.262  11.731  -0.068 -0.4838  0.4429  0.4498
   12CHTO  H212 4674   5.196  11.879  -0.154 -0.3056  0.4911 -0.4556
   12CHTO   O75 4675   4.871  11.468   0.121  0.5878  0.4749  0.1233
   12CHTO  C112 4676   4.855  11.321   0.047  0.1185 -0.0180 -0.2647
   12CHTO  H216 4677   4.920  11.326  -0.042  0.7255  1.0210  0.2281
   12CHTO   O73 4678   4.721  11.311   0.012 -0.6451 -0.1557 -0.2438
   12CHTO  C113 4679   4.683  11.195  -0.056 -0.7519  0.6900 -1.2638
   12CHTO  H217 4680   4.736  11.193  -0.154  1.6987  0.9053  0.0026
   12CHTO  C124 4681   4.541  11.217  -0.102 -0.2455 -0.0415 -0.0900
   12CHTO   O83 4682   4.441  11.209   0.006 -0.4789 -0.5635 -0.6513
   12CHTO  H204 4683   4.470  11.268   0.074  1.3572 -1.2682 -0.8008
   12CHTO  C109 4684   4.713  11.065   0.037  1.4018 -0.0689 -0.0246
   12CHTO  H213 4685   4.650  11.076   0.126  0.8658  1.6749 -0.5977
   12CHTO  C110 4686   4.854  11.071   0.089 -0.7826  0.1318 -0.6079
   12CHTO  H214 4687   4.920  11.046   0.006 -0.8020  0.0172 -0.5891
   12CHTO   O78 4688   4.878  10.975   0.193  0.0062 -0.1777 -0.3447
   12CHTO  H200 4689   4.863  10.887   0.162 -0.0170 -0.5982  0.8412
   12CHTO  C111 4690   4.895  11.206   0.144  0.4383 -0.0897  0.4087
   12CHTO  H215 4691   4.841  11.217   0.240  1.7006  0.1207  1.1049
   12CHTO   N19 4692   5.037  11.225   0.176 -0.1958  0.0553 -0.0443
   12CHTO  H207 4693   5.089  11.179   0.093 -3.0032  0.5460 -2.1446
   12CHTO  H208 4694   5.073  11.162   0.257 -0.8325 -0.1707  0.0644
   12CHTO   O74 4695   4.697  10.939  -0.036  0.1602 -0.3470  0.1906
   12CHTO  C115 4696   4.534  10.882  -0.031  0.2145 -1.2597 -0.0163
   12CHTO  H219 4697   4.478  10.934   0.046  2.4092  1.6279 -0.3076
   12CHTO   O76 4698   4.453  10.903  -0.169 -0.1965 -0.1420 -0.4319
   12CHTO  C122 4699   4.475  10.806  -0.269  0.0034 -0.0314 -1.0002
   12CHTO  H226 4700   4.575  10.815  -0.310  0.9428  2.7324  1.6670
   12CHTO  C126 4701   4.374  10.842  -0.382 -0.2180 -0.0595 -0.5290
   12CHTO   O85 4702   4.390  10.779  -0.510  0.1124 -0.4728  0.2765
   12CHTO  H206 4703   4.328  10.803  -0.576  0.8579  3.5542  0.9034
   12CHTO  C121 4704   4.453  10.659  -0.209  0.2184  0.2621 -0.0665
   12CHTO  H225 4705   4.360  10.623  -0.258  0.5924 -0.3497 -0.3247
   12CHTO   O81 4706   4.563  10.579  -0.254  0.1697  0.0951  0.1072
   12CHTO  H202 4707   4.558  10.585  -0.348 -2.0109 -0.4143  0.1508
   12CHTO  C119 4708   4.449  10.644  -0.053 -0.2259 -0.3397 -0.3222
   12CHTO  H223 4709   4.356  10.686  -0.015 -0.3785 -0.2385 -0.8012
   12CHTO  C117 4710   4.559  10.738   0.016 -0.8122  0.3328 -0.3070
   12CHTO  H221 4711   4.660  10.705  -0.007 -1.1108 -0.3693 -0.6352
   12CHTO   N20 4712   4.548  10.728   0.165  0.1292  0.2096 -0.5218
   12CHTO  H209 4713   4.534  10.628   0.201  0.5193  0.1762 -0.4621
   12CHTO  H210 4714   4.633  10.777   0.211 -0.0272 -0.9099  1.0156
   12CHTO   O80 4715   4.445  10.487   0.002 -0.3718 -0.1959 -0.3983
   12CHTO  C103 4716   4.301  10.417   0.033  0.3020 -0.2783  0.0682
   12CHTO  H190 4717   4.235  10.469   0.102 -3.9956 -2.9949 -1.7144
   12CHTO  C101 4718   4.212  10.391  -0.094  0.0314 -0.2081  0.1706
   12CHTO  H188 4719   4.276  10.348  -0.172  0.9000 -0.1606  0.8466
   12CHTO   O68 4720   4.158  10.529  -0.149 -0.2312 -0.5833  0.1535
   12CHTO  H168 4721   4.216  10.601  -0.134 -0.7074  0.2329 -1.6530
   12CHTO   C99 4722   4.104  10.285  -0.063  0.2291 -0.2476 -0.8256
   12CHTO  H186 4723   4.038  10.342   0.006 -0.9382 -0.2416 -1.9329
   12CHTO   N17 4724   4.032  10.246  -0.188  0.4494  0.0706  0.1508
   12CHTO  H174 4725   4.056  10.161  -0.250 -0.2445 -1.5625  2.0303
   12CHTO  H175 4726   3.925  10.260  -0.182  0.3586 -0.2675 -0.7235
   12CHTO   C97 4727   4.156  10.162   0.021  0.5862  0.0572 -0.0026
   12CHTO  H184 4728   4.225  10.106  -0.043  0.6291  0.7974 -0.6126
   12CHTO   O64 4729   4.224  10.213   0.137  0.1222  0.0421  0.3755
   12CHTO  C104 4730   4.341  10.286   0.118  0.4116  0.1194  0.4735
   12CHTO  H191 4731   4.409  10.227   0.057  3.7454  0.7394  3.3972
   12CHTO  C108 4732   4.419  10.314   0.249  0.1007 -0.4318 -0.9231
   12CHTO   O71 4733   4.545  10.376   0.229  0.1967  0.5498 -0.5419
   12CHTO  H171 4734   4.556  10.445   0.292 -3.8463  0.4246  0.4075
   12CHTO   O62 4735   4.045  10.089   0.071 -0.0805 -0.1825  0.3967
   12CHTO   C91 4736   4.086   9.953   0.117 -0.5015  0.6097 -0.1043
   12CHTO  H178 4737   4.194   9.946   0.111 -0.5449 -0.8614  0.4566
   12CHTO   C92 4738   4.059   9.843   0.015  0.5533  0.4177  1.0053
   12CHTO  H179 4739   3.952   9.820   0.007  0.8941 -0.6703 -0.5817
   12CHTO   O66 4740   4.105   9.889  -0.113  0.7960 -0.3526 -0.1892
   12CHTO  H166 4741   4.042   9.943  -0.157 -0.0304  0.9450  2.5134
   12CHTO   C93 4742   4.136   9.709   0.051  0.0727  0.0006  0.4760
   12CHTO  H180 4743   4.245   9.728   0.046  0.1950 -0.8505 -0.3123
   12CHTO   N16 4744   4.105   9.599  -0.044  0.5244  0.2979 -0.2226
   12CHTO  H172 4745   4.127   9.502  -0.001 -0.3156  0.7224  1.2013
   12CHTO  H173 4746   4.152   9.619  -0.139  2.4246  1.0150  0.8173
   12CHTO   C94 4747   4.095   9.670   0.193 -0.0725  0.8693  0.7193
   12CHTO  H181 4748   3.991   9.638   0.198  0.0749  0.3412  0.4493
   12CHTO   O61 4749   4.102   9.779   0.291  0.3969 -0.6964 -0.2031
   12CHTO   C95 4750   4.035   9.901   0.253 -0.3753  0.2435 -0.2697
   12CHTO  H182 4751   3.928   9.882   0.248 -0.5403  0.0241  2.7674
   12CHTO  C106 4752   4.068  10.005   0.372 -0.2108  0.4466 -0.4121
   12CHTO   O69 4753   3.982  10.119   0.372 -0.2170  0.2588  0.3812
   12CHTO  H169 4754   3.990  10.158   0.286 -2.6938 -0.4097 -0.1996
   12CHTO   O63 4755   4.189   9.543   0.241  0.3370  0.0574  0.0543
   12CHTO   C96 4756   4.252   9.540   0.364  0.1663  0.5836 -0.3655
   12CHTO  H183 4757   4.209   9.610   0.435  0.1586 -0.5828  0.7835
   12CHTO   C98 4758   4.404   9.559   0.351 -0.7066 -0.3316 -0.1654
   12CHTO  H185 4759   4.433   9.511   0.256 -0.3326  0.5125 -0.4750
   12CHTO   O67 4760   4.435   9.691   0.330 -0.1070 -0.3643 -0.0251
   12CHTO  H167 4761   4.521   9.711   0.360 -0.3023 -0.4086  0.5737
   12CHTO  C102 4762   4.475   9.506   0.489 -0.4825  0.2763 -0.4562
   12CHTO  H189 4763   4.451   9.579   0.567  0.0317  0.7452 -0.7384
   12CHTO   N18 4764   4.622   9.507   0.485 -0.0084  0.3036  0.1533
   12CHTO  H176 4765   4.673   9.412   0.501 -0.1220  0.5707  2.2344
   12CHTO  H177 4766   4.668   9.585   0.544 -1.1694  0.1264  1.3052
   12CHTO  C105 4767   4.421   9.368   0.537 -0.5679  0.1777  0.0662
   12CHTO  H192 4768   4.452   9.289   0.469 -0.5598 -0.5549  0.9050
   12CHTO   O65 4769   4.275   9.369   0.541 -0.0203  0.0029  0.4521
   12CHTO  C100 4770   4.209   9.397   0.417  0.1470  0.2725  0.5133
   12CHTO  H187 4771   4.228   9.319   0.342  0.6509  1.2872 -0.4303
   12CHTO  C107 4772   4.060   9.370   0.441 -0.4372  0.0136 -0.2292
   12CHTO   O70 4773   3.983   9.352   0.322  0.1655 -0.4260 -0.3371
   12CHTO  H170 4774   3.951   9.433   0.289  0.5990 -0.5581 -1.0990
   12CHTO   O57 4775   4.484   9.326   0.677  0.0997 -0.2200  0.2062
   12CHTO   C85 4776   4.454   9.383   0.802  0.0526 -0.1165 -0.8573
   12CHTO  H157 4777   4.361   9.440   0.782 -1.2371 -1.0904  2.0274
   12CHTO   C83 4778   4.570   9.476   0.850  0.8897  0.5366  0.0043
   12CHTO  H155 4779   4.585   9.552   0.775  0.7735 -1.2439 -1.8672
   12CHTO   O56 4780   4.695   9.405   0.862  0.3926 -0.2090  0.3548
   12CHTO  H135 4781   4.759   9.425   0.796 -0.9086 -1.8465 -1.4465
   12CHTO   C81 4782   4.517   9.542   0.979 -0.1827 -0.0202 -0.3256
   12CHTO  H153 4783   4.422   9.591   0.956 -0.2553 -0.0496 -0.0876
   12CHTO   N14 4784   4.620   9.643   1.027 -0.4013  0.1721 -0.7129
   12CHTO  H141 4785   4.715   9.597   1.045  0.1005  1.2041 -0.6991
   12CHTO  H142 4786   4.634   9.715   0.949 -1.5705  0.4101 -0.7120
   12CHTO   C79 4787   4.502   9.433   1.092 -0.7307  1.1059 -0.5032
   12CHTO  H151 4788   4.466   9.482   1.182  0.7057  1.1421  0.0569
   12CHTO   O52 4789   4.412   9.329   1.046  0.3227  0.5118 -0.3194
   12CHTO   C86 4790   4.432   9.278   0.913 -0.1239  0.0281 -0.1053
   12CHTO  H158 4791   4.523   9.216   0.929 -0.2752 -0.1262  0.1586
   12CHTO   C90 4792   4.317   9.172   0.875 -0.3750  0.7669 -0.4806
   12CHTO   O60 4793   4.187   9.226   0.899  0.1851 -0.4586 -0.1755
   12CHTO  H138 4794   4.158   9.219   0.988  0.8619  1.4396  0.1995
   12CHTO   O50 4795   4.615   9.360   1.140 -0.1473  0.0588  0.1268
   12CHTO   C73 4796   4.695   9.285   1.230  0.4252 -0.5861 -0.8125
   12CHTO  H145 4797   4.642   9.198   1.272  1.7496 -0.3644  1.4677
   12CHTO   C74 4798   4.737   9.364   1.365  0.3923  0.1396  0.3137
   12CHTO  H146 4799   4.649   9.400   1.419 -0.2063  2.7743 -2.2824
   12CHTO   O54 4800   4.801   9.267   1.445 -0.3362 -0.4584 -0.2336
   12CHTO  H133 4801   4.758   9.273   1.528 -0.9804  1.5358 -0.6779
   12CHTO   C75 4802   4.832   9.483   1.323  0.1444  0.0918 -0.3365
   12CHTO  H147 4803   4.780   9.555   1.258  0.4917  1.1623  0.5374
   12CHTO   N13 4804   4.885   9.578   1.428 -0.5422  0.3183  0.2730
   12CHTO  H139 4805   4.932   9.664   1.383  0.5780  1.1269  2.8988
   12CHTO  H140 4806   4.964   9.522   1.475  0.1958 -0.4469 -1.8150
   12CHTO   C76 4807   4.958   9.429   1.236 -0.0092 -0.0313  0.6358
   12CHTO  H148 4808   5.001   9.357   1.306 -2.0659 -1.9437  0.0195
   12CHTO   O49 4809   4.908   9.350   1.122  0.1503 -0.2213  0.4304
   12CHTO   C77 4810   4.831   9.235   1.163 -1.0241 -0.1155 -0.1007
   12CHTO  H149 4811   4.885   9.178   1.238 -1.4641 -0.2368  0.1246
   12CHTO   C88 4812   4.817   9.142   1.046  0.1992  0.7228 -0.0645
   12CHTO   O58 4813   4.738   9.036   1.076 -0.1578  0.1909  0.0679
   12CHTO  H136 4814   4.687   9.021   0.999 -1.5500 -0.4019  1.0845
   12CHTO   O51 4815   5.054   9.563   1.182 -0.0362 -0.1949  0.1143
   12CHTO   C78 4816   5.193   9.488   1.101  0.8650 -0.6896  0.4768
   12CHTO  H150 4817   5.167   9.390   1.056 -0.9659  0.0284 -0.0470
   12CHTO   C80 4818   5.315   9.461   1.186  0.0053 -0.4289  0.3377
   12CHTO  H152 4819   5.353   9.553   1.236  0.5907 -0.2263 -0.4655
   12CHTO   O55 4820   5.269   9.378   1.301 -0.2354 -0.4171 -0.6756
   12CHTO  H134 4821   5.211   9.429   1.355 -0.4405 -1.4575  0.1210
   12CHTO   C84 4822   5.423   9.390   1.094  0.0971 -0.5329  0.1896
   12CHTO  H156 4823   5.386   9.294   1.059 -0.3543  0.4606 -2.1248
   12CHTO   N15 4824   5.536   9.351   1.178  1.1638  0.5846  0.4179
   12CHTO  H143 4825   5.626   9.394   1.141  1.1579 -0.9151 -1.3608
   12CHTO  H144 4826   5.551   9.245   1.178  0.6246  0.5084 -0.2018
   12CHTO   C87 4827   5.467   9.487   0.980 -0.3775 -1.1403  0.4914
   12CHTO  H159 4828   5.509   9.573   1.031 -2.1975 -0.2288  0.5124
   12CHTO   O53 4829   5.338   9.536   0.903 -0.2373  0.7171  0.1875
   12CHTO   C82 4830   5.233   9.590   0.989 -0.3755 -0.3493 -0.5633
   12CHTO  H154 4831   5.265   9.685   1.030 -1.0591  1.1149 -3.3153
   12CHTO   C89 4832   5.123   9.616   0.883 -0.2733 -0.7939 -0.3587
   12CHTO   O59 4833   5.004   9.675   0.939  0.3527  0.3180  0.5736
   12CHTO  H137 4834   4.989   9.764   0.912 -0.7273 -0.0540 -0.1229
   12CHTO   O45 4835   5.583   9.414   0.867  0.8104 -0.4103 -0.4136
   12CHTO   C67 4836   5.614   9.476   0.740 -0.1781  0.2936 -0.1277
   12CHTO  H124 4837   5.706   9.429   0.706  0.6026  0.6211  1.4727
   12CHTO   C65 4838   5.503   9.453   0.634  0.5116 -0.6336 -0.6896
   12CHTO  H122 4839   5.408   9.433   0.684  1.1238  0.8850  1.1294
   12CHTO   O44 4840   5.535   9.335   0.557 -0.1754 -0.2501  0.0391
   12CHTO  H102 4841   5.468   9.301   0.501  0.4942  0.5583 -1.2538
   12CHTO   C63 4842   5.467   9.578   0.542 -0.1988  1.1906  0.2628
   12CHTO  H120 4843   5.410   9.648   0.603  0.0968 -0.9858  3.1476
   12CHTO   N11 4844   5.380   9.551   0.427  0.0441  0.3320 -0.4784
   12CHTO  H108 4845   5.430   9.486   0.358 -0.2518  1.6502 -1.9502
   12CHTO  H109 4846   5.287   9.509   0.461  0.7273 -1.9726 -1.3329
   12CHTO   C61 4847   5.605   9.655   0.510 -0.1166  0.5319  0.6776
   12CHTO  H118 4848   5.584   9.748   0.455  0.3800  0.9776  1.2415
   12CHTO   O40 4849   5.681   9.699   0.630 -0.5942  0.0016 -0.5167
   12CHTO   C68 4850   5.641   9.635   0.758  1.6794  0.2553 -1.0618
   12CHTO  H125 4851   5.561   9.701   0.796  0.6719 -0.7600 -1.4014
   12CHTO   C72 4852   5.764   9.664   0.843  0.0013  0.4476  0.3318
   12CHTO   O48 4853   5.755   9.610   0.976 -0.5533  0.3182 -0.2586
   12CHTO  H105 4854   5.813   9.660   1.031  0.9523 -2.4685  0.7650
   12CHTO   O38 4855   5.681   9.576   0.418 -0.0595 -0.0526  0.5637
   12CHTO   C55 4856   5.764   9.660   0.339  0.3531  0.2297  0.2686
   12CHTO  H112 4857   5.786   9.755   0.391 -0.8155  0.1706  0.8688
   12CHTO   C56 4858   5.718   9.687   0.187  0.0525  0.0558  0.6272
   12CHTO  H113 4859   5.688   9.588   0.151 -0.7354  1.1152 -1.7005
   12CHTO   O42 4860   5.595   9.763   0.190  0.6336 -0.1879  0.2716
   12CHTO  H100 4861   5.552   9.765   0.107 -1.3454 -1.3507  1.2182
   12CHTO   C57 4862   5.828   9.754   0.093 -0.4338  0.5684 -0.5469
   12CHTO  H114 4863   5.837   9.858   0.125 -0.8309 -0.4203  3.1016
   12CHTO   N10 4864   5.793   9.756  -0.054  0.9964 -0.0119 -0.1380
   12CHTO  H106 4865   5.821   9.662  -0.099  0.3871  0.5496 -1.7210
   12CHTO  H107 4866   5.855   9.830  -0.103 -1.2324  1.1834 -1.2221
   12CHTO   C58 4867   5.966   9.689   0.115  0.6878  0.4191  0.2281
   12CHTO  H115 4868   5.964   9.585   0.076 -0.5832  0.4069  0.3225
   12CHTO   O37 4869   5.988   9.676   0.258 -0.1734  0.1186  0.3055
   12CHTO   C59 4870   5.902   9.585   0.326  0.5965  0.2402 -0.7454
   12CHTO  H116 4871   5.894   9.488   0.276 -0.3705 -0.7511  1.2712
   12CHTO   C70 4872   5.963   9.546   0.462  0.1108  0.3187  0.5648
   12CHTO   O46 4873   5.909   9.419   0.509 -0.2242  0.4404  0.1655
   12CHTO  H103 4874   5.828   9.424   0.557  0.7370 -0.3398  1.9356
   12CHTO   O39 4875   6.081   9.767   0.041  0.0125  0.4781  0.1219
   12CHTO   C60 4876   6.217   9.751   0.089  0.7352 -0.4283 -0.3654
   12CHTO  H117 4877   6.218   9.699   0.185 -0.0411  1.1334  0.5029
   12CHTO   C62 4878   6.302   9.663  -0.010  0.5821 -0.5422  0.0086
   12CHTO  H119 4879   6.249   9.566  -0.016 -1.2507  0.4630 -0.2865
   12CHTO   O43 4880   6.306   9.715  -0.142  0.5650 -0.4066 -0.5732
   12CHTO  H101 4881   6.369   9.783  -0.152  0.1217 -0.3223 -2.9911
   12CHTO   C66 4882   6.447   9.635   0.066  0.5223  0.4001  0.9218
   12CHTO  H123 4883   6.425   9.590   0.163  1.6696  1.2372  1.5819
   12CHTO   N12 4884   6.526   9.534  -0.008  0.3014  0.1130  0.2228
   12CHTO  H110 4885   6.611   9.489   0.042  1.7255  1.7485 -0.6864
   12CHTO  H111 4886   6.526   9.552  -0.115 -0.4998 -1.1729 -0.0133
   12CHTO   C69 4887   6.526   9.758   0.105 -0.1637  0.0711  0.4882
   12CHTO  H126 4888   6.587   9.792   0.019 -0.8447 -2.2346 -0.9389
   12CHTO   O41 4889   6.426   9.866   0.160 -0.2897  0.3774 -0.0473
   12CHTO   C64 4890   6.286   9.888   0.112  0.5088  0.1403 -0.1486
   12CHTO  H121 4891   6.285   9.938   0.013  3.9137 -0.2762 -0.4229
   12CHTO   C71 4892   6.210   9.970   0.223  0.7875 -0.8926  0.4229
   12CHTO   O47 4893   6.082   9.988   0.167  0.0725  0.1162 -0.7494
   12CHTO  H104 4894   6.047  10.068   0.203  0.5940  0.7020 -1.5369
   12CHTO   O34 4895   6.625   9.727   0.227  0.1085  0.2893 -0.3362
   12CHTO   C49 4896   6.660   9.711   0.373 -0.8522  0.3670  0.4317
   12CHTO   H91 4897   6.720   9.793   0.412  0.9117 -0.9152  0.4668
   12CHTO   C47 4898   6.740   9.578   0.393  0.2974 -1.1944  0.2149
   12CHTO   H89 4899   6.778   9.587   0.497 -1.7155  0.5468  0.8351
   12CHTO   O33 4900   6.850   9.585   0.298  0.0527 -0.2511 -0.4150
   12CHTO   H70 4901   6.933   9.567   0.339 -0.1910 -0.6519 -0.0876
   12CHTO   C45 4902   6.646   9.451   0.379  0.1140 -0.4100  0.3163
   12CHTO   H87 4903   6.608   9.460   0.277  0.9355  2.2070  0.2044
   12CHTO    N8 4904   6.732   9.329   0.386 -0.3366 -0.0387  0.2089
   12CHTO   H75 4905   6.681   9.250   0.440  1.5417  0.1481  2.3788
   12CHTO   H76 4906   6.823   9.350   0.442  0.4706 -1.2449 -0.6223
   12CHTO   C43 4907   6.517   9.454   0.474  0.3129 -0.3404  0.2567
   12CHTO   H85 4908   6.450   9.379   0.431  1.9721 -0.8315 -1.5314
   12CHTO   O29 4909   6.461   9.584   0.466 -0.1221 -0.6537 -0.2275
   12CHTO   C50 4910   6.532   9.703   0.460  0.6191 -0.3127  0.1990
   12CHTO   H92 4911   6.464   9.780   0.421  0.2578  0.0651  1.5570
   12CHTO   C54 4912   6.557   9.736   0.602 -0.2307  0.1816 -0.1405
   12CHTO   O36 4913   6.440   9.781   0.666 -0.3998 -0.1064 -0.2662
   12CHTO   H72 4914   6.453   9.874   0.660 -1.8184  0.1515  0.4500
   12CHTO   O27 4915   6.543   9.405   0.605 -0.2407  0.7518 -0.0060
   12CHTO   C37 4916   6.450   9.348   0.702 -0.7603 -0.1892  0.3690
   12CHTO   H79 4917   6.514   9.315   0.786  0.1019  0.5188  0.0074
   12CHTO   C38 4918   6.350   9.451   0.762  0.3145  0.0781  0.3378
   12CHTO   H80 4919   6.300   9.502   0.677  1.8669  1.4136  0.2140
   12CHTO   O31 4920   6.428   9.545   0.839 -0.6293 -0.3106  0.6176
   12CHTO   H68 4921   6.441   9.521   0.928  1.4900  1.3037  0.7957
   12CHTO   C39 4922   6.242   9.388   0.860  0.6768  0.2376  0.2617
   12CHTO   H81 4923   6.300   9.347   0.943 -0.7925 -0.6812  0.8446
   12CHTO    N7 4924   6.143   9.487   0.915  0.6893  0.6073 -0.5601
   12CHTO   H73 4925   6.111   9.552   0.835  3.1430  1.9210 -0.5291
   12CHTO   H74 4926   6.062   9.429   0.957  1.8033 -1.8400 -1.6935
   12CHTO   C40 4927   6.176   9.261   0.783  0.2407  0.4999  0.4434
   12CHTO   H82 4928   6.120   9.288   0.693  1.5716 -1.1514 -0.9226
   12CHTO   O26 4929   6.286   9.170   0.745 -0.7072 -1.0666 -0.3414
   12CHTO   C41 4930   6.368   9.225   0.641  1.0243 -0.4778 -0.7221
   12CHTO   H83 4931   6.299   9.252   0.560  0.2025 -1.0922 -0.2206
   12CHTO   C52 4932   6.472   9.119   0.592  0.2887  0.3057 -0.1451
   12CHTO   O35 4933   6.424   9.007   0.527 -0.2442  0.0173 -0.2886
   12CHTO   H71 4934   6.484   8.963   0.469 -0.7816 -1.4344  0.2457
   12CHTO   O28 4935   6.105   9.175   0.874  0.1493  0.6410  0.2952
   12CHTO   C42 4936   5.988   9.100   0.824  0.0525  0.3510  0.5013
   12CHTO   H84 4937   5.978   9.017   0.894 -0.0401  0.7382  0.9505
   12CHTO   C44 4938   5.990   9.048   0.677 -0.3708  0.0512  0.6699
   12CHTO   H86 4939   6.003   9.128   0.604 -2.3920 -0.3379 -0.1607
   12CHTO   O32 4940   6.109   8.963   0.674  0.1308 -0.2062  0.6214
   12CHTO   H69 4941   6.186   9.015   0.689  0.5748 -0.6323 -0.1353
   12CHTO   C48 4942   5.851   8.974   0.648  0.5348  0.1864 -0.0656
   12CHTO   H90 4943   5.852   8.878   0.700  1.2425 -0.9831 -2.1528
   12CHTO    N9 4944   5.834   8.935   0.507 -0.6636 -0.1884  0.5247
   12CHTO   H77 4945   5.810   9.018   0.443 -0.3897  0.2633  1.0033
   12CHTO   H78 4946   5.932   8.897   0.482 -0.3661  0.6138  0.4648
   12CHTO   C51 4947   5.716   9.043   0.700 -0.2133 -0.3126  0.3026
   12CHTO   H93 4948   5.685   9.124   0.634 -1.2957 -2.9760 -2.5938
   12CHTO   O30 4949   5.752   9.085   0.837  0.0059  0.7555 -0.1731
   12CHTO   C46 4950   5.858   9.184   0.835  0.4590  0.2703 -0.0532
   12CHTO   H88 4951   5.840   9.242   0.744 -0.9838  0.5936  0.4271
   12CHTO   C53 4952   5.850   9.275   0.962 -0.1261  0.1561  0.2012
   12CHTO   O72 4953   5.846   9.208   1.084 -0.4047  0.7739  0.3695
   12CHTO  H199 4954   5.759   9.221   1.117 -0.3980 -1.7094  1.4910
   12CHTO   O22 4955   5.607   8.954   0.708  0.2067  0.2428  0.3119
   12CHTO   C31 4956   5.464   8.982   0.685 -0.3031 -0.6588 -0.1767
   12CHTO   H59 4957   5.413   8.888   0.713  1.0843 -2.0696 -2.2108
   12CHTO   C29 4958   5.400   9.096   0.768  0.4246  0.0588 -0.1057
   12CHTO   H57 4959   5.448   9.190   0.739  2.3115 -0.6006  0.8041
   12CHTO   O21 4960   5.430   9.065   0.899 -0.7982  0.1855 -0.4504
   12CHTO   H37 4961   5.513   9.101   0.923 -0.5645 -0.1958 -0.6863
   12CHTO   C27 4962   5.244   9.107   0.748  0.0609  0.3024  0.8691
   12CHTO   H55 4963   5.195   9.012   0.775  0.3138 -0.2335 -0.5531
   12CHTO    N5 4964   5.190   9.215   0.829  0.3709 -1.5170  0.5150
   12CHTO   H43 4965   5.083   9.213   0.844  0.1579 -0.9854 -0.9077
   12CHTO   H44 4966   5.202   9.306   0.773 -1.4285 -0.9084  1.0814
   12CHTO   C25 4967   5.213   9.121   0.596 -0.8230 -0.2239 -0.2813
   12CHTO   H53 4968   5.260   9.210   0.553  0.2904 -0.7574 -0.1854
   12CHTO   O17 4969   5.269   9.004   0.528 -0.0071  0.0521  0.0829
   12CHTO   C32 4970   5.413   9.011   0.534 -0.3650 -0.1511 -0.8404
   12CHTO   H60 4971   5.456   9.107   0.506 -0.5170  0.0594 -0.3754
   12CHTO   C36 4972   5.463   8.909   0.431  0.6501  0.8515 -0.7352
   12CHTO   O25 4973   5.412   8.774   0.456  0.3015 -0.0067 -0.5876
   12CHTO   H40 4974   5.439   8.714   0.389 -0.2983 -3.6205  2.2513
   12CHTO   O15 4975   5.073   9.117   0.574 -0.7133 -0.6932 -0.0357
   12CHTO   C19 4976   4.961   9.163   0.492 -1.3137  0.1622 -0.2477
   12CHTO   H47 4977   4.950   9.267   0.526 -2.3571 -0.2558  0.7096
   12CHTO   C20 4978   4.994   9.161   0.340 -1.0674  0.4464  0.4673
   12CHTO   H48 4979   5.030   9.062   0.308  1.7644  0.7031  2.7302
   12CHTO   O19 4980   5.109   9.248   0.327  0.3377 -0.1235  0.4009
   12CHTO   H35 4981   5.134   9.257   0.237 -0.1042 -0.5327  0.2334
   12CHTO   C21 4982   4.867   9.204   0.257  0.1933  0.0404 -1.1381
   12CHTO   H49 4983   4.845   9.309   0.271  1.2605  0.4288 -2.3230
   12CHTO    N4 4984   4.885   9.193   0.111 -0.1560 -0.0651  0.2825
   12CHTO   H41 4985   4.783   9.204   0.077 -0.8530 -1.3013  1.8969
   12CHTO   H42 4986   4.943   9.276   0.073 -2.2532 -0.7439 -4.9516
   12CHTO   C22 4987   4.747   9.119   0.307  0.2002 -0.3323  0.5104
   12CHTO   H50 4988   4.767   9.016   0.276  0.8623 -0.6989  2.0592
   12CHTO   O14 4989   4.729   9.136   0.447  0.1926 -0.0028 -0.5774
   12CHTO   C23 4990   4.829   9.089   0.528 -0.9952  0.1698 -0.3241
   12CHTO   H51 4991   4.839   8.981   0.513  0.3876 -0.3512  3.6110
   12CHTO   C34 4992   4.783   9.124   0.675  0.0730  0.0678  0.2104
   12CHTO   O23 4993   4.680   9.045   0.723  0.8723  0.6238 -0.1137
   12CHTO   H38 4994   4.692   9.027   0.814 -2.3614 -0.6366  0.1503
   12CHTO   O16 4995   4.619   9.162   0.266 -1.0167 -0.8366 -0.2355
   12CHTO   C24 4996   4.504   9.064   0.226  0.4084  0.6620  0.0878
   12CHTO   H52 4997   4.542   8.976   0.174 -0.0442  0.0056  0.8568
   12CHTO   C26 4998   4.399   9.131   0.136  0.0091 -1.1962 -0.1772
   12CHTO   H54 4999   4.376   9.229   0.183  1.3693 -1.2705  0.6551
   12CHTO   O20 5000   4.476   9.170   0.023  0.5745  0.2382 -0.7061
   12CHTO   H36 5001   4.511   9.098  -0.026  1.1847  1.2256 -1.7525
   12CHTO   C30 5002   4.275   9.044   0.104 -0.4347 -0.2929  0.1827
   12CHTO   H58 5003   4.317   8.955   0.056 -0.7100  0.4381 -1.4348
   12CHTO    N6 5004   4.183   9.120   0.008 -0.4187 -0.2280 -0.2923
   12CHTO   H45 5005   4.083   9.138   0.043  0.2353  0.4622  1.2859
   12CHTO   H46 5006   4.226   9.209  -0.036 -1.3897  0.4753  0.1786
   12CHTO   C33 5007   4.210   8.990   0.229  0.0685  0.0167 -0.6793
   12CHTO   H61 5008   4.156   9.071   0.281  1.5956  0.9247 -0.4762
   12CHTO   O18 5009   4.312   8.938   0.316 -0.4482  0.2668  0.0654
   12CHTO   C28 5010   4.433   9.013   0.354  0.3419  0.1232 -1.0407
   12CHTO   H56 5011   4.405   9.094   0.421  1.0486  0.5818 -1.2959
   12CHTO   C35 5012   4.523   8.927   0.433  0.5999  0.1544 -0.3694
   12CHTO   O24 5013   4.471   8.885   0.552  0.2306  0.0285 -0.0805
   12CHTO   H39 5014   4.424   8.805   0.536 -0.9807  0.3599  1.6583
   12CHTO    O9 5015   4.104   8.889   0.209 -0.4869 -0.3922 -0.4323
   12CHTO   C13 5016   4.181   8.738   0.156  0.1347 -0.1554 -0.8360
   12CHTO   H26 5017   4.289   8.761   0.144  0.8028 -0.1349  4.0186
   12CHTO   C11 5018   4.106   8.705   0.021 -0.3794  0.4267 -0.5455
   12CHTO   H24 5019   4.130   8.780  -0.057  1.3171  0.8854  0.3941
   12CHTO    O8 5020   3.967   8.700   0.039 -0.3290  0.4990  0.2366
   12CHTO    H3 5021   3.940   8.613   0.064  1.5310  0.0918  0.8705
   12CHTO    C9 5022   4.155   8.568  -0.028 -0.3086 -0.3041 -0.3643
   12CHTO   H22 5023   4.264   8.581  -0.041 -0.6518 -0.3161 -3.4896
   12CHTO    N2 5024   4.109   8.519  -0.159  0.0153  0.0682 -0.1061
   12CHTO   H10 5025   4.041   8.581  -0.217  0.4521  0.1019 -0.5842
   12CHTO   H11 5026   4.187   8.474  -0.218  1.5247  0.5460  1.4903
   12CHTO    C7 5027   4.151   8.455   0.084  0.4660 -0.2593  0.1146
   12CHTO   H20 5028   4.210   8.371   0.041 -0.0265  0.2520 -1.6120
   12CHTO    O4 5029   4.210   8.498   0.208 -0.0335 -0.2513  0.6254
   12CHTO   C14 5030   4.179   8.622   0.263  0.5469  0.1124  0.1246
   12CHTO   H27 5031   4.258   8.659   0.332 -1.1918  1.7776  1.2570
   12CHTO   C18 5032   4.046   8.623   0.342 -0.3664  0.2159 -0.0305
   12CHTO   O13 5033   4.051   8.552   0.464 -0.6095  0.5988 -0.2216
   12CHTO    H7 5034   4.125   8.575   0.517 -0.0922  2.9588 -1.8870
   12CHTO    O2 5035   3.992   8.382   0.103  0.3083  0.4021  0.0071
   12CHTO    C1 5036   3.996   8.284   0.210  0.0923 -0.2038  0.2266
   12CHTO   H14 5037   4.049   8.318   0.302 -2.2695 -0.2080  1.6228
   12CHTO    C2 5038   4.061   8.141   0.167 -0.1079 -0.2840 -1.3494
   12CHTO   H15 5039   4.014   8.114   0.071 -0.5291 -1.2804 -0.8670
   12CHTO    O6 5040   4.202   8.151   0.140 -0.4087 -0.2097  0.4438
   12CHTO    H1 5041   4.228   8.103   0.064 -0.1738 -0.8015  0.8972
   12CHTO    C3 5042   4.036   8.030   0.282  0.5382 -0.0470  0.0424
   12CHTO   H16 5043   4.095   8.048   0.373  2.0786  1.3854 -1.1969
   12CHTO    N1 5044   4.083   7.894   0.232 -0.4168  0.7301  0.3211
   12CHTO    H8 5045   4.062   7.825   0.311 -0.7331  1.3777  0.8108
   12CHTO    H9 5046   4.020   7.864   0.149  1.7770 -0.2343 -1.0433
   12CHTO    C4 5047   3.887   8.034   0.320 -0.1841 -0.2314  0.3294
   12CHTO   H17 5048   3.836   7.995   0.232  3.1208  1.0195 -2.2531
   12CHTO    O1 5049   3.841   8.167   0.350  0.1357  0.2808  0.5597
   12CHTO    C5 5050   3.853   8.256   0.238 -0.0452  0.2484 -0.4726
   12CHTO   H18 5051   3.803   8.208   0.154  0.0008  0.3476 -0.5567
   12CHTO   C16 5052   3.778   8.384   0.276 -0.1104  0.3057 -0.2469
   12CHTO   O11 5053   3.646   8.344   0.253 -0.9735 -0.1537  0.3187
   12CHTO    H5 5054   3.602   8.325   0.334 -0.0575 -1.0519  0.6158
   12CHTO    O3 5055   3.870   7.965   0.445 -0.1115 -0.0176 -0.2185
   12CHTO    C6 5056   3.743   7.900   0.453  0.1049  0.0564  0.4182
   12CHTO   H19 5057   3.665   7.934   0.384 -0.7910 -0.9286  0.9268
   12CHTO    C8 5058   3.764   7.746   0.437 -0.6190  1.0949  0.1216
   12CHTO   H21 5059   3.832   7.711   0.515 -0.6520  0.8259  0.0319
   12CHTO    O7 5060   3.818   7.718   0.307 -0.1834  0.8271  0.6404
   12CHTO    H2 5061   3.860   7.798   0.283 -0.3725  0.6609 -0.2867
   12CHTO   C12 5062   3.629   7.668   0.474 -0.5337  0.0452  0.5000
   12CHTO   H25 5063   3.553   7.701   0.399 -2.4311 -0.3752  2.2021
   12CHTO    N3 5064   3.639   7.519   0.446  0.1881 -0.3087  0.7450
   12CHTO   H12 5065   3.690   7.494   0.355 -0.0140 -1.4355  0.9268
   12CHTO   H13 5066   3.538   7.481   0.433 -0.1029  1.0918 -1.3442
   12CHTO   C15 5067   3.586   7.714   0.618 -0.3403 -0.0943 -0.0103
   12CHTO   H28 5068   3.662   7.686   0.690 -0.2432 -0.0696 -0.1046
   12CHTO   O10 5069   3.456   7.649   0.662 -0.3154 -0.2093  0.1549
   12CHTO    H4 5070   3.476   7.578   0.720 -1.0777  1.3008  2.3787
   12CHTO    O5 5071   3.567   7.855   0.626 -0.0185  0.1465 -0.2718
   12CHTO   C10 5072   3.685   7.927   0.593  0.1012 -0.4924  0.9397
   12CHTO   H23 5073   3.760   7.906   0.670 -1.0320 -0.9235  1.9414
   12CHTO   C17 5074   3.644   8.074   0.594 -0.1383  0.0121 -0.3771
   12CHTO   O12 5075   3.612   8.103   0.729 -0.5473  0.0967 -0.3004
   12CHTO    H6 5076   3.520   8.110   0.744 -0.2657  0.5446  1.3448
   13CHTO  H203 5077   7.797   4.483   2.229 -1.1902 -2.9861 -1.3670
   13CHTO   O82 5078   7.712   4.522   2.228  0.1251  0.1104 -0.0285
   13CHTO  C123 5079   7.665   4.517   2.091 -0.0697 -0.0701  0.6417
   13CHTO  H227 5080   7.703   4.423   2.048 -1.0657 -0.9452  1.6298
   13CHTO   O77 5081   7.516   4.516   2.107 -0.3563  0.0892  0.3233
   13CHTO  C118 5082   7.440   4.552   1.988  0.2404  0.5506  0.1202
   13CHTO  H222 5083   7.476   4.484   1.909 -0.3569  0.3650  0.0012
   13CHTO  C125 5084   7.281   4.517   2.010 -0.2969 -0.4526 -0.5877
   13CHTO   O84 5085   7.265   4.375   1.996 -0.8006  0.4536 -0.5847
   13CHTO  H205 5086   7.205   4.349   1.929 -0.6092  3.2944 -1.8888
   13CHTO  C114 5087   7.469   4.694   1.943 -0.4393 -0.7160 -0.3349
   13CHTO  H218 5088   7.466   4.756   2.032 -0.7379 -2.0812  0.6217
   13CHTO  C116 5089   7.620   4.687   1.893 -0.6834  0.0376  0.2987
   13CHTO  H220 5090   7.641   4.612   1.814  0.6751  0.9704 -0.2514
   13CHTO   O79 5091   7.669   4.812   1.846 -0.6534 -0.7009  0.5363
   13CHTO  H201 5092   7.681   4.871   1.918  0.2776 -1.3043  0.8893
   13CHTO  C120 5093   7.713   4.641   2.014 -0.5157 -0.4843  0.5254
   13CHTO  H224 5094   7.704   4.728   2.083 -0.4106 -0.2395  0.2278
   13CHTO   N21 5095   7.860   4.629   1.987  0.7028 -0.1187  0.0102
   13CHTO  H211 5096   7.873   4.571   1.897 -1.3471  0.1037 -0.4475
   13CHTO  H212 5097   7.905   4.724   1.961 -0.2678 -0.3505 -2.7056
   13CHTO   O75 5098   7.370   4.750   1.855  0.6781 -0.0330  0.0493
   13CHTO  C112 5099   7.306   4.906   1.877  0.3134  0.0310 -0.3715
   13CHTO  H216 5100   7.373   4.974   1.932  2.1505 -2.8666  1.0972
   13CHTO   O73 5101   7.177   4.886   1.943 -0.4073 -0.0351 -0.7112
   13CHTO  C113 5102   7.113   5.015   1.965 -0.9070  0.4219  0.1293
   13CHTO  H217 5103   7.185   5.070   2.029  0.5095 -0.8223 -0.3419
   13CHTO  C124 5104   6.990   4.975   2.054 -0.0974  0.3435  0.1427
   13CHTO   O83 5105   6.902   4.879   1.993  0.0826 -0.6541  0.7728
   13CHTO  H204 5106   6.849   4.852   2.066 -1.0841  1.5527  0.7758
   13CHTO  C109 5107   7.083   5.092   1.831 -0.3982  0.5115 -0.0232
   13CHTO  H213 5108   7.013   5.034   1.770  1.8815  1.1329 -3.3700
   13CHTO  C110 5109   7.212   5.111   1.750  0.3717 -0.0558  0.1552
   13CHTO  H214 5110   7.264   5.193   1.801  0.7795  0.9114 -1.7717
   13CHTO   O78 5111   7.181   5.172   1.628  0.2552  0.0967 -0.5675
   13CHTO  H200 5112   7.175   5.265   1.639 -0.4645 -0.1280  0.9884
   13CHTO  C111 5113   7.291   4.978   1.739 -0.1119 -0.2757  0.3395
   13CHTO  H215 5114   7.236   4.903   1.681 -0.0718 -2.5871  3.1340
   13CHTO   N19 5115   7.427   4.987   1.679 -0.0066 -0.1036  0.4462
   13CHTO  H207 5116   7.454   4.892   1.636 -0.6695 -0.4472  0.7704
   13CHTO  H208 5117   7.417   5.051   1.593 -0.6771  0.1680  0.7225
   13CHTO   O74 5118   7.020   5.225   1.861 -0.1244  0.4063  0.2766
   13CHTO  C115 5119   6.855   5.234   1.837 -0.3704 -0.6323  0.6236
   13CHTO  H219 5120   6.829   5.289   1.747  0.5464 -2.0398 -0.5205
   13CHTO   O76 5121   6.793   5.085   1.814 -0.0025  0.2553  0.3713
   13CHTO  C122 5122   6.655   5.062   1.829  0.5097 -0.5188  1.0308
   13CHTO  H226 5123   6.634   4.955   1.833 -1.3078 -0.2004  0.6701
   13CHTO  C126 5124   6.581   5.115   1.694 -0.6867 -0.5123  0.0942
   13CHTO   O85 5125   6.439   5.123   1.696 -0.2128 -0.1301 -0.6223
   13CHTO  H206 5126   6.405   5.107   1.781  1.4869 -0.5160  0.0072
   13CHTO  C121 5127   6.605   5.136   1.956  0.4650  0.3065  0.0910
   13CHTO  H225 5128   6.495   5.130   1.955  0.5070 -0.5121 -1.7208
   13CHTO   O81 5129   6.661   5.050   2.054  0.1160  0.2384 -0.0585
   13CHTO  H202 5130   6.643   5.082   2.140 -2.1989  1.3427 -0.9111
   13CHTO  C119 5131   6.644   5.286   1.962  0.2225 -0.0523  0.2580
   13CHTO  H223 5132   6.606   5.333   1.871 -1.2546 -1.1904  0.2659
   13CHTO  C117 5133   6.792   5.312   1.957  0.1217  0.5017 -0.2640
   13CHTO  H221 5134   6.842   5.285   2.050 -0.3702  1.0821  0.1722
   13CHTO   N20 5135   6.820   5.458   1.952  0.7785  0.0933 -1.0180
   13CHTO  H209 5136   6.744   5.509   2.009 -0.8291 -3.2980 -0.0172
   13CHTO  H210 5137   6.824   5.495   1.851 -1.6317 -1.3165 -1.6663
   13CHTO   O80 5138   6.556   5.376   2.080  0.0521 -0.5189  0.1272
   13CHTO  C103 5139   6.426   5.447   2.035 -0.4795  0.1427  0.0319
   13CHTO  H190 5140   6.406   5.515   2.118  0.6349  0.4565  0.0449
   13CHTO  C101 5141   6.420   5.533   1.903 -0.8661  0.4393  0.2385
   13CHTO  H188 5142   6.444   5.470   1.818 -0.6703  0.7109  0.0899
   13CHTO   O68 5143   6.505   5.658   1.917  0.2737 -0.8433  0.0050
   13CHTO  H168 5144   6.551   5.684   1.840  1.7070  1.0689  1.4533
   13CHTO   C99 5145   6.269   5.585   1.863 -0.1989 -0.2744 -0.2410
   13CHTO  H186 5146   6.231   5.656   1.939 -0.2759 -1.2935  0.7002
   13CHTO   N17 5147   6.253   5.655   1.731  0.3155  0.2483 -0.7219
   13CHTO  H174 5148   6.345   5.681   1.680  1.3425 -0.3013  0.8064
   13CHTO  H175 5149   6.174   5.728   1.726 -0.0830 -0.2653 -2.0603
   13CHTO   C97 5150   6.174   5.463   1.871 -0.4149  0.0973 -0.0328
   13CHTO  H184 5151   6.189   5.399   1.783 -0.6169  0.0205 -0.0120
   13CHTO   O64 5152   6.189   5.392   1.998  0.0711  0.0939 -0.0125
   13CHTO  C104 5153   6.313   5.336   2.036  0.7261 -0.5502  0.1215
   13CHTO  H191 5154   6.339   5.261   1.962  2.3459  0.6261 -0.5375
   13CHTO  C108 5155   6.288   5.257   2.170  0.4125 -0.8630  0.3011
   13CHTO   O71 5156   6.391   5.167   2.183 -0.4317  0.8530 -0.2825
   13CHTO  H171 5157   6.477   5.202   2.200 -0.4576  0.8170 -0.0758
   13CHTO   O62 5158   6.036   5.505   1.886  0.1465 -0.5650  0.1071
   13CHTO   C91 5159   5.938   5.412   1.853 -0.7785 -0.8234 -0.4427
   13CHTO  H178 5160   5.986   5.315   1.871 -0.2336 -0.6734 -1.0742
   13CHTO   C92 5161   5.879   5.439   1.703 -0.1146  0.2814 -0.6665
   13CHTO  H179 5162   5.862   5.547   1.691 -2.5324  0.0302  0.1929
   13CHTO   O66 5163   5.991   5.402   1.620  0.8707  0.2649  0.6165
   13CHTO  H166 5164   6.017   5.463   1.553  1.5873 -0.5313  0.1616
   13CHTO   C93 5165   5.751   5.351   1.663  0.0646  0.7182 -0.4599
   13CHTO  H180 5166   5.784   5.247   1.654 -0.4880  0.2268  2.5398
   13CHTO   N16 5167   5.688   5.401   1.539 -0.0103 -0.2659  0.0896
   13CHTO  H172 5168   5.603   5.338   1.518  0.5321 -0.3029 -2.1773
   13CHTO  H173 5169   5.671   5.506   1.557  1.3902  0.0093 -0.0820
   13CHTO   C94 5170   5.650   5.355   1.784  0.2545 -0.0872  0.3286
   13CHTO  H181 5171   5.607   5.455   1.794 -0.0744 -0.4438  2.7268
   13CHTO   O61 5172   5.711   5.324   1.909 -0.0980  0.4900 -0.3193
   13CHTO   C95 5173   5.812   5.421   1.942  0.0053  0.0581  0.4251
   13CHTO  H182 5174   5.772   5.522   1.939  1.2121  0.5441  0.1691
   13CHTO  C106 5175   5.851   5.391   2.092  0.4577 -0.6062 -0.3411
   13CHTO   O69 5176   5.917   5.494   2.162 -0.6422 -0.2146  0.0374
   13CHTO  H169 5177   5.991   5.517   2.109 -2.1768  1.9966 -1.2100
   13CHTO   O63 5178   5.525   5.246   1.744 -0.0482  0.3554 -0.1560
   13CHTO   C96 5179   5.383   5.277   1.809  0.1034 -0.4012  0.3158
   13CHTO  H183 5180   5.321   5.203   1.759 -0.2213  0.2706 -0.2898
   13CHTO   C98 5181   5.332   5.422   1.798 -0.4168  0.3641  0.7933
   13CHTO  H185 5182   5.400   5.495   1.845  0.8849  0.4882 -1.2265
   13CHTO   O67 5183   5.334   5.458   1.658  0.2760 -0.3524  0.0700
   13CHTO  H167 5184   5.418   5.443   1.618 -0.0996 -2.2452 -0.0292
   13CHTO  C102 5185   5.189   5.440   1.864 -0.1762 -0.0854 -0.0783
   13CHTO  H189 5186   5.126   5.382   1.794 -0.6893 -0.5153  0.7163
   13CHTO   N18 5187   5.129   5.581   1.858  0.6014  0.5912  0.0400
   13CHTO  H176 5188   5.210   5.649   1.879  0.4563  0.7707  0.0261
   13CHTO  H177 5189   5.096   5.602   1.757 -0.4538  1.5289  0.5619
   13CHTO  C105 5190   5.181   5.378   2.006 -0.4636  0.9810  0.4147
   13CHTO  H192 5191   5.232   5.444   2.077  1.4788  0.2840 -0.3247
   13CHTO   O65 5192   5.250   5.249   2.015 -0.0610 -0.2527 -0.6471
   13CHTO  C100 5193   5.384   5.235   1.963  0.6226 -0.0772 -0.3430
   13CHTO  H187 5194   5.435   5.305   2.031  1.1715 -0.0201 -0.8008
   13CHTO  C107 5195   5.433   5.087   1.973  0.4423  0.4864 -1.0195
   13CHTO   O70 5196   5.358   4.999   1.888 -0.2530  0.3687 -0.0993
   13CHTO  H170 5197   5.267   5.023   1.885 -0.6018 -0.6004  1.8421
   13CHTO   O57 5198   5.025   5.360   2.054 -0.5738 -0.1862 -0.0060
   13CHTO   C85 5199   4.928   5.287   1.973  0.5169  1.0195 -0.8204
   13CHTO  H157 5200   4.990   5.247   1.890  0.5701 -0.8263  0.0931
   13CHTO   C83 5201   4.820   5.388   1.923 -0.2905 -0.6479 -0.0884
   13CHTO  H155 5202   4.867   5.456   1.852 -0.1620 -0.2508  0.3707
   13CHTO   O56 5203   4.776   5.464   2.036  0.2877 -0.1958 -0.0946
   13CHTO  H135 5204   4.729   5.538   2.001  0.6953 -0.8195 -1.9947
   13CHTO   C81 5205   4.697   5.321   1.856 -0.0571  0.5347 -0.8237
   13CHTO  H153 5206   4.730   5.268   1.767  0.9838 -1.4194  0.6933
   13CHTO   N14 5207   4.595   5.408   1.799 -0.4228 -0.4189 -0.4366
   13CHTO  H141 5208   4.564   5.374   1.702 -2.6228 -4.7403  1.6415
   13CHTO  H142 5209   4.642   5.503   1.788  0.3389 -0.7702 -0.2093
   13CHTO   C79 5210   4.634   5.206   1.949  0.2824  0.3635 -0.4573
   13CHTO  H151 5211   4.567   5.146   1.888 -0.6467  0.1878  0.7251
   13CHTO   O52 5212   4.740   5.115   1.984 -0.4216  0.1466 -0.0233
   13CHTO   C86 5213   4.851   5.170   2.054  0.7757 -0.5424 -0.5072
   13CHTO  H158 5214   4.799   5.208   2.144  1.9917 -2.4842  1.0526
   13CHTO   C90 5215   4.948   5.068   2.104  0.5626  0.5747  0.2564
   13CHTO   O60 5216   5.037   5.021   2.006 -0.2415 -0.1125 -0.5777
   13CHTO  H138 5217   5.104   5.086   2.008 -0.1910 -0.1999  0.8305
   13CHTO   O50 5218   4.558   5.258   2.059  0.1923 -0.8514  0.6175
   13CHTO   C73 5219   4.433   5.209   2.103 -0.3287  0.1457  0.0468
   13CHTO  H145 5220   4.388   5.149   2.023  3.5422 -0.0688 -2.0791
   13CHTO   C74 5221   4.335   5.326   2.138  0.1983  0.1575  0.3734
   13CHTO  H146 5222   4.314   5.376   2.042  1.7012 -0.3769 -0.2470
   13CHTO   O54 5223   4.213   5.279   2.183  0.4419 -0.2243 -0.2344
   13CHTO  H133 5224   4.171   5.335   2.245  0.3797  2.1694 -2.3736
   13CHTO   C75 5225   4.404   5.427   2.241 -0.1966 -0.3984 -0.3348
   13CHTO  H147 5226   4.500   5.464   2.204 -0.8233  1.4699 -0.1413
   13CHTO   N13 5227   4.331   5.552   2.272 -0.8185  0.1244 -0.4847
   13CHTO  H139 5228   4.325   5.608   2.179 -0.3599 -1.7672 -1.6838
   13CHTO  H140 5229   4.230   5.522   2.297 -0.1043  0.0041  2.4046
   13CHTO   C76 5230   4.426   5.341   2.372  0.8012 -0.5764 -0.0740
   13CHTO  H148 5231   4.327   5.305   2.403  0.1252  0.1217 -1.4135
   13CHTO   O49 5232   4.493   5.216   2.346 -0.6966  0.6050 -0.0780
   13CHTO   C77 5233   4.452   5.131   2.238 -0.0451 -0.0257  0.1825
   13CHTO  H149 5234   4.355   5.095   2.272 -0.3219 -1.2592 -1.8511
   13CHTO   C88 5235   4.549   5.012   2.228 -0.3668  0.0391 -0.3544
   13CHTO   O58 5236   4.496   4.916   2.141  0.6207  0.1080  0.0081
   13CHTO  H136 5237   4.514   4.931   2.050  0.4145 -1.1403 -0.2518
   13CHTO   O51 5238   4.522   5.427   2.499 -0.4584 -0.0329 -0.2327
   13CHTO   C78 5239   4.700   5.450   2.507 -0.3035 -0.3112 -0.3303
   13CHTO  H150 5240   4.741   5.498   2.599  1.0261  1.0822 -1.6062
   13CHTO   C80 5241   4.742   5.531   2.383  0.4804  0.8720  0.4925
   13CHTO  H152 5242   4.712   5.474   2.292  1.1632 -0.1438  0.8846
   13CHTO   O55 5243   4.691   5.659   2.384  0.3877 -0.6236  0.2049
   13CHTO  H134 5244   4.613   5.664   2.333  0.6309  2.3049  0.0766
   13CHTO   C84 5245   4.902   5.532   2.385  0.2846 -0.6373  0.1018
   13CHTO  H156 5246   4.941   5.582   2.474 -1.2939  0.2209  0.3276
   13CHTO   N15 5247   4.961   5.602   2.272 -0.3134  0.2809  0.4500
   13CHTO  H143 5248   5.048   5.662   2.290 -0.4400  0.7260 -0.3876
   13CHTO  H144 5249   4.887   5.668   2.232  0.0691  0.3868 -0.0931
   13CHTO   C87 5250   4.972   5.395   2.392 -0.4741  0.2628 -0.9542
   13CHTO  H159 5251   4.970   5.329   2.306  3.5339  0.2914 -1.1717
   13CHTO   O53 5252   4.899   5.318   2.520 -0.3789 -0.1608 -0.1513
   13CHTO   C82 5253   4.756   5.308   2.501 -0.1647  0.4993 -0.0926
   13CHTO  H154 5254   4.728   5.260   2.407  0.5535 -0.7123  0.2963
   13CHTO   C89 5255   4.698   5.213   2.615  0.7699  0.1728 -0.6769
   13CHTO   O59 5256   4.708   5.073   2.582 -0.2750 -0.2321  0.3911
   13CHTO  H137 5257   4.786   5.041   2.542 -0.4248 -0.9445  0.6599
   13CHTO   O45 5258   5.138   5.410   2.417 -0.1894 -0.7532  0.1271
   13CHTO   C67 5259   5.210   5.288   2.417  0.9980 -0.1606 -0.3886
   13CHTO  H124 5260   5.159   5.204   2.372 -1.5488  1.3139 -0.3393
   13CHTO   C65 5261   5.343   5.307   2.348 -0.0339 -0.4627 -0.3090
   13CHTO  H122 5262   5.327   5.348   2.248  0.3767  2.1537  0.6584
   13CHTO   O44 5263   5.401   5.170   2.329 -0.0682  0.6970  0.9214
   13CHTO  H102 5264   5.454   5.143   2.402  1.6106  0.5762 -0.3086
   13CHTO   C63 5265   5.441   5.406   2.421 -0.0835 -0.8692  0.1249
   13CHTO  H120 5266   5.391   5.501   2.443  1.0205 -0.8136  2.6765
   13CHTO   N11 5267   5.562   5.465   2.343 -0.0003  0.3937  0.0435
   13CHTO  H108 5268   5.538   5.512   2.250  0.0826 -0.9080 -0.6451
   13CHTO  H109 5269   5.641   5.395   2.329 -1.5706 -1.7143  1.3356
   13CHTO   C61 5270   5.465   5.346   2.567 -0.0492  0.4875  0.5651
   13CHTO  H118 5271   5.511   5.432   2.619  2.2037 -0.1267 -0.3178
   13CHTO   O40 5272   5.339   5.320   2.634 -0.3675  0.5810  0.0104
   13CHTO   C68 5273   5.222   5.247   2.571  0.6832 -0.8133  0.0745
   13CHTO  H125 5274   5.130   5.281   2.622  1.5569  0.3449  0.9016
   13CHTO   C72 5275   5.231   5.096   2.578 -1.1236 -0.7633 -0.2126
   13CHTO   O48 5276   5.206   5.041   2.708 -0.3318 -0.3486 -0.9613
   13CHTO  H105 5277   5.129   5.080   2.744  1.5381  1.5883  1.1003
   13CHTO   O38 5278   5.554   5.236   2.576  0.0968 -0.2191 -0.4471
   13CHTO   C55 5279   5.658   5.217   2.672  0.0914  0.4946 -0.1970
   13CHTO  H112 5280   5.694   5.113   2.671  1.3992  0.9418 -0.3873
   13CHTO   C56 5281   5.610   5.257   2.818 -0.0887  0.5074 -0.5138
   13CHTO  H113 5282   5.562   5.356   2.814  1.2586  1.2590  1.1533
   13CHTO   O42 5283   5.505   5.157   2.845  0.8020 -0.6837 -0.6199
   13CHTO  H100 5284   5.533   5.073   2.876  0.4340 -0.4960  0.2435
   13CHTO   C57 5285   5.728   5.265   2.930  0.0275 -0.5708 -0.1543
   13CHTO  H114 5286   5.756   5.162   2.955  0.2798 -0.7223 -1.0312
   13CHTO   N10 5287   5.682   5.334   3.052  0.9502 -0.0028 -0.3552
   13CHTO  H106 5288   5.578   5.307   3.067  0.5242  2.2462  1.0259
   13CHTO  H107 5289   5.689   5.441   3.055 -2.2873  0.2352  0.9847
   13CHTO   C58 5290   5.851   5.327   2.866 -0.8504  0.3253 -0.4511
   13CHTO  H115 5291   5.835   5.436   2.851  0.5059  0.7420  1.0129
   13CHTO   O37 5292   5.888   5.283   2.736  0.5333 -0.1277  0.8947
   13CHTO   C59 5293   5.786   5.304   2.637 -0.4318  0.1027  0.7156
   13CHTO  H116 5294   5.772   5.412   2.642  2.6309  0.5796  0.4918
   13CHTO   C70 5295   5.837   5.258   2.503 -0.5680  0.2654 -0.2619
   13CHTO   O46 5296   5.942   5.339   2.455  0.0913 -0.0987 -0.0372
   13CHTO  H103 5297   5.970   5.308   2.371  0.7808  0.7264 -0.1279
   13CHTO   O39 5298   5.984   5.299   2.962  0.2863  0.1302 -0.0984
   13CHTO   C60 5299   6.085   5.398   2.934 -0.1490 -0.3652 -0.3119
   13CHTO  H117 5300   6.079   5.425   2.828 -0.2267  1.7424  0.2146
   13CHTO   C62 5301   6.064   5.525   3.013  0.1575 -0.1627  0.3519
   13CHTO  H119 5302   5.962   5.563   2.993 -1.1587 -3.1444  1.0888
   13CHTO   O43 5303   6.066   5.486   3.146  0.7068  0.0199  0.2503
   13CHTO  H101 5304   5.985   5.463   3.189  2.1659 -0.3297  2.9139
   13CHTO   C66 5305   6.178   5.640   2.978 -0.2191 -0.2464  0.5295
   13CHTO  H123 5306   6.173   5.673   2.874 -0.9778  3.0438  1.5380
   13CHTO   N12 5307   6.158   5.765   3.058 -0.6183 -0.1196  0.0948
   13CHTO  H110 5308   6.052   5.769   3.082 -0.9697  2.6293 -1.7456
   13CHTO  H111 5309   6.209   5.749   3.152  0.7822  0.8400 -0.4944
   13CHTO   C69 5310   6.320   5.580   3.006  0.0934 -0.6714 -0.2328
   13CHTO  H126 5311   6.335   5.565   3.115  1.4269  0.7689 -0.2029
   13CHTO   O41 5312   6.342   5.433   2.919  0.1249 -0.4691 -0.0697
   13CHTO   C64 5313   6.223   5.329   2.957  1.1970 -0.1847  0.8720
   13CHTO  H121 5314   6.220   5.324   3.067 -0.4030 -0.0963  0.8433
   13CHTO   C71 5315   6.235   5.195   2.875 -0.1885 -0.0979 -0.5857
   13CHTO   O47 5316   6.340   5.118   2.940  0.5655  0.1856  0.5306
   13CHTO  H104 5317   6.299   5.061   3.002 -2.0789  1.8209  0.3780
   13CHTO   O34 5318   6.436   5.682   2.966  0.1969  0.4970 -0.6077
   13CHTO   C49 5319   6.581   5.667   2.953 -0.6872 -0.3042 -0.0090
   13CHTO   H91 5320   6.597   5.561   2.937 -1.2857  0.0046 -3.1271
   13CHTO   C47 5321   6.646   5.711   3.088  0.5840 -0.0230  0.2283
   13CHTO   H89 5322   6.756   5.694   3.081  0.6845  0.0345  1.4876
   13CHTO   O33 5323   6.596   5.629   3.192  0.3627 -0.0342 -0.3992
   13CHTO   H70 5324   6.503   5.641   3.187  0.4003  0.3955 -0.0630
   13CHTO   C45 5325   6.607   5.865   3.109  0.6416 -0.5810 -0.1948
   13CHTO   H87 5326   6.516   5.863   3.172  1.5733 -0.5109  1.1824
   13CHTO    N8 5327   6.716   5.922   3.191  0.5945 -0.0028  0.2591
   13CHTO   H75 5328   6.777   5.996   3.141  0.7142  1.4554  2.4782
   13CHTO   H76 5329   6.783   5.843   3.220  2.3073  1.8637  1.4899
   13CHTO   C43 5330   6.571   5.945   2.967 -0.2458  0.0860 -0.0704
   13CHTO   H85 5331   6.464   5.934   2.952 -0.6167  1.4547  1.4328
   13CHTO   O29 5332   6.645   5.893   2.857  0.0795 -0.0195 -0.4022
   13CHTO   C50 5333   6.648   5.754   2.843 -0.1300  0.2154 -0.5680
   13CHTO   H92 5334   6.585   5.732   2.756  0.6016 -0.5628 -0.9082
   13CHTO   C54 5335   6.792   5.718   2.812  0.6206  0.6715  0.3034
   13CHTO   O36 5336   6.850   5.788   2.701 -0.8219  0.4285  0.2178
   13CHTO   H72 5337   6.802   5.756   2.626 -0.2763 -0.1518  0.1120
   13CHTO   O27 5338   6.582   6.085   2.987  0.1311  0.3237  0.1494
   13CHTO   C37 5339   6.481   6.188   2.977 -0.4993  0.3707 -0.7587
   13CHTO   H79 5340   6.400   6.161   2.908 -1.9665  0.5675  0.8421
   13CHTO   C38 5341   6.429   6.199   3.122  0.1654  0.0562 -0.3734
   13CHTO   H80 5342   6.511   6.214   3.194 -0.1165 -0.3900  0.0500
   13CHTO   O31 5343   6.368   6.077   3.173  0.0601 -0.1511 -0.3016
   13CHTO   H68 5344   6.439   6.019   3.191 -1.0792 -2.3803 -2.7600
   13CHTO   C39 5345   6.332   6.325   3.122 -0.1333 -0.4550  0.2349
   13CHTO   H81 5346   6.248   6.289   3.062  1.7132 -0.4880 -2.4379
   13CHTO    N7 5347   6.286   6.353   3.262 -0.8259  0.1489  0.3376
   13CHTO   H73 5348   6.273   6.459   3.281  0.0882  0.4533 -0.6448
   13CHTO   H74 5349   6.282   6.270   3.330 -0.8430  0.6819  0.9941
   13CHTO   C40 5350   6.380   6.459   3.059  0.4225 -0.6056 -0.4593
   13CHTO   H82 5351   6.438   6.515   3.132 -2.4766 -0.7486  2.0461
   13CHTO   O26 5352   6.447   6.431   2.936  0.9429  0.0984  0.3104
   13CHTO   C41 5353   6.540   6.317   2.938  0.0414 -0.5280 -0.9062
   13CHTO   H83 5354   6.622   6.343   3.006 -0.9184 -0.1137  0.0966
   13CHTO   C52 5355   6.598   6.311   2.800  0.1501 -0.3577 -0.8669
   13CHTO   O35 5356   6.494   6.268   2.690 -0.2284  0.0085 -0.1599
   13CHTO   H71 5357   6.464   6.182   2.714  1.6731 -0.4178  0.8024
   13CHTO   O28 5358   6.263   6.548   3.033 -0.7375  0.3525 -0.1003
   13CHTO   C42 5359   6.271   6.692   3.027 -0.0709  0.6653 -0.1453
   13CHTO   H84 5360   6.375   6.720   3.010  0.0772  1.0404  1.2840
   13CHTO   C44 5361   6.231   6.760   3.161  0.2529  0.5431 -0.4986
   13CHTO   H86 5362   6.125   6.740   3.173  0.4021 -0.3271 -0.5909
   13CHTO   O32 5363   6.314   6.714   3.264 -0.2965  0.9396 -0.3408
   13CHTO   H69 5364   6.279   6.734   3.349 -0.8617  0.6724 -0.5092
   13CHTO   C48 5365   6.240   6.914   3.141 -0.0960 -0.2927  0.2539
   13CHTO   H90 5366   6.343   6.945   3.124  0.0005 -1.4310 -1.4488
   13CHTO    N9 5367   6.201   6.987   3.270  0.0083 -0.0063  0.0023
   13CHTO   H77 5368   6.251   7.083   3.273 -0.4679  0.3288 -2.1791
   13CHTO   H78 5369   6.099   6.987   3.307 -0.3187 -1.1737 -0.8990
   13CHTO   C51 5370   6.151   6.958   3.011 -0.2681 -0.3434  0.0942
   13CHTO   H93 5371   6.048   6.934   3.036 -0.8206 -0.9279 -2.5288
   13CHTO   O30 5372   6.199   6.894   2.892  0.1597  0.0048 -0.4738
   13CHTO   C46 5373   6.192   6.743   2.907 -0.3783 -0.3300  0.2676
   13CHTO   H88 5374   6.087   6.711   2.910 -0.1471 -1.1013  0.4233
   13CHTO   C53 5375   6.253   6.700   2.772  0.2550 -0.3932  0.2784
   13CHTO   O72 5376   6.244   6.566   2.748  0.7639 -0.7892  0.2079
   13CHTO  H199 5377   6.285   6.533   2.671  1.2098  1.9822 -0.8078
   13CHTO   O22 5378   6.156   7.097   2.971  0.3713  0.7648  0.5063
   13CHTO   C31 5379   6.033   7.158   2.917  0.0988  0.0941 -0.3083
   13CHTO   H59 5380   6.066   7.249   2.862 -2.4995  1.6082  0.5335
   13CHTO   C29 5381   5.947   7.075   2.820  0.5504  0.2521  0.1607
   13CHTO   H57 5382   5.939   6.974   2.861  0.3074 -0.4684 -1.6149
   13CHTO   O21 5383   6.014   7.057   2.696 -0.1010 -0.0237  0.4034
   13CHTO   H37 5384   6.059   6.975   2.696  0.4205  0.1776 -2.6285
   13CHTO   C27 5385   5.799   7.120   2.791  0.4241 -0.4771  0.3050
   13CHTO   H55 5386   5.805   7.211   2.729 -0.2599 -0.9914 -0.5174
   13CHTO    N5 5387   5.719   7.019   2.714 -0.1595  0.0211 -0.0356
   13CHTO   H43 5388   5.711   6.925   2.768 -1.9690  0.3567  0.3081
   13CHTO   H44 5389   5.746   7.003   2.611  2.9035 -0.4319  0.7898
   13CHTO   C25 5390   5.745   7.168   2.934 -0.2286 -0.2688  0.0142
   13CHTO   H53 5391   5.730   7.078   2.995  0.7609 -1.3890 -1.3585
   13CHTO   O17 5392   5.821   7.269   3.000  1.1847  0.3845  0.4559
   13CHTO   C32 5393   5.953   7.224   3.035 -0.3587 -0.3801 -0.3044
   13CHTO   H60 5394   5.936   7.152   3.116 -2.5262  0.1712 -0.2323
   13CHTO   C36 5395   6.016   7.354   3.098 -0.6553 -0.3648 -0.1984
   13CHTO   O25 5396   6.138   7.329   3.168 -0.0283 -0.3212 -0.4914
   13CHTO   H40 5397   6.179   7.256   3.125 -1.8571 -0.4040 -2.1727
   13CHTO   O15 5398   5.610   7.226   2.920  0.0139 -0.5455  0.1643
   13CHTO   C19 5399   5.496   7.312   2.884 -0.6566 -0.5481 -0.4720
   13CHTO   H47 5400   5.466   7.364   2.976 -0.8805  0.0277 -0.8653
   13CHTO   C20 5401   5.537   7.423   2.787  0.8518  0.3954  0.3285
   13CHTO   H48 5402   5.591   7.381   2.701  1.6728  0.1449  0.9614
   13CHTO   O19 5403   5.632   7.514   2.846 -0.1325  0.5189  0.4221
   13CHTO   H35 5404   5.658   7.572   2.777  1.5829 -0.0571  0.5460
   13CHTO   C21 5405   5.415   7.522   2.742 -0.4863 -0.1790  0.1842
   13CHTO   H49 5406   5.391   7.580   2.830  2.2699 -0.9736  1.5384
   13CHTO    N4 5407   5.454   7.626   2.641 -0.0953  0.8493  0.6193
   13CHTO   H41 5408   5.422   7.724   2.675 -2.6085  0.6050 -0.8625
   13CHTO   H42 5409   5.560   7.620   2.624 -0.3341 -0.4280 -0.4477
   13CHTO   C22 5410   5.296   7.433   2.701 -0.0457 -0.1928 -0.2393
   13CHTO   H50 5411   5.321   7.370   2.616  1.5085  0.3587 -0.1944
   13CHTO   O14 5412   5.263   7.344   2.807  0.3874 -0.3305 -0.1721
   13CHTO   C23 5413   5.367   7.248   2.825  0.8383  0.3750  0.4331
   13CHTO   H51 5414   5.387   7.192   2.733 -2.2597 -1.4064  0.7790
   13CHTO   C34 5415   5.292   7.139   2.913 -1.2704  0.3681  0.2271
   13CHTO   O23 5416   5.361   7.016   2.920 -0.4786  0.0231  0.1578
   13CHTO   H38 5417   5.447   7.043   2.947 -0.3920  0.5500 -0.6228
   13CHTO   O16 5418   5.188   7.515   2.665 -0.0661 -0.1593 -0.1092
   13CHTO   C24 5419   5.041   7.476   2.710 -0.5160  0.0930 -0.1511
   13CHTO   H52 5420   5.043   7.389   2.776  0.2491  0.1047 -0.1609
   13CHTO   C26 5421   4.957   7.437   2.591  0.3786  0.0937  0.3508
   13CHTO   H54 5422   4.950   7.519   2.517 -2.4550  0.0101  0.4502
   13CHTO   O20 5423   5.023   7.325   2.538 -0.1953 -0.4758 -0.3778
   13CHTO   H36 5424   5.010   7.299   2.449  1.1404  1.0020 -1.0292
   13CHTO   C30 5425   4.811   7.402   2.641  0.0428  0.1936  0.0192
   13CHTO   H58 5426   4.820   7.315   2.708  3.8363  0.3509 -0.1315
   13CHTO    N6 5427   4.723   7.371   2.530  0.4304 -0.0014 -0.5077
   13CHTO   H45 5428   4.685   7.271   2.544 -3.3191  1.1741 -1.6706
   13CHTO   H46 5429   4.642   7.441   2.537  1.0497  0.4978  2.1749
   13CHTO   C33 5430   4.757   7.526   2.720  0.8865  0.2882 -0.9507
   13CHTO   H61 5431   4.756   7.615   2.656 -0.9141  0.8145 -0.1992
   13CHTO   O18 5432   4.848   7.549   2.830 -0.6478 -0.0272  0.6013
   13CHTO   C28 5433   4.977   7.590   2.787  0.3256 -0.1112 -0.6997
   13CHTO   H56 5434   4.978   7.677   2.722 -0.5560  0.9920  0.7311
   13CHTO   C35 5435   5.066   7.630   2.909  0.2752  0.7907 -0.4672
   13CHTO   O24 5436   5.006   7.736   2.984  0.1461  0.6236  0.2556
   13CHTO   H39 5437   5.077   7.787   3.019 -0.5892  1.5809  0.3537
   13CHTO    O9 5438   4.620   7.510   2.764  0.1312  0.1069 -0.3039
   13CHTO   C13 5439   4.590   7.408   2.860 -0.6852 -0.1302  0.2245
   13CHTO   H26 5440   4.688   7.366   2.889 -0.3938  0.6416  0.3675
   13CHTO   C11 5441   4.493   7.299   2.806 -0.5570  0.0330  0.6416
   13CHTO   H24 5442   4.539   7.236   2.729 -1.1417 -0.4770  0.7070
   13CHTO    O8 5443   4.375   7.364   2.747 -0.4202  0.7232 -0.4291
   13CHTO    H3 5444   4.347   7.317   2.671 -3.3008 -0.0275  1.0484
   13CHTO    C9 5445   4.458   7.204   2.922  0.4131 -0.0894  0.4621
   13CHTO   H22 5446   4.556   7.165   2.952  1.1289  1.4520  0.1512
   13CHTO    N2 5447   4.386   7.079   2.877  0.3113 -0.1645 -0.2044
   13CHTO   H10 5448   4.279   7.091   2.887 -0.0820 -1.1133 -2.8891
   13CHTO   H11 5449   4.417   6.985   2.921 -0.4804 -0.7989 -0.9970
   13CHTO    C7 5450   4.382   7.281   3.043  0.3053  0.1661 -0.2931
   13CHTO   H20 5451   4.441   7.250   3.132 -0.7310  1.5266  0.9019
   13CHTO    O4 5452   4.399   7.426   3.019 -0.4102 -0.4815 -0.4969
   13CHTO   C14 5453   4.536   7.463   3.003  0.1751 -0.2421 -0.3841
   13CHTO   H27 5454   4.601   7.427   3.086  1.8104 -0.1488 -1.5969
   13CHTO   C18 5455   4.545   7.614   3.009 -0.1836  0.0100 -0.5842
   13CHTO   O13 5456   4.679   7.666   3.037 -0.0552 -0.0224 -0.4548
   13CHTO    H7 5457   4.740   7.604   3.073 -1.5455 -1.0684  0.3437
   13CHTO    O2 5458   4.221   7.258   3.059 -0.1913 -0.4429 -0.5060
   13CHTO    C1 5459   4.192   7.226   3.197  0.2555  0.2406  0.5681
   13CHTO   H14 5460   4.260   7.284   3.262 -1.6857  1.9572  1.1203
   13CHTO    C2 5461   4.196   7.071   3.247 -0.4579  0.4574 -0.0511
   13CHTO   H15 5462   4.114   7.020   3.195  0.0352  0.2448 -0.6330
   13CHTO    O6 5463   4.318   7.018   3.194 -0.0968 -0.0611  0.5204
   13CHTO    H1 5464   4.322   6.926   3.213  1.2173 -0.0340  0.4370
   13CHTO    C3 5465   4.188   7.072   3.412  0.6348 -0.8034 -0.1544
   13CHTO   H16 5466   4.274   7.125   3.454  0.0328 -1.1432  1.5288
   13CHTO    N1 5467   4.204   6.933   3.465 -0.0031 -0.1319 -0.7296
   13CHTO    H8 5468   4.303   6.890   3.461 -0.7453 -1.8618 -1.0879
   13CHTO    H9 5469   4.168   6.939   3.566 -0.5571 -1.0944 -0.8579
   13CHTO    C4 5470   4.062   7.143   3.459 -0.0976  0.4999  0.2800
   13CHTO   H17 5471   3.980   7.072   3.449 -0.5801  0.9242  1.1557
   13CHTO    O1 5472   4.030   7.268   3.392 -0.6528  0.3573 -0.0470
   13CHTO    C5 5473   4.053   7.276   3.249 -0.8468  0.0268 -0.6306
   13CHTO   H18 5474   3.974   7.217   3.203 -0.9455 -0.2127 -0.1610
   13CHTO   C16 5475   4.027   7.425   3.218  0.4749  0.0994 -0.0338
   13CHTO   O11 5476   4.129   7.509   3.267 -0.1727 -0.2260 -0.7968
   13CHTO    H5 5477   4.105   7.598   3.250 -1.6926 -0.6567 -1.0385
   13CHTO    O3 5478   4.081   7.187   3.594  0.1226 -0.0406 -0.1361
   13CHTO    C6 5479   3.962   7.204   3.666 -1.0134 -0.5073 -0.4812
   13CHTO   H19 5480   3.866   7.202   3.615 -1.5905  0.0723  0.5643
   13CHTO    C8 5481   3.967   7.081   3.771 -0.9197  0.0389  0.3601
   13CHTO   H21 5482   4.059   7.086   3.829 -1.7508 -0.9568  1.7961
   13CHTO    O7 5483   3.954   6.966   3.688  0.0385  0.2631 -0.1620
   13CHTO    H2 5484   3.994   6.891   3.725 -0.8460 -0.6520 -1.0190
   13CHTO   C12 5485   3.849   7.096   3.860  0.3581 -0.4252 -0.3554
   13CHTO   H25 5486   3.760   7.091   3.794  0.7513  1.9521 -1.1007
   13CHTO    N3 5487   3.830   6.968   3.948  0.2877 -0.6834 -0.4570
   13CHTO   H12 5488   3.821   6.872   3.900  2.5679 -2.2566  2.1328
   13CHTO   H13 5489   3.738   6.985   4.001  0.7115 -2.2090  0.7726
   13CHTO   C15 5490   3.837   7.234   3.929  0.1956 -0.3820 -0.6904
   13CHTO   H28 5491   3.916   7.250   4.002  0.2732 -1.1392 -0.6051
   13CHTO   O10 5492   3.683   7.263   4.000 -0.0060  0.4340 -0.4754
   13CHTO    H4 5493   3.651   7.195   4.056  0.0718  0.7320 -0.0681
   13CHTO    O5 5494   3.846   7.343   3.835 -0.3663 -0.3086 -0.5977
   13CHTO   C10 5495   3.959   7.338   3.743 -0.2753 -0.1670  0.0070
   13CHTO   H23 5496   4.039   7.355   3.815  0.2906  2.1083 -1.1316
   13CHTO   C17 5497   3.973   7.461   3.649  0.3103  0.3385  0.3615
   13CHTO   O12 5498   4.017   7.578   3.733  0.0288  0.3901 -0.0159
   13CHTO    H6 5499   4.110   7.581   3.747  0.5750 -0.2227 -3.2269
   14CHTO  H203 5500   6.492   4.736   2.501 -0.7064 -0.0097 -2.0507
   14CHTO   O82 5501   6.419   4.784   2.534 -0.1860 -0.8273  0.4545
   14CHTO  C123 5502   6.318   4.807   2.437 -0.0615  0.0565 -0.1987
   14CHTO  H227 5503   6.358   4.858   2.349  0.3297  0.6342  0.3120
   14CHTO   O77 5504   6.265   4.675   2.403  0.1922 -0.0071  0.0460
   14CHTO  C118 5505   6.194   4.684   2.281 -0.5319 -0.1449 -0.2219
   14CHTO  H222 5506   6.240   4.750   2.206  0.7716  0.2609  0.9063
   14CHTO  C125 5507   6.178   4.546   2.221 -0.7660  0.3186  0.2812
   14CHTO   O84 5508   6.301   4.472   2.207 -0.2869 -0.0884  0.1804
   14CHTO  H205 5509   6.295   4.399   2.148  0.8437 -0.1095  0.0888
   14CHTO  C114 5510   6.060   4.743   2.317  0.2244  0.6318 -0.6635
   14CHTO  H218 5511   6.018   4.677   2.394 -1.2913  2.0600 -0.2386
   14CHTO  C116 5512   6.086   4.884   2.383 -0.9176  0.0442  0.0984
   14CHTO  H220 5513   6.110   4.949   2.296  1.0253 -1.3968 -0.4522
   14CHTO   O79 5514   5.956   4.926   2.436 -0.0680 -0.2387 -0.0703
   14CHTO  H201 5515   5.966   4.975   2.516 -0.0109 -2.3781  1.2847
   14CHTO  C120 5516   6.207   4.891   2.491 -0.4807 -0.1807 -0.1366
   14CHTO  H224 5517   6.178   4.853   2.592  0.7417 -0.1429  0.2359
   14CHTO   N21 5518   6.239   5.032   2.516 -0.2778 -0.2509 -0.4105
   14CHTO  H211 5519   6.344   5.029   2.542  0.4359  1.4551 -2.8299
   14CHTO  H212 5520   6.176   5.070   2.594 -0.4336 -1.2041 -0.0562
   14CHTO   O75 5521   5.982   4.748   2.194  0.2453 -0.2637 -0.7747
   14CHTO  C112 5522   5.829   4.709   2.219  0.1355  0.2723 -0.0125
   14CHTO  H216 5523   5.804   4.758   2.314  0.4412  2.9384 -1.2453
   14CHTO   O73 5524   5.828   4.564   2.233 -0.6877 -0.0046  0.0953
   14CHTO  C113 5525   5.699   4.522   2.277 -0.3113 -0.5267 -0.2653
   14CHTO  H217 5526   5.677   4.580   2.370  1.4156  0.0582 -0.2065
   14CHTO  C124 5527   5.703   4.378   2.311  0.2242  0.1155  0.4773
   14CHTO   O83 5528   5.809   4.338   2.400 -0.0452  0.0605 -0.0444
   14CHTO  H204 5529   5.773   4.317   2.484 -1.5979 -1.9394 -1.1705
   14CHTO  C109 5530   5.594   4.550   2.168  0.6704 -0.2440  0.2111
   14CHTO  H213 5531   5.625   4.481   2.088  3.1677 -0.2773  1.1662
   14CHTO  C110 5532   5.594   4.701   2.129 -0.3997  0.0258  0.6664
   14CHTO  H214 5533   5.536   4.751   2.206 -1.9361 -1.6077  0.5872
   14CHTO   O78 5534   5.516   4.727   2.011 -0.9179 -0.0873 -0.5004
   14CHTO  H200 5535   5.438   4.674   2.006  1.1353 -3.4084  0.7992
   14CHTO  C111 5536   5.733   4.765   2.104  0.1515  0.0918 -1.0071
   14CHTO  H215 5537   5.781   4.728   2.012 -0.1315 -1.6119 -0.4975
   14CHTO   N19 5538   5.736   4.912   2.101 -0.4606 -0.1872 -0.2679
   14CHTO  H207 5539   5.680   4.948   2.016 -2.2455 -0.3713  0.8004
   14CHTO  H208 5540   5.686   4.945   2.190 -1.2417 -1.5531 -0.1872
   14CHTO   O74 5541   5.457   4.512   2.213  0.1120  0.9696  0.0944
   14CHTO  C115 5542   5.356   4.477   2.102  0.2046 -0.4966  0.3472
   14CHTO  H219 5543   5.374   4.533   2.011  0.1943  1.8960  1.7861
   14CHTO   O76 5544   5.371   4.317   2.050 -0.1750  0.1574 -0.2849
   14CHTO  C122 5545   5.316   4.227   2.146 -0.2225 -0.5700  0.3147
   14CHTO  H226 5546   5.383   4.219   2.232 -0.4199  1.2401  0.6667
   14CHTO  C126 5547   5.319   4.077   2.077  0.3946 -0.5087 -0.6923
   14CHTO   O85 5548   5.283   3.966   2.167 -0.2897  0.0627  0.0939
   14CHTO  H206 5549   5.357   3.944   2.220  1.9199 -0.6834 -3.1447
   14CHTO  C121 5550   5.168   4.261   2.194 -0.0040  0.1675  0.1729
   14CHTO  H225 5551   5.110   4.168   2.180  0.6906 -0.4201  1.1060
   14CHTO   O81 5552   5.172   4.272   2.335 -0.3063  0.6125  0.0531
   14CHTO  H202 5553   5.144   4.356   2.365 -1.2222  0.2456  0.2255
   14CHTO  C119 5554   5.108   4.382   2.126 -0.4972 -0.4679  0.5802
   14CHTO  H223 5555   5.103   4.355   2.020 -2.4696 -1.0375  0.7877
   14CHTO  C117 5556   5.209   4.502   2.159  0.3492 -0.6758  0.4396
   14CHTO  H221 5557   5.215   4.520   2.266 -0.5875 -0.2388  0.4201
   14CHTO   N20 5558   5.157   4.631   2.099 -0.1869 -0.4518 -0.0515
   14CHTO  H209 5559   5.120   4.707   2.166 -0.4395 -0.0990 -0.5861
   14CHTO  H210 5560   5.204   4.663   2.007  1.6079  2.6804  1.8558
   14CHTO   O80 5561   4.954   4.410   2.156 -0.2690 -0.1423  0.1807
   14CHTO  C103 5562   4.843   4.370   2.045  0.3412 -0.2923  0.1817
   14CHTO  H190 5563   4.890   4.366   1.946  0.8895  0.3845  0.4050
   14CHTO  C101 5564   4.761   4.242   2.051  0.4727  0.1810 -0.5619
   14CHTO  H188 5565   4.717   4.233   2.151  0.6027  2.4041 -0.2820
   14CHTO   O68 5566   4.854   4.126   2.027  0.0971 -0.1374  0.7298
   14CHTO  H168 5567   4.932   4.156   1.987 -0.0905  1.4271  1.5019
   14CHTO   C99 5568   4.641   4.240   1.943  0.2429  0.5130 -0.0910
   14CHTO  H186 5569   4.694   4.228   1.845 -2.0687  3.5171 -1.7921
   14CHTO   N17 5570   4.545   4.119   1.959 -0.5627 -0.3645  0.2307
   14CHTO  H174 5571   4.564   4.070   2.054  1.3376  0.7857  0.4607
   14CHTO  H175 5572   4.550   4.047   1.878  0.7426  0.9305 -0.8567
   14CHTO   C97 5573   4.561   4.368   1.937 -0.4288  1.4231 -0.8180
   14CHTO  H184 5574   4.507   4.379   2.032 -1.7222  1.0456 -1.4958
   14CHTO   O64 5575   4.656   4.472   1.915  0.3939  0.2680 -0.2536
   14CHTO  C104 5576   4.739   4.503   2.031  0.5314 -0.0124  0.4330
   14CHTO  H191 5577   4.677   4.506   2.120 -1.7561  2.3974 -1.2047
   14CHTO  C108 5578   4.811   4.639   2.005 -0.2032 -0.6473  0.3100
   14CHTO   O71 5579   4.718   4.749   2.019  0.5804 -0.1791  0.5728
   14CHTO  H171 5580   4.723   4.809   1.947 -0.5784 -0.8363 -0.0750
   14CHTO   O62 5581   4.480   4.381   1.816 -0.2305 -0.5122  0.3195
   14CHTO   C91 5582   4.353   4.437   1.844 -0.0246 -0.0046 -0.5381
   14CHTO  H178 5583   4.304   4.375   1.920 -2.8718  2.7434 -0.0490
   14CHTO   C92 5584   4.250   4.443   1.720 -0.1997 -0.6001 -0.5723
   14CHTO  H179 5585   4.237   4.340   1.686 -0.4610 -1.4100  1.9073
   14CHTO   O66 5586   4.117   4.471   1.767  0.6369  0.3571  0.1018
   14CHTO  H166 5587   4.076   4.508   1.691 -0.8766  1.6811  1.5106
   14CHTO   C93 5588   4.295   4.547   1.614  0.6430 -0.1614  0.3166
   14CHTO  H180 5589   4.207   4.572   1.553 -0.2598 -1.4303  1.0617
   14CHTO   N16 5590   4.391   4.484   1.520  0.1706  0.0870  0.3494
   14CHTO  H172 5591   4.481   4.458   1.573 -0.2487 -2.1105  0.0050
   14CHTO  H173 5592   4.353   4.391   1.481 -2.5610  0.3948  2.0972
   14CHTO   C94 5593   4.343   4.687   1.682 -0.4532  0.0255  0.1070
   14CHTO  H181 5594   4.450   4.702   1.673 -0.1342 -1.7121  0.7611
   14CHTO   O61 5595   4.313   4.696   1.823 -0.2001  0.1652 -0.3678
   14CHTO   C95 5596   4.350   4.589   1.915  0.1062 -0.1441 -0.1389
   14CHTO  H182 5597   4.447   4.613   1.960 -0.2474  1.9293 -0.4326
   14CHTO  C106 5598   4.243   4.596   2.035  0.3049  0.2794 -0.4133
   14CHTO   O69 5599   4.236   4.728   2.100 -0.0322 -0.1513 -0.0140
   14CHTO  H169 5600   4.172   4.724   2.169  1.1086 -6.0403  0.9972
   14CHTO   O63 5601   4.285   4.812   1.611  0.3843  0.4251 -0.0824
   14CHTO   C96 5602   4.290   4.942   1.686 -0.5032  0.3931  0.1505
   14CHTO  H183 5603   4.349   4.933   1.777 -0.2245 -2.5604 -0.2810
   14CHTO   C98 5604   4.146   4.984   1.727  0.4959  1.0785 -0.4681
   14CHTO  H185 5605   4.091   4.994   1.632 -3.0336  0.4959  1.4425
   14CHTO   O67 5606   4.084   4.870   1.799  0.6700 -0.0398 -0.0928
   14CHTO  H167 5607   4.011   4.824   1.763  0.4295 -0.4535  0.9043
   14CHTO  C102 5608   4.139   5.126   1.809 -0.3593 -0.7136 -0.3347
   14CHTO  H189 5609   4.193   5.106   1.902  1.0684 -0.3673 -1.0779
   14CHTO   N18 5610   4.003   5.172   1.847  0.8266 -0.5980 -0.1844
   14CHTO  H176 5611   3.985   5.154   1.952  0.4481 -2.6413 -0.5773
   14CHTO  H177 5612   3.931   5.110   1.797 -3.9254  1.6423  3.4404
   14CHTO  C105 5613   4.223   5.233   1.726  0.3105  0.0952  0.2382
   14CHTO  H192 5614   4.173   5.258   1.632 -0.8619  1.7258  1.2645
   14CHTO   O65 5615   4.357   5.187   1.693 -0.0796 -0.0270  0.2138
   14CHTO  C100 5616   4.359   5.067   1.607 -0.2722  0.7921  0.6933
   14CHTO  H187 5617   4.297   5.089   1.519  0.1339 -3.3605 -0.7538
   14CHTO  C107 5618   4.502   5.024   1.568 -0.2242 -0.0140 -0.0171
   14CHTO   O70 5619   4.523   4.907   1.488  0.7017  0.2375 -0.8299
   14CHTO  H170 5620   4.460   4.848   1.527 -0.2256  2.7196  1.5643
   14CHTO   O57 5621   4.234   5.367   1.814 -0.0621  0.2587  0.9267
   14CHTO   C85 5622   4.147   5.475   1.783  0.2455 -0.4167 -0.4380
   14CHTO  H157 5623   4.052   5.431   1.746 -0.3006 -0.8537  1.4183
   14CHTO   C83 5624   4.205   5.554   1.665 -0.2027  0.4236  0.5021
   14CHTO  H155 5625   4.218   5.488   1.579 -1.0259  0.8492  0.0430
   14CHTO   O56 5626   4.335   5.595   1.698 -0.1225  0.1852 -0.7899
   14CHTO  H135 5627   4.396   5.539   1.654  0.2878  0.3448 -0.4346
   14CHTO   C81 5628   4.106   5.665   1.626 -0.3440  0.0785  0.2090
   14CHTO  H153 5629   4.009   5.621   1.606  0.1616 -0.8098 -0.3141
   14CHTO   N14 5630   4.142   5.727   1.498  0.2196  0.1263  0.6401
   14CHTO  H141 5631   4.247   5.751   1.498  0.5630 -1.2772  2.2003
   14CHTO  H142 5632   4.081   5.813   1.487 -1.1937 -0.9075  0.3151
   14CHTO   C79 5633   4.098   5.768   1.742 -0.8137  0.4148 -0.0616
   14CHTO  H151 5634   4.024   5.843   1.716 -1.8284  0.0178  1.5454
   14CHTO   O52 5635   4.039   5.691   1.863  0.1867 -0.1897  0.2622
   14CHTO   C86 5636   4.123   5.580   1.903  0.2073 -0.5389 -0.3645
   14CHTO  H158 5637   4.213   5.637   1.935 -1.4604  0.8838  1.9879
   14CHTO   C90 5638   4.068   5.519   2.030 -0.5746  0.9566 -0.1785
   14CHTO   O60 5639   4.028   5.620   2.124  0.1096  0.0912 -0.2775
   14CHTO  H138 5640   3.946   5.658   2.097 -0.0958 -0.4035 -0.3590
   14CHTO   O50 5641   4.231   5.826   1.775 -0.2684 -0.1361 -0.1779
   14CHTO   C73 5642   4.282   5.931   1.855  0.5173  0.2280  0.3093
   14CHTO  H145 5643   4.226   5.943   1.949 -0.1878 -0.3999 -0.0292
   14CHTO   C74 5644   4.289   6.070   1.783 -0.0481  0.6507 -0.0836
   14CHTO  H146 5645   4.187   6.094   1.749  0.1233 -0.7995 -1.6415
   14CHTO   O54 5646   4.319   6.179   1.884 -0.4062  0.1672  0.6175
   14CHTO  H133 5647   4.395   6.156   1.933  0.2598 -0.0268 -0.4825
   14CHTO   C75 5648   4.387   6.061   1.662  0.5936  0.7894 -0.4596
   14CHTO  H147 5649   4.343   5.990   1.591 -1.9678  1.4938  0.3597
   14CHTO   N13 5650   4.390   6.185   1.583  0.0752 -0.5430  0.4377
   14CHTO  H139 5651   4.308   6.216   1.520  0.9803  0.8869 -0.0686
   14CHTO  H140 5652   4.491   6.203   1.547  0.0770 -0.6343  0.3975
   14CHTO   C76 5653   4.535   6.005   1.709 -0.3776  0.6300  0.3779
   14CHTO  H148 5654   4.585   6.081   1.770 -0.8765  0.7332  0.6591
   14CHTO   O49 5655   4.517   5.883   1.785  0.2777  0.1958 -0.0395
   14CHTO   C77 5656   4.428   5.900   1.896  0.7723 -0.2631 -0.5929
   14CHTO  H149 5657   4.470   5.982   1.954  1.8933  0.5195 -2.4540
   14CHTO   C88 5658   4.429   5.778   1.988 -0.8371  0.6805  0.2821
   14CHTO   O58 5659   4.580   5.732   1.995  0.5974  0.3922  0.5713
   14CHTO  H136 5660   4.586   5.640   2.010  0.4058  0.1309 -0.8272
   14CHTO   O51 5661   4.606   5.960   1.607 -0.6990  0.0030  0.7538
   14CHTO   C78 5662   4.775   6.006   1.618 -0.2113 -0.7423 -0.7371
   14CHTO  H150 5663   4.796   6.040   1.721 -2.2043  3.0053 -1.4673
   14CHTO   C80 5664   4.807   6.121   1.520  0.4137 -0.0900 -0.9427
   14CHTO  H152 5665   4.752   6.100   1.426 -0.8834  0.2402 -0.2531
   14CHTO   O55 5666   4.737   6.235   1.577 -0.1554 -0.6937 -0.5114
   14CHTO  H134 5667   4.761   6.308   1.523 -2.7876 -1.9913 -3.6154
   14CHTO   C84 5668   4.964   6.142   1.503  0.0605 -0.1598 -0.1723
   14CHTO  H156 5669   5.005   6.171   1.600 -0.5566  1.0579 -0.2652
   14CHTO   N15 5670   5.004   6.251   1.405 -0.8718  0.4409  0.1659
   14CHTO  H143 5671   5.021   6.352   1.436  1.3954 -0.5934  2.3870
   14CHTO  H144 5672   4.923   6.257   1.335 -0.7227  0.6783  0.0147
   14CHTO   C87 5673   5.032   6.005   1.479  0.2871 -0.1274 -0.0795
   14CHTO  H159 5674   4.992   5.968   1.384  4.2784 -0.9428 -1.5354
   14CHTO   O53 5675   4.991   5.908   1.593 -0.3212 -0.1571  0.3083
   14CHTO   C82 5676   4.852   5.878   1.585  0.1938  0.3796  0.2534
   14CHTO  H154 5677   4.839   5.837   1.485  0.8703 -1.8283  1.0504
   14CHTO   C89 5678   4.820   5.763   1.684 -0.8733 -0.1870 -0.2718
   14CHTO   O59 5679   4.835   5.642   1.613 -1.1032  0.1034 -0.5144
   14CHTO  H137 5680   4.923   5.610   1.606 -0.8500  0.7490 -0.3082
   14CHTO   O45 5681   5.194   6.026   1.473  0.0905 -0.4372 -0.2863
   14CHTO   C67 5682   5.256   5.924   1.394  0.0939  0.2931 -0.3556
   14CHTO  H124 5683   5.186   5.868   1.331  0.6606  0.8208 -1.4743
   14CHTO   C65 5684   5.365   5.997   1.313 -0.2804  0.8960  0.7221
   14CHTO  H122 5685   5.326   6.092   1.276  1.3979  1.5865  0.7050
   14CHTO   O44 5686   5.410   5.917   1.203 -0.1622  0.2245  0.1268
   14CHTO  H102 5687   5.344   5.885   1.144  0.6992  0.1823 -0.8374
   14CHTO   C63 5688   5.477   6.046   1.408 -0.8176  0.5020  0.7995
   14CHTO  H120 5689   5.436   6.117   1.479  0.0235  0.1596  1.6318
   14CHTO   N11 5690   5.588   6.140   1.351 -0.3448  0.1377 -0.3047
   14CHTO  H108 5691   5.551   6.204   1.274  2.0127 -0.8458 -2.3008
   14CHTO  H109 5692   5.623   6.202   1.431 -0.4809  0.9100 -0.8351
   14CHTO   C61 5693   5.534   5.922   1.489  0.2241 -0.4949 -0.0109
   14CHTO  H118 5694   5.603   5.965   1.563 -2.0042 -0.5217  2.1467
   14CHTO   O40 5695   5.424   5.862   1.562 -0.5395 -0.7841 -0.5836
   14CHTO   C68 5696   5.307   5.822   1.490  0.2413 -0.4715  0.3621
   14CHTO  H125 5697   5.227   5.818   1.566 -1.3507  0.4281 -1.2187
   14CHTO   C72 5698   5.323   5.681   1.427  0.8173 -0.2428  0.5159
   14CHTO   O48 5699   5.207   5.623   1.368  0.4212 -0.4554  0.2782
   14CHTO  H105 5700   5.153   5.596   1.440  0.0664  0.3641  0.3331
   14CHTO   O38 5701   5.609   5.817   1.416  0.4418 -0.3027 -0.4125
   14CHTO   C55 5702   5.740   5.845   1.357 -0.3646  0.7119  0.2235
   14CHTO  H112 5703   5.773   5.949   1.358 -2.1340  1.2992 -0.3056
   14CHTO   C56 5704   5.740   5.788   1.207 -0.1014  0.5719 -0.0471
   14CHTO  H113 5705   5.690   5.690   1.202  0.6092  0.2666 -1.5526
   14CHTO   O42 5706   5.660   5.874   1.125  0.6173 -0.1532  0.7243
   14CHTO  H100 5707   5.633   5.825   1.050  1.7279 -1.3995  1.1122
   14CHTO   C57 5708   5.884   5.773   1.149 -0.1248 -0.1543  0.6153
   14CHTO  H114 5709   5.926   5.871   1.125  1.2011 -1.2634 -1.7589
   14CHTO   N10 5710   5.877   5.691   1.026 -0.2006  0.0505 -0.2918
   14CHTO  H106 5711   5.864   5.746   0.934 -0.2888  0.5950  0.0501
   14CHTO  H107 5712   5.797   5.619   1.031 -0.7392  0.4046 -3.2104
   14CHTO   C58 5713   5.982   5.704   1.246 -0.1261 -0.0807 -0.4878
   14CHTO  H115 5714   5.963   5.594   1.248  1.1174 -0.2995 -0.0412
   14CHTO   O37 5715   5.977   5.763   1.372 -0.6121  0.3532  0.0271
   14CHTO   C59 5716   5.845   5.762   1.438 -0.4189 -0.7763  0.0781
   14CHTO  H116 5717   5.820   5.656   1.446 -1.5833 -0.4923  0.2064
   14CHTO   C70 5718   5.856   5.817   1.582  0.7012  0.0745 -0.2843
   14CHTO   O46 5719   5.957   5.920   1.599 -0.0831 -0.5296  0.1741
   14CHTO  H103 5720   5.954   5.993   1.540 -0.4482 -1.3526 -0.8473
   14CHTO   O39 5721   6.144   5.740   1.203 -0.2851 -0.1505  0.5180
   14CHTO   C60 5722   6.250   5.682   1.283  0.0569 -0.0244  0.0268
   14CHTO  H117 5723   6.238   5.725   1.383 -0.2477 -0.0193 -0.0108
   14CHTO   C62 5724   6.244   5.526   1.291 -0.4283 -0.5293 -0.5638
   14CHTO  H119 5725   6.145   5.510   1.339  0.0505 -0.9863  0.2983
   14CHTO   O43 5726   6.235   5.479   1.157 -0.0441  0.2459 -0.2578
   14CHTO  H101 5727   6.158   5.524   1.129  0.2470  1.5595  1.0084
   14CHTO   C66 5728   6.363   5.472   1.380  0.2058 -0.0160 -0.0607
   14CHTO  H123 5729   6.362   5.528   1.474 -0.0867 -1.9886  1.1470
   14CHTO   N12 5730   6.350   5.329   1.407 -0.0908 -0.3534  0.1980
   14CHTO  H110 5731   6.415   5.302   1.488 -0.1190  0.0986  0.3693
   14CHTO  H111 5732   6.386   5.267   1.326 -2.0704  1.0360 -1.8087
   14CHTO   C69 5733   6.499   5.512   1.308 -0.1172 -0.1861 -0.2127
   14CHTO  H126 5734   6.500   5.454   1.214 -0.0938 -1.2530  0.4261
   14CHTO   O41 5735   6.508   5.654   1.286  0.0521  0.1266  0.2156
   14CHTO   C64 5736   6.391   5.727   1.220 -0.0591 -0.4421 -0.2359
   14CHTO  H121 5737   6.397   5.697   1.113  0.9719 -1.5811  0.1193
   14CHTO   C71 5738   6.434   5.873   1.248 -0.1051  0.1891 -0.3798
   14CHTO   O47 5739   6.392   5.912   1.382 -0.1193 -0.1203  0.2838
   14CHTO  H104 5740   6.398   6.006   1.391 -0.2758 -0.1296  0.4892
   14CHTO   O34 5741   6.611   5.473   1.379 -0.2597  0.7550  0.7456
   14CHTO   C49 5742   6.755   5.458   1.323 -0.3206 -0.3853 -0.2112
   14CHTO   H91 5743   6.742   5.383   1.245  0.9600  0.2581 -1.0641
   14CHTO   C47 5744   6.845   5.414   1.442  0.3935 -0.7012 -0.3848
   14CHTO   H89 5745   6.938   5.381   1.391  0.6148 -0.5007 -0.1032
   14CHTO   O33 5746   6.783   5.295   1.503  0.1472  0.3162 -0.3175
   14CHTO   H70 5747   6.854   5.237   1.522 -1.4390 -1.1991  1.1509
   14CHTO   C45 5748   6.856   5.537   1.546 -0.0079  0.1063  0.3124
   14CHTO   H87 5749   6.774   5.527   1.619  0.2093  1.1169  0.7016
   14CHTO    N8 5750   6.982   5.532   1.620 -0.9008 -0.4240 -0.3791
   14CHTO   H75 5751   6.961   5.530   1.726 -0.6008 -2.3263 -0.3367
   14CHTO   H76 5752   7.052   5.607   1.587 -3.3557  2.0212 -0.1659
   14CHTO   C43 5753   6.808   5.679   1.487 -0.1962 -0.2805  0.0216
   14CHTO   H85 5754   6.699   5.683   1.484 -0.1656  0.2088 -0.5764
   14CHTO   O29 5755   6.871   5.689   1.352  0.3244 -0.8440 -0.2210
   14CHTO   C50 5756   6.815   5.590   1.265  0.6109  0.7876 -0.4831
   14CHTO   H92 5757   6.737   5.645   1.208 -0.1800 -1.0291 -1.1832
   14CHTO   C54 5758   6.931   5.559   1.157 -0.6713  0.0854  0.1628
   14CHTO   O36 5759   6.977   5.684   1.104 -0.9373 -0.2983 -0.0241
   14CHTO   H72 5760   7.066   5.709   1.124 -0.6679 -0.9959 -0.3620
   14CHTO   O27 5761   6.843   5.791   1.569 -0.3680 -0.1723  0.3043
   14CHTO   C37 5762   6.804   5.922   1.615 -0.8993  0.0501 -0.4471
   14CHTO   H79 5763   6.891   5.974   1.657 -1.6900  0.5059  0.6467
   14CHTO   C38 5764   6.745   6.017   1.506 -0.1851 -0.1273 -0.1378
   14CHTO   H80 5765   6.661   5.970   1.451  0.5856 -0.4951 -1.0118
   14CHTO   O31 5766   6.843   6.056   1.410  0.2995  0.0133  0.1912
   14CHTO   H68 5767   6.930   6.077   1.439  0.4567  1.5510 -1.3162
   14CHTO   C39 5768   6.686   6.148   1.575 -0.1246  0.5759  0.4754
   14CHTO   H81 5769   6.758   6.201   1.637 -1.8350  0.8190  2.3200
   14CHTO    N7 5770   6.622   6.242   1.477 -0.2744 -0.4542 -0.4883
   14CHTO   H73 5771   6.629   6.196   1.379  1.5415 -2.1865  0.4238
   14CHTO   H74 5772   6.522   6.273   1.503  0.9972  3.0990  0.3957
   14CHTO   C40 5773   6.576   6.097   1.678 -0.1770 -0.9318 -0.1451
   14CHTO   H82 5774   6.499   6.035   1.631 -1.8783 -0.4026  1.8838
   14CHTO   O26 5775   6.648   6.030   1.786  0.7087 -0.1283 -0.0503
   14CHTO   C41 5776   6.708   5.901   1.736 -0.1964  0.1986  0.1013
   14CHTO   H83 5777   6.636   5.826   1.701  0.5093 -1.2424  1.6585
   14CHTO   C52 5778   6.781   5.833   1.856 -0.0485  0.1323  0.2329
   14CHTO   O35 5779   6.898   5.906   1.898  0.3779 -0.1641 -0.0719
   14CHTO   H71 5780   6.970   5.911   1.838  1.4030  2.4368  1.2674
   14CHTO   O28 5781   6.509   6.205   1.746  0.7838 -0.0393 -0.0694
   14CHTO   C42 5782   6.380   6.178   1.814 -0.3065 -0.3842  0.5078
   14CHTO   H84 5783   6.345   6.273   1.854  0.6093 -0.0774  0.5949
   14CHTO   C44 5784   6.388   6.079   1.931  0.2649  0.2042 -0.4700
   14CHTO   H86 5785   6.410   5.978   1.898  0.8579 -0.1508  0.9771
   14CHTO   O32 5786   6.495   6.124   2.015 -0.4647 -0.0114  0.4707
   14CHTO   H69 5787   6.482   6.215   2.033  0.8762  0.3083 -0.1141
   14CHTO   C48 5788   6.247   6.067   2.007 -0.2829 -0.0393 -0.1001
   14CHTO   H90 5789   6.225   6.166   2.047 -1.7921 -0.0939 -0.7417
   14CHTO    N9 5790   6.244   5.974   2.122  0.3034  0.4196 -0.5246
   14CHTO   H77 5791   6.147   5.952   2.163 -0.5723  2.1988 -1.5858
   14CHTO   H78 5792   6.317   5.998   2.198 -0.5776 -1.5969  0.9800
   14CHTO   C51 5793   6.125   6.030   1.907 -0.5540  0.6308 -0.3415
   14CHTO   H93 5794   6.124   5.924   1.881 -0.7606  1.3008 -3.2829
   14CHTO   O30 5795   6.130   6.108   1.786 -0.2807 -0.1872  0.1105
   14CHTO   C46 5796   6.272   6.137   1.713  0.1513  0.7636  0.1397
   14CHTO   H88 5797   6.306   6.043   1.668 -0.6974  0.0960  0.8836
   14CHTO   C53 5798   6.249   6.234   1.594 -0.2780  0.4731 -0.9617
   14CHTO   O72 5799   6.164   6.171   1.491  0.4517  0.4544  0.0176
   14CHTO  H199 5800   6.093   6.226   1.464  0.0068  0.0232  0.3028
   14CHTO   O22 5801   6.003   6.073   1.971 -0.1753  0.4858 -0.6674
   14CHTO   C31 5802   5.871   6.022   1.926 -0.3588 -0.0398  0.6256
   14CHTO   H59 5803   5.884   5.989   1.821  0.1486 -0.0907  0.7042
   14CHTO   C29 5804   5.817   5.903   2.007 -0.0494 -0.1810 -0.4957
   14CHTO   H57 5805   5.806   5.941   2.110 -2.7035 -0.9909 -0.4394
   14CHTO   O21 5806   5.924   5.812   2.016 -0.9253 -0.0984  0.3083
   14CHTO   H37 5807   5.968   5.813   2.098  1.5628 -1.8432 -0.9375
   14CHTO   C27 5808   5.674   5.858   1.960  0.1400 -0.2643 -0.3464
   14CHTO   H55 5809   5.684   5.819   1.857 -0.6655 -0.2368 -0.4441
   14CHTO    N5 5810   5.623   5.755   2.052 -0.1772  0.3768 -0.0640
   14CHTO   H43 5811   5.602   5.661   2.004  1.7479 -0.1763  0.1407
   14CHTO   H44 5812   5.534   5.786   2.105 -0.0102  0.0562  0.4012
   14CHTO   C25 5813   5.577   5.983   1.955 -0.3368 -0.0328  0.7094
   14CHTO   H53 5814   5.553   6.027   2.053  1.9040 -0.0614  1.2840
   14CHTO   O17 5815   5.642   6.091   1.873  0.5117 -0.1730  0.1950
   14CHTO   C32 5816   5.766   6.141   1.912  0.3858 -0.0226  0.4576
   14CHTO   H60 5817   5.746   6.182   2.011 -1.2146  0.6250 -0.1199
   14CHTO   C36 5818   5.812   6.241   1.804  0.7035 -0.7425  0.0290
   14CHTO   O25 5819   5.939   6.304   1.837  0.1892 -0.6788  0.0264
   14CHTO   H40 5820   5.954   6.283   1.927 -0.1001 -1.2270 -0.0479
   14CHTO   O15 5821   5.436   5.949   1.893 -0.0351 -0.2686  0.1902
   14CHTO   C19 5822   5.300   5.993   1.878 -0.7087  0.4539  0.3063
   14CHTO   H47 5823   5.257   5.938   1.793 -3.3183  2.0010  0.5829
   14CHTO   C20 5824   5.215   5.962   2.004  0.7128  0.3256 -0.2978
   14CHTO   H48 5825   5.250   6.014   2.094 -1.1423  2.1366 -0.5750
   14CHTO   O19 5826   5.239   5.823   2.035  0.1104 -0.3428 -0.1020
   14CHTO   H35 5827   5.320   5.826   2.083  0.4857  0.0593 -0.7566
   14CHTO   C21 5828   5.064   5.991   1.977 -0.4952 -0.6014  0.3848
   14CHTO   H49 5829   5.034   5.929   1.892  0.6119 -2.0768  1.0534
   14CHTO    N4 5830   4.964   5.956   2.084  0.2068  0.5715  0.0292
   14CHTO   H41 5831   5.030   5.915   2.159 -0.5242  1.4401  1.1731
   14CHTO   H42 5832   4.889   5.884   2.057  1.1731 -0.3732 -0.1842
   14CHTO   C22 5833   5.054   6.141   1.937 -0.2352  0.4166  0.2739
   14CHTO   H50 5834   5.092   6.200   2.020 -0.1489 -0.3478  0.7891
   14CHTO   O14 5835   5.139   6.162   1.822 -0.3790  0.0952 -0.1877
   14CHTO   C23 5836   5.281   6.147   1.841 -0.4730 -0.4748 -0.7126
   14CHTO   H51 5837   5.300   6.212   1.928 -3.9942 -2.0888  1.4050
   14CHTO   C34 5838   5.357   6.203   1.722  0.1677  0.0786 -0.9458
   14CHTO   O23 5839   5.357   6.347   1.733 -0.3537  0.3554 -0.1878
   14CHTO   H38 5840   5.268   6.365   1.709 -0.4722  0.2680  0.1745
   14CHTO   O16 5841   4.920   6.169   1.888 -0.3776  0.0879  0.0891
   14CHTO   C24 5842   4.870   6.342   1.878  0.1921  1.4143 -0.6805
   14CHTO   H52 5843   4.787   6.357   1.809  0.3229  1.4488 -0.8295
   14CHTO   C26 5844   4.984   6.433   1.839  0.8644 -0.0509 -0.1607
   14CHTO   H54 5845   5.073   6.418   1.904 -0.0800  0.7624  1.3328
   14CHTO   O20 5846   5.027   6.390   1.710 -0.6875 -0.5075  0.2220
   14CHTO   H36 5847   5.114   6.356   1.708 -0.2313  0.6958 -0.3579
   14CHTO   C30 5848   4.948   6.582   1.842  0.0543 -0.0137 -0.3175
   14CHTO   H58 5849   4.872   6.606   1.766  1.2663  0.3196 -1.4521
   14CHTO    N6 5850   5.068   6.658   1.805  0.4936  0.6333 -0.0188
   14CHTO   H45 5851   5.069   6.702   1.707  1.5168 -2.5118 -1.4874
   14CHTO   H46 5852   5.154   6.591   1.806  0.6078  0.7241 -2.3161
   14CHTO   C33 5853   4.894   6.615   1.989 -0.0739  0.4238 -0.1004
   14CHTO   H61 5854   4.975   6.601   2.063 -0.2986 -0.5633 -0.0305
   14CHTO   O18 5855   4.785   6.525   2.020 -0.3204 -0.1259  0.3209
   14CHTO   C28 5856   4.823   6.380   2.019 -0.1424  0.4171 -0.4001
   14CHTO   H56 5857   4.905   6.358   2.088  0.9481  1.2841 -1.4060
   14CHTO   C35 5858   4.689   6.313   2.049 -0.2626 -0.2855 -0.9664
   14CHTO   O24 5859   4.673   6.171   2.036 -0.2800 -0.8203  0.0378
   14CHTO   H39 5860   4.753   6.123   2.043 -0.9364 -1.6345  2.4548
   14CHTO    O9 5861   4.853   6.751   1.998 -0.1138 -0.2288 -0.0375
   14CHTO   C13 5862   4.871   6.829   2.128 -0.4009 -0.6016  0.0172
   14CHTO   H26 5863   4.854   6.758   2.212 -0.2459 -0.4710  0.1573
   14CHTO   C11 5864   4.751   6.939   2.119 -0.0655  0.3362 -0.0948
   14CHTO   H24 5865   4.656   6.884   2.127  0.1813 -0.5361 -2.5003
   14CHTO    O8 5866   4.750   7.004   1.990 -0.1747  0.4391 -0.0780
   14CHTO    H3 5867   4.826   7.050   1.961  0.4403  0.0429  0.8702
   14CHTO    C9 5868   4.757   7.045   2.236  0.7722  0.6420 -0.0670
   14CHTO   H22 5869   4.741   6.988   2.329 -1.4111 -2.6823 -2.3739
   14CHTO    N2 5870   4.644   7.144   2.244  0.0715 -0.4418  0.0891
   14CHTO   H10 5871   4.545   7.101   2.229  0.3104 -0.7241 -0.7509
   14CHTO   H11 5872   4.641   7.184   2.344  1.8296  0.6102 -0.2683
   14CHTO    C7 5873   4.898   7.108   2.236  0.0040 -0.1412  0.1525
   14CHTO   H20 5874   4.900   7.171   2.328 -0.6315 -1.6958  1.2527
   14CHTO    O4 5875   5.006   7.014   2.237 -0.0742 -0.1454 -0.2370
   14CHTO   C14 5876   5.009   6.905   2.150  1.1689  0.7640  0.5156
   14CHTO   H27 5877   5.067   6.827   2.203  0.7996 -0.1222 -0.3646
   14CHTO   C18 5878   5.098   6.942   2.028  0.0554  0.0508  0.7572
   14CHTO   O13 5879   5.233   6.974   2.068 -0.0776 -0.1948  0.2013
   14CHTO    H7 5880   5.274   6.913   2.127  1.4333  0.1249 -0.5002
   14CHTO    O2 5881   4.920   7.222   2.100 -0.2106 -0.0518 -0.0327
   14CHTO    C1 5882   4.992   7.343   2.109  0.6682  0.3809  0.1602
   14CHTO   H14 5883   5.010   7.391   2.010 -2.6995 -1.3483 -1.3905
   14CHTO    C2 5884   5.129   7.332   2.181 -0.1667 -0.3246 -0.0633
   14CHTO   H15 5885   5.111   7.283   2.277 -1.9516  0.4780  0.0258
   14CHTO    O6 5886   5.219   7.259   2.097 -0.0701 -0.0344 -0.4740
   14CHTO    H1 5887   5.227   7.173   2.133 -1.8083 -0.2521 -0.5900
   14CHTO    C3 5888   5.199   7.475   2.213  0.3639  0.1965 -0.3049
   14CHTO   H16 5889   5.230   7.514   2.115  2.7858 -0.2544  0.2699
   14CHTO    N1 5890   5.319   7.466   2.303  0.0917  0.3303 -0.4588
   14CHTO    H8 5891   5.391   7.400   2.257  1.0227  1.6665 -0.9411
   14CHTO    H9 5892   5.283   7.417   2.392  3.2526 -0.7190  0.3214
   14CHTO    C4 5893   5.095   7.580   2.267  0.4943  0.6869  0.2723
   14CHTO   H17 5894   5.080   7.565   2.374 -1.2791  2.5089  0.3056
   14CHTO    O1 5895   4.976   7.577   2.183 -0.0756 -0.1171 -0.3097
   14CHTO    C5 5896   4.905   7.450   2.179 -0.0889 -0.1729 -0.0136
   14CHTO   H18 5897   4.893   7.430   2.285  0.9858 -1.7128 -0.1720
   14CHTO   C16 5898   4.766   7.473   2.114  0.4977 -0.2039  0.2354
   14CHTO   O11 5899   4.667   7.534   2.197 -0.5537  0.2564 -0.5415
   14CHTO    H5 5900   4.580   7.517   2.169 -0.4926  0.6432 -0.9717
   14CHTO    O3 5901   5.151   7.713   2.251 -0.5492  0.1776  0.2421
   14CHTO    C6 5902   5.071   7.815   2.318  0.2740 -0.6363  0.0148
   14CHTO   H19 5903   4.980   7.780   2.365 -0.0684 -0.2147 -0.3313
   14CHTO    C8 5904   5.158   7.883   2.424 -0.2642 -0.8411 -0.2980
   14CHTO   H21 5905   5.253   7.906   2.376 -0.1034  1.7882  1.2208
   14CHTO    O7 5906   5.162   7.779   2.522 -0.3272  0.2838  0.5007
   14CHTO    H2 5907   5.227   7.803   2.586  0.8085  1.4036 -1.0419
   14CHTO   C12 5908   5.081   8.010   2.488  0.3913 -0.0629  0.5247
   14CHTO   H25 5909   4.981   7.978   2.524 -1.4623  2.1045 -2.4548
   14CHTO    N3 5910   5.147   8.075   2.605 -0.2499  0.0403 -0.3695
   14CHTO   H12 5911   5.093   8.136   2.676  0.5135 -1.6233  1.6881
   14CHTO   H13 5912   5.205   8.000   2.657 -1.1209  0.1427  0.7817
   14CHTO   C15 5913   5.060   8.108   2.376 -0.0622 -0.1810  0.2774
   14CHTO   H28 5914   5.158   8.142   2.342  0.8104 -2.4987  0.4405
   14CHTO   O10 5915   4.971   8.231   2.402  0.4154 -0.0586  0.6182
   14CHTO    H4 5916   4.990   8.301   2.343  0.4211 -1.7248 -1.4550
   14CHTO    O5 5917   4.985   8.039   2.272  0.1029 -0.3547  0.0471
   14CHTO   C10 5918   5.034   7.923   2.214  0.0331  0.1342  0.8853
   14CHTO   H23 5919   5.124   7.935   2.153  0.0757 -1.2918  0.6502
   14CHTO   C17 5920   4.929   7.882   2.112  0.7684 -0.5092  0.3172
   14CHTO   O12 5921   4.985   7.796   2.008 -0.5820  0.3920  0.2398
   14CHTO    H6 5922   4.913   7.780   1.950  1.8997  1.0514 -3.1875
   15CHTO  H203 5923   6.570   4.782   2.278  0.1654 -0.1197 -0.2741
   15CHTO   O82 5924   6.587   4.809   2.190  0.2470  0.2245 -0.1542
   15CHTO  C123 5925   6.519   4.732   2.092 -0.0023  0.1750 -0.6140
   15CHTO  H227 5926   6.451   4.655   2.133 -1.3449 -0.5889 -4.0873
   15CHTO   O77 5927   6.438   4.833   2.016  0.1625 -0.0204 -0.8699
   15CHTO  C118 5928   6.348   4.777   1.917 -0.0970 -0.1684 -0.2266
   15CHTO  H222 5929   6.282   4.702   1.963 -0.6269 -0.8107 -1.9982
   15CHTO  C125 5930   6.263   4.890   1.856 -0.5548 -0.5534  0.2239
   15CHTO   O84 5931   6.186   4.960   1.959  0.1391  0.6518  0.2559
   15CHTO  H205 5932   6.103   4.977   1.918  1.0537  2.9626 -0.7041
   15CHTO  C114 5933   6.433   4.705   1.810  0.7460 -0.1120 -0.2206
   15CHTO  H218 5934   6.497   4.780   1.763  0.3566  0.1524 -0.3307
   15CHTO  C116 5935   6.534   4.603   1.872  0.3569 -0.6575 -0.0293
   15CHTO  H220 5936   6.473   4.513   1.897 -0.3035 -0.7059 -1.7512
   15CHTO   O79 5937   6.627   4.559   1.765  0.3612 -0.0896 -0.4434
   15CHTO  H201 5938   6.712   4.548   1.802  0.0081  0.1617  0.4578
   15CHTO  C120 5939   6.619   4.664   1.994  0.5808  0.4374  0.7485
   15CHTO  H224 5940   6.688   4.741   1.954 -1.1740  1.2553 -0.8304
   15CHTO   N21 5941   6.711   4.571   2.062 -0.0695  0.0142  0.2269
   15CHTO  H211 5942   6.801   4.628   2.077 -0.5332  1.0992 -1.0627
   15CHTO  H212 5943   6.687   4.530   2.159  1.5424 -0.5008  0.4217
   15CHTO   O75 5944   6.332   4.659   1.715  0.4405  0.4936 -0.1564
   15CHTO  C112 5945   6.289   4.504   1.723 -0.0101  0.0337 -0.5557
   15CHTO  H216 5946   6.276   4.474   1.828 -1.4283 -1.1794 -1.0517
   15CHTO   O73 5947   6.394   4.429   1.658 -0.0794  0.1519 -0.0333
   15CHTO  C113 5948   6.379   4.287   1.657 -0.2659 -0.7143  0.5035
   15CHTO  H217 5949   6.362   4.250   1.760 -0.8805 -2.3642 -0.1807
   15CHTO  C124 5950   6.511   4.226   1.612 -0.1810 -0.5348  0.1845
   15CHTO   O83 5951   6.612   4.222   1.714  0.7899  0.3829  0.5010
   15CHTO  H204 5952   6.664   4.300   1.718 -1.4965  1.8707  2.8744
   15CHTO  C109 5953   6.247   4.246   1.586 -0.4459  0.5747  0.1380
   15CHTO  H213 5954   6.264   4.270   1.480  0.2411 -0.0721  0.0969
   15CHTO  C110 5955   6.123   4.327   1.637  0.1553 -0.4090 -0.3415
   15CHTO  H214 5956   6.093   4.300   1.738  2.9270 -0.1691  0.5718
   15CHTO   O78 5957   6.011   4.305   1.548 -0.2553 -0.4897 -0.0642
   15CHTO  H200 5958   5.954   4.240   1.582 -0.1229 -0.6843 -0.2149
   15CHTO  C111 5959   6.161   4.479   1.648 -0.2559  0.1152 -0.2580
   15CHTO  H215 5960   6.169   4.517   1.545 -0.4920 -1.7068 -0.9613
   15CHTO   N19 5961   6.054   4.560   1.714  0.7885 -0.4876  0.7536
   15CHTO  H207 5962   6.058   4.659   1.671 -0.5827 -1.3354 -1.4061
   15CHTO  H208 5963   6.065   4.570   1.821 -0.1829  4.0115  0.5462
   15CHTO   O74 5964   6.227   4.101   1.608 -0.3513 -0.8372 -0.3391
   15CHTO  C115 5965   6.209   4.033   1.457 -0.4421  0.7319 -0.1150
   15CHTO  H219 5966   6.162   4.102   1.388 -0.8446  2.9469  2.2885
   15CHTO   O76 5967   6.348   4.002   1.402  0.1594  0.1316  0.3047
   15CHTO  C122 5968   6.412   3.892   1.466  0.0127  0.4882 -0.1331
   15CHTO  H226 5969   6.392   3.909   1.571 -0.2052  0.9166 -0.2406
   15CHTO  C126 5970   6.561   3.893   1.444  0.3228  0.3720  0.2838
   15CHTO   O85 5971   6.616   3.865   1.316  0.5285  0.4248  0.3122
   15CHTO  H206 5972   6.636   3.774   1.303 -0.3259 -0.0786  2.4110
   15CHTO  C121 5973   6.345   3.762   1.411  0.8743  0.6760 -0.2407
   15CHTO  H225 5974   6.389   3.731   1.314  0.4207  0.0446 -0.2502
   15CHTO   O81 5975   6.370   3.663   1.513  0.3628  0.2162 -0.0566
   15CHTO  H202 5976   6.386   3.576   1.481 -1.7829 -1.2771  2.6391
   15CHTO  C119 5977   6.198   3.781   1.389 -0.6486 -0.7997  0.6308
   15CHTO  H223 5978   6.192   3.802   1.283  1.0949 -0.0038  0.6714
   15CHTO  C117 5979   6.126   3.901   1.477  0.2493 -0.0763  0.2893
   15CHTO  H221 5980   6.119   3.895   1.586 -0.6686  1.1122  0.3041
   15CHTO   N20 5981   5.984   3.926   1.439  0.2974  0.4882  0.2279
   15CHTO  H209 5982   5.934   3.965   1.526 -1.7551 -0.7628 -0.3595
   15CHTO  H210 5983   5.938   3.830   1.421  1.4877  0.1692 -1.2194
   15CHTO   O80 5984   6.115   3.643   1.398 -0.8342  0.2686  0.3486
   15CHTO  C103 5985   6.051   3.564   1.254 -0.3562 -0.2124  0.0007
   15CHTO  H190 5986   5.982   3.488   1.291 -2.7886  2.9136  2.2010
   15CHTO  C101 5987   5.963   3.634   1.141 -0.2558  0.0013 -0.3521
   15CHTO  H188 5988   6.019   3.715   1.093  1.0208 -0.2162  0.7394
   15CHTO   O68 5989   5.830   3.696   1.205 -0.1350 -0.7951  0.2939
   15CHTO  H168 5990   5.774   3.721   1.134 -2.2913  2.7848  3.0284
   15CHTO   C99 5991   5.925   3.521   1.035 -0.3901  0.5193  0.2966
   15CHTO  H186 5992   5.859   3.449   1.088  3.0752 -3.0381 -0.0469
   15CHTO   N17 5993   5.857   3.574   0.917  0.2241  0.1997  0.3213
   15CHTO  H174 5994   5.755   3.601   0.942 -0.0178 -0.2777 -0.1472
   15CHTO  H175 5995   5.904   3.661   0.874  0.2383 -1.1999 -2.6161
   15CHTO   C97 5996   6.048   3.438   0.984 -0.2779 -0.4725 -0.1999
   15CHTO  H184 5997   6.106   3.491   0.908 -0.5683 -1.3074 -1.0138
   15CHTO   O64 5998   6.134   3.387   1.094  0.2678 -0.2887  0.5518
   15CHTO  C104 5999   6.170   3.491   1.187  0.3770 -0.1800  0.4872
   15CHTO  H191 6000   6.236   3.565   1.143 -0.5054  0.2370 -0.1561
   15CHTO  C108 6001   6.262   3.423   1.293 -0.3599  0.2894  0.8021
   15CHTO   O71 6002   6.198   3.325   1.372  0.1147  0.4570  0.1804
   15CHTO  H171 6003   6.242   3.242   1.378  0.5551  0.7357  0.9620
   15CHTO   O62 6004   6.004   3.312   0.932  0.2245 -0.0693 -0.6485
   15CHTO   C91 6005   6.066   3.264   0.814  1.3357 -0.0511  0.3790
   15CHTO  H178 6006   6.098   3.350   0.755 -0.3575 -0.2113 -0.8209
   15CHTO   C92 6007   5.962   3.188   0.716  0.9486 -0.1784  0.3776
   15CHTO  H179 6008   5.874   3.253   0.710  1.0506 -0.1277 -0.6449
   15CHTO   O66 6009   6.018   3.159   0.589  0.3008 -0.0247  0.0376
   15CHTO  H166 6010   5.945   3.164   0.530  0.4976  2.1243 -0.0794
   15CHTO   C93 6011   5.921   3.048   0.779  0.4161  0.2405  0.2107
   15CHTO  H180 6012   5.886   2.983   0.697 -1.0445  0.7978  0.3775
   15CHTO   N16 6013   5.808   3.057   0.874 -0.2093 -0.1232 -0.2526
   15CHTO  H172 6014   5.723   3.094   0.820  0.9756  3.3511  0.1614
   15CHTO  H173 6015   5.826   3.118   0.961  1.1850  0.2711 -0.7910
   15CHTO   C94 6016   6.045   2.972   0.844  0.1054  0.2632 -0.8123
   15CHTO  H181 6017   6.043   2.974   0.953 -0.7829 -0.5125 -0.8117
   15CHTO   O61 6018   6.165   3.042   0.807 -0.4760 -0.0860 -0.8860
   15CHTO   C95 6019   6.183   3.175   0.854 -0.1320  0.8311 -0.3595
   15CHTO  H182 6020   6.195   3.178   0.962 -0.2879  1.0245 -0.3473
   15CHTO  C106 6021   6.318   3.216   0.801  0.3182  0.6628 -0.1403
   15CHTO   O69 6022   6.314   3.235   0.655  0.4301 -0.6045  0.1863
   15CHTO  H169 6023   6.364   3.165   0.618  1.5973 -1.0327  2.4640
   15CHTO   O63 6024   6.037   2.831   0.800 -0.1731 -0.2720  0.0065
   15CHTO   C96 6025   6.117   2.739   0.890 -0.2625  0.0629 -0.1142
   15CHTO  H183 6026   6.127   2.783   0.989  1.3917  0.8390 -0.6234
   15CHTO   C98 6027   6.262   2.698   0.840 -0.3857 -0.1107 -0.1850
   15CHTO  H185 6028   6.249   2.681   0.732  2.8472  0.2960 -0.6897
   15CHTO   O67 6029   6.346   2.818   0.856 -0.6165 -0.1774 -0.0391
   15CHTO  H167 6030   6.425   2.819   0.807 -0.9469  0.0244 -0.5779
   15CHTO  C102 6031   6.324   2.569   0.911  0.0260 -0.6285  0.5001
   15CHTO  H189 6032   6.353   2.605   1.011  1.4929 -0.7598  0.1402
   15CHTO   N18 6033   6.452   2.519   0.850 -0.1581 -0.2288  0.8602
   15CHTO  H176 6034   6.444   2.485   0.748 -1.7713 -0.5042  1.0652
   15CHTO  H177 6035   6.523   2.600   0.857 -1.1987  0.8859 -1.0164
   15CHTO  C105 6036   6.220   2.454   0.916 -0.0023 -0.5643 -0.2837
   15CHTO  H192 6037   6.199   2.421   0.814 -1.6085  0.0307 -0.1534
   15CHTO   O65 6038   6.098   2.501   0.973  0.2311  0.2351 -0.1047
   15CHTO  C100 6039   6.025   2.605   0.905  0.1828  0.0172  0.5749
   15CHTO  H187 6040   6.003   2.568   0.804  0.6837 -1.0994  0.8711
   15CHTO  C107 6041   5.894   2.646   0.961 -0.0886 -0.0883 -0.1897
   15CHTO   O70 6042   5.910   2.712   1.089 -0.2605  0.3427  0.1508
   15CHTO  H170 6043   5.832   2.736   1.134 -0.4253 -0.8405  0.5106
   15CHTO   O57 6044   6.274   2.333   0.997 -0.7967 -0.4263  0.6318
   15CHTO   C85 6045   6.187   2.243   1.067 -0.1914  1.1037 -0.1066
   15CHTO  H157 6046   6.110   2.305   1.117  0.9886  0.6547  2.3702
   15CHTO   C83 6047   6.260   2.180   1.196  0.5761  0.1221  0.1172
   15CHTO  H155 6048   6.280   2.268   1.256  4.8173 -0.1424 -0.7477
   15CHTO   O56 6049   6.382   2.114   1.158  0.2477 -0.6638 -0.7617
   15CHTO  H135 6050   6.437   2.163   1.100 -0.8865  1.8347  0.2111
   15CHTO   C81 6051   6.165   2.091   1.274  0.0486  0.0823 -0.4856
   15CHTO  H153 6052   6.084   2.151   1.314 -2.2718 -3.8757  1.0748
   15CHTO   N14 6053   6.231   2.033   1.395 -0.4218  0.1569  0.5946
   15CHTO  H141 6054   6.319   2.077   1.436 -1.0163  1.4724  0.4755
   15CHTO  H142 6055   6.162   2.018   1.475 -0.6942  1.3655  0.5955
   15CHTO   C79 6056   6.091   1.977   1.185 -0.5371  0.3582  0.1176
   15CHTO  H151 6057   6.017   1.930   1.250 -0.1205  1.3052  1.2799
   15CHTO   O52 6058   6.030   2.050   1.072 -0.2556  0.1952 -0.3022
   15CHTO   C86 6059   6.128   2.122   0.992 -0.0409 -0.0669 -0.5625
   15CHTO  H158 6060   6.209   2.051   0.964  1.2930  0.0998  2.5918
   15CHTO   C90 6061   6.068   2.161   0.863  0.4421 -0.4515  0.8688
   15CHTO   O60 6062   5.966   2.264   0.884 -0.3555  0.6306  0.3143
   15CHTO  H138 6063   5.979   2.334   0.824  0.0474 -1.9231 -2.6938
   15CHTO   O50 6064   6.184   1.877   1.132 -0.5917 -0.3953 -0.1642
   15CHTO   C73 6065   6.147   1.757   1.066 -0.2209  0.3837  0.7998
   15CHTO  H145 6066   6.084   1.786   0.981  1.7904 -0.8078 -1.1863
   15CHTO   C74 6067   6.065   1.658   1.162 -0.6322  0.9246 -1.2179
   15CHTO  H146 6068   5.984   1.715   1.210 -0.9031 -0.6582  0.2696
   15CHTO   O54 6069   6.004   1.568   1.070  0.2373  0.3480  0.1457
   15CHTO  H133 6070   5.930   1.519   1.102 -0.4923  0.2426 -1.6460
   15CHTO   C75 6071   6.162   1.593   1.272 -0.1745  0.1537 -0.5967
   15CHTO  H147 6072   6.193   1.669   1.345  0.9196 -2.7547  2.0910
   15CHTO   N13 6073   6.105   1.486   1.360 -0.2085 -0.2057 -0.0628
   15CHTO  H139 6074   6.186   1.444   1.418  0.9784  1.4970 -0.4492
   15CHTO  H140 6075   6.035   1.537   1.426 -1.7961 -2.9198  0.4360
   15CHTO   C76 6076   6.295   1.546   1.198  0.3093  0.3373 -0.6132
   15CHTO  H148 6077   6.267   1.472   1.123 -1.5620  1.2522 -0.8265
   15CHTO   O49 6078   6.358   1.657   1.128 -0.4464  0.2939 -0.0521
   15CHTO   C77 6079   6.275   1.692   1.014  0.0477 -0.0553  0.2562
   15CHTO  H149 6080   6.245   1.612   0.947 -1.1938  0.7223 -0.1251
   15CHTO   C88 6081   6.354   1.787   0.927 -0.0793  0.7805 -0.2095
   15CHTO   O58 6082   6.282   1.840   0.819  0.0613  0.0220 -0.3447
   15CHTO  H136 6083   6.305   1.789   0.743 -1.1988  0.0313 -0.7437
   15CHTO   O51 6084   6.408   1.495   1.316 -0.2933  0.2584  0.0075
   15CHTO   C78 6085   6.527   1.403   1.228  0.0005 -0.6585 -0.3788
   15CHTO  H150 6086   6.486   1.382   1.127 -0.4249  2.7713 -1.0006
   15CHTO   C80 6087   6.544   1.276   1.318 -0.0047 -0.3877  0.3544
   15CHTO  H152 6088   6.555   1.305   1.424  1.5180 -0.4761  0.2265
   15CHTO   O55 6089   6.415   1.214   1.313  0.1164 -0.1884  0.1399
   15CHTO  H134 6090   6.339   1.265   1.333  0.2245  0.7365 -1.6800
   15CHTO   C84 6091   6.661   1.189   1.269 -0.0879 -0.4768 -0.0556
   15CHTO  H156 6092   6.638   1.157   1.167  1.6052 -0.3612 -0.4895
   15CHTO   N15 6093   6.689   1.062   1.346 -0.0309  0.1157 -0.3275
   15CHTO  H143 6094   6.719   1.069   1.448  0.0396 -0.1500 -0.3283
   15CHTO  H144 6095   6.603   0.999   1.342  0.1179 -0.3942  3.0454
   15CHTO   C87 6096   6.784   1.282   1.259  0.1207  0.0524  0.4171
   15CHTO  H159 6097   6.810   1.311   1.361 -0.6932  1.6034  0.2050
   15CHTO   O53 6098   6.761   1.377   1.172  0.2432 -0.4523  0.0978
   15CHTO   C82 6099   6.666   1.473   1.220 -0.0010 -0.8516 -0.7274
   15CHTO  H154 6100   6.707   1.521   1.309 -0.6900  3.0665 -2.3851
   15CHTO   C89 6101   6.662   1.586   1.110  0.4383  0.6951  0.7735
   15CHTO   O59 6102   6.631   1.723   1.151 -0.2930 -0.1252 -0.3536
   15CHTO  H137 6103   6.578   1.760   1.083  0.8216 -0.1818 -1.2796
   15CHTO   O45 6104   6.907   1.214   1.188 -0.1556 -0.1932  0.1768
   15CHTO   C67 6105   7.031   1.283   1.210  0.7857  0.3745  0.0512
   15CHTO  H124 6106   7.004   1.377   1.258 -0.5893  0.0433 -0.0365
   15CHTO   C65 6107   7.123   1.198   1.311  0.1829 -0.4341  0.3838
   15CHTO  H122 6108   7.119   1.092   1.290 -0.2581 -0.1224 -1.1446
   15CHTO   O44 6109   7.059   1.213   1.440 -0.0279 -0.0124 -0.7121
   15CHTO  H102 6110   7.097   1.292   1.474 -1.6751  0.9972 -1.1601
   15CHTO   C63 6111   7.275   1.246   1.286  0.9783  0.6643 -0.1073
   15CHTO  H120 6112   7.318   1.183   1.208  2.9007 -2.5608  3.3587
   15CHTO   N11 6113   7.375   1.209   1.393  0.4618  0.3006  0.3969
   15CHTO  H108 6114   7.363   1.104   1.410 -1.4368  0.2311 -1.1963
   15CHTO  H109 6115   7.472   1.243   1.363  0.8431 -1.2279 -0.1690
   15CHTO   C61 6116   7.289   1.398   1.230 -0.2002 -0.6057 -0.5044
   15CHTO  H118 6117   7.396   1.415   1.215 -0.2094  0.9132  1.0367
   15CHTO   O40 6118   7.222   1.413   1.102  0.0949  0.0244  0.1848
   15CHTO   C68 6119   7.102   1.325   1.072  0.0260  0.4929 -0.7468
   15CHTO  H125 6120   7.145   1.238   1.017  2.2650 -0.1441  1.8946
   15CHTO   C72 6121   7.007   1.402   0.976 -0.1378 -0.2557 -0.3419
   15CHTO   O48 6122   7.074   1.447   0.858  0.0687 -0.0009 -0.1079
   15CHTO  H105 6123   7.033   1.525   0.825  0.5502 -0.4922 -1.9618
   15CHTO   O38 6124   7.235   1.487   1.331 -0.1427  0.1359 -0.3699
   15CHTO   C55 6125   7.250   1.627   1.294  0.3050 -0.7071  0.3038
   15CHTO  H112 6126   7.237   1.653   1.188  2.0507 -1.3756 -0.0988
   15CHTO   C56 6127   7.391   1.680   1.349  0.7972  0.0987  0.5831
   15CHTO  H113 6128   7.390   1.646   1.453 -2.7289  1.1224  0.9411
   15CHTO   O42 6129   7.502   1.611   1.292  0.4396  0.1271 -0.5056
   15CHTO  H100 6130   7.492   1.605   1.199 -1.1128  2.0282 -0.4814
   15CHTO   C57 6131   7.414   1.833   1.340 -0.6750 -0.2849  0.2777
   15CHTO  H114 6132   7.443   1.853   1.237 -0.9968 -0.8407  0.0785
   15CHTO   N10 6133   7.524   1.892   1.424  0.0710 -0.5082 -0.5747
   15CHTO  H106 6134   7.618   1.879   1.374  0.7925  1.8707  0.1005
   15CHTO  H107 6135   7.509   1.999   1.435 -1.0908 -0.8549  1.6988
   15CHTO   C58 6136   7.280   1.906   1.372  0.0801 -0.4246  0.0374
   15CHTO  H115 6137   7.268   1.911   1.482  3.3441 -0.9087  0.4362
   15CHTO   O37 6138   7.155   1.849   1.318 -0.0412 -0.2826  0.0867
   15CHTO   C59 6139   7.139   1.710   1.353  0.7939  0.2291 -0.6348
   15CHTO  H116 6140   7.122   1.704   1.461 -1.9496 -0.2571 -1.0411
   15CHTO   C70 6141   7.007   1.666   1.292 -0.1780  0.5749  0.7623
   15CHTO   O46 6142   6.902   1.737   1.353 -0.1183 -0.0274  0.4070
   15CHTO  H103 6143   6.909   1.732   1.446  0.9403 -0.3177  0.3089
   15CHTO   O39 6144   7.300   2.069   1.303  0.5303 -0.3666  0.5467
   15CHTO   C60 6145   7.253   2.082   1.165  0.1314  1.1239 -1.0008
   15CHTO  H117 6146   7.250   1.981   1.125 -0.2133  1.2624 -1.3218
   15CHTO   C62 6147   7.113   2.153   1.162  0.5912  0.1744  0.3551
   15CHTO  H119 6148   7.043   2.099   1.229  1.4101  0.1636  1.2179
   15CHTO   O43 6149   7.131   2.281   1.225  0.7843 -0.9912 -0.1246
   15CHTO  H101 6150   7.151   2.282   1.317  0.5780 -0.6303 -0.0827
   15CHTO   C66 6151   7.058   2.161   1.012 -0.3014 -0.8328  0.3515
   15CHTO  H123 6152   7.051   2.061   0.971  0.6333 -0.1817 -1.4577
   15CHTO   N12 6153   6.915   2.209   0.992 -0.5748  0.2380  0.6914
   15CHTO  H110 6154   6.898   2.217   0.885  2.6831 -0.6808  0.0429
   15CHTO  H111 6155   6.851   2.138   1.042  1.1121 -1.3265  0.6964
   15CHTO   C69 6156   7.163   2.239   0.924 -0.1557 -0.3486 -0.0107
   15CHTO  H126 6157   7.174   2.341   0.965 -1.0444  0.1106 -0.9154
   15CHTO   O41 6158   7.300   2.166   0.943 -0.3449 -0.3690 -0.7030
   15CHTO   C64 6159   7.351   2.170   1.070 -0.3249 -0.3078 -0.2608
   15CHTO  H121 6160   7.358   2.272   1.113  0.8714 -0.7965  0.7390
   15CHTO   C71 6161   7.499   2.111   1.058 -0.5056  0.7398  0.7710
   15CHTO   O47 6162   7.569   2.188   0.959 -0.1065  0.6137  0.0183
   15CHTO  H104 6163   7.541   2.177   0.870 -1.2319 -0.1965  0.4626
   15CHTO   O34 6164   7.128   2.252   0.783 -0.1996  0.0080 -0.4633
   15CHTO   C49 6165   7.081   2.288   0.648  0.1598  0.4751  0.8256
   15CHTO   H91 6166   7.082   2.201   0.582 -1.0447  1.2262 -0.2158
   15CHTO   C47 6167   7.172   2.389   0.579 -0.6188  0.4320 -0.0489
   15CHTO   H89 6168   7.137   2.403   0.474 -0.5309  1.3526  0.0413
   15CHTO   O33 6169   7.305   2.335   0.576 -0.0082  0.2736  0.1228
   15CHTO   H70 6170   7.315   2.287   0.496 -2.1483  0.4680 -0.2873
   15CHTO   C45 6171   7.165   2.528   0.658 -0.3850 -0.1115  0.5109
   15CHTO   H87 6172   7.207   2.510   0.758  3.1709  1.6266 -0.5895
   15CHTO    N8 6173   7.254   2.625   0.591 -0.1337  0.1690  0.0999
   15CHTO   H75 6174   7.288   2.585   0.497  1.7970 -0.2780  0.9768
   15CHTO   H76 6175   7.198   2.717   0.577 -1.3151 -0.6186 -0.5165
   15CHTO   C43 6176   7.014   2.587   0.663  0.8524 -0.0176 -0.5128
   15CHTO   H85 6177   7.001   2.672   0.731 -2.7727 -1.5170  0.8097
   15CHTO   O29 6178   6.923   2.482   0.706  0.4393 -0.0579  0.1349
   15CHTO   C50 6179   6.937   2.345   0.647  0.2009 -0.1535  0.2415
   15CHTO   H92 6180   6.881   2.281   0.717  0.8298 -0.7989  0.1747
   15CHTO   C54 6181   6.874   2.341   0.501 -0.1886 -0.8887  0.1879
   15CHTO   O36 6182   6.830   2.207   0.472 -0.0122 -0.1157 -0.3583
   15CHTO   H72 6183   6.748   2.196   0.517  1.4285  0.7444  2.5753
   15CHTO   O27 6184   6.957   2.635   0.535  0.8527 -0.2210 -0.0812
   15CHTO   C37 6185   6.866   2.723   0.480  0.1282 -0.4197  0.0745
   15CHTO   H79 6186   6.811   2.655   0.413  0.1151  1.0888 -1.4718
   15CHTO   C38 6187   6.750   2.779   0.573  0.4665  0.0587 -1.0354
   15CHTO   H80 6188   6.797   2.833   0.657 -2.5039  0.5815  0.3462
   15CHTO   O31 6189   6.673   2.667   0.621  0.2236  0.4802  0.2734
   15CHTO   H68 6190   6.617   2.617   0.564  0.4108 -1.1383  1.4768
   15CHTO   C39 6191   6.658   2.884   0.506 -0.1646  0.3208 -0.3966
   15CHTO   H81 6192   6.584   2.823   0.454 -1.1029 -1.2641  2.6236
   15CHTO    N7 6193   6.573   2.958   0.600  0.0124  0.1921 -0.8827
   15CHTO   H73 6194   6.633   3.021   0.666  1.5631 -1.7748 -0.3565
   15CHTO   H74 6195   6.477   2.994   0.568 -0.5487 -0.1862  0.3396
   15CHTO   C40 6196   6.736   2.973   0.400  0.0674  0.2818  0.5615
   15CHTO   H82 6197   6.782   3.044   0.469  1.2016 -0.1369  0.2449
   15CHTO   O26 6198   6.839   2.900   0.326  0.3678  0.4340  0.5951
   15CHTO   C41 6199   6.940   2.829   0.398 -0.3560  0.4405 -0.0739
   15CHTO   H83 6200   6.988   2.904   0.463  1.7194  1.2661 -2.5016
   15CHTO   C52 6201   7.047   2.785   0.301  0.6359  0.3128  0.3206
   15CHTO   O35 6202   7.001   2.637   0.232 -0.4980 -0.6403 -0.1917
   15CHTO   H71 6203   6.950   2.593   0.297  0.0424 -0.2285  0.5104
   15CHTO   O28 6204   6.643   3.023   0.306  0.2724  0.2209  0.0203
   15CHTO   C42 6205   6.654   3.142   0.230  0.3793  0.0738 -0.4766
   15CHTO   H84 6206   6.605   3.114   0.137 -0.9011  0.5213  0.0494
   15CHTO   C44 6207   6.798   3.199   0.188  0.4103 -0.3416  0.4615
   15CHTO   H86 6208   6.852   3.228   0.278  0.0741 -1.0692  0.9016
   15CHTO   O32 6209   6.867   3.101   0.107 -0.3224  0.0625  0.3804
   15CHTO   H69 6210   6.959   3.117   0.098 -0.7985  0.7470 -5.0654
   15CHTO   C48 6211   6.782   3.336   0.104 -0.3339  0.4842 -0.3331
   15CHTO   H90 6212   6.732   3.320   0.008 -0.1810  1.6681 -0.6124
   15CHTO    N9 6213   6.913   3.388   0.053  0.1981 -0.0774  0.1430
   15CHTO   H77 6214   6.977   3.308   0.019  1.8684  0.0096  2.8979
   15CHTO   H78 6215   6.971   3.449   0.122  1.2408 -0.8935 -0.0074
   15CHTO   C51 6216   6.695   3.444   0.178  0.1115 -0.0312 -0.4806
   15CHTO   H93 6217   6.740   3.465   0.275  0.1583 -1.4335 -0.1770
   15CHTO   O30 6218   6.562   3.390   0.194 -0.0462  0.4783 -0.3100
   15CHTO   C46 6219   6.566   3.261   0.298  0.4059 -0.2860  0.4334
   15CHTO   H88 6220   6.611   3.281   0.395  2.0079  0.5845 -0.4683
   15CHTO   C53 6221   6.417   3.216   0.320  0.0831 -0.7327  0.1443
   15CHTO   O72 6222   6.346   3.180   0.203  0.1406 -0.1956  0.2836
   15CHTO  H199 6223   6.256   3.161   0.218  0.8727 -2.4168  2.1046
   15CHTO   O22 6224   6.664   3.559   0.101  0.2571 -0.6914  0.3146
   15CHTO   C31 6225   6.596   3.682   0.139 -0.1727 -0.3902 -0.5934
   15CHTO   H59 6226   6.615   3.754   0.056  0.8183 -1.9292 -1.7279
   15CHTO   C29 6227   6.445   3.679   0.158 -0.2637  0.1777 -0.0310
   15CHTO   H57 6228   6.419   3.609   0.239  0.8847 -0.6825 -0.3866
   15CHTO   O21 6229   6.384   3.615   0.049  0.3630  0.7413  0.3568
   15CHTO   H37 6230   6.417   3.644  -0.035  0.3763  1.8332  0.7299
   15CHTO   C27 6231   6.378   3.818   0.197 -0.2878  0.0281  0.7576
   15CHTO   H55 6232   6.401   3.891   0.117  0.0273  0.9845  1.7150
   15CHTO    N5 6233   6.235   3.813   0.204  0.1223 -0.8316  0.2416
   15CHTO   H43 6234   6.199   3.914   0.215  1.9257 -0.1572  0.2098
   15CHTO   H44 6235   6.185   3.786   0.112 -1.3306 -1.2186  1.1323
   15CHTO   C25 6236   6.451   3.873   0.319  0.5086  0.5124  0.3183
   15CHTO   H53 6237   6.438   3.802   0.401 -1.3235  0.8305  0.3234
   15CHTO   O17 6238   6.589   3.873   0.297 -0.5321  0.2587  0.1154
   15CHTO   C32 6239   6.651   3.749   0.272  0.2381  0.2872 -0.0141
   15CHTO   H60 6240   6.642   3.682   0.357 -1.3444  1.3859  0.6943
   15CHTO   C36 6241   6.797   3.772   0.249  0.3145 -0.6733 -0.6574
   15CHTO   O25 6242   6.862   3.868   0.333 -0.5994 -0.0075  0.3228
   15CHTO   H40 6243   6.952   3.846   0.350  0.9120  3.8387 -1.9794
   15CHTO   O15 6244   6.394   4.029   0.351  0.0461  0.2201  0.2409
   15CHTO   C19 6245   6.404   4.149   0.435  0.3680 -0.7302 -0.6809
   15CHTO   H47 6246   6.489   4.208   0.398  0.6654 -0.2376  0.7439
   15CHTO   C20 6247   6.267   4.231   0.424  0.0829 -0.0499 -0.1390
   15CHTO   H48 6248   6.181   4.166   0.443 -0.3031  0.5688  0.2503
   15CHTO   O19 6249   6.259   4.270   0.285  0.5680 -0.3046  0.1220
   15CHTO   H35 6250   6.168   4.261   0.262  0.2393  0.7777  0.9261
   15CHTO   C21 6251   6.266   4.364   0.517 -0.1069  0.5777 -0.4330
   15CHTO   H49 6252   6.349   4.427   0.485  1.8224 -0.1879  2.8139
   15CHTO    N4 6253   6.135   4.430   0.495  0.0766 -1.2293  0.1010
   15CHTO   H41 6254   6.097   4.460   0.592  2.2245 -1.4563  1.0431
   15CHTO   H42 6255   6.070   4.357   0.449  2.0183 -2.3448 -0.9448
   15CHTO   C22 6256   6.295   4.309   0.667  0.9777 -0.3197 -0.0390
   15CHTO   H50 6257   6.224   4.228   0.685  0.3731  0.2447  0.1410
   15CHTO   O14 6258   6.425   4.251   0.660 -0.4025 -0.2825 -0.0808
   15CHTO   C23 6259   6.434   4.128   0.584 -0.1485 -0.1547 -0.0084
   15CHTO   H51 6260   6.362   4.056   0.627 -1.1305 -0.1002 -1.5133
   15CHTO   C34 6261   6.570   4.062   0.600  0.2018 -0.0227  0.2123
   15CHTO   O23 6262   6.614   4.027   0.733 -0.0553 -0.3741  0.8249
   15CHTO   H38 6263   6.676   3.957   0.726 -0.5294 -0.6517 -0.8365
   15CHTO   O16 6264   6.290   4.416   0.766 -0.1282  0.4247 -0.1169
   15CHTO   C24 6265   6.423   4.417   0.876 -0.0789  0.5880 -0.2642
   15CHTO   H52 6266   6.518   4.415   0.822 -0.5023  1.7241 -1.0602
   15CHTO   C26 6267   6.401   4.311   0.987 -0.0605 -0.3110 -0.2202
   15CHTO   H54 6268   6.303   4.333   1.033 -0.2579 -0.7187 -0.4518
   15CHTO   O20 6269   6.392   4.183   0.934 -0.0784  0.0619  0.5918
   15CHTO   H36 6270   6.350   4.126   0.995  1.1873 -3.4973 -1.6952
   15CHTO   C30 6271   6.517   4.319   1.088 -0.7008 -0.4478 -0.4930
   15CHTO   H58 6272   6.612   4.319   1.034  0.3375 -1.4689  1.2829
   15CHTO    N6 6273   6.513   4.213   1.189  0.4064  0.0906  0.1906
   15CHTO   H45 6274   6.608   4.162   1.191  0.1441 -0.3781  2.3373
   15CHTO   H46 6275   6.431   4.142   1.183 -0.5442  1.2324 -0.5981
   15CHTO   C33 6276   6.504   4.463   1.148 -0.1692  0.4039 -1.0572
   15CHTO   H61 6277   6.400   4.475   1.181 -0.2696  0.1080 -1.2691
   15CHTO   O18 6278   6.514   4.563   1.044  0.1869 -0.2793  0.2667
   15CHTO   C28 6279   6.417   4.553   0.939 -0.5160  0.1930  0.7141
   15CHTO   H56 6280   6.320   4.567   0.986 -0.9687 -0.6025  0.0253
   15CHTO   C35 6281   6.441   4.668   0.838  0.6389 -0.1579  0.4071
   15CHTO   O24 6282   6.563   4.650   0.768 -0.7112  0.1125 -0.0108
   15CHTO   H39 6283   6.631   4.603   0.814 -1.6689 -0.5605  0.7443
   15CHTO    O9 6284   6.594   4.490   1.263  0.0930 -0.3443  0.3304
   15CHTO   C13 6285   6.729   4.574   1.225 -0.1197  0.3249  0.0360
   15CHTO   H26 6286   6.695   4.676   1.200  0.3525  0.2240 -1.0301
   15CHTO   C11 6287   6.820   4.505   1.108 -0.4020  0.4800 -0.0751
   15CHTO   H24 6288   6.760   4.499   1.016  2.4559  3.6318 -2.2865
   15CHTO    O8 6289   6.868   4.368   1.133 -0.1777  0.5775  0.0290
   15CHTO    H3 6290   6.861   4.324   1.050  0.3131  1.5947 -0.5620
   15CHTO    C9 6291   6.936   4.598   1.077 -0.6514  0.0149 -0.2813
   15CHTO   H22 6292   6.891   4.697   1.060  0.7652  0.5019 -1.3058
   15CHTO    N2 6293   7.002   4.582   0.943  0.1993 -0.2205  0.0073
   15CHTO   H10 6294   7.106   4.609   0.953  0.4126 -1.0948  0.1304
   15CHTO   H11 6295   6.993   4.485   0.897 -0.4441 -0.0808 -0.1693
   15CHTO    C7 6296   7.024   4.601   1.206 -0.2241  0.2857  0.2824
   15CHTO   H20 6297   7.084   4.691   1.186 -1.1546  1.0048  0.6950
   15CHTO    O4 6298   6.950   4.640   1.323 -0.0325  0.0189 -0.1793
   15CHTO   C14 6299   6.816   4.592   1.353  0.2225  0.2777 -0.5353
   15CHTO   H27 6300   6.776   4.672   1.418 -0.4953 -1.0159  0.6358
   15CHTO   C18 6301   6.832   4.469   1.444  0.0565 -0.0789  0.1429
   15CHTO   O13 6302   6.889   4.494   1.571 -0.2602 -0.3640 -0.4134
   15CHTO    H7 6303   6.976   4.458   1.570  0.2551  0.6767  2.4124
   15CHTO    O2 6304   7.111   4.472   1.230  0.2650  0.0991  0.1362
   15CHTO    C1 6305   7.178   4.458   1.356 -0.8702  0.1474 -0.0613
   15CHTO   H14 6306   7.113   4.499   1.436  1.8803  0.3219  2.1703
   15CHTO    C2 6307   7.311   4.544   1.365  0.4938  1.2935 -0.4362
   15CHTO   H15 6308   7.367   4.510   1.277 -2.1480 -1.7931 -1.0447
   15CHTO    O6 6309   7.276   4.683   1.356  0.3797 -0.2935  0.0091
   15CHTO    H1 6310   7.250   4.714   1.441  1.5886  0.0073  0.2791
   15CHTO    C3 6311   7.386   4.515   1.502  0.6825  0.5098 -0.3735
   15CHTO   H16 6312   7.312   4.554   1.574 -0.1582  0.4975 -1.2170
   15CHTO    N1 6313   7.518   4.584   1.516 -0.3661  0.4407 -0.2044
   15CHTO    H8 6314   7.534   4.662   1.442 -0.7391 -0.3116 -1.0870
   15CHTO    H9 6315   7.527   4.634   1.611 -0.7150  0.7114 -0.3091
   15CHTO    C4 6316   7.400   4.364   1.532 -0.2211 -0.5244  0.2717
   15CHTO   H17 6317   7.484   4.328   1.473 -0.5537 -1.4535  0.3629
   15CHTO    O1 6318   7.278   4.294   1.512 -0.8916  0.3059 -0.7440
   15CHTO    C5 6319   7.222   4.314   1.379 -0.0178 -1.4538  0.0728
   15CHTO   H18 6320   7.288   4.293   1.295 -0.1245 -2.6726  0.2858
   15CHTO   C16 6321   7.100   4.228   1.366  0.0156 -0.0461 -0.2754
   15CHTO   O11 6322   7.138   4.090   1.359 -0.5343  0.3536  0.1191
   15CHTO    H5 6323   7.122   4.063   1.270 -0.5861 -2.2044  0.8811
   15CHTO    O3 6324   7.421   4.339   1.672  0.1967  0.2037 -0.1465
   15CHTO    C6 6325   7.513   4.232   1.708 -0.2550  1.0920  0.3842
   15CHTO   H19 6326   7.536   4.171   1.620  0.4226  1.7296  0.1117
   15CHTO    C8 6327   7.647   4.295   1.770 -0.8564 -0.5791 -0.0349
   15CHTO   H21 6328   7.619   4.369   1.845  1.4220  0.3887 -0.1044
   15CHTO    O7 6329   7.711   4.354   1.658  0.4394  0.1467  0.2179
   15CHTO    H2 6330   7.779   4.410   1.689 -0.2893  0.0444  2.0833
   15CHTO   C12 6331   7.737   4.183   1.836  0.7584 -0.3777  0.2012
   15CHTO   H25 6332   7.784   4.129   1.751  0.9519  0.0670  0.0255
   15CHTO    N3 6333   7.863   4.237   1.895 -0.3490 -0.2717  0.0038
   15CHTO   H12 6334   7.922   4.161   1.945  0.0001 -0.2323 -0.3451
   15CHTO   H13 6335   7.857   4.332   1.947 -1.9746 -0.8430  0.8789
   15CHTO   C15 6336   7.648   4.090   1.933 -0.4120 -0.8374 -0.5043
   15CHTO   H28 6337   7.610   4.136   2.023  0.4860 -1.5982  0.2776
   15CHTO   O10 6338   7.710   3.962   1.951 -0.5053 -0.4426  0.6365
   15CHTO    H4 6339   7.773   3.953   2.020 -1.1525 -0.5800  1.2145
   15CHTO    O5 6340   7.537   4.037   1.857  0.0229  0.0235  0.0101
   15CHTO   C10 6341   7.449   4.137   1.814 -0.0744  0.8050  0.3264
   15CHTO   H23 6342   7.430   4.205   1.897  1.1492  0.0228  1.2654
   15CHTO   C17 6343   7.319   4.069   1.762  0.4218 -0.3073 -0.0175
   15CHTO   O12 6344   7.240   4.026   1.872  0.1994 -0.3814 -0.7353
   15CHTO    H6 6345   7.213   4.093   1.932 -1.5325 -1.4642 -0.2739
   16CHTO  H203 6346   5.606   4.745   0.504  1.0665  0.2558 -1.8267
   16CHTO   O82 6347   5.605   4.652   0.491 -0.0616  0.0149 -0.2273
   16CHTO  C123 6348   5.628   4.569   0.601  0.1417  0.0887 -0.1833
   16CHTO  H227 6349   5.548   4.580   0.675  0.6471  0.0344  0.3724
   16CHTO   O77 6350   5.629   4.437   0.543  0.2431 -0.2064 -0.1413
   16CHTO  C118 6351   5.653   4.332   0.642  0.5790 -0.3229  0.5960
   16CHTO  H222 6352   5.577   4.340   0.722  0.3505  0.5441  0.2993
   16CHTO  C125 6353   5.639   4.196   0.568 -0.1482  0.2169  0.5572
   16CHTO   O84 6354   5.748   4.177   0.478  0.1686 -0.5768  0.6989
   16CHTO  H205 6355   5.748   4.091   0.440  0.1820 -0.2794  0.0126
   16CHTO  C114 6356   5.788   4.353   0.714 -0.0551  0.7329 -0.3860
   16CHTO  H218 6357   5.872   4.339   0.647  0.6278  0.2940  0.5523
   16CHTO  C116 6358   5.802   4.488   0.778 -0.0141  0.1887 -0.2242
   16CHTO  H220 6359   5.727   4.499   0.859  0.0747 -1.6760  0.1255
   16CHTO   O79 6360   5.931   4.501   0.842 -0.0738  0.4340  0.1070
   16CHTO  H201 6361   5.999   4.538   0.789 -0.3047  0.2998 -0.2844
   16CHTO  C120 6362   5.773   4.596   0.664  0.0561 -0.1448 -0.2072
   16CHTO  H224 6363   5.854   4.589   0.589  0.9008  1.3538  0.5376
   16CHTO   N21 6364   5.798   4.735   0.712 -0.5201 -0.3133 -0.1773
   16CHTO  H211 6365   5.828   4.812   0.641 -0.6947  1.9727  2.1536
   16CHTO  H212 6366   5.864   4.741   0.798 -0.8440  2.8437 -0.0737
   16CHTO   O75 6367   5.797   4.241   0.801 -0.4608  0.5993 -0.5586
   16CHTO  C112 6368   5.938   4.165   0.790 -0.1671  0.2936 -0.0192
   16CHTO  H216 6369   6.011   4.240   0.757 -1.3541  1.2151 -0.5860
   16CHTO   O73 6370   5.914   4.063   0.689 -0.2431 -0.1436 -0.4605
   16CHTO  C113 6371   6.030   3.980   0.665 -0.5910 -0.6821 -0.1244
   16CHTO  H217 6372   6.098   4.046   0.608  2.6723 -0.7606  3.4647
   16CHTO  C124 6373   6.000   3.862   0.565  0.7729 -1.0248 -0.2653
   16CHTO   O83 6374   5.904   3.899   0.463 -0.4771  1.0848  0.1587
   16CHTO  H204 6375   5.852   3.973   0.491 -3.0349 -0.3056 -0.7409
   16CHTO  C109 6376   6.096   3.918   0.791  0.1117 -0.2088  0.1671
   16CHTO  H213 6377   6.045   3.822   0.811 -0.7401 -0.2764 -2.1619
   16CHTO  C110 6378   6.093   4.015   0.916  0.1954  0.1474  0.0126
   16CHTO  H214 6379   6.173   4.083   0.889 -0.4945  0.9122 -0.1348
   16CHTO   O78 6380   6.115   3.938   1.038 -0.4461  0.2735  0.4746
   16CHTO  H200 6381   6.047   3.877   1.058  0.0693 -0.1442  0.9895
   16CHTO  C111 6382   5.961   4.098   0.925  0.1637  0.2214 -0.3306
   16CHTO  H215 6383   5.874   4.034   0.946 -0.5155  0.5737 -1.9462
   16CHTO   N19 6384   5.966   4.199   1.037 -0.6818  0.3313  0.3619
   16CHTO  H207 6385   6.069   4.218   1.062 -1.1732  1.9430  1.1760
   16CHTO  H208 6386   5.923   4.291   1.001  1.1482  1.2078  0.3970
   16CHTO   O74 6387   6.233   3.888   0.768  0.1272 -0.3813 -0.5580
   16CHTO  C115 6388   6.281   3.740   0.837  0.1728  0.5244  0.4630
   16CHTO  H219 6389   6.224   3.722   0.928 -0.9520  4.4295  0.6424
   16CHTO   O76 6390   6.253   3.619   0.745 -0.1733  0.0024  0.1062
   16CHTO  C122 6391   6.321   3.642   0.618 -0.4917 -0.2660 -0.3629
   16CHTO  H226 6392   6.299   3.745   0.592 -1.6052 -0.5598 -0.6049
   16CHTO  C126 6393   6.278   3.554   0.500 -0.0804  0.3198 -0.6295
   16CHTO   O85 6394   6.143   3.584   0.463  0.1548 -0.2374  0.3732
   16CHTO  H206 6395   6.085   3.578   0.537 -0.6491 -3.2792 -0.4506
   16CHTO  C121 6396   6.475   3.617   0.655 -0.0180  0.7210  0.1380
   16CHTO  H225 6397   6.499   3.516   0.616  0.2627  1.1046 -0.6846
   16CHTO   O81 6398   6.554   3.712   0.585 -0.2081 -0.4133  0.9290
   16CHTO  H202 6399   6.535   3.800   0.609  0.5232  0.0911 -0.3039
   16CHTO  C119 6400   6.504   3.616   0.807 -0.4008 -0.1580 -0.3980
   16CHTO  H223 6401   6.457   3.527   0.849 -1.3168  0.7402  0.5049
   16CHTO  C117 6402   6.437   3.741   0.875 -0.0522  0.3694 -0.6825
   16CHTO  H221 6403   6.476   3.837   0.840 -0.7403  0.6193 -0.7886
   16CHTO   N20 6404   6.459   3.736   1.023  0.8164 -0.2086 -0.3236
   16CHTO  H209 6405   6.426   3.830   1.064  1.5641 -0.5115  1.0180
   16CHTO  H210 6406   6.561   3.726   1.059  0.9857 -2.7161 -1.3681
   16CHTO   O80 6407   6.655   3.588   0.838  0.4686  0.3323  0.6347
   16CHTO  C103 6408   6.718   3.429   0.795  0.9565  0.2705 -0.0775
   16CHTO  H190 6409   6.638   3.377   0.743  0.8204  0.6026 -0.2006
   16CHTO  C101 6410   6.846   3.420   0.707  0.4347 -0.3944 -0.4009
   16CHTO  H188 6411   6.931   3.473   0.749  0.5238 -1.0139  0.2076
   16CHTO   O68 6412   6.816   3.496   0.554 -0.3935  0.9081 -0.3153
   16CHTO  H168 6413   6.898   3.510   0.510 -0.3630  1.4964 -0.0778
   16CHTO   C99 6414   6.883   3.265   0.695  0.6739 -0.6761 -1.0153
   16CHTO  H186 6415   6.806   3.209   0.638 -0.6021 -0.1922  0.2014
   16CHTO   N17 6416   7.006   3.252   0.619  0.6058  0.5124  0.2316
   16CHTO  H174 6417   7.002   3.195   0.528 -0.4390 -2.3256  2.0189
   16CHTO  H175 6418   7.069   3.341   0.619  1.4574 -0.0800  0.9445
   16CHTO   C97 6419   6.894   3.186   0.826  0.0855  0.0584  0.0831
   16CHTO  H184 6420   6.986   3.216   0.879 -0.1829 -0.1300  0.6551
   16CHTO   O64 6421   6.777   3.212   0.902  0.1131  0.1524 -0.1735
   16CHTO  C104 6422   6.744   3.349   0.930  0.6569  0.3921  0.0746
   16CHTO  H191 6423   6.829   3.395   0.980  0.4047 -0.2772  1.1370
   16CHTO  C108 6424   6.630   3.370   1.033  0.0530 -0.3061  0.2581
   16CHTO   O71 6425   6.662   3.312   1.154 -0.0076  0.3197  0.0871
   16CHTO  H171 6426   6.591   3.289   1.211  1.1261 -0.5143  1.2013
   16CHTO   O62 6427   6.897   3.042   0.796 -0.0439 -0.2280 -0.6213
   16CHTO   C91 6428   6.925   2.969   0.914 -0.0215  0.4170 -0.1707
   16CHTO  H178 6429   6.916   3.022   1.008  1.7224  2.4656 -1.1155
   16CHTO   C92 6430   7.069   2.920   0.912 -0.5377 -0.0650 -0.4067
   16CHTO  H179 6431   7.082   2.863   0.819 -2.8410 -1.0338 -0.1822
   16CHTO   O66 6432   7.158   3.036   0.905 -0.5190  0.6814  0.1192
   16CHTO  H166 6433   7.136   3.090   0.832  1.4459  1.5872  0.1530
   16CHTO   C93 6434   7.114   2.832   1.037  0.3183 -0.8342 -0.1496
   16CHTO  H180 6435   7.129   2.907   1.116  0.2180  0.0229 -0.9301
   16CHTO   N16 6436   7.244   2.767   1.017 -0.0000 -0.2387  0.2550
   16CHTO  H172 6437   7.321   2.840   1.000  1.0732 -1.1217  1.1986
   16CHTO  H173 6438   7.276   2.707   1.101  0.3348  0.2517  0.4778
   16CHTO   C94 6439   7.004   2.725   1.075  0.4277 -0.5364 -0.0382
   16CHTO  H181 6440   7.003   2.640   1.007 -0.6392  1.3035 -2.3815
   16CHTO   O61 6441   6.871   2.784   1.065  0.4904  0.1321 -0.4294
   16CHTO   C95 6442   6.829   2.843   0.941  0.1306 -0.4015 -0.3784
   16CHTO  H182 6443   6.830   2.765   0.865 -1.7375 -1.0350  0.2015
   16CHTO  C106 6444   6.680   2.894   0.964  0.5072  0.6674  0.6005
   16CHTO   O69 6445   6.594   2.792   1.008 -0.3998 -0.4435 -0.8576
   16CHTO  H169 6446   6.600   2.795   1.101 -0.0101  0.6420 -0.9045
   16CHTO   O63 6447   7.034   2.672   1.249  0.3324 -0.2407  0.5806
   16CHTO   C96 6448   6.891   2.612   1.333  0.0215 -0.0873  0.2789
   16CHTO  H183 6449   6.932   2.544   1.407 -0.4218 -2.6790 -1.7995
   16CHTO   C98 6450   6.792   2.525   1.254  0.1495 -0.4280  0.1803
   16CHTO  H185 6451   6.779   2.567   1.154  1.4472 -0.0326  0.1732
   16CHTO   O67 6452   6.848   2.391   1.231  0.2476 -0.3643  0.5980
   16CHTO  H167 6453   6.941   2.400   1.222  0.2382 -0.5822  0.3052
   16CHTO  C102 6454   6.645   2.518   1.312 -1.0304  0.2058 -0.1858
   16CHTO  H189 6455   6.650   2.474   1.412 -0.6172 -2.3262 -1.2970
   16CHTO   N18 6456   6.551   2.441   1.235  0.3338 -0.5841 -0.7165
   16CHTO  H176 6457   6.498   2.498   1.160 -0.6330 -1.1107 -0.4312
   16CHTO  H177 6458   6.603   2.358   1.189  1.2719 -0.9707  0.9884
   16CHTO  C105 6459   6.603   2.667   1.346 -0.1000  0.2229 -0.4496
   16CHTO  H192 6460   6.618   2.722   1.254 -0.0085  2.1548  0.6947
   16CHTO   O65 6461   6.687   2.722   1.449  0.0285 -0.1447 -0.0396
   16CHTO  C100 6462   6.822   2.741   1.398  0.2189 -0.3118 -0.0944
   16CHTO  H187 6463   6.819   2.822   1.324 -0.8615  0.4099  0.7321
   16CHTO  C107 6464   6.918   2.788   1.514 -0.1522  1.0197  0.0113
   16CHTO   O70 6465   6.859   2.896   1.588 -0.2959  0.2219 -0.2826
   16CHTO  H170 6466   6.825   2.960   1.529 -0.0897  1.3057  0.7644
   16CHTO   O57 6467   6.441   2.667   1.385 -0.1864 -0.1522 -0.1361
   16CHTO   C85 6468   6.360   2.733   1.290  0.4361  0.1690 -0.4102
   16CHTO  H157 6469   6.395   2.704   1.189  1.2883 -1.3605  0.3036
   16CHTO   C83 6470   6.393   2.884   1.296  0.4879 -1.2081  0.2031
   16CHTO  H155 6471   6.495   2.901   1.259  0.6288 -0.0461  1.0961
   16CHTO   O56 6472   6.393   2.927   1.429  0.5890  0.7112 -0.5114
   16CHTO  H135 6473   6.412   3.018   1.440  0.2429  0.8036 -0.7023
   16CHTO   C81 6474   6.297   2.955   1.198  0.2370 -0.1813 -0.8819
   16CHTO  H153 6475   6.315   2.910   1.100  1.2350 -0.7340 -0.4399
   16CHTO   N14 6476   6.345   3.092   1.171  0.3101 -0.6069 -0.4225
   16CHTO  H141 6477   6.333   3.159   1.254  1.2131 -0.3753 -0.4760
   16CHTO  H142 6478   6.449   3.093   1.147  0.8984 -0.3983  1.9890
   16CHTO   C79 6479   6.149   2.927   1.249  0.5830 -0.3709 -0.1568
   16CHTO  H151 6480   6.082   2.975   1.178  0.7069  0.1849  0.1042
   16CHTO   O52 6481   6.118   2.785   1.240  0.5585  0.9895  0.1033
   16CHTO   C86 6482   6.208   2.696   1.308  0.6438 -1.1673  0.1218
   16CHTO  H158 6483   6.178   2.705   1.414  2.5954  1.0141  0.5259
   16CHTO   C90 6484   6.182   2.555   1.275  0.6527 -0.6189  0.3836
   16CHTO   O60 6485   6.049   2.521   1.309  0.7872  0.0691 -0.4546
   16CHTO  H138 6486   5.986   2.588   1.291  1.8341  0.8901 -1.1552
   16CHTO   O50 6487   6.122   2.975   1.380 -0.1549 -0.0216 -0.2723
   16CHTO   C73 6488   6.006   2.955   1.463 -0.4887  0.3436  0.2088
   16CHTO  H145 6489   5.986   2.848   1.479 -1.0383 -0.1876 -3.5629
   16CHTO   C74 6490   5.874   3.003   1.394 -0.2031 -0.3008  0.0933
   16CHTO  H146 6491   5.877   2.944   1.301 -1.3136 -1.0122  0.5045
   16CHTO   O54 6492   5.759   2.971   1.475 -1.1070 -0.7900 -0.4796
   16CHTO  H133 6493   5.680   3.017   1.454 -0.3791 -0.3871 -2.3619
   16CHTO   C75 6494   5.883   3.153   1.365  0.3086  0.2802  0.2167
   16CHTO  H147 6495   5.967   3.179   1.299  1.0724 -0.6212  0.8162
   16CHTO   N13 6496   5.774   3.211   1.282  0.1857  0.2789  0.7416
   16CHTO  H139 6497   5.789   3.318   1.277 -0.0427  0.2615 -0.4518
   16CHTO  H140 6498   5.776   3.171   1.182 -0.6577 -2.9510  1.9536
   16CHTO   C76 6499   5.895   3.217   1.507  0.4098 -0.3375  0.0613
   16CHTO  H148 6500   5.800   3.199   1.558  0.5623 -0.4643  0.3059
   16CHTO   O49 6501   6.006   3.168   1.589  0.1255  0.8269 -0.1351
   16CHTO   C77 6502   6.028   3.022   1.598  0.4014 -0.4428  0.0930
   16CHTO  H149 6503   5.948   2.992   1.666 -1.6514  1.0473 -1.5593
   16CHTO   C88 6504   6.161   2.992   1.669 -0.0751  0.3423 -0.2818
   16CHTO   O58 6505   6.181   3.080   1.790  0.5341 -0.1025  0.3504
   16CHTO  H136 6506   6.110   3.081   1.851  0.4467 -0.7118  0.2627
   16CHTO   O51 6507   5.926   3.380   1.503 -0.1643 -0.1286 -0.2122
   16CHTO   C78 6508   5.842   3.466   1.601  0.0252  0.2950 -0.6674
   16CHTO  H150 6509   5.781   3.402   1.668 -0.1443  0.2955 -0.8251
   16CHTO   C80 6510   5.748   3.567   1.526  0.1757 -0.2117  0.3162
   16CHTO  H152 6511   5.814   3.633   1.466  0.6083 -0.2918  0.7035
   16CHTO   O55 6512   5.661   3.496   1.434 -0.2664  0.3710 -0.2526
   16CHTO  H134 6513   5.710   3.430   1.389  2.9196  1.5745  1.3157
   16CHTO   C84 6514   5.684   3.663   1.623  0.3757  0.1794  0.1841
   16CHTO  H156 6515   5.620   3.604   1.688  0.2570  0.9938  0.8181
   16CHTO   N15 6516   5.581   3.758   1.561  0.1965 -0.1621 -0.0148
   16CHTO  H143 6517   5.631   3.843   1.521  0.3868 -1.0330 -1.6979
   16CHTO  H144 6518   5.534   3.713   1.476 -0.5731  1.1506 -0.2978
   16CHTO   C87 6519   5.779   3.733   1.723  0.3645 -0.2645  0.6803
   16CHTO  H159 6520   5.833   3.796   1.653  0.1359  0.4324  1.1270
   16CHTO   O53 6521   5.872   3.615   1.793 -0.3729  0.0197  0.2508
   16CHTO   C82 6522   5.943   3.548   1.686  0.3134 -0.2440 -0.4118
   16CHTO  H154 6523   6.006   3.619   1.631  3.2705  0.0032  3.0957
   16CHTO   C89 6524   6.039   3.449   1.757  0.2299  0.7643 -0.4167
   16CHTO   O59 6525   6.172   3.509   1.752  0.0674  0.6112  0.3719
   16CHTO  H137 6526   6.239   3.469   1.701 -0.2747  0.3936  0.0929
   16CHTO   O45 6527   5.730   3.808   1.836  0.0643 -0.2514 -0.5124
   16CHTO   C67 6528   5.833   3.887   1.899  0.5723  0.1374 -1.1774
   16CHTO  H124 6529   5.932   3.859   1.866  1.0472  0.9883 -0.4892
   16CHTO   C65 6530   5.811   4.040   1.860 -0.2347 -0.0078  0.2479
   16CHTO  H122 6531   5.702   4.044   1.848 -0.6147 -3.5320  1.8742
   16CHTO   O44 6532   5.881   4.059   1.733  0.4800  0.1562 -0.3128
   16CHTO  H102 6533   5.841   4.010   1.664  0.0532  0.3346 -0.1910
   16CHTO   C63 6534   5.849   4.138   1.975  0.0302  0.2501  0.0119
   16CHTO  H120 6535   5.776   4.133   2.056 -1.7485  0.7936 -1.5064
   16CHTO   N11 6536   5.870   4.284   1.942  0.0257 -0.1431 -0.0139
   16CHTO  H108 6537   5.786   4.317   1.885 -0.6478  0.8676  1.5216
   16CHTO  H109 6538   5.856   4.331   2.037 -0.6632  0.5623 -0.4604
   16CHTO   C61 6539   5.969   4.072   2.060  0.4182  0.3072  0.6488
   16CHTO  H118 6540   5.989   4.141   2.143  0.8826 -0.3885  1.1193
   16CHTO   O40 6541   5.933   3.937   2.121  0.4578 -0.3357 -0.3735
   16CHTO   C68 6542   5.830   3.862   2.053  0.0233  0.5459  0.5453
   16CHTO  H125 6543   5.729   3.899   2.078  0.6073  0.4321  3.2947
   16CHTO   C72 6544   5.838   3.712   2.102 -0.1844  0.4324 -0.4047
   16CHTO   O48 6545   5.712   3.648   2.078 -0.4447  0.5619 -0.2435
   16CHTO  H105 6546   5.636   3.691   2.112 -2.1856 -1.4725 -1.5307
   16CHTO   O38 6547   6.088   4.070   1.981  0.1445 -0.1253  0.6260
   16CHTO   C55 6548   6.209   4.013   2.036  0.6678  0.0582  0.1146
   16CHTO  H112 6549   6.191   3.933   2.109 -4.3365 -1.2778 -2.3903
   16CHTO   C56 6550   6.308   4.122   2.091  0.2108 -0.4967 -0.8789
   16CHTO  H113 6551   6.304   4.194   2.008 -1.9569  1.8248  1.1778
   16CHTO   O42 6552   6.272   4.192   2.212  0.6396  0.2987 -0.0103
   16CHTO  H100 6553   6.263   4.133   2.285 -0.6706  0.9636  0.3941
   16CHTO   C57 6554   6.453   4.079   2.110  0.0417  0.4414  0.1071
   16CHTO  H114 6555   6.450   4.010   2.194  0.2908  0.8680  0.4678
   16CHTO   N10 6556   6.552   4.186   2.155 -0.2200 -0.8351 -0.1183
   16CHTO  H106 6557   6.503   4.279   2.131  0.7297 -0.6043 -1.1767
   16CHTO  H107 6558   6.569   4.183   2.262 -1.9087  3.2347  0.3314
   16CHTO   C58 6559   6.504   4.004   1.985 -0.0634 -0.0964  0.4661
   16CHTO  H115 6560   6.520   4.079   1.904  0.9460 -1.9820 -1.1355
   16CHTO   O37 6561   6.413   3.908   1.945  0.0741  0.0603  0.4696
   16CHTO   C59 6562   6.282   3.948   1.915 -0.2163  0.2344  0.3333
   16CHTO  H116 6563   6.283   4.019   1.832 -2.0127  1.6514  1.4894
   16CHTO   C70 6564   6.208   3.825   1.864 -0.2864  0.0227 -0.6011
   16CHTO   O46 6565   6.259   3.780   1.737  0.3017  0.4561 -1.0624
   16CHTO  H103 6566   6.202   3.797   1.664  1.8188 -0.0929 -2.4088
   16CHTO   O39 6567   6.644   3.927   2.025 -0.0641  0.8189 -0.0851
   16CHTO   C60 6568   6.724   3.912   1.907  0.0032  0.0463  0.2872
   16CHTO  H117 6569   6.651   3.904   1.826 -0.5598  1.0572  0.6868
   16CHTO   C62 6570   6.808   4.035   1.879  0.8033 -0.5468 -0.3293
   16CHTO  H119 6571   6.741   4.124   1.885 -0.7863 -1.7103 -0.4323
   16CHTO   O43 6572   6.908   4.043   1.990  0.6735  0.1199  0.5908
   16CHTO  H101 6573   6.992   4.005   1.970  0.3059 -0.9261  0.9782
   16CHTO   C66 6574   6.870   4.032   1.732 -0.2123 -0.9292  0.0787
   16CHTO  H123 6575   6.791   4.028   1.657  0.8936 -1.4213 -1.0831
   16CHTO   N12 6576   6.943   4.158   1.696  0.6626 -0.9050  0.4222
   16CHTO  H110 6577   7.032   4.145   1.635  0.4410  0.5586 -0.2140
   16CHTO  H111 6578   6.877   4.233   1.656  0.3873 -2.4268 -2.0967
   16CHTO   C69 6579   6.948   3.898   1.711 -0.9054 -0.3022  0.4322
   16CHTO  H126 6580   7.034   3.898   1.781 -1.2735 -3.0004  0.9301
   16CHTO   O41 6581   6.860   3.770   1.758  0.4846  0.2377 -0.1083
   16CHTO   C64 6582   6.801   3.780   1.904  0.0234  0.5788  0.3369
   16CHTO  H121 6583   6.876   3.773   1.987  1.4488 -1.3789 -1.0659
   16CHTO   C71 6584   6.704   3.662   1.919 -0.5421 -0.6942 -0.1673
   16CHTO   O47 6585   6.651   3.656   2.055  0.5304  0.4944 -0.1566
   16CHTO  H104 6586   6.699   3.590   2.100 -0.3767 -1.9097 -2.5495
   16CHTO   O34 6587   7.003   3.876   1.549 -0.4120  0.2260 -0.1095
   16CHTO   C49 6588   7.100   3.764   1.478 -0.0472 -0.3562 -0.8631
   16CHTO   H91 6589   7.180   3.806   1.416  1.6813  1.5912  2.5546
   16CHTO   C47 6590   7.011   3.672   1.395 -0.5246  0.0384 -0.7118
   16CHTO   H89 6591   7.080   3.609   1.336 -0.4647 -0.5697 -0.0071
   16CHTO   O33 6592   6.935   3.753   1.308  0.2881 -0.2311  0.0582
   16CHTO   H70 6593   6.869   3.706   1.263 -0.0160 -1.4515  1.7332
   16CHTO   C45 6594   6.923   3.573   1.492  0.5375 -0.0292  0.3432
   16CHTO   H87 6595   6.862   3.646   1.547 -0.3574 -0.0231 -0.6477
   16CHTO    N8 6596   6.836   3.482   1.413  0.0764 -0.1437 -0.1303
   16CHTO   H75 6597   6.860   3.479   1.307  0.9134  0.8904  0.0163
   16CHTO   H76 6598   6.844   3.388   1.466  1.7057  0.3260  0.4911
   16CHTO   C43 6599   7.015   3.494   1.603 -0.5031  0.7772 -0.6410
   16CHTO   H85 6600   6.937   3.461   1.673  0.8855  0.3659  0.7405
   16CHTO   O29 6601   7.108   3.582   1.663 -0.3322 -0.6895 -0.4836
   16CHTO   C50 6602   7.186   3.682   1.585  1.5368 -0.0767  0.2113
   16CHTO   H92 6603   7.231   3.760   1.649  0.6529  0.8165 -0.2321
   16CHTO   C54 6604   7.315   3.614   1.520 -0.2794  0.3156 -0.3226
   16CHTO   O36 6605   7.396   3.542   1.625  0.5284  0.2536  0.2059
   16CHTO   H72 6606   7.455   3.600   1.670  0.5868 -0.6581  1.3343
   16CHTO   O27 6607   7.070   3.384   1.547  0.3220 -0.0040  0.0384
   16CHTO   C37 6608   7.161   3.273   1.589  0.9567 -0.4761 -1.2245
   16CHTO   H79 6609   7.265   3.309   1.580  0.4876  1.9311  2.0330
   16CHTO   C38 6610   7.135   3.239   1.741  0.4132  0.4926  0.7330
   16CHTO   H80 6611   7.027   3.221   1.749  0.2475  0.7382 -0.7710
   16CHTO   O31 6612   7.169   3.357   1.821  0.2707  0.1076  0.5259
   16CHTO   H68 6613   7.121   3.434   1.797  0.7996 -0.3382 -2.0380
   16CHTO   C39 6614   7.215   3.105   1.786  0.0193 -0.2721  0.2446
   16CHTO   H81 6615   7.314   3.150   1.797 -0.7787  1.3858  0.9012
   16CHTO    N7 6616   7.178   3.052   1.924  0.5795  0.0641 -0.2862
   16CHTO   H73 6617   7.123   2.960   1.917 -0.7381  0.9629 -2.0579
   16CHTO   H74 6618   7.267   3.022   1.979 -0.5570 -1.3707  0.8181
   16CHTO   C40 6619   7.204   2.990   1.679 -0.1451  0.2423 -0.3699
   16CHTO   H82 6620   7.106   2.943   1.687  0.2852 -0.3495  1.7391
   16CHTO   O26 6621   7.229   3.041   1.546 -0.8663 -0.5592  0.3417
   16CHTO   C41 6622   7.142   3.147   1.500 -0.2538  0.3027  0.4721
   16CHTO   H83 6623   7.041   3.105   1.514  0.6568 -1.3646  2.2125
   16CHTO   C52 6624   7.169   3.171   1.347 -0.1747 -0.3097 -0.0682
   16CHTO   O35 6625   7.311   3.208   1.326 -0.0892  0.3728  0.6667
   16CHTO   H71 6626   7.375   3.155   1.369  0.7007 -0.3969 -1.4056
   16CHTO   O28 6627   7.308   2.893   1.703 -0.5689  0.7191 -0.0040
   16CHTO   C42 6628   7.325   2.750   1.676 -0.1630  0.7191  0.1914
   16CHTO   H84 6629   7.424   2.735   1.719 -0.2450  1.4991  0.6582
   16CHTO   C44 6630   7.344   2.707   1.521  0.0066 -0.0129 -0.3750
   16CHTO   H86 6631   7.262   2.745   1.460 -0.8043 -0.5162  0.3962
   16CHTO   O32 6632   7.464   2.771   1.479 -0.3338 -0.7840 -0.1927
   16CHTO   H69 6633   7.466   2.865   1.482 -0.2316 -0.7301 -1.6736
   16CHTO   C48 6634   7.353   2.544   1.499 -0.2354  0.5680  0.0991
   16CHTO   H90 6635   7.449   2.509   1.535  0.3320  1.7633 -0.2130
   16CHTO    N9 6636   7.347   2.501   1.351 -0.1444 -0.2492  0.2461
   16CHTO   H77 6637   7.300   2.580   1.293  0.5490 -0.4812 -0.6245
   16CHTO   H78 6638   7.267   2.429   1.351 -0.4389  0.0046 -3.0072
   16CHTO   C51 6639   7.240   2.470   1.593  0.7989 -0.0900 -0.1286
   16CHTO   H93 6640   7.145   2.504   1.551 -0.8511 -0.5901  3.0818
   16CHTO   O30 6641   7.257   2.512   1.723  0.5081  0.4419  0.1525
   16CHTO   C46 6642   7.227   2.664   1.761  0.2842  0.4916  0.2721
   16CHTO   H88 6643   7.127   2.699   1.736  0.4136  0.2898 -0.5452
   16CHTO   C53 6644   7.250   2.684   1.912  0.0899 -0.0348 -0.4842
   16CHTO   O72 6645   7.132   2.649   1.987 -1.0265  0.1251 -0.1435
   16CHTO  H199 6646   7.057   2.699   1.961 -0.2682  2.0954  1.3503
   16CHTO   O22 6647   7.256   2.324   1.598 -0.0921 -0.5425 -0.5349
   16CHTO   C31 6648   7.143   2.237   1.642 -0.5486 -0.9305  0.2643
   16CHTO   H59 6649   7.082   2.303   1.707 -0.2611 -0.5012  0.0992
   16CHTO   C29 6650   7.045   2.195   1.524  0.2353 -0.7022 -0.2120
   16CHTO   H57 6651   7.103   2.144   1.446 -0.0933  1.8824 -2.1937
   16CHTO   O21 6652   6.993   2.315   1.470  0.0867 -0.5220  0.2547
   16CHTO   H37 6653   7.050   2.354   1.406  1.3408 -0.7283  1.2163
   16CHTO   C27 6654   6.921   2.104   1.578  0.2760 -0.4411  0.5204
   16CHTO   H55 6655   6.852   2.164   1.638 -0.7960  0.1291 -1.2438
   16CHTO    N5 6656   6.844   2.043   1.468  0.0164  0.0818  0.1348
   16CHTO   H43 6657   6.754   1.996   1.505  0.7585 -1.6680 -0.2399
   16CHTO   H44 6658   6.813   2.118   1.396 -2.1164 -2.0649 -1.2407
   16CHTO   C25 6659   6.977   1.983   1.674 -0.2965  0.4001 -0.6180
   16CHTO   H53 6660   7.038   1.921   1.607 -0.1679  1.1661 -1.2200
   16CHTO   O17 6661   7.066   2.041   1.773  0.1971  0.0182 -0.1475
   16CHTO   C32 6662   7.182   2.114   1.727  0.2120 -0.4178 -0.1418
   16CHTO   H60 6663   7.250   2.048   1.673 -2.0013 -0.8361 -2.5303
   16CHTO   C36 6664   7.267   2.155   1.849  0.3197 -0.1113  0.5349
   16CHTO   O25 6665   7.312   2.039   1.922 -0.1129  0.0463  0.2731
   16CHTO   H40 6666   7.338   2.074   2.005 -0.4049  2.1037 -0.4756
   16CHTO   O15 6667   6.858   1.908   1.748 -0.4295 -0.0921  0.8913
   16CHTO   C19 6668   6.738   1.914   1.827  0.1631 -0.2958  0.6181
   16CHTO   H47 6669   6.723   1.814   1.870  1.6601 -1.7346 -2.1319
   16CHTO   C20 6670   6.754   2.019   1.940 -0.0514 -0.1714  0.3426
   16CHTO   H48 6671   6.763   2.122   1.901  0.1631 -1.1206 -2.2395
   16CHTO   O19 6672   6.879   1.999   2.014  0.6350  0.0731 -0.1513
   16CHTO   H35 6673   6.885   2.067   2.079  2.0528 -1.4102  1.3180
   16CHTO   C21 6674   6.631   2.017   2.034  0.0832  0.5698  0.2406
   16CHTO   H49 6675   6.629   1.923   2.089  1.7697  1.1860  1.3954
   16CHTO    N4 6676   6.632   2.124   2.143 -0.2661 -0.4396  0.2223
   16CHTO   H41 6677   6.623   2.224   2.103 -0.6958 -0.4491  0.2963
   16CHTO   H42 6678   6.728   2.115   2.191  1.2201  0.5314 -2.4456
   16CHTO   C22 6679   6.501   2.025   1.950  0.3121 -0.2666  0.6510
   16CHTO   H50 6680   6.493   2.126   1.909  0.0723 -0.1833  0.8991
   16CHTO   O14 6681   6.499   1.926   1.847 -0.1582 -0.3739 -0.0919
   16CHTO   C23 6682   6.603   1.941   1.752 -0.3250  0.2350 -0.5812
   16CHTO   H51 6683   6.600   2.038   1.702 -2.0315  0.8350  0.6237
   16CHTO   C34 6684   6.586   1.844   1.635  0.4138 -0.0867 -0.4417
   16CHTO   O23 6685   6.459   1.865   1.577  0.2476 -0.2208  0.0864
   16CHTO   H38 6686   6.457   1.941   1.522 -1.2346  1.2736  2.1201
   16CHTO   O16 6687   6.387   1.998   2.024  0.2203  0.1014 -0.2020
   16CHTO   C24 6688   6.255   2.077   1.973  0.0437  0.4235 -0.3687
   16CHTO   H52 6689   6.277   2.138   1.886  1.5808 -0.3999 -0.5611
   16CHTO   C26 6690   6.211   2.171   2.084 -0.1467 -0.4247 -0.3409
   16CHTO   H54 6691   6.177   2.113   2.172 -1.2093  0.2692 -0.2849
   16CHTO   O20 6692   6.319   2.265   2.109 -0.5514  0.4727 -0.3088
   16CHTO   H36 6693   6.409   2.252   2.086 -0.2263  0.0085  1.1755
   16CHTO   C30 6694   6.080   2.240   2.035 -1.1229 -0.1167  0.0716
   16CHTO   H58 6695   6.091   2.301   1.944  2.1159 -0.2256  0.3606
   16CHTO    N6 6696   6.031   2.325   2.145  0.4718 -0.2836  0.1858
   16CHTO   H45 6697   5.983   2.273   2.227  0.3334 -2.2951 -1.1256
   16CHTO   H46 6698   6.107   2.389   2.187  1.1523 -0.4891 -0.7193
   16CHTO   C33 6699   5.978   2.133   1.996  0.4225  0.0790 -0.2693
   16CHTO   H61 6700   5.955   2.073   2.085 -0.4367  0.9448  0.0874
   16CHTO   O18 6701   6.034   2.048   1.890 -0.1230  0.1258  0.0629
   16CHTO   C28 6702   6.143   1.973   1.935 -0.9368 -0.2153  0.5167
   16CHTO   H56 6703   6.128   1.906   2.020 -2.0482 -1.6949 -0.8113
   16CHTO   C35 6704   6.194   1.886   1.814 -0.2525  0.2079 -0.0342
   16CHTO   O24 6705   6.101   1.781   1.781 -0.3092 -0.0787 -0.5405
   16CHTO   H39 6706   6.048   1.828   1.719  1.3121  3.2429  0.5066
   16CHTO    O9 6707   5.855   2.198   1.952 -0.2476  0.3821  0.2935
   16CHTO   C13 6708   5.726   2.168   2.057  0.2941  0.6469 -0.1507
   16CHTO   H26 6709   5.768   2.181   2.159  2.9927  0.8153 -1.2179
   16CHTO   C11 6710   5.667   2.021   2.042  0.3399  0.6478  0.1660
   16CHTO   H24 6711   5.744   1.950   2.075  1.2629  0.6971 -1.8549
   16CHTO    O8 6712   5.645   1.988   1.905 -0.1348 -0.3565 -1.0486
   16CHTO    H3 6713   5.599   1.906   1.896 -0.4945 -0.5263  1.8548
   16CHTO    C9 6714   5.535   2.010   2.127 -0.1400  0.2299 -0.3784
   16CHTO   H22 6715   5.566   2.032   2.230 -1.6142 -0.6802  0.2689
   16CHTO    N2 6716   5.481   1.871   2.150 -0.6815  0.2570 -0.6210
   16CHTO   H10 6717   5.501   1.807   2.065 -1.7998 -1.0365  0.0774
   16CHTO   H11 6718   5.374   1.878   2.163 -0.6428 -0.2863  0.0273
   16CHTO    C7 6719   5.424   2.109   2.067 -0.0507  0.2477 -0.6931
   16CHTO   H20 6720   5.366   2.136   2.158 -1.0189 -0.5241 -1.0635
   16CHTO    O4 6721   5.484   2.222   2.001  0.3013 -0.2182 -0.3792
   16CHTO   C14 6722   5.610   2.280   2.054 -0.0082 -0.5484 -0.0024
   16CHTO   H27 6723   5.582   2.324   2.153  0.2112  1.4037 -0.7817
   16CHTO   C18 6724   5.658   2.394   1.971  0.4491 -0.2898 -0.0917
   16CHTO   O13 6725   5.754   2.480   2.026 -0.0253 -0.1514  0.0587
   16CHTO    H7 6726   5.826   2.426   2.054 -0.4630 -0.9146 -0.2580
   16CHTO    O2 6727   5.322   2.023   1.964  0.3082  0.0577 -0.6293
   16CHTO    C1 6728   5.196   2.088   1.928 -0.3191  0.1174  0.7033
   16CHTO   H14 6729   5.121   2.015   1.891  1.2388 -0.5056 -1.3053
   16CHTO    C2 6730   5.219   2.195   1.813 -1.1198 -0.1336  0.0857
   16CHTO   H15 6731   5.275   2.274   1.866  1.9240 -2.4188  0.4527
   16CHTO    O6 6732   5.299   2.135   1.714 -0.2017 -0.2858  0.2939
   16CHTO    H1 6733   5.382   2.108   1.748 -0.8246  0.4379  2.4287
   16CHTO    C3 6734   5.083   2.247   1.762  0.2331  0.7457  0.3544
   16CHTO   H16 6735   5.028   2.164   1.716 -1.1323  2.2460 -0.7795
   16CHTO    N1 6736   5.094   2.353   1.658  0.1115  0.0319  1.2627
   16CHTO    H8 6737   5.172   2.337   1.585  0.0192  0.2800  1.1088
   16CHTO    H9 6738   5.001   2.366   1.605  1.0011 -0.8501 -0.5762
   16CHTO    C4 6739   4.993   2.295   1.882 -1.0140 -0.1473  0.3391
   16CHTO   H17 6740   5.019   2.397   1.911  1.2147 -0.6259  0.0541
   16CHTO    O1 6741   4.999   2.206   1.998 -0.5809 -0.3579  0.6150
   16CHTO    C5 6742   5.122   2.161   2.043  0.3791  0.6058  0.1691
   16CHTO   H18 6743   5.175   2.251   2.075 -0.4052  0.2969  2.3731
   16CHTO   C16 6744   5.090   2.077   2.171 -0.2693 -1.3286  0.2064
   16CHTO   O11 6745   4.990   2.144   2.252  0.3531 -0.0909 -0.0491
   16CHTO    H5 6746   4.908   2.107   2.224 -0.0939 -1.0727  2.4934
   16CHTO    O3 6747   4.854   2.283   1.847 -0.1379 -0.0089 -0.0169
   16CHTO    C6 6748   4.770   2.367   1.931  0.5394 -0.1241  0.9430
   16CHTO   H19 6749   4.824   2.411   2.015 -0.8186  1.7947  0.8340
   16CHTO    C8 6750   4.719   2.491   1.854 -0.8146  0.2359 -0.5443
   16CHTO   H21 6751   4.653   2.459   1.773  1.7220 -0.4568 -2.3769
   16CHTO    O7 6752   4.827   2.561   1.794 -0.5574  0.6017  0.1210
   16CHTO    H2 6753   4.832   2.654   1.784 -0.5255  0.5257 -0.5642
   16CHTO   C12 6754   4.629   2.585   1.948 -0.0540 -0.9436  0.1824
   16CHTO   H25 6755   4.688   2.642   2.022 -0.2516  0.1866 -0.5184
   16CHTO    N3 6756   4.558   2.697   1.872  0.7217  0.3259  0.3615
   16CHTO   H12 6757   4.459   2.715   1.911  0.1308 -1.1682 -0.4433
   16CHTO   H13 6758   4.560   2.681   1.766 -0.7202  1.3261  0.1699
   16CHTO   C15 6759   4.526   2.499   2.022 -0.0787 -0.1498  0.1445
   16CHTO   H28 6760   4.448   2.469   1.952  0.1790  0.6417 -0.4826
   16CHTO   O10 6761   4.472   2.564   2.130  0.6088  0.0625  0.1278
   16CHTO    H4 6762   4.537   2.608   2.182  0.8121  1.5734 -1.3726
   16CHTO    O5 6763   4.586   2.382   2.081 -0.1510 -0.3485 -0.4104
   16CHTO   C10 6764   4.647   2.290   1.989 -0.5426 -0.4525  0.3485
   16CHTO   H23 6765   4.573   2.268   1.913 -0.2621  0.1265 -0.0955
   16CHTO   C17 6766   4.689   2.162   2.060 -1.0750  0.0653  0.3582
   16CHTO   O12 6767   4.673   2.042   1.976  0.1303  0.3171 -0.2637
   16CHTO    H6 6768   4.593   2.049   1.927 -2.0627 -1.3134  2.8507
   17CHTO  H203 6769   5.037   4.449   0.764  0.9598  0.1064 -0.5612
   17CHTO   O82 6770   5.075   4.523   0.808 -0.1965  0.4613 -0.1135
   17CHTO  C123 6771   4.996   4.637   0.804  0.6138 -0.2348  0.0502
   17CHTO  H227 6772   4.898   4.614   0.850  0.4883  1.1067  0.4614
   17CHTO   O77 6773   5.066   4.737   0.886  0.4841 -0.0467 -0.3963
   17CHTO  C118 6774   5.002   4.864   0.909 -0.3884  0.3093  0.4954
   17CHTO  H222 6775   4.906   4.838   0.956  1.0806 -1.8700  2.4110
   17CHTO  C125 6776   5.082   4.938   1.019  0.3743  0.3725 -0.6664
   17CHTO   O84 6777   5.085   4.868   1.143  0.2419  0.2250  0.4349
   17CHTO  H205 6778   5.155   4.895   1.199  1.6418  0.4976 -1.3819
   17CHTO  C114 6779   4.990   4.942   0.781  0.0603 -0.3101 -0.3704
   17CHTO  H218 6780   5.089   4.969   0.743 -0.2010  0.5481 -0.4660
   17CHTO  C116 6781   4.910   4.851   0.682  0.1400 -0.0276  0.4550
   17CHTO  H220 6782   4.807   4.825   0.714  0.4312 -2.2030 -0.2565
   17CHTO   O79 6783   4.904   4.926   0.562  0.0377 -0.2866 -0.3848
   17CHTO  H201 6784   4.854   4.884   0.494  0.5516  0.8789 -1.5014
   17CHTO  C120 6785   4.977   4.704   0.662 -0.5518  0.0054  0.4841
   17CHTO  H224 6786   5.078   4.713   0.618 -0.7100 -0.0847  0.0973
   17CHTO   N21 6787   4.897   4.625   0.563  0.0759  1.2757  0.3429
   17CHTO  H211 6788   4.805   4.577   0.593  0.7357 -1.3180 -1.6060
   17CHTO  H212 6789   4.895   4.661   0.461  1.5221  0.7892  0.1364
   17CHTO   O75 6790   4.919   5.059   0.815  0.1685 -0.5213 -1.0511
   17CHTO  C112 6791   4.937   5.195   0.705  0.6909  0.7895 -0.0225
   17CHTO  H216 6792   4.881   5.169   0.614  0.2068 -0.3011  0.5860
   17CHTO   O73 6793   5.079   5.214   0.684 -0.3181 -0.2413  0.3315
   17CHTO  C113 6794   5.120   5.304   0.579  0.1929 -0.5794  0.7291
   17CHTO  H217 6795   5.073   5.274   0.484 -0.1176 -0.9002  0.9840
   17CHTO  C124 6796   5.272   5.294   0.558 -0.4949 -0.2113 -0.1084
   17CHTO   O83 6797   5.314   5.155   0.535 -0.3126 -0.0256  0.4183
   17CHTO  H204 6798   5.320   5.098   0.609 -0.0849  0.7771  1.0231
   17CHTO  C109 6799   5.075   5.443   0.634  0.0022 -0.1885  0.0213
   17CHTO  H213 6800   5.122   5.450   0.734  1.0676 -0.2098 -0.4676
   17CHTO  C110 6801   4.920   5.450   0.657 -1.1676  0.2309  0.6563
   17CHTO  H214 6802   4.870   5.437   0.560  0.2577  0.8182 -0.1728
   17CHTO   O78 6803   4.870   5.584   0.694  0.1432 -0.2533  0.3801
   17CHTO  H200 6804   4.786   5.577   0.734 -0.4021  2.1026 -0.2989
   17CHTO  C111 6805   4.882   5.335   0.753  0.0073  0.5612 -1.0719
   17CHTO  H215 6806   4.929   5.350   0.851 -0.6161  0.7584 -0.8015
   17CHTO   N19 6807   4.736   5.318   0.771  0.6269  0.4618 -0.2900
   17CHTO  H207 6808   4.686   5.269   0.688 -1.1394  2.2799 -0.3461
   17CHTO  H208 6809   4.718   5.264   0.863  0.0679  0.5473 -0.3439
   17CHTO   O74 6810   5.123   5.551   0.550  0.0917 -0.6711 -0.1290
   17CHTO  C115 6811   5.181   5.669   0.619 -0.3593  0.0782 -0.9681
   17CHTO  H219 6812   5.113   5.711   0.694 -0.0326 -1.0749 -0.0230
   17CHTO   O76 6813   5.310   5.637   0.695 -0.0648  0.1406 -0.4759
   17CHTO  C122 6814   5.432   5.643   0.611 -0.1585 -0.1268  0.7026
   17CHTO  H226 6815   5.421   5.579   0.524  1.1572  0.1440  0.3351
   17CHTO  C126 6816   5.542   5.572   0.693  0.0139 -0.3559  0.0559
   17CHTO   O85 6817   5.658   5.571   0.626  0.1660  0.2367 -0.1391
   17CHTO  H206 6818   5.692   5.653   0.595 -0.5334  1.8214  3.0203
   17CHTO  C121 6819   5.451   5.788   0.557  0.0229 -0.2736 -0.1049
   17CHTO  H225 6820   5.518   5.838   0.630  0.0261 -0.1533 -0.1899
   17CHTO   O81 6821   5.522   5.773   0.434 -0.2882  0.0818 -0.6653
   17CHTO  H202 6822   5.610   5.751   0.457 -1.0997 -1.8163  0.8262
   17CHTO  C119 6823   5.316   5.877   0.535  0.2201 -0.9253  0.5031
   17CHTO  H223 6824   5.294   5.920   0.632 -0.6862  0.0346 -0.1201
   17CHTO  C117 6825   5.198   5.782   0.507  0.1553 -0.1921  0.0800
   17CHTO  H221 6826   5.205   5.731   0.411 -1.5146 -1.3781  0.5835
   17CHTO   N20 6827   5.070   5.858   0.497 -0.4252  0.3078  0.7078
   17CHTO  H209 6828   4.974   5.810   0.511 -0.2731 -0.1880  0.0787
   17CHTO  H210 6829   5.062   5.946   0.434 -0.5920  0.7857  1.3862
   17CHTO   O80 6830   5.341   6.006   0.450 -0.5900  0.1429 -0.1749
   17CHTO  C103 6831   5.414   6.131   0.516 -0.0603  0.2932 -0.4208
   17CHTO  H190 6832   5.396   6.125   0.624 -1.2852  0.1832 -0.6198
   17CHTO  C101 6833   5.568   6.157   0.481  0.4288  0.1547 -0.4316
   17CHTO  H188 6834   5.575   6.136   0.374  0.9726 -2.6115  0.1087
   17CHTO   O68 6835   5.649   6.051   0.567 -0.2901  0.2039 -0.0178
   17CHTO  H168 6836   5.732   6.093   0.578 -0.0509  0.8219 -3.6074
   17CHTO   C99 6837   5.613   6.302   0.516 -0.3230 -0.0321  0.3220
   17CHTO  H186 6838   5.606   6.312   0.626  0.5695  1.9871  0.2095
   17CHTO   N17 6839   5.758   6.332   0.466  0.8104  0.2525 -0.1059
   17CHTO  H174 6840   5.810   6.237   0.471  0.5074  0.0124 -1.3394
   17CHTO  H175 6841   5.752   6.372   0.366 -0.6144  0.1520 -0.0688
   17CHTO   C97 6842   5.522   6.412   0.459  0.5390 -0.0586  0.5211
   17CHTO  H184 6843   5.521   6.403   0.350  0.4551  1.6836  0.3605
   17CHTO   O64 6844   5.388   6.378   0.517  0.3825 -0.2174  0.7638
   17CHTO  C104 6845   5.327   6.256   0.467  0.1982  0.3096  1.2220
   17CHTO  H191 6846   5.333   6.264   0.359  0.4740 -0.1215  1.2061
   17CHTO  C108 6847   5.179   6.245   0.505 -0.2876  0.5855  0.1368
   17CHTO   O71 6848   5.105   6.343   0.431 -0.1246 -0.6989 -0.3156
   17CHTO  H171 6849   5.094   6.415   0.490  1.1820 -0.2303 -0.6219
   17CHTO   O62 6850   5.549   6.547   0.493 -0.2108 -0.5297 -0.4474
   17CHTO   C91 6851   5.503   6.655   0.414 -0.2245  0.2106 -0.3245
   17CHTO  H178 6852   5.448   6.611   0.332  1.6966  1.0591 -2.1204
   17CHTO   C92 6853   5.627   6.715   0.341 -0.2366 -0.2942 -0.6582
   17CHTO  H179 6854   5.691   6.635   0.303 -2.0148 -2.6488  1.1344
   17CHTO   O66 6855   5.563   6.781   0.230 -0.0023 -0.3846  0.0750
   17CHTO  H166 6856   5.535   6.864   0.263  0.3385 -0.5262  0.7128
   17CHTO   C93 6857   5.708   6.826   0.424  0.1787 -0.2404 -0.4930
   17CHTO  H180 6858   5.752   6.892   0.348  1.8904  1.8418  2.2117
   17CHTO   N16 6859   5.815   6.763   0.503 -0.2956 -0.2407 -0.7325
   17CHTO  H172 6860   5.904   6.736   0.447 -0.0941  0.5145 -0.7878
   17CHTO  H173 6861   5.774   6.681   0.559 -2.8129  0.8809 -0.8737
   17CHTO   C94 6862   5.613   6.915   0.510  0.4327 -0.4514 -0.2630
   17CHTO  H181 6863   5.603   6.877   0.612 -3.9017 -1.8153 -1.0828
   17CHTO   O61 6864   5.483   6.900   0.453  0.2350  0.7805  0.6169
   17CHTO   C95 6865   5.421   6.774   0.483  0.2188  0.1666 -0.0245
   17CHTO  H182 6866   5.423   6.765   0.592  0.5625 -0.9676 -0.1223
   17CHTO  C106 6867   5.276   6.771   0.427 -0.3693 -0.3606  0.6515
   17CHTO   O69 6868   5.180   6.869   0.471  0.6118 -0.0739  0.1979
   17CHTO  H169 6869   5.203   6.958   0.486  0.5714  0.2524 -1.5760
   17CHTO   O63 6870   5.647   7.067   0.499  0.1609  0.5272  0.2798
   17CHTO   C96 6871   5.577   7.158   0.599 -0.3148  0.4908 -0.2235
   17CHTO  H183 6872   5.548   7.100   0.686  3.1801 -1.8839 -0.5205
   17CHTO   C98 6873   5.469   7.249   0.531  0.1191  0.5411  0.3422
   17CHTO  H185 6874   5.514   7.281   0.436  1.8212  0.7267  1.1926
   17CHTO   O67 6875   5.369   7.153   0.498  0.7168  0.0516 -0.1333
   17CHTO  H167 6876   5.373   7.124   0.409 -0.9283 -0.1344 -0.1590
   17CHTO  C102 6877   5.416   7.366   0.634  0.3102  0.7343  0.2458
   17CHTO  H189 6878   5.350   7.313   0.705  2.1893 -0.7719  0.9125
   17CHTO   N18 6879   5.326   7.462   0.567 -0.0740  0.0472  0.2264
   17CHTO  H176 6880   5.343   7.559   0.613  0.5006 -0.3768  0.9233
   17CHTO  H177 6881   5.222   7.434   0.562  0.4184 -2.6178  2.9976
   17CHTO  C105 6882   5.537   7.436   0.709  0.2327  0.1218  0.2358
   17CHTO  H192 6883   5.585   7.510   0.645  2.3046  0.2241  1.8622
   17CHTO   O65 6884   5.634   7.343   0.752 -0.8078  0.3203 -0.5041
   17CHTO  C100 6885   5.689   7.258   0.651  0.1312  0.2247  0.5584
   17CHTO  H187 6886   5.720   7.320   0.565 -0.4677  0.5611  0.5851
   17CHTO  C107 6887   5.815   7.204   0.712 -0.1666  0.0062  0.0872
   17CHTO   O70 6888   5.898   7.141   0.618 -0.3678  0.0120  0.3135
   17CHTO  H170 6889   5.914   7.196   0.544  0.0610 -1.1211 -0.4566
   17CHTO   O57 6890   5.471   7.512   0.829  0.4134 -0.3937  0.5041
   17CHTO   C85 6891   5.543   7.622   0.887  0.7880  0.0945  0.4854
   17CHTO  H157 6892   5.593   7.675   0.805  0.4300 -0.7622 -0.2996
   17CHTO   C83 6893   5.659   7.569   0.982 -0.8742  0.0414 -0.0563
   17CHTO  H155 6894   5.719   7.508   0.915  1.1957 -1.3969  2.9703
   17CHTO   O56 6895   5.607   7.490   1.090 -0.3564 -0.6670  0.0665
   17CHTO  H135 6896   5.598   7.403   1.055  1.7739 -0.9936  0.2916
   17CHTO   C81 6897   5.742   7.685   1.038  0.6138  0.1458  0.0077
   17CHTO  H153 6898   5.782   7.741   0.953  0.4919 -0.0438 -0.1737
   17CHTO   N14 6899   5.871   7.637   1.109 -0.9244  0.1672 -0.0182
   17CHTO  H141 6900   5.934   7.722   1.118 -0.6267  0.0849 -1.2395
   17CHTO  H142 6901   5.864   7.587   1.204  2.4346 -0.6466 -0.1524
   17CHTO   C79 6902   5.640   7.784   1.118 -0.7630  0.1779  0.5753
   17CHTO  H151 6903   5.697   7.875   1.135  0.8117 -0.9868  1.7200
   17CHTO   O52 6904   5.528   7.827   1.036  0.0705 -0.3661  0.3940
   17CHTO   C86 6905   5.460   7.711   0.975  1.1263  0.2798  0.2619
   17CHTO  H158 6906   5.419   7.655   1.062 -1.9899  1.6798 -0.2097
   17CHTO   C90 6907   5.338   7.779   0.906  0.1051 -0.4619  0.5864
   17CHTO   O60 6908   5.240   7.828   0.996  0.4490  0.5384 -0.3850
   17CHTO  H138 6909   5.175   7.763   1.018 -0.0040  0.8890 -0.6924
   17CHTO   O50 6910   5.581   7.721   1.238 -0.1932  0.3446 -0.9166
   17CHTO   C73 6911   5.555   7.716   1.380 -0.1530  0.1350  0.6075
   17CHTO  H145 6912   5.524   7.816   1.412  2.5874  1.1424  0.2523
   17CHTO   C74 6913   5.674   7.673   1.469 -0.6419  0.2243 -0.0737
   17CHTO  H146 6914   5.750   7.747   1.442 -1.1098  0.4537 -0.7886
   17CHTO   O54 6915   5.647   7.702   1.608 -0.6155 -0.0192  0.6795
   17CHTO  H133 6916   5.557   7.678   1.623 -1.8694  2.5960 -1.9320
   17CHTO   C75 6917   5.721   7.526   1.429  0.2229  0.5386 -0.3936
   17CHTO  H147 6918   5.757   7.526   1.325  0.1321 -2.2546 -0.4668
   17CHTO   N13 6919   5.835   7.481   1.509 -0.4340  0.1628 -0.1594
   17CHTO  H139 6920   5.914   7.554   1.515 -2.3513  2.1974  1.1423
   17CHTO  H140 6921   5.803   7.461   1.610 -0.3810 -1.2704 -0.4091
   17CHTO   C76 6922   5.598   7.429   1.440 -0.2532  0.2991  0.1356
   17CHTO  H148 6923   5.580   7.414   1.547 -0.5326 -1.7369 -0.1766
   17CHTO   O49 6924   5.484   7.487   1.368  0.2262  0.1394  0.3403
   17CHTO   C77 6925   5.441   7.619   1.414 -0.3972  0.0377  0.2689
   17CHTO  H149 6926   5.424   7.620   1.522 -0.7072  0.2133  0.2186
   17CHTO   C88 6927   5.311   7.660   1.345  0.2488 -0.2328  0.1849
   17CHTO   O58 6928   5.253   7.773   1.376 -0.0476  0.1304  0.3568
   17CHTO  H136 6929   5.166   7.752   1.349  0.1368 -0.4907  0.2374
   17CHTO   O51 6930   5.628   7.298   1.373 -0.1833 -0.0499 -0.0925
   17CHTO   C78 6931   5.516   7.191   1.392 -0.3648 -0.5604  1.0824
   17CHTO  H150 6932   5.423   7.242   1.425 -1.1564 -0.5719 -1.0598
   17CHTO   C80 6933   5.556   7.086   1.493 -0.5707  0.4521 -0.7424
   17CHTO  H152 6934   5.666   7.075   1.488 -0.6354  0.2897 -1.8931
   17CHTO   O55 6935   5.543   7.148   1.618 -0.4384  0.0291  0.2989
   17CHTO  H134 6936   5.612   7.118   1.673 -2.5090  0.1122  3.0898
   17CHTO   C84 6937   5.480   6.954   1.476 -0.2435  0.3208  0.2382
   17CHTO  H156 6938   5.382   6.966   1.521  0.7519  0.7594  2.3656
   17CHTO   N15 6939   5.543   6.842   1.551  0.6818  0.1524 -1.0585
   17CHTO  H143 6940   5.574   6.872   1.649 -1.2053 -1.9547  0.2514
   17CHTO  H144 6941   5.474   6.762   1.566 -0.0006  0.6754 -1.4330
   17CHTO   C87 6942   5.468   6.908   1.327  0.1430  0.4230  0.6278
   17CHTO  H159 6943   5.562   6.866   1.293  0.2665  1.0362  0.2029
   17CHTO   O53 6944   5.428   7.017   1.239  0.2435  0.1415  0.6710
   17CHTO   C82 6945   5.496   7.139   1.246 -0.2730 -0.1513 -0.1485
   17CHTO  H154 6946   5.594   7.130   1.199  0.0737 -0.0638  0.5529
   17CHTO   C89 6947   5.409   7.227   1.159  0.2341  0.2691 -0.0014
   17CHTO   O59 6948   5.425   7.204   1.020  0.3234 -0.2905  0.0506
   17CHTO  H137 6949   5.437   7.114   0.996 -0.9451 -0.6961  0.8556
   17CHTO   O45 6950   5.363   6.775   1.293  0.0678  0.0186  0.5506
   17CHTO   C67 6951   5.230   6.788   1.355  0.6805 -0.2711 -0.4507
   17CHTO  H124 6952   5.234   6.819   1.459 -0.7989  1.8975 -1.0109
   17CHTO   C65 6953   5.131   6.881   1.275 -0.0175  0.5942 -0.0343
   17CHTO  H122 6954   5.192   6.945   1.211 -1.0256  0.5642 -1.0645
   17CHTO   O44 6955   5.061   6.964   1.364  0.3066  0.3706  0.2547
   17CHTO  H102 6956   5.113   7.026   1.411 -0.5481  1.7050 -0.5241
   17CHTO   C63 6957   5.035   6.800   1.182 -0.6785 -0.5508 -0.2545
   17CHTO  H120 6958   5.094   6.741   1.111  1.8390  0.6800  0.7689
   17CHTO   N11 6959   4.961   6.880   1.082 -0.2362 -0.5443  1.5283
   17CHTO  H108 6960   5.030   6.893   1.002 -0.9721 -2.2654  0.5971
   17CHTO  H109 6961   4.933   6.972   1.129 -0.1630 -0.9382  2.3617
   17CHTO   C61 6962   4.946   6.701   1.269  0.3140  0.1993 -0.3379
   17CHTO  H118 6963   4.912   6.617   1.206  1.2117  0.0406 -0.6166
   17CHTO   O40 6964   5.029   6.643   1.384 -0.1794  0.0667 -0.3317
   17CHTO   C68 6965   5.172   6.645   1.359  0.0189  0.6877  0.5294
   17CHTO  H125 6966   5.195   6.591   1.265 -0.8876 -2.6739  2.1480
   17CHTO   C72 6967   5.248   6.567   1.473 -0.3581 -0.1461  0.2835
   17CHTO   O48 6968   5.382   6.520   1.440  0.5656 -0.1671  0.1393
   17CHTO  H105 6969   5.386   6.426   1.438  3.5867 -0.1148  0.7646
   17CHTO   O38 6970   4.830   6.759   1.328 -0.3748  0.3673 -0.6506
   17CHTO   C55 6971   4.741   6.688   1.416  0.4732  0.6830  0.0799
   17CHTO  H112 6972   4.796   6.631   1.493  0.5170 -1.1155 -1.2373
   17CHTO   C56 6973   4.636   6.593   1.336  0.6446  0.8047 -0.0055
   17CHTO  H113 6974   4.588   6.657   1.261 -0.0973  0.4974  0.2024
   17CHTO   O42 6975   4.717   6.497   1.265  0.3799 -0.1686 -0.0608
   17CHTO  H100 6976   4.673   6.458   1.192  0.1369  2.5613 -1.4683
   17CHTO   C57 6977   4.521   6.539   1.433 -0.7598 -0.0226  0.0609
   17CHTO  H114 6978   4.566   6.458   1.491  4.3706  2.4648 -0.2047
   17CHTO   N10 6979   4.412   6.482   1.350 -0.5050 -0.2752  0.4451
   17CHTO  H106 6980   4.322   6.494   1.409 -0.7531  0.1327 -0.0194
   17CHTO  H107 6981   4.441   6.378   1.348  0.9814  0.0216  3.2358
   17CHTO   C58 6982   4.461   6.645   1.524  0.0943  0.0386 -0.0090
   17CHTO  H115 6983   4.412   6.726   1.465 -0.5494  0.7308  1.4686
   17CHTO   O37 6984   4.573   6.707   1.595  0.0847 -0.1394  0.3176
   17CHTO   C59 6985   4.662   6.782   1.507 -1.3662 -0.7916 -0.1927
   17CHTO  H116 6986   4.611   6.864   1.455 -0.7193 -0.5764 -0.4953
   17CHTO   C70 6987   4.756   6.863   1.601  0.0549 -0.5439 -0.2468
   17CHTO   O46 6988   4.798   6.995   1.555 -0.5110  1.1010 -0.0985
   17CHTO  H103 6989   4.833   6.989   1.468  0.6080  3.0180  0.1847
   17CHTO   O39 6990   4.351   6.588   1.618  0.6508 -0.0797 -0.4077
   17CHTO   C60 6991   4.267   6.685   1.683  0.1288 -0.4849 -0.4849
   17CHTO  H117 6992   4.326   6.772   1.711  2.6724 -2.6050  0.9738
   17CHTO   C62 6993   4.153   6.736   1.590  0.1532 -0.0444  0.7745
   17CHTO  H119 6994   4.199   6.776   1.497 -3.5571  0.5165 -0.9114
   17CHTO   O43 6995   4.062   6.626   1.558 -0.1476 -0.0099 -0.0039
   17CHTO  H101 6996   4.061   6.606   1.466 -2.6167 -0.4423  0.0793
   17CHTO   C66 6997   4.072   6.858   1.665 -0.1153  0.1350 -0.3122
   17CHTO  H123 6998   4.140   6.936   1.700  1.4113 -0.4309 -1.9514
   17CHTO   N12 6999   3.977   6.932   1.569 -0.1174  0.0085  0.1800
   17CHTO  H110 7000   3.959   7.027   1.615 -3.1199 -0.8642  0.9238
   17CHTO  H111 7001   4.044   6.936   1.485  2.8790 -1.6643  2.4139
   17CHTO   C69 7002   3.990   6.805   1.785 -0.1436 -0.2927 -0.2941
   17CHTO  H126 7003   3.911   6.737   1.748 -1.0122  0.1621  0.7123
   17CHTO   O41 7004   4.100   6.730   1.893 -0.2062 -0.1560 -0.5329
   17CHTO   C64 7005   4.214   6.625   1.811 -0.4901 -0.4966 -0.5297
   17CHTO  H121 7006   4.160   6.531   1.786 -0.2025 -0.8542  0.1703
   17CHTO   C71 7007   4.329   6.588   1.911 -0.6571 -0.1122 -0.3343
   17CHTO   O47 7008   4.274   6.566   2.038 -0.4127 -0.3675 -0.1129
   17CHTO  H104 7009   4.341   6.590   2.099 -0.5187 -0.3594 -0.0001
   17CHTO   O34 7010   3.931   6.926   1.871 -0.0856 -0.3795 -0.0885
   17CHTO   C49 7011   3.852   7.040   1.928  0.5052 -0.1042  0.1865
   17CHTO   H91 7012   3.910   7.132   1.938 -0.8303  0.8087 -0.3872
   17CHTO   C47 7013   3.801   6.991   2.065  0.5552 -0.4297 -0.2659
   17CHTO   H89 7014   3.752   7.084   2.101  1.2902  0.7590 -2.2748
   17CHTO   O33 7015   3.906   6.961   2.155 -0.0675  0.5585  0.4432
   17CHTO   H70 7016   3.870   6.932   2.237 -0.7513  2.1145  0.7008
   17CHTO   C45 7017   3.686   6.877   2.057 -0.2962  0.3141  0.1008
   17CHTO   H87 7018   3.729   6.776   2.072  2.1318  1.4636  1.2501
   17CHTO    N8 7019   3.592   6.902   2.172  0.5657 -0.2220 -0.2714
   17CHTO   H75 7020   3.517   6.972   2.137 -0.7196 -0.9669  0.9279
   17CHTO   H76 7021   3.643   6.928   2.263  1.4470  0.0639 -0.8421
   17CHTO   C43 7022   3.624   6.862   1.912  0.0515 -0.1287  0.4337
   17CHTO   H85 7023   3.697   6.812   1.848 -1.6748 -1.0230 -0.9029
   17CHTO   O29 7024   3.603   6.998   1.870  0.5081  0.0963  0.4880
   17CHTO   C50 7025   3.723   7.072   1.845  0.2553  0.5546 -0.5622
   17CHTO   H92 7026   3.747   7.047   1.740 -1.0149  0.4776 -0.8370
   17CHTO   C54 7027   3.683   7.221   1.862 -0.3324 -0.3322  0.4435
   17CHTO   O36 7028   3.625   7.234   1.984 -0.0680  0.6452 -0.7823
   17CHTO   H72 7029   3.679   7.284   2.042  0.5426 -1.6601  0.7143
   17CHTO   O27 7030   3.512   6.774   1.897 -0.0799  0.3285 -0.6629
   17CHTO   C37 7031   3.444   6.713   1.790 -0.0812  0.5576 -0.3339
   17CHTO   H79 7032   3.336   6.717   1.808  0.1307 -0.0705  1.1770
   17CHTO   C38 7033   3.481   6.780   1.650 -0.6454  0.5134 -0.8175
   17CHTO   H80 7034   3.590   6.782   1.644 -0.6393 -0.0904 -0.9114
   17CHTO   O31 7035   3.428   6.908   1.636 -0.1803  0.0793 -0.3621
   17CHTO   H68 7036   3.487   6.975   1.666 -2.6518  1.6191  1.2281
   17CHTO   C39 7037   3.436   6.690   1.527 -0.0525 -0.2006 -0.4076
   17CHTO   H81 7038   3.328   6.676   1.533 -0.0482 -0.1653 -0.2482
   17CHTO    N7 7039   3.491   6.741   1.398  0.4907  0.1462  0.3770
   17CHTO   H73 7040   3.422   6.806   1.346 -0.4689 -2.2667 -1.4594
   17CHTO   H74 7041   3.583   6.793   1.419  0.2987 -0.0455  1.7176
   17CHTO   C40 7042   3.479   6.548   1.560  0.5075 -0.0693 -0.1057
   17CHTO   H82 7043   3.586   6.530   1.557  0.2200 -1.9087  0.1419
   17CHTO   O26 7044   3.418   6.495   1.681  0.5719  0.4127  0.1490
   17CHTO   C41 7045   3.488   6.560   1.786  0.7235  0.1605  0.6963
   17CHTO   H83 7046   3.594   6.538   1.764  0.7872  0.2604  0.9020
   17CHTO   C52 7047   3.444   6.483   1.916  0.0766  0.2516 -0.6709
   17CHTO   O35 7048   3.531   6.524   2.042 -0.0919  0.1664  0.4808
   17CHTO   H71 7049   3.477   6.580   2.094  0.9077  1.4892  0.1122
   17CHTO   O28 7050   3.415   6.460   1.464 -0.0277  0.1105 -0.4853
   17CHTO   C42 7051   3.485   6.330   1.437 -0.6107 -1.4120  0.2524
   17CHTO   H84 7052   3.406   6.277   1.384 -2.4682  2.4977 -1.0782
   17CHTO   C44 7053   3.525   6.239   1.554  0.0228 -0.1160  0.1373
   17CHTO   H86 7054   3.576   6.291   1.634  0.7618  1.0562 -1.0749
   17CHTO   O32 7055   3.400   6.205   1.628  0.0862  0.2350 -0.1435
   17CHTO   H69 7056   3.369   6.122   1.597  2.8784 -1.0494  0.3208
   17CHTO   C48 7057   3.608   6.114   1.503  0.3745  0.2822 -0.2614
   17CHTO   H90 7058   3.542   6.055   1.440 -1.2993  1.3123  0.4830
   17CHTO    N9 7059   3.653   6.024   1.613  0.0149 -0.3739  0.4238
   17CHTO   H77 7060   3.727   5.948   1.591  0.3905  0.0963  0.0522
   17CHTO   H78 7061   3.563   5.975   1.647  0.5371 -0.3520  1.8742
   17CHTO   C51 7062   3.729   6.155   1.406 -0.8185  0.1377  0.3148
   17CHTO   H93 7063   3.792   6.220   1.467 -0.4951 -0.2453  0.3906
   17CHTO   O30 7064   3.661   6.221   1.300  0.7238 -0.1038  0.0429
   17CHTO   C46 7065   3.600   6.350   1.333 -0.4579  0.0021  0.4826
   17CHTO   H88 7066   3.682   6.407   1.377 -0.2933 -0.5275  0.8612
   17CHTO   C53 7067   3.538   6.411   1.201  0.1696 -0.2563 -0.3322
   17CHTO   O72 7068   3.648   6.444   1.116  0.1679 -0.4266  0.4841
   17CHTO  H199 7069   3.616   6.492   1.042  0.8330  0.2308  0.6130
   17CHTO   O22 7070   3.810   6.049   1.346  0.1220  0.0859  0.0065
   17CHTO   C31 7071   3.911   6.091   1.248  0.0483 -0.0363  0.5511
   17CHTO   H59 7072   3.897   6.199   1.222  0.1285 -0.5742 -1.8580
   17CHTO   C29 7073   4.049   6.072   1.301 -0.4347 -0.0556 -0.8601
   17CHTO   H57 7074   4.067   5.968   1.332 -2.1346  0.2939  1.5004
   17CHTO   O21 7075   4.057   6.152   1.420  0.5510  0.2602  0.1548
   17CHTO   H37 7076   3.994   6.222   1.421  0.1543 -0.1042  0.3545
   17CHTO   C27 7077   4.153   6.115   1.199 -0.4161  0.5759 -0.1682
   17CHTO   H55 7078   4.146   6.224   1.187  0.9325  0.8597  1.4241
   17CHTO    N5 7079   4.290   6.079   1.244 -0.2795 -0.9240  0.1767
   17CHTO   H43 7080   4.344   6.044   1.157 -0.5690  1.4756 -0.9912
   17CHTO   H44 7081   4.348   6.160   1.285 -0.0949 -2.0782  2.2904
   17CHTO   C25 7082   4.115   6.064   1.052  0.5611  0.1505  0.5762
   17CHTO   H53 7083   4.142   5.958   1.040  0.6334  0.2714 -0.3933
   17CHTO   O17 7084   3.970   6.076   1.017  0.1263  0.0199 -0.3586
   17CHTO   C32 7085   3.887   6.020   1.116 -0.1312 -0.4378  0.0490
   17CHTO   H60 7086   3.913   5.915   1.131  2.0089  0.0083 -0.4346
   17CHTO   C36 7087   3.743   6.026   1.057 -0.3638 -0.2988 -0.0533
   17CHTO   O25 7088   3.711   6.144   0.986 -0.5439  0.3163 -0.8393
   17CHTO   H40 7089   3.617   6.151   0.987 -0.4788  1.4986  1.7311
   17CHTO   O15 7090   4.203   6.137   0.936 -0.0172  0.5552 -0.0738
   17CHTO   C19 7091   4.220   6.278   0.908  0.3880  0.0455  0.5561
   17CHTO   H47 7092   4.234   6.283   0.799 -2.2482 -0.0791  0.1749
   17CHTO   C20 7093   4.093   6.366   0.939  0.6121  0.1778  0.0233
   17CHTO   H48 7094   4.052   6.342   1.039 -2.0972 -1.5381 -1.4306
   17CHTO   O19 7095   3.980   6.327   0.851  0.1346  0.6210  0.9063
   17CHTO   H35 7096   3.898   6.342   0.893 -1.2299 -0.0044 -1.4418
   17CHTO   C21 7097   4.118   6.517   0.925 -0.1976  0.3981  0.0874
   17CHTO   H49 7098   4.121   6.533   0.817 -0.6961  1.0345  0.1659
   17CHTO    N4 7099   4.011   6.608   0.980 -0.4911 -0.1911 -0.0187
   17CHTO   H41 7100   3.965   6.670   0.905 -1.2969 -0.1374  0.5179
   17CHTO   H42 7101   3.934   6.554   1.032  0.7345 -1.6924  0.2702
   17CHTO   C22 7102   4.260   6.559   0.982  0.6389  0.1999 -0.7298
   17CHTO   H50 7103   4.247   6.549   1.090 -0.3375 -2.0933 -1.0160
   17CHTO   O14 7104   4.368   6.477   0.948  0.0433  0.0967 -0.1094
   17CHTO   C23 7105   4.349   6.342   0.973 -0.1892 -0.0919  0.4741
   17CHTO   H51 7106   4.354   6.334   1.082  2.9971  1.8707  0.5203
   17CHTO   C34 7107   4.471   6.259   0.935 -0.4634 -0.1961 -0.1684
   17CHTO   O23 7108   4.523   6.289   0.803 -0.7467  0.2097 -0.7060
   17CHTO   H38 7109   4.567   6.370   0.815 -1.6444  0.4545  1.1468
   17CHTO   O16 7110   4.306   6.691   0.943 -0.1414  0.4603 -0.3479
   17CHTO   C24 7111   4.402   6.761   1.066 -0.2467  0.3278 -0.8804
   17CHTO   H52 7112   4.433   6.685   1.137 -0.0087 -0.6776 -2.0358
   17CHTO   C26 7113   4.320   6.868   1.130  0.4610 -0.5188 -0.3329
   17CHTO   H54 7114   4.274   6.926   1.048  1.3567 -0.0034 -0.4833
   17CHTO   O20 7115   4.211   6.800   1.199  0.1055 -0.4187 -0.1738
   17CHTO   H36 7116   4.134   6.848   1.176 -1.5288 -2.0676  1.7117
   17CHTO   C30 7117   4.402   6.966   1.217  0.2318 -0.3214  0.5449
   17CHTO   H58 7118   4.448   6.913   1.301  0.7179 -1.4869 -0.4510
   17CHTO    N6 7119   4.325   7.078   1.277  0.1917  0.0728 -0.1507
   17CHTO   H45 7120   4.262   7.024   1.347  0.7667 -1.7076 -0.9673
   17CHTO   H46 7121   4.392   7.143   1.333  0.2937  0.2970 -0.5328
   17CHTO   C33 7122   4.512   7.021   1.125 -0.3076  0.3823  1.0331
   17CHTO   H61 7123   4.458   7.072   1.044 -1.6973 -1.3848  0.8421
   17CHTO   O18 7124   4.595   6.914   1.073  0.4839 -0.2347  0.1396
   17CHTO   C28 7125   4.526   6.820   0.993 -0.1149 -0.1235  0.1198
   17CHTO   H56 7126   4.495   6.863   0.898 -1.1451 -0.9470  0.0680
   17CHTO   C35 7127   4.628   6.714   0.945 -0.1553 -0.3551 -0.0618
   17CHTO   O24 7128   4.741   6.774   0.882 -0.5279  0.6150  0.3237
   17CHTO   H39 7129   4.772   6.723   0.810 -3.4932 -0.0112 -0.5920
   17CHTO    O9 7130   4.593   7.114   1.191  0.5913  0.2068 -0.1528
   17CHTO   C13 7131   4.679   7.214   1.095 -0.1866  0.2600 -0.1313
   17CHTO   H26 7132   4.708   7.171   0.997  0.4371 -0.8099  0.5163
   17CHTO   C11 7133   4.800   7.251   1.175 -0.0809  0.3535  0.2805
   17CHTO   H24 7134   4.860   7.162   1.201 -2.9492 -0.6040  4.1404
   17CHTO    O8 7135   4.768   7.308   1.306 -0.5020  0.5325  0.1081
   17CHTO    H3 7136   4.702   7.374   1.300  0.8095  2.0109  1.5633
   17CHTO    C9 7137   4.886   7.354   1.095 -0.2024 -0.3396 -0.1894
   17CHTO   H22 7138   4.897   7.317   0.993 -0.3018  1.2802 -0.8109
   17CHTO    N2 7139   5.019   7.377   1.146  0.1956  0.0126 -0.2311
   17CHTO   H10 7140   5.079   7.419   1.067  0.5977  2.8625  1.5125
   17CHTO   H11 7141   5.065   7.281   1.166  1.1375  0.5375  0.1480
   17CHTO    C7 7142   4.805   7.484   1.082 -0.1967  0.3604  0.4050
   17CHTO   H20 7143   4.855   7.558   1.016 -0.3771 -0.3300 -0.5072
   17CHTO    O4 7144   4.679   7.454   1.014  0.0639  0.2092 -0.6752
   17CHTO   C14 7145   4.592   7.343   1.052 -0.5573 -1.2318  0.1845
   17CHTO   H27 7146   4.528   7.322   0.965 -0.4846 -1.3126  0.1500
   17CHTO   C18 7147   4.496   7.395   1.156  0.3934  0.2973  0.0310
   17CHTO   O13 7148   4.405   7.484   1.085  0.1562 -0.5274  0.6953
   17CHTO    H7 7149   4.342   7.427   1.046 -0.6331  0.4434  0.5413
   17CHTO    O2 7150   4.783   7.572   1.227  0.1744  0.2419  0.1550
   17CHTO    C1 7151   4.725   7.703   1.203  0.0016 -0.4500 -0.2068
   17CHTO   H14 7152   4.658   7.688   1.117 -1.2254  0.8483  0.4980
   17CHTO    C2 7153   4.836   7.820   1.170  0.9288 -0.5419 -0.6677
   17CHTO   H15 7154   4.906   7.812   1.254 -1.4317  3.4146  1.7880
   17CHTO    O6 7155   4.911   7.796   1.050 -0.1302 -0.0049 -0.2728
   17CHTO    H1 7156   4.850   7.792   0.979  0.5603 -1.5385 -0.7971
   17CHTO    C3 7157   4.760   7.962   1.169 -0.0299 -0.2881  0.0845
   17CHTO   H16 7158   4.689   7.981   1.087 -0.8262  1.0766  1.0728
   17CHTO    N1 7159   4.864   8.074   1.164  0.0437 -0.0900 -0.3587
   17CHTO    H8 7160   4.964   8.033   1.162  0.8690  1.8281  0.5198
   17CHTO    H9 7161   4.852   8.156   1.233 -1.2942  0.5033 -1.2866
   17CHTO    C4 7162   4.677   7.968   1.301 -0.7008  0.1228  0.3063
   17CHTO   H17 7163   4.745   7.956   1.386  1.2322 -0.5854 -1.3038
   17CHTO    O1 7164   4.578   7.867   1.299 -0.3790  0.6149  0.6785
   17CHTO    C5 7165   4.641   7.741   1.332 -0.2827 -0.0973  0.0932
   17CHTO   H18 7166   4.715   7.756   1.412  0.4451 -0.1442 -0.5671
   17CHTO   C16 7167   4.535   7.647   1.381  0.6212 -0.6312  0.0797
   17CHTO   O11 7168   4.604   7.541   1.443 -0.6202 -0.6691  0.1898
   17CHTO    H5 7169   4.554   7.494   1.507 -1.2141 -1.5804 -0.9075
   17CHTO    O3 7170   4.589   8.082   1.317  0.3084 -0.3954  0.1798
   17CHTO    C6 7171   4.589   8.151   1.453  0.1875 -0.1939  0.2128
   17CHTO   H19 7172   4.496   8.203   1.475 -0.6023 -1.9630  1.1331
   17CHTO    C8 7173   4.595   8.050   1.572  0.7009  0.7742  0.1225
   17CHTO   H21 7174   4.696   8.015   1.592  0.5175  1.5506  2.6413
   17CHTO    O7 7175   4.503   7.945   1.554  0.1016 -0.0461  0.3331
   17CHTO    H2 7176   4.539   7.890   1.487  0.8035  0.4194  0.3200
   17CHTO   C12 7177   4.575   8.136   1.702  0.6030 -0.3030 -0.5478
   17CHTO   H25 7178   4.484   8.200   1.698 -0.0707 -1.2841 -1.2048
   17CHTO    N3 7179   4.570   8.047   1.828  0.0845 -0.4300  0.7720
   17CHTO   H12 7180   4.474   8.002   1.849  0.1446 -1.0079 -0.1937
   17CHTO   H13 7181   4.621   8.076   1.918 -0.2447  1.4414  0.3737
   17CHTO   C15 7182   4.694   8.238   1.703 -0.4509 -0.1182 -0.3315
   17CHTO   H28 7183   4.792   8.194   1.723 -1.2450 -0.4044  3.4027
   17CHTO   O10 7184   4.669   8.345   1.805 -0.2615 -0.2031  0.1268
   17CHTO    H4 7185   4.742   8.404   1.808  3.0898 -4.1473 -0.1273
   17CHTO    O5 7186   4.698   8.324   1.588  0.0419 -0.2278  0.4478
   17CHTO   C10 7187   4.700   8.258   1.463  0.1822 -0.0756  0.3392
   17CHTO   H23 7188   4.801   8.217   1.457  1.2811  2.1567  2.4180
   17CHTO   C17 7189   4.683   8.366   1.357  0.5899 -0.2158  0.3542
   17CHTO   O12 7190   4.769   8.473   1.351  0.1187  0.2883 -0.0780
   17CHTO    H6 7191   4.714   8.547   1.333  1.6825  0.8918 -2.6509
   18CHTO  H203 7192   6.005   8.058   2.190  0.0557 -2.0978  0.1057
   18CHTO   O82 7193   6.076   8.070   2.130 -0.0739  0.0945  0.3743
   18CHTO  C123 7194   6.032   8.089   1.994 -0.1993  0.1196 -0.2028
   18CHTO  H227 7195   5.937   8.144   1.999 -1.5894 -2.3083  1.1496
   18CHTO   O77 7196   6.139   8.167   1.936  0.4153  0.4070  0.0643
   18CHTO  C118 7197   6.103   8.209   1.809 -0.4833  0.0412 -0.0618
   18CHTO  H222 7198   6.004   8.258   1.812 -0.4287  0.0874  1.0950
   18CHTO  C125 7199   6.212   8.314   1.763 -0.2867  0.6263  0.0161
   18CHTO   O84 7200   6.214   8.422   1.859  0.4774 -0.3295 -0.9595
   18CHTO  H205 7201   6.264   8.384   1.929 -1.1610 -0.7417  0.0259
   18CHTO  C114 7202   6.103   8.084   1.713  0.3274 -0.0349  0.8634
   18CHTO  H218 7203   6.204   8.043   1.710 -0.5045 -2.2157  1.2454
   18CHTO  C116 7204   6.006   7.968   1.768  0.2706 -0.3807  0.3596
   18CHTO  H220 7205   5.907   8.001   1.732  0.0061 -0.8616  0.6468
   18CHTO   O79 7206   6.036   7.841   1.702  0.5256 -0.4496 -0.5010
   18CHTO  H201 7207   5.973   7.832   1.634  0.6873 -0.4927 -0.6462
   18CHTO  C120 7208   6.016   7.949   1.922 -0.2329 -0.4159  0.0681
   18CHTO  H224 7209   6.112   7.895   1.937  0.1046 -0.1638 -1.0822
   18CHTO   N21 7210   5.904   7.870   1.986  0.4048 -0.5041 -0.1216
   18CHTO  H211 7211   5.950   7.812   2.065 -0.5385 -0.2772  0.5963
   18CHTO  H212 7212   5.827   7.937   2.021  1.0732  0.1858  0.0465
   18CHTO   O75 7213   6.068   8.126   1.576  0.5446  0.6253  0.4814
   18CHTO  C112 7214   6.179   8.092   1.472  0.2746 -0.5572 -0.1359
   18CHTO  H216 7215   6.259   8.026   1.509 -0.1566 -0.5001  0.9211
   18CHTO   O73 7216   6.232   8.217   1.431  0.1466  0.3037 -0.4349
   18CHTO  C113 7217   6.339   8.206   1.339 -0.0857 -0.2653  1.2268
   18CHTO  H217 7218   6.420   8.143   1.382 -1.0857 -2.3174  0.1509
   18CHTO  C124 7219   6.389   8.351   1.329 -0.1680  0.3182 -0.7006
   18CHTO   O83 7220   6.473   8.370   1.444  0.4880 -0.6974  0.1130
   18CHTO  H204 7221   6.462   8.460   1.467 -1.3008 -0.9844  0.5196
   18CHTO  C109 7222   6.307   8.149   1.202 -0.1695 -0.4221 -0.4783
   18CHTO  H213 7223   6.239   8.222   1.154 -1.3161 -2.9605 -2.8869
   18CHTO  C110 7224   6.232   8.008   1.231  1.2567 -0.0082  0.2692
   18CHTO  H214 7225   6.299   7.927   1.258 -0.8347 -1.2466  1.9633
   18CHTO   O78 7226   6.185   7.963   1.102 -0.3661 -0.9391  0.0182
   18CHTO  H200 7227   6.095   7.988   1.089 -0.6457 -1.5895  0.6799
   18CHTO  C111 7228   6.123   8.016   1.340  0.5047 -0.0529  0.3417
   18CHTO  H215 7229   6.044   8.083   1.303  0.7568  0.3691  0.5492
   18CHTO   N19 7230   6.063   7.885   1.372 -0.2096  0.1445 -0.6160
   18CHTO  H207 7231   5.959   7.898   1.399  0.2656  0.7236  1.0422
   18CHTO  H208 7232   6.110   7.854   1.465  0.1394 -1.8345 -1.4353
   18CHTO   O74 7233   6.429   8.142   1.122  0.0275 -0.9672  0.9799
   18CHTO  C115 7234   6.407   8.204   0.971  0.1262 -0.3728 -0.3683
   18CHTO  H219 7235   6.318   8.160   0.924  0.8425 -1.8310 -0.3794
   18CHTO   O76 7236   6.377   8.378   0.978  0.5104 -0.3725  0.4899
   18CHTO  C122 7237   6.367   8.447   0.853 -0.2293  0.3850 -0.5184
   18CHTO  H226 7238   6.363   8.553   0.878  1.4319  0.0474  1.3235
   18CHTO  C126 7239   6.232   8.421   0.781 -0.0687  0.3574 -0.4450
   18CHTO   O85 7240   6.209   8.489   0.662 -0.2006 -0.4109  0.4302
   18CHTO  H206 7241   6.118   8.512   0.663  0.0722  0.8823 -1.6589
   18CHTO  C121 7242   6.488   8.407   0.753 -0.3905 -0.6293  0.1700
   18CHTO  H225 7243   6.478   8.453   0.652  1.3978 -1.2410 -0.3110
   18CHTO   O81 7244   6.612   8.467   0.804 -0.1536  0.1242  0.5441
   18CHTO  H202 7245   6.592   8.528   0.873 -3.2042  0.6788 -0.7489
   18CHTO  C119 7246   6.513   8.255   0.738 -0.2017  0.1615  0.1748
   18CHTO  H223 7247   6.423   8.214   0.694  0.5178 -0.3380 -0.8369
   18CHTO  C117 7248   6.537   8.181   0.882 -0.2041  0.6183 -0.1527
   18CHTO  H221 7249   6.619   8.217   0.944 -1.0772 -2.3418  2.8771
   18CHTO   N20 7250   6.575   8.036   0.866  0.7139 -0.0775  0.4856
   18CHTO  H209 7251   6.490   7.970   0.863 -0.2792  1.2137 -3.9387
   18CHTO  H210 7252   6.647   7.999   0.938 -1.3946 -1.5195  1.9288
   18CHTO   O80 7253   6.629   8.222   0.623  0.1903  0.7671 -0.3266
   18CHTO  C103 7254   6.589   8.135   0.489  0.3036  0.3335  0.5707
   18CHTO  H190 7255   6.677   8.124   0.425  0.6125  0.9619  0.8945
   18CHTO  C101 7256   6.531   7.992   0.513 -0.0125  0.0558 -0.1905
   18CHTO  H188 7257   6.453   8.002   0.589 -0.2513  0.9308 -0.5497
   18CHTO   O68 7258   6.660   7.903   0.557  0.5020 -0.6754  0.2790
   18CHTO  H168 7259   6.724   7.896   0.489  1.0172 -2.0135  0.8941
   18CHTO   C99 7260   6.470   7.934   0.373 -0.3042 -0.1900 -0.4480
   18CHTO  H186 7261   6.554   7.933   0.300  0.2822  0.1497  0.2175
   18CHTO   N17 7262   6.417   7.796   0.383  0.0011  0.1298 -0.4216
   18CHTO  H174 7263   6.449   7.740   0.469  1.4151 -0.9822 -1.6590
   18CHTO  H175 7264   6.310   7.813   0.382  0.0259  0.3306  0.2364
   18CHTO   C97 7265   6.364   8.031   0.325 -0.2800 -0.1866  0.1076
   18CHTO  H184 7266   6.292   8.033   0.409 -0.2267  1.1265  0.1295
   18CHTO   O64 7267   6.421   8.162   0.301 -0.7038  0.7747 -0.2129
   18CHTO  C104 7268   6.485   8.223   0.413 -0.2969 -0.6341 -0.2792
   18CHTO  H191 7269   6.404   8.246   0.482  0.0695 -1.6509  0.4990
   18CHTO  C108 7270   6.548   8.350   0.364 -0.3513  0.9857 -0.1067
   18CHTO   O71 7271   6.452   8.454   0.342 -0.3661 -0.2773  0.3326
   18CHTO  H171 7272   6.407   8.479   0.421  0.0035 -0.1549  0.5033
   18CHTO   O62 7273   6.295   7.992   0.203 -0.3730  0.5425 -0.6169
   18CHTO   C91 7274   6.157   8.018   0.193  0.2452  0.1374 -0.3638
   18CHTO  H178 7275   6.127   8.033   0.297 -0.8247  0.9908 -0.7774
   18CHTO   C92 7276   6.067   7.890   0.151 -0.2981  1.0274  0.7236
   18CHTO  H179 7277   6.100   7.850   0.054 -2.3333 -2.5463  1.3992
   18CHTO   O66 7278   6.109   7.778   0.234 -0.4511  0.0047 -0.2268
   18CHTO  H166 7279   6.195   7.752   0.206 -0.0816 -0.6623  1.4744
   18CHTO   C93 7280   5.917   7.921   0.170 -0.2923 -0.3559  0.2688
   18CHTO  H180 7281   5.897   7.910   0.278 -1.6040 -0.8523 -0.0220
   18CHTO   N16 7282   5.828   7.824   0.098 -0.3292 -0.5503  0.3012
   18CHTO  H172 7283   5.891   7.740   0.072 -1.3888 -0.6336 -2.0672
   18CHTO  H173 7284   5.737   7.792   0.146  0.4916 -1.6974  1.1213
   18CHTO   C94 7285   5.873   8.066   0.121  0.1369 -0.6664 -0.1963
   18CHTO  H181 7286   5.855   8.070   0.014 -0.8773  1.5115  0.0428
   18CHTO   O61 7287   5.971   8.171   0.152  0.6798 -0.1720  0.0946
   18CHTO   C95 7288   6.105   8.145   0.112 -0.8566  0.2645  0.2739
   18CHTO  H182 7289   6.106   8.119   0.006  0.3488  2.6756 -0.3586
   18CHTO  C106 7290   6.196   8.274   0.134  0.3822 -0.6008  0.1997
   18CHTO   O69 7291   6.157   8.364   0.029 -0.0705  0.2180  0.3260
   18CHTO  H169 7292   6.077   8.405   0.055  0.0886  0.5843  0.2434
   18CHTO   O63 7293   5.745   8.116   0.201  0.3240  0.9109 -0.6150
   18CHTO   C96 7294   5.682   8.252   0.156 -0.2866 -0.3697 -0.3125
   18CHTO  H183 7295   5.742   8.283   0.071  0.2213  0.9593  0.5141
   18CHTO   C98 7296   5.706   8.367   0.253 -0.6396  0.1449 -0.6343
   18CHTO  H185 7297   5.675   8.339   0.355  0.0094 -1.7393 -0.9464
   18CHTO   O67 7298   5.845   8.399   0.259 -0.9916 -0.6287  0.6646
   18CHTO  H167 7299   5.858   8.473   0.315 -0.6795  0.0669 -0.3063
   18CHTO  C102 7300   5.636   8.502   0.191 -0.1813  0.5284  0.4788
   18CHTO  H189 7301   5.705   8.529   0.109 -1.9384 -1.2670 -1.6596
   18CHTO   N18 7302   5.642   8.611   0.294 -0.2140 -0.4006  0.0820
   18CHTO  H176 7303   5.550   8.621   0.349 -0.0250  1.4663  0.0923
   18CHTO  H177 7304   5.661   8.700   0.236  0.6187  0.2142  1.2868
   18CHTO  C105 7305   5.494   8.474   0.134  0.6195  0.4819  0.7966
   18CHTO  H192 7306   5.423   8.468   0.217  0.8115  0.4291  0.9565
   18CHTO   O65 7307   5.475   8.349   0.059  0.3478 -0.0158  0.4221
   18CHTO  C100 7308   5.536   8.236   0.116  0.0607  0.3386 -0.7126
   18CHTO  H187 7309   5.482   8.204   0.206  2.0958 -2.0661 -0.2684
   18CHTO  C107 7310   5.506   8.120   0.020  0.2772  0.4992  0.6106
   18CHTO   O70 7311   5.539   8.136  -0.118 -0.3209  0.4950 -0.0804
   18CHTO  H170 7312   5.612   8.080  -0.138 -0.7611  0.4738 -1.7287
   18CHTO   O57 7313   5.471   8.606   0.036 -0.1266 -0.1459  0.0060
   18CHTO   C85 7314   5.343   8.639  -0.024  0.1142  0.3899  0.7570
   18CHTO  H157 7315   5.368   8.715  -0.101  0.5425  0.8943  1.3953
   18CHTO   C83 7316   5.255   8.718   0.080 -0.1533  0.2744  0.1388
   18CHTO  H155 7317   5.303   8.807   0.121  0.9133  0.8875 -2.3711
   18CHTO   O56 7318   5.227   8.622   0.189  0.2050 -0.0161  0.0661
   18CHTO  H135 7319   5.305   8.610   0.239  1.9005  3.1739 -1.6668
   18CHTO   C81 7320   5.119   8.751   0.016  0.1017 -0.4833  0.0956
   18CHTO  H153 7321   5.137   8.810  -0.074  0.2220 -0.1305  0.3549
   18CHTO   N14 7322   5.032   8.836   0.103 -0.4432  0.2875 -0.0742
   18CHTO  H141 7323   4.934   8.793   0.107 -1.2770  2.0930 -0.3031
   18CHTO  H142 7324   5.072   8.837   0.202 -2.7784 -1.4619  0.9380
   18CHTO   C79 7325   5.041   8.621  -0.029  0.1051 -0.6875  0.0625
   18CHTO  H151 7326   4.943   8.650  -0.067 -0.6925  1.0669  3.2273
   18CHTO   O52 7327   5.127   8.546  -0.127  0.1434 -0.1223 -0.0954
   18CHTO   C86 7328   5.269   8.516  -0.090  0.5178  0.5165 -0.6268
   18CHTO  H158 7329   5.271   8.433  -0.017 -1.1798 -0.1650 -1.3450
   18CHTO   C90 7330   5.339   8.466  -0.215 -0.1467  0.5499  0.6107
   18CHTO   O60 7331   5.273   8.367  -0.286  0.4123  0.1590 -0.3293
   18CHTO  H138 7332   5.286   8.389  -0.377  0.3974 -1.4132 -0.7275
   18CHTO   O50 7333   5.000   8.532   0.080  0.0418  0.2854 -0.0863
   18CHTO   C73 7334   4.935   8.418   0.131  0.0342  0.6867 -0.1488
   18CHTO  H145 7335   4.957   8.331   0.068 -0.7583  0.5471 -0.2319
   18CHTO   C74 7336   4.779   8.447   0.135 -0.0284  0.1382  0.1393
   18CHTO  H146 7337   4.735   8.467   0.036 -1.9884  1.7936  1.3169
   18CHTO   O54 7338   4.719   8.320   0.179  0.3596 -0.6987  0.2601
   18CHTO  H133 7339   4.701   8.264   0.107 -0.7828 -0.5952  0.4641
   18CHTO   C75 7340   4.762   8.567   0.232  0.2523  0.1749 -0.3138
   18CHTO  H147 7341   4.827   8.646   0.192  2.3086 -2.1107 -1.6651
   18CHTO   N13 7342   4.625   8.626   0.243  0.1447  0.5349  0.1775
   18CHTO  H139 7343   4.631   8.709   0.312 -1.4024 -0.3345  1.4117
   18CHTO  H140 7344   4.596   8.657   0.144 -1.4498 -0.6771  0.2555
   18CHTO   C76 7345   4.825   8.543   0.380  0.4735 -0.2781 -0.0758
   18CHTO  H148 7346   4.775   8.462   0.433 -0.3121 -0.0912 -0.5255
   18CHTO   O49 7347   4.966   8.503   0.369 -0.1827  0.0698 -0.0589
   18CHTO   C77 7348   4.988   8.387   0.282  0.3826 -0.3633  0.1662
   18CHTO  H149 7349   4.941   8.297   0.321  1.5008 -0.4066  1.4473
   18CHTO   C88 7350   5.138   8.345   0.288  0.2293  0.3501 -0.0115
   18CHTO   O58 7351   5.167   8.216   0.188 -0.2704 -0.0730  0.0503
   18CHTO  H136 7352   5.188   8.259   0.108  0.2395 -0.1516  0.1408
   18CHTO   O51 7353   4.814   8.684   0.477  0.4839 -0.4339 -0.2068
   18CHTO   C78 7354   4.855   8.650   0.635 -0.4295  0.6728  0.5781
   18CHTO  H150 7355   4.891   8.547   0.658 -1.9240 -0.7779 -3.1249
   18CHTO   C80 7356   4.730   8.682   0.722  0.2358 -0.3925  0.2539
   18CHTO  H152 7357   4.696   8.786   0.704 -0.9919 -1.2097 -2.4911
   18CHTO   O55 7358   4.627   8.591   0.677 -0.2813 -0.3997  0.0842
   18CHTO  H134 7359   4.597   8.611   0.591  0.5807  0.6729  0.0249
   18CHTO   C84 7360   4.772   8.667   0.873  0.1388  0.8342 -0.3558
   18CHTO  H156 7361   4.806   8.565   0.888 -1.8214  0.3911  1.2647
   18CHTO   N15 7362   4.651   8.694   0.959  0.4523  0.2913 -0.1206
   18CHTO  H143 7363   4.594   8.772   0.912 -1.7833 -0.6526  0.9273
   18CHTO  H144 7364   4.585   8.610   0.969 -1.0254  1.5444  0.9807
   18CHTO   C87 7365   4.886   8.765   0.911  0.0927  0.7748 -0.0655
   18CHTO  H159 7366   4.853   8.865   0.885 -2.0174  0.0772 -0.1999
   18CHTO   O53 7367   5.003   8.731   0.814 -0.6994 -0.3281 -0.5163
   18CHTO   C82 7368   4.966   8.748   0.678 -0.3811  0.1597  0.1461
   18CHTO  H154 7369   4.936   8.852   0.660 -1.5753 -0.1024  0.5363
   18CHTO   C89 7370   5.090   8.729   0.598  0.3580 -0.4737 -0.1698
   18CHTO   O59 7371   5.090   8.803   0.478 -0.4625 -0.1741 -0.0128
   18CHTO  H137 7372   5.119   8.755   0.402 -0.0401 -0.1945  0.1579
   18CHTO   O45 7373   4.947   8.749   1.059 -0.2432 -0.1142 -0.0794
   18CHTO   C67 7374   5.086   8.757   1.091  0.2225 -0.0712 -0.5543
   18CHTO  H124 7375   5.139   8.739   0.998 -2.0088 -1.4974 -1.5726
   18CHTO   C65 7376   5.119   8.902   1.136  0.2767 -0.2256 -0.4044
   18CHTO  H122 7377   5.030   8.954   1.171 -0.4311 -0.1767 -2.1928
   18CHTO   O44 7378   5.155   8.975   1.017  0.1029 -0.0469 -0.6952
   18CHTO  H102 7379   5.236   9.021   1.031  0.3494 -0.2103 -1.5841
   18CHTO   C63 7380   5.216   8.897   1.256 -0.2434  0.5456 -0.1586
   18CHTO  H120 7381   5.159   8.869   1.344  0.8292  1.5046  0.8572
   18CHTO   N11 7382   5.268   9.030   1.308 -0.3621 -0.4202  0.6513
   18CHTO  H108 7383   5.182   9.091   1.324  0.1621  0.5253 -0.1565
   18CHTO  H109 7384   5.326   9.014   1.396  1.7447 -0.7875 -0.7706
   18CHTO   C61 7385   5.329   8.795   1.237 -0.0407  0.3736 -0.3032
   18CHTO  H118 7386   5.387   8.786   1.330 -0.3744 -2.0521 -0.3179
   18CHTO   O40 7387   5.274   8.659   1.217  0.4168 -0.0926 -0.6870
   18CHTO   C68 7388   5.131   8.647   1.188 -0.0806  0.1565 -0.3253
   18CHTO  H125 7389   5.082   8.645   1.287 -0.0696  0.2209 -0.3181
   18CHTO   C72 7390   5.112   8.504   1.122 -0.2227 -0.6350 -0.2294
   18CHTO   O48 7391   5.166   8.493   0.993 -0.5261 -0.1412  0.0632
   18CHTO  H105 7392   5.114   8.545   0.935  2.9115  4.1309  0.5221
   18CHTO   O38 7393   5.409   8.835   1.122  0.0268  0.0501  0.5462
   18CHTO   C55 7394   5.538   8.772   1.109 -0.7927  0.8514  0.4574
   18CHTO  H112 7395   5.542   8.673   1.156  0.4477  0.5855 -0.1884
   18CHTO   C56 7396   5.659   8.859   1.158 -0.2553 -0.2686  0.2199
   18CHTO  H113 7397   5.663   8.951   1.098  0.8700  0.0339  0.7347
   18CHTO   O42 7398   5.641   8.888   1.294  0.3165  0.2625 -0.0872
   18CHTO  H100 7399   5.556   8.859   1.321  1.8437 -4.7853 -0.1988
   18CHTO   C57 7400   5.795   8.780   1.144  0.2335  0.4983 -0.0563
   18CHTO  H114 7401   5.790   8.699   1.216  1.9492 -0.8085 -1.3567
   18CHTO   N10 7402   5.920   8.858   1.175 -0.0802  0.3153  0.5886
   18CHTO  H106 7403   5.948   8.848   1.279 -1.3279 -0.9146  0.8240
   18CHTO  H107 7404   5.931   8.962   1.150 -2.7147  0.6205  0.5472
   18CHTO   C58 7405   5.812   8.719   1.003  0.6510 -0.4495 -0.3201
   18CHTO  H115 7406   5.856   8.795   0.934  0.6887 -0.8699 -0.7581
   18CHTO   O37 7407   5.685   8.672   0.954  0.1357  0.3797 -0.2293
   18CHTO   C59 7408   5.554   8.744   0.953 -0.9617 -0.3083 -0.4189
   18CHTO  H116 7409   5.567   8.840   0.902 -2.4157 -0.4469 -1.0720
   18CHTO   C70 7410   5.440   8.672   0.887  0.1970  0.6494 -0.1165
   18CHTO   O46 7411   5.457   8.643   0.751 -0.4986 -0.0113  0.3343
   18CHTO  H103 7412   5.396   8.584   0.713  1.8745 -2.1424 -0.2767
   18CHTO   O39 7413   5.908   8.584   0.992 -0.3854  0.2493  0.8404
   18CHTO   C60 7414   5.863   8.470   1.061 -0.1226  0.5284  0.8447
   18CHTO  H117 7415   5.777   8.495   1.124 -0.4424  1.3588  0.0893
   18CHTO   C62 7416   5.808   8.369   0.955  0.4086 -0.7696 -0.1247
   18CHTO  H119 7417   5.735   8.426   0.895 -0.9627 -3.0319 -0.6620
   18CHTO   O43 7418   5.913   8.330   0.873 -0.0719  0.1087 -0.1130
   18CHTO  H101 7419   5.889   8.279   0.798 -0.5935 -3.0086  2.0918
   18CHTO   C66 7420   5.723   8.259   1.029 -0.4268 -0.2292  0.3444
   18CHTO  H123 7421   5.643   8.310   1.083 -0.5769 -1.7728  1.6140
   18CHTO   N12 7422   5.655   8.168   0.935  0.4140  0.1303  0.4593
   18CHTO  H110 7423   5.602   8.223   0.859  1.6282  1.9356  0.9088
   18CHTO  H111 7424   5.591   8.110   1.000  0.9084 -0.6131  0.2903
   18CHTO   C69 7425   5.809   8.196   1.137 -0.0568  0.3814 -0.0978
   18CHTO  H126 7426   5.881   8.129   1.085 -0.4956  0.4462 -0.8001
   18CHTO   O41 7427   5.894   8.308   1.223 -0.7140  0.9588  0.0094
   18CHTO   C64 7428   5.970   8.389   1.149  0.4147 -0.2752  0.9913
   18CHTO  H121 7429   6.044   8.332   1.090 -0.0162 -1.3239  1.4573
   18CHTO   C71 7430   6.063   8.485   1.235  0.3024  0.6997 -0.3018
   18CHTO   O47 7431   6.178   8.529   1.168 -0.8003 -0.4964 -0.2798
   18CHTO  H104 7432   6.148   8.595   1.108  0.3971  0.1019 -0.2319
   18CHTO   O34 7433   5.720   8.093   1.233  0.3561 -0.0112  0.0211
   18CHTO   C49 7434   5.646   8.086   1.367 -0.2318  0.2503 -0.5236
   18CHTO   H91 7435   5.675   7.987   1.403  0.1405 -0.1340 -1.8597
   18CHTO   C47 7436   5.493   8.096   1.348  0.5605  0.0569 -0.1829
   18CHTO   H89 7437   5.460   8.073   1.451  3.7558  0.9109  1.0967
   18CHTO   O33 7438   5.449   7.990   1.260 -1.0671 -0.0502 -0.5471
   18CHTO   H70 7439   5.453   7.906   1.301 -0.3796  0.7564  1.0492
   18CHTO   C45 7440   5.449   8.245   1.307 -0.2991 -0.6477 -0.2654
   18CHTO   H87 7441   5.521   8.274   1.229  0.5963 -1.2237  0.3371
   18CHTO    N8 7442   5.312   8.244   1.250 -0.0552  0.3841 -0.5445
   18CHTO   H75 7443   5.313   8.262   1.144  0.2225 -0.6381 -0.7185
   18CHTO   H76 7444   5.261   8.326   1.298 -0.6964 -0.6729  0.6327
   18CHTO   C43 7445   5.489   8.342   1.425  0.2179  0.4891 -0.8391
   18CHTO   H85 7446   5.461   8.444   1.402 -1.4203  0.7421  1.9554
   18CHTO   O29 7447   5.624   8.328   1.458  0.0222  0.4742  0.0556
   18CHTO   C50 7448   5.683   8.195   1.469 -0.6048 -0.2655  0.0525
   18CHTO   H92 7449   5.789   8.220   1.453 -0.2940 -1.6972 -0.2040
   18CHTO   C54 7450   5.673   8.142   1.615  0.1621 -0.0510 -0.6282
   18CHTO   O36 7451   5.750   8.216   1.709 -0.9762 -0.0305 -0.3506
   18CHTO   H72 7452   5.838   8.197   1.683 -1.0854 -0.4149 -0.4435
   18CHTO   O27 7453   5.414   8.312   1.546  0.4794  0.2699  0.7475
   18CHTO   C37 7454   5.346   8.405   1.630  0.1115  0.2318  0.5297
   18CHTO   H79 7455   5.320   8.361   1.727  0.5464 -0.0714  0.5106
   18CHTO   C38 7456   5.428   8.537   1.660 -0.0850  0.0594 -0.6913
   18CHTO   H80 7457   5.474   8.566   1.564  0.8248 -0.3641 -0.3959
   18CHTO   O31 7458   5.529   8.505   1.756  0.0284  0.0390  0.2187
   18CHTO   H68 7459   5.602   8.562   1.741 -0.4301  0.8043  0.8703
   18CHTO   C39 7460   5.330   8.658   1.712  0.7042  0.1125  0.9768
   18CHTO   H81 7461   5.271   8.615   1.793 -1.1269  1.0136  0.1553
   18CHTO    N7 7462   5.400   8.781   1.762  0.0286 -0.1014 -0.2691
   18CHTO   H73 7463   5.459   8.830   1.685  0.6591 -1.0253 -0.3928
   18CHTO   H74 7464   5.464   8.760   1.846  1.0993  0.2362 -0.9861
   18CHTO   C40 7465   5.227   8.689   1.600  0.4641 -0.2283  0.8008
   18CHTO   H82 7466   5.277   8.703   1.504  2.3344  1.5065  1.9870
   18CHTO   O26 7467   5.147   8.574   1.603 -0.6594  0.3794 -0.1547
   18CHTO   C41 7468   5.213   8.455   1.556 -0.0054  0.0518 -0.0192
   18CHTO   H83 7469   5.226   8.466   1.448  2.6634 -1.1337  0.1421
   18CHTO   C52 7470   5.106   8.347   1.563 -0.4814  0.8606  0.5507
   18CHTO   O35 7471   5.062   8.300   1.682  0.0119  0.2174  0.4707
   18CHTO   H71 7472   5.021   8.216   1.669 -0.8862  0.9719 -1.8155
   18CHTO   O28 7473   5.139   8.797   1.617 -0.0645 -0.1805  0.3759
   18CHTO   C42 7474   4.995   8.805   1.656  0.0125 -0.3723  0.0854
   18CHTO   H84 7475   4.982   8.911   1.679  2.5850  0.1850 -0.7938
   18CHTO   C44 7476   4.952   8.732   1.784 -0.6511 -0.0994  1.1167
   18CHTO   H86 7477   4.952   8.625   1.764  0.3035  0.1787 -0.4939
   18CHTO   O32 7478   5.037   8.772   1.893 -0.2810  0.5363 -0.0632
   18CHTO   H69 7479   5.005   8.846   1.942  1.4968  1.4419 -0.2409
   18CHTO   C48 7480   4.799   8.764   1.824 -1.3246 -0.4533 -0.0352
   18CHTO   H90 7481   4.799   8.869   1.851  0.8174 -0.6303  0.7336
   18CHTO    N9 7482   4.756   8.685   1.946 -0.0221 -0.0780  0.0882
   18CHTO   H77 7483   4.796   8.724   2.038 -1.1263  0.6965  0.2485
   18CHTO   H78 7484   4.775   8.579   1.933  0.5471  0.0894 -0.4757
   18CHTO   C51 7485   4.697   8.745   1.707  0.2592 -0.2367  0.3001
   18CHTO   H93 7486   4.688   8.638   1.686 -0.3281 -0.1812  0.2617
   18CHTO   O30 7487   4.753   8.820   1.593  0.1671 -0.1974 -0.4891
   18CHTO   C46 7488   4.893   8.775   1.543  0.2508 -0.2227  0.4005
   18CHTO   H88 7489   4.902   8.670   1.515  3.1838  0.1140 -0.1353
   18CHTO   C53 7490   4.912   8.854   1.420 -0.6757 -0.3580 -0.1943
   18CHTO   O72 7491   4.811   8.827   1.315 -0.0784  0.0737 -0.4689
   18CHTO  H199 7492   4.791   8.908   1.274  0.4186 -1.0339 -2.9646
   18CHTO   O22 7493   4.564   8.804   1.733 -0.4138 -0.1698  0.3187
   18CHTO   C31 7494   4.458   8.810   1.628 -0.4254  0.4567 -0.1492
   18CHTO   H59 7495   4.367   8.843   1.682  0.0639  0.3332  0.7514
   18CHTO   C29 7496   4.484   8.911   1.511  0.4217 -0.3516  0.0279
   18CHTO   H57 7497   4.572   8.874   1.456 -0.1439 -1.3134 -0.2383
   18CHTO   O21 7498   4.509   9.040   1.571  0.1548  0.0606 -0.1529
   18CHTO   H37 7499   4.431   9.058   1.619  1.3703  2.3202  1.0624
   18CHTO   C27 7500   4.358   8.911   1.414  0.2883 -0.3762  0.6037
   18CHTO   H55 7501   4.271   8.955   1.465  0.1068 -0.1804  0.1385
   18CHTO    N5 7502   4.383   8.994   1.291  0.6703  0.0795 -0.0196
   18CHTO   H43 7503   4.403   8.939   1.200 -0.3147  0.6910 -0.6004
   18CHTO   H44 7504   4.307   9.069   1.277  0.4957  0.2382  1.6952
   18CHTO   C25 7505   4.321   8.765   1.372  0.3994  0.0097 -0.2200
   18CHTO   H53 7506   4.406   8.710   1.329  0.0296  0.3877 -1.4444
   18CHTO   O17 7507   4.297   8.687   1.494 -0.2042 -0.2840  0.2206
   18CHTO   C32 7508   4.417   8.671   1.566 -0.0572 -0.0931 -0.2542
   18CHTO   H60 7509   4.495   8.638   1.498  1.1190 -1.6942  1.8022
   18CHTO   C36 7510   4.399   8.558   1.676 -0.2347 -0.1943 -0.1997
   18CHTO   O25 7511   4.372   8.435   1.603  0.1608  0.3280 -0.0182
   18CHTO   H40 7512   4.312   8.391   1.659 -0.0328  1.7337  0.9073
   18CHTO   O15 7513   4.178   8.754   1.290  0.1253 -0.0455  0.6069
   18CHTO   C19 7514   4.159   8.669   1.175 -0.1986  0.1427  0.3536
   18CHTO   H47 7515   4.049   8.666   1.163 -0.2029 -0.0042  0.4228
   18CHTO   C20 7516   4.226   8.735   1.045 -0.4582 -0.2863 -0.0102
   18CHTO   H48 7517   4.332   8.757   1.062 -0.7356 -1.2393  3.2156
   18CHTO   O19 7518   4.150   8.858   1.016  0.1167  0.2651  0.1200
   18CHTO   H35 7519   4.193   8.935   1.047  2.8906 -0.9592 -0.5066
   18CHTO   C21 7520   4.208   8.628   0.924 -0.5145 -0.1986  0.0936
   18CHTO   H49 7521   4.103   8.625   0.896  0.3055  0.7798 -3.2579
   18CHTO    N4 7522   4.271   8.675   0.794  0.4956  0.1852 -0.6568
   18CHTO   H41 7523   4.231   8.611   0.717  0.1051 -1.0579  0.5583
   18CHTO   H42 7524   4.379   8.666   0.796  0.5216  0.7164  0.5035
   18CHTO   C22 7525   4.268   8.488   0.965 -0.4799  0.2098 -0.4433
   18CHTO   H50 7526   4.373   8.509   0.986  0.0027 -1.9345 -0.5418
   18CHTO   O14 7527   4.201   8.437   1.080 -0.1377 -0.1056  0.1607
   18CHTO   C23 7528   4.199   8.516   1.202  0.3829 -0.6966 -0.6027
   18CHTO   H51 7529   4.298   8.504   1.247 -0.2707 -1.2689  0.6981
   18CHTO   C34 7530   4.092   8.462   1.294  0.4956 -0.1525 -0.5792
   18CHTO   O23 7531   4.126   8.455   1.431 -0.1165 -0.8745  0.3505
   18CHTO   H38 7532   4.063   8.503   1.482  0.4725  1.8390 -1.4503
   18CHTO   O16 7533   4.248   8.385   0.866 -0.2666 -0.1597  0.2652
   18CHTO   C24 7534   4.386   8.348   0.767  0.1130 -0.4502  0.2355
   18CHTO   H52 7535   4.453   8.434   0.758 -1.2922  0.6561  0.1961
   18CHTO   C26 7536   4.349   8.319   0.621 -0.3115 -0.4237  0.0980
   18CHTO   H54 7537   4.290   8.225   0.621  0.9468 -1.2282  0.2660
   18CHTO   O20 7538   4.271   8.423   0.565  0.3521 -0.2696  0.5487
   18CHTO   H36 7539   4.203   8.442   0.626  0.4560 -1.1937  0.9627
   18CHTO   C30 7540   4.475   8.305   0.523 -0.7849  0.1932 -0.2797
   18CHTO   H58 7541   4.523   8.404   0.523 -0.7424  0.1878  1.2910
   18CHTO    N6 7542   4.443   8.275   0.382 -0.2458 -0.6154 -0.2315
   18CHTO   H45 7543   4.402   8.356   0.324 -0.1116  0.3848  1.0518
   18CHTO   H46 7544   4.391   8.184   0.357  1.7140 -1.8971  0.2832
   18CHTO   C33 7545   4.566   8.201   0.596 -0.1021 -0.0129  0.4735
   18CHTO   H61 7546   4.519   8.102   0.600  1.1843 -0.5479  3.5827
   18CHTO   O18 7547   4.586   8.229   0.738 -0.0637 -0.4942  0.2033
   18CHTO   C28 7548   4.466   8.234   0.828  0.4386  0.2432  0.6369
   18CHTO   H56 7549   4.411   8.141   0.817 -0.1353  0.8767 -2.2505
   18CHTO   C35 7550   4.507   8.250   0.980  1.0392  0.2336  0.3178
   18CHTO   O24 7551   4.389   8.238   1.070 -0.5361 -0.2969  0.0834
   18CHTO   H39 7552   4.350   8.321   1.091 -1.0440  0.0369 -2.1123
   18CHTO    O9 7553   4.691   8.185   0.531 -0.1688  0.2576 -0.0016
   18CHTO   C13 7554   4.788   8.092   0.596 -0.9918 -0.2047  0.0934
   18CHTO   H26 7555   4.728   8.017   0.653 -0.3652 -0.5725  0.2694
   18CHTO   C11 7556   4.897   8.169   0.687  0.8985 -0.0141  0.5507
   18CHTO   H24 7557   4.857   8.201   0.784  1.3244 -1.6741  1.2947
   18CHTO    O8 7558   4.937   8.287   0.619 -0.7329 -0.7447  0.1067
   18CHTO    H3 7559   4.900   8.299   0.534 -0.9266 -0.0336  0.2874
   18CHTO    C9 7560   5.009   8.070   0.716  0.4775  0.1980 -0.1278
   18CHTO   H22 7561   4.960   7.977   0.746  1.4375 -0.2680  0.0262
   18CHTO    N2 7562   5.094   8.112   0.824  0.0359 -0.0337 -0.6653
   18CHTO   H10 7563   5.060   8.204   0.868 -2.1756  0.1176 -2.6083
   18CHTO   H11 7564   5.101   8.028   0.892  0.5737 -0.2610 -1.0010
   18CHTO    C7 7565   5.086   8.048   0.581  0.4698  0.4362  0.2012
   18CHTO   H20 7566   5.110   7.940   0.595 -2.0677 -0.6686 -3.2037
   18CHTO    O4 7567   5.002   8.062   0.465 -0.0605  0.2692  0.2452
   18CHTO   C14 7568   4.867   8.021   0.478 -0.0516  0.0157  0.5103
   18CHTO   H27 7569   4.867   7.913   0.503  0.1551  0.0041  0.4633
   18CHTO   C18 7570   4.805   8.035   0.335 -0.3077 -0.5786  0.1717
   18CHTO   O13 7571   4.681   7.969   0.334  0.8544  0.3015 -0.0984
   18CHTO    H7 7572   4.667   7.908   0.265  0.0018 -0.0627  0.3875
   18CHTO    O2 7573   5.229   8.135   0.557  0.7390 -0.8311 -0.3777
   18CHTO    C1 7574   5.350   8.085   0.490  0.7673 -0.4830  0.0765
   18CHTO   H14 7575   5.373   8.132   0.392  2.0201  0.8591  1.0069
   18CHTO    C2 7576   5.363   7.930   0.470 -0.1431 -0.1767  0.0562
   18CHTO   H15 7577   5.320   7.890   0.562 -0.3803  1.6862  0.7731
   18CHTO    O6 7578   5.279   7.895   0.359  0.2287  0.1666  0.6289
   18CHTO    H1 7579   5.187   7.895   0.376  0.2076  0.5290  0.5062
   18CHTO    C3 7580   5.507   7.888   0.441 -0.8510 -0.2053  0.3905
   18CHTO   H16 7581   5.525   7.918   0.337 -1.9714  0.6762  0.4414
   18CHTO    N1 7582   5.525   7.741   0.432 -0.2954  0.1955 -0.9398
   18CHTO    H8 7583   5.558   7.707   0.528  2.5554  3.2383 -0.7317
   18CHTO    H9 7584   5.430   7.697   0.407 -1.5407  1.0597  2.1052
   18CHTO    C4 7585   5.616   7.962   0.530 -0.0772 -0.5599 -0.0526
   18CHTO   H17 7586   5.610   7.922   0.631 -1.2326 -0.8343 -0.2276
   18CHTO    O1 7587   5.596   8.100   0.535 -0.8960 -0.2700  0.3995
   18CHTO    C5 7588   5.463   8.143   0.583 -0.3187 -0.1463  0.4768
   18CHTO   H18 7589   5.455   8.111   0.687  0.9204  1.0103  0.9502
   18CHTO   C16 7590   5.456   8.300   0.584 -0.4315 -0.5487 -0.0759
   18CHTO   O11 7591   5.561   8.354   0.664 -0.3345  0.1972  0.1323
   18CHTO    H5 7592   5.525   8.363   0.750 -1.5805 -0.4517 -0.3050
   18CHTO    O3 7593   5.755   7.943   0.481 -0.6999 -0.3330 -0.0680
   18CHTO    C6 7594   5.860   7.945   0.587  0.2349  0.0831 -0.0276
   18CHTO   H19 7595   5.816   7.971   0.683  1.0226  2.1919 -0.1997
   18CHTO    C8 7596   5.927   7.802   0.601 -0.0622 -0.1499 -0.2260
   18CHTO   H21 7597   5.958   7.774   0.500 -2.6044 -1.2127 -0.7535
   18CHTO    O7 7598   5.823   7.713   0.634  0.0957 -0.4073 -0.6059
   18CHTO    H2 7599   5.836   7.629   0.594  0.7279 -0.8492  0.5199
   18CHTO   C12 7600   6.042   7.820   0.714  0.2622 -0.6647 -0.1534
   18CHTO   H25 7601   5.992   7.857   0.806  0.7724 -0.5733  0.0848
   18CHTO    N3 7602   6.099   7.687   0.742  0.2110  0.0451 -0.5221
   18CHTO   H12 7603   6.206   7.680   0.728  0.0153 -2.1538 -1.1763
   18CHTO   H13 7604   6.069   7.647   0.838 -2.6733  0.1853 -1.3124
   18CHTO   C15 7605   6.142   7.930   0.663  0.3384 -0.2795  0.6055
   18CHTO   H28 7606   6.193   7.892   0.574  0.2494 -2.0330  1.2834
   18CHTO   O10 7607   6.238   7.980   0.766 -0.0783  0.0464  0.5236
   18CHTO    H4 7608   6.193   8.020   0.838 -1.9028 -0.8418 -0.0944
   18CHTO    O5 7609   6.072   8.056   0.645 -0.1122 -0.4415  0.2901
   18CHTO   C10 7610   5.969   8.055   0.545  0.6306  0.0517  0.6583
   18CHTO   H23 7611   5.995   8.025   0.444 -1.8259  1.1812 -0.3607
   18CHTO   C17 7612   5.907   8.199   0.531  0.6277  0.3209 -0.0151
   18CHTO   O12 7613   6.003   8.302   0.497  0.0203  0.8342  0.1464
   18CHTO    H6 7614   5.961   8.370   0.448  0.9938  0.1302 -1.7130
   19CHTO  H203 7615   4.780  10.010   2.545 -0.7087  1.0973  0.5282
   19CHTO   O82 7616   4.756   9.952   2.614 -0.7910 -0.0442 -0.4358
   19CHTO  C123 7617   4.723   9.813   2.568  0.3754  0.6053 -0.1704
   19CHTO  H227 7618   4.661   9.820   2.477  2.3991 -0.3423 -1.6733
   19CHTO   O77 7619   4.848   9.743   2.525 -0.1345  0.1075 -0.1358
   19CHTO  C118 7620   4.818   9.626   2.446 -0.1866  0.2291  0.5205
   19CHTO  H222 7621   4.750   9.639   2.361 -0.5175  1.4768  0.9611
   19CHTO  C125 7622   4.952   9.568   2.394  0.2909  0.2834  0.1633
   19CHTO   O84 7623   5.025   9.659   2.311 -0.0221 -0.1716  0.1484
   19CHTO  H205 7624   5.043   9.742   2.351  1.2014  0.2427 -1.2254
   19CHTO  C114 7625   4.754   9.517   2.537 -0.5280 -0.0093 -0.1430
   19CHTO  H218 7626   4.830   9.484   2.608  1.2420  1.7762 -1.1432
   19CHTO  C116 7627   4.628   9.578   2.605 -0.2281  1.2820  0.0550
   19CHTO  H220 7628   4.555   9.582   2.522  1.4701 -1.5443 -1.6352
   19CHTO   O79 7629   4.583   9.474   2.698  0.2708 -0.1993 -0.1821
   19CHTO  H201 7630   4.503   9.435   2.668  0.4651 -0.2305 -0.6633
   19CHTO  C120 7631   4.649   9.715   2.678 -0.4999 -0.5062  0.2903
   19CHTO  H224 7632   4.722   9.705   2.760  0.0620 -2.9221 -0.4691
   19CHTO   N21 7633   4.519   9.770   2.725  0.5728  0.2838  0.0053
   19CHTO  H211 7634   4.489   9.742   2.825  0.5055  0.9504  0.1738
   19CHTO  H212 7635   4.534   9.876   2.711  0.3467  0.6126  2.0821
   19CHTO   O75 7636   4.710   9.410   2.451 -0.3467  0.3390  0.1665
   19CHTO  C112 7637   4.779   9.270   2.479 -0.3055 -0.0078  0.2416
   19CHTO  H216 7638   4.746   9.235   2.578 -2.8537 -0.7089 -0.8073
   19CHTO   O73 7639   4.922   9.283   2.473  0.0303  0.1440  0.3810
   19CHTO  C113 7640   4.987   9.159   2.496 -0.0199  0.5994  0.6029
   19CHTO  H217 7641   4.952   9.098   2.582  2.1184 -1.2821  0.1792
   19CHTO  C124 7642   5.136   9.184   2.517  0.2027  0.1156  0.5486
   19CHTO   O83 7643   5.220   9.075   2.537 -0.5837  0.0887  0.2833
   19CHTO  H204 7644   5.307   9.092   2.506 -0.5576 -1.2952 -0.4449
   19CHTO  C109 7645   4.969   9.079   2.373  0.4823 -0.7545  0.0681
   19CHTO  H213 7646   5.012   9.135   2.288  0.5420  0.9417  1.2070
   19CHTO  C110 7647   4.817   9.043   2.366  0.2256  0.3783  0.2534
   19CHTO  H214 7648   4.793   8.974   2.447  0.4761  1.5081  1.2987
   19CHTO   O78 7649   4.801   8.976   2.245  0.1537  0.1654  0.1602
   19CHTO  H200 7650   4.824   8.886   2.256  0.6301  0.1404 -0.9536
   19CHTO  C111 7651   4.732   9.170   2.365 -0.8766 -0.2425 -0.3430
   19CHTO  H215 7652   4.750   9.223   2.269  0.5254  2.1445  1.1708
   19CHTO   N19 7653   4.586   9.153   2.374 -0.9271  0.3067  0.2733
   19CHTO  H207 7654   4.564   9.135   2.269 -1.4214 -0.9245  0.5794
   19CHTO  H208 7655   4.553   9.063   2.424  1.1636 -0.7611 -0.2368
   19CHTO   O74 7656   5.044   8.957   2.388  0.3126 -0.4483 -0.0689
   19CHTO  C115 7657   5.102   8.888   2.260  0.1028 -0.7277 -0.2255
   19CHTO  H219 7658   5.031   8.891   2.178 -0.0731  0.8708 -0.0336
   19CHTO   O76 7659   5.241   8.964   2.203  0.5929 -0.7673  0.1065
   19CHTO  C122 7660   5.372   8.912   2.239  0.2383  0.4484  0.1555
   19CHTO  H226 7661   5.385   8.943   2.343  2.7056  1.3387 -0.3977
   19CHTO  C126 7662   5.485   8.989   2.161 -0.6307  0.0472  0.4258
   19CHTO   O85 7663   5.452   9.130   2.147 -0.0412 -0.1659 -0.0685
   19CHTO  H206 7664   5.466   9.147   2.055  2.3889  1.7700  0.5867
   19CHTO  C121 7665   5.373   8.751   2.220 -0.2125 -1.3051  0.4608
   19CHTO  H225 7666   5.431   8.733   2.127  0.7726 -1.6780  1.1432
   19CHTO   O81 7667   5.445   8.694   2.325 -0.6001 -0.4637 -0.1373
   19CHTO  H202 7668   5.468   8.605   2.308 -0.4810 -0.4639  0.0308
   19CHTO  C119 7669   5.238   8.671   2.200  0.0047  0.3815  0.3607
   19CHTO  H223 7670   5.211   8.693   2.097 -0.4030 -0.1923  0.3426
   19CHTO  C117 7671   5.125   8.737   2.288  0.1251  0.1618 -0.4239
   19CHTO  H221 7672   5.149   8.736   2.394  1.0616  0.5653 -0.6336
   19CHTO   N20 7673   4.998   8.659   2.275 -0.2065 -0.5450  0.1852
   19CHTO  H209 7674   5.004   8.566   2.330  0.3517 -2.0521 -2.3431
   19CHTO  H210 7675   4.956   8.661   2.176 -0.2701  1.9824  0.2216
   19CHTO   O80 7676   5.246   8.509   2.205  0.9314  0.2374 -0.2452
   19CHTO  C103 7677   5.297   8.435   2.088  0.8504  0.2173 -0.5226
   19CHTO  H190 7678   5.288   8.500   2.001 -1.0923  2.0197  0.9768
   19CHTO  C101 7679   5.444   8.373   2.095  0.6106 -0.4509  0.0002
   19CHTO  H188 7680   5.450   8.328   2.194 -0.6485  0.3943  0.4814
   19CHTO   O68 7681   5.533   8.481   2.090  0.3762  0.2663  0.0042
   19CHTO  H168 7682   5.623   8.459   2.079  0.8182  0.9008  2.0267
   19CHTO   C99 7683   5.473   8.251   1.989  0.0424 -0.3832  0.1174
   19CHTO  H186 7684   5.490   8.294   1.888 -0.9909 -0.7485 -0.2188
   19CHTO   N17 7685   5.599   8.171   2.015 -0.8077  0.6070 -0.5611
   19CHTO  H174 7686   5.598   8.122   2.111  0.7877 -0.4577 -1.0632
   19CHTO  H175 7687   5.686   8.234   2.003  0.9176 -1.2452  1.7802
   19CHTO   C97 7688   5.352   8.155   1.976 -0.1185  0.2648  0.0970
   19CHTO  H184 7689   5.345   8.094   2.067  0.8763 -0.9690 -0.6342
   19CHTO   O64 7690   5.229   8.234   1.956 -0.5689 -0.8276  0.1640
   19CHTO  C104 7691   5.191   8.322   2.066 -0.9051 -0.3946 -0.1243
   19CHTO  H191 7692   5.178   8.264   2.157  3.0675  0.6470  1.1912
   19CHTO  C108 7693   5.058   8.374   2.027  0.2242 -0.6946  0.5935
   19CHTO   O71 7694   5.049   8.464   1.918  0.1025 -0.0468 -0.5278
   19CHTO  H171 7695   4.987   8.430   1.857 -0.8521  1.1715 -0.2386
   19CHTO   O62 7696   5.360   8.060   1.864  0.2468  0.0967 -0.6593
   19CHTO   C91 7697   5.310   7.924   1.871 -0.5394  0.3584  0.3714
   19CHTO  H178 7698   5.245   7.915   1.958 -1.6890  1.6788 -0.3175
   19CHTO   C92 7699   5.424   7.819   1.899  0.4682  0.4421  0.5286
   19CHTO  H179 7700   5.501   7.827   1.821 -2.3627 -0.4616 -2.4612
   19CHTO   O66 7701   5.485   7.870   2.020 -0.5625 -0.4655  0.2554
   19CHTO  H166 7702   5.452   7.823   2.094 -1.4314 -1.6805 -0.8865
   19CHTO   C93 7703   5.367   7.669   1.909  0.2868 -0.1960 -0.3267
   19CHTO  H180 7704   5.315   7.654   2.005 -1.9484 -0.3164 -1.5286
   19CHTO   N16 7705   5.473   7.567   1.920 -0.8515 -0.0466  0.2865
   19CHTO  H172 7706   5.570   7.614   1.933 -0.7499 -0.1473 -0.1068
   19CHTO  H173 7707   5.475   7.500   1.835 -0.4223 -1.7858  1.6150
   19CHTO   C94 7708   5.273   7.647   1.791  0.7915 -0.1182  0.7849
   19CHTO  H181 7709   5.326   7.645   1.695 -1.5317 -0.0210 -0.5476
   19CHTO   O61 7710   5.178   7.752   1.766 -0.1140 -0.2962  0.1049
   19CHTO   C95 7711   5.237   7.880   1.744  0.9140  0.3080  0.1751
   19CHTO  H182 7712   5.306   7.869   1.661 -0.3571  0.4562 -0.9100
   19CHTO  C106 7713   5.137   7.985   1.691  0.1465 -0.7138  0.8449
   19CHTO   O69 7714   5.049   7.944   1.586 -0.1183 -0.3468 -0.1656
   19CHTO  H169 7715   4.974   8.000   1.580 -1.5315 -1.9967  1.2994
   19CHTO   O63 7716   5.177   7.506   1.816 -0.1866  0.5215 -0.1080
   19CHTO   C96 7717   5.154   7.439   1.691 -0.1261 -0.5393 -0.2728
   19CHTO  H183 7718   5.253   7.411   1.656 -0.7500 -0.4849 -2.1093
   19CHTO   C98 7719   5.080   7.519   1.582  0.1949 -0.5984  0.2560
   19CHTO  H185 7720   5.127   7.617   1.567 -2.3165  0.8621  1.6973
   19CHTO   O67 7721   5.094   7.451   1.457 -0.5865 -0.2502  0.2376
   19CHTO  H167 7722   5.040   7.376   1.469 -0.6073 -0.8336 -3.0190
   19CHTO  C102 7723   4.923   7.532   1.623 -0.2953 -0.8667  0.3929
   19CHTO  H189 7724   4.864   7.538   1.531  1.6584  3.4190 -0.7429
   19CHTO   N18 7725   4.891   7.664   1.680  0.6313  0.1713 -0.0001
   19CHTO  H176 7726   4.935   7.663   1.779 -0.7042  0.9604  0.6239
   19CHTO  H177 7727   4.783   7.674   1.681  0.6732  0.7348  1.7269
   19CHTO  C105 7728   4.867   7.405   1.697 -0.5029 -0.6985 -0.1303
   19CHTO  H192 7729   4.865   7.425   1.804 -2.6158  0.0075 -0.2685
   19CHTO   O65 7730   4.952   7.291   1.675 -0.2889  0.3710 -0.4269
   19CHTO  C100 7731   5.086   7.295   1.717  0.7318 -0.2538  0.2222
   19CHTO  H187 7732   5.086   7.261   1.822 -1.6890 -2.4448 -0.4255
   19CHTO  C107 7733   5.167   7.189   1.639  0.4673 -0.0304 -0.4245
   19CHTO   O70 7734   5.103   7.062   1.661  0.2121 -0.7787  0.0065
   19CHTO  H170 7735   5.140   6.993   1.610 -2.5049 -1.0172 -1.7410
   19CHTO   O57 7736   4.721   7.383   1.646  0.2595  0.3072 -0.3366
   19CHTO   C85 7737   4.628   7.335   1.750  0.9173 -0.0617  0.3915
   19CHTO  H157 7738   4.683   7.314   1.844 -0.5086 -1.6922  0.8920
   19CHTO   C83 7739   4.553   7.200   1.722  0.8396  0.0607 -0.3798
   19CHTO  H155 7740   4.626   7.122   1.702  1.9935  0.8484  0.6723
   19CHTO   O56 7741   4.483   7.203   1.592  0.8381  0.2037  0.3703
   19CHTO  H135 7742   4.424   7.276   1.584  0.0584 -0.3801  0.8125
   19CHTO   C81 7743   4.463   7.155   1.844 -0.1467 -0.9030 -0.4453
   19CHTO  H153 7744   4.529   7.160   1.931  0.9481  1.1307 -1.3557
   19CHTO   N14 7745   4.410   7.017   1.839 -0.5735 -0.1156 -0.1643
   19CHTO  H141 7746   4.385   6.998   1.736 -0.8702  2.2634 -0.5693
   19CHTO  H142 7747   4.323   7.007   1.900 -1.4442  1.1367 -1.1718
   19CHTO   C79 7748   4.352   7.265   1.864 -0.0104  0.7955 -0.4711
   19CHTO  H151 7749   4.307   7.246   1.962  0.5520 -1.2700 -0.5861
   19CHTO   O52 7750   4.406   7.402   1.874  0.1977 -0.5137  0.0871
   19CHTO   C86 7751   4.506   7.440   1.773  0.3083 -0.6640  0.1803
   19CHTO  H158 7752   4.441   7.448   1.684  0.0924  1.6652  0.5193
   19CHTO   C90 7753   4.557   7.578   1.807  0.3646 -0.7646  0.5251
   19CHTO   O60 7754   4.499   7.672   1.713  0.3903  0.2556 -0.2888
   19CHTO  H138 7755   4.409   7.678   1.736  0.3373  0.5310 -0.5656
   19CHTO   O50 7756   4.237   7.259   1.772  0.2223 -0.3312  0.0641
   19CHTO   C73 7757   4.097   7.287   1.748 -0.1989  0.0151 -0.6712
   19CHTO  H145 7758   4.046   7.197   1.785  0.4170  0.8127  2.2816
   19CHTO   C74 7759   4.077   7.324   1.595 -0.3713 -0.1117  0.0266
   19CHTO  H146 7760   4.106   7.233   1.542  1.7112  0.1752  0.6250
   19CHTO   O54 7761   3.932   7.341   1.562 -0.2197 -0.3906 -0.5982
   19CHTO  H133 7762   3.918   7.348   1.470  1.2809 -3.3338 -1.0758
   19CHTO   C75 7763   4.166   7.448   1.558  1.0773 -0.4201  0.4611
   19CHTO  H147 7764   4.270   7.431   1.591  1.8917  1.6430 -0.9445
   19CHTO   N13 7765   4.169   7.478   1.411  0.7757 -0.0985 -0.3988
   19CHTO  H139 7766   4.074   7.529   1.404  0.4941 -0.6566 -0.6525
   19CHTO  H140 7767   4.167   7.376   1.376 -3.6156  0.3310 -1.6186
   19CHTO   C76 7768   4.115   7.560   1.652  0.5378 -0.3764 -0.6283
   19CHTO  H148 7769   4.014   7.590   1.626  0.2148  0.8116  1.8627
   19CHTO   O49 7770   4.124   7.527   1.791  0.3979 -0.2362 -0.1123
   19CHTO   C77 7771   4.047   7.414   1.833  0.3142 -0.1659  0.0442
   19CHTO  H149 7772   3.944   7.434   1.807  0.5447  0.8155 -0.1111
   19CHTO   C88 7773   4.054   7.378   1.984 -0.1823 -0.0810 -0.1003
   19CHTO   O58 7774   4.009   7.485   2.082  0.6688  0.1726  0.2347
   19CHTO  H136 7775   3.946   7.546   2.047 -0.9781 -0.7227  1.5521
   19CHTO   O51 7776   4.194   7.664   1.646 -0.1473  0.2043  0.0640
   19CHTO   C78 7777   4.108   7.807   1.674  0.1467 -0.1051  0.1659
   19CHTO  H150 7778   4.010   7.789   1.724 -0.9816  0.6179 -1.7398
   19CHTO   C80 7779   4.084   7.874   1.537 -0.3022  0.0162  0.4646
   19CHTO  H152 7780   4.176   7.860   1.476 -0.2905  1.4192  0.1461
   19CHTO   O55 7781   3.989   7.793   1.467 -0.3990 -0.0778 -0.5786
   19CHTO  H134 7782   4.033   7.745   1.400 -1.0929  0.4934 -1.4613
   19CHTO   C84 7783   4.041   8.028   1.535  0.3144  0.9143 -0.1783
   19CHTO  H156 7784   3.933   8.025   1.549  0.0911  1.3487 -1.6872
   19CHTO   N15 7785   4.042   8.092   1.394 -0.0900  0.0955 -0.0352
   19CHTO  H143 7786   4.137   8.138   1.380  0.5796 -0.2041  3.0698
   19CHTO  H144 7787   4.032   8.018   1.318  0.1261  0.6049 -0.5574
   19CHTO   C87 7788   4.112   8.105   1.645  0.4238 -0.4764 -0.1478
   19CHTO  H159 7789   4.215   8.114   1.612 -0.0267 -1.4789 -1.8753
   19CHTO   O53 7790   4.109   8.025   1.771  0.4994  0.0738  0.0715
   19CHTO   C82 7791   4.187   7.904   1.763  0.6221  0.3382 -0.2736
   19CHTO  H154 7792   4.290   7.917   1.730  0.8677 -0.2997  0.2211
   19CHTO   C89 7793   4.193   7.844   1.906  0.1212  0.0795  0.2237
   19CHTO   O59 7794   4.298   7.750   1.929 -0.7840  0.2801  0.6302
   19CHTO  H137 7795   4.320   7.701   1.852 -2.5755  0.4810 -0.0206
   19CHTO   O45 7796   4.047   8.239   1.659 -0.9395  0.2208 -0.2644
   19CHTO   C67 7797   4.003   8.295   1.780  0.3575 -0.3092  0.0148
   19CHTO  H124 7798   3.946   8.219   1.833 -1.0597 -0.1966 -1.2950
   19CHTO   C65 7799   4.123   8.360   1.865  0.0265  0.2900  0.4858
   19CHTO  H122 7800   4.187   8.411   1.794 -0.3246  0.0098 -0.0393
   19CHTO   O44 7801   4.192   8.253   1.931  0.5365  0.1479  0.2761
   19CHTO  H102 7802   4.246   8.220   1.862 -0.0468  1.2196 -0.7185
   19CHTO   C63 7803   4.076   8.481   1.962  0.2177 -0.9078 -0.4632
   19CHTO  H120 7804   4.063   8.567   1.895 -0.5792 -1.2519 -0.7623
   19CHTO   N11 7805   4.169   8.521   2.072 -0.3789 -0.0544  0.1923
   19CHTO  H108 7806   4.196   8.435   2.130 -0.6491 -0.0229  0.3638
   19CHTO  H109 7807   4.257   8.558   2.024 -0.0383 -1.7882 -0.5674
   19CHTO   C61 7808   3.929   8.479   2.003 -0.9510 -0.2536  0.2892
   19CHTO  H118 7809   3.898   8.570   2.057  0.3327  0.4866 -0.1895
   19CHTO   O40 7810   3.841   8.465   1.881 -0.3211 -0.0447  0.5127
   19CHTO   C68 7811   3.896   8.410   1.750  0.2671  0.3920 -1.0496
   19CHTO  H125 7812   3.945   8.488   1.687 -1.6506  1.7935 -0.8602
   19CHTO   C72 7813   3.780   8.343   1.666 -0.4310 -0.0794 -0.2838
   19CHTO   O48 7814   3.704   8.451   1.618  0.2879  0.0438  0.3651
   19CHTO  H105 7815   3.644   8.420   1.553  1.0651  1.7716 -1.2437
   19CHTO   O38 7816   3.909   8.370   2.089  0.4517  0.3441 -0.4479
   19CHTO   C55 7817   3.785   8.370   2.171 -0.6364  0.1840  0.6610
   19CHTO  H112 7818   3.712   8.433   2.117  0.2596  1.2572  0.6707
   19CHTO   C56 7819   3.814   8.426   2.318 -0.5399  0.0266  0.2789
   19CHTO  H113 7820   3.898   8.373   2.363 -0.1722  1.2285  1.0354
   19CHTO   O42 7821   3.851   8.568   2.307 -0.0218 -0.1369 -0.4113
   19CHTO  H100 7822   3.904   8.594   2.235  1.1634  0.3231  0.6200
   19CHTO   C57 7823   3.684   8.403   2.414 -0.2605  0.0228 -0.0545
   19CHTO  H114 7824   3.604   8.466   2.374 -2.1781 -1.4764  1.3036
   19CHTO   N10 7825   3.693   8.434   2.555  0.6128 -0.6927  0.4006
   19CHTO  H106 7826   3.749   8.349   2.592  1.8310  0.2970  0.8748
   19CHTO  H107 7827   3.753   8.524   2.558 -1.7897  1.0069 -1.4148
   19CHTO   C58 7828   3.634   8.255   2.397 -0.7112  0.0681  0.2583
   19CHTO  H115 7829   3.709   8.188   2.445  1.4517  2.4467  0.2422
   19CHTO   O37 7830   3.613   8.214   2.262 -0.2896  0.6557  0.2826
   19CHTO   C59 7831   3.719   8.227   2.169  0.9380 -0.1398 -0.3779
   19CHTO  H116 7832   3.796   8.154   2.192 -2.0880 -2.9869  0.9968
   19CHTO   C70 7833   3.662   8.205   2.031 -0.5217 -0.0602 -0.0850
   19CHTO   O46 7834   3.569   8.093   2.012 -0.0288 -0.4788  0.2873
   19CHTO  H103 7835   3.486   8.085   2.054 -0.8125 -2.6262 -1.6189
   19CHTO   O39 7836   3.474   8.242   2.483 -0.3155  0.2286  0.0587
   19CHTO   C60 7837   3.370   8.234   2.389  0.2258  0.1570 -0.2746
   19CHTO  H117 7838   3.397   8.276   2.292 -2.8693  0.2472 -1.1613
   19CHTO   C62 7839   3.333   8.084   2.355 -0.3677 -0.3578  0.1470
   19CHTO  H119 7840   3.433   8.040   2.335 -0.0275  0.2539  0.4559
   19CHTO   O43 7841   3.279   8.030   2.475  0.3492 -0.3432 -0.1955
   19CHTO  H101 7842   3.195   7.993   2.457  0.6332 -0.6246 -0.9645
   19CHTO   C66 7843   3.253   8.064   2.222  0.6656 -0.1442  0.1624
   19CHTO  H123 7844   3.315   8.098   2.139  1.4605  1.6477  1.4646
   19CHTO   N12 7845   3.229   7.923   2.172 -0.1430  0.0764  0.4915
   19CHTO  H110 7846   3.288   7.907   2.084 -1.6503 -0.9378 -0.3537
   19CHTO  H111 7847   3.221   7.837   2.237  1.6345  0.6491  1.4914
   19CHTO   C69 7848   3.118   8.140   2.231  0.0179  0.5783  0.4349
   19CHTO  H126 7849   3.045   8.081   2.291  1.8746 -1.6793  0.5417
   19CHTO   O41 7850   3.146   8.294   2.309 -0.0350  0.2210  0.3430
   19CHTO   C64 7851   3.245   8.310   2.435 -0.0260  1.0357  0.4647
   19CHTO  H121 7852   3.195   8.256   2.518  1.3190  0.1608  0.7169
   19CHTO   C71 7853   3.265   8.458   2.459  0.0245 -0.1670  0.0104
   19CHTO   O47 7854   3.376   8.508   2.389 -0.0624 -0.1277  0.4814
   19CHTO  H104 7855   3.362   8.495   2.298  0.1384  1.7657  0.1713
   19CHTO   O34 7856   3.055   8.170   2.078  0.2459 -0.4096  0.4874
   19CHTO   C49 7857   3.095   8.224   1.949  0.0306 -0.4433  1.0230
   19CHTO   H91 7858   3.076   8.331   1.955  1.9469 -0.1431  2.0753
   19CHTO   C47 7859   3.000   8.162   1.841  0.0019  0.1986  0.5169
   19CHTO   H89 7860   3.021   8.226   1.753 -2.7414  1.5137  0.7729
   19CHTO   O33 7861   2.859   8.180   1.874 -0.0411 -0.2059  0.0096
   19CHTO   H70 7862   2.831   8.107   1.925 -0.0396 -0.6439 -0.6243
   19CHTO   C45 7863   3.047   8.005   1.807 -0.5597 -0.3440  0.0905
   19CHTO   H87 7864   3.035   7.946   1.900 -1.5467  1.0276  0.8582
   19CHTO    N8 7865   2.962   7.949   1.705  0.5284  0.5030  0.1731
   19CHTO   H75 7866   2.864   7.992   1.717 -0.1226 -1.1218  0.8409
   19CHTO   H76 7867   2.960   7.842   1.713 -0.1203  0.5483  0.6112
   19CHTO   C43 7868   3.203   7.999   1.781  0.3772 -0.1130  0.4865
   19CHTO   H85 7869   3.227   7.893   1.775  1.8065  0.1895  0.4792
   19CHTO   O29 7870   3.278   8.067   1.880 -0.3691 -0.1721 -0.1410
   19CHTO   C50 7871   3.240   8.202   1.907 -0.0292 -0.1604 -0.0565
   19CHTO   H92 7872   3.294   8.235   1.997  0.1148  0.1846 -0.2674
   19CHTO   C54 7873   3.289   8.312   1.813 -1.1629  0.0383 -0.2008
   19CHTO   O36 7874   3.427   8.292   1.765  0.1994 -0.2594 -0.0568
   19CHTO   H72 7875   3.484   8.350   1.811 -3.5693  4.5541 -0.9626
   19CHTO   O27 7876   3.236   8.051   1.648  0.4325  0.3875  0.0128
   19CHTO   C37 7877   3.298   8.001   1.529 -0.7344  0.1468 -0.2635
   19CHTO   H79 7878   3.268   7.896   1.516  0.2463 -0.0808 -0.7428
   19CHTO   C38 7879   3.246   8.067   1.395  0.1623 -0.8998 -0.2270
   19CHTO   H80 7880   3.258   8.176   1.400 -1.9396 -0.6368 -0.7143
   19CHTO   O31 7881   3.102   8.048   1.390  0.2565 -0.1730 -0.2683
   19CHTO   H68 7882   3.067   8.070   1.475 -0.4093 -0.5049 -0.4509
   19CHTO   C39 7883   3.320   8.010   1.264  1.0001 -0.0277  0.1297
   19CHTO   H81 7884   3.280   7.910   1.250  2.9488 -0.3854 -3.2617
   19CHTO    N7 7885   3.268   8.089   1.143  0.6941 -0.4339 -0.5176
   19CHTO   H73 7886   3.210   8.171   1.182  1.8954 -0.8529  2.3086
   19CHTO   H74 7887   3.201   8.027   1.085 -1.2591  0.5905  0.5752
   19CHTO   C40 7888   3.474   8.023   1.286  0.3474 -0.5876 -0.4101
   19CHTO   H82 7889   3.484   8.131   1.281  0.4917 -0.6262 -1.1747
   19CHTO   O26 7890   3.510   7.970   1.414 -0.1765 -0.2901  0.4046
   19CHTO   C41 7891   3.449   8.018   1.530 -0.0537  0.5282  0.1733
   19CHTO   H83 7892   3.470   8.126   1.535 -0.8414  0.7427 -1.0061
   19CHTO   C52 7893   3.523   7.956   1.657 -0.5693 -0.1698  0.1164
   19CHTO   O35 7894   3.669   8.001   1.675  0.2266 -0.1046  0.0166
   19CHTO   H71 7895   3.724   7.926   1.665 -1.1576 -1.1478  0.0267
   19CHTO   O28 7896   3.546   7.942   1.189  0.6806  0.0357 -0.4216
   19CHTO   C42 7897   3.687   7.978   1.165  0.0603 -0.8534 -0.3204
   19CHTO   H84 7898   3.723   8.021   1.258 -0.6686 -2.2696  0.6335
   19CHTO   C44 7899   3.707   8.077   1.043  0.2772  0.5150 -0.2919
   19CHTO   H86 7900   3.665   8.037   0.951  1.4587 -0.6542 -0.3499
   19CHTO   O32 7901   3.643   8.190   1.089  0.0858  0.2740 -0.3744
   19CHTO   H69 7902   3.575   8.207   1.028 -1.1753 -0.2356  0.8601
   19CHTO   C48 7903   3.857   8.111   1.003  0.1066 -0.0239  0.2670
   19CHTO   H90 7904   3.895   8.157   1.094  0.6631  2.6554 -1.2780
   19CHTO    N9 7905   3.881   8.210   0.893  0.0669  0.0264 -0.5292
   19CHTO   H77 7906   3.845   8.305   0.929 -1.3500 -0.8292  0.3848
   19CHTO   H78 7907   3.819   8.180   0.810 -0.6577 -0.3493  0.1469
   19CHTO   C51 7908   3.940   7.974   0.982  0.2491  0.0420 -1.1639
   19CHTO   H93 7909   3.901   7.916   0.899  0.8446 -1.4805 -0.4047
   19CHTO   O30 7910   3.922   7.901   1.111 -0.4723 -0.4342 -0.6058
   19CHTO   C46 7911   3.776   7.854   1.140 -0.3831  0.4241 -0.3276
   19CHTO   H88 7912   3.740   7.800   1.052 -1.4535  0.6418 -0.0279
   19CHTO   C53 7913   3.792   7.752   1.253  0.4725  0.5867  0.2160
   19CHTO   O72 7914   3.669   7.678   1.287  0.3299 -0.5161 -0.0327
   19CHTO  H199 7915   3.621   7.711   1.360  1.8024 -1.7760  1.5658
   19CHTO   O22 7916   4.087   7.992   0.962  0.4887  0.3306 -0.2770
   19CHTO   C31 7917   4.161   7.870   0.922 -0.6206  0.0618  0.2065
   19CHTO   H59 7918   4.107   7.781   0.962  0.5978 -0.8324 -0.1181
   19CHTO   C29 7919   4.174   7.838   0.775  0.6509  0.4691  0.7723
   19CHTO   H57 7920   4.187   7.936   0.727 -0.2598 -0.2865 -1.0182
   19CHTO   O21 7921   4.047   7.791   0.717  0.7968 -0.1078  0.2631
   19CHTO   H37 7922   3.970   7.842   0.734  1.1428  0.3391  0.5044
   19CHTO   C27 7923   4.302   7.748   0.739 -0.0262 -0.2695  0.1780
   19CHTO   H55 7924   4.280   7.642   0.756  1.0227 -0.2648  1.7058
   19CHTO    N5 7925   4.345   7.764   0.597  0.0826 -0.0177 -0.0973
   19CHTO   H43 7926   4.413   7.681   0.582  0.9149  0.1950  2.3215
   19CHTO   H44 7927   4.269   7.763   0.521 -0.2362  1.1473  0.1920
   19CHTO   C25 7928   4.427   7.758   0.827  0.4243  0.2524  0.0582
   19CHTO   H53 7929   4.492   7.846   0.814 -0.0276  0.6457  0.4895
   19CHTO   O17 7930   4.378   7.748   0.960  0.3066 -0.0731 -0.1468
   19CHTO   C32 7931   4.302   7.865   1.001 -0.0074 -0.0104 -0.1107
   19CHTO   H60 7932   4.352   7.959   0.979 -0.8655  0.3632 -0.4635
   19CHTO   C36 7933   4.292   7.867   1.157  0.1423  0.1892 -0.0107
   19CHTO   O25 7934   4.222   7.754   1.211  0.5600  0.3478 -0.0579
   19CHTO   H40 7935   4.131   7.766   1.193  0.3179  0.6375  1.3318
   19CHTO   O15 7936   4.527   7.641   0.809 -0.1536  0.3036 -0.0337
   19CHTO   C19 7937   4.631   7.601   0.717  0.9123 -0.5128 -0.4873
   19CHTO   H47 7938   4.600   7.649   0.623  0.6838  0.8896  0.2883
   19CHTO   C20 7939   4.766   7.654   0.756  0.2574 -1.0376  0.0159
   19CHTO   H48 7940   4.794   7.629   0.859 -0.0012  0.7274  0.5390
   19CHTO   O19 7941   4.754   7.798   0.744 -0.4247 -0.0086  0.0605
   19CHTO   H35 7942   4.721   7.819   0.659  0.4654  0.9727 -0.0436
   19CHTO   C21 7943   4.883   7.594   0.664 -0.4964 -0.5127  0.2140
   19CHTO   H49 7944   4.876   7.640   0.565  0.0935 -1.2159 -0.1645
   19CHTO    N4 7945   5.017   7.633   0.719 -0.1759  0.5938 -0.0135
   19CHTO   H41 7946   5.015   7.663   0.823  1.0210  1.0409 -0.1110
   19CHTO   H42 7947   5.035   7.720   0.658  2.6180  1.3080  1.7640
   19CHTO   C22 7948   4.859   7.441   0.640  0.0880 -0.2690  0.4251
   19CHTO   H50 7949   4.863   7.407   0.744  1.4470 -1.2429  0.0727
   19CHTO   O14 7950   4.730   7.416   0.584 -0.3160  0.0762 -0.0014
   19CHTO   C23 7951   4.640   7.444   0.696 -0.2688  0.0468 -0.4306
   19CHTO   H51 7952   4.671   7.392   0.788  0.3708  1.8908  0.4190
   19CHTO   C34 7953   4.501   7.374   0.660 -0.1729  0.3893  0.0736
   19CHTO   O23 7954   4.523   7.232   0.672  0.5621 -0.4637 -0.2025
   19CHTO   H38 7955   4.550   7.206   0.757  4.2832 -0.1244 -1.2017
   19CHTO   O16 7956   4.957   7.379   0.564 -0.3419  0.5691  0.6752
   19CHTO   C24 7957   4.958   7.223   0.492 -0.3834 -0.1191  0.1728
   19CHTO   H52 7958   5.059   7.184   0.485 -0.4508 -0.1577 -0.5574
   19CHTO   C26 7959   4.891   7.235   0.355  0.4149  0.0777  0.2760
   19CHTO   H54 7960   4.789   7.274   0.374  0.1498 -0.4749  0.0085
   19CHTO   O20 7961   4.969   7.327   0.288 -0.3274 -0.1565 -0.8681
   19CHTO   H36 7962   4.945   7.330   0.197  0.6882 -2.4991 -1.2459
   19CHTO   C30 7963   4.883   7.094   0.283 -0.2766 -0.5645 -0.0143
   19CHTO   H58 7964   4.985   7.055   0.270  0.8711  2.5440 -0.6294
   19CHTO    N6 7965   4.822   7.099   0.141  0.0649 -0.2969 -0.2482
   19CHTO   H45 7966   4.904   7.119   0.074 -0.3680  2.8019  0.1155
   19CHTO   H46 7967   4.755   7.183   0.134 -0.4988 -0.7764 -0.6912
   19CHTO   C33 7968   4.808   6.991   0.379  0.0588 -0.2831  0.8927
   19CHTO   H61 7969   4.704   7.019   0.402 -0.9696 -1.4231 -2.2441
   19CHTO   O18 7970   4.869   6.995   0.508 -0.6395 -0.3243  0.2165
   19CHTO   C28 7971   4.881   7.119   0.577 -0.4887 -0.1169  0.0988
   19CHTO   H56 7972   4.779   7.156   0.588 -0.7859 -0.3814 -1.6053
   19CHTO   C35 7973   4.944   7.108   0.720 -0.3379  0.5933 -0.6098
   19CHTO   O24 7974   5.077   7.062   0.736 -0.0162 -0.0428 -0.0930
   19CHTO   H39 7975   5.075   6.969   0.751  2.2091 -0.5633 -2.7294
   19CHTO    O9 7976   4.804   6.855   0.320  0.1598  0.2512 -0.0891
   19CHTO   C13 7977   4.659   6.792   0.326  0.0093 -0.6445  1.1229
   19CHTO   H26 7978   4.590   6.871   0.290  0.7170 -1.0715 -1.2584
   19CHTO   C11 7979   4.630   6.752   0.478 -0.1907 -0.0459 -0.1327
   19CHTO   H24 7980   4.608   6.844   0.535 -0.3261 -0.6229  0.7437
   19CHTO    O8 7981   4.741   6.684   0.537  0.2213 -0.0286  0.1753
   19CHTO    H3 7982   4.810   6.741   0.563  1.8020 -1.8690  0.1448
   19CHTO    C9 7983   4.496   6.679   0.481  0.6646  0.3472  0.7681
   19CHTO   H22 7984   4.422   6.748   0.437  0.6950  0.0400  0.2309
   19CHTO    N2 7985   4.444   6.649   0.617  0.2590  0.2444  0.0786
   19CHTO   H10 7986   4.491   6.558   0.651 -0.0985 -0.1726 -0.5430
   19CHTO   H11 7987   4.449   6.736   0.681  0.9700  0.1481  0.1557
   19CHTO    C7 7988   4.498   6.556   0.388 -0.7353 -0.0953 -0.2706
   19CHTO   H20 7989   4.393   6.520   0.383 -0.1757 -1.7327 -0.7453
   19CHTO    O4 7990   4.529   6.598   0.253 -0.4476 -0.0929  0.6025
   19CHTO   C14 7991   4.651   6.668   0.227 -0.0793 -0.3320 -0.0218
   19CHTO   H27 7992   4.645   6.698   0.120 -0.4249 -1.7979 -0.4207
   19CHTO   C18 7993   4.774   6.576   0.240  0.2679  0.1282  0.2971
   19CHTO   O13 7994   4.758   6.467   0.142  0.1637 -0.4413 -0.0445
   19CHTO    H7 7995   4.684   6.414   0.160 -0.3033  0.4171  0.6045
   19CHTO    O2 7996   4.592   6.432   0.430 -0.2610 -0.0926  0.0535
   19CHTO    C1 7997   4.534   6.302   0.396 -0.1388 -0.1637 -0.6754
   19CHTO   H14 7998   4.548   6.286   0.287  1.1629 -0.6888 -0.4405
   19CHTO    C2 7999   4.383   6.275   0.429 -0.1549  0.3544 -0.1584
   19CHTO   H15 8000   4.358   6.348   0.507 -2.2652 -1.4687  0.8995
   19CHTO    O6 8001   4.304   6.308   0.313  0.4345  0.3454 -0.0663
   19CHTO    H1 8002   4.215   6.326   0.339  0.5089  3.2072 -1.5199
   19CHTO    C3 8003   4.338   6.127   0.476 -0.1864  0.1391  0.3963
   19CHTO   H16 8004   4.323   6.073   0.382  0.0620  0.7796 -0.0133
   19CHTO    N1 8005   4.208   6.131   0.556  0.3006  0.4413  0.9947
   19CHTO    H8 8006   4.166   6.230   0.551  1.7850  1.0880  0.8797
   19CHTO    H9 8007   4.247   6.110   0.655  0.4359 -3.9184  0.1176
   19CHTO    C4 8008   4.448   6.058   0.555 -0.1461  0.5009  1.1665
   19CHTO   H17 8009   4.454   6.095   0.658  0.4798 -1.7913  1.9913
   19CHTO    O1 8010   4.570   6.077   0.480  0.3345  0.8812  0.4419
   19CHTO    C5 8011   4.624   6.204   0.475  0.7515  0.7798 -0.1961
   19CHTO   H18 8012   4.635   6.240   0.577  0.6772 -4.1076  1.6964
   19CHTO   C16 8013   4.765   6.202   0.415 -0.0054  0.1802  0.0996
   19CHTO   O11 8014   4.853   6.109   0.481 -0.1855  0.0565 -0.4354
   19CHTO    H5 8015   4.900   6.131   0.559 -0.1174 -1.1321 -0.1180
   19CHTO    O3 8016   4.421   5.913   0.553  0.1808  0.2626  0.3803
   19CHTO    C6 8017   4.432   5.842   0.688  0.0675  0.5135  0.8231
   19CHTO   H19 8018   4.431   5.914   0.770  1.5293  0.0857  1.2261
   19CHTO    C8 8019   4.315   5.742   0.701  1.0814  0.2177 -0.8172
   19CHTO   H21 8020   4.308   5.685   0.608  1.3968  0.7183 -1.1539
   19CHTO    O7 8021   4.198   5.823   0.699 -0.1584 -0.8942 -0.0042
   19CHTO    H2 8022   4.178   5.838   0.789 -0.1024  0.0634 -0.1463
   19CHTO   C12 8023   4.330   5.649   0.834  0.3520 -0.2862 -0.0223
   19CHTO   H25 8024   4.314   5.710   0.926  0.7366  0.9123 -0.7292
   19CHTO    N3 8025   4.222   5.537   0.845 -0.0104 -0.1435  0.4009
   19CHTO   H12 8026   4.253   5.452   0.905 -0.1925 -1.5845 -1.4985
   19CHTO   H13 8027   4.127   5.573   0.884 -0.9439 -2.2431  0.1246
   19CHTO   C15 8028   4.477   5.589   0.840 -0.0514  0.2661  0.1321
   19CHTO   H28 8029   4.490   5.508   0.767  1.8365  0.7226 -0.0432
   19CHTO   O10 8030   4.513   5.546   0.982 -0.2781  0.8886 -0.5158
   19CHTO    H4 8031   4.604   5.532   1.000 -0.1367  0.1180 -1.7230
   19CHTO    O5 8032   4.580   5.692   0.821 -0.1519  0.1345  0.1472
   19CHTO   C10 8033   4.568   5.766   0.704  0.5262  0.2053  0.2189
   19CHTO   H23 8034   4.575   5.694   0.622  2.1555 -0.7988  1.2171
   19CHTO   C17 8035   4.693   5.851   0.689  0.7024 -0.7900 -0.1163
   19CHTO   O12 8036   4.684   5.972   0.763  0.0056 -0.3391 -0.4485
   19CHTO    H6 8037   4.760   6.024   0.746  0.2427 -0.9053 -1.1195
   20CHTO  H203 8038   4.602   1.477   2.418 -0.3489  0.3840 -1.1282
   20CHTO   O82 8039   4.658   1.422   2.367  0.1165  0.0134 -0.2225
   20CHTO  C123 8040   4.648   1.449   2.227 -0.0228 -0.3888 -0.8910
   20CHTO  H227 8041   4.547   1.485   2.205  0.5818 -0.3569 -3.8711
   20CHTO   O77 8042   4.745   1.559   2.216  0.2981  0.0831 -0.3153
   20CHTO  C118 8043   4.769   1.604   2.080  0.6985  0.2759 -0.1193
   20CHTO  H222 8044   4.682   1.644   2.027  0.4614  0.5760  0.5006
   20CHTO  C125 8045   4.880   1.717   2.085  0.6346 -0.1037  0.3431
   20CHTO   O84 8046   4.825   1.834   2.132 -0.0330 -0.6609 -0.5442
   20CHTO  H205 8047   4.878   1.909   2.110 -1.8552  0.4505 -1.2972
   20CHTO  C114 8048   4.816   1.480   1.996 -0.0743  1.0162 -0.1241
   20CHTO  H218 8049   4.917   1.455   2.027 -0.3651  0.9340  0.7851
   20CHTO  C116 8050   4.721   1.363   2.006  0.1688  0.3789  0.2233
   20CHTO  H220 8051   4.631   1.393   1.948  0.6699 -0.5518 -1.0754
   20CHTO   O79 8052   4.780   1.249   1.934 -0.0463 -0.1046  0.3383
   20CHTO  H201 8053   4.715   1.191   1.900  0.4103 -0.9222  0.8426
   20CHTO  C120 8054   4.692   1.317   2.152  0.2718 -0.3686  0.0701
   20CHTO  H224 8055   4.792   1.283   2.188  0.4472 -0.5555 -0.5854
   20CHTO   N21 8056   4.585   1.209   2.161 -0.1148 -0.3284 -0.5047
   20CHTO  H211 8057   4.601   1.175   2.262  1.6240  2.0295  0.0648
   20CHTO  H212 8058   4.602   1.124   2.097 -1.2718  0.8074 -2.3806
   20CHTO   O75 8059   4.829   1.530   1.861  0.0446  0.8469  0.1366
   20CHTO  C112 8060   4.980   1.509   1.787 -0.0373  0.1190 -0.3787
   20CHTO  H216 8061   5.011   1.403   1.783 -1.5184 -0.2868 -1.3735
   20CHTO   O73 8062   5.075   1.582   1.855 -0.6622 -0.4121  0.1910
   20CHTO  C113 8063   5.207   1.583   1.801 -0.0965 -0.9428 -0.6711
   20CHTO  H217 8064   5.232   1.475   1.794 -3.1815 -1.9097  2.1042
   20CHTO  C124 8065   5.313   1.638   1.893 -0.6505 -0.2127 -0.0548
   20CHTO   O83 8066   5.338   1.553   2.008  0.0773  0.4116 -0.3769
   20CHTO  H204 8067   5.279   1.583   2.075 -0.8405  0.1985 -1.0857
   20CHTO  C109 8068   5.206   1.660   1.667  0.2950  0.2898 -0.2573
   20CHTO  H213 8069   5.189   1.766   1.691 -0.9555 -0.0013  0.1626
   20CHTO  C110 8070   5.100   1.591   1.569 -0.5723  0.1361 -0.3318
   20CHTO  H214 8071   5.140   1.494   1.541  0.1423  0.8425 -1.7683
   20CHTO   O78 8072   5.080   1.668   1.453 -0.0490 -0.2555 -0.7085
   20CHTO  H200 8073   5.163   1.702   1.427 -0.1862  0.5289 -0.1367
   20CHTO  C111 8074   4.961   1.577   1.644  0.0809  0.6284  0.2039
   20CHTO  H215 8075   4.909   1.674   1.654  0.1052  0.5236  1.4020
   20CHTO   N19 8076   4.877   1.485   1.563 -0.3556  0.9225 -0.2835
   20CHTO  H207 8077   4.855   1.527   1.466  1.1746  0.8944 -0.6560
   20CHTO  H208 8078   4.778   1.486   1.606  0.3550 -0.9213  1.4966
   20CHTO   O74 8079   5.342   1.647   1.608 -0.3903  0.2636  0.4351
   20CHTO  C115 8080   5.424   1.789   1.596  0.4178 -0.0145  0.3553
   20CHTO  H219 8081   5.387   1.865   1.665  0.3028  1.4356 -1.2720
   20CHTO   O76 8082   5.591   1.769   1.647 -0.1113  0.3068  1.0901
   20CHTO  C122 8083   5.665   1.676   1.567 -0.9870  0.1260 -0.6441
   20CHTO  H226 8084   5.658   1.579   1.616  0.4818  1.1827  1.7692
   20CHTO  C126 8085   5.817   1.712   1.571 -0.5458 -0.0873  0.0120
   20CHTO   O85 8086   5.836   1.842   1.520  0.2666 -0.4612 -0.3406
   20CHTO  H206 8087   5.918   1.869   1.556  0.0979 -2.0133  1.2744
   20CHTO  C121 8088   5.618   1.666   1.414 -0.3325 -0.0460  0.3394
   20CHTO  H225 8089   5.708   1.653   1.350 -0.5431  0.2749 -0.0252
   20CHTO   O81 8090   5.529   1.549   1.406 -0.1726  0.0773  0.1743
   20CHTO  H202 8091   5.584   1.473   1.416  2.3443  1.9395  1.0280
   20CHTO  C119 8092   5.532   1.793   1.360 -0.2634 -1.0859  0.2899
   20CHTO  H223 8093   5.607   1.871   1.372  0.3085 -1.6291  0.3128
   20CHTO  C117 8094   5.405   1.828   1.444  0.6161  0.1814  0.5542
   20CHTO  H221 8095   5.312   1.781   1.413  0.4803 -0.5020  1.9316
   20CHTO   N20 8096   5.375   1.978   1.439  0.1193 -0.0792  0.9445
   20CHTO  H209 8097   5.270   1.998   1.456  0.0969  1.3556 -0.7778
   20CHTO  H210 8098   5.434   2.032   1.512  1.1749 -0.8075  0.6451
   20CHTO   O80 8099   5.514   1.789   1.218 -0.0253  0.1517  0.1333
   20CHTO  C103 8100   5.641   1.822   1.115  0.1445 -0.4266 -0.4324
   20CHTO  H190 8101   5.733   1.822   1.172  0.1540 -0.3773 -0.4474
   20CHTO  C101 8102   5.645   1.726   0.990 -0.1680  1.4244  0.6066
   20CHTO  H188 8103   5.540   1.717   0.961 -0.1407  3.9989 -0.4412
   20CHTO   O68 8104   5.709   1.575   1.032  1.1227 -0.1452  0.2307
   20CHTO  H168 8105   5.762   1.550   0.958 -0.3548  0.7920 -1.1899
   20CHTO   C99 8106   5.725   1.783   0.857  0.6048  0.4523 -0.1068
   20CHTO  H186 8107   5.831   1.790   0.887  0.9697 -0.6556 -1.0800
   20CHTO   N17 8108   5.712   1.689   0.741  0.5142  0.2302  0.3735
   20CHTO  H174 8109   5.669   1.599   0.784  1.0571  0.3156  1.1205
   20CHTO  H175 8110   5.796   1.671   0.676 -0.3048  2.0207 -1.1907
   20CHTO   C97 8111   5.673   1.927   0.834 -0.0592  0.1729 -0.7816
   20CHTO  H184 8112   5.565   1.915   0.822 -0.0521 -2.0034  0.8815
   20CHTO   O64 8113   5.704   1.999   0.949 -0.1052 -1.3231  0.3641
   20CHTO  C104 8114   5.619   1.971   1.066 -0.7505 -0.1484  1.0275
   20CHTO  H191 8115   5.511   1.979   1.048 -0.7881 -1.4835  0.6007
   20CHTO  C108 8116   5.653   2.071   1.179  0.4378 -0.0687  0.4366
   20CHTO   O71 8117   5.789   2.114   1.189 -0.4637  0.0590 -0.8399
   20CHTO  H171 8118   5.842   2.054   1.139  2.1741 -0.4534  2.4020
   20CHTO   O62 8119   5.729   1.983   0.711 -0.2796  0.6912  0.3641
   20CHTO   C91 8120   5.699   2.121   0.672 -0.1127 -0.6326  0.1203
   20CHTO  H178 8121   5.746   2.177   0.753  0.4833 -1.1314  0.1293
   20CHTO   C92 8122   5.539   2.150   0.666 -0.1181 -0.2204  0.2786
   20CHTO  H179 8123   5.486   2.064   0.624  1.6583 -1.7359  1.0643
   20CHTO   O66 8124   5.487   2.158   0.801 -0.0204 -0.4478  0.2658
   20CHTO  H166 8125   5.513   2.083   0.850  0.5129 -0.2954  0.2199
   20CHTO   C93 8126   5.496   2.280   0.581 -0.0365 -0.3352 -0.9648
   20CHTO  H180 8127   5.522   2.371   0.638 -0.2695 -0.9490  0.1507
   20CHTO   N16 8128   5.343   2.283   0.563 -0.0917 -0.8067 -0.3770
   20CHTO  H172 8129   5.311   2.386   0.576 -1.7989 -1.1514 -1.6158
   20CHTO  H173 8130   5.293   2.219   0.634  1.6452  0.9931  2.5624
   20CHTO   C94 8131   5.571   2.289   0.445 -0.0214  0.4326  0.5260
   20CHTO  H181 8132   5.550   2.206   0.379 -0.6547  0.7566  0.3165
   20CHTO   O61 8133   5.707   2.283   0.481  0.3122 -0.4840 -0.1923
   20CHTO   C95 8134   5.758   2.158   0.526  0.1245 -1.0380 -0.7238
   20CHTO  H182 8135   5.724   2.081   0.457  1.2343 -2.0180 -0.1863
   20CHTO  C106 8136   5.917   2.155   0.536  0.6753  0.3155  0.4548
   20CHTO   O69 8137   5.968   2.016   0.530  0.3167  0.3798 -0.5572
   20CHTO  H169 8138   5.964   1.981   0.443  1.8044 -3.4924  0.8385
   20CHTO   O63 8139   5.548   2.418   0.374 -0.0283 -0.0606 -0.0933
   20CHTO   C96 8140   5.443   2.408   0.251  0.4292 -0.1282 -0.4682
   20CHTO  H183 8141   5.390   2.316   0.273  0.1916  0.3560  0.9926
   20CHTO   C98 8142   5.523   2.402   0.111  0.1121  0.3176  0.1874
   20CHTO  H185 8143   5.606   2.332   0.123  0.6569  1.2318  1.8996
   20CHTO   O67 8144   5.439   2.358   0.011 -0.6109  0.2432 -0.9141
   20CHTO  H167 8145   5.361   2.408  -0.003 -1.6873 -0.4553  2.1270
   20CHTO  C102 8146   5.590   2.556   0.081 -0.8406 -0.0366 -0.2381
   20CHTO  H189 8147   5.626   2.554  -0.023  0.8359 -0.7746  0.3526
   20CHTO   N18 8148   5.710   2.601   0.159 -0.4085  0.3914  0.0954
   20CHTO  H176 8149   5.689   2.613   0.264  0.6609  2.5165  0.0944
   20CHTO  H177 8150   5.759   2.692   0.127  0.6840 -0.1666  0.1617
   20CHTO  C105 8151   5.481   2.660   0.096 -0.0217 -0.0313  0.7596
   20CHTO  H192 8152   5.504   2.742   0.164 -0.5592 -0.0855  1.0104
   20CHTO   O65 8153   5.351   2.608   0.133  0.0167  1.1625 -0.1115
   20CHTO  C100 8154   5.349   2.535   0.255  0.4099 -0.1251  0.0172
   20CHTO  H187 8155   5.384   2.603   0.333 -1.1650  0.4395  0.2580
   20CHTO  C107 8156   5.203   2.501   0.291  0.1729 -0.0840  0.3965
   20CHTO   O70 8157   5.157   2.393   0.219  0.0854 -0.3077  0.0212
   20CHTO  H170 8158   5.066   2.400   0.195 -0.0344 -1.3640  0.1529
   20CHTO   O57 8159   5.471   2.722  -0.052  0.0430  0.0917  0.4423
   20CHTO   C85 8160   5.413   2.851  -0.063 -0.3792  0.0780  0.5100
   20CHTO  H157 8161   5.392   2.884   0.040 -1.8998  0.4897  0.0933
   20CHTO   C83 8162   5.269   2.846  -0.127 -0.5115  0.7240  0.4597
   20CHTO  H155 8163   5.202   2.783  -0.069 -0.3429  0.3689  0.2691
   20CHTO   O56 8164   5.277   2.791  -0.263  0.0653  0.2786  0.5490
   20CHTO  H135 8165   5.357   2.742  -0.271  0.9373  1.6960  0.4620
   20CHTO   C81 8166   5.210   2.989  -0.128 -0.3714  0.1164  0.2950
   20CHTO  H153 8167   5.204   3.018  -0.023  2.1230 -1.9584  1.0509
   20CHTO   N14 8168   5.064   2.983  -0.163  0.0817  0.6266  0.2950
   20CHTO  H141 8169   5.060   2.948  -0.264  2.5417 -0.3839  0.5136
   20CHTO  H142 8170   5.004   3.071  -0.151 -2.3769 -1.1419  1.4171
   20CHTO   C79 8171   5.306   3.088  -0.200  0.0542 -0.5531  0.0484
   20CHTO  H151 8172   5.268   3.188  -0.179  0.3786  0.1270 -2.3896
   20CHTO   O52 8173   5.441   3.080  -0.148 -0.0269 -0.2307 -0.0333
   20CHTO   C86 8174   5.506   2.950  -0.144  0.0379 -0.9190 -0.0181
   20CHTO  H158 8175   5.523   2.920  -0.249  2.6235 -0.6808  0.3047
   20CHTO   C90 8176   5.646   2.967  -0.085 -0.9939  0.2058 -0.5823
   20CHTO   O60 8177   5.636   3.044   0.040  0.1035 -0.5803  0.3658
   20CHTO  H138 8178   5.563   3.016   0.092  0.1932 -2.2289 -0.3574
   20CHTO   O50 8179   5.308   3.068  -0.339 -0.4176  0.3191  0.3838
   20CHTO   C73 8180   5.376   3.102  -0.461 -0.0691  0.0362 -0.0216
   20CHTO  H145 8181   5.474   3.052  -0.465 -0.6866 -1.2035  0.0285
   20CHTO   C74 8182   5.403   3.255  -0.473 -0.4216 -0.3605 -0.2289
   20CHTO  H146 8183   5.462   3.272  -0.382 -1.8209 -0.4799  0.7141
   20CHTO   O54 8184   5.485   3.292  -0.585  0.0845  0.5512 -0.0831
   20CHTO  H133 8185   5.476   3.379  -0.619  0.0044  0.1333 -1.1415
   20CHTO   C75 8186   5.265   3.329  -0.467 -0.1220  0.3586  1.0248
   20CHTO  H147 8187   5.218   3.309  -0.369  0.3598 -1.8367  0.8358
   20CHTO   N13 8188   5.284   3.475  -0.462 -0.2287  0.0491 -0.0199
   20CHTO  H139 8189   5.185   3.515  -0.445  0.2435  0.4080  1.9301
   20CHTO  H140 8190   5.324   3.509  -0.556 -1.2879  1.0347 -0.1188
   20CHTO   C76 8191   5.170   3.273  -0.590 -0.3502 -0.1669 -0.6670
   20CHTO  H148 8192   5.209   3.321  -0.680 -0.9940  0.7535 -0.4571
   20CHTO   O49 8193   5.162   3.135  -0.591 -0.2152 -0.3319  0.0417
   20CHTO   C77 8194   5.287   3.056  -0.584  0.2304 -0.2500  0.0882
   20CHTO  H149 8195   5.340   3.072  -0.678 -1.8826 -1.8524 -1.4161
   20CHTO   C88 8196   5.235   2.911  -0.574  0.2786  0.3388  0.4488
   20CHTO   O58 8197   5.322   2.804  -0.633  0.4870  0.0625  0.1479
   20CHTO  H136 8198   5.396   2.797  -0.575 -0.1365 -0.7706  0.8585
   20CHTO   O51 8199   5.007   3.320  -0.571  0.2069 -0.3724  0.2119
   20CHTO   C78 8200   4.926   3.220  -0.470  0.2750  0.5082  0.1074
   20CHTO  H150 8201   4.994   3.150  -0.416 -0.9112  1.0069  2.3260
   20CHTO   C80 8202   4.821   3.145  -0.549  1.1663  0.0460  0.4038
   20CHTO  H152 8203   4.760   3.214  -0.610  2.2522  0.3764 -0.3133
   20CHTO   O55 8204   4.901   3.062  -0.637  0.2910  0.3084  0.4275
   20CHTO  H134 8205   4.947   3.125  -0.689 -1.4531  0.8503 -0.5012
   20CHTO   C84 8206   4.723   3.066  -0.456 -0.2315 -0.0222 -0.4143
   20CHTO  H156 8207   4.771   2.983  -0.405 -0.2220 -1.3421 -2.5509
   20CHTO   N15 8208   4.621   3.001  -0.541  0.1305 -0.1915 -0.6563
   20CHTO  H143 8209   4.565   2.924  -0.491  2.0947  0.3615  2.5816
   20CHTO  H144 8210   4.555   3.080  -0.566  2.0026  0.8800 -2.3667
   20CHTO   C87 8211   4.665   3.155  -0.342 -0.0909  0.0896  0.2071
   20CHTO  H159 8212   4.596   3.222  -0.394 -0.5250 -0.5956 -0.1154
   20CHTO   O53 8213   4.776   3.229  -0.279 -0.6181 -0.3793 -0.5458
   20CHTO   C82 8214   4.855   3.310  -0.361 -0.1583  0.4910 -0.2187
   20CHTO  H154 8215   4.789   3.384  -0.407 -0.3066  0.0054 -0.7926
   20CHTO   C89 8216   4.958   3.386  -0.280 -0.0483  0.6438  0.5490
   20CHTO   O59 8217   4.895   3.473  -0.190  0.2701 -0.0194  0.1031
   20CHTO  H137 8218   4.935   3.477  -0.105  1.8085  1.0626 -0.6515
   20CHTO   O45 8219   4.581   3.058  -0.229 -0.5164  0.4649  0.0664
   20CHTO   C67 8220   4.628   3.070  -0.093  0.1801  0.5184  0.0097
   20CHTO  H124 8221   4.736   3.071  -0.087  0.4067  0.2965 -3.5238
   20CHTO   C65 8222   4.571   3.189  -0.000 -0.2890 -0.3166  0.5614
   20CHTO  H122 8223   4.480   3.223  -0.049  0.3486  0.4791 -0.1003
   20CHTO   O44 8224   4.676   3.295  -0.004 -0.1839  0.1710 -0.1732
   20CHTO  H102 8225   4.756   3.261   0.031 -0.0262  0.3653 -0.3451
   20CHTO   C63 8226   4.525   3.145   0.148  0.3841  0.1216 -0.0931
   20CHTO  H120 8227   4.425   3.104   0.135  0.9738 -0.5868 -2.7215
   20CHTO   N11 8228   4.511   3.257   0.245  0.2660 -0.3328 -0.2749
   20CHTO  H108 8229   4.597   3.319   0.239 -1.1244  1.6539 -0.2000
   20CHTO  H109 8230   4.423   3.317   0.229 -0.2909 -1.1609 -0.3616
   20CHTO   C61 8231   4.624   3.036   0.207  0.5640 -0.4251  0.5516
   20CHTO  H118 8232   4.571   2.994   0.294 -1.2075  1.7556  0.5589
   20CHTO   O40 8233   4.639   2.920   0.114  0.7099 -0.2111  0.2248
   20CHTO   C68 8234   4.581   2.936  -0.019 -0.2720 -0.1422  0.6117
   20CHTO  H125 8235   4.471   2.933  -0.005 -0.6632 -1.4458 -2.3706
   20CHTO   C72 8236   4.622   2.817  -0.110  0.1552  0.4301  0.1876
   20CHTO   O48 8237   4.546   2.698  -0.082  0.1767  0.2625  0.1912
   20CHTO  H105 8238   4.462   2.694  -0.122  0.2736 -1.0509  0.0947
   20CHTO   O38 8239   4.758   3.073   0.226 -0.9154  0.3141 -0.7568
   20CHTO   C55 8240   4.833   3.031   0.345  0.0190  0.2865 -0.1430
   20CHTO  H112 8241   4.799   2.929   0.366  2.3509 -0.4853  0.1029
   20CHTO   C56 8242   4.810   3.121   0.461  0.4570  0.1666  0.2924
   20CHTO  H113 8243   4.806   3.224   0.424 -1.1066  0.3023  0.8342
   20CHTO   O42 8244   4.682   3.096   0.518  0.6848  0.1561 -0.0699
   20CHTO  H100 8245   4.610   3.155   0.507  2.9141  2.5694 -2.4624
   20CHTO   C57 8246   4.928   3.120   0.569  0.1978  0.3430  0.2591
   20CHTO  H114 8247   4.913   3.031   0.630  1.9026  1.0627  1.7651
   20CHTO   N10 8248   4.929   3.242   0.660 -0.3339 -0.3330  0.3356
   20CHTO  H106 8249   4.866   3.215   0.744 -0.0171 -0.1767  0.6221
   20CHTO  H107 8250   5.028   3.264   0.696  0.0843 -3.4017  1.2146
   20CHTO   C58 8251   5.069   3.101   0.508  0.0696 -0.1645 -1.1869
   20CHTO  H115 8252   5.098   3.194   0.455 -2.0336  2.2964  1.7933
   20CHTO   O37 8253   5.060   2.994   0.417 -0.4241  0.1246 -0.2680
   20CHTO   C59 8254   4.983   3.012   0.301 -0.6212  0.2398 -0.3917
   20CHTO  H116 8255   5.016   3.097   0.241 -1.3479 -1.5167 -3.3890
   20CHTO   C70 8256   4.997   2.885   0.219 -0.2344 -0.0799  0.4965
   20CHTO   O46 8257   5.132   2.854   0.184  0.1171  0.0029  0.3692
   20CHTO  H103 8258   5.165   2.914   0.120 -2.3345  0.7371 -0.2673
   20CHTO   O39 8259   5.173   3.061   0.611  0.2697  0.6621  0.3650
   20CHTO   C60 8260   5.156   2.952   0.706  0.8676  1.1268  0.7007
   20CHTO  H117 8261   5.070   2.966   0.770 -0.3150 -1.3447 -0.2742
   20CHTO   C62 8262   5.132   2.804   0.643  0.5345 -1.0873 -0.1482
   20CHTO  H119 8263   5.046   2.803   0.572  0.2395 -1.5086  0.2122
   20CHTO   O43 8264   5.238   2.766   0.552 -0.3642 -0.1319  0.1798
   20CHTO  H101 8265   5.316   2.751   0.602 -0.6292  1.5772  1.1457
   20CHTO   C66 8266   5.100   2.703   0.766 -0.0638 -0.2401  1.2834
   20CHTO  H123 8267   5.020   2.744   0.828  0.1767 -1.6787  2.5792
   20CHTO   N12 8268   5.033   2.576   0.726 -0.6384 -0.2011  0.2445
   20CHTO  H110 8269   5.030   2.566   0.618 -4.1995 -1.0455  0.3624
   20CHTO  H111 8270   5.090   2.494   0.768  0.6469 -0.1853 -1.4114
   20CHTO   C69 8271   5.233   2.703   0.851 -0.5367 -0.4336 -0.0110
   20CHTO  H126 8272   5.314   2.674   0.781 -0.3853 -1.4413  0.5670
   20CHTO   O41 8273   5.263   2.852   0.907  0.4582 -0.2459  0.1480
   20CHTO   C64 8274   5.282   2.960   0.801  0.0870 -0.3869  0.6725
   20CHTO  H121 8275   5.371   2.933   0.741 -0.9544 -1.1059 -0.5924
   20CHTO   C71 8276   5.296   3.100   0.872 -0.1726  0.0766 -0.0576
   20CHTO   O47 8277   5.419   3.111   0.945 -0.3885  0.0231 -0.4328
   20CHTO  H104 8278   5.422   3.190   0.996 -0.1118 -0.5526  0.4371
   20CHTO   O34 8279   5.239   2.609   0.976 -0.4350  0.0403 -0.2768
   20CHTO   C49 8280   5.240   2.473   0.997  0.0549  0.3375  0.0100
   20CHTO   H91 8281   5.212   2.427   0.902  0.4100  0.1860 -0.0210
   20CHTO   C47 8282   5.136   2.442   1.110 -0.1128  0.4314 -0.2891
   20CHTO   H89 8283   5.040   2.443   1.054 -1.3478  1.8021  1.7635
   20CHTO   O33 8284   5.122   2.546   1.211 -0.0749 -0.1512 -0.4654
   20CHTO   H70 8285   5.203   2.543   1.258  0.1542  0.3280 -0.8352
   20CHTO   C45 8286   5.168   2.302   1.181  0.3164  0.6475 -0.2001
   20CHTO   H87 8287   5.235   2.319   1.267 -0.6951  0.6924  0.5935
   20CHTO    N8 8288   5.047   2.238   1.236 -0.3237  0.1732 -0.0865
   20CHTO   H75 8289   5.064   2.138   1.273  2.5184  1.2222  1.5680
   20CHTO   H76 8290   5.012   2.301   1.317  3.7151  2.4195 -0.0004
   20CHTO   C43 8291   5.254   2.210   1.081 -0.4595  0.5428  0.3622
   20CHTO   H85 8292   5.269   2.122   1.144 -0.8264 -0.4978 -0.9926
   20CHTO   O29 8293   5.375   2.271   1.042  0.5667 -0.0420 -0.3519
   20CHTO   C50 8294   5.381   2.415   1.033  0.3472  0.6375  0.2458
   20CHTO   H92 8295   5.401   2.475   1.123 -1.4156 -0.5569  1.4688
   20CHTO   C54 8296   5.490   2.467   0.936 -0.0058  0.2939 -0.6666
   20CHTO   O36 8297   5.624   2.418   0.959  0.5074 -0.2033 -0.2364
   20CHTO   H72 8298   5.672   2.466   1.023 -1.2143  0.4491  0.5915
   20CHTO   O27 8299   5.177   2.169   0.962  0.6766 -0.2395  0.2495
   20CHTO   C37 8300   5.093   2.094   0.873 -0.2412  0.6637 -0.4954
   20CHTO   H79 8301   5.016   2.038   0.928 -0.7074 -2.2641 -3.9634
   20CHTO   C38 8302   5.036   2.191   0.773  0.5586  0.4188 -0.0457
   20CHTO   H80 8303   5.116   2.254   0.731  1.1137 -0.4187 -0.2399
   20CHTO   O31 8304   4.941   2.269   0.846  0.4934  0.4604 -0.0026
   20CHTO   H68 8305   4.971   2.346   0.890 -1.5876  1.8532 -0.9409
   20CHTO   C39 8306   4.971   2.112   0.652  0.8888 -0.1274  0.3306
   20CHTO   H81 8307   4.879   2.066   0.688 -0.1713  1.6049 -0.1279
   20CHTO    N7 8308   4.916   2.211   0.548 -0.8182  0.1422 -0.8510
   20CHTO   H73 8309   4.840   2.267   0.600  0.4051  0.2179  0.9050
   20CHTO   H74 8310   4.983   2.280   0.498 -2.4318  0.3803 -2.7637
   20CHTO   C40 8311   5.072   2.012   0.593 -1.0499  0.7092  0.2099
   20CHTO   H82 8312   5.156   2.052   0.536 -0.6732 -1.1743 -0.6099
   20CHTO   O26 8313   5.116   1.921   0.698 -0.2233  0.7851  0.3214
   20CHTO   C41 8314   5.190   1.992   0.800 -0.4619 -0.0540 -0.7488
   20CHTO   H83 8315   5.273   2.044   0.751  0.9299 -1.5522 -0.0453
   20CHTO   C52 8316   5.244   1.884   0.900 -0.2438 -0.4580 -0.2729
   20CHTO   O35 8317   5.342   1.792   0.831  0.4962 -0.4902  0.1240
   20CHTO   H71 8318   5.410   1.763   0.889  1.7848 -0.4895 -1.3331
   20CHTO   O28 8319   5.011   1.923   0.494 -0.8275  0.1866  0.2698
   20CHTO   C42 8320   5.089   1.836   0.401  0.4273  0.4602 -0.4079
   20CHTO   H84 8321   5.019   1.817   0.319 -2.3465  2.7848  1.3003
   20CHTO   C44 8322   5.114   1.699   0.478 -0.3896  0.3944  0.0606
   20CHTO   H86 8323   5.169   1.713   0.572 -1.1006  0.7406  0.4289
   20CHTO   O32 8324   4.987   1.642   0.509  0.2662  0.8816  0.7389
   20CHTO   H69 8325   4.977   1.649   0.602  3.1152  0.2523  1.1345
   20CHTO   C48 8326   5.198   1.597   0.383  0.3564  0.3427  0.2902
   20CHTO   H90 8327   5.141   1.569   0.294  2.2055 -1.6616 -0.3212
   20CHTO    N9 8328   5.232   1.463   0.443 -0.2515  0.2394 -0.3449
   20CHTO   H77 8329   5.238   1.471   0.551  1.8651  1.7622 -0.5412
   20CHTO   H78 8330   5.324   1.432   0.396 -0.5963 -0.8549 -0.2963
   20CHTO   C51 8331   5.332   1.686   0.338 -0.5177 -0.1360  0.4896
   20CHTO   H93 8332   5.378   1.719   0.431  0.7883  0.4790 -0.3654
   20CHTO   O30 8333   5.285   1.795   0.260  0.1187 -0.4719  0.2770
   20CHTO   C46 8334   5.224   1.894   0.343 -0.5828  0.2135 -0.5020
   20CHTO   H88 8335   5.280   1.921   0.432  2.0704 -0.2345 -1.9642
   20CHTO   C53 8336   5.199   2.014   0.256  0.4075 -0.0768  0.4463
   20CHTO   O72 8337   5.294   2.073   0.168  0.6775  0.2623 -0.1004
   20CHTO  H199 8338   5.330   2.001   0.119  0.1472 -1.6241  2.1673
   20CHTO   O22 8339   5.427   1.612   0.254  0.6611 -0.0451  0.2273
   20CHTO   C31 8340   5.568   1.650   0.234 -0.7445  0.6565  0.3382
   20CHTO   H59 8341   5.603   1.592   0.146  2.0841 -0.0450  1.8444
   20CHTO   C29 8342   5.597   1.806   0.205 -0.3240 -0.0694 -0.4915
   20CHTO   H57 8343   5.557   1.858   0.293 -0.5568  1.2418 -1.3679
   20CHTO   O21 8344   5.525   1.850   0.090 -0.7359 -0.1150  0.5136
   20CHTO   H37 8345   5.437   1.864   0.121 -0.8856  1.2130 -0.4763
   20CHTO   C27 8346   5.752   1.833   0.198  0.4394 -0.2013  0.7318
   20CHTO   H55 8347   5.796   1.788   0.109  0.5209  0.1024  0.6177
   20CHTO    N5 8348   5.775   1.978   0.190 -0.3032 -0.1738 -0.6848
   20CHTO   H43 8349   5.709   2.013   0.113 -3.5466 -0.5216  1.8411
   20CHTO   H44 8350   5.879   1.999   0.169  0.1116 -0.7700  0.7308
   20CHTO   C25 8351   5.830   1.769   0.325 -0.6260 -0.6542 -0.4158
   20CHTO   H53 8352   5.791   1.815   0.417 -0.9744  0.7854 -1.2578
   20CHTO   O17 8353   5.794   1.627   0.337 -0.1638 -0.0697  0.3392
   20CHTO   C32 8354   5.654   1.602   0.355  0.7221  0.3822 -0.6978
   20CHTO   H60 8355   5.621   1.650   0.447 -2.1368  1.8420 -2.4172
   20CHTO   C36 8356   5.641   1.441   0.365 -0.0683  0.5600 -0.0013
   20CHTO   O25 8357   5.675   1.373   0.243  0.4750  0.1589 -0.4020
   20CHTO   H40 8358   5.651   1.418   0.164 -0.9996 -0.2739 -0.2129
   20CHTO   O15 8359   5.983   1.785   0.330 -0.1828 -0.3523 -0.0051
   20CHTO   C19 8360   6.094   1.800   0.234  0.0793 -0.6095  0.4577
   20CHTO   H47 8361   6.056   1.861   0.150 -3.1940 -3.2051 -0.0512
   20CHTO   C20 8362   6.220   1.864   0.303  0.0197 -0.5489 -0.5298
   20CHTO   H48 8363   6.260   1.802   0.385  2.1371 -0.2025 -1.2554
   20CHTO   O19 8364   6.179   1.990   0.347 -0.2033 -0.1464 -0.1712
   20CHTO   H35 8365   6.157   1.997   0.438  3.3365  0.1953  0.7154
   20CHTO   C21 8366   6.340   1.866   0.204  0.3866  0.1744  0.3003
   20CHTO   H49 8367   6.314   1.936   0.125 -0.0675 -0.8151 -0.4417
   20CHTO    N4 8368   6.458   1.923   0.268 -0.1165  0.2281  0.6416
   20CHTO   H41 8369   6.530   1.947   0.191 -0.6779 -1.0280 -0.2831
   20CHTO   H42 8370   6.507   1.854   0.335 -1.2970 -1.6340 -0.3543
   20CHTO   C22 8371   6.362   1.730   0.146  0.1570 -0.2751  0.3117
   20CHTO   H50 8372   6.376   1.660   0.229 -1.0082 -0.1440  0.6335
   20CHTO   O14 8373   6.239   1.692   0.081  0.6100  1.0482 -0.7042
   20CHTO   C23 8374   6.125   1.668   0.165 -0.3533 -0.2230 -0.0811
   20CHTO   H51 8375   6.154   1.592   0.239 -2.9748 -0.0636  1.1487
   20CHTO   C34 8376   6.015   1.614   0.070  0.3278  0.2475 -0.0913
   20CHTO   O23 8377   6.058   1.485   0.021 -0.2420  0.2861  0.2795
   20CHTO   H38 8378   5.998   1.420   0.054  1.5152 -1.2847  0.4650
   20CHTO   O16 8379   6.457   1.720   0.038  0.0106  0.4144 -0.7106
   20CHTO   C24 8380   6.550   1.569   0.051 -1.1740  0.4644 -0.7559
   20CHTO   H52 8381   6.490   1.488   0.093 -1.5976  2.2462  2.2118
   20CHTO   C26 8382   6.667   1.582   0.154  0.0317  0.3673  0.2803
   20CHTO   H54 8383   6.724   1.676   0.137 -1.2303  0.9700 -0.6082
   20CHTO   O20 8384   6.618   1.595   0.285 -0.4928  0.0457  0.8212
   20CHTO   H36 8385   6.571   1.516   0.306  0.3856 -0.9359 -0.8207
   20CHTO   C30 8386   6.765   1.461   0.149  0.7304 -0.2068  1.5030
   20CHTO   H58 8387   6.772   1.408   0.246 -0.4057 -2.6947  0.2636
   20CHTO    N6 8388   6.900   1.511   0.116  0.0325  0.5123  0.1396
   20CHTO   H45 8389   6.945   1.552   0.205  1.0192  0.7177 -0.4433
   20CHTO   H46 8390   6.961   1.430   0.079 -1.6721  0.2130 -2.1374
   20CHTO   C33 8391   6.724   1.346   0.048  0.1247  0.2626 -0.2915
   20CHTO   H61 8392   6.803   1.272   0.029 -0.7346 -0.6071 -0.4772
   20CHTO   O18 8393   6.695   1.401  -0.082 -0.0009  0.5833  0.7618
   20CHTO   C28 8394   6.604   1.520  -0.089  0.3950 -0.1020 -1.3172
   20CHTO   H56 8395   6.657   1.601  -0.139 -0.1933  0.4947 -0.9784
   20CHTO   C35 8396   6.496   1.465  -0.170  0.2133 -0.4206  0.4605
   20CHTO   O24 8397   6.539   1.466  -0.309 -0.5504 -0.5220  0.0602
   20CHTO   H39 8398   6.528   1.382  -0.348 -1.3886  0.7478 -2.5827
   20CHTO    O9 8399   6.612   1.273   0.101 -0.1543 -0.1931 -0.3287
   20CHTO   C13 8400   6.621   1.138   0.167 -0.7122  0.0821 -0.0293
   20CHTO   H26 8401   6.699   1.145   0.245 -0.6978  1.2452 -0.1480
   20CHTO   C11 8402   6.663   1.024   0.061  0.7643 -0.3565 -0.3488
   20CHTO   H24 8403   6.770   1.030   0.039  0.7510 -0.8988 -0.5751
   20CHTO    O8 8404   6.591   1.035  -0.065  0.1998 -0.8265 -0.1349
   20CHTO    H3 8405   6.635   0.975  -0.122  2.6357 -0.1099  0.9340
   20CHTO    C9 8406   6.632   0.887   0.128  0.6100  0.3225  0.6775
   20CHTO   H22 8407   6.697   0.882   0.217  2.7804 -0.7341 -0.9269
   20CHTO    N2 8408   6.691   0.770   0.055 -0.0959 -0.8136 -0.4292
   20CHTO   H10 8409   6.622   0.727  -0.016  0.4290  0.0501 -1.4809
   20CHTO   H11 8410   6.763   0.817  -0.009  0.7987 -0.1144  1.0703
   20CHTO    C7 8411   6.474   0.880   0.164 -0.4921  0.1222 -0.2948
   20CHTO   H20 8412   6.482   0.828   0.262  0.9423  1.3054  0.2371
   20CHTO    O4 8413   6.409   1.009   0.186 -0.3954  0.6493  0.3880
   20CHTO   C14 8414   6.486   1.112   0.246  0.0686  0.6863 -0.2524
   20CHTO   H27 8415   6.517   1.090   0.351 -1.1384  3.1026  0.6487
   20CHTO   C18 8416   6.385   1.239   0.257 -0.3812  0.1034 -0.0713
   20CHTO   O13 8417   6.451   1.364   0.302  0.1136  0.1038  0.2693
   20CHTO    H7 8418   6.407   1.443   0.278  0.5583  0.6299  1.1634
   20CHTO    O2 8419   6.385   0.805   0.048 -0.2472 -0.0235  0.1642
   20CHTO    C1 8420   6.281   0.723   0.099  1.1917  0.0043  0.6162
   20CHTO   H14 8421   6.246   0.771   0.193  1.2865  1.4566 -0.0755
   20CHTO    C2 8422   6.331   0.580   0.135  0.5829  0.4630 -0.4221
   20CHTO   H15 8423   6.377   0.542   0.042  1.4834 -0.3986  0.3623
   20CHTO    O6 8424   6.434   0.583   0.235  0.0414  0.5339  0.1006
   20CHTO    H1 8425   6.404   0.555   0.320 -0.7237  0.5914 -0.1452
   20CHTO    C3 8426   6.213   0.483   0.181 -0.0110  0.0443  0.5246
   20CHTO   H16 8427   6.202   0.503   0.288  0.7343  1.2579  0.3786
   20CHTO    N1 8428   6.261   0.338   0.183 -0.3377 -0.1884 -0.7676
   20CHTO    H8 8429   6.333   0.316   0.260 -0.6115  0.1204 -0.4194
   20CHTO    H9 8430   6.321   0.309   0.099  0.3416  2.9324 -1.4030
   20CHTO    C4 8431   6.071   0.504   0.106 -0.1738  0.4844 -0.4135
   20CHTO   H17 8432   6.077   0.455   0.009 -1.6039  1.5019 -1.0385
   20CHTO    O1 8433   6.049   0.645   0.087 -0.4379 -0.2184  0.0695
   20CHTO    C5 8434   6.150   0.717   0.013  0.3239  0.2429 -0.0598
   20CHTO   H18 8435   6.189   0.655  -0.069  2.2082  3.3422 -1.6037
   20CHTO   C16 8436   6.093   0.843  -0.048  0.4792 -0.2034  0.0322
   20CHTO   O11 8437   6.084   0.953   0.048  0.5656  0.0868  0.3600
   20CHTO    H5 8438   6.028   1.020   0.015  0.1095 -0.8856 -0.9009
   20CHTO    O3 8439   5.969   0.460   0.202  0.3613  0.4703 -0.0337
   20CHTO    C6 8440   5.845   0.436   0.132 -0.5639 -0.5586  0.1800
   20CHTO   H19 8441   5.852   0.489   0.037  0.9890  0.2914  0.7636
   20CHTO    C8 8442   5.826   0.281   0.104  0.2968 -0.0515 -0.2043
   20CHTO   H21 8443   5.830   0.230   0.200 -2.0442 -1.0496 -0.5916
   20CHTO    O7 8444   5.933   0.228   0.021  0.4385 -0.3987  0.0761
   20CHTO    H2 8445   5.943   0.282  -0.055 -0.6790  2.0518  1.5865
   20CHTO   C12 8446   5.684   0.254   0.042  0.3108 -0.0997  0.7574
   20CHTO   H25 8447   5.695   0.305  -0.056 -0.5635 -1.5605 -0.1151
   20CHTO    N3 8448   5.649   0.111   0.021 -0.2223 -0.2352 -0.3919
   20CHTO   H12 8449   5.641   0.062   0.118  1.3062  1.5124  0.6578
   20CHTO   H13 8450   5.555   0.102  -0.031 -0.3914  2.0792 -0.5430
   20CHTO   C15 8451   5.564   0.330   0.117 -0.5201 -0.5763 -0.6173
   20CHTO   H28 8452   5.520   0.288   0.207 -0.3598 -0.3980 -0.4565
   20CHTO   O10 8453   5.448   0.350   0.015  0.1782  0.1960 -0.4560
   20CHTO    H4 8454   5.364   0.338   0.055 -0.0858  1.0163 -0.7529
   20CHTO    O5 8455   5.590   0.474   0.148  0.1576  1.0671  0.3981
   20CHTO   C10 8456   5.717   0.497   0.211 -1.1714 -0.3998  0.6697
   20CHTO   H23 8457   5.723   0.446   0.308  0.4013  0.6197  1.1196
   20CHTO   C17 8458   5.746   0.644   0.237 -0.0097 -0.3149  0.5276
   20CHTO   O12 8459   5.660   0.696   0.337 -0.8165  0.2521 -0.4718
   20CHTO    H6 8460   5.715   0.727   0.406 -0.1826  0.2294 -0.9615
   21GLOH   H03 8461   3.413   9.054   1.040  0.0986  2.8421 -0.3218
   21GLOH    O1 8462   3.354   9.029   0.966  0.2681  0.2527  0.3521
   21GLOH    C1 8463   3.372   8.884   0.943 -0.1422 -0.0920 -0.2925
   21GLOH   H02 8464   3.273   8.842   0.932 -0.4821  1.3784 -3.3102
   21GLOH   H08 8465   3.413   8.827   1.027 -2.0889 -2.1835 -0.7274
   21GLOH    C2 8466   3.464   8.857   0.822  0.0585  0.0014  0.1175
   21GLOH   H04 8467   3.561   8.908   0.835  0.3969 -0.2594 -1.3037
   21GLOH    O2 8468   3.492   8.722   0.787  0.3464  0.3073  0.7134
   21GLOH   H05 8469   3.583   8.700   0.764 -0.1734 -3.7413  2.1216
   21GLOH    C3 8470   3.419   8.934   0.694  0.1571  0.0750 -0.0290
   21GLOH   H06 8471   3.322   8.885   0.677 -1.6181  2.2723  3.2162
   21GLOH   H07 8472   3.499   8.913   0.623  0.3984  0.6410  0.0748
   21GLOH    O3 8473   3.397   9.070   0.716 -0.6172  0.0541 -0.5433
   21GLOH   H01 8474   3.362   9.074   0.807  0.9902  0.1566  0.0884
   22GLOH   H03 8475   3.319   9.803   1.729  1.3323 -0.1637  1.2833
   22GLOH    O1 8476   3.394   9.862   1.709  0.5198  0.5663  0.3674
   22GLOH    C1 8477   3.519   9.811   1.768  0.3051 -0.5208 -1.2734
   22GLOH   H02 8478   3.599   9.882   1.746 -1.8810  2.3502 -0.2800
   22GLOH   H08 8479   3.545   9.716   1.721  0.5597 -0.7202 -0.7260
   22GLOH    C2 8480   3.515   9.778   1.918 -0.1163  0.0084 -0.2358
   22GLOH   H04 8481   3.448   9.690   1.915  0.3118 -0.3310  0.1449
   22GLOH    O2 8482   3.644   9.739   1.966  0.4923 -0.3035 -0.3331
   22GLOH   H05 8483   3.705   9.813   1.976  0.8846 -0.6474 -0.1509
   22GLOH    C3 8484   3.444   9.883   2.007  0.9929 -0.4615  0.5100
   22GLOH   H06 8485   3.394   9.822   2.082 -1.9326  0.0680 -0.9392
   22GLOH   H07 8486   3.370   9.938   1.950  2.5284  1.5817  0.4226
   22GLOH    O3 8487   3.535   9.980   2.055  0.1729  0.1448  0.6012
   22GLOH   H01 8488   3.584  10.015   1.978 -0.2405 -0.7421 -0.0668
   23GLOH   H03 8489   3.552   9.928   2.197  0.6644 -2.0274 -0.2396
   23GLOH    O1 8490   3.562   9.906   2.291 -0.2346  0.1900  0.4093
   23GLOH    C1 8491   3.568  10.015   2.383 -0.2405 -0.7779  0.8779
   23GLOH   H02 8492   3.467  10.024   2.425 -0.3529  1.2750  0.2423
   23GLOH   H08 8493   3.597  10.104   2.328 -1.9239  0.2402  1.5906
   23GLOH    C2 8494   3.671   9.986   2.485  0.3003  0.6414 -0.2824
   23GLOH   H04 8495   3.760   9.990   2.420  0.2280  2.7319 -0.2784
   23GLOH    O2 8496   3.686  10.084   2.585 -0.1513  0.3475 -0.1698
   23GLOH   H05 8497   3.681  10.173   2.547 -1.8766  1.2355  2.0318
   23GLOH    C3 8498   3.657   9.853   2.563  0.7544 -0.2665 -0.9296
   23GLOH   H06 8499   3.564   9.850   2.619  2.0225 -1.6069  1.1984
   23GLOH   H07 8500   3.739   9.842   2.635  0.9662  0.9624 -0.9779
   23GLOH    O3 8501   3.656   9.738   2.473 -0.2785 -0.2372 -0.3233
   23GLOH   H01 8502   3.611   9.767   2.391 -1.5948  0.5072  0.6377
   24GLOH   H03 8503   4.074   0.377   1.513  1.6944  1.3822 -0.0461
   24GLOH    O1 8504   4.082   0.349   1.607  0.1073 -1.0573 -0.5776
   24GLOH    C1 8505   4.179   0.433   1.676 -0.2316 -0.3223 -0.2720
   24GLOH   H02 8506   4.279   0.401   1.647 -0.2638  0.2596 -1.0397
   24GLOH   H08 8507   4.166   0.419   1.784  0.5084 -0.1717 -0.1636
   24GLOH    C2 8508   4.175   0.581   1.638  0.8092 -0.1022 -0.2035
   24GLOH   H04 8509   4.245   0.636   1.703  3.1084 -3.3687  0.2268
   24GLOH    O2 8510   4.211   0.601   1.499 -0.2975 -0.0349  0.1513
   24GLOH   H05 8511   4.178   0.523   1.451  1.0552 -1.0410  0.8456
   24GLOH    C3 8512   4.032   0.638   1.656  0.9565  0.3099  0.2541
   24GLOH   H06 8513   3.957   0.564   1.631  1.3309  0.5744 -1.7453
   24GLOH   H07 8514   4.019   0.727   1.595  0.9166 -0.4570 -0.8632
   24GLOH    O3 8515   4.015   0.664   1.795 -0.9509 -0.5751  0.1044
   24GLOH   H01 8516   3.921   0.654   1.815 -1.1922  2.4049  0.6975
   25GLOH   H03 8517   4.458   4.309   1.183  1.1298  1.0056  0.3486
   25GLOH    O1 8518   4.393   4.381   1.188 -0.0108  0.0049  0.2765
   25GLOH    C1 8519   4.273   4.351   1.115  0.2536  0.2744  1.0296
   25GLOH   H02 8520   4.269   4.412   1.025 -2.5447 -2.4008 -0.7438
   25GLOH   H08 8521   4.182   4.370   1.172  0.2979  0.8331  0.9205
   25GLOH    C2 8522   4.274   4.204   1.064 -0.3064  0.0871 -0.2206
   25GLOH   H04 8523   4.257   4.135   1.148 -1.2216 -0.4232 -0.8134
   25GLOH    O2 8524   4.160   4.184   0.979 -0.3711  0.0494 -0.1276
   25GLOH   H05 8525   4.151   4.264   0.925  0.4201  0.4405  0.3051
   25GLOH    C3 8526   4.402   4.163   0.992 -0.1104  0.0096 -0.6364
   25GLOH   H06 8527   4.412   4.240   0.915  1.1872 -1.0819 -1.5864
   25GLOH   H07 8528   4.388   4.070   0.936  1.0668  0.7349 -2.1551
   25GLOH    O3 8529   4.506   4.152   1.083  0.6627  0.7996 -0.3015
   25GLOH   H01 8530   4.506   4.061   1.119  0.1358 -0.0050 -2.2809
   26GLOH   H03 8531   2.539   0.831   1.440  0.3158 -0.5859 -1.1454
   26GLOH    O1 8532   2.532   0.925   1.413 -0.0612 -0.2537  0.0517
   26GLOH    C1 8533   2.583   0.930   1.271  0.4365 -0.1478  0.3030
   26GLOH   H02 8534   2.496   0.953   1.210  0.6933  1.6026  0.5867
   26GLOH   H08 8535   2.627   0.836   1.236  1.5537  0.5314 -0.1431
   26GLOH    C2 8536   2.692   1.042   1.258  0.5974  0.4855 -0.9519
   26GLOH   H04 8537   2.780   1.005   1.311 -0.7503  0.3068  1.2206
   26GLOH    O2 8538   2.719   1.065   1.118 -0.0715  0.0559 -0.0918
   26GLOH   H05 8539   2.699   0.987   1.064 -0.7152 -0.4355  0.8310
   26GLOH    C3 8540   2.651   1.173   1.327 -0.0687 -0.5556 -0.4213
   26GLOH   H06 8541   2.604   1.152   1.423  1.6844 -0.8262  0.3956
   26GLOH   H07 8542   2.571   1.217   1.268 -0.6725 -0.3990  0.4997
   26GLOH    O3 8543   2.762   1.266   1.335 -0.0922  0.3943  0.2723
   26GLOH   H01 8544   2.823   1.217   1.276 -2.2320 -1.8622 -0.1633
   27GLOH   H03 8545   4.022   1.330   0.130 -0.8621  1.7083  1.1696
   27GLOH    O1 8546   4.065   1.408   0.090  0.3496  0.3149 -0.3357
   27GLOH    C1 8547   3.983   1.444  -0.024 -0.8377  0.6189 -0.3223
   27GLOH   H02 8548   3.986   1.357  -0.091 -0.2654  0.5519 -0.2153
   27GLOH   H08 8549   4.031   1.527  -0.075  1.6769  0.6631  1.9411
   27GLOH    C2 8550   3.835   1.476   0.010 -0.1112  0.0801  0.4157
   27GLOH   H04 8551   3.830   1.544   0.096  1.9419  0.3147  0.3675
   27GLOH    O2 8552   3.768   1.535  -0.106 -0.0397  0.0320 -0.1751
   27GLOH   H05 8553   3.701   1.596  -0.071  0.3212  0.1494  0.3163
   27GLOH    C3 8554   3.759   1.349   0.053 -0.6998  0.1929  0.1272
   27GLOH   H06 8555   3.822   1.292   0.121  1.6532  0.5663 -1.6855
   27GLOH   H07 8556   3.751   1.282  -0.032  1.4893 -0.3668  0.3347
   27GLOH    O3 8557   3.628   1.381   0.101 -0.0694 -0.2556 -0.4525
   27GLOH   H01 8558   3.600   1.299   0.145 -0.1551 -0.6241 -1.1817
   28GLOH   H03 8559   2.924   0.362   1.019 -2.5058  1.8523  2.5748
   28GLOH    O1 8560   2.851   0.346   0.956 -0.2383  0.1753  0.2917
   28GLOH    C1 8561   2.786   0.462   0.923  0.5649  0.2142  0.2124
   28GLOH   H02 8562   2.759   0.465   0.817  0.3883  1.6382  0.2805
   28GLOH   H08 8563   2.835   0.559   0.936 -1.4194  1.2871 -0.0301
   28GLOH    C2 8564   2.669   0.474   1.032 -0.3015  0.1057  0.1909
   28GLOH   H04 8565   2.720   0.470   1.130 -2.9120 -0.3171  1.5591
   28GLOH    O2 8566   2.604   0.598   1.024  0.0246 -0.0196 -0.2870
   28GLOH   H05 8567   2.510   0.591   1.050 -0.7920  3.5073 -1.8868
   28GLOH    C3 8568   2.568   0.364   0.983 -0.3944 -0.6788 -0.6781
   28GLOH   H06 8569   2.482   0.356   1.049 -2.5727 -2.0526 -3.5792
   28GLOH   H07 8570   2.623   0.270   0.980 -1.5166 -1.4047  0.8797
   28GLOH    O3 8571   2.525   0.388   0.849 -0.5438  0.2914 -0.0712
   28GLOH   H01 8572   2.574   0.332   0.786 -0.7382 -0.1896  0.1955
   29GLOH   H03 8573   3.899   9.570   0.865 -0.0788  0.2852 -0.0119
   29GLOH    O1 8574   3.896   9.654   0.816  0.2163  0.1229 -0.3112
   29GLOH    C1 8575   3.846   9.620   0.682  0.7530 -0.3535  0.0266
   29GLOH   H02 8576   3.740   9.595   0.680  0.7302 -0.1791 -2.1878
   29GLOH   H08 8577   3.893   9.525   0.656  0.2682 -0.2419 -1.2900
   29GLOH    C2 8578   3.878   9.736   0.585  0.3082  0.1065  0.1279
   29GLOH   H04 8579   3.988   9.743   0.585  0.2838  0.6216 -1.1186
   29GLOH    O2 8580   3.834   9.701   0.450  0.1849 -0.5843  0.2137
   29GLOH   H05 8581   3.830   9.604   0.443 -0.6266 -0.6767  1.5864
   29GLOH    C3 8582   3.799   9.854   0.641  0.4328 -0.4861  0.3788
   29GLOH   H06 8583   3.693   9.828   0.639 -0.1503  1.8282 -0.6359
   29GLOH   H07 8584   3.817   9.942   0.580 -3.3288  0.5907  0.7080
   29GLOH    O3 8585   3.841   9.890   0.777 -0.2173 -0.3261  0.0007
   29GLOH   H01 8586   3.895   9.814   0.808 -2.2506 -1.4996  0.7930
   30GLOH   H03 8587   4.307   4.168   0.001 -0.5054 -1.5790  1.6543
   30GLOH    O1 8588   4.402   4.158  -0.016 -0.4531  0.1035  0.8771
   30GLOH    C1 8589   4.447   4.295  -0.055  0.0942 -0.1185  0.0210
   30GLOH   H02 8590   4.397   4.321  -0.148  0.2929 -1.8058 -0.5751
   30GLOH   H08 8591   4.554   4.296  -0.074  0.0899  1.1275  0.0657
   30GLOH    C2 8592   4.416   4.402   0.049  0.3348  0.8234  0.3084
   30GLOH   H04 8593   4.470   4.492   0.016  1.0614 -0.3283 -1.7468
   30GLOH    O2 8594   4.273   4.432   0.051 -0.4482  0.0540  0.3687
   30GLOH   H05 8595   4.230   4.381   0.121  1.1064 -1.1019  0.5135
   30GLOH    C3 8596   4.474   4.366   0.188  0.5633  0.0420  0.4600
   30GLOH   H06 8597   4.436   4.266   0.209  1.2206 -0.4674 -0.7066
   30GLOH   H07 8598   4.434   4.435   0.262  0.2765  0.4393 -0.0616
   30GLOH    O3 8599   4.614   4.367   0.196 -0.0185  0.0531 -0.4134
   30GLOH   H01 8600   4.643   4.281   0.160  0.4525 -0.8057  1.8882
   31GLOH   H03 8601   3.867   1.486   1.739 -1.3099  0.6186 -0.2930
   31GLOH    O1 8602   3.863   1.446   1.650  0.2693  0.2095 -0.1911
   31GLOH    C1 8603   3.947   1.523   1.554  0.0078  0.6164  0.4109
   31GLOH   H02 8604   3.944   1.629   1.579 -0.5831  1.7659 -4.0767
   31GLOH   H08 8605   3.906   1.518   1.452  1.3031 -1.8426 -0.0230
   31GLOH    C2 8606   4.088   1.468   1.538  0.2960 -0.8668  0.1058
   31GLOH   H04 8607   4.070   1.361   1.523 -2.7750 -0.9618  3.7532
   31GLOH    O2 8608   4.154   1.537   1.427 -0.2372 -0.5831  0.2895
   31GLOH   H05 8609   4.224   1.480   1.389 -0.1545  0.2100 -0.7557
   31GLOH    C3 8610   4.166   1.481   1.673 -0.2250 -0.0112 -0.0965
   31GLOH   H06 8611   4.120   1.426   1.754  2.4914 -0.5943  1.1226
   31GLOH   H07 8612   4.169   1.586   1.701 -4.3269  0.3729 -0.8997
   31GLOH    O3 8613   4.296   1.419   1.670 -0.2738 -0.1326  0.5783
   31GLOH   H01 8614   4.351   1.438   1.592 -2.9862  1.8644 -0.9510
   32GLOH   H03 8615   4.279   1.085   0.707 -0.0730 -0.2703  1.2098
   32GLOH    O1 8616   4.369   1.121   0.704 -0.1569 -0.1453  0.0043
   32GLOH    C1 8617   4.379   1.223   0.801  0.5523 -0.0288  0.1564
   32GLOH   H02 8618   4.384   1.179   0.901  2.6647 -3.1379 -1.2327
   32GLOH   H08 8619   4.288   1.283   0.800 -0.1643 -1.1124 -0.1105
   32GLOH    C2 8620   4.501   1.318   0.783 -0.1718 -0.4021  0.0340
   32GLOH   H04 8621   4.490   1.369   0.686 -0.1473  0.2322  0.3669
   32GLOH    O2 8622   4.513   1.421   0.881 -0.7883 -0.1501  0.2872
   32GLOH   H05 8623   4.605   1.451   0.868 -1.0116  0.2519 -0.4545
   32GLOH    C3 8624   4.635   1.238   0.785  0.2674 -0.6423 -0.0388
   32GLOH   H06 8625   4.635   1.188   0.688 -1.7914  1.5921 -1.2384
   32GLOH   H07 8626   4.626   1.155   0.855  1.0873  0.0862  0.9350
   32GLOH    O3 8627   4.754   1.316   0.806  0.4536  0.1638 -0.4516
   32GLOH   H01 8628   4.823   1.280   0.747  0.3915 -1.2221  0.3115
   33GLOH   H03 8629   3.304   9.484   1.561 -0.4810 -0.4789 -1.7816
   33GLOH    O1 8630   3.227   9.519   1.610  0.5931 -0.1246 -0.2780
   33GLOH    C1 8631   3.128   9.420   1.632  0.4463  0.7373  0.3281
   33GLOH   H02 8632   3.103   9.366   1.541 -0.7226  1.7981 -0.0048
   33GLOH   H08 8633   3.034   9.466   1.663  0.4030  2.7095 -2.5372
   33GLOH    C2 8634   3.166   9.320   1.742  0.2183 -0.6648 -0.5229
   33GLOH   H04 8635   3.152   9.379   1.834 -1.8963 -2.2833  0.2237
   33GLOH    O2 8636   3.073   9.207   1.737 -0.3861 -0.0939 -0.1850
   33GLOH   H05 8637   3.066   9.161   1.823 -0.5766  0.9785  0.3930
   33GLOH    C3 8638   3.308   9.271   1.714  0.0611 -0.3016  0.0924
   33GLOH   H06 8639   3.342   9.199   1.789 -1.0203 -0.1224  0.7649
   33GLOH   H07 8640   3.382   9.348   1.736 -0.3836  0.2284 -0.2618
   33GLOH    O3 8641   3.319   9.211   1.584 -0.1825 -0.6334  0.7303
   33GLOH   H01 8642   3.229   9.187   1.557  0.5031 -1.7575 -0.6580
   34GLOH   H03 8643   3.046   2.213   2.433 -0.8719  0.2456  0.7797
   34GLOH    O1 8644   3.108   2.288   2.446 -0.5184  0.1759 -0.3896
   34GLOH    C1 8645   3.098   2.368   2.328 -0.5445 -0.1483  0.1483
   34GLOH   H02 8646   3.048   2.321   2.243 -0.4519  1.2683 -0.7046
   34GLOH   H08 8647   3.200   2.394   2.302 -0.9866  2.7887  1.1985
   34GLOH    C2 8648   3.029   2.502   2.345 -0.7987 -0.4887  0.4671
   34GLOH   H04 8649   3.098   2.574   2.390 -1.1106  0.1323 -0.0260
   34GLOH    O2 8650   2.997   2.563   2.214 -0.3975 -0.3034  0.0987
   34GLOH   H05 8651   2.948   2.496   2.163  2.2550 -1.6080 -0.8343
   34GLOH    C3 8652   2.899   2.482   2.432  0.0822  0.4111 -0.0675
   34GLOH   H06 8653   2.939   2.445   2.527 -1.2213 -1.0184 -0.0602
   34GLOH   H07 8654   2.834   2.411   2.382  1.3287 -0.3778 -0.5861
   34GLOH    O3 8655   2.822   2.600   2.458 -0.5334 -0.0709 -0.1925
   34GLOH   H01 8656   2.882   2.661   2.505 -0.6112 -1.1751  1.3780
   35GLOH   H03 8657   3.300   1.867   2.414 -0.6383 -0.7477  0.3145
   35GLOH    O1 8658   3.368   1.828   2.356  0.2868  0.6687  0.4238
   35GLOH    C1 8659   3.329   1.690   2.339  0.8873 -1.2309  0.1129
   35GLOH   H02 8660   3.221   1.674   2.341  1.0898 -2.6730  0.0703
   35GLOH   H08 8661   3.381   1.630   2.414  0.6404  1.7590  2.7723
   35GLOH    C2 8662   3.375   1.636   2.203  0.6777  0.3003 -0.4293
   35GLOH   H04 8663   3.345   1.530   2.208  2.9381 -0.2972  1.4396
   35GLOH    O2 8664   3.324   1.698   2.086 -0.2374 -0.1003 -0.3973
   35GLOH   H05 8665   3.322   1.630   2.016  0.5750  0.4538 -0.9769
   35GLOH    C3 8666   3.525   1.637   2.199  0.0305  0.5343  0.4391
   35GLOH   H06 8667   3.544   1.745   2.196  0.8350  0.5061  3.1132
   35GLOH   H07 8668   3.554   1.597   2.102 -2.9827  0.5551 -0.5232
   35GLOH    O3 8669   3.595   1.573   2.308 -0.3626  0.1822 -0.2321
   35GLOH   H01 8670   3.626   1.644   2.367  2.2224 -2.7348  2.0902
   36GLOH   H03 8671   4.364   2.641   1.460  0.4968  0.1868  0.9426
   36GLOH    O1 8672   4.350   2.545   1.449  0.3334  0.3366 -0.2664
   36GLOH    C1 8673   4.447   2.462   1.518  0.1593  0.3897 -0.3220
   36GLOH   H02 8674   4.429   2.454   1.625 -0.7430 -0.0919 -0.5017
   36GLOH   H08 8675   4.546   2.506   1.502  0.4767  0.3023  1.3555
   36GLOH    C2 8676   4.455   2.317   1.470 -0.2431  0.3432  0.7605
   36GLOH   H04 8677   4.481   2.303   1.364 -1.1757 -0.3460  0.6117
   36GLOH    O2 8678   4.537   2.231   1.560 -1.0028  0.3122  0.0633
   36GLOH   H05 8679   4.630   2.243   1.534 -1.2523  0.4102 -0.8035
   36GLOH    C3 8680   4.311   2.256   1.466 -0.6689  0.3671 -0.4749
   36GLOH   H06 8681   4.285   2.200   1.556 -0.0382  0.2734 -0.3442
   36GLOH   H07 8682   4.298   2.182   1.386 -0.0972 -0.6992  0.4072
   36GLOH    O3 8683   4.218   2.357   1.436  0.2444 -0.2621 -0.5123
   36GLOH   H01 8684   4.267   2.441   1.446  0.5444 -0.5082  0.1650
   37GLOH   H03 8685   3.525   4.154   2.823 -1.2696 -2.3727 -1.0556
   37GLOH    O1 8686   3.586   4.186   2.754 -0.5671  0.2007  0.6632
   37GLOH    C1 8687   3.710   4.227   2.809 -0.3079  0.5823  0.2426
   37GLOH   H02 8688   3.768   4.137   2.829 -0.4739  0.0582 -1.5576
   37GLOH   H08 8689   3.683   4.269   2.906 -0.1095  0.9094  0.1560
   37GLOH    C2 8690   3.797   4.317   2.716  0.0790  0.1946  0.5710
   37GLOH   H04 8691   3.730   4.403   2.698 -1.3380 -0.5941  1.9646
   37GLOH    O2 8692   3.912   4.364   2.791  0.3467  0.0362 -0.7336
   37GLOH   H05 8693   3.890   4.386   2.883 -1.7772  2.5889 -1.7853
   37GLOH    C3 8694   3.824   4.238   2.587 -1.4166  0.5950 -0.2404
   37GLOH   H06 8695   3.874   4.146   2.616 -1.4967  0.0734 -1.7263
   37GLOH   H07 8696   3.889   4.300   2.525  0.7493  1.6998  2.9703
   37GLOH    O3 8697   3.705   4.210   2.511  0.2383 -0.0066  0.7823
   37GLOH   H01 8698   3.640   4.192   2.581 -0.2276  1.9075  0.8840
   38GLOH   H03 8699   2.449   1.378   0.500 -0.1148 -1.8379 -0.8764
   38GLOH    O1 8700   2.390   1.418   0.433  0.3015  0.0187 -0.1766
   38GLOH    C1 8701   2.354   1.328   0.328  0.1842  0.2030 -0.2278
   38GLOH   H02 8702   2.446   1.297   0.279  1.0036  2.4295 -0.1512
   38GLOH   H08 8703   2.299   1.385   0.253 -2.3505 -1.5919  0.1972
   38GLOH    C2 8704   2.268   1.203   0.364  0.8017  0.3007  0.6723
   38GLOH   H04 8705   2.185   1.238   0.426 -0.9266 -1.6283 -0.4960
   38GLOH    O2 8706   2.216   1.136   0.239  0.2537 -0.6095 -0.1648
   38GLOH   H05 8707   2.288   1.091   0.191  0.7478 -1.5937  1.4442
   38GLOH    C3 8708   2.340   1.092   0.444 -0.0713  0.6150  0.1627
   38GLOH   H06 8709   2.375   1.144   0.532 -1.8871  0.3011  1.0776
   38GLOH   H07 8710   2.433   1.052   0.401 -0.7935  0.1586 -1.0192
   38GLOH    O3 8711   2.257   0.987   0.490 -0.1760  0.3531  0.0252
   38GLOH   H01 8712   2.241   0.929   0.413 -1.4674  0.0942  0.4803
   39GLOH   H03 8713   3.761   3.653   1.737 -0.5375  0.2874  0.2441
   39GLOH    O1 8714   3.750   3.559   1.711  0.2587  0.2163  0.1595
   39GLOH    C1 8715   3.838   3.502   1.613  0.2222  0.5488 -0.0522
   39GLOH   H02 8716   3.854   3.572   1.530  0.9692  1.0182  0.4857
   39GLOH   H08 8717   3.788   3.413   1.576  0.2170 -0.1035  1.5057
   39GLOH    C2 8718   3.977   3.465   1.661 -0.1691 -0.7444 -0.3159
   39GLOH   H04 8719   4.036   3.429   1.574 -0.3686 -0.9097 -0.3820
   39GLOH    O2 8720   4.046   3.577   1.709 -0.2842  0.2975 -0.2513
   39GLOH   H05 8721   3.995   3.655   1.682  0.7855  1.4627  1.0239
   39GLOH    C3 8722   3.966   3.351   1.765  0.2194  0.0329  0.7132
   39GLOH   H06 8723   3.898   3.383   1.844 -1.8253 -0.6840 -0.7120
   39GLOH   H07 8724   4.064   3.343   1.812  1.2055 -0.6001 -1.3686
   39GLOH    O3 8725   3.927   3.231   1.711  0.4016  0.2767 -0.1596
   39GLOH   H01 8726   3.838   3.206   1.742  0.3760 -0.4781 -0.8437
   40GLOH   H03 8727   3.989   0.253   0.821 -0.1880 -0.2028 -1.4098
   40GLOH    O1 8728   4.057   0.322   0.828  0.1654 -0.6208 -0.7459
   40GLOH    C1 8729   4.066   0.347   0.969  0.0884  0.3647  0.0307
   40GLOH   H02 8730   4.131   0.268   1.007  0.6309  0.9457  0.3259
   40GLOH   H08 8731   3.968   0.350   1.015  0.6601  0.1658  1.2753
   40GLOH    C2 8732   4.140   0.475   0.996 -0.1381 -0.3960  0.1798
   40GLOH   H04 8733   4.077   0.556   0.957 -1.2896 -1.5468 -0.3948
   40GLOH    O2 8734   4.153   0.493   1.136 -0.3052  0.4177 -0.5769
   40GLOH   H05 8735   4.158   0.589   1.144  3.0744  0.2512 -0.3237
   40GLOH    C3 8736   4.280   0.493   0.928  0.3931 -0.5165  0.3034
   40GLOH   H06 8737   4.356   0.444   0.988 -0.6018 -0.6698  1.4750
   40GLOH   H07 8738   4.296   0.601   0.923 -2.4570 -0.1156 -1.2417
   40GLOH    O3 8739   4.261   0.458   0.788 -0.7604  1.1040 -0.0571
   40GLOH   H01 8740   4.192   0.388   0.785 -0.3520  0.7865 -4.5582
   41GLOH   H03 8741   3.231   0.178   1.283  0.7175  1.4031  2.3484
   41GLOH    O1 8742   3.142   0.217   1.275  0.1317 -0.4024 -0.6993
   41GLOH    C1 8743   3.056   0.122   1.338  0.1463  0.1538 -0.5390
   41GLOH   H02 8744   3.115   0.081   1.420 -0.3045 -0.5537 -0.5601
   41GLOH   H08 8745   3.030   0.042   1.269 -2.1813 -0.0215  0.4768
   41GLOH    C2 8746   2.919   0.167   1.406  0.1978 -0.6730 -0.0641
   41GLOH   H04 8747   2.859   0.224   1.333  1.8686  1.5563  0.2450
   41GLOH    O2 8748   2.848   0.043   1.441 -0.0384 -0.1630  0.1245
   41GLOH   H05 8749   2.817   0.002   1.358 -2.2093 -1.8888  1.7392
   41GLOH    C3 8750   2.955   0.265   1.516 -0.3723  0.3946  0.2439
   41GLOH   H06 8751   3.008   0.210   1.594  1.2451 -2.5195 -2.7573
   41GLOH   H07 8752   2.858   0.293   1.558 -0.8369 -0.7235 -0.0668
   41GLOH    O3 8753   3.029   0.381   1.478 -0.3590 -0.0918 -0.0426
   41GLOH   H01 8754   3.120   0.348   1.463 -1.1893 -1.9853 -1.0353
   42GLOH   H03 8755   4.142   2.878   2.637  0.4082  0.1636  0.1501
   42GLOH    O1 8756   4.158   2.970   2.664 -0.1717  0.2163  0.3016
   42GLOH    C1 8757   4.120   3.041   2.541  0.0823  0.5367  0.1034
   42GLOH   H02 8758   4.109   3.146   2.566 -2.1372  0.3965 -0.2093
   42GLOH   H08 8759   4.030   3.009   2.488  0.3061 -0.2363  0.1823
   42GLOH    C2 8760   4.235   3.038   2.444  0.7477  0.1470 -0.1056
   42GLOH   H04 8761   4.322   3.027   2.510 -0.2808 -0.6788  1.1538
   42GLOH    O2 8762   4.226   2.921   2.360 -0.1763 -0.4660 -0.2425
   42GLOH   H05 8763   4.205   2.846   2.418  2.9188  0.4275  2.2003
   42GLOH    C3 8764   4.242   3.177   2.378 -0.3546 -0.2024 -0.1307
   42GLOH   H06 8765   4.326   3.180   2.309 -1.4693 -1.0313 -1.5559
   42GLOH   H07 8766   4.259   3.252   2.456 -0.1338 -1.6530  1.2278
   42GLOH    O3 8767   4.118   3.214   2.309 -0.1428  0.2803 -0.4897
   42GLOH   H01 8768   4.138   3.240   2.217 -0.2019  1.8053 -0.0860
   43GLOH   H03 8769   3.448   9.453   1.359 -2.2007  0.6362 -1.3086
   43GLOH    O1 8770   3.426   9.473   1.451  0.0021 -0.8322 -0.4286
   43GLOH    C1 8771   3.533   9.532   1.526 -0.5805  0.0747  0.0071
   43GLOH   H02 8772   3.505   9.540   1.631  0.1354  1.3318  0.1252
   43GLOH   H08 8773   3.552   9.635   1.495  0.4368  0.1122  0.6802
   43GLOH    C2 8774   3.665   9.450   1.535 -0.4387 -0.3905  0.0734
   43GLOH   H04 8775   3.705   9.452   1.433  0.8408  0.5595  0.5776
   43GLOH    O2 8776   3.748   9.509   1.628 -0.0910  0.4384 -0.2641
   43GLOH   H05 8777   3.838   9.474   1.615 -0.4872 -1.2045  1.2388
   43GLOH    C3 8778   3.644   9.306   1.580 -0.4222  0.2082  0.0382
   43GLOH   H06 8779   3.593   9.313   1.676 -0.8914 -2.0005 -0.0356
   43GLOH   H07 8780   3.736   9.254   1.605 -0.4971  0.2586  0.4133
   43GLOH    O3 8781   3.583   9.231   1.477  0.0405  0.9072 -0.0610
   43GLOH   H01 8782   3.499   9.280   1.474  0.0502  0.8743 -2.6622
   44GLOH   H03 8783   3.957   3.798   0.994 -0.8599 -0.3107 -0.0194
   44GLOH    O1 8784   3.956   3.767   1.087  0.1264  0.2379  0.1748
   44GLOH    C1 8785   3.819   3.757   1.129 -0.5640  0.2993  0.5641
   44GLOH   H02 8786   3.755   3.723   1.048  0.4102 -0.5701  0.1395
   44GLOH   H08 8787   3.793   3.861   1.145  0.3963  0.3738  1.7231
   44GLOH    C2 8788   3.795   3.678   1.261  0.5051  0.2896 -0.0475
   44GLOH   H04 8789   3.863   3.720   1.337 -0.5897  1.4209  0.3299
   44GLOH    O2 8790   3.663   3.695   1.321 -0.2766  0.2968 -0.1154
   44GLOH   H05 8791   3.602   3.666   1.251  0.4017  1.7395 -1.3227
   44GLOH    C3 8792   3.840   3.530   1.244  0.2522 -0.1703  0.2660
   44GLOH   H06 8793   3.823   3.470   1.333 -2.5096  1.0522  0.6070
   44GLOH   H07 8794   3.947   3.533   1.219  0.2699 -3.3763 -0.2249
   44GLOH    O3 8795   3.778   3.468   1.136  0.3343  0.4641  0.3414
   44GLOH   H01 8796   3.697   3.428   1.173 -0.8176  1.8949 -0.5587
   45GLOH   H03 8797   4.081   0.982   1.704  0.9612 -0.4172 -0.0913
   45GLOH    O1 8798   4.139   0.993   1.782  0.0710  0.2153  0.5018
   45GLOH    C1 8799   4.202   1.121   1.767 -0.8272  0.4784  0.3471
   45GLOH   H02 8800   4.137   1.191   1.715 -0.7800  0.4107  0.1982
   45GLOH   H08 8801   4.294   1.112   1.709 -1.3450 -0.4750 -0.3372
   45GLOH    C2 8802   4.255   1.178   1.901 -0.1353  0.3148 -0.6275
   45GLOH   H04 8803   4.303   1.093   1.951 -1.4432 -0.5497 -0.8068
   45GLOH    O2 8804   4.345   1.291   1.884 -0.2432  0.1687 -0.8429
   45GLOH   H05 8805   4.327   1.331   1.798 -1.9467  1.2481 -0.0066
   45GLOH    C3 8806   4.142   1.234   1.996 -0.0492  0.6952 -0.2750
   45GLOH   H06 8807   4.090   1.316   1.945 -1.8030 -0.0821  0.2228
   45GLOH   H07 8808   4.197   1.281   2.077  0.2069  1.8095 -1.0770
   45GLOH    O3 8809   4.050   1.135   2.037 -0.2032 -0.1049  0.3502
   45GLOH   H01 8810   4.079   1.042   2.040  0.6647  0.1493  0.0207
   46GLOH   H03 8811   3.058   0.731   0.694 -0.6460  0.0738  2.2847
   46GLOH    O1 8812   2.967   0.747   0.663  0.4000  0.2602 -0.8978
   46GLOH    C1 8813   2.901   0.622   0.630  0.0577 -0.1204  0.1643
   46GLOH   H02 8814   2.795   0.635   0.650  0.3712  1.3685  0.9765
   46GLOH   H08 8815   2.933   0.546   0.702 -0.5027 -1.0552 -0.5638
   46GLOH    C2 8816   2.924   0.584   0.482  0.4728 -0.5948  0.2456
   46GLOH   H04 8817   2.887   0.664   0.417 -0.3241 -0.7056  0.5610
   46GLOH    O2 8818   3.074   0.578   0.477  0.2218  0.2766 -0.8103
   46GLOH   H05 8819   3.100   0.666   0.447  1.9819  0.4497  1.1001
   46GLOH    C3 8820   2.858   0.450   0.448  0.5179  0.6204 -0.0264
   46GLOH   H06 8821   2.903   0.371   0.508 -0.5281 -0.0204 -0.0742
   46GLOH   H07 8822   2.882   0.425   0.344  0.0882 -0.7511  0.1863
   46GLOH    O3 8823   2.714   0.462   0.469 -0.2371  0.0072  0.0175
   46GLOH   H01 8824   2.672   0.512   0.397  1.0499  1.0946  0.0061
   47GLOH   H03 8825   4.080   8.861   1.573  1.8505 -1.2380  1.2744
   47GLOH    O1 8826   4.079   8.936   1.635 -0.4819  0.1241 -0.3018
   47GLOH    C1 8827   3.977   8.941   1.737 -0.8828  0.1560 -0.3716
   47GLOH   H02 8828   3.923   9.035   1.734  0.4001  0.9070 -0.2561
   47GLOH   H08 8829   4.033   8.932   1.830 -0.5933  0.0139 -0.5586
   47GLOH    C2 8830   3.895   8.808   1.743 -0.4309 -1.0111  0.4571
   47GLOH   H04 8831   3.959   8.724   1.776  0.0260  0.0345  2.2877
   47GLOH    O2 8832   3.786   8.809   1.841  0.0048 -0.0248 -0.1990
   47GLOH   H05 8833   3.721   8.876   1.811 -1.3281 -0.7814  0.9372
   47GLOH    C3 8834   3.848   8.770   1.600 -0.2898 -0.1609  0.5415
   47GLOH   H06 8835   3.783   8.847   1.561 -0.4072 -0.1181  0.8216
   47GLOH   H07 8836   3.785   8.681   1.602 -1.4408  0.5681 -1.5172
   47GLOH    O3 8837   3.957   8.742   1.507 -0.4685 -0.5081  0.0365
   47GLOH   H01 8838   3.912   8.723   1.423 -1.5933  0.4438  0.4206
   48GLOH   H03 8839   2.672   9.704   1.058  2.0128 -2.0927 -1.0243
   48GLOH    O1 8840   2.714   9.740   1.138 -0.1039 -0.4481 -0.6048
   48GLOH    C1 8841   2.645   9.688   1.249 -0.3492  0.2024  0.6583
   48GLOH   H02 8842   2.632   9.580   1.254 -2.8984  0.3836 -1.2116
   48GLOH   H08 8843   2.541   9.722   1.244 -0.4515 -0.0815  0.8578
   48GLOH    C2 8844   2.697   9.733   1.386  0.9184 -0.3160  0.2372
   48GLOH   H04 8845   2.693   9.843   1.399  1.6805 -0.6740  3.9147
   48GLOH    O2 8846   2.616   9.684   1.487 -0.3481 -0.6704 -0.3933
   48GLOH   H05 8847   2.526   9.715   1.468 -0.1351  0.4162  0.3501
   48GLOH    C3 8848   2.838   9.678   1.402  0.0880  0.3270 -0.4509
   48GLOH   H06 8849   2.823   9.573   1.429 -0.2446  0.4033 -0.3321
   48GLOH   H07 8850   2.881   9.727   1.490 -0.3662 -1.2565  0.6719
   48GLOH    O3 8851   2.928   9.686   1.287  0.5377  0.3219 -0.1824
   48GLOH   H01 8852   2.871   9.720   1.215  1.0743  3.0458  0.6183
   49GLOH   H03 8853   4.759   2.649   0.125 -0.2985 -1.2095  1.2433
   49GLOH    O1 8854   4.694   2.662   0.196 -0.5541 -0.0684  0.8090
   49GLOH    C1 8855   4.673   2.537   0.264  0.5816 -0.3259  0.3109
   49GLOH   H02 8856   4.770   2.516   0.310  1.4950  0.9833 -0.9453
   49GLOH   H08 8857   4.655   2.463   0.186  3.5361  0.6274 -1.3802
   49GLOH    C2 8858   4.570   2.543   0.379  0.0792 -0.2621 -0.2740
   49GLOH   H04 8859   4.473   2.546   0.326  0.8945 -1.4021 -1.8426
   49GLOH    O2 8860   4.563   2.423   0.462 -0.3343  0.3023  0.7062
   49GLOH   H05 8861   4.553   2.442   0.557 -0.6778  0.4021  0.6518
   49GLOH    C3 8862   4.584   2.678   0.454  0.3544  0.6665 -0.4137
   49GLOH   H06 8863   4.595   2.766   0.390 -0.1324  0.3205 -0.9725
   49GLOH   H07 8864   4.680   2.666   0.504 -0.3521  1.9764  1.3430
   49GLOH    O3 8865   4.481   2.695   0.552 -0.0066  0.6309 -0.2099
   49GLOH   H01 8866   4.393   2.672   0.516 -0.9618  2.2923  0.9840
   50GLOH   H03 8867   2.862   1.432   0.069 -0.1961 -0.6204 -0.5978
   50GLOH    O1 8868   2.931   1.383   0.118  0.0912  0.1000 -0.2601
   50GLOH    C1 8869   3.043   1.462   0.154 -0.1117 -0.5994 -0.4912
   50GLOH   H02 8870   3.014   1.523   0.241  0.3071 -1.1340  0.0213
   50GLOH   H08 8871   3.067   1.543   0.085 -0.9081  2.0268  2.1939
   50GLOH    C2 8872   3.175   1.387   0.185  0.2661  0.4314 -0.1419
   50GLOH   H04 8873   3.217   1.351   0.090  1.0178  0.6584  0.1022
   50GLOH    O2 8874   3.269   1.482   0.241  0.0119  0.3304 -0.0311
   50GLOH   H05 8875   3.249   1.477   0.336  0.3535 -2.7220 -0.0526
   50GLOH    C3 8876   3.145   1.268   0.278 -0.5254  0.0495  0.8202
   50GLOH   H06 8877   3.067   1.211   0.228 -0.1741 -0.2486  0.6162
   50GLOH   H07 8878   3.102   1.294   0.375 -1.9028  0.9176 -0.0109
   50GLOH    O3 8879   3.256   1.183   0.302  0.5408  0.3348 -0.2978
   50GLOH   H01 8880   3.246   1.108   0.241 -0.2931  1.2249 -1.2857
   51GLOH   H03 8881   4.141   0.920   2.915 -0.9995  0.5098  1.7628
   51GLOH    O1 8882   4.073   0.937   2.847  0.4331  0.5359  0.3157
   51GLOH    C1 8883   4.130   0.955   2.717 -0.6718 -0.3091  0.0308
   51GLOH   H02 8884   4.170   0.860   2.682 -1.7329 -0.8046  0.1601
   51GLOH   H08 8885   4.212   1.026   2.727 -0.9645 -0.1906  1.6037
   51GLOH    C2 8886   4.028   0.995   2.611 -0.7403 -0.0591 -0.8018
   51GLOH   H04 8887   3.974   1.088   2.637 -0.4775 -0.4965  1.4249
   51GLOH    O2 8888   4.088   0.999   2.479  0.3614  0.4180 -0.0744
   51GLOH   H05 8889   4.153   1.070   2.471 -0.0458  0.7566 -0.3979
   51GLOH    C3 8890   3.928   0.880   2.608  0.0314  0.2830 -0.5089
   51GLOH   H06 8891   3.966   0.783   2.578 -4.1586 -1.2343 -1.3290
   51GLOH   H07 8892   3.857   0.894   2.526 -0.2700 -0.5472 -0.3916
   51GLOH    O3 8893   3.859   0.880   2.729 -0.0706  0.3370  0.3276
   51GLOH   H01 8894   3.925   0.900   2.798  0.6063 -1.9337  0.3819
   52GLOH   H03 8895   4.450   3.128   0.976  0.4265 -1.4493  0.0763
   52GLOH    O1 8896   4.508   3.146   0.899  0.0011  0.1526  0.1096
   52GLOH    C1 8897   4.570   3.017   0.862 -0.2184 -0.7376  0.0936
   52GLOH   H02 8898   4.595   2.947   0.942  3.8769 -1.8409 -1.9984
   52GLOH   H08 8899   4.670   3.035   0.823  0.6458 -1.1915  2.0308
   52GLOH    C2 8900   4.500   2.943   0.748 -0.5254 -0.5385 -0.3151
   52GLOH   H04 8901   4.495   3.016   0.667  0.8219  0.1093  0.1618
   52GLOH    O2 8902   4.596   2.835   0.710 -0.0577 -0.3823  0.4914
   52GLOH   H05 8903   4.562   2.777   0.640  0.1850  0.3262 -0.2227
   52GLOH    C3 8904   4.357   2.900   0.777  0.6297  0.1661 -0.1719
   52GLOH   H06 8905   4.328   2.836   0.693 -1.7891  2.2616 -0.9769
   52GLOH   H07 8906   4.288   2.983   0.784  2.1501  1.3929  0.4392
   52GLOH    O3 8907   4.355   2.826   0.900 -0.1449  0.0032  0.0795
   52GLOH   H01 8908   4.416   2.751   0.898  2.0634  1.6525  1.9727
   53GLOH   H03 8909   2.020   1.172   2.409 -1.1701  0.3671  1.0127
   53GLOH    O1 8910   2.075   1.242   2.449  0.4401 -0.4500  0.2784
   53GLOH    C1 8911   2.003   1.283   2.572 -0.3888  0.8478  0.1294
   53GLOH   H02 8912   1.896   1.268   2.563 -0.4402  1.2399  0.0905
   53GLOH   H08 8913   2.026   1.385   2.604  2.3189  1.2442 -2.8052
   53GLOH    C2 8914   2.040   1.182   2.687  0.9827 -0.0956  0.2513
   53GLOH   H04 8915   2.147   1.157   2.683  1.5280  2.0764  0.7696
   53GLOH    O2 8916   2.011   1.244   2.814  0.2487 -0.3131  0.0085
   53GLOH   H05 8917   2.070   1.193   2.872  0.7877 -0.2623 -0.4989
   53GLOH    C3 8918   1.971   1.043   2.679  0.2171 -0.6582  0.8674
   53GLOH   H06 8919   1.864   1.044   2.697  0.0145 -0.8651 -0.3280
   53GLOH   H07 8920   2.011   0.980   2.759  1.2417  1.6449  2.1993
   53GLOH    O3 8921   2.012   0.973   2.554 -0.1310  0.1432 -0.4448
   53GLOH   H01 8922   1.956   0.994   2.477 -0.1915 -1.5525 -0.9004
   54GLOH   H03 8923   3.192   2.413   0.766 -0.5873 -0.4103 -0.6691
   54GLOH    O1 8924   3.125   2.481   0.746 -0.3473  0.0288 -0.0004
   54GLOH    C1 8925   3.093   2.447   0.615  0.0429  0.1628 -0.3617
   54GLOH   H02 8926   3.095   2.339   0.599  2.4744 -0.3750  3.0580
   54GLOH   H08 8927   3.167   2.485   0.543  1.3358 -0.6267  0.5361
   54GLOH    C2 8928   2.950   2.498   0.578  0.4186 -0.8366 -0.2959
   54GLOH   H04 8929   2.940   2.607   0.590 -2.2240 -0.6718 -3.2595
   54GLOH    O2 8930   2.923   2.478   0.438 -0.1273  0.2061  0.4765
   54GLOH   H05 8931   2.849   2.537   0.416 -0.1156 -0.0112 -0.1580
   54GLOH    C3 8932   2.830   2.439   0.659 -0.5859  0.2181 -0.0149
   54GLOH   H06 8933   2.852   2.332   0.652  0.1051  0.3224  0.5056
   54GLOH   H07 8934   2.736   2.455   0.606 -1.1844 -0.5837  0.7935
   54GLOH    O3 8935   2.821   2.494   0.788  0.7094 -0.4476  0.2222
   54GLOH   H01 8936   2.818   2.590   0.772 -1.3805 -0.4270  0.6012
   55GLOH   H03 8937   4.057   9.956   1.604  0.2103 -0.0243 -1.1048
   55GLOH    O1 8938   4.021   9.866   1.607  0.2729 -0.0150  0.2092
   55GLOH    C1 8939   3.967   9.847   1.735  0.3770  0.2173  0.0287
   55GLOH   H02 8940   4.054   9.827   1.797  0.7464  1.1719 -0.1692
   55GLOH   H08 8941   3.902   9.760   1.730 -1.7199  1.7434 -0.3291
   55GLOH    C2 8942   3.890   9.974   1.785  0.2370 -0.0003 -0.0897
   55GLOH   H04 8943   3.804   9.976   1.716 -0.2522 -0.7922  0.4963
   55GLOH    O2 8944   3.829   9.950   1.911 -0.0854 -0.8001  0.4601
   55GLOH   H05 8945   3.791  10.033   1.942  1.2680  0.2170 -0.5332
   55GLOH    C3 8946   3.968  10.101   1.762 -0.3855 -0.2932 -0.1137
   55GLOH   H06 8947   4.063  10.089   1.813 -0.5568  1.3686  0.6206
   55GLOH   H07 8948   3.915  10.185   1.807 -0.7128 -0.2491 -0.5666
   55GLOH    O3 8949   4.009  10.118   1.624 -0.3537  0.0383 -0.2277
   55GLOH   H01 8950   4.036  10.212   1.622 -2.1248  0.6650  2.6792
   56GLOH   H03 8951   2.780   1.222   2.601  0.2270  0.9035  2.2880
   56GLOH    O1 8952   2.841   1.146   2.602 -0.3943  0.3326  0.4706
   56GLOH    C1 8953   2.962   1.164   2.527  0.0943 -0.3198 -0.6244
   56GLOH   H02 8954   2.997   1.267   2.516 -1.9901  0.4003 -0.8533
   56GLOH   H08 8955   2.927   1.126   2.431 -1.9215  0.3468 -0.1869
   56GLOH    C2 8956   3.074   1.071   2.581 -0.1520  0.5585 -0.0593
   56GLOH   H04 8957   3.039   0.966   2.582 -0.1482  0.5614  1.4860
   56GLOH    O2 8958   3.185   1.082   2.483  0.3228 -0.7635 -0.7498
   56GLOH   H05 8959   3.220   1.173   2.490 -0.5691 -0.4693 -0.0511
   56GLOH    C3 8960   3.119   1.112   2.715 -0.2175 -0.2189 -0.8840
   56GLOH   H06 8961   3.032   1.121   2.780  0.3298  1.3011 -0.3389
   56GLOH   H07 8962   3.149   1.216   2.700 -0.1648 -0.2671 -1.1261
   56GLOH    O3 8963   3.233   1.043   2.766 -0.3514  0.1336  1.0174
   56GLOH   H01 8964   3.224   0.953   2.732 -3.2409  0.6495  0.2740
   57GLOH   H03 8965   2.814   0.969   1.817 -1.6806 -1.8915  0.8311
   57GLOH    O1 8966   2.835   0.907   1.745  0.0141  0.4543 -0.7721
   57GLOH    C1 8967   2.707   0.854   1.704  0.1350  0.5080  0.7673
   57GLOH   H02 8968   2.697   0.870   1.596 -1.6272 -0.4140  0.7800
   57GLOH   H08 8969   2.621   0.905   1.746 -0.0133  0.3718  0.6278
   57GLOH    C2 8970   2.690   0.706   1.721  0.2518 -0.1289  0.8089
   57GLOH   H04 8971   2.787   0.656   1.709  1.5416  2.1471  1.3624
   57GLOH    O2 8972   2.641   0.671   1.852 -0.4040  0.4854  0.7515
   57GLOH   H05 8973   2.701   0.615   1.904 -0.7131  1.3426  2.0385
   57GLOH    C3 8974   2.583   0.655   1.614 -1.1543  0.2472 -0.8016
   57GLOH   H06 8975   2.483   0.699   1.623 -0.6658  1.4470 -1.0898
   57GLOH   H07 8976   2.562   0.551   1.638 -2.1558  0.4377 -0.8352
   57GLOH    O3 8977   2.624   0.664   1.480  0.3181 -0.2145  0.2512
   57GLOH   H01 8978   2.690   0.597   1.455  2.3547  1.8749 -0.1176
   58GLOH   H03 8979   4.632   2.002   0.899 -0.8707  0.0380  0.9485
   58GLOH    O1 8980   4.691   1.936   0.940 -0.2853 -0.0222  0.0326
   58GLOH    C1 8981   4.621   1.891   1.054  0.2298 -0.3362 -0.0085
   58GLOH   H02 8982   4.687   1.849   1.129  1.7841 -0.1810 -1.2653
   58GLOH   H08 8983   4.553   1.813   1.019 -2.2105  0.2879  3.0673
   58GLOH    C2 8984   4.539   2.002   1.118 -0.5684  0.5755  0.4802
   58GLOH   H04 8985   4.603   2.092   1.118  0.1813  0.0538  1.7926
   58GLOH    O2 8986   4.412   2.024   1.048 -0.3394 -0.1395 -0.5592
   58GLOH   H05 8987   4.368   1.943   1.018  0.1439 -0.9934  1.0209
   58GLOH    C3 8988   4.508   1.967   1.262  0.2428 -0.7677 -0.0504
   58GLOH   H06 8989   4.459   2.049   1.314  2.6198  0.9439 -0.4072
   58GLOH   H07 8990   4.605   1.969   1.311 -0.5573  0.3096  1.5465
   58GLOH    O3 8991   4.438   1.846   1.282 -0.1724 -0.2150 -0.1963
   58GLOH   H01 8992   4.352   1.866   1.239 -1.3266 -1.8730  1.2402
   59GLOH   H03 8993   4.628   3.860   1.750  1.4450  3.2710 -1.9398
   59GLOH    O1 8994   4.536   3.868   1.718  0.1660 -0.5678  0.4276
   59GLOH    C1 8995   4.508   3.744   1.652 -0.8733  0.1755  0.1838
   59GLOH   H02 8996   4.501   3.670   1.733 -1.7769 -1.0153 -0.9606
   59GLOH   H08 8997   4.596   3.721   1.592 -0.4305 -2.8317  1.8300
   59GLOH    C2 8998   4.375   3.751   1.574  0.1638  0.7353  0.7121
   59GLOH   H04 8999   4.390   3.816   1.487 -0.3639  1.0116  0.8314
   59GLOH    O2 9000   4.337   3.618   1.526 -0.2085 -0.4626  0.4990
   59GLOH   H05 9001   4.276   3.622   1.450 -1.8863 -1.5717  1.7553
   59GLOH    C3 9002   4.268   3.794   1.665 -0.1848 -1.0004 -0.0317
   59GLOH   H06 9003   4.284   3.727   1.749 -1.4511 -0.2171  0.8550
   59GLOH   H07 9004   4.169   3.780   1.622 -0.7229  2.2597  0.0078
   59GLOH    O3 9005   4.287   3.930   1.710 -0.5418 -0.5222  0.2584
   59GLOH   H01 9006   4.376   3.927   1.749  0.6250  0.8364 -2.2141
   60GLOH   H03 9007   2.276   1.010   0.677 -1.1443  0.1900  0.4758
   60GLOH    O1 9008   2.285   1.054   0.763  0.2981  0.3177  0.2774
   60GLOH    C1 9009   2.263   0.949   0.852  0.0812  0.7145 -0.1292
   60GLOH   H02 9010   2.362   0.910   0.876  0.1016  0.6563 -0.3159
   60GLOH   H08 9011   2.200   0.866   0.821  0.3659 -0.0097  1.1859
   60GLOH    C2 9012   2.215   1.000   0.994  0.1847 -0.6835  0.5532
   60GLOH   H04 9013   2.113   1.032   0.969  0.3271 -1.2849 -0.8714
   60GLOH    O2 9014   2.206   0.894   1.090 -0.3375 -0.6523 -0.0204
   60GLOH   H05 9015   2.127   0.913   1.145  0.1354  2.0895 -0.2140
   60GLOH    C3 9016   2.296   1.119   1.038 -0.1670  0.2310 -0.3103
   60GLOH   H06 9017   2.296   1.208   0.975 -1.3561 -0.2079 -0.9495
   60GLOH   H07 9018   2.402   1.098   1.026  0.1479  1.9037 -0.5863
   60GLOH    O3 9019   2.261   1.170   1.169  0.0162 -0.5600 -0.5801
   60GLOH   H01 9020   2.223   1.093   1.215 -1.0507 -0.3547 -1.0758
   61GLOH   H03 9021   2.720   1.740   1.783 -0.1965 -2.1162  0.2240
   61GLOH    O1 9022   2.727   1.715   1.877 -0.0578 -0.7045  0.5919
   61GLOH    C1 9023   2.597   1.729   1.945 -0.3523 -0.2576  0.4785
   61GLOH   H02 9024   2.546   1.822   1.921 -1.6720 -0.9799  0.4580
   61GLOH   H08 9025   2.620   1.736   2.052 -0.2427  1.2914  0.3655
   61GLOH    C2 9026   2.503   1.604   1.935  0.3066 -0.5019 -0.7477
   61GLOH   H04 9027   2.509   1.570   1.831 -2.4891 -1.2128 -0.6966
   61GLOH    O2 9028   2.551   1.489   2.008  0.2568 -0.0736  0.5030
   61GLOH   H05 9029   2.646   1.474   1.995  0.2923  0.7552 -0.2084
   61GLOH    C3 9030   2.367   1.641   1.980  0.3306  0.0297  0.0870
   61GLOH   H06 9031   2.305   1.551   1.987  1.1189 -0.5197  0.0819
   61GLOH   H07 9032   2.318   1.706   1.907 -0.0141 -0.2212  0.0903
   61GLOH    O3 9033   2.372   1.692   2.110 -0.3309 -0.8728 -0.7450
   61GLOH   H01 9034   2.285   1.716   2.147  0.6492 -0.0050  1.0598
   62GLOH   H03 9035   4.339   1.710   2.149 -1.4573 -2.0103  0.3307
   62GLOH    O1 9036   4.379   1.705   2.238 -0.3142 -0.9855 -0.1131
   62GLOH    C1 9037   4.494   1.789   2.241  0.3806  0.3276  0.4661
   62GLOH   H02 9038   4.516   1.803   2.135  0.8406 -0.6188  0.4301
   62GLOH   H08 9039   4.586   1.747   2.284  1.4413  0.7713 -1.3202
   62GLOH    C2 9040   4.469   1.923   2.316 -0.3085  0.1662  0.2770
   62GLOH   H04 9041   4.547   2.000   2.302 -1.9186  2.0373  1.3027
   62GLOH    O2 9042   4.351   1.988   2.272  0.0763 -0.0321 -0.3969
   62GLOH   H05 9043   4.359   1.986   2.175  0.2081 -3.6042 -0.3877
   62GLOH    C3 9044   4.475   1.897   2.467 -0.1066  0.2574 -0.8346
   62GLOH   H06 9045   4.440   1.796   2.489  1.7125  0.0817  1.4343
   62GLOH   H07 9046   4.406   1.965   2.516 -0.2113  0.0260 -0.6568
   62GLOH    O3 9047   4.609   1.914   2.508  0.3645 -0.3496  0.3501
   62GLOH   H01 9048   4.652   1.987   2.460 -1.8672  2.5622  2.5863
   63GLOH   H03 9049   3.180   0.854   0.300  0.3116 -0.3803  2.5101
   63GLOH    O1 9050   3.114   0.784   0.315  0.0682 -0.5489  0.7573
   63GLOH    C1 9051   3.116   0.683   0.207 -0.3641 -0.6225 -0.1127
   63GLOH   H02 9052   3.034   0.614   0.228  0.3712 -1.4000  0.2352
   63GLOH   H08 9053   3.208   0.625   0.217  0.8867  1.6217  1.7369
   63GLOH    C2 9054   3.100   0.735   0.063 -0.1847 -0.2171 -0.2928
   63GLOH   H04 9055   3.011   0.800   0.063 -0.9022 -1.1072 -3.9015
   63GLOH    O2 9056   3.231   0.798   0.024 -0.3360 -0.5815  0.4234
   63GLOH   H05 9057   3.304   0.776   0.084 -0.2830 -1.8691 -0.0977
   63GLOH    C3 9058   3.075   0.627  -0.041  0.6076  1.1606 -0.0601
   63GLOH   H06 9059   3.154   0.553  -0.028 -1.2917 -1.0769 -1.0618
   63GLOH   H07 9060   3.090   0.677  -0.136 -0.0057 -0.6774 -1.1330
   63GLOH    O3 9061   2.943   0.565  -0.027  0.5792  0.2796 -0.6217
   63GLOH   H01 9062   2.937   0.485   0.029  1.5569  0.5248 -0.1478
   64GLOH   H03 9063   4.500   4.111   0.430 -1.0951 -1.1139  1.9692
   64GLOH    O1 9064   4.545   4.176   0.488  0.0115 -0.1099  0.0551
   64GLOH    C1 9065   4.611   4.120   0.604 -0.0261 -0.0350 -0.4232
   64GLOH   H02 9066   4.684   4.049   0.566  0.2154  0.0775 -0.1711
   64GLOH   H08 9067   4.542   4.067   0.670 -0.7110  0.6646 -0.5592
   64GLOH    C2 9068   4.688   4.204   0.704  0.3756  0.0753 -0.2528
   64GLOH   H04 9069   4.777   4.256   0.666 -0.6377  2.2670  0.3207
   64GLOH    O2 9070   4.614   4.307   0.765  0.0073 -0.7598  0.2511
   64GLOH   H05 9071   4.565   4.363   0.702  0.6817 -0.8680 -0.3781
   64GLOH    C3 9072   4.738   4.106   0.821  0.5357 -0.2703  0.2376
   64GLOH   H06 9073   4.790   4.165   0.897 -0.7542  1.7295 -0.4000
   64GLOH   H07 9074   4.811   4.036   0.779  1.6791  0.2939  1.2590
   64GLOH    O3 9075   4.646   4.018   0.883 -0.0781 -0.2458 -0.0521
   64GLOH   H01 9076   4.601   4.072   0.950 -0.8893 -0.4422 -0.4302
   65GLOH   H03 9077   4.356   1.446   0.934  0.7943  2.8602  1.3147
   65GLOH    O1 9078   4.287   1.438   1.002  0.1201 -0.0888  0.3580
   65GLOH    C1 9079   4.315   1.539   1.106 -0.0188 -0.2316  0.7501
   65GLOH   H02 9080   4.229   1.567   1.168  0.3084  0.4937  0.8794
   65GLOH   H08 9081   4.350   1.624   1.049 -0.3893 -0.3237  0.3844
   65GLOH    C2 9082   4.438   1.505   1.192  0.5110  0.6573 -0.0977
   65GLOH   H04 9083   4.515   1.512   1.114  0.1326 -1.5202 -0.6910
   65GLOH    O2 9084   4.459   1.600   1.298 -0.2939  0.5849 -0.8289
   65GLOH   H05 9085   4.449   1.694   1.274  0.3575  0.3951 -1.8736
   65GLOH    C3 9086   4.419   1.362   1.249  0.2040  0.2578  0.0054
   65GLOH   H06 9087   4.510   1.335   1.303  0.4977  1.5955  0.1956
   65GLOH   H07 9088   4.407   1.293   1.166 -0.2520  0.1837  0.1330
   65GLOH    O3 9089   4.291   1.348   1.315 -0.2813 -0.0698  0.2566
   65GLOH   H01 9090   4.299   1.270   1.374 -1.0755  0.5234  1.1539
   66GLOH   H03 9091   3.166   1.329   2.203 -1.5446 -0.3236 -2.7010
   66GLOH    O1 9092   3.247   1.289   2.167  0.4559  0.6761  0.4879
   66GLOH    C1 9093   3.210   1.151   2.121 -0.4154 -0.1481 -0.5488
   66GLOH   H02 9094   3.132   1.106   2.183 -0.5254 -0.4900 -0.9323
   66GLOH   H08 9095   3.302   1.092   2.113 -0.3166  0.1336 -1.5831
   66GLOH    C2 9096   3.150   1.150   1.981  0.5270 -0.2110  0.1746
   66GLOH   H04 9097   3.216   1.180   1.898 -0.5021 -1.2122 -1.0302
   66GLOH    O2 9098   3.110   1.014   1.951 -0.3489  0.1719 -0.0802
   66GLOH   H05 9099   3.176   0.965   1.900 -0.0684 -0.4707  0.8828
   66GLOH    C3 9100   3.030   1.240   1.988  0.0910 -0.0512 -0.6083
   66GLOH   H06 9101   2.969   1.204   2.071 -1.5687  0.6694 -1.4936
   66GLOH   H07 9102   2.972   1.217   1.899 -0.2659  2.2531 -0.9902
   66GLOH    O3 9103   3.056   1.381   1.996 -0.5591  0.4384 -0.4182
   66GLOH   H01 9104   3.152   1.396   1.994 -0.6247  0.9028 -0.2260
   67GLOH   H03 9105   3.877   1.292   0.351  1.5265  1.3093  1.7288
   67GLOH    O1 9106   3.805   1.350   0.380 -0.0261  0.0935  0.4045
   67GLOH    C1 9107   3.796   1.346   0.524 -0.6482 -0.1051 -0.0423
   67GLOH   H02 9108   3.742   1.431   0.566 -1.2555 -0.6963  0.3765
   67GLOH   H08 9109   3.896   1.361   0.564 -0.2612 -0.1096 -0.9920
   67GLOH    C2 9110   3.763   1.213   0.587  0.5931 -0.6853  0.0209
   67GLOH   H04 9111   3.832   1.136   0.549 -0.5814 -1.6807 -0.0891
   67GLOH    O2 9112   3.772   1.211   0.726  0.5295  0.0120 -0.2773
   67GLOH   H05 9113   3.713   1.145   0.766  1.0598  0.3085  1.0431
   67GLOH    C3 9114   3.618   1.171   0.553  0.0329 -0.3345  0.9324
   67GLOH   H06 9115   3.607   1.153   0.446 -0.3513 -0.8640  1.0581
   67GLOH   H07 9116   3.555   1.257   0.574  1.9613  1.5358 -0.7544
   67GLOH    O3 9117   3.560   1.057   0.629 -0.0225 -0.4740  0.2963
   67GLOH   H01 9118   3.463   1.058   0.625  0.0666 -0.1764 -3.8055
   68GLOH   H03 9119   4.034   0.998   1.141 -1.1956  0.5140 -0.0676
   68GLOH    O1 9120   4.019   0.949   1.058  0.3238  0.6281 -0.4279
   68GLOH    C1 9121   4.091   1.017   0.957  0.3274  0.3388  0.4086
   68GLOH   H02 9122   4.198   0.999   0.969  0.7567  1.4803 -1.5431
   68GLOH   H08 9123   4.080   1.125   0.960 -1.7212  0.2424 -1.8729
   68GLOH    C2 9124   4.050   0.964   0.819  0.2880  0.4249  0.1803
   68GLOH   H04 9125   3.942   0.982   0.818  0.0346 -0.8326 -3.1075
   68GLOH    O2 9126   4.123   1.025   0.712 -0.1653  0.0993 -0.3106
   68GLOH   H05 9127   4.071   1.008   0.632 -0.0262  1.0807 -0.6158
   68GLOH    C3 9128   4.082   0.814   0.808 -0.8798 -0.9444  0.5573
   68GLOH   H06 9129   4.029   0.760   0.886 -1.3445 -0.5067  0.5501
   68GLOH   H07 9130   4.190   0.808   0.820 -0.4620  1.2376 -1.7030
   68GLOH    O3 9131   4.046   0.751   0.682 -0.1772 -0.6686  0.6600
   68GLOH   H01 9132   4.127   0.711   0.643 -0.1452 -0.3876  0.4426
   69GLOH   H03 9133   3.816   4.026   0.811 -2.2612  1.0233 -0.5766
   69GLOH    O1 9134   3.811   3.965   0.735 -0.4139  0.1639 -0.0268
   69GLOH    C1 9135   3.915   3.993   0.639  0.4309 -0.2307 -0.3063
   69GLOH   H02 9136   3.994   3.919   0.648 -0.3143 -1.1277 -1.0398
   69GLOH   H08 9137   3.960   4.088   0.668  0.4779 -0.9876  2.2354
   69GLOH    C2 9138   3.885   3.987   0.490 -0.7269 -0.6288 -0.0887
   69GLOH   H04 9139   3.975   4.025   0.440 -1.3567  0.9398 -0.0584
   69GLOH    O2 9140   3.869   3.852   0.441  0.0903  0.3618  0.1315
   69GLOH   H05 9141   3.864   3.838   0.345  1.1527  0.1874  0.0959
   69GLOH    C3 9142   3.763   4.079   0.461 -0.4663  0.0691 -0.1003
   69GLOH   H06 9143   3.685   4.044   0.529  0.3159  0.0369  0.7883
   69GLOH   H07 9144   3.729   4.060   0.359 -3.2700  1.8162  0.4322
   69GLOH    O3 9145   3.780   4.217   0.484 -0.1749  0.0239 -0.0320
   69GLOH   H01 9146   3.721   4.233   0.560  0.8215 -1.6251  1.1312
   70GLOH   H03 9147   4.063   9.730   1.562 -2.2211  0.4309 -1.0280
   70GLOH    O1 9148   4.069   9.655   1.500  0.1408 -0.2084 -0.0982
   70GLOH    C1 9149   3.980   9.674   1.385  0.2536 -0.1107  0.1782
   70GLOH   H02 9150   3.999   9.774   1.347  0.2481  0.2083  1.0189
   70GLOH   H08 9151   3.876   9.669   1.414  0.5793 -2.6886  1.0604
   70GLOH    C2 9152   4.004   9.566   1.275  0.0907 -0.3529 -0.2002
   70GLOH   H04 9153   3.968   9.471   1.319  4.8810 -1.7068  1.0486
   70GLOH    O2 9154   3.936   9.604   1.159 -0.1784 -0.1143 -0.1373
   70GLOH   H05 9155   3.942   9.536   1.090  0.7766 -1.4530  1.2348
   70GLOH    C3 9156   4.152   9.542   1.235 -0.2213  0.2273 -0.1374
   70GLOH   H06 9157   4.207   9.510   1.324  0.0764 -1.9463 -1.0771
   70GLOH   H07 9158   4.198   9.637   1.209 -1.6738  0.9865  0.0108
   70GLOH    O3 9159   4.167   9.447   1.130  0.3060 -0.7866  0.2161
   70GLOH   H01 9160   4.148   9.361   1.172  0.2402  0.6161  3.2223
   71GLOH   H03 9161   2.485   2.386   2.133 -0.9502  0.7631  0.5584
   71GLOH    O1 9162   2.565   2.432   2.165 -0.4428  0.4722 -0.2816
   71GLOH    C1 9163   2.514   2.566   2.192  0.2062 -0.0722  0.4978
   71GLOH   H02 9164   2.587   2.619   2.254 -0.8904 -0.4354  2.1357
   71GLOH   H08 9165   2.424   2.563   2.254 -1.2461  0.9873 -1.5312
   71GLOH    C2 9166   2.461   2.639   2.063 -0.1977  0.5996 -0.6564
   71GLOH   H04 9167   2.392   2.566   2.019  1.1567 -1.3158  0.3241
   71GLOH    O2 9168   2.392   2.757   2.110 -0.1470  0.1965  0.5908
   71GLOH   H05 9169   2.437   2.800   2.185  0.6816 -0.4813  0.4964
   71GLOH    C3 9170   2.566   2.689   1.961  0.3644  0.5396  0.5715
   71GLOH   H06 9171   2.612   2.777   2.008  0.6146  0.4208  0.5521
   71GLOH   H07 9172   2.512   2.735   1.878 -0.6444  0.5112  1.2178
   71GLOH    O3 9173   2.655   2.595   1.916  0.5033  0.1540 -0.0709
   71GLOH   H01 9174   2.606   2.517   1.885  0.2109 -0.7964  2.5987
   72GLOH   H03 9175   3.246   0.335   0.751 -2.0291  0.4839  0.5548
   72GLOH    O1 9176   3.277   0.411   0.803  0.4202 -0.2197  0.1560
   72GLOH    C1 9177   3.168   0.440   0.888 -0.4693  0.3745 -0.6141
   72GLOH   H02 9178   3.094   0.360   0.896  0.4907 -0.7509 -2.6973
   72GLOH   H08 9179   3.118   0.524   0.842  0.3303  1.2115  0.0148
   72GLOH    C2 9180   3.219   0.486   1.029 -0.3968  0.4361 -0.0408
   72GLOH   H04 9181   3.294   0.410   1.055  0.9776  1.1186 -1.8986
   72GLOH    O2 9182   3.287   0.609   1.023  0.1045  0.0039  0.1420
   72GLOH   H05 9183   3.323   0.621   1.113 -0.5948 -0.2863  0.4612
   72GLOH    C3 9184   3.110   0.510   1.133  0.4450 -0.1154  0.1475
   72GLOH   H06 9185   3.062   0.604   1.103 -0.0148 -0.2436  0.4975
   72GLOH   H07 9186   3.164   0.532   1.225  0.2569 -1.8915  0.6842
   72GLOH    O3 9187   3.029   0.391   1.135  0.5190 -0.6310 -0.8370
   72GLOH   H01 9188   3.066   0.329   1.200  2.9133  2.8535  1.2553
   73GLOH   H03 9189   3.681   9.186   1.373  1.9177  1.8017 -0.2165
   73GLOH    O1 9190   3.736   9.139   1.308  0.2554 -0.0067 -0.3376
   73GLOH    C1 9191   3.849   9.085   1.375 -0.9953  0.3140 -0.0120
   73GLOH   H02 9192   3.814   9.001   1.435 -1.6398  1.5805  1.4335
   73GLOH   H08 9193   3.884   9.156   1.450  0.8162 -1.9717  1.3828
   73GLOH    C2 9194   3.958   9.038   1.273  0.5940  0.3597 -0.2347
   73GLOH   H04 9195   4.039   9.000   1.338  0.3272 -0.2118 -0.2296
   73GLOH    O2 9196   3.909   8.927   1.192 -0.3529  0.0040 -0.6615
   73GLOH   H05 9197   3.869   8.861   1.251  1.5776 -1.1372 -0.6201
   73GLOH    C3 9198   4.028   9.150   1.188 -0.4442  0.4930 -0.0167
   73GLOH   H06 9199   3.954   9.211   1.136  0.1826  1.1319 -0.1708
   73GLOH   H07 9200   4.081   9.101   1.107  1.7880 -0.9245  2.2485
   73GLOH    O3 9201   4.123   9.234   1.262 -0.3177  0.0371  0.3638
   73GLOH   H01 9202   4.134   9.213   1.357 -0.0762 -0.6281  0.1889
   74GLOH   H03 9203   3.526   3.289   0.691 -0.5989 -1.5290  1.3211
   74GLOH    O1 9204   3.454   3.255   0.635  0.0201  0.1448 -0.5817
   74GLOH    C1 9205   3.474   3.109   0.610 -0.0646  0.1883  0.1000
   74GLOH   H02 9206   3.409   3.086   0.526 -0.9941  2.6977  0.0713
   74GLOH   H08 9207   3.449   3.041   0.691 -0.1135  0.4495  0.3074
   74GLOH    C2 9208   3.623   3.082   0.575  0.1885 -0.2200  0.3839
   74GLOH   H04 9209   3.687   3.138   0.646  0.8621  0.9366 -1.0851
   74GLOH    O2 9210   3.649   2.942   0.574 -0.1393 -0.7015  0.5880
   74GLOH   H05 9211   3.744   2.928   0.587  0.0158  0.0160  0.2682
   74GLOH    C3 9212   3.665   3.148   0.449  0.3698 -0.0002  0.4482
   74GLOH   H06 9213   3.773   3.136   0.443  0.7120  2.1409  1.8634
   74GLOH   H07 9214   3.653   3.256   0.445  1.7324  0.1764  0.9326
   74GLOH    O3 9215   3.585   3.086   0.344 -0.1079  0.3298 -0.1892
   74GLOH   H01 9216   3.598   2.990   0.339  1.3225  0.6282 -3.3913
   75GLOH   H03 9217   2.934   1.718   0.799 -0.1459  1.0206  2.1892
   75GLOH    O1 9218   2.988   1.796   0.777  0.2227 -0.1100 -1.0904
   75GLOH    C1 9219   2.916   1.912   0.816  0.1844  0.5042  0.0878
   75GLOH   H02 9220   2.993   1.985   0.840 -1.6175  2.2627  0.6609
   75GLOH   H08 9221   2.861   1.903   0.910  0.1447  1.5567  0.1738
   75GLOH    C2 9222   2.827   1.975   0.703 -0.4207  0.3293  0.5649
   75GLOH   H04 9223   2.780   1.892   0.649  3.5333 -0.7936 -1.3081
   75GLOH    O2 9224   2.725   2.064   0.750  0.5438  0.5458  0.0874
   75GLOH   H05 9225   2.760   2.144   0.793  0.7321  0.1162  0.7494
   75GLOH    C3 9226   2.904   2.054   0.596 -0.7633  0.1597  0.6945
   75GLOH   H06 9227   2.970   1.979   0.552  0.4922 -0.0032  2.8127
   75GLOH   H07 9228   2.964   2.132   0.642 -0.5230  1.1900 -1.2982
   75GLOH    O3 9229   2.830   2.112   0.485  0.1581 -0.1329 -0.5095
   75GLOH   H01 9230   2.892   2.161   0.428 -1.4240  1.0794 -1.2224
   76GLOH   H03 9231   4.699   3.724   0.639 -0.5565  0.6191  0.2192
   76GLOH    O1 9232   4.693   3.693   0.547 -0.0817 -0.1777  0.4474
   76GLOH    C1 9233   4.576   3.747   0.479  0.0804  0.3865  0.2496
   76GLOH   H02 9234   4.588   3.720   0.375  1.4988 -1.0146  0.7582
   76GLOH   H08 9235   4.568   3.854   0.499  2.0227  0.7397 -0.7957
   76GLOH    C2 9236   4.450   3.682   0.540  0.0330 -0.0856  0.2402
   76GLOH   H04 9237   4.442   3.709   0.646  3.1977 -1.8598  0.9734
   76GLOH    O2 9238   4.330   3.726   0.471 -0.7829 -0.6702 -0.0981
   76GLOH   H05 9239   4.342   3.690   0.381  2.9196 -0.5873  0.2875
   76GLOH    C3 9240   4.470   3.527   0.532 -0.5332  0.3081  0.1028
   76GLOH   H06 9241   4.560   3.512   0.592 -0.5665  0.8760  0.2978
   76GLOH   H07 9242   4.477   3.486   0.431 -1.1387 -0.8174  0.5136
   76GLOH    O3 9243   4.365   3.462   0.598 -0.3510  0.1107 -0.3075
   76GLOH   H01 9244   4.283   3.501   0.562 -0.8284  1.5723  2.2007
   77GLOH   H03 9245   3.201   9.464   0.269  0.8452  0.8828  2.1807
   77GLOH    O1 9246   3.247   9.549   0.263  0.7348  0.7738 -0.7292
   77GLOH    C1 9247   3.222   9.605   0.142  0.9554  0.4950  0.6114
   77GLOH   H02 9248   3.126   9.656   0.134  0.8692  0.3740  0.8891
   77GLOH   H08 9249   3.221   9.536   0.057  0.7310  0.8720  0.3075
   77GLOH    C2 9250   3.322   9.719   0.102 -0.0031  0.0074 -0.4671
   77GLOH   H04 9251   3.422   9.673   0.092 -0.7122 -1.7629  0.3123
   77GLOH    O2 9252   3.288   9.758  -0.028  0.3850 -0.0449  0.1553
   77GLOH   H05 9253   3.288   9.854  -0.043 -1.2592  0.1403  1.2191
   77GLOH    C3 9254   3.324   9.836   0.209 -0.1929  0.0171  0.2116
   77GLOH   H06 9255   3.221   9.866   0.230 -0.1445  1.2551 -1.1954
   77GLOH   H07 9256   3.377   9.925   0.175  1.5278 -0.7978  0.6876
   77GLOH    O3 9257   3.385   9.797   0.330  0.1799  0.7292  0.4213
   77GLOH   H01 9258   3.478   9.773   0.310 -0.6167 -1.8288 -0.4946
   78GLOH   H03 9259   3.699   0.975   2.701  0.5013 -0.9695  1.7686
   78GLOH    O1 9260   3.605   0.972   2.727  0.0960 -0.5830  0.4051
   78GLOH    C1 9261   3.553   0.927   2.601  0.0655 -0.0574  1.1466
   78GLOH   H02 9262   3.464   0.865   2.613  1.1241 -1.7497  0.4147
   78GLOH   H08 9263   3.623   0.860   2.552 -0.9000 -1.9596  2.2678
   78GLOH    C2 9264   3.517   1.053   2.523  0.1404  1.0381 -0.6396
   78GLOH   H04 9265   3.435   1.105   2.574 -1.6492 -1.0645 -1.3034
   78GLOH    O2 9266   3.636   1.139   2.510  0.0745  0.2581  0.5024
   78GLOH   H05 9267   3.609   1.232   2.514  0.2950  0.3653 -0.3992
   78GLOH    C3 9268   3.455   1.022   2.388 -0.2444 -0.1354 -0.1950
   78GLOH   H06 9269   3.534   0.982   2.325  0.0233  2.1783 -1.3677
   78GLOH   H07 9270   3.439   1.113   2.329  1.2672 -0.8021 -1.6537
   78GLOH    O3 9271   3.347   0.927   2.383  0.3576  0.2789 -0.1458
   78GLOH   H01 9272   3.276   0.974   2.431 -1.3619 -2.4434  0.0932
   79GLOH   H03 9273   3.309   1.372   1.608 -2.2933  0.5928  0.1695
   79GLOH    O1 9274   3.285   1.314   1.533  0.5658 -0.0535 -0.2679
   79GLOH    C1 9275   3.161   1.377   1.483 -0.5751 -0.0648  0.0857
   79GLOH   H02 9276   3.148   1.356   1.377 -0.1610  4.1128 -0.8855
   79GLOH   H08 9277   3.174   1.484   1.496 -1.6532  0.1259 -0.3589
   79GLOH    C2 9278   3.043   1.327   1.563  0.0314  0.7105  0.0646
   79GLOH   H04 9279   3.069   1.342   1.668  2.0342  1.4534 -0.5046
   79GLOH    O2 9280   2.921   1.393   1.525  0.5615  0.1553 -0.3705
   79GLOH   H05 9281   2.877   1.334   1.461  1.4225  0.9133 -1.6874
   79GLOH    C3 9282   3.015   1.180   1.550  0.1420  0.1729  0.4643
   79GLOH   H06 9283   2.979   1.150   1.451  1.6780 -0.7832  0.1576
   79GLOH   H07 9284   2.946   1.146   1.626 -0.4052 -0.0141 -0.1126
   79GLOH    O3 9285   3.139   1.111   1.562  0.1961 -0.4062 -0.1557
   79GLOH   H01 9286   3.207   1.177   1.537 -0.5359  0.4110 -0.0451
   80GLOH   H03 9287   2.780   0.527   2.103  0.3065 -1.5917  0.3759
   80GLOH    O1 9288   2.745   0.518   2.013  0.2494 -0.0638  0.2251
   80GLOH    C1 9289   2.834   0.447   1.927 -0.7783 -1.0529 -0.1051
   80GLOH   H02 9290   2.925   0.417   1.979 -0.2451  0.9274  0.1509
   80GLOH   H08 9291   2.860   0.509   1.841 -1.9690 -0.2456  0.1196
   80GLOH    C2 9292   2.768   0.309   1.883  0.0751 -0.2441  0.0817
   80GLOH   H04 9293   2.679   0.335   1.823  0.1642 -0.5862 -0.1958
   80GLOH    O2 9294   2.867   0.236   1.812 -0.2944  0.6020 -0.6115
   80GLOH   H05 9295   2.853   0.141   1.797 -0.6586  0.7944 -1.5323
   80GLOH    C3 9296   2.717   0.226   2.000 -0.3100  0.2244 -0.2402
   80GLOH   H06 9297   2.658   0.289   2.067  0.7138 -1.5192  2.3558
   80GLOH   H07 9298   2.805   0.201   2.058 -0.6842  0.5681  0.4958
   80GLOH    O3 9299   2.636   0.116   1.951 -0.5085  0.3835 -0.1247
   80GLOH   H01 9300   2.597   0.057   2.018 -0.6228 -2.9545 -3.0112
   81GLOH   H03 9301   4.811   3.780   1.741 -1.6392  0.3688 -1.0845
   81GLOH    O1 9302   4.766   3.825   1.814 -0.6440 -0.8816  0.3575
   81GLOH    C1 9303   4.847   3.837   1.931  0.0809 -1.2812  0.1501
   81GLOH   H02 9304   4.796   3.896   2.007 -0.5379  1.3066 -2.2114
   81GLOH   H08 9305   4.939   3.890   1.905  0.3122 -1.5663  0.3783
   81GLOH    C2 9306   4.897   3.704   1.994  0.3904  0.1800  0.4084
   81GLOH   H04 9307   4.935   3.645   1.909  0.8034 -1.0721  1.4384
   81GLOH    O2 9308   5.002   3.721   2.092 -0.2510 -0.2950  0.3955
   81GLOH   H05 9309   4.960   3.779   2.158 -0.8765  2.1463 -2.0718
   81GLOH    C3 9310   4.780   3.622   2.050 -0.0192  0.4212 -0.0108
   81GLOH   H06 9311   4.735   3.674   2.135 -1.5813 -1.3874  0.2960
   81GLOH   H07 9312   4.811   3.521   2.075 -4.2051 -1.1185 -0.6172
   81GLOH    O3 9313   4.679   3.606   1.955 -0.7905  0.0556  0.3210
   81GLOH   H01 9314   4.710   3.546   1.884 -2.8872  0.5091 -1.0092
   82GLOH   H03 9315   3.358   0.362   2.568  0.3999 -0.5697  0.9976
   82GLOH    O1 9316   3.328   0.272   2.546  0.4141 -0.3287 -0.0578
   82GLOH    C1 9317   3.182   0.287   2.550 -0.3922  0.9098  0.3555
   82GLOH   H02 9318   3.146   0.275   2.448  0.1884  1.8965  0.0307
   82GLOH   H08 9319   3.160   0.384   2.593  3.6128  0.7226  3.1851
   82GLOH    C2 9320   3.126   0.180   2.644  0.4321 -0.0256  0.2761
   82GLOH   H04 9321   3.170   0.201   2.743 -1.0902 -1.0124  1.1924
   82GLOH    O2 9322   2.985   0.186   2.658  0.3831  0.3508  0.0227
   82GLOH   H05 9323   2.968   0.244   2.734  0.8177 -0.8974  1.0995
   82GLOH    C3 9324   3.165   0.042   2.599  0.2411  0.0678  0.2495
   82GLOH   H06 9325   3.156   0.049   2.491  0.8168 -1.6277  0.0667
   82GLOH   H07 9326   3.096  -0.034   2.637 -0.3777 -0.3098 -1.5635
   82GLOH    O3 9327   3.299   0.007   2.641 -0.7180  0.2377 -0.0274
   82GLOH   H01 9328   3.356   0.084   2.622 -0.2560 -0.4318 -1.3744
   83GLOH   H03 9329   4.344   3.524   1.947  0.8602  0.8556 -0.6101
   83GLOH    O1 9330   4.349   3.432   1.914 -0.6224  0.4475  0.2723
   83GLOH    C1 9331   4.380   3.336   2.014  0.0147 -0.4111 -0.0782
   83GLOH   H02 9332   4.392   3.377   2.114  0.2042  0.0913 -0.3004
   83GLOH   H08 9333   4.478   3.296   1.986  1.0993  0.1930  2.7362
   83GLOH    C2 9334   4.272   3.224   2.022 -0.2705 -0.3463 -0.0908
   83GLOH   H04 9335   4.294   3.154   2.104  0.7629  0.8778  0.6848
   83GLOH    O2 9336   4.142   3.282   2.055 -0.1242  0.0806  0.3720
   83GLOH   H05 9337   4.152   3.378   2.056  1.2015 -0.0450 -0.4863
   83GLOH    C3 9338   4.260   3.147   1.889 -1.0374  0.2050 -0.6510
   83GLOH   H06 9339   4.262   3.221   1.809  0.8366  0.1278 -0.6798
   83GLOH   H07 9340   4.156   3.114   1.885 -0.5098 -1.5842 -0.2057
   83GLOH    O3 9341   4.352   3.038   1.873 -0.8441  0.0777 -0.2632
   83GLOH   H01 9342   4.306   2.952   1.878 -2.3284  0.8460 -0.2448
   84GLOH   H03 9343   4.104   2.361   0.689 -0.2273  0.7339 -0.6805
   84GLOH    O1 9344   4.013   2.340   0.719  0.0354  0.2477 -0.2096
   84GLOH    C1 9345   3.994   2.202   0.689 -0.7194  0.3318  0.3761
   84GLOH   H02 9346   3.993   2.167   0.586  2.2095  0.9104  0.1029
   84GLOH   H08 9347   3.889   2.182   0.712  0.1278 -1.1996  3.1452
   84GLOH    C2 9348   4.081   2.101   0.762  0.8421  0.5619  0.0776
   84GLOH   H04 9349   4.074   2.109   0.872 -0.4679  0.9142 -0.0234
   84GLOH    O2 9350   4.053   1.963   0.724  0.0170 -0.0445  0.1654
   84GLOH   H05 9351   4.062   1.953   0.627 -2.9435 -1.7960  0.0336
   84GLOH    C3 9352   4.229   2.128   0.730  0.4638 -0.4419 -0.3701
   84GLOH   H06 9353   4.242   2.121   0.622 -0.1721  0.2265 -0.4921
   84GLOH   H07 9354   4.290   2.050   0.776 -0.8421 -0.5187  1.2622
   84GLOH    O3 9355   4.283   2.256   0.772 -0.0250 -0.3337 -0.7089
   84GLOH   H01 9356   4.276   2.240   0.868  0.2745  1.9206 -0.2810
   85GLOH   H03 9357   4.016   1.914   2.416  2.0239 -0.9227  0.5088
   85GLOH    O1 9358   3.973   1.828   2.405 -0.0442  0.1132  0.2319
   85GLOH    C1 9359   4.058   1.762   2.311  0.2689  0.9053 -0.5301
   85GLOH   H02 9360   4.134   1.700   2.358 -1.6390  0.7495  2.4296
   85GLOH   H08 9361   4.113   1.834   2.251  1.2652  0.6878  0.1207
   85GLOH    C2 9362   3.975   1.676   2.210  0.6986  0.0640  0.5454
   85GLOH   H04 9363   3.888   1.634   2.262  1.9837 -0.6092  2.2260
   85GLOH    O2 9364   3.921   1.755   2.101 -0.1371  0.0456 -0.0581
   85GLOH   H05 9365   3.898   1.846   2.126  2.2075  0.0377  2.4679
   85GLOH    C3 9366   4.060   1.553   2.172  0.1772  0.2661 -0.3812
   85GLOH   H06 9367   4.153   1.593   2.133  0.0576 -0.4663 -1.4275
   85GLOH   H07 9368   4.004   1.502   2.093  0.3649  2.9136 -2.2813
   85GLOH    O3 9369   4.092   1.462   2.282 -0.2280 -0.2929 -0.5075
   85GLOH   H01 9370   4.013   1.416   2.316 -0.7547  0.7859 -0.2553
   86GLOH   H03 9371   4.003   3.744   0.750  2.0649  0.1913 -1.2122
   86GLOH    O1 9372   4.045   3.764   0.835 -0.5668  0.2895  0.1021
   86GLOH    C1 9373   4.121   3.643   0.877 -0.4217  0.3896  0.1605
   86GLOH   H02 9374   4.157   3.662   0.979 -2.9223 -1.3065  1.4072
   86GLOH   H08 9375   4.203   3.621   0.809 -1.6023  0.5388 -1.3361
   86GLOH    C2 9376   4.032   3.507   0.888  0.4248 -0.5094  0.0564
   86GLOH   H04 9377   3.940   3.541   0.939 -0.5125 -1.1217 -1.1849
   86GLOH    O2 9378   3.996   3.464   0.759 -0.1052  0.0202  0.8180
   86GLOH   H05 9379   3.977   3.536   0.696 -0.1321 -2.0926 -1.6589
   86GLOH    C3 9380   4.107   3.410   0.975 -0.6327  0.4423 -0.3801
   86GLOH   H06 9381   4.192   3.381   0.913 -1.6963  1.0008 -2.1432
   86GLOH   H07 9382   4.040   3.324   0.982  0.0401  0.0504  1.4625
   86GLOH    O3 9383   4.152   3.453   1.106 -0.5355 -0.2818  0.1799
   86GLOH   H01 9384   4.238   3.408   1.112 -0.1509 -0.0151 -2.4270
   87GLOH   H03 9385   3.210   1.265   0.807  0.6879 -0.4904  0.7723
   87GLOH    O1 9386   3.208   1.361   0.825  0.0438 -0.3234 -0.1643
   87GLOH    C1 9387   3.168   1.441   0.715 -0.2185  0.2415 -0.9089
   87GLOH   H02 9388   3.129   1.538   0.745  1.7692  0.4818  1.0235
   87GLOH   H08 9389   3.082   1.398   0.663 -1.5511 -0.6509  1.9439
   87GLOH    C2 9390   3.276   1.473   0.616  0.3230  0.2719  0.5996
   87GLOH   H04 9391   3.338   1.383   0.601 -0.3066 -0.1090  0.2098
   87GLOH    O2 9392   3.220   1.504   0.485  0.6276 -0.1613  0.1718
   87GLOH   H05 9393   3.151   1.572   0.492  1.9511  1.1953  0.1496
   87GLOH    C3 9394   3.367   1.581   0.674 -0.5232 -0.3961 -0.7842
   87GLOH   H06 9395   3.415   1.552   0.767  2.5691 -0.5952 -2.3743
   87GLOH   H07 9396   3.310   1.671   0.698  0.6340  0.2073 -0.2048
   87GLOH    O3 9397   3.470   1.622   0.581  0.6557 -0.1481  0.6252
   87GLOH   H01 9398   3.474   1.562   0.504  1.5755 -0.6819  1.0859
   88GLOH   H03 9399   2.507   3.011   2.196 -1.7603  1.5557  0.8168
   88GLOH    O1 9400   2.515   3.066   2.116  0.1193 -0.2659 -0.3064
   88GLOH    C1 9401   2.500   3.202   2.152 -0.0117 -0.1511  0.3651
   88GLOH   H02 9402   2.483   3.212   2.260  1.1511  2.2727  0.3651
   88GLOH   H08 9403   2.415   3.232   2.091  0.6808  2.3852  0.6107
   88GLOH    C2 9404   2.617   3.294   2.113 -0.1177  0.3057  0.3381
   88GLOH   H04 9405   2.589   3.394   2.150 -0.2615  0.2921  0.2645
   88GLOH    O2 9406   2.734   3.241   2.184 -0.0041 -0.4374 -0.3316
   88GLOH   H05 9407   2.760   3.154   2.149 -1.4596 -0.1924 -2.0647
   88GLOH    C3 9408   2.641   3.299   1.961 -0.7362 -0.2416  0.6982
   88GLOH   H06 9409   2.737   3.349   1.947 -0.7020  0.9726  4.5428
   88GLOH   H07 9410   2.569   3.359   1.906  0.3471  1.0374  0.6461
   88GLOH    O3 9411   2.630   3.167   1.909  0.1375  0.4815  0.3021
   88GLOH   H01 9412   2.594   3.112   1.981 -0.7972  0.7044  0.0070
   89GLOH   H03 9413   3.072   0.896   1.222 -1.1177  1.3034  1.4637
   89GLOH    O1 9414   3.107   0.977   1.181 -0.3231  0.0780 -0.3707
   89GLOH    C1 9415   3.236   1.014   1.233 -0.0172 -0.2566  0.5410
   89GLOH   H02 9416   3.276   0.921   1.274 -1.3837 -0.8393  0.5998
   89GLOH   H08 9417   3.219   1.086   1.313  1.8822  0.9571 -0.1277
   89GLOH    C2 9418   3.331   1.064   1.122 -0.5919  0.4552  0.1621
   89GLOH   H04 9419   3.286   1.162   1.097  1.4560  1.4564  0.2559
   89GLOH    O2 9420   3.462   1.079   1.180 -0.0021 -0.4816  0.3296
   89GLOH   H05 9421   3.518   1.062   1.102 -0.6954 -1.4813  0.0377
   89GLOH    C3 9422   3.327   0.980   0.991  0.7787  0.1326 -1.0897
   89GLOH   H06 9423   3.224   0.962   0.961  0.3498 -0.6634  0.8021
   89GLOH   H07 9424   3.373   0.884   1.011  0.0583 -0.1422 -0.7293
   89GLOH    O3 9425   3.393   1.039   0.881 -0.2661  0.0375 -0.1338
   89GLOH   H01 9426   3.489   1.021   0.891 -0.6788 -1.4917  1.3158
   90GLOH   H03 9427   2.678   9.337   0.498  0.1891  0.1874  0.5279
   90GLOH    O1 9428   2.725   9.363   0.417  0.2210 -0.1346  0.4429
   90GLOH    C1 9429   2.781   9.245   0.355  0.1645  0.2929 -0.3652
   90GLOH   H02 9430   2.826   9.280   0.262 -0.4943  0.9599 -0.4368
   90GLOH   H08 9431   2.699   9.179   0.330 -0.6297  0.8853  0.6539
   90GLOH    C2 9432   2.887   9.160   0.429 -0.3808 -0.1340 -0.3139
   90GLOH   H04 9433   2.914   9.068   0.376 -1.1216  0.1313 -1.1744
   90GLOH    O2 9434   3.010   9.238   0.453  0.0261 -0.1957 -0.4184
   90GLOH   H05 9435   3.074   9.173   0.487 -0.3060 -0.8558 -1.0380
   90GLOH    C3 9436   2.832   9.124   0.567 -0.5939 -0.2398 -0.3208
   90GLOH   H06 9437   2.743   9.062   0.553 -1.7602  1.1599  0.7696
   90GLOH   H07 9438   2.803   9.215   0.620  0.5989 -0.2431  0.3735
   90GLOH    O3 9439   2.934   9.061   0.651  0.1832  0.9885  0.0075
   90GLOH   H01 9440   2.976   9.138   0.693  0.2844  0.6444  0.5327
   91GLOH   H03 9441   3.531   2.776   0.215  0.3059 -1.3547  1.7540
   91GLOH    O1 9442   3.607   2.833   0.237 -0.2773  0.1471  0.0204
   91GLOH    C1 9443   3.739   2.770   0.227 -0.4172  0.1729  0.8648
   91GLOH   H02 9444   3.748   2.677   0.283 -2.3405 -2.5894 -3.2042
   91GLOH   H08 9445   3.815   2.837   0.268  0.5014 -0.1746 -0.2329
   91GLOH    C2 9446   3.789   2.762   0.082 -0.5145 -0.6871 -0.3770
   91GLOH   H04 9447   3.767   2.859   0.036  0.5361 -0.8315 -1.2140
   91GLOH    O2 9448   3.921   2.731   0.086  0.4354 -0.6199 -0.1923
   91GLOH   H05 9449   3.952   2.749  -0.005 -0.4398 -3.0242 -0.9871
   91GLOH    C3 9450   3.719   2.645   0.006 -0.4656 -0.1551  0.6753
   91GLOH   H06 9451   3.611   2.656   0.013 -0.7948 -2.0066 -0.8429
   91GLOH   H07 9452   3.762   2.553   0.047 -1.0116 -1.3141 -1.2732
   91GLOH    O3 9453   3.757   2.646  -0.133 -0.2961 -0.4349 -0.5958
   91GLOH   H01 9454   3.835   2.588  -0.142  0.7864  0.9465 -0.4019
   92GLOH   H03 9455   2.716   2.652   1.792 -0.0389  1.0699 -0.2170
   92GLOH    O1 9456   2.746   2.693   1.709  0.6072  0.3581 -0.3439
   92GLOH    C1 9457   2.722   2.840   1.717  0.0716 -0.4070 -0.3351
   92GLOH   H02 9458   2.788   2.900   1.780  0.2898 -0.8516 -0.1389
   92GLOH   H08 9459   2.621   2.862   1.750 -0.1264 -2.4314  0.5107
   92GLOH    C2 9460   2.750   2.903   1.580 -0.0978  0.1539  0.0012
   92GLOH   H04 9461   2.673   2.874   1.507  1.1689 -0.4159 -1.1415
   92GLOH    O2 9462   2.758   3.045   1.592  0.0196  0.6544 -0.0065
   92GLOH   H05 9463   2.673   3.082   1.563  1.3076  3.3524 -0.4614
   92GLOH    C3 9464   2.887   2.843   1.527 -0.4666 -0.3178 -0.1009
   92GLOH   H06 9465   2.893   2.737   1.549  0.5200 -0.3160 -0.3493
   92GLOH   H07 9466   2.971   2.883   1.584 -1.1744 -1.3633  1.7290
   92GLOH    O3 9467   2.903   2.861   1.385 -0.3118 -0.1919  0.4003
   92GLOH   H01 9468   2.984   2.810   1.365 -0.0594 -0.0829  1.1465
   93GLOH   H03 9469   2.740   2.566   1.603 -2.6855  0.1981 -0.6512
   93GLOH    O1 9470   2.746   2.485   1.548  0.3327 -0.2764  0.2936
   93GLOH    C1 9471   2.616   2.481   1.484  0.2049 -0.1926  0.2895
   93GLOH   H02 9472   2.610   2.572   1.425  1.4047  0.9998  1.9895
   93GLOH   H08 9473   2.535   2.475   1.557  1.2545 -2.5582  1.3333
   93GLOH    C2 9474   2.596   2.363   1.389  0.1866  0.0804 -0.4361
   93GLOH   H04 9475   2.601   2.269   1.445 -2.2119  1.1328  1.6484
   93GLOH    O2 9476   2.470   2.371   1.328  0.4087 -0.2615  0.4086
   93GLOH   H05 9477   2.470   2.414   1.241  0.5173  1.5942  1.3014
   93GLOH    C3 9478   2.709   2.364   1.283  0.0485 -0.1115  0.9443
   93GLOH   H06 9479   2.706   2.266   1.234  1.5844  1.2637 -2.0375
   93GLOH   H07 9480   2.807   2.372   1.331 -0.0922  1.7110  0.9584
   93GLOH    O3 9481   2.709   2.480   1.192 -0.2407  0.6434 -0.0815
   93GLOH   H01 9482   2.621   2.488   1.149  0.6222  1.3443 -1.7765
   94GLOH   H03 9483   2.442   1.134   0.071 -0.5354  3.1866  1.8060
   94GLOH    O1 9484   2.453   1.071   0.145 -0.1908  1.2108  0.1464
   94GLOH    C1 9485   2.593   1.080   0.179  0.2748 -0.9300 -0.5118
   94GLOH   H02 9486   2.614   1.156   0.255 -0.5038 -1.1049 -0.1087
   94GLOH   H08 9487   2.649   1.114   0.092  0.0916  1.5799  0.2924
   94GLOH    C2 9488   2.641   0.943   0.226 -0.0104 -0.6926 -0.5383
   94GLOH   H04 9489   2.584   0.917   0.316 -3.3088 -0.1568 -2.4141
   94GLOH    O2 9490   2.621   0.837   0.131 -0.5579  0.5842  0.2867
   94GLOH   H05 9491   2.526   0.847   0.115 -1.4032 -0.9456  3.8532
   94GLOH    C3 9492   2.787   0.947   0.269 -0.2238  0.0349  0.3915
   94GLOH   H06 9493   2.850   0.951   0.180 -2.0655 -1.1012 -0.9913
   94GLOH   H07 9494   2.801   0.851   0.319  1.7128 -0.2251 -0.6127
   94GLOH    O3 9495   2.812   1.060   0.360  0.1151 -0.8476  0.5795
   94GLOH   H01 9496   2.882   1.038   0.424  0.5427 -0.7803  0.1343
   95GLOH   H03 9497   3.731   4.367   1.326 -1.1520  1.0831  0.1544
   95GLOH    O1 9498   3.808   4.426   1.338  0.0618 -0.3606 -0.3533
   95GLOH    C1 9499   3.931   4.352   1.373  0.7451  0.1677  0.2850
   95GLOH   H02 9500   3.924   4.307   1.473 -1.6724  1.7514  0.8560
   95GLOH   H08 9501   4.027   4.404   1.371  2.3945 -2.7779 -0.0416
   95GLOH    C2 9502   3.949   4.224   1.288 -0.5217  0.6724 -0.5437
   95GLOH   H04 9503   3.950   4.237   1.178 -0.4416  3.4555 -0.2444
   95GLOH    O2 9504   4.073   4.161   1.321 -0.0169 -0.4394  0.2162
   95GLOH   H05 9505   4.071   4.125   1.411  0.3003 -2.6745 -0.6259
   95GLOH    C3 9506   3.837   4.116   1.306 -0.2443 -0.2086  0.1749
   95GLOH   H06 9507   3.828   4.070   1.404  2.5879  2.6708  1.8843
   95GLOH   H07 9508   3.863   4.036   1.237  0.8704  1.4451 -1.3822
   95GLOH    O3 9509   3.710   4.170   1.264 -0.7539 -0.0176 -0.0178
   95GLOH   H01 9510   3.645   4.099   1.278 -1.9022  0.6766 -1.6174
   96GLOH   H03 9511   3.400   8.797   2.431  0.9849  0.0490 -0.0709
   96GLOH    O1 9512   3.437   8.804   2.521  0.3643  1.2407  0.1081
   96GLOH    C1 9513   3.529   8.917   2.535  0.2834  0.2055  0.4656
   96GLOH   H02 9514   3.629   8.890   2.502 -0.2549 -1.6510  0.2825
   96GLOH   H08 9515   3.537   8.945   2.640 -0.6601  1.8796  0.1144
   96GLOH    C2 9516   3.482   9.034   2.441 -0.1034 -0.1346 -0.1368
   96GLOH   H04 9517   3.376   9.053   2.464 -0.4732 -3.2619  1.0078
   96GLOH    O2 9518   3.559   9.149   2.472 -0.3009 -0.0173 -0.0509
   96GLOH   H05 9519   3.512   9.201   2.540  1.2880 -2.1226  2.8161
   96GLOH    C3 9520   3.503   8.980   2.299 -0.0026  0.8302  0.0524
   96GLOH   H06 9521   3.609   8.953   2.288  0.5190  2.7344  0.3104
   96GLOH   H07 9522   3.481   9.054   2.223 -0.0064  1.5064  0.7043
   96GLOH    O3 9523   3.430   8.862   2.258 -0.1032 -0.6843  0.4100
   96GLOH   H01 9524   3.485   8.815   2.193  0.4316 -2.5303  2.1587
   97GLOH   H03 9525   4.387   3.849   2.564  0.1231  1.8163 -2.4822
   97GLOH    O1 9526   4.372   3.782   2.495 -0.1963 -0.0065 -0.6723
   97GLOH    C1 9527   4.289   3.680   2.554 -0.4742 -0.2961  0.3021
   97GLOH   H02 9528   4.189   3.724   2.556 -0.4485 -0.1262 -1.2815
   97GLOH   H08 9529   4.305   3.662   2.661 -0.2327 -0.1562  0.2896
   97GLOH    C2 9530   4.281   3.552   2.471 -0.3514 -0.1179 -0.7034
   97GLOH   H04 9531   4.377   3.500   2.462 -0.3718 -0.1298 -0.8699
   97GLOH    O2 9532   4.208   3.457   2.549 -0.8460  0.2949 -0.1581
   97GLOH   H05 9533   4.114   3.473   2.530 -0.4339  0.1219 -2.4231
   97GLOH    C3 9534   4.225   3.579   2.328 -1.0608  0.7873  0.1271
   97GLOH   H06 9535   4.276   3.658   2.274  0.7111  0.0069  0.6072
   97GLOH   H07 9536   4.121   3.610   2.339 -1.8382 -1.9940  0.9623
   97GLOH    O3 9537   4.226   3.455   2.251  0.7359 -0.1663 -0.1621
   97GLOH   H01 9538   4.197   3.382   2.309 -0.1953 -1.8095 -2.6360
   98GLOH   H03 9539   3.651   2.836   0.823  1.6790  2.5273 -0.9023
   98GLOH    O1 9540   3.608   2.900   0.883  0.5464  0.1490  0.8928
   98GLOH    C1 9541   3.726   2.959   0.943  0.1673 -0.1743  0.3754
   98GLOH   H02 9542   3.782   3.024   0.876  0.5037 -0.9407 -0.0851
   98GLOH   H08 9543   3.803   2.887   0.971 -0.5395 -0.4623  1.5973
   98GLOH    C2 9544   3.702   3.038   1.073 -0.2531 -0.2950 -0.3485
   98GLOH   H04 9545   3.616   3.107   1.065  0.3391  0.6493  1.1201
   98GLOH    O2 9546   3.678   2.964   1.193 -0.0529  0.0384  0.1672
   98GLOH   H05 9547   3.597   2.911   1.187 -0.2060  0.2317  0.4798
   98GLOH    C3 9548   3.817   3.135   1.095 -0.0577  0.1784  0.6227
   98GLOH   H06 9549   3.910   3.082   1.074 -1.8177 -1.6758 -2.6936
   98GLOH   H07 9550   3.833   3.167   1.198  1.3308 -0.1616  0.5337
   98GLOH    O3 9551   3.806   3.255   1.006  0.5729 -0.1456  0.3939
   98GLOH   H01 9552   3.829   3.334   1.059  1.0773 -0.8820  1.2906
   99GLOH   H03 9553   3.683   0.764   1.037  0.7067 -0.4113 -1.8142
   99GLOH    O1 9554   3.603   0.786   0.985 -0.7727 -1.2622  0.0019
   99GLOH    C1 9555   3.581   0.668   0.898 -0.6724 -0.2877  0.2469
   99GLOH   H02 9556   3.494   0.698   0.839 -0.0592  2.0070  0.4447
   99GLOH   H08 9557   3.562   0.579   0.957  2.2905 -0.6858  0.6423
   99GLOH    C2 9558   3.700   0.662   0.800  0.4846 -0.2578 -0.9419
   99GLOH   H04 9559   3.794   0.634   0.850  1.4646  2.0768 -1.4484
   99GLOH    O2 9560   3.671   0.550   0.717  0.2182 -0.1628 -0.7833
   99GLOH   H05 9561   3.739   0.540   0.649 -0.4706  0.3488 -1.5558
   99GLOH    C3 9562   3.707   0.786   0.713  0.6421  0.9110  0.3259
   99GLOH   H06 9563   3.715   0.878   0.771  1.6832 -0.1149  1.8694
   99GLOH   H07 9564   3.612   0.782   0.660  0.9699  0.8700 -0.2634
   99GLOH    O3 9565   3.808   0.787   0.616  0.0422 -0.0323  0.0292
   99GLOH   H01 9566   3.887   0.750   0.659 -0.3083 -0.2484  0.4811
  100GLOH   H03 9567   3.765   0.666   2.360 -0.4666  0.6187 -0.1805
  100GLOH    O1 9568   3.748   0.602   2.432 -0.4418  0.6873 -0.1147
  100GLOH    C1 9569   3.827   0.478   2.413  0.7787 -0.0723  0.3086
  100GLOH   H02 9570   3.866   0.448   2.511 -1.1040  1.6841  1.6572
  100GLOH   H08 9571   3.910   0.483   2.343 -0.6492 -2.1947 -1.5962
  100GLOH    C2 9572   3.737   0.364   2.358  0.3453 -0.6571 -0.5253
  100GLOH   H04 9573   3.797   0.279   2.324 -0.3526 -1.2135 -0.3913
  100GLOH    O2 9574   3.656   0.321   2.469 -0.5193  0.2841 -0.1566
  100GLOH   H05 9575   3.585   0.382   2.495 -0.5158 -0.0166  0.5682
  100GLOH    C3 9576   3.656   0.420   2.234 -0.3301  0.6605 -0.1075
  100GLOH   H06 9577   3.736   0.462   2.173  0.9969 -1.9985 -0.2777
  100GLOH   H07 9578   3.582   0.494   2.264 -1.9719 -0.5850 -0.9897
  100GLOH    O3 9579   3.582   0.331   2.151  0.0079  0.1152 -0.5770
  100GLOH   H01 9580   3.506   0.300   2.204  0.6244 -0.2370  0.1094
  101GLOH   H03 9581   3.115   0.217   0.307 -2.1311 -0.6592 -2.4682
  101GLOH    O1 9582   3.103   0.138   0.363  0.8653  0.3444 -0.3076
  101GLOH    C1 9583   3.032   0.045   0.277  0.4921  0.0564 -0.4807
  101GLOH   H02 9584   3.060  -0.059   0.292  0.6489  0.2407  0.5391
  101GLOH   H08 9585   3.062   0.071   0.176  2.0159 -3.6581 -1.0471
  101GLOH    C2 9586   2.882   0.051   0.294  0.7447  0.1835  0.4277
  101GLOH   H04 9587   2.844   0.025   0.394 -1.2002  1.8165  0.1492
  101GLOH    O2 9588   2.834   0.181   0.266  0.9249 -0.1041  0.2511
  101GLOH   H05 9589   2.737   0.187   0.268  1.1017  2.9702  3.6050
  101GLOH    C3 9590   2.825  -0.043   0.185 -0.1394  0.2017  0.2753
  101GLOH   H06 9591   2.877  -0.017   0.093  0.4640 -0.5825  0.3912
  101GLOH   H07 9592   2.718  -0.026   0.174 -0.1406  0.0293  0.0242
  101GLOH    O3 9593   2.844  -0.186   0.185 -0.6657 -0.0050 -0.2146
  101GLOH   H01 9594   2.804  -0.229   0.263  2.9930 -1.4133  0.9904
  102GLOH   H03 9595   4.731   3.237   1.195 -0.4312  0.9582 -1.0147
  102GLOH    O1 9596   4.762   3.199   1.111  0.5941  0.1941 -0.2956
  102GLOH    C1 9597   4.817   3.297   1.019 -0.0207 -0.0301  0.0240
  102GLOH   H02 9598   4.732   3.360   0.994  0.2019 -0.4264 -1.7508
  102GLOH   H08 9599   4.862   3.238   0.939 -0.0059  0.3471 -0.2437
  102GLOH    C2 9600   4.920   3.397   1.070 -0.0525  0.3125 -0.1700
  102GLOH   H04 9601   4.942   3.460   0.982 -0.2497 -0.3478 -0.7000
  102GLOH    O2 9602   4.854   3.483   1.163  0.0563 -0.0086  0.1916
  102GLOH   H05 9603   4.923   3.517   1.223  0.7777 -0.6102 -0.2831
  102GLOH    C3 9604   5.051   3.321   1.112 -0.4319 -0.0763 -0.0298
  102GLOH   H06 9605   5.138   3.382   1.087  1.3510 -2.1704  0.8578
  102GLOH   H07 9606   5.052   3.237   1.042 -1.4089 -1.6991  1.8498
  102GLOH    O3 9607   5.055   3.269   1.248 -0.0098  0.7447 -0.2347
  102GLOH   H01 9608   4.971   3.233   1.280  0.4696 -0.7136 -0.5901
  103GLOH   H03 9609   2.951   1.543   0.972 -1.1670  0.2314  0.6598
  103GLOH    O1 9610   2.994   1.546   1.060  0.0220  0.3896  0.0856
  103GLOH    C1 9611   2.950   1.439   1.147 -0.7300 -0.2587  0.2989
  103GLOH   H02 9612   2.841   1.445   1.156 -0.7768 -0.5796 -0.0482
  103GLOH   H08 9613   3.003   1.460   1.240 -1.5574 -0.3232  0.7971
  103GLOH    C2 9614   2.995   1.293   1.105 -0.3687  0.6394  0.0490
  103GLOH   H04 9615   3.103   1.293   1.088 -0.3389 -0.9044  0.1666
  103GLOH    O2 9616   2.961   1.189   1.199  0.1505  0.2107  0.9955
  103GLOH   H05 9617   3.014   1.108   1.196 -3.5760 -2.4013  1.5879
  103GLOH    C3 9618   2.934   1.264   0.968 -0.3062 -0.7544 -0.4654
  103GLOH   H06 9619   2.986   1.176   0.931  2.6750  0.0143  1.7315
  103GLOH   H07 9620   2.960   1.345   0.899 -1.9143  0.7149  0.6013
  103GLOH    O3 9621   2.791   1.251   0.977 -0.5744  0.3667  0.6449
  103GLOH   H01 9622   2.781   1.176   1.039  0.3102  1.9218  2.7271
  104GLOH   H03 9623   4.087   4.362   2.315 -1.1610 -0.8045 -1.8702
  104GLOH    O1 9624   4.154   4.291   2.323  0.0325  0.4040 -0.7145
  104GLOH    C1 9625   4.108   4.181   2.404 -0.6745 -0.6649 -0.2058
  104GLOH   H02 9626   4.002   4.164   2.381 -1.1237  0.9566  0.6065
  104GLOH   H08 9627   4.103   4.218   2.506 -1.0277  0.8921 -0.7844
  104GLOH    C2 9628   4.174   4.041   2.412  0.5406  0.0591  0.2116
  104GLOH   H04 9629   4.283   4.058   2.421  0.8650 -2.0741  0.6414
  104GLOH    O2 9630   4.124   3.973   2.533 -0.4394 -0.2204 -0.8263
  104GLOH   H05 9631   4.030   3.952   2.517 -0.0484 -0.4489 -2.9336
  104GLOH    C3 9632   4.153   3.956   2.283 -0.0507 -0.2458  0.3641
  104GLOH   H06 9633   4.057   3.984   2.240 -0.2520 -0.7963  0.4490
  104GLOH   H07 9634   4.149   3.847   2.292  1.2361 -0.5206 -1.9919
  104GLOH    O3 9635   4.249   3.990   2.176 -0.0227  0.0827 -0.4055
  104GLOH   H01 9636   4.284   4.079   2.196 -1.1578  0.7005 -1.0757
  105GLOH   H03 9637   4.405   3.602   1.293 -0.4083 -0.8271  1.6802
  105GLOH    O1 9638   4.491   3.557   1.300  0.4325  0.5131  0.3372
  105GLOH    C1 9639   4.583   3.668   1.290  0.3457  0.4401  0.2753
  105GLOH   H02 9640   4.681   3.625   1.310  0.2748 -0.2518 -0.8280
  105GLOH   H08 9641   4.567   3.747   1.364 -1.0936  0.4540 -0.0364
  105GLOH    C2 9642   4.589   3.728   1.145  0.3092  0.0298  0.7896
  105GLOH   H04 9643   4.647   3.821   1.149 -0.8812  0.8286 -0.1999
  105GLOH    O2 9644   4.644   3.638   1.045  0.2838 -0.9472  0.3788
  105GLOH   H05 9645   4.708   3.576   1.083  0.3102 -1.6488 -0.7966
  105GLOH    C3 9646   4.457   3.790   1.093 -0.2422 -0.8099 -0.1104
  105GLOH   H06 9647   4.379   3.714   1.101 -0.0158 -0.7962  3.1454
  105GLOH   H07 9648   4.473   3.827   0.992  3.1615 -0.5622  0.4615
  105GLOH    O3 9649   4.417   3.905   1.172 -0.4397  0.7985 -0.4960
  105GLOH   H01 9650   4.322   3.901   1.193 -0.2574  2.6297  0.8002
  106GLOH   H03 9651   2.545   1.720   2.889  0.5468  0.3352  0.0992
  106GLOH    O1 9652   2.474   1.719   2.822  0.7891 -0.7525 -0.1539
  106GLOH    C1 9653   2.390   1.599   2.839 -0.1779  0.5177  0.0781
  106GLOH   H02 9654   2.299   1.621   2.895 -2.8398 -0.8973 -3.5397
  106GLOH   H08 9655   2.449   1.527   2.896  0.0889  0.8583  0.2371
  106GLOH    C2 9656   2.348   1.535   2.702  0.3003  0.3047 -0.0226
  106GLOH   H04 9657   2.436   1.506   2.643  2.6175  2.5828  2.1712
  106GLOH    O2 9658   2.282   1.408   2.721 -0.5059 -0.4058 -0.5350
  106GLOH   H05 9659   2.337   1.335   2.688 -0.5860 -0.6325 -0.1727
  106GLOH    C3 9660   2.268   1.636   2.620 -0.2691 -0.2485  0.1657
  106GLOH   H06 9661   2.191   1.679   2.683  0.3173  1.4110 -0.2409
  106GLOH   H07 9662   2.209   1.578   2.548 -0.9752  1.3020 -0.5166
  106GLOH    O3 9663   2.355   1.742   2.575 -0.1356 -0.0150 -0.3098
  106GLOH   H01 9664   2.428   1.757   2.638 -1.1255  0.2121  0.8284
  107GLOH   H03 9665   3.747   3.831   0.169 -0.3678 -3.6572 -0.3534
  107GLOH    O1 9666   3.843   3.815   0.175  0.2868 -0.0345  0.1465
  107GLOH    C1 9667   3.854   3.674   0.132 -0.2384 -0.0082  0.1854
  107GLOH   H02 9668   3.794   3.615   0.202 -0.0251  1.9625  2.0726
  107GLOH   H08 9669   3.959   3.648   0.144 -0.2223  0.5003  1.1810
  107GLOH    C2 9670   3.820   3.636  -0.014 -0.1876 -0.1222  0.8864
  107GLOH   H04 9671   3.896   3.673  -0.083 -1.3787  4.5043  1.8889
  107GLOH    O2 9672   3.812   3.493  -0.037  0.1258  0.1499 -0.2818
  107GLOH   H05 9673   3.742   3.449   0.014 -0.4532 -1.1292 -2.1080
  107GLOH    C3 9674   3.688   3.705  -0.055 -0.6154  0.0833  0.5067
  107GLOH   H06 9675   3.690   3.802  -0.006 -1.5652 -0.5711  1.8665
  107GLOH   H07 9676   3.597   3.657  -0.020 -1.5546  1.8030  0.4708
  107GLOH    O3 9677   3.674   3.717  -0.194  0.2352  0.4215  0.0193
  107GLOH   H01 9678   3.586   3.695  -0.229  1.1470 -1.9918 -0.8612
  108GLOH   H03 9679   3.103   1.800   1.448  0.9113 -1.5801  2.1478
  108GLOH    O1 9680   3.046   1.830   1.522  0.1764  0.5941  0.7463
  108GLOH    C1 9681   3.048   1.969   1.529  0.0748 -0.1415  0.2526
  108GLOH   H02 9682   3.152   2.001   1.537  0.9395 -2.9324  0.5819
  108GLOH   H08 9683   2.981   2.003   1.608 -2.4129 -1.6620 -1.1510
  108GLOH    C2 9684   2.980   2.032   1.408 -0.0963 -0.3230  0.0667
  108GLOH   H04 9685   2.958   2.140   1.412  1.5177 -0.0018  0.4331
  108GLOH    O2 9686   3.066   2.009   1.296  0.0093  0.8262 -0.3959
  108GLOH   H05 9687   3.146   2.058   1.320  0.1646 -0.0349  0.9215
  108GLOH    C3 9688   2.839   1.980   1.391  0.1135  0.0375  0.4223
  108GLOH   H06 9689   2.840   1.871   1.386 -0.2298  0.0458  0.1275
  108GLOH   H07 9690   2.799   2.017   1.297  1.7838  0.4207 -0.1514
  108GLOH    O3 9691   2.745   2.006   1.496  0.2270  0.2556 -0.4804
  108GLOH   H01 9692   2.659   2.021   1.453 -0.0387 -2.7530 -1.1290
  109GLOH   H03 9693   4.423   2.877   1.449  3.0423 -1.0530  0.9008
  109GLOH    O1 9694   4.395   2.804   1.508 -0.0768  0.1376  1.0074
  109GLOH    C1 9695   4.349   2.867   1.631  0.2056  0.3606 -0.3678
  109GLOH   H02 9696   4.303   2.964   1.611  1.4261  0.5575 -2.3320
  109GLOH   H08 9697   4.438   2.882   1.693  0.3717 -0.1906 -0.4681
  109GLOH    C2 9698   4.255   2.782   1.711  0.1682  0.3803 -0.2422
  109GLOH   H04 9699   4.311   2.691   1.739 -1.4770 -0.0884  1.6262
  109GLOH    O2 9700   4.211   2.829   1.838 -0.1194  0.1648 -0.5746
  109GLOH   H05 9701   4.165   2.756   1.883  1.3066  0.5272  1.4980
  109GLOH    C3 9702   4.135   2.737   1.623  0.0099  0.5249 -0.2230
  109GLOH   H06 9703   4.174   2.687   1.534  0.4249  0.3722  0.0478
  109GLOH   H07 9704   4.071   2.817   1.584 -0.6371  0.2965  0.3543
  109GLOH    O3 9705   4.051   2.646   1.695  0.6873  0.2820 -0.5878
  109GLOH   H01 9706   4.104   2.566   1.713 -0.4056 -0.0096  1.4997
  110GLOH   H03 9707   4.115   0.973   1.360  1.3339  0.9440  0.1084
  110GLOH    O1 9708   4.074   1.033   1.294  0.3938 -0.0020 -0.1911
  110GLOH    C1 9709   3.981   1.113   1.361  0.0528  0.1781 -0.3995
  110GLOH   H02 9710   3.959   1.192   1.290 -0.6048  1.1373  0.8546
  110GLOH   H08 9711   4.029   1.150   1.451 -1.1331 -2.3742  1.3702
  110GLOH    C2 9712   3.850   1.041   1.406  0.4892  0.4125  0.0965
  110GLOH   H04 9713   3.782   1.115   1.449 -0.5675  0.2502 -1.2732
  110GLOH    O2 9714   3.769   0.986   1.298 -0.0085 -0.1403 -0.6732
  110GLOH   H05 9715   3.683   0.958   1.333  0.7205  1.0966  2.3443
  110GLOH    C3 9716   3.880   0.931   1.512  0.6301 -0.0469 -0.5840
  110GLOH   H06 9717   3.919   0.843   1.460  1.1741  0.7629 -1.5667
  110GLOH   H07 9718   3.789   0.896   1.560  0.9764  1.8215  1.5104
  110GLOH    O3 9719   3.968   0.972   1.616 -0.2497 -0.0540  0.6633
  110GLOH   H01 9720   3.921   1.049   1.653 -2.2904 -1.4737  1.1432
  111GLOH   H03 9721   4.424   1.073   0.559 -2.3518  0.2504 -1.5146
  111GLOH    O1 9722   4.449   1.046   0.468  0.4012  0.1260 -0.7603
  111GLOH    C1 9723   4.519   1.146   0.386  0.0046  1.2517  0.2484
  111GLOH   H02 9724   4.527   1.108   0.284 -0.5286  0.4667  0.4923
  111GLOH   H08 9725   4.617   1.171   0.424  0.7527  0.7680 -1.3059
  111GLOH    C2 9726   4.442   1.280   0.386 -0.3616  0.5423  1.0608
  111GLOH   H04 9727   4.448   1.335   0.481 -0.3590  1.7413  0.3773
  111GLOH    O2 9728   4.504   1.372   0.293  0.0761  0.4555  0.5762
  111GLOH   H05 9729   4.474   1.465   0.289 -3.0992 -0.4830  1.3252
  111GLOH    C3 9730   4.293   1.264   0.332  1.3124  0.1269  0.1328
  111GLOH   H06 9731   4.304   1.200   0.245 -0.1592  2.1200 -1.5652
  111GLOH   H07 9732   4.248   1.358   0.301 -0.0737 -1.2607 -2.1740
  111GLOH    O3 9733   4.203   1.199   0.425 -0.0312 -0.7304  0.3142
  111GLOH   H01 9734   4.186   1.255   0.503  2.8669 -0.6179  0.8890
  112GLOH   H03 9735   3.242   1.913   0.743  0.9004 -0.6676 -1.1112
  112GLOH    O1 9736   3.232   1.989   0.683  0.1271 -0.0691 -0.2361
  112GLOH    C1 9737   3.274   2.118   0.731 -0.2383 -0.0650 -0.0753
  112GLOH   H02 9738   3.323   2.104   0.827 -0.5530  0.7935  0.2173
  112GLOH   H08 9739   3.193   2.189   0.749  0.4882  0.0771  2.8326
  112GLOH    C2 9740   3.387   2.175   0.651 -0.0615  0.2916  0.8195
  112GLOH   H04 9741   3.348   2.175   0.548  1.1479 -0.1360  0.3520
  112GLOH    O2 9742   3.411   2.310   0.703 -0.0139  0.5986 -0.2956
  112GLOH   H05 9743   3.424   2.302   0.799  1.0054 -3.2631 -0.6818
  112GLOH    C3 9744   3.517   2.094   0.666  0.1648 -0.7019 -0.7461
  112GLOH   H06 9745   3.586   2.163   0.619 -0.8107  0.6519 -0.2142
  112GLOH   H07 9746   3.508   2.001   0.608  0.7272  0.4792 -2.7876
  112GLOH    O3 9747   3.567   2.081   0.805 -0.1552  0.0259  0.0833
  112GLOH   H01 9748   3.650   2.030   0.806  0.5067  1.0837  2.7640
  113GLOH   H03 9749   3.793   3.146   1.929 -0.2944  1.4109 -0.0879
  113GLOH    O1 9750   3.720   3.146   1.865 -0.4256  0.2319  0.0490
  113GLOH    C1 9751   3.630   3.035   1.903 -0.2130  0.2000  0.2466
  113GLOH   H02 9752   3.540   3.033   1.841 -1.8501  1.5609  2.4664
  113GLOH   H08 9753   3.580   3.057   1.998 -1.6492 -2.1550  0.0876
  113GLOH    C2 9754   3.695   2.895   1.908  0.4672 -0.5759  0.1468
  113GLOH   H04 9755   3.777   2.905   1.981 -1.5557 -0.6003  2.4651
  113GLOH    O2 9756   3.598   2.800   1.959 -0.4411 -0.5233  0.0339
  113GLOH   H05 9757   3.590   2.811   2.055  0.2747  0.0724  0.0311
  113GLOH    C3 9758   3.755   2.835   1.775  0.1617 -0.4851 -0.0605
  113GLOH   H06 9759   3.797   2.740   1.807  0.9695  0.6934  2.5661
  113GLOH   H07 9760   3.842   2.895   1.749  1.7642 -3.4238 -1.6673
  113GLOH    O3 9761   3.663   2.829   1.661  0.1947  0.0770  0.0711
  113GLOH   H01 9762   3.651   2.738   1.627 -1.4417  0.0514  0.6414
  114GLOH   H03 9763   2.865   9.823   2.270  1.1833  1.1373 -0.2889
  114GLOH    O1 9764   2.800   9.889   2.301 -0.1882 -0.1796 -0.3024
  114GLOH    C1 9765   2.853  10.024   2.308 -0.5415  0.0937 -0.0860
  114GLOH   H02 9766   2.862  10.047   2.414 -2.1981 -0.5545  0.2026
  114GLOH   H08 9767   2.774  10.090   2.270 -0.2715  0.2388 -0.4042
  114GLOH    C2 9768   2.979  10.037   2.220  0.0254  0.5248  0.2429
  114GLOH   H04 9769   2.954  10.041   2.113 -0.9717  1.4900  0.5050
  114GLOH    O2 9770   3.044  10.164   2.253  0.4612  0.4386 -0.2023
  114GLOH   H05 9771   2.986  10.223   2.304 -2.2689 -0.7458 -1.7766
  114GLOH    C3 9772   3.083   9.928   2.247  0.2997 -0.2448 -0.4640
  114GLOH   H06 9773   3.089   9.915   2.355 -1.6480  0.2330 -0.2802
  114GLOH   H07 9774   3.183   9.949   2.210  0.3046  0.4223 -0.0828
  114GLOH    O3 9775   3.042   9.806   2.185 -0.1599  0.0326  0.3710
  114GLOH   H01 9776   3.117   9.744   2.180  0.0331  0.2647  0.3371
  115GLOH   H03 9777   4.928   3.593   1.704  1.8233 -0.2083 -0.4194
  115GLOH    O1 9778   4.910   3.672   1.651  0.4429 -0.0005  0.3287
  115GLOH    C1 9779   4.960   3.656   1.514  0.3108  0.1345  0.1566
  115GLOH   H02 9780   5.034   3.729   1.484  2.2216 -0.2809  3.5933
  115GLOH   H08 9781   4.869   3.658   1.454  0.3848 -0.6395  0.0119
  115GLOH    C2 9782   5.009   3.512   1.477  0.5029 -0.5556 -0.5233
  115GLOH   H04 9783   4.919   3.449   1.474  0.2016 -0.1961  0.6321
  115GLOH    O2 9784   5.069   3.513   1.340  0.4621 -0.6766 -0.3300
  115GLOH   H05 9785   5.103   3.422   1.334  3.0150  0.1105  1.4720
  115GLOH    C3 9786   5.108   3.469   1.586 -0.1175 -0.1497 -1.0486
  115GLOH   H06 9787   5.195   3.531   1.563  0.0127 -0.5698 -1.6903
  115GLOH   H07 9788   5.138   3.368   1.558  0.3157 -0.6002  0.9648
  115GLOH    O3 9789   5.047   3.466   1.715  0.3393  0.1369  0.0545
  115GLOH   H01 9790   5.104   3.502   1.785 -0.1201 -0.0451  0.5248
  116GLOH   H03 9791   3.796   1.723   1.079 -0.2407  0.7223  0.9468
  116GLOH    O1 9792   3.752   1.643   1.114  0.5643 -0.2725 -0.2851
  116GLOH    C1 9793   3.844   1.557   1.183  1.1711 -0.7861  0.4881
  116GLOH   H02 9794   3.907   1.618   1.249 -1.2784  1.3408  0.9539
  116GLOH   H08 9795   3.918   1.528   1.108  1.4903  0.5468  0.2740
  116GLOH    C2 9796   3.795   1.424   1.251 -0.0478 -0.1530  0.2176
  116GLOH   H04 9797   3.882   1.384   1.304  0.0483  1.1509  1.0910
  116GLOH    O2 9798   3.690   1.452   1.345  0.0889 -0.5784 -0.4328
  116GLOH   H05 9799   3.638   1.373   1.366 -1.8948  0.9566  0.5817
  116GLOH    C3 9800   3.753   1.305   1.156 -0.5312 -0.2715 -0.1007
  116GLOH   H06 9801   3.676   1.337   1.086 -1.2389  1.7180  1.5452
  116GLOH   H07 9802   3.719   1.226   1.223  0.8740 -0.2850  0.6073
  116GLOH    O3 9803   3.855   1.248   1.065  0.6056  0.2518  0.8522
  116GLOH   H01 9804   3.945   1.252   1.103  0.3752  1.5715  1.3051
  117GLOH   H03 9805   2.087   1.939   0.680 -0.6607  0.1276  0.2825
  117GLOH    O1 9806   2.107   1.948   0.775 -0.5755  0.5666  0.2264
  117GLOH    C1 9807   2.162   1.827   0.825 -0.4755 -0.1958  0.1314
  117GLOH   H02 9808   2.260   1.804   0.783  0.3819 -1.3636  2.6959
  117GLOH   H08 9809   2.098   1.741   0.809  0.7437 -0.8052 -1.6790
  117GLOH    C2 9810   2.182   1.826   0.979  0.2033 -0.1734  0.7194
  117GLOH   H04 9811   2.087   1.853   1.027  1.6166  1.0589  2.9204
  117GLOH    O2 9812   2.224   1.703   1.045 -0.3590  0.1306 -0.7754
  117GLOH   H05 9813   2.266   1.649   0.975 -2.8347  0.4825 -2.5937
  117GLOH    C3 9814   2.295   1.927   1.016 -0.4688  0.2105  0.7072
  117GLOH   H06 9815   2.280   2.017   0.957 -0.3995 -0.4902 -0.4079
  117GLOH   H07 9816   2.388   1.893   0.970 -0.4345  3.6998 -1.9397
  117GLOH    O3 9817   2.307   1.932   1.161  0.7377 -0.0556  0.1200
  117GLOH   H01 9818   2.318   1.838   1.186 -1.1523 -0.3818 -0.2505
  118GLOH   H03 9819   4.268   0.549   0.662 -0.5212 -0.8364  0.2888
  118GLOH    O1 9820   4.249   0.622   0.600 -0.1192 -0.6830  0.3462
  118GLOH    C1 9821   4.240   0.570   0.464 -0.3983  0.1022 -0.0470
  118GLOH   H02 9822   4.172   0.485   0.458  0.8027 -0.8409 -0.4160
  118GLOH   H08 9823   4.339   0.545   0.427 -0.5765  2.0358 -1.9023
  118GLOH    C2 9824   4.196   0.680   0.369 -0.1949 -0.5435  0.7523
  118GLOH   H04 9825   4.223   0.642   0.270  2.6612 -1.4377  1.8212
  118GLOH    O2 9826   4.056   0.716   0.369  0.3154  1.0214 -0.5055
  118GLOH   H05 9827   4.004   0.635   0.363  0.4684  0.9117 -0.3471
  118GLOH    C3 9828   4.280   0.807   0.389  0.0625  0.3127  0.3489
  118GLOH   H06 9829   4.384   0.776   0.382 -0.2581 -0.5906 -0.6622
  118GLOH   H07 9830   4.260   0.830   0.493 -2.3874 -0.0309 -0.0164
  118GLOH    O3 9831   4.257   0.924   0.311 -0.8592  0.1816  0.0549
  118GLOH   H01 9832   4.314   0.989   0.357 -0.1407 -0.9606  0.7809
  119GLOH   H03 9833   4.192   1.721   0.535  0.3935  0.0773 -1.5227
  119GLOH    O1 9834   4.281   1.682   0.541  0.2404  0.0193  0.6454
  119GLOH    C1 9835   4.368   1.783   0.591 -0.2242 -0.1996  0.2434
  119GLOH   H02 9836   4.309   1.833   0.669 -0.5823 -3.8136  2.3754
  119GLOH   H08 9837   4.389   1.856   0.513 -1.5836 -0.2976 -0.2289
  119GLOH    C2 9838   4.497   1.743   0.662  0.0478  1.1091 -0.7741
  119GLOH   H04 9839   4.570   1.825   0.658  1.7369 -0.3870 -1.3158
  119GLOH    O2 9840   4.488   1.710   0.804  0.0776  0.2627 -0.4702
  119GLOH   H05 9841   4.570   1.677   0.845 -0.9048 -0.8892  0.6027
  119GLOH    C3 9842   4.547   1.622   0.585 -0.2759  0.3821  0.1944
  119GLOH   H06 9843   4.477   1.549   0.544  1.6926 -1.3032 -0.2711
  119GLOH   H07 9844   4.615   1.566   0.651 -0.9201  0.0774  0.6063
  119GLOH    O3 9845   4.614   1.668   0.471  0.4442 -0.0000  0.2682
  119GLOH   H01 9846   4.548   1.684   0.401  0.0331  0.2466  0.7112
  120GLOH   H03 9847   3.184   3.853   1.046 -1.8576  0.6396  0.3928
  120GLOH    O1 9848   3.166   3.856   0.950 -0.3424 -0.3937  0.0512
  120GLOH    C1 9849   3.141   3.993   0.907 -0.3008 -0.6784 -0.3358
  120GLOH   H02 9850   3.198   4.061   0.970  0.3006 -2.2850  0.8919
  120GLOH   H08 9851   3.037   4.024   0.917 -0.3026 -1.1004  1.0578
  120GLOH    C2 9852   3.177   4.022   0.762  0.3153  0.0482 -0.3517
  120GLOH   H04 9853   3.140   4.123   0.741  1.1102  0.1887 -1.1162
  120GLOH    O2 9854   3.322   4.015   0.741  0.5727 -0.1029  0.3819
  120GLOH   H05 9855   3.352   3.922   0.740 -1.3171 -0.7428 -1.5050
  120GLOH    C3 9856   3.119   3.938   0.648  0.0538 -0.4304  0.0667
  120GLOH   H06 9857   3.160   3.838   0.665  1.0700  0.0172  0.3124
  120GLOH   H07 9858   3.169   3.977   0.559  0.4465  1.9203  1.2898
  120GLOH    O3 9859   2.978   3.939   0.622  0.4230  0.2189 -0.2002
  120GLOH   H01 9860   2.960   3.974   0.533 -1.4740 -1.1698 -0.3953
  121ACOH    H4 9861   2.218   9.909   1.042  1.7928 -0.4123  1.0527
  121ACOH    O2 9862   2.241   9.839   0.979  0.0733 -0.2672  0.2319
  121ACOH    C2 9863   2.346   9.887   0.904 -0.5887 -0.2644  0.9771
  121ACOH    O1 9864   2.359  10.003   0.873  0.1644 -0.1245  0.1110
  121ACOH    C1 9865   2.401   9.786   0.812 -0.6081 -0.1088  0.6996
  121ACOH    H1 9866   2.510   9.795   0.805 -0.9227  3.6671 -0.6984
  121ACOH    H2 9867   2.360   9.788   0.712  1.5680  0.9838 -0.2070
  121ACOH    H3 9868   2.382   9.686   0.852  2.8331 -1.4461 -0.8047
  122ACOH    H4 9869   3.460   8.919   0.174  0.3389  0.5402  1.0460
  122ACOH    O2 9870   3.556   8.916   0.160  0.1553  0.1051 -0.1782
  122ACOH    C2 9871   3.593   8.805   0.227  0.0967 -0.4313 -0.2521
  122ACOH    O1 9872   3.540   8.741   0.320 -0.4515  0.3977  0.2222
  122ACOH    C1 9873   3.730   8.779   0.188  0.2077  0.3929  0.0661
  122ACOH    H1 9874   3.787   8.870   0.209 -1.0604  1.3414 -0.5530
  122ACOH    H2 9875   3.741   8.758   0.082 -0.4969  1.6197 -0.2603
  122ACOH    H3 9876   3.780   8.701   0.245  3.1290  1.6881 -0.6121
  123ACOH    H4 9877   5.094   3.080   1.533 -0.2494  2.6639 -1.7714
  123ACOH    O2 9878   5.125   3.141   1.603  0.5083  0.1980  0.1212
  123ACOH    C2 9879   5.127   3.070   1.714  0.4406  0.0341 -0.7677
  123ACOH    O1 9880   5.061   2.967   1.729 -0.4183  0.0210  0.2049
  123ACOH    C1 9881   5.187   3.150   1.823 -0.2006  0.4232  0.0186
  123ACOH    H1 9882   5.244   3.231   1.776 -0.0891 -0.4406 -1.3401
  123ACOH    H2 9883   5.261   3.086   1.870 -0.3163 -0.1035 -0.5240
  123ACOH    H3 9884   5.116   3.182   1.900 -0.4109 -1.3037  0.5511
  124ACOH    H4 9885   5.965   0.380   1.547  0.2900  0.1284  0.7284
  124ACOH    O2 9886   5.939   0.328   1.625 -0.3104 -0.1811  0.3268
  124ACOH    C2 9887   6.001   0.355   1.737  0.4529 -0.7897  0.5919
  124ACOH    O1 9888   6.091   0.431   1.746  0.3047 -0.0373 -0.3957
  124ACOH    C1 9889   5.939   0.269   1.844  0.3039 -0.3682  0.1409
  124ACOH    H1 9890   6.010   0.189   1.865 -1.0899 -2.0079 -1.1522
  124ACOH    H2 9891   5.837   0.242   1.815 -0.2600  1.3596  0.4373
  124ACOH    H3 9892   5.930   0.331   1.933 -1.1811 -0.5059  0.1112
  125ACOH    H4 9893   4.304   2.336   2.520  0.4459 -0.5676 -0.4169
  125ACOH    O2 9894   4.289   2.346   2.616  0.3506  0.2273 -0.5175
  125ACOH    C2 9895   4.402   2.387   2.679  0.2046 -0.9201  0.0897
  125ACOH    O1 9896   4.515   2.369   2.649  0.8826 -0.3094 -0.5127
  125ACOH    C1 9897   4.377   2.446   2.813  0.1148  0.4435 -0.3899
  125ACOH    H1 9898   4.281   2.495   2.827 -1.1556 -2.8913  3.6288
  125ACOH    H2 9899   4.450   2.525   2.833  1.4868 -1.3541  1.9320
  125ACOH    H3 9900   4.383   2.374   2.895 -0.0273  0.4506 -0.3725
  126ACOH    H4 9901   3.918   8.842   0.814 -1.4013  0.2817 -2.1373
  126ACOH    O2 9902   3.999   8.876   0.773  0.0330 -0.0456  0.3083
  126ACOH    C2 9903   3.968   8.951   0.667  0.4041 -0.5779 -0.3675
  126ACOH    O1 9904   3.858   8.951   0.622 -0.1831 -0.4150 -0.8674
  126ACOH    C1 9905   4.083   9.030   0.609 -0.2226 -0.0866  0.2743
  126ACOH    H1 9906   4.170   9.013   0.673 -0.6471  0.0691  0.8964
  126ACOH    H2 9907   4.069   9.138   0.609 -2.0437 -0.3101  1.2303
  126ACOH    H3 9908   4.102   8.996   0.507 -1.0498 -3.5113  1.1874
  127ACOH    H4 9909   4.952   4.322   0.341  0.1732 -0.2752 -0.0570
  127ACOH    O2 9910   5.048   4.312   0.327  0.2080 -0.0684  0.0304
  127ACOH    C2 9911   5.115   4.282   0.439  0.2625  0.5411 -0.5924
  127ACOH    O1 9912   5.067   4.251   0.545 -0.6442 -0.3588 -0.2233
  127ACOH    C1 9913   5.262   4.286   0.408 -0.3163  0.4649  0.2811
  127ACOH    H1 9914   5.322   4.259   0.495  1.1394  1.6607 -0.3386
  127ACOH    H2 9915   5.294   4.385   0.375 -1.5631  1.4435  1.8923
  127ACOH    H3 9916   5.286   4.205   0.340 -0.1249  0.4458  0.3720
  128ACOH    H4 9917   4.360   3.099   0.482  0.7243  0.9085 -1.2220
  128ACOH    O2 9918   4.389   3.041   0.409  0.1688 -0.4708 -0.3798
  128ACOH    C2 9919   4.295   2.952   0.390 -0.3820 -0.3069 -0.0316
  128ACOH    O1 9920   4.202   2.925   0.463  0.2063  0.1439 -0.3131
  128ACOH    C1 9921   4.312   2.863   0.271 -0.1323  0.3610  0.6744
  128ACOH    H1 9922   4.400   2.894   0.214  0.5522 -2.2242  0.2509
  128ACOH    H2 9923   4.223   2.869   0.209  0.8250  0.9169 -0.6635
  128ACOH    H3 9924   4.323   2.760   0.304  0.0964 -0.0011 -0.5095
  129ACOH    H4 9925   4.724   1.766   1.429 -0.4955  1.6920 -1.5920
  129ACOH    O2 9926   4.772   1.721   1.357  0.0351 -0.0231 -0.2128
  129ACOH    C2 9927   4.863   1.807   1.311 -0.1182 -0.0288  0.1281
  129ACOH    O1 9928   4.881   1.919   1.351  0.0649  0.7298 -0.6932
  129ACOH    C1 9929   4.936   1.763   1.192 -0.5493 -0.4746  0.0780
  129ACOH    H1 9930   5.027   1.709   1.217  0.5830  0.2536 -2.3397
  129ACOH    H2 9931   4.965   1.842   1.123 -3.4538  0.9156  0.3509
  129ACOH    H3 9932   4.874   1.689   1.140  2.6748 -2.2839 -1.3641
  130ACOH    H4 9933   4.651   3.943   0.011  0.0224 -1.1127 -0.4844
  130ACOH    O2 9934   4.682   3.908   0.097 -0.0853 -0.3739 -0.1466
  130ACOH    C2 9935   4.727   4.016   0.168 -0.3907 -0.3635  0.1169
  130ACOH    O1 9936   4.721   4.131   0.130 -0.0658  0.0091  0.5044
  130ACOH    C1 9937   4.795   3.985   0.297  0.0247  0.2088 -0.3710
  130ACOH    H1 9938   4.778   3.879   0.319  0.5456  0.5312  1.6607
  130ACOH    H2 9939   4.753   4.047   0.376 -1.4426  2.0979 -2.5752
  130ACOH    H3 9940   4.902   3.995   0.278  0.3602 -1.1231  0.7160
  131ACOH    H4 9941   4.197   3.112   0.034  1.8845 -0.4758 -0.6955
  131ACOH    O2 9942   4.216   3.197   0.077  0.5752 -0.2372 -0.5698
  131ACOH    C2 9943   4.139   3.227   0.183  0.6047 -0.0431 -0.5050
  131ACOH    O1 9944   4.118   3.334   0.238 -0.3729 -0.1865  0.5479
  131ACOH    C1 9945   4.050   3.113   0.216 -0.3251 -0.0821  0.2388
  131ACOH    H1 9946   3.951   3.155   0.195 -1.5127 -2.9457 -0.0334
  131ACOH    H2 9947   4.061   3.097   0.323 -1.3293 -0.1906  0.3341
  131ACOH    H3 9948   4.065   3.024   0.156 -0.3640 -1.2085  1.8829
  132ACOH    H4 9949   3.736   9.631   2.530  0.0684  0.5695 -0.9356
  132ACOH    O2 9950   3.797   9.562   2.561 -0.3199  0.6431 -0.0169
  132ACOH    C2 9951   3.796   9.463   2.470 -0.1365  0.1380  0.5197
  132ACOH    O1 9952   3.767   9.475   2.354 -0.3609  0.0744 -0.3727
  132ACOH    C1 9953   3.842   9.330   2.518  0.2314  0.0192  0.0256
  132ACOH    H1 9954   3.851   9.262   2.434  1.4898 -1.0768  1.0111
  132ACOH    H2 9955   3.757   9.295   2.576 -0.0563  0.0145 -0.4004
  132ACOH    H3 9956   3.938   9.331   2.571  0.3115 -1.8483 -0.0690
  133ACOH    H4 9957   3.685   4.443   1.697  0.6412  0.2183 -0.2964
  133ACOH    O2 9958   3.650   4.380   1.633  0.3780  0.1785 -0.1144
  133ACOH    C2 9959   3.621   4.261   1.702  0.1113  0.3468 -0.2531
  133ACOH    O1 9960   3.591   4.247   1.821 -0.3658  0.4141 -0.1043
  133ACOH    C1 9961   3.599   4.147   1.614 -0.2260 -0.2503 -0.5871
  133ACOH    H1 9962   3.694   4.125   1.566  0.3746  0.7089  0.1541
  133ACOH    H2 9963   3.523   4.183   1.545 -1.2068  0.4668  0.8459
  133ACOH    H3 9964   3.563   4.057   1.665 -0.0337 -0.5160 -0.9183
  134ACOH    H4 9965   2.877   9.365   2.044  0.2040  0.6360  0.2431
  134ACOH    O2 9966   2.793   9.349   1.998  0.2721  0.5996  0.1313
  134ACOH    C2 9967   2.797   9.220   1.961  0.0080 -0.4590  0.0617
  134ACOH    O1 9968   2.821   9.127   2.039 -0.3519 -0.0972  0.4839
  134ACOH    C1 9969   2.737   9.205   1.826 -0.1666  0.5164 -0.4667
  134ACOH    H1 9970   2.729   9.098   1.807 -1.5412  0.6113 -0.4258
  134ACOH    H2 9971   2.805   9.249   1.753  0.5974 -1.5955 -1.0627
  134ACOH    H3 9972   2.639   9.251   1.820 -1.3218 -1.5249  1.9840
  135ACOH    H4 9973   4.593   2.286   0.393 -0.8720 -2.9459  2.8849
  135ACOH    O2 9974   4.636   2.214   0.345 -0.0640 -0.4705 -0.3224
  135ACOH    C2 9975   4.591   2.103   0.409 -0.5164 -0.3385 -0.0821
  135ACOH    O1 9976   4.517   2.102   0.504  1.0340 -0.1073  0.3175
  135ACOH    C1 9977   4.652   1.978   0.355  0.2774 -0.8439  0.0063
  135ACOH    H1 9978   4.724   1.988   0.274 -1.8912 -1.8106 -2.1237
  135ACOH    H2 9979   4.568   1.914   0.327 -0.4228 -0.3176  0.8660
  135ACOH    H3 9980   4.709   1.925   0.431 -0.0729  0.7174  1.3852
  136ACOH    H4 9981   3.455   8.703  -0.082  0.2005 -0.0368 -0.2887
  136ACOH    O2 9982   3.480   8.650  -0.004 -0.0558  0.0741 -0.1312
  136ACOH    C2 9983   3.367   8.616   0.061  0.1805  0.0239 -0.2053
  136ACOH    O1 9984   3.272   8.691   0.077  0.4259 -0.3411 -0.0847
  136ACOH    C1 9985   3.384   8.482   0.126  0.5786 -0.4908 -0.0383
  136ACOH    H1 9986   3.307   8.406   0.113 -0.8309  0.5819  1.8742
  136ACOH    H2 9987   3.392   8.507   0.232  0.2728  1.0530 -0.3761
  136ACOH    H3 9988   3.479   8.445   0.088  0.1295 -0.6203 -1.0421
  137ACOH    H4 9989   5.125   3.759   2.006 -2.3042  1.2095 -3.6343
  137ACOH    O2 9990   5.202   3.787   1.954  0.4744  0.0393 -0.3965
  137ACOH    C2 9991   5.271   3.682   1.918 -0.0432 -0.2642 -0.4657
  137ACOH    O1 9992   5.222   3.579   1.876  0.5396 -0.2951 -0.5011
  137ACOH    C1 9993   5.413   3.720   1.913  0.7904 -0.1285  0.3982
  137ACOH    H1 9994   5.458   3.628   1.877  0.1147 -0.1019 -0.5566
  137ACOH    H2 9995   5.457   3.739   2.011 -2.1789 -0.2115  1.8067
  137ACOH    H3 9996   5.431   3.801   1.842  0.1025 -0.4560 -0.1556
  138ACOH    H4 9997   4.702   4.044   2.342  0.7500 -0.6672 -1.8177
  138ACOH    O2 9998   4.782   4.086   2.377 -0.6543  0.3253  0.3359
  138ACOH    C2 9999   4.748   4.210   2.419 -0.6933  0.1719  0.5496
  138ACOH    O110000   4.651   4.274   2.390  0.6797  0.4636  0.0631
  138ACOH    C110001   4.855   4.267   2.505 -0.1468  0.9208  0.2080
  138ACOH    H110002   4.939   4.199   2.517 -2.8501 -2.2209  1.9931
  138ACOH    H210003   4.817   4.302   2.601  1.9296  0.0760  1.3560
  138ACOH    H310004   4.897   4.356   2.457  2.2636 -0.6349 -0.6360
  139ACOH    H410005   3.440   8.617   1.788 -0.2849  1.0533  0.5744
  139ACOH    O210006   3.466   8.588   1.877  0.0469  0.1298  0.1871
  139ACOH    C210007   3.352   8.590   1.945 -0.6580 -0.4325 -0.5223
  139ACOH    O110008   3.246   8.651   1.930 -0.6685  0.0935  0.3121
  139ACOH    C110009   3.365   8.522   2.073 -0.6312 -0.0887 -0.0324
  139ACOH    H110010   3.300   8.434   2.076 -0.2342 -0.3776  0.1746
  139ACOH    H210011   3.329   8.592   2.147  0.6947  0.6754 -0.1058
  139ACOH    H310012   3.466   8.496   2.104  0.6333  2.2022 -2.0009
  140ACOH    H410013   2.193   0.525   0.371 -0.7293 -0.2470 -0.2928
  140ACOH    O210014   2.144   0.567   0.298 -0.0744  0.3663 -0.3874
  140ACOH    C210015   2.199   0.681   0.273 -0.5040 -0.1173 -0.1941
  140ACOH    O110016   2.281   0.741   0.342 -0.5087 -0.8676 -0.3889
  140ACOH    C110017   2.150   0.741   0.145  0.1778  0.1196  0.3832
  140ACOH    H110018   2.047   0.773   0.165  0.5432  0.9439  0.9714
  140ACOH    H210019   2.157   0.661   0.072  0.0228  0.2347  0.2412
  140ACOH    H310020   2.199   0.832   0.111  0.1537 -0.4740 -1.2752
  141ACOH    H410021   2.222   2.802   0.608 -2.1221 -2.0687  0.5425
  141ACOH    O210022   2.178   2.875   0.654 -0.4314 -0.4149 -0.4344
  141ACOH    C210023   2.124   2.834   0.770 -0.2021  0.5788 -0.2617
  141ACOH    O110024   2.138   2.721   0.806 -0.0771 -0.0542 -0.0683
  141ACOH    C110025   2.030   2.932   0.822  0.8453 -0.0166 -0.7227
  141ACOH    H110026   1.958   2.890   0.891 -0.1010  2.3791 -0.2039
  141ACOH    H210027   1.979   2.986   0.742  0.6972 -3.1266 -2.8103
  141ACOH    H310028   2.085   3.011   0.874 -1.6275  1.6089 -0.4678
  142ACOH    H410029   4.203   4.676   0.596  1.8618  1.9330 -0.0984
  142ACOH    O210030   4.163   4.737   0.532 -0.0707  0.6143 -0.1811
  142ACOH    C210031   4.193   4.689   0.406  0.3004 -0.9723 -0.2703
  142ACOH    O110032   4.276   4.602   0.395 -0.8919 -0.4380 -0.0746
  142ACOH    C110033   4.116   4.747   0.300 -0.1165 -0.0511  0.6840
  142ACOH    H110034   4.098   4.854   0.296  0.3219 -0.0519 -1.5443
  142ACOH    H210035   4.022   4.691   0.292 -0.7661  1.2150 -0.7075
  142ACOH    H310036   4.166   4.730   0.205 -0.0525  0.1206  0.6864
  143ACOH    H410037   4.670   4.356   0.890 -1.8750 -0.0621  0.5791
  143ACOH    O210038   4.687   4.399   0.976 -0.1752  0.2473  0.0953
  143ACOH    C210039   4.659   4.530   0.959  0.6567 -0.3839  0.3387
  143ACOH    O110040   4.573   4.568   0.879 -0.7348 -0.1478 -0.9618
  143ACOH    C110041   4.714   4.614   1.066  0.4835 -0.0184 -0.4368
  143ACOH    H110042   4.633   4.676   1.105 -0.8635 -1.5025 -0.7997
  143ACOH    H210043   4.797   4.679   1.039  0.6029  0.3754  0.8678
  143ACOH    H310044   4.749   4.567   1.158  0.9776  3.1666  1.0741
  144ACOH    H410045   2.130   3.353   2.272  0.3446  0.1295  0.9771
  144ACOH    O210046   2.084   3.274   2.305 -0.0088 -0.0144  0.1510
  144ACOH    C210047   2.150   3.200   2.398 -0.1293  0.0998  1.1112
  144ACOH    O110048   2.239   3.238   2.466  0.4956 -0.3795 -0.1527
  144ACOH    C110049   2.083   3.067   2.406  0.1005  0.2157  0.9702
  144ACOH    H110050   2.081   3.019   2.308 -1.2794  1.0863  0.5642
  144ACOH    H210051   1.982   3.079   2.444 -0.6861  0.8698 -1.2785
  144ACOH    H310052   2.129   2.999   2.479 -0.4882 -4.7411 -2.9736
  145ACOH    H410053   3.832   4.465   0.973 -1.9206  1.7443 -0.4504
  145ACOH    O210054   3.899   4.519   0.929  0.5112 -0.3553  0.5190
  145ACOH    C210055   3.876   4.649   0.908  1.1931  0.3281 -0.6240
  145ACOH    O110056   3.770   4.705   0.935 -0.2063  0.1579 -0.5620
  145ACOH    C110057   3.987   4.709   0.831  0.0691 -0.0791  0.6157
  145ACOH    H110058   4.026   4.624   0.775 -0.3529 -1.9221  3.0115
  145ACOH    H210059   4.062   4.740   0.904  0.3620 -0.6528  0.5594
  145ACOH    H310060   3.966   4.798   0.772  1.8422 -0.1886 -0.2250
  146ACOH    H410061   3.842   0.433   0.487  0.0892  0.9535 -0.2734
  146ACOH    O210062   3.778   0.422   0.414  0.6537  0.0577 -0.6394
  146ACOH    C210063   3.852   0.412   0.298 -0.7257  0.3114  0.1507
  146ACOH    O110064   3.967   0.450   0.277  0.2618 -0.3166  0.2652
  146ACOH    C110065   3.754   0.359   0.193  0.1759 -0.0038 -0.0790
  146ACOH    H110066   3.668   0.423   0.176  0.3593  0.0929 -0.6503
  146ACOH    H210067   3.712   0.270   0.239  1.0630  0.8720  2.5340
  146ACOH    H310068   3.800   0.332   0.098 -0.6677 -0.5354 -0.3396
  147ACOH    H410069   4.937   2.862   1.255 -0.6032 -1.2749  0.8071
  147ACOH    O210070   5.026   2.850   1.218 -0.5080 -0.6715  0.8468
  147ACOH    C210071   5.115   2.931   1.279  0.6433 -0.5846  0.2957
  147ACOH    O110072   5.081   2.998   1.375 -0.1027  0.0733 -0.5408
  147ACOH    C110073   5.253   2.907   1.226  0.5146  0.0523 -0.1447
  147ACOH    H110074   5.292   3.000   1.185  0.5487  0.3944  0.6585
  147ACOH    H210075   5.242   2.838   1.142 -0.6687 -0.8274  0.7128
  147ACOH    H310076   5.329   2.865   1.292  1.9744 -0.4733 -2.0916
  148ACOH    H410077   4.750   3.576   0.453  3.2686  3.2500 -0.5757
  148ACOH    O210078   4.795   3.500   0.412 -0.1732  0.7084  0.1894
  148ACOH    C210079   4.802   3.506   0.277 -0.3907  0.3969 -0.5626
  148ACOH    O110080   4.724   3.566   0.205  0.0215 -0.0413 -0.7522
  148ACOH    C110081   4.907   3.411   0.220 -0.6133 -0.1380  0.5463
  148ACOH    H110082   4.993   3.404   0.287  0.6411 -2.6055 -1.2266
  148ACOH    H210083   4.934   3.429   0.116  0.7540 -3.1330  0.3205
  148ACOH    H310084   4.869   3.309   0.214  0.4363 -0.5481  0.6944
  149ACOH    H410085   2.853   9.227   1.023 -1.1455  0.0862 -0.9019
  149ACOH    O210086   2.824   9.137   1.048  0.1391 -0.1825 -0.3081
  149ACOH    C210087   2.713   9.134   1.123  0.1408  0.2598  0.4945
  149ACOH    O110088   2.637   9.229   1.144  0.0492 -0.5474  0.2749
  149ACOH    C110089   2.714   8.999   1.179 -0.1629 -0.5434  0.4526
  149ACOH    H110090   2.779   8.929   1.126  0.2760 -0.0476  0.3323
  149ACOH    H210091   2.612   8.961   1.171 -0.3107  0.0258 -0.4149
  149ACOH    H310092   2.755   8.994   1.280  2.2745 -0.5558 -0.5110
  150ACOH    H410093   4.819   1.847   0.917 -0.5854 -0.5455 -0.0847
  150ACOH    O210094   4.894   1.799   0.880 -0.5502 -0.2473 -0.4030
  150ACOH    C210095   4.847   1.673   0.862  1.1553 -0.2121  0.3631
  150ACOH    O110096   4.737   1.629   0.893  0.0038 -0.8629 -0.5127
  150ACOH    C110097   4.953   1.589   0.811  0.1826  0.0964  0.3707
  150ACOH    H110098   5.034   1.648   0.769 -0.2341  0.1674 -0.3466
  150ACOH    H210099   4.909   1.518   0.740 -0.3096  0.7693 -0.0017
  150ACOH    H310100   4.986   1.530   0.896  1.1328  0.5625  0.3328
  151ACOH    H410101   1.951   1.764   1.861  0.6388  0.5868  1.6894
  151ACOH    O210102   1.920   1.730   1.947 -0.5779 -0.3144  0.9012
  151ACOH    C210103   1.944   1.598   1.946 -0.3230 -0.4060  0.3605
  151ACOH    O110104   2.022   1.535   1.874 -0.1354  0.0125  0.0695
  151ACOH    C110105   1.880   1.543   2.068  0.0634  0.0362 -0.1927
  151ACOH    H110106   1.915   1.441   2.083  0.5177 -0.1135 -2.1464
  151ACOH    H210107   1.772   1.538   2.058  0.0227  1.4503 -0.6905
  151ACOH    H310108   1.912   1.607   2.150 -0.6998  0.8892 -0.5473
  152ACOH    H410109   4.340   4.549   1.230 -0.6700 -0.5531 -2.0908
  152ACOH    O210110   4.351   4.646   1.228  0.4474 -0.5988  0.6149
  152ACOH    C210111   4.232   4.702   1.202  0.1222 -0.0886  0.0065
  152ACOH    O110112   4.140   4.652   1.143  0.4689 -0.1346 -0.7228
  152ACOH    C110113   4.217   4.832   1.276 -0.7124  0.1733 -0.0725
  152ACOH    H110114   4.314   4.860   1.318 -1.0382 -0.5321  1.2046
  152ACOH    H210115   4.156   4.820   1.366 -0.7973 -4.1692 -0.6005
  152ACOH    H310116   4.167   4.913   1.222 -1.4421 -0.9994 -1.1877
  153ACOH    H410117   2.360   2.856   1.489 -1.6226  1.1740 -0.4750
  153ACOH    O210118   2.302   2.790   1.530 -0.1055  0.0399 -0.1118
  153ACOH    C210119   2.242   2.719   1.432 -0.0212 -0.0460 -0.0710
  153ACOH    O110120   2.264   2.741   1.316 -0.4989  0.1816 -0.4098
  153ACOH    C110121   2.134   2.625   1.476 -0.4476 -0.1265  0.0381
  153ACOH    H110122   2.054   2.688   1.514  0.9636 -0.0576  3.0439
  153ACOH    H210123   2.164   2.555   1.555 -0.3915  0.1557  0.2692
  153ACOH    H310124   2.095   2.567   1.393  0.7342 -2.6385  1.1637
  154ACOH    H410125   3.181   8.687   0.637 -0.6942 -1.7128  2.2423
  154ACOH    O210126   3.229   8.615   0.594 -0.1696  0.1088 -0.3089
  154ACOH    C210127   3.267   8.539   0.694 -0.5119  0.5640  0.4057
  154ACOH    O110128   3.228   8.545   0.809 -0.0535 -0.3182  0.2428
  154ACOH    C110129   3.369   8.439   0.659  0.2484 -0.2409 -0.0989
  154ACOH    H110130   3.457   8.453   0.722 -1.5102  2.8149  1.8217
  154ACOH    H210131   3.393   8.466   0.556 -0.7762  0.6848 -0.1020
  154ACOH    H310132   3.329   8.338   0.663 -1.8574  0.4644 -2.1634
  155SOL     OW10133   3.301   0.801   1.535 -0.1368 -0.0133  0.1792
  155SOL    HW110134   3.202   0.801   1.544 -0.0242  0.3440  1.6658
  155SOL    HW210135   3.335   0.707   1.530 -0.7107 -0.0885 -2.4977
  156SOL     OW10136   3.984   1.785   0.298  0.3018 -0.4356  0.4853
  156SOL    HW110137   4.075   1.750   0.275  0.5417  0.7021 -0.3139
  156SOL    HW210138   3.935   1.810   0.215  0.9794  3.2237  1.1288
  157SOL     OW10139   2.223   3.467   2.225  0.2758  0.1817  0.3164
  157SOL    HW110140   2.314   3.477   2.267 -0.1356  2.4261  0.7258
  157SOL    HW210141   2.201   3.549   2.174 -2.6772  0.8213  2.5000
  158SOL     OW10142   3.256   9.302   2.357  0.1560  0.3820 -0.0774
  158SOL    HW110143   3.269   9.299   2.258  1.1494  1.9364 -0.0013
  158SOL    HW210144   3.213   9.388   2.383  0.2073  0.1192  0.8907
  159SOL     OW10145   3.587   3.812   0.260  0.2348  0.3052  0.6968
  159SOL    HW110146   3.573   3.738   0.326  0.3518  1.3287  1.9000
  159SOL    HW210147   3.499   3.838   0.221 -0.1504  1.1069  2.0407
  160SOL     OW10148   3.741   9.467   0.385 -0.5606  0.0866 -0.2131
  160SOL    HW110149   3.759   9.472   0.286  0.5154 -0.0380 -0.0326
  160SOL    HW210150   3.643   9.477   0.402 -0.9892 -1.8783 -1.4296
  161SOL     OW10151   4.033   0.838   2.261  0.3861 -0.6807 -0.3947
  161SOL    HW110152   4.089   0.871   2.186 -1.2936  1.3984 -0.7904
  161SOL    HW210153   4.053   0.891   2.344  0.0919 -0.9525 -0.1476
  162SOL     OW10154   2.301   2.442   0.445 -0.9066  0.3721 -0.3105
  162SOL    HW110155   2.325   2.449   0.542 -1.5294  0.0109 -0.1286
  162SOL    HW210156   2.256   2.526   0.416  1.2411  1.3679 -0.8491
  163SOL     OW10157   2.228   0.259   1.160 -0.0424  0.3342  0.2299
  163SOL    HW110158   2.233   0.342   1.104  0.8612  0.3297  0.2920
  163SOL    HW210159   2.289   0.269   1.238  1.2801 -1.0293 -0.6212
  164SOL     OW10160   3.361   3.238   0.280  0.0193 -0.3792  0.2563
  164SOL    HW110161   3.443   3.180   0.277  0.7091  0.5590  0.5832
  164SOL    HW210162   3.385   3.326   0.320 -0.6558  0.7299 -1.7238
  165SOL     OW10163   3.733   4.330   1.027 -0.2558  0.1106 -0.1264
  165SOL    HW110164   3.780   4.313   1.114 -0.6654  0.8672  0.2510
  165SOL    HW210165   3.634   4.335   1.044 -0.4437 -1.0499 -0.8460
  166SOL     OW10166   3.101   8.535   1.541  0.4077 -0.1741  0.4359
  166SOL    HW110167   3.024   8.502   1.595  1.3759  0.2234  2.1022
  166SOL    HW210168   3.089   8.632   1.520  2.0438  0.7861  3.6440
  167SOL     OW10169   3.030   1.780   2.693 -0.5946 -0.6092 -0.1206
  167SOL    HW110170   2.937   1.817   2.687  0.4311  1.6859 -2.1965
  167SOL    HW210171   3.050   1.758   2.788 -2.6222  0.5211  0.6084
  168SOL     OW10172   1.967   1.810   1.690  0.1660  0.7502  0.0163
  168SOL    HW110173   2.047   1.851   1.645  0.8844 -0.4220  0.1911
  168SOL    HW210174   1.904   1.775   1.621  0.9191 -0.3887 -0.1186
  169SOL     OW10175   3.143   3.181   0.413 -0.6830 -0.1402 -0.1868
  169SOL    HW110176   3.217   3.216   0.356 -0.0028 -0.3171  0.5724
  169SOL    HW210177   3.143   3.230   0.501  0.0696 -1.7717  0.7582
  170SOL     OW10178   3.426   2.675   1.016  0.2596  0.1522  0.5166
  170SOL    HW110179   3.345   2.620   1.039 -0.9701  0.5553 -2.6005
  170SOL    HW210180   3.397   2.767   0.990  1.9543  0.9661  1.4132
  171SOL     OW10181   2.440   0.503   1.356 -0.3393 -0.1811  0.0980
  171SOL    HW110182   2.507   0.431   1.376  0.2247  0.2999 -0.0671
  171SOL    HW210183   2.445   0.574   1.427 -0.7275 -0.1825  0.1278
  172SOL     OW10184   2.665   0.291   0.654  0.3634 -0.6064  0.3921
  172SOL    HW110185   2.659   0.196   0.621 -0.8096 -0.4754  0.1812
  172SOL    HW210186   2.674   0.352   0.576 -2.3348 -0.3008  0.2785
  173SOL     OW10187   3.322   3.115   2.076 -0.7921  0.0025 -0.1853
  173SOL    HW110188   3.327   3.115   1.976  1.0113  1.5225 -0.1189
  173SOL    HW210189   3.237   3.159   2.105 -0.7925  0.5655 -1.0256
  174SOL     OW10190   2.294   0.549   1.116 -0.2357 -0.0800 -0.6484
  174SOL    HW110191   2.240   0.631   1.137 -0.6066  0.1273 -2.3629
  174SOL    HW210192   2.343   0.520   1.198  0.2392  2.1074 -0.1256
  175SOL     OW10193   4.363   2.010   1.995 -0.0999 -0.7084 -0.4850
  175SOL    HW110194   4.327   1.920   1.971  2.6088 -1.8690 -0.4084
  175SOL    HW210195   4.397   2.055   1.913  0.8310 -0.8134 -0.1581
  176SOL     OW10196   2.392   1.299   0.776 -1.0699 -0.1887  0.8198
  176SOL    HW110197   2.338   1.216   0.761 -0.5874 -0.0600 -1.7808
  176SOL    HW210198   2.488   1.280   0.754 -1.2108  1.4592 -1.3619
  177SOL     OW10199   3.558   3.351   1.236 -0.5981 -0.2039 -0.0282
  177SOL    HW110200   3.532   3.334   1.331 -1.7463  1.6061  0.0104
  177SOL    HW210201   3.488   3.313   1.175 -0.2534 -0.6760 -0.1360
  178SOL     OW10202   3.457   0.296   0.465  0.1006 -0.2166 -0.0649
  178SOL    HW110203   3.470   0.393   0.444 -1.4512 -0.0891 -0.4784
  178SOL    HW210204   3.475   0.241   0.384 -4.3869  0.1637 -1.4581
  179SOL     OW10205   2.867   1.642   1.486  0.2198  0.1853  0.3229
  179SOL    HW110206   2.930   1.711   1.520  2.1077 -1.6168  0.5781
  179SOL    HW210207   2.899   1.551   1.513 -2.9467 -0.7550  1.2021
  180SOL     OW10208   2.795   0.494   1.376 -0.2666  0.1951 -0.2634
  180SOL    HW110209   2.727   0.421   1.383 -0.1617  0.2745  2.0764
  180SOL    HW210210   2.886   0.456   1.394  0.1838  0.2898 -2.3038
  181SOL     OW10211   2.676   3.106   2.703 -0.2091 -0.2140 -0.3710
  181SOL    HW110212   2.598   3.081   2.645 -1.1548 -0.3672  0.9449
  181SOL    HW210213   2.667   3.200   2.734  1.4817  0.6321 -2.3233
  182SOL     OW10214   2.387   2.470   0.697 -0.4572  0.6866 -0.4203
  182SOL    HW110215   2.434   2.414   0.765  0.8552  0.0862 -1.7929
  182SOL    HW210216   2.425   2.563   0.697  1.2968 -0.0021 -2.0452
  183SOL     OW10217   4.052   2.264   1.196 -0.3520 -0.7211 -0.0879
  183SOL    HW110218   4.065   2.343   1.257  0.3567  0.3726 -1.6260
  183SOL    HW210219   3.957   2.263   1.163 -0.0873  0.1132 -0.8980
  184SOL     OW10220   4.744   2.127   2.402 -0.5592 -0.0524  0.0675
  184SOL    HW110221   4.838   2.101   2.383 -0.8947 -0.9317 -0.4610
  184SOL    HW210222   4.740   2.222   2.432  0.5003 -0.0449  0.1896
  185SOL     OW10223   3.832   2.483   0.876 -0.0413 -0.3162  0.2451
  185SOL    HW110224   3.750   2.426   0.887 -0.3194  0.0253 -0.0678
  185SOL    HW210225   3.911   2.424   0.857  0.0975 -0.7884  2.1138
  186SOL     OW10226   3.919   1.556   1.876  0.2919 -0.3942  0.2252
  186SOL    HW110227   3.904   1.473   1.930 -2.7411  0.4200  0.7380
  186SOL    HW210228   3.930   1.634   1.938 -0.6623  0.1513 -0.2857
  187SOL     OW10229   2.592   0.487   0.087 -0.1652  0.3565  0.0357
  187SOL    HW110230   2.617   0.559   0.022 -0.9180  0.5253 -0.0633
  187SOL    HW210231   2.575   0.527   0.176 -1.3173  0.3953 -0.1971
  188SOL     OW10232   2.576   1.695   0.891 -0.1774 -0.0139  0.2816
  188SOL    HW110233   2.513   1.627   0.930 -0.1116  0.0072  0.4254
  188SOL    HW210234   2.524   1.773   0.858 -0.2390 -0.0554  0.2792
  189SOL     OW10235   3.649   2.246   2.571 -0.0132  0.1867 -0.5204
  189SOL    HW110236   3.585   2.306   2.618 -1.7589 -1.3621 -0.8648
  189SOL    HW210237   3.641   2.260   2.472 -2.0878 -2.1998 -0.7269
  190SOL     OW10238   3.139   9.568   2.467  0.0918 -0.2396  0.7084
  190SOL    HW110239   3.162   9.612   2.380 -1.8689  0.2628  0.4195
  190SOL    HW210240   3.196   9.606   2.540  3.7416 -2.6406 -0.7488
  191SOL     OW10241   3.901   1.355   2.392  0.2742  0.0913  0.1198
  191SOL    HW110242   3.892   1.259   2.366  0.1419  0.4503 -1.1860
  191SOL    HW210243   3.827   1.379   2.456 -0.6061 -0.2718 -0.7518
  192SOL     OW10244   2.832   9.644   2.668  0.4005  0.1958 -0.2171
  192SOL    HW110245   2.880   9.670   2.751 -1.0076  0.7287  0.4385
  192SOL    HW210246   2.876   9.564   2.628  1.3147  0.1674  0.8342
  193SOL     OW10247   3.681   0.170   1.923 -0.0718 -0.0785 -0.8905
  193SOL    HW110248   3.628   0.226   1.986 -0.4789 -0.4887 -0.8666
  193SOL    HW210249   3.682   0.214   1.833  1.4141  1.0527 -0.3333
  194SOL     OW10250   3.242   8.869   1.309  0.2470 -0.1655  0.5176
  194SOL    HW110251   3.217   8.797   1.244 -0.4696 -0.3095  0.9552
  194SOL    HW210252   3.205   8.848   1.399 -2.7769  2.3656 -0.0427
  195SOL     OW10253   2.897   3.422   2.681 -0.3489 -0.2069  0.0116
  195SOL    HW110254   2.847   3.507   2.699  0.4106  0.1046  0.6670
  195SOL    HW210255   2.861   3.380   2.598 -2.3052 -0.4312  0.9292
  196SOL     OW10256   2.419   0.743   2.642  0.5097  0.3043 -0.4122
  196SOL    HW110257   2.444   0.710   2.550  1.0610  0.5192 -0.3453
  196SOL    HW210258   2.362   0.824   2.634  0.1605  0.0419 -0.5714
  197SOL     OW10259   3.011   3.931   1.508  0.2384  0.2543 -0.0584
  197SOL    HW110260   2.999   3.851   1.566  0.4747 -0.4473 -0.9586
  197SOL    HW210261   2.931   3.944   1.450  0.6951 -0.0543 -0.7740
  198SOL     OW10262   2.729   4.082   0.175 -0.0272 -0.1029 -0.1864
  198SOL    HW110263   2.760   4.146   0.245  0.3805 -1.4363  0.8630
  198SOL    HW210264   2.807   4.029   0.141 -0.8207 -2.1005  1.0673
  199SOL     OW10265   4.195   2.224   1.953  0.1253 -0.5709 -0.7224
  199SOL    HW110266   4.253   2.143   1.947 -2.3695 -2.6349  1.5508
  199SOL    HW210267   4.103   2.201   1.922 -0.6291  1.4133 -0.0364
  200SOL     OW10268   3.288   0.843   0.591 -0.2575 -0.0112 -0.0616
  200SOL    HW110269   3.316   0.801   0.504 -0.5277 -1.1347  0.3933
  200SOL    HW210270   3.279   0.942   0.578 -0.3942 -0.1809 -1.3472
  201SOL     OW10271   3.621   3.388   0.823 -0.3257 -0.2831 -0.8166
  201SOL    HW110272   3.685   3.340   0.883  0.5994  1.4562 -0.3877
  201SOL    HW210273   3.530   3.390   0.865  0.0093 -0.2453 -0.0896
  202SOL     OW10274   3.015   2.700   2.635 -0.2477  0.3424  0.2390
  202SOL    HW110275   3.016   2.617   2.691 -0.5543 -0.6839 -1.2478
  202SOL    HW210276   3.042   2.778   2.691 -0.7648 -0.6221  1.8704
  203SOL     OW10277   3.211   0.231   0.614  0.0371 -0.0523  0.0730
  203SOL    HW110278   3.284   0.242   0.547 -1.2879  1.4695 -1.1430
  203SOL    HW210279   3.130   0.191   0.570 -0.8174  0.8726  0.7774
  204SOL     OW10280   3.570   4.297   0.671  0.3009 -0.6651 -0.3681
  204SOL    HW110281   3.592   4.393   0.690 -0.2486 -0.7415  0.6555
  204SOL    HW210282   3.557   4.248   0.756  1.9203 -1.9901 -0.8677
  205SOL     OW10283   2.392   0.608   0.780 -0.4489  0.0840  0.7959
  205SOL    HW110284   2.363   0.649   0.866 -0.0044 -2.2099  2.1014
  205SOL    HW210285   2.456   0.533   0.800  1.1294  0.7427 -1.6365
  206SOL     OW10286   2.911   0.081   0.941  0.0926  0.0311  0.0479
  206SOL    HW110287   2.889   0.177   0.959 -0.5700 -0.1636  0.2948
  206SOL    HW210288   2.872   0.054   0.853  0.8663  0.1713 -0.3515
  207SOL     OW10289   2.874   3.708   0.692  0.2923 -0.5401  0.9026
  207SOL    HW110290   2.899   3.802   0.669 -0.2776 -0.1022  2.0727
  207SOL    HW210291   2.776   3.703   0.711  0.5694 -1.0878  2.2579
  208SOL     OW10292   3.440   4.034   1.951  0.0914  0.1958 -0.2473
  208SOL    HW110293   3.461   4.128   1.926  1.0175  0.8490  2.8225
  208SOL    HW210294   3.490   3.971   1.892  0.2207  1.6202 -1.6738
  209SOL     OW10295   3.244   2.531   1.781 -0.1851  1.1074 -0.2115
  209SOL    HW110296   3.296   2.613   1.802  0.9182  0.6554 -1.1220
  209SOL    HW210297   3.174   2.552   1.712 -0.5721  1.4993  0.2979
  210SOL     OW10298   3.250   2.864   0.346  0.0346  0.1696 -0.6038
  210SOL    HW110299   3.285   2.953   0.376 -1.8376  0.3675  1.1360
  210SOL    HW210300   3.230   2.808   0.426  0.7914 -1.6767 -1.6841
  211SOL     OW10301   2.767   1.565   0.024 -0.1588  0.3408 -0.0608
  211SOL    HW110302   2.792   1.650  -0.022  2.7575 -0.5038 -0.1904
  211SOL    HW210303   2.718   1.586   0.109 -0.5879  2.0973 -0.7326
  212SOL     OW10304   3.199   9.114   0.058 -0.3350  0.4959 -0.2250
  212SOL    HW110305   3.127   9.105  -0.011 -0.6985 -1.2700  0.3649
  212SOL    HW210306   3.220   9.024   0.096  2.1729  0.9787 -0.3535
  213SOL     OW10307   3.273   1.321   2.493 -0.7950  0.0892  0.3571
  213SOL    HW110308   3.369   1.344   2.481 -0.6691 -0.8898 -0.5995
  213SOL    HW210309   3.220   1.405   2.507  0.1676  0.6422  0.6974
  214SOL     OW10310   3.935   4.216   1.726  0.3443 -0.6456  0.4931
  214SOL    HW110311   3.938   4.309   1.761 -3.2456 -0.7299  1.3023
  214SOL    HW210312   3.936   4.151   1.802 -0.2195 -1.1298  0.0967
  215SOL     OW10313   2.999   2.190   0.068 -0.6570  0.8419  0.1503
  215SOL    HW110314   3.071   2.128   0.036 -0.6478  1.3719 -0.8823
  215SOL    HW210315   2.915   2.138   0.083 -0.2702  0.3479  0.6285
  216SOL     OW10316   3.665   1.349   2.174 -0.4485 -0.1214 -0.0668
  216SOL    HW110317   3.648   1.428   2.233 -0.5371 -0.6365  0.5990
  216SOL    HW210318   3.710   1.277   2.226  1.3367  0.1780 -1.1276
  217SOL     OW10319   3.818   3.211   2.358 -0.0526 -0.0319  0.2875
  217SOL    HW110320   3.888   3.223   2.288  0.2065 -0.4299  0.4777
  217SOL    HW210321   3.731   3.188   2.316  0.1049 -0.2793  0.1007
  218SOL     OW10322   3.313   8.467   1.338  0.7765  0.1123  0.3303
  218SOL    HW110323   3.296   8.466   1.240 -0.0811 -3.4165  0.4697
  218SOL    HW210324   3.225   8.468   1.387  1.1529 -0.9069  1.0434
  219SOL     OW10325   3.181   0.771   0.821  0.2388  0.3336 -0.0004
  219SOL    HW110326   3.224   0.734   0.904 -0.4243 -0.1020  0.1555
  219SOL    HW210327   3.251   0.784   0.751  0.3622 -2.1591 -0.3965
  220SOL     OW10328   2.735   2.245   1.672 -0.7136  0.0320  0.0157
  220SOL    HW110329   2.713   2.337   1.639  0.6851  0.1341 -0.6783
  220SOL    HW210330   2.652   2.191   1.678 -1.7250  1.6987  1.5393
  221SOL     OW10331   3.751   2.715   0.754 -0.4653 -0.1870 -0.2079
  221SOL    HW110332   3.828   2.755   0.705 -0.5200 -0.5338 -0.5800
  221SOL    HW210333   3.778   2.627   0.794 -0.7231 -0.4057 -0.5098
  222SOL     OW10334   3.233   0.152   2.035 -0.5128 -0.1972 -0.0815
  222SOL    HW110335   3.150   0.141   2.089 -0.7065  1.3229 -0.0467
  222SOL    HW210336   3.311   0.169   2.096 -0.4583 -0.0069 -0.2047
  223SOL     OW10337   3.613   2.287   2.301  0.2525  0.1233  0.1240
  223SOL    HW110338   3.674   2.258   2.227 -2.3134 -2.0693 -1.2114
  223SOL    HW210339   3.555   2.362   2.269 -0.1428 -0.1147  0.2853
  224SOL     OW10340   2.957   9.786   0.980 -0.4165 -1.1379  0.3466
  224SOL    HW110341   2.983   9.882   0.972  0.1478 -1.1869  1.5935
  224SOL    HW210342   3.038   9.729   0.989 -0.8000 -1.6308  0.7203
  225SOL     OW10343   2.466   3.077   2.538 -0.0541  0.6115 -0.2634
  225SOL    HW110344   2.396   3.148   2.526  0.9431  1.8357  0.9920
  225SOL    HW210345   2.434   3.011   2.606 -0.9033 -0.0512 -1.2918
  226SOL     OW10346   3.094   1.541   2.565  0.0310  0.3889 -0.7294
  226SOL    HW110347   3.032   1.611   2.599 -1.0228 -1.9388  2.4143
  226SOL    HW210348   3.179   1.545   2.618  0.0605 -0.5244 -0.7048
  227SOL     OW10349   4.866   2.605   0.006 -0.0212  0.2542  0.1868
  227SOL    HW110350   4.858   2.517  -0.042  1.4203  1.1305 -1.7747
  227SOL    HW210351   4.932   2.662  -0.043 -0.0588  1.9823  2.1249
  228SOL     OW10352   3.220   3.506   0.390 -0.6511 -0.0316  0.3593
  228SOL    HW110353   3.164   3.490   0.309 -0.4559 -0.8773  0.3868
  228SOL    HW210354   3.161   3.513   0.471 -0.6782 -1.6980  0.5035
  229SOL     OW10355   3.980   1.321   0.836  0.0993 -0.6043 -0.0650
  229SOL    HW110356   3.958   1.321   0.934 -1.3927  1.8036 -0.3288
  229SOL    HW210357   3.906   1.277   0.785  0.1194 -0.4639 -0.2175
  230SOL     OW10358   2.108   0.597   2.067  0.1615  0.4545 -0.7318
  230SOL    HW110359   2.171   0.571   2.140 -0.3899 -0.5942 -0.6274
  230SOL    HW210360   2.110   0.528   1.995 -0.1959  0.8755 -1.1488
  231SOL     OW10361   3.677   9.154   0.526 -0.1897 -0.6754  0.0624
  231SOL    HW110362   3.724   9.072   0.561  0.3309 -0.6615 -0.5973
  231SOL    HW210363   3.743   9.228   0.514 -0.6302 -0.2093  0.4864
  232SOL     OW10364   2.250   1.870   0.187  0.0535 -0.0952  0.5487
  232SOL    HW110365   2.189   1.807   0.236  1.1436 -0.7419  1.0809
  232SOL    HW210366   2.345   1.851   0.213  0.4965  0.7583 -0.4543
  233SOL     OW10367   4.109   3.516   0.457  0.3484  0.0273  0.3154
  233SOL    HW110368   4.148   3.606   0.437  0.5481  0.2119  1.5464
  233SOL    HW210369   4.110   3.461   0.373  2.5403  0.2908  0.1429
  234SOL     OW10370   3.538   8.658   1.340 -0.3833  0.1960  0.0195
  234SOL    HW110371   3.467   8.588   1.327  0.9038 -1.0762 -0.2634
  234SOL    HW210372   3.496   8.749   1.337 -2.0352 -0.5490  0.0995
  235SOL     OW10373   2.638   3.306   1.147  0.1245  0.4167  0.5461
  235SOL    HW110374   2.644   3.303   1.047 -2.3126  0.0539  0.3967
  235SOL    HW210375   2.643   3.401   1.177 -2.1863  0.7841 -0.1513
  236SOL     OW10376   2.005   0.966   1.243 -0.7528  0.1272 -0.2268
  236SOL    HW110377   2.004   1.033   1.317  0.4850 -0.2040  0.1051
  236SOL    HW210378   1.912   0.937   1.223 -1.0771 -0.0050  1.4275
  237SOL     OW10379   2.820   1.478   1.969 -0.3291 -0.0182 -0.0218
  237SOL    HW110380   2.822   1.571   1.933 -0.5061 -0.7833 -2.0147
  237SOL    HW210381   2.914   1.444   1.977 -0.2857  0.1822  0.3526
  238SOL     OW10382   2.841   1.586   0.858  0.4540  0.0118  0.3233
  238SOL    HW110383   2.834   1.512   0.790  0.7869  0.2601  0.0175
  238SOL    HW210384   2.750   1.607   0.894  0.3807 -0.6841  0.5574
  239SOL     OW10385   2.611   9.551   2.049 -0.1910  0.3714 -0.1939
  239SOL    HW110386   2.624   9.560   2.148 -3.1794  0.7260  0.2103
  239SOL    HW210387   2.681   9.490   2.011  1.3653  0.7306  2.0237
  240SOL     OW10388   2.776   3.920   1.348  0.2773 -0.6091  0.1315
  240SOL    HW110389   2.833   3.849   1.307 -1.7152 -2.2273  0.0789
  240SOL    HW210390   2.712   3.955   1.279 -0.3820 -0.4854  0.8000
  241SOL     OW10391   3.693   0.511   1.621  0.3997 -0.0743 -0.5212
  241SOL    HW110392   3.703   0.596   1.673 -0.7290 -0.3121  0.1013
  241SOL    HW210393   3.651   0.441   1.678 -0.0377 -0.6090 -1.4774
  242SOL     OW10394   2.509   3.730   0.411 -0.0833 -0.4269  0.4066
  242SOL    HW110395   2.461   3.643   0.405 -1.8347  0.4247  1.6412
  242SOL    HW210396   2.496   3.783   0.327 -0.3517 -0.6754  0.2949
  243SOL     OW10397   2.058   0.833   2.178  0.4353  0.6006  0.4271
  243SOL    HW110398   2.067   0.735   2.158  0.5115  0.5158  0.8590
  243SOL    HW210399   2.093   0.887   2.102  1.0411  0.2900  0.4834
  244SOL     OW10400   3.449   2.444   0.435  0.4104 -0.2528 -0.1474
  244SOL    HW110401   3.455   2.543   0.446  1.4077 -0.1899 -1.1632
  244SOL    HW210402   3.483   2.399   0.518  1.4301  0.2524 -0.2868
  245SOL     OW10403   3.423   1.856   0.133 -0.1155  0.2292 -0.1582
  245SOL    HW110404   3.436   1.947   0.174 -1.1436 -0.6484  2.2070
  245SOL    HW210405   3.340   1.815   0.170 -1.1228 -0.6349 -3.2045
  246SOL     OW10406   2.881   3.435   1.355  0.1139  1.0285  0.1996
  246SOL    HW110407   2.838   3.487   1.429 -2.5509  0.5949 -0.9997
  246SOL    HW210408   2.924   3.353   1.393  3.1970  3.3294  1.9177
  247SOL     OW10409   4.103   1.848   1.818 -0.2531  0.2349 -0.2276
  247SOL    HW110410   4.097   1.844   1.718 -0.5735  2.4410 -0.3199
  247SOL    HW210411   4.011   1.845   1.857 -0.1812  0.3795 -0.0481
  248SOL     OW10412   3.712   0.728   0.349  0.3190  0.4969  0.0914
  248SOL    HW110413   3.777   0.760   0.280  1.3362 -1.4722  0.1186
  248SOL    HW210414   3.750   0.746   0.440  1.2949 -1.5715  0.1029
  249SOL     OW10415   3.496   3.581   0.401  0.2707  0.4086  0.0171
  249SOL    HW110416   3.402   3.561   0.428  0.7217 -1.6111  0.1583
  249SOL    HW210417   3.555   3.581   0.482  0.7079 -0.2667 -0.2908
  250SOL     OW10418   2.232   1.809   1.452  0.3397  0.1948  0.1622
  250SOL    HW110419   2.316   1.769   1.414 -0.7257 -2.5066  0.5518
  250SOL    HW210420   2.153   1.772   1.404 -0.7648  0.7463  1.5380
  251SOL     OW10421   4.184   2.427   1.722  0.3222 -0.6780  0.3395
  251SOL    HW110422   4.207   2.408   1.626 -1.3584  0.4549 -0.3170
  251SOL    HW210423   4.156   2.343   1.767 -0.2613 -0.9667 -0.5581
  252SOL     OW10424   4.842   2.987   1.016 -0.0190  0.3910 -0.4159
  252SOL    HW110425   4.794   3.072   1.038 -0.0089  0.7383 -1.7226
  252SOL    HW210426   4.939   2.997   1.037  0.5751  1.8566 -3.6427
  253SOL     OW10427   2.375   3.175   0.805 -0.3307  0.1949  0.3550
  253SOL    HW110428   2.423   3.244   0.859 -0.6489  1.1787 -0.6010
  253SOL    HW210429   2.278   3.173   0.832 -0.9231  2.0850 -1.5293
  254SOL     OW10430   2.634   1.468   1.514 -0.2865 -0.4730  0.0172
  254SOL    HW110431   2.655   1.433   1.423  1.2816 -1.0351  0.5910
  254SOL    HW210432   2.696   1.543   1.537 -1.8420  0.8860 -0.0808
  255SOL     OW10433   3.240   8.900   2.075  0.0735 -0.3071  0.5067
  255SOL    HW110434   3.269   8.848   1.994 -1.4191 -0.7926  0.2726
  255SOL    HW210435   3.301   8.880   2.151  0.5518 -1.0578 -0.0690
  256SOL     OW10436   2.993   3.612   1.663 -0.4369  0.4347  0.6804
  256SOL    HW110437   3.055   3.546   1.621 -1.1179 -0.5844  1.2868
  256SOL    HW210438   3.015   3.622   1.760 -1.1947  0.1117  0.8847
  257SOL     OW10439   3.519   0.315   0.888  0.1965 -0.7055  0.2691
  257SOL    HW110440   3.546   0.354   0.800  1.2584 -2.5110 -0.2546
  257SOL    HW210441   3.438   0.361   0.923  1.7061  2.2664 -0.0505
  258SOL     OW10442   4.171   2.728   2.579 -0.0262 -0.2710 -0.0928
  258SOL    HW110443   4.249   2.693   2.527 -0.1281 -2.2093  1.0177
  258SOL    HW210444   4.100   2.658   2.584 -1.1097  0.8478  0.4077
  259SOL     OW10445   2.647   3.604   2.482  0.3129 -0.1686 -0.4227
  259SOL    HW110446   2.718   3.551   2.437 -0.2574 -0.1720 -1.3173
  259SOL    HW210447   2.678   3.699   2.493  1.1390 -0.5611  0.7529
  260SOL     OW10448   4.333   3.904   0.100 -0.0925  0.5223 -0.3643
  260SOL    HW110449   4.372   3.985   0.055 -1.1851  1.4176  0.2947
  260SOL    HW210450   4.236   3.920   0.119  0.4121  0.2876  2.5818
  261SOL     OW10451   3.419   0.141   1.350 -0.2663  0.0303  0.3483
  261SOL    HW110452   3.408   0.048   1.384  0.7045  0.1925  1.1193
  261SOL    HW210453   3.480   0.141   1.271 -1.8097 -0.2287 -0.8712
  262SOL     OW10454   3.604   1.647   1.720 -0.2504 -0.0103  0.1132
  262SOL    HW110455   3.670   1.655   1.645 -0.9234 -4.7666 -1.1656
  262SOL    HW210456   3.647   1.678   1.805  1.8568  1.8256 -1.5478
  263SOL     OW10457   2.204   1.056   1.763  0.7460 -0.6806 -0.4260
  263SOL    HW110458   2.225   0.963   1.792  0.3912 -1.1317 -1.5788
  263SOL    HW210459   2.125   1.054   1.701  2.3225  0.0846 -2.5267
  264SOL     OW10460   4.442   3.709   2.001 -0.0181 -0.2772 -0.2193
  264SOL    HW110461   4.523   3.662   1.966  0.8326  1.4342 -0.5830
  264SOL    HW210462   4.444   3.709   2.101  1.9866  2.3302 -0.2121
  265SOL     OW10463   3.328   9.813   2.403  0.0984 -0.4378 -0.0746
  265SOL    HW110464   3.313   9.791   2.499  0.8484 -0.4920  0.0337
  265SOL    HW210465   3.419   9.853   2.391  0.1415 -0.7407 -0.8068
  266SOL     OW10466   2.206   2.138   0.120  0.1049 -0.2185 -0.5466
  266SOL    HW110467   2.237   2.169   0.210 -3.3783  1.3753  0.1970
  266SOL    HW210468   2.217   2.038   0.114  2.3288 -0.0974  0.7961
  267SOL     OW10469   2.300   1.013   1.468 -0.3474  0.6220 -0.2997
  267SOL    HW110470   2.383   0.966   1.437 -0.6102  0.8990 -1.4639
  267SOL    HW210471   2.326   1.093   1.521  0.1068 -0.6213  1.3974
  268SOL     OW10472   3.392   0.629   1.783 -0.4665  0.1254 -0.2658
  268SOL    HW110473   3.338   0.707   1.814 -2.6493 -1.2512 -0.4501
  268SOL    HW210474   3.369   0.609   1.688  0.2469 -0.6061 -0.2891
  269SOL     OW10475   3.260   3.461   1.337  0.2835 -0.3192  0.7763
  269SOL    HW110476   3.193   3.450   1.263  1.0644  0.1008 -0.0052
  269SOL    HW210477   3.212   3.480   1.422 -0.6404 -0.9722  0.4143
  270SOL     OW10478   4.169   3.890   1.216  0.3800  0.4449 -0.1071
  270SOL    HW110479   4.083   3.843   1.198  0.9329 -1.3284  1.6206
  270SOL    HW210480   4.153   3.988   1.225 -1.2945  0.2416 -0.7185
  271SOL     OW10481   3.539   9.349   0.095 -0.7655 -0.5291 -0.6046
  271SOL    HW110482   3.478   9.326   0.019 -0.7194 -0.4484 -0.6664
  271SOL    HW210483   3.521   9.288   0.172 -0.6542 -0.7621 -0.7618
  272SOL     OW10484   2.223   1.775   2.362  0.0872  0.8051  0.2197
  272SOL    HW110485   2.287   1.778   2.439 -0.9018  1.5254  1.0176
  272SOL    HW210486   2.186   1.682   2.353  0.1856  0.7275  0.6152
  273SOL     OW10487   2.797   3.340   0.489  0.0396  0.0710  0.5280
  273SOL    HW110488   2.790   3.274   0.414  0.7665  0.3054  0.2418
  273SOL    HW210489   2.813   3.291   0.575  2.8952 -0.0559 -0.0084
  274SOL     OW10490   4.189   1.639   0.166  0.0345  0.2376 -0.6822
  274SOL    HW110491   4.146   1.549   0.172  0.4240  0.0986  0.0342
  274SOL    HW210492   4.184   1.672   0.072 -2.6017  0.6795 -0.4214
  275SOL     OW10493   4.187   3.121   1.298  0.4346  0.3009 -0.2024
  275SOL    HW110494   4.096   3.141   1.334 -0.2794 -0.3760 -1.6293
  275SOL    HW210495   4.255   3.174   1.350 -0.5485 -0.8011  2.2763
  276SOL     OW10496   2.996   2.281   1.787 -0.0509 -0.0305 -0.5982
  276SOL    HW110497   2.904   2.266   1.750 -0.3882  1.4072 -0.3392
  276SOL    HW210498   2.989   2.314   1.881  0.7620 -1.2298 -0.1084
  277SOL     OW10499   2.739   1.386   2.320  0.5076 -0.4651 -0.5420
  277SOL    HW110500   2.722   1.440   2.237 -0.9205 -0.1698 -0.0748
  277SOL    HW210501   2.709   1.292   2.305 -1.3699 -0.0035  0.2016
  278SOL     OW10502   4.295   2.255   1.037 -0.5039 -0.6000 -0.3798
  278SOL    HW110503   4.222   2.252   1.106  0.5346  0.6014  0.8125
  278SOL    HW210504   4.346   2.169   1.038 -1.3090 -1.0778 -0.5470
  279SOL     OW10505   2.687   1.840   0.244  0.2588 -0.0347 -0.3301
  279SOL    HW110506   2.632   1.897   0.305 -0.5731 -0.3703 -0.7616
  279SOL    HW210507   2.776   1.820   0.287 -0.3212 -0.2724  0.7645
  280SOL     OW10508   3.542   1.715   2.677  0.1070 -0.2800  0.2101
  280SOL    HW110509   3.573   1.756   2.591  1.3444  0.3046  0.9296
  280SOL    HW210510   3.500   1.785   2.734  1.2036 -0.2271  0.9688
  281SOL     OW10511   4.176   1.246   2.445 -0.1981 -0.6674 -0.0140
  281SOL    HW110512   4.261   1.294   2.423 -0.4104 -0.0729  0.4302
  281SOL    HW210513   4.098   1.306   2.427 -0.5728 -1.4737 -1.1210
  282SOL     OW10514   3.913   2.504   1.521  0.3346  0.1090 -0.6091
  282SOL    HW110515   3.972   2.560   1.580 -0.3618 -1.0782  1.2528
  282SOL    HW210516   3.846   2.563   1.475  0.2284  0.9458  0.5906
  283SOL     OW10517   2.536   3.198   1.653 -0.7530  0.0774 -0.0129
  283SOL    HW110518   2.504   3.292   1.636 -0.6319  0.1032 -0.0951
  283SOL    HW210519   2.572   3.191   1.746  0.0663  0.3359 -0.3069
  284SOL     OW10520   2.952   9.006   1.433 -0.5021  0.3483 -0.6079
  284SOL    HW110521   3.015   9.050   1.369  0.3271 -0.0382 -0.0705
  284SOL    HW210522   2.949   9.058   1.519 -1.1474  0.5323 -0.7392
  285SOL     OW10523   4.695   3.766   0.806  0.0034 -0.0120 -0.3059
  285SOL    HW110524   4.671   3.856   0.842  0.9860  0.2444 -0.2801
  285SOL    HW210525   4.676   3.696   0.875 -0.0420  0.2553 -0.0477
  286SOL     OW10526   3.308   1.604   0.007 -0.1014  0.0015  0.5662
  286SOL    HW110527   3.397   1.641  -0.018 -0.6442  1.0949  0.2054
  286SOL    HW210528   3.317   1.548   0.089  1.0758 -0.6989 -0.0296
  287SOL     OW10529   3.238   0.462   2.153 -0.4067 -0.1587  0.0580
  287SOL    HW110530   3.223   0.431   2.059 -1.2618 -0.2953  0.2347
  287SOL    HW210531   3.204   0.555   2.163 -2.7547 -1.0706  0.9010
  288SOL     OW10532   3.997   1.173   0.250 -0.1098 -0.4467 -0.0385
  288SOL    HW110533   3.986   1.076   0.227  1.9464 -0.4069 -1.3343
  288SOL    HW210534   4.078   1.184   0.309 -1.3518  0.2867  1.5660
  289SOL     OW10535   2.452   2.100   2.221 -0.0591 -0.3204 -0.0822
  289SOL    HW110536   2.510   2.024   2.249  0.9793  0.3442 -0.4301
  289SOL    HW210537   2.363   2.091   2.266 -0.3073 -2.2968 -0.9183
  290SOL     OW10538   3.030   2.911   1.944  0.3694 -0.1149 -0.3881
  290SOL    HW110539   3.058   2.961   2.026  0.3106 -2.2315  0.9781
  290SOL    HW210540   2.959   2.845   1.968  0.9355 -1.3405 -1.9705
  291SOL     OW10541   2.108   2.079   1.305 -0.3697 -0.3331 -0.5735
  291SOL    HW110542   2.182   2.013   1.288 -2.0194 -2.2449 -0.4717
  291SOL    HW210543   2.108   2.148   1.232  1.4516 -0.3376 -0.6124
  292SOL     OW10544   3.467   1.878   1.209  0.3494  0.2080  0.3875
  292SOL    HW110545   3.377   1.851   1.174 -0.8492  1.8886  2.0690
  292SOL    HW210546   3.482   1.835   1.298  1.0232  0.3075  0.3244
  293SOL     OW10547   2.471   0.079   0.391  0.0203 -0.3010 -0.3811
  293SOL    HW110548   2.371   0.077   0.381  0.0999 -0.8219 -1.1700
  293SOL    HW210549   2.510   0.136   0.319  0.1642  1.5256  1.1289
  294SOL     OW10550   2.673   9.635   0.325  0.0508  0.2545 -0.2227
  294SOL    HW110551   2.697   9.544   0.358  3.2896  0.1617 -2.5785
  294SOL    HW210552   2.618   9.626   0.241 -0.3463  0.4653  0.0150
  295SOL     OW10553   2.479   1.931   0.760 -0.0621 -0.3967  0.0899
  295SOL    HW110554   2.570   1.973   0.764  0.2741 -0.8957 -1.6954
  295SOL    HW210555   2.416   1.994   0.713  0.2134 -1.4666 -1.7470
  296SOL     OW10556   3.670   3.845   1.527  0.1987  0.4836  0.0195
  296SOL    HW110557   3.677   3.761   1.473 -1.0089  0.2232  0.2503
  296SOL    HW210558   3.620   3.914   1.474 -1.3980  0.0768  0.9660
  297SOL     OW10559   3.920   2.437   2.292 -0.0609  0.2987 -0.0097
  297SOL    HW110560   4.014   2.430   2.260 -0.3355 -0.1918 -0.7174
  297SOL    HW210561   3.868   2.495   2.230 -0.5931 -0.6408 -0.4513
  298SOL     OW10562   3.454   2.405   2.665 -0.0842 -0.5018 -0.8368
  298SOL    HW110563   3.451   2.490   2.613 -0.8433  0.4141  0.6821
  298SOL    HW210564   3.408   2.417   2.753  3.2354 -1.3383  1.1182
  299SOL     OW10565   3.890   2.469   1.886  0.0338  0.2583  0.0598
  299SOL    HW110566   3.983   2.487   1.854  0.0778  1.2513  0.7045
  299SOL    HW210567   3.892   2.397   1.956  0.1997 -0.3809 -0.6025
  300SOL     OW10568   2.192   1.484   2.330 -0.0733 -1.2562 -0.4205
  300SOL    HW110569   2.153   1.403   2.375  0.8065 -1.3536  0.1651
  300SOL    HW210570   2.262   1.455   2.265  0.4892 -0.9413  0.0469
  301SOL     OW10571   2.682   0.875   0.963 -0.3691  0.1900  0.0819
  301SOL    HW110572   2.660   0.779   0.983 -1.9003  0.6472  0.6635
  301SOL    HW210573   2.694   0.886   0.864  0.9365 -0.8166  0.1100
  302SOL     OW10574   4.417   3.386   1.666 -0.0991  0.6287 -0.0087
  302SOL    HW110575   4.380   3.399   1.758  0.0511 -0.6243  0.2426
  302SOL    HW210576   4.415   3.473   1.616  0.9786  1.6044  1.6008
  303SOL     OW10577   3.412   0.553   1.517 -0.0178 -0.1988 -0.4453
  303SOL    HW110578   3.495   0.510   1.551  0.2836  0.7641  0.0581
  303SOL    HW210579   3.334   0.492   1.533  0.2073 -0.0042  1.4750
  304SOL     OW10580   2.541   2.016   1.331  0.7318  0.0239 -0.4196
  304SOL    HW110581   2.500   1.956   1.263  1.5365 -0.5112 -0.4382
  304SOL    HW210582   2.499   2.107   1.325 -0.4470 -0.5104 -0.4306
  305SOL     OW10583   3.462   0.702   0.129 -0.5527  0.0534  0.2761
  305SOL    HW110584   3.541   0.686   0.069  0.8770  1.3427  1.7775
  305SOL    HW210585   3.473   0.650   0.213 -1.6128 -0.2048  0.2692
  306SOL     OW10586   3.587   0.093   0.602 -0.3955 -0.1723 -0.2520
  306SOL    HW110587   3.552   0.182   0.574 -1.9700 -1.0897 -1.2591
  306SOL    HW210588   3.520   0.048   0.661  0.9316 -0.1809  1.3044
  307SOL     OW10589   2.589   0.138   1.202  0.0159 -0.1593 -0.6679
  307SOL    HW110590   2.503   0.089   1.216  0.5277 -1.5615 -2.2545
  307SOL    HW210591   2.663   0.072   1.190  1.3498  1.0318  0.8017
  308SOL     OW10592   3.010   3.355   2.256  0.3061 -0.1208 -0.8549
  308SOL    HW110593   3.019   3.297   2.175 -0.4805 -1.4114 -0.0297
  308SOL    HW210594   2.915   3.353   2.287  0.9264 -0.9259  1.0471
  309SOL     OW10595   3.895   2.161   2.285  0.2058  0.7170 -0.4376
  309SOL    HW110596   3.973   2.122   2.333 -1.0957 -1.1583  0.1876
  309SOL    HW210597   3.908   2.260   2.276  1.8671  0.6667  1.1074
  310SOL     OW10598   3.247   9.641   2.180 -0.2421  0.2519  0.2000
  310SOL    HW110599   3.323   9.691   2.221 -1.2625  1.8048  0.2664
  310SOL    HW210600   3.282   9.570   2.118  1.2388  1.4279 -0.3336
  311SOL     OW10601   3.852   1.191   1.717 -0.4170 -0.3071 -0.5296
  311SOL    HW110602   3.850   1.201   1.816  0.8770  2.7799 -0.7789
  311SOL    HW210603   3.853   1.281   1.673  1.8087 -1.5592 -3.2696
  312SOL     OW10604   3.493   2.784   1.257  0.3845  0.0248  0.1550
  312SOL    HW110605   3.475   2.734   1.172  2.6173 -1.1961  0.3661
  312SOL    HW210606   3.437   2.745   1.330 -0.0738 -0.2409 -0.3318
  313SOL     OW10607   2.450   0.758   0.560  0.2392  0.5434 -0.2780
  313SOL    HW110608   2.416   0.720   0.647 -0.3290  0.7133 -0.4257
  313SOL    HW210609   2.381   0.747   0.489  0.9511 -0.1744 -0.8781
  314SOL     OW10610   3.454   8.577   1.010  0.6274  0.3549  0.0103
  314SOL    HW110611   3.444   8.638   0.931 -0.3723 -2.0096 -1.7227
  314SOL    HW210612   3.366   8.572   1.059  1.3536  2.1494  1.5860
  315SOL     OW10613   3.186   2.590   1.099 -0.4218  0.3356  0.6066
  315SOL    HW110614   3.117   2.540   1.047 -0.2868 -0.7129  1.4190
  315SOL    HW210615   3.142   2.655   1.159 -0.6848  0.0147  0.7638
  316SOL     OW10616   3.370   9.268   2.621  0.2723  0.2012  0.6160
  316SOL    HW110617   3.302   9.221   2.675  1.5705 -1.6986  0.6412
  316SOL    HW210618   3.334   9.286   2.529 -0.6302  0.1989  0.9694
  317SOL     OW10619   3.247   3.497   1.621  0.2639  0.0203 -0.0309
  317SOL    HW110620   3.252   3.438   1.701  2.8705  0.1556 -0.0498
  317SOL    HW210621   3.293   3.584   1.641  0.7161  0.1543 -1.5596
  318SOL     OW10622   2.170   0.576   1.694 -0.3503  0.1147  0.6181
  318SOL    HW110623   2.094   0.627   1.734 -2.3582 -1.7599 -0.6586
  318SOL    HW210624   2.197   0.619   1.607 -0.1750  0.5982  0.9119
  319SOL     OW10625   4.211   4.227   0.523 -0.1758 -0.2276  0.6686
  319SOL    HW110626   4.248   4.135   0.528  1.1313  0.1575 -1.4417
  319SOL    HW210627   4.209   4.268   0.615 -2.3581 -2.9228  1.9044
  320SOL     OW10628   3.037   9.988   0.577 -0.5815 -0.4621 -0.2221
  320SOL    HW110629   3.069   9.894   0.568  0.7546 -0.0101 -0.4428
  320SOL    HW210630   3.045  10.034   0.489 -0.8378 -0.0264 -0.0199
  321SOL     OW10631   3.331   3.847   0.178  0.6739  0.4320 -0.0841
  321SOL    HW110632   3.327   3.839   0.079  0.8537 -0.1052 -0.0492
  321SOL    HW210633   3.272   3.778   0.221  1.1982  0.1463  0.1909
  322SOL     OW10634   2.509   0.174   1.742  0.5768  0.2233  0.4379
  322SOL    HW110635   2.560   0.152   1.826 -1.2426 -2.0767  0.9749
  322SOL    HW210636   2.451   0.254   1.758  0.1251 -0.2977  1.4372
  323SOL     OW10637   2.472   2.918   2.325  0.0654  0.1308  0.0690
  323SOL    HW110638   2.446   2.990   2.390  0.0264 -0.3553  0.5958
  323SOL    HW210639   2.529   2.850   2.371 -2.2304 -1.6951  0.3324
  324SOL     OW10640   2.921   9.427   2.534  0.7314 -0.2734  0.4335
  324SOL    HW110641   2.958   9.336   2.552  0.1154 -0.6496 -0.1711
  324SOL    HW210642   2.994   9.487   2.503  1.1548 -0.5424  0.9078
  325SOL     OW10643   4.124   4.395   0.798 -0.6295  0.6234 -0.0114
  325SOL    HW110644   4.197   4.455   0.765 -0.1295  0.7383  1.2873
  325SOL    HW210645   4.040   4.448   0.809 -0.7951  0.5919 -1.0391
  326SOL     OW10646   3.779   9.928   1.462  0.2642  0.2442 -0.1712
  326SOL    HW110647   3.794   9.891   1.370  1.9045  0.0823  0.1293
  326SOL    HW210648   3.836   9.877   1.527 -0.6385  0.5708  0.8824
  327SOL     OW10649   3.717   3.044   2.569 -0.1052  0.0224  0.4636
  327SOL    HW110650   3.649   3.094   2.622 -0.4547 -0.5326  0.5440
  327SOL    HW210651   3.763   3.107   2.506  0.0700  0.6116  1.1758
  328SOL     OW10652   3.234   2.195   1.702  0.0000  0.2500  0.0861
  328SOL    HW110653   3.228   2.113   1.759 -2.0022 -0.2113 -0.7317
  328SOL    HW210654   3.159   2.258   1.726  1.2756  1.6606  0.4326
  329SOL     OW10655   4.071   2.666   1.991 -0.5478 -0.0003 -0.4641
  329SOL    HW110656   4.111   2.739   2.047  1.4558 -0.8937 -0.6830
  329SOL    HW210657   3.977   2.691   1.966 -0.0668  2.2735 -0.1342
  330SOL     OW10658   4.405   2.065   1.728 -0.2547 -0.6578 -0.1653
  330SOL    HW110659   4.419   1.975   1.686  1.1363 -0.1332 -0.8686
  330SOL    HW210660   4.447   2.135   1.671 -1.8190  0.5149  0.1046
  331SOL     OW10661   2.619   1.177   2.161  0.6113  0.2525 -0.8554
  331SOL    HW110662   2.568   1.249   2.114 -0.0143 -0.0357 -0.6179
  331SOL    HW210663   2.557   1.122   2.217  1.1325 -0.2820 -0.7912
  332SOL     OW10664   3.175   9.586   1.320  0.4026 -0.0526 -0.2283
  332SOL    HW110665   3.094   9.620   1.273 -0.2013  0.2717  1.0161
  332SOL    HW210666   3.163   9.595   1.419  1.2100 -1.6758  0.0449
  333SOL     OW10667   1.934   1.031   2.316 -0.0581 -0.2395 -0.0589
  333SOL    HW110668   1.972   0.945   2.282 -1.5660 -0.9110 -0.0803
  333SOL    HW210669   1.868   1.066   2.250  1.0072  1.2759 -0.3498
  334SOL     OW10670   4.316   2.300   2.363 -0.2368 -0.5371  0.5861
  334SOL    HW110671   4.306   2.205   2.336  0.1262  0.1617 -2.1980
  334SOL    HW210672   4.258   2.357   2.304 -1.5202  0.8650  3.0994
  335SOL     OW10673   3.664   9.305   0.765  0.2166  1.0742 -0.3505
  335SOL    HW110674   3.610   9.387   0.744 -0.5819  0.8487  0.7584
  335SOL    HW210675   3.637   9.231   0.703  1.1798  1.7339 -1.5793
  336SOL     OW10676   4.852   2.586   1.499 -0.8340 -0.0808 -0.0237
  336SOL    HW110677   4.827   2.662   1.559  0.5508  2.0970 -2.1118
  336SOL    HW210678   4.785   2.579   1.425 -0.1767  0.0390 -0.6331
  337SOL     OW10679   3.378   3.471   2.081  0.4187  0.0246  0.3363
  337SOL    HW110680   3.477   3.481   2.073  0.3250  1.2078  0.4689
  337SOL    HW210681   3.355   3.419   2.164  0.9143  0.0168  0.4658
  338SOL     OW10682   2.497   2.926   0.308 -0.3989 -0.1988 -0.4449
  338SOL    HW110683   2.477   2.885   0.219 -0.3340  0.5875 -0.8188
  338SOL    HW210684   2.557   3.005   0.297 -2.7134  1.6772 -0.0115
  339SOL     OW10685   3.296   0.102   1.694  0.4335 -0.0562 -0.3266
  339SOL    HW110686   3.321   0.005   1.693 -1.0353 -0.4511 -0.7295
  339SOL    HW210687   3.243   0.122   1.776 -0.3666  0.0986 -0.8665
  340SOL     OW10688   3.052   3.034   1.227 -0.0286  0.1800  0.3921
  340SOL    HW110689   3.139   3.048   1.276 -0.0488 -0.4070  0.6001
  340SOL    HW210690   2.984   2.999   1.291 -0.2247 -0.0169  0.0721
  341SOL     OW10691   3.564   3.858   0.776 -0.3391  0.3412  0.3817
  341SOL    HW110692   3.652   3.889   0.740 -0.0167  0.9561  1.6688
  341SOL    HW210693   3.546   3.765   0.745 -0.2261  0.9696 -1.6255
  342SOL     OW10694   3.391   2.677   0.170 -0.0078 -0.2074  0.0746
  342SOL    HW110695   3.352   2.585   0.175  0.1249 -0.1800  1.8629
  342SOL    HW210696   3.330   2.741   0.216 -0.2777  0.6714 -1.4819
  343SOL     OW10697   3.243   1.635   1.114  0.0133 -0.1861  0.1638
  343SOL    HW110698   3.315   1.587   1.065 -0.6967  0.1447 -1.2445
  343SOL    HW210699   3.155   1.614   1.072 -0.1282  3.8348 -1.7667
  344SOL     OW10700   4.412   1.650   0.309 -0.0202 -1.3875 -0.1759
  344SOL    HW110701   4.375   1.672   0.399  0.2101  2.4036 -0.9564
  344SOL    HW210702   4.338   1.653   0.241  0.2959 -1.6599 -0.5366
  345SOL     OW10703   3.487   9.208   0.335  0.3159 -0.2318  0.2957
  345SOL    HW110704   3.473   9.307   0.338  1.1671 -0.0673 -0.5604
  345SOL    HW210705   3.560   9.183   0.400  1.1768 -0.0763 -0.5915
  346SOL     OW10706   2.474   1.794   0.437 -0.3183 -0.2486  0.4218
  346SOL    HW110707   2.465   1.845   0.522  0.1755  0.8729 -0.1849
  346SOL    HW210708   2.539   1.719   0.449 -0.8220 -0.5546  1.2396
  347SOL     OW10709   2.652   2.882   0.543 -0.1450 -0.2131 -0.4934
  347SOL    HW110710   2.735   2.933   0.521  0.8241 -2.3043 -1.8602
  347SOL    HW210711   2.576   2.915   0.486  0.6903 -0.8753 -2.0174
  348SOL     OW10712   4.123   1.958   0.461  0.0946  0.5769 -0.2502
  348SOL    HW110713   4.172   2.018   0.398  0.2572 -0.9711 -1.6369
  348SOL    HW210714   4.064   1.896   0.409  0.0614 -0.5795  1.1381
  349SOL     OW10715   4.789   2.890   1.328 -0.0914 -0.5367 -0.0956
  349SOL    HW110716   4.801   2.861   1.423 -2.8118  0.3196  0.5343
  349SOL    HW210717   4.696   2.923   1.314  1.5372  3.6165 -1.9409
  350SOL     OW10718   2.885   2.157   2.382  0.3987 -0.0875 -0.2481
  350SOL    HW110719   2.870   2.117   2.292  0.1281 -1.5349  0.4309
  350SOL    HW210720   2.831   2.107   2.450  0.0810  1.4055  0.6196
  351SOL     OW10721   3.858   3.517   2.215 -0.0817 -0.0848  0.1475
  351SOL    HW110722   3.895   3.514   2.308  0.7761  1.0632 -0.1580
  351SOL    HW210723   3.932   3.525   2.149 -0.7206 -0.3958 -0.6253
  352SOL     OW10724   4.420   1.552   1.901 -0.3041 -0.2722 -0.0515
  352SOL    HW110725   4.457   1.520   1.814  0.7396 -0.4936  0.4656
  352SOL    HW210726   4.401   1.473   1.960  1.7063  0.0061  1.0030
  353SOL     OW10727   2.393   9.939   1.715 -0.1667  0.5013 -0.9534
  353SOL    HW110728   2.398   9.880   1.796  0.5059  0.6384 -0.8966
  353SOL    HW210729   2.431  10.029   1.736 -0.7890  0.8187 -1.1719
  354SOL     OW10730   2.624   1.878   2.304  1.0221  0.0000  0.5776
  354SOL    HW110731   2.581   1.791   2.331  0.7713  0.5716  2.0779
  354SOL    HW210732   2.722   1.865   2.295  0.9096 -0.5897  0.1733
  355SOL     OW10733   3.719   1.706   0.643 -0.0954 -0.3919 -0.2955
  355SOL    HW110734   3.728   1.763   0.562 -0.5732 -0.8679 -0.6941
  355SOL    HW210735   3.636   1.650   0.635  0.6677 -1.5708 -0.1994
  356SOL     OW10736   2.276   0.265   0.690  0.0910 -0.3537  0.0557
  356SOL    HW110737   2.242   0.184   0.737  2.0758 -0.4047  1.4901
  356SOL    HW210738   2.367   0.289   0.726  0.0321  1.8317 -1.1342
  357SOL     OW10739   3.576   3.350   1.764 -0.0877  0.5297 -0.0612
  357SOL    HW110740   3.646   3.421   1.776 -0.3676  0.5755  1.2519
  357SOL    HW210741   3.613   3.262   1.794  0.5047 -0.0317 -2.3307
  358SOL     OW10742   2.696   0.877   0.682  0.6752 -0.4030  0.7229
  358SOL    HW110743   2.638   0.825   0.619 -0.3541  0.4501  0.9541
  358SOL    HW210744   2.791   0.845   0.673 -0.0462 -2.9049  1.4942
  359SOL     OW10745   2.605   0.324   1.475 -0.2448  0.3800  0.5475
  359SOL    HW110746   2.557   0.286   1.554  1.5773 -1.6340  0.7591
  359SOL    HW210747   2.619   0.252   1.406 -1.0187  1.8834 -1.2361
  360SOL     OW10748   4.067   2.570   0.273  0.8742 -0.8447 -0.0584
  360SOL    HW110749   4.034   2.477   0.261  0.0374 -0.2706 -2.4164
  360SOL    HW210750   4.041   2.625   0.194  1.4599  1.3675  1.2514
  361SOL     OW10751   2.713   2.630   0.421  0.4646 -0.4532  0.0995
  361SOL    HW110752   2.654   2.690   0.475 -0.7225 -1.9898  0.5877
  361SOL    HW210753   2.764   2.683   0.354  0.0910  1.1803  1.0849
  362SOL     OW10754   2.256   1.464   1.719  0.3995 -0.5254 -0.3522
  362SOL    HW110755   2.180   1.446   1.781  0.2691 -0.7728 -0.5843
  362SOL    HW210756   2.226   1.450   1.625  0.5469  0.0300 -0.4825
  363SOL     OW10757   2.205   0.764   1.437  0.2111  0.2922  0.1141
  363SOL    HW110758   2.159   0.777   1.349 -1.0641 -0.7890  0.5918
  363SOL    HW210759   2.246   0.850   1.467  0.1133  0.8175 -1.2433
  364SOL     OW10760   3.867   2.801   2.287 -0.2744  0.3257 -0.3888
  364SOL    HW110761   3.835   2.734   2.220  0.6728 -1.1439  0.5988
  364SOL    HW210762   3.798   2.812   2.359 -1.5723  2.3766 -1.8916
  365SOL     OW10763   4.017   1.978   2.707 -0.8877  0.6609 -0.1878
  365SOL    HW110764   3.937   1.943   2.756 -0.0450  0.3686  0.9977
  365SOL    HW210765   4.071   1.901   2.673 -0.6413  0.8502 -0.2233
  366SOL     OW10766   2.991   3.221   1.448 -0.4928 -0.1859  0.3137
  366SOL    HW110767   2.931   3.150   1.487 -0.1810 -1.1532 -0.9316
  366SOL    HW210768   3.057   3.178   1.386  0.6689  1.0321  0.6926
  367SOL     OW10769   2.476   2.510   1.069 -0.1880  0.1958 -0.2012
  367SOL    HW110770   2.451   2.441   1.001  2.0433  0.7999 -1.6669
  367SOL    HW210771   2.400   2.574   1.081 -1.8327 -1.8282  0.3172
  368SOL     OW10772   3.568   0.279   1.675 -0.0836 -0.0884 -0.6096
  368SOL    HW110773   3.620   0.264   1.591  1.8855  0.6708  0.4436
  368SOL    HW210774   3.486   0.222   1.674  0.9749 -1.6217 -2.1364
  369SOL     OW10775   2.307   0.973   2.557 -0.0542  0.1506  0.1249
  369SOL    HW110776   2.208   0.974   2.542 -0.3265 -0.3654  1.7822
  369SOL    HW210777   2.354   0.985   2.469 -1.5738 -1.5103 -0.9540
  370SOL     OW10778   2.014   2.132   2.454 -0.3528  0.2682  0.4782
  370SOL    HW110779   1.930   2.077   2.446 -0.4548  0.2275  1.7044
  370SOL    HW210780   2.062   2.132   2.367 -1.1220 -0.5383  0.0408
  371SOL     OW10781   2.419   3.161   1.236  0.1532  0.1417 -0.2215
  371SOL    HW110782   2.516   3.178   1.219  0.5012  0.4433  1.9271
  371SOL    HW210783   2.363   3.216   1.174  1.3448  0.6563 -0.8445
  372SOL     OW10784   4.463   2.443   1.159 -0.0955 -0.3807 -0.4695
  372SOL    HW110785   4.416   2.359   1.133 -0.0937 -0.6800  0.4637
  372SOL    HW210786   4.399   2.505   1.205  0.6853 -1.3249  1.9613
  373SOL     OW10787   3.534   0.909   1.393 -0.2877 -0.3940 -0.0276
  373SOL    HW110788   3.501   0.980   1.332 -0.0013 -0.5639 -0.3792
  373SOL    HW210789   3.456   0.869   1.442 -0.3056  1.1405  1.2385
  374SOL     OW10790   3.666   3.550   0.613 -0.0633 -0.1621  0.8192
  374SOL    HW110791   3.658   3.471   0.674  0.1344  0.9463  2.3365
  374SOL    HW210792   3.749   3.601   0.637  0.4374 -0.1438 -0.9241
  375SOL     OW10793   2.960   3.708   0.941  0.3948 -0.1951  0.6347
  375SOL    HW110794   3.037   3.771   0.930  1.3468 -1.3505  0.6644
  375SOL    HW210795   2.918   3.692   0.852 -0.0376  0.7054  0.6679
  376SOL     OW10796   3.450   4.012   2.302  0.1521  0.0270 -0.5330
  376SOL    HW110797   3.464   4.092   2.243  2.7221 -0.0894 -0.1376
  376SOL    HW210798   3.534   3.957   2.305 -0.4925 -0.9200  1.8131
  377SOL     OW10799   3.897   1.860   1.019  0.2876 -0.2727 -0.0547
  377SOL    HW110800   3.845   1.929   0.968  0.8227  0.3436  0.2313
  377SOL    HW210801   3.961   1.814   0.958 -0.7793 -1.2358 -0.4765
  378SOL     OW10802   2.971   4.063   0.393  0.7153 -0.0897  0.3511
  378SOL    HW110803   2.981   4.035   0.297  1.8020 -0.9873  0.7126
  378SOL    HW210804   3.052   4.115   0.421  1.1854 -1.2991  1.2746
  379SOL     OW10805   4.155   2.734   1.008 -0.0628  0.3233  0.6237
  379SOL    HW110806   4.236   2.787   0.983  0.1063  1.4885  3.4275
  379SOL    HW210807   4.106   2.782   1.081 -1.9205 -1.6050  0.6775
  380SOL     OW10808   2.205   2.319   2.185 -0.7476 -0.0811 -0.7813
  380SOL    HW110809   2.232   2.223   2.179 -0.4956 -0.0490 -0.1893
  380SOL    HW210810   2.193   2.356   2.093 -0.5166 -0.5872 -1.0178
  381SOL     OW10811   2.975   3.515   1.972  0.1841 -0.0262 -0.7066
  381SOL    HW110812   3.069   3.544   1.958  0.0195  1.0341  0.2646
  381SOL    HW210813   2.972   3.418   1.994  1.2559  0.3649  1.3261
  382SOL     OW10814   3.399   2.372   1.492  0.6433  0.7881  0.5540
  382SOL    HW110815   3.349   2.334   1.570 -0.0397  0.4635 -0.0288
  382SOL    HW210816   3.489   2.329   1.485  0.5173  0.4704  0.8777
  383SOL     OW10817   2.556   2.092   0.408  0.4088  0.7047 -0.0868
  383SOL    HW110818   2.564   2.148   0.325 -0.4941  0.5922 -0.2580
  383SOL    HW210819   2.638   2.104   0.465  0.4936  1.7319 -0.4147
  384SOL     OW10820   3.260   3.383   2.320  0.8406 -0.2989  0.0993
  384SOL    HW110821   3.277   3.405   2.416  0.3286 -0.0695  0.1372
  384SOL    HW210822   3.162   3.369   2.305  1.0452 -1.6357 -0.1124
  385SOL     OW10823   3.298   3.896   1.469 -0.2663 -0.1241  0.2999
  385SOL    HW110824   3.352   3.838   1.530  0.0380  0.9588  1.0881
  385SOL    HW210825   3.204   3.900   1.502 -0.9067 -2.1844 -1.1962
  386SOL     OW10826   4.592   3.996   2.595 -0.6302 -0.3069  0.0724
  386SOL    HW110827   4.526   4.055   2.641 -1.1101 -1.9111  1.4856
  386SOL    HW210828   4.587   4.012   2.496 -0.8616  1.8722  0.4073
  387SOL     OW10829   3.467   8.932   1.413  0.0013  0.0668 -0.0963
  387SOL    HW110830   3.372   8.913   1.390  0.3693 -0.2843 -1.3557
  387SOL    HW210831   3.489   9.026   1.390 -0.2249  0.3624  0.8540
  388SOL     OW10832   3.703   2.326   1.766 -0.0153  0.1744  0.0184
  388SOL    HW110833   3.764   2.405   1.774 -1.6850  1.5359 -0.3609
  388SOL    HW210834   3.619   2.344   1.817 -0.7219 -1.0574 -0.7045
  389SOL     OW10835   3.104   2.865   0.119  0.3596 -0.3019 -0.3440
  389SOL    HW110836   3.151   2.951   0.096 -0.5352  0.5287  0.8757
  389SOL    HW210837   3.135   2.834   0.209 -2.1051  0.7806  0.9226
  390SOL     OW10838   2.333   2.891  -0.000 -0.6764  0.0085  0.6772
  390SOL    HW110839   2.294   2.846   0.080  0.1328 -1.4461  0.2692
  390SOL    HW210840   2.334   2.828  -0.077 -2.6358  1.7795 -0.8806
  391SOL     OW10841   2.117   2.374   0.725  0.1943 -0.0662 -0.3548
  391SOL    HW110842   2.067   2.416   0.650 -1.8746 -0.4125  0.7970
  391SOL    HW210843   2.188   2.436   0.757  0.8161  0.2526 -2.3032
  392SOL     OW10844   2.335   2.771   0.445 -0.2932  0.1766 -0.8868
  392SOL    HW110845   2.298   2.715   0.371 -0.6516 -2.3010  1.0936
  392SOL    HW210846   2.409   2.828   0.411 -0.2789 -1.1155 -3.0832
  393SOL     OW10847   3.542   1.470   0.362  0.1074 -0.5017  0.7967
  393SOL    HW110848   3.631   1.429   0.383 -0.1084 -0.7061  1.3145
  393SOL    HW210849   3.524   1.462   0.264  0.0923 -1.6040  0.8808
  394SOL     OW10850   2.383   9.973   2.290 -0.7800 -0.1533 -0.1531
  394SOL    HW110851   2.416   9.934   2.376  0.7809  0.1620 -0.5980
  394SOL    HW210852   2.327  10.053   2.310 -1.7866 -1.0453  0.6424
  395SOL     OW10853   4.768   1.410   0.429  0.0182 -0.2111  0.4377
  395SOL    HW110854   4.756   1.497   0.477 -1.5717  0.8409 -1.7681
  395SOL    HW210855   4.691   1.395   0.367  1.4273 -2.0818 -0.9261
  396SOL     OW10856   2.229   2.316   1.429 -0.2944  0.2726  0.3415
  396SOL    HW110857   2.312   2.352   1.386 -0.9920  0.7950 -0.5996
  396SOL    HW210858   2.159   2.302   1.359 -0.2845 -2.2504  0.7835
  397SOL     OW10859   2.489   2.625   0.092 -0.3017 -0.4814  0.1846
  397SOL    HW110860   2.531   2.713   0.072  0.5816 -1.1989 -1.2031
  397SOL    HW210861   2.548   2.552   0.058 -1.0742 -1.6052  1.2297
  398SOL     OW10862   3.496   0.581   0.375  0.5980 -0.3582 -0.9456
  398SOL    HW110863   3.449   0.575   0.463 -1.2736  0.9682 -1.8271
  398SOL    HW210864   3.582   0.632   0.387  0.4274 -0.3031  0.1198
  399SOL     OW10865   3.013   0.969   0.488 -0.0043  0.2662 -0.2324
  399SOL    HW110866   3.036   0.887   0.437  1.3103 -0.7552  1.9176
  399SOL    HW210867   3.025   0.952   0.586 -1.3045  2.5176  0.3518
  400SOL     OW10868   3.949   2.248   1.486 -1.3593 -0.3574 -0.1225
  400SOL    HW110869   3.978   2.233   1.391 -1.6323 -0.7398 -0.1465
  400SOL    HW210870   3.947   2.346   1.505 -0.0148 -0.3175 -0.1099
  401SOL     OW10871   3.715   9.565   0.111 -0.3108 -0.2554  0.0667
  401SOL    HW110872   3.741   9.568   0.014 -1.1267  0.5131 -0.1306
  401SOL    HW210873   3.641   9.499   0.124  0.5689 -1.2114  0.3669
  402SOL     OW10874   3.315   3.307   1.835 -0.5108 -0.0154 -0.2487
  402SOL    HW110875   3.286   3.341   1.925 -0.8948 -2.1779  0.4766
  402SOL    HW210876   3.409   3.337   1.817 -0.3013  0.1618  1.0470
  403SOL     OW10877   3.533   1.144   0.186 -0.7148  0.6033  0.0720
  403SOL    HW110878   3.435   1.154   0.202 -1.1796 -0.4559 -1.9486
  403SOL    HW210879   3.549   1.070   0.120  1.4220  0.9751  0.1356
  404SOL     OW10880   2.516   9.764   1.920  0.1172  0.1049  0.3845
  404SOL    HW110881   2.542   9.835   1.985 -0.4716  0.2584  0.4599
  404SOL    HW210882   2.533   9.674   1.960  0.3584  0.2032  0.4991
  405SOL     OW10883   3.821   0.711   2.199  0.3751  0.1568  0.1288
  405SOL    HW110884   3.905   0.757   2.229  0.4285  0.0104  0.2027
  405SOL    HW210885   3.779   0.764   2.124  1.0157 -0.2521 -0.5268
  406SOL     OW10886   3.182   1.927   2.502 -0.3026  0.1701  0.3486
  406SOL    HW110887   3.206   2.009   2.553 -1.5863  0.7805 -0.0072
  406SOL    HW210888   3.132   1.864   2.562  0.9212 -0.4997  0.7017
  407SOL     OW10889   3.379   8.600   1.622 -0.2126 -0.5552 -0.0809
  407SOL    HW110890   3.455   8.586   1.558  0.2920 -1.5285  0.7138
  407SOL    HW210891   3.295   8.566   1.581  0.4282 -2.9155  0.4731
  408SOL     OW10892   3.368   9.721   1.228 -0.1906 -0.1375 -0.8429
  408SOL    HW110893   3.296   9.659   1.259  0.7427 -1.3215 -1.0412
  408SOL    HW210894   3.407   9.769   1.307 -0.8954  0.1863 -0.6893
  409SOL     OW10895   2.738   3.585   0.132  0.6349  0.0024 -0.0670
  409SOL    HW110896   2.696   3.675   0.134  0.6627 -0.0211  2.2908
  409SOL    HW210897   2.777   3.563   0.221  2.5191 -1.4704 -1.1885
  410SOL     OW10898   3.438   4.113   0.221  0.6834 -0.2817 -0.1524
  410SOL    HW110899   3.473   4.120   0.314 -2.1361 -1.4659  1.0529
  410SOL    HW210900   3.375   4.035   0.215 -1.2125  1.3708 -2.3528
  411SOL     OW10901   4.345   1.455   2.341  0.0767  0.5641 -0.0309
  411SOL    HW110902   4.250   1.447   2.310 -0.6153 -0.1679  2.1361
  411SOL    HW210903   4.384   1.541   2.308 -1.7110  1.4084 -0.0035
  412SOL     OW10904   2.451   9.910   2.546 -0.0767  0.2662 -0.1527
  412SOL    HW110905   2.399   9.872   2.622  0.3231 -0.0931 -0.0646
  412SOL    HW210906   2.548   9.888   2.556  0.0775  0.8111 -0.3979
  413SOL     OW10907   3.464   3.356   1.493  0.6601 -0.3004  0.2098
  413SOL    HW110908   3.379   3.408   1.499  0.3042 -0.9004  0.4648
  413SOL    HW210909   3.485   3.316   1.583  1.5102  0.3067  0.2951
  414SOL     OW10910   3.734   2.496   1.277  0.3525 -0.2327  0.5499
  414SOL    HW110911   3.708   2.558   1.203  1.1869 -1.9168 -1.1769
  414SOL    HW210912   3.817   2.446   1.253  0.2168 -1.3750  2.3016
  415SOL     OW10913   3.695   9.239   2.219 -0.4189  0.8140  0.0401
  415SOL    HW110914   3.752   9.313   2.255  0.5680  0.7239 -1.3229
  415SOL    HW210915   3.639   9.202   2.293  0.9371  1.2338  1.3082
  416SOL     OW10916   2.527   2.714   0.701  0.1048  0.6750 -0.0696
  416SOL    HW110917   2.600   2.746   0.641 -0.0130  0.8247 -0.1352
  416SOL    HW210918   2.498   2.789   0.761 -0.0088  0.6231 -0.0597
  417SOL     OW10919   4.248   3.649   1.282  0.6977  0.1367 -0.2081
  417SOL    HW110920   4.202   3.735   1.257 -1.3336 -0.5463  1.0159
  417SOL    HW210921   4.223   3.578   1.216  0.1938 -0.1670  0.3034
  418SOL     OW10922   2.496   1.157   1.675  0.0824 -0.0094  0.2791
  418SOL    HW110923   2.555   1.221   1.724  0.5170 -0.9443  0.9919
  418SOL    HW210924   2.432   1.115   1.739 -1.9386  1.5930 -0.6136
  419SOL     OW10925   3.162   3.971   2.291  0.2763 -0.3074 -0.4931
  419SOL    HW110926   3.249   4.017   2.308 -0.4675  0.7941  0.3934
  419SOL    HW210927   3.126   3.934   2.377  0.7189 -2.3286 -1.1331
  420SOL     OW10928   2.593   9.548   0.067 -0.0746 -0.5109 -0.1367
  420SOL    HW110929   2.622   9.454   0.087 -0.7587 -1.2186 -2.3648
  420SOL    HW210930   2.645   9.583  -0.010 -1.4133  0.1234 -0.7532
  421SOL     OW10931   3.480   9.505   0.783 -0.0309 -0.0268  0.3151
  421SOL    HW110932   3.475   9.544   0.875 -1.3228 -2.5564  1.3614
  421SOL    HW210933   3.409   9.436   0.772  0.1315  0.2159 -2.5902
  422SOL     OW10934   2.556   0.293   2.430  0.3806  0.4233 -0.2209
  422SOL    HW110935   2.517   0.357   2.496  0.2108 -1.1860  1.2667
  422SOL    HW210936   2.482   0.253   2.376  0.2391 -0.5436  0.6946
  423SOL     OW10937   3.347   2.678   1.494 -0.9165 -0.0701  0.0494
  423SOL    HW110938   3.395   2.749   1.546 -1.6897  1.6495 -1.5274
  423SOL    HW210939   3.386   2.589   1.516 -0.5840  0.7027  2.8444
  424SOL     OW10940   3.083   8.816   0.717 -0.4156 -0.1556  0.3943
  424SOL    HW110941   3.047   8.776   0.801 -1.1323  0.5218  0.4217
  424SOL    HW210942   3.029   8.897   0.693  1.3637  1.1494  0.6656
  425SOL     OW10943   2.268   1.621   0.590 -0.2661 -0.3249  0.2884
  425SOL    HW110944   2.279   1.543   0.529 -1.4803 -0.5508  0.3435
  425SOL    HW210945   2.253   1.704   0.536  0.6960 -0.1816  0.2373
  426SOL     OW10946   4.076   2.870   1.222 -0.2499  0.1729 -0.4085
  426SOL    HW110947   4.123   2.954   1.252 -1.9158  1.1347 -0.4487
  426SOL    HW210948   3.997   2.853   1.280  1.5928 -2.9336  1.3412
  427SOL     OW10949   3.046   8.753   1.094  0.8124  0.1288  0.1646
  427SOL    HW110950   2.955   8.728   1.060  1.6193 -1.5420 -0.8504
  427SOL    HW210951   3.075   8.840   1.054 -0.2837  0.6039  0.4027
  428SOL     OW10952   2.234   3.197   0.285  0.2258 -0.3552  0.0427
  428SOL    HW110953   2.287   3.187   0.370  0.4153 -0.2192 -0.0571
  428SOL    HW210954   2.198   3.108   0.257  1.5221 -0.6946 -0.6057
  429SOL     OW10955   3.054   9.001   0.982 -0.3621 -0.2264 -0.3098
  429SOL    HW110956   2.972   9.058   0.995 -0.7273 -0.6683 -0.6419
  429SOL    HW210957   3.136   9.058   0.991 -0.7185  0.3036 -0.3843
  430SOL     OW10958   2.145   2.754   1.988  0.1053  0.6179 -0.7607
  430SOL    HW110959   2.237   2.774   2.022  0.5625 -1.9390 -0.3666
  430SOL    HW210960   2.080   2.822   2.023  1.4417  1.0194  0.9923
  431SOL     OW10961   2.568   3.866   0.150  0.0467  0.1241 -0.5358
  431SOL    HW110962   2.613   3.955   0.155  0.9107 -0.3206 -0.0514
  431SOL    HW210963   2.553   3.841   0.055 -2.5901  1.9465 -0.6271
  432SOL     OW10964   4.243   2.129   0.275  0.2226 -0.0660 -0.2276
  432SOL    HW110965   4.313   2.130   0.203  0.6112 -0.0145  0.1468
  432SOL    HW210966   4.261   2.203   0.339 -1.6140  1.5090 -1.4881
  433SOL     OW10967   3.350   0.404   0.106 -0.0513 -0.3932 -0.6622
  433SOL    HW110968   3.407   0.322   0.107 -0.9194 -1.0065 -1.2909
  433SOL    HW210969   3.405   0.483   0.080  1.0266 -0.5873  0.9261
  434SOL     OW10970   2.605   0.621   0.318  0.3622 -0.1259  0.2605
  434SOL    HW110971   2.594   0.697   0.255 -0.9782 -0.2893  0.2911
  434SOL    HW210972   2.553   0.638   0.402 -0.2353 -1.2182  0.1272
  435SOL     OW10973   2.973   3.736   2.121 -0.2869 -0.5438  0.5429
  435SOL    HW110974   2.964   3.654   2.063 -0.4931 -1.0735  1.3140
  435SOL    HW210975   3.029   3.804   2.074  1.3378 -1.7978  0.6264
  436SOL     OW10976   4.652   3.464   1.490 -0.2916  0.4000 -0.6816
  436SOL    HW110977   4.676   3.367   1.501 -1.1090  0.3086  0.3335
  436SOL    HW210978   4.623   3.480   1.395  0.6482 -0.1578 -1.0822
  437SOL     OW10979   4.223   2.530   0.852  0.5158  0.3039 -0.1204
  437SOL    HW110980   4.176   2.597   0.909  0.5397 -0.0355  0.2973
  437SOL    HW210981   4.275   2.468   0.910  1.3810  0.5964 -0.5677
  438SOL     OW10982   3.807   1.121   2.277  0.8538  0.2762 -0.4965
  438SOL    HW110983   3.765   1.063   2.207  2.2366 -0.6640 -0.5672
  438SOL    HW210984   3.771   1.096   2.367  0.5257  0.1677 -0.6543
  439SOL     OW10985   3.990   2.136   1.744 -0.1396 -0.1474  0.0114
  439SOL    HW110986   3.966   2.039   1.741 -1.0284  0.0839 -0.6473
  439SOL    HW210987   3.965   2.179   1.657  2.3195  0.2117 -0.5484
  440SOL     OW10988   3.586   3.445   0.099 -0.3795  0.3102 -0.3303
  440SOL    HW110989   3.602   3.482   0.191  1.1621  0.8215 -0.7977
  440SOL    HW210990   3.500   3.480   0.064 -0.6869  0.5933  0.6807
  441SOL     OW10991   2.677   1.150   0.763 -0.3187  0.4032  0.0083
  441SOL    HW110992   2.716   1.175   0.852  2.9130  0.7288 -1.4205
  441SOL    HW210993   2.695   1.054   0.745 -0.5502  0.4538 -0.4959
  442SOL     OW10994   2.714   2.179   0.153  0.6125  0.0278 -0.4523
  442SOL    HW110995   2.687   2.241   0.227  0.1445 -1.5975  0.7657
  442SOL    HW210996   2.638   2.170   0.088  0.0166 -0.6448  0.3229
  443SOL     OW10997   2.965   1.817   0.272  0.0125 -0.3657  0.0432
  443SOL    HW110998   3.004   1.785   0.359 -0.2050 -1.6122 -0.3152
  443SOL    HW210999   3.011   1.902   0.245  1.9440 -1.3697  0.0510
  444SOL     OW11000   3.520   2.494   2.153  0.6136  0.0793 -0.2900
  444SOL    HW111001   3.473   2.473   2.067 -0.0749 -1.3605  0.4297
  444SOL    HW211002   3.494   2.586   2.183 -1.9075 -0.7544  0.1935
  445SOL     OW11003   2.812   9.980   1.176  0.7089  0.1769  0.1873
  445SOL    HW111004   2.787   9.886   1.153 -2.1597  1.3540 -1.7863
  445SOL    HW211005   2.860  10.022   1.099  0.2616  0.9335  0.3196
  446SOL     OW11006   3.832   2.418   0.518  0.1433 -0.1818 -0.6495
  446SOL    HW111007   3.887   2.396   0.598  1.0673 -2.0942 -1.7705
  446SOL    HW211008   3.796   2.511   0.526  0.3194 -0.3055  1.9075
  447SOL     OW11009   3.886   4.670   1.445 -0.4380  0.2266 -0.5764
  447SOL    HW111010   3.968   4.695   1.393  0.3114 -0.0137  0.4887
  447SOL    HW211011   3.842   4.592   1.402  1.0319 -0.9501  0.0049
  448SOL     OW11012   3.706   4.316   2.089 -0.0086  0.0123 -0.1279
  448SOL    HW111013   3.663   4.297   2.001  0.6349 -1.1595 -0.2004
  448SOL    HW211014   3.776   4.386   2.079 -2.1185  2.2059  0.0531
  449SOL     OW11015   3.590   2.014   2.661  0.1436 -0.0848  0.1621
  449SOL    HW111016   3.623   2.097   2.617  3.7861 -1.3948  0.2692
  449SOL    HW211017   3.538   2.038   2.744 -0.1244  2.0905 -0.6108
  450SOL     OW11018   2.363   3.416   0.190 -0.1303 -0.3593 -0.4620
  450SOL    HW111019   2.306   3.340   0.220  0.4969 -0.7902 -0.3681
  450SOL    HW211020   2.309   3.476   0.130 -0.1357 -1.7988 -1.9479
  451SOL     OW11021   3.408   3.658   2.423 -0.5673  0.8244  0.4686
  451SOL    HW111022   3.478   3.593   2.394  1.3404  2.4577  1.2659
  451SOL    HW211023   3.328   3.651   2.363 -0.9130 -3.0536  1.2535
  452SOL     OW11024   3.027   9.492   0.561 -0.3669 -0.1094 -0.3740
  452SOL    HW111025   2.940   9.536   0.584 -1.3503 -1.9962 -0.3316
  452SOL    HW211026   3.009   9.413   0.503  1.2107 -1.2509  0.6543
  453SOL     OW11027   4.775   2.315   1.466  0.3746 -0.4914  0.2440
  453SOL    HW111028   4.831   2.369   1.529 -0.9928  0.6525  0.5014
  453SOL    HW211029   4.780   2.354   1.374 -1.9420  1.1293  0.7642
  454SOL     OW11030   4.247   3.204   0.575  0.4274 -0.3575 -0.4632
  454SOL    HW111031   4.283   3.296   0.580  1.4822 -0.8622  1.4251
  454SOL    HW211032   4.168   3.195   0.636 -0.6845 -0.2531 -1.8728
  455SOL     OW11033   3.989   1.667   0.543  0.2339 -0.5087 -0.2611
  455SOL    HW111034   3.983   1.699   0.448  1.4428 -0.0776 -0.2031
  455SOL    HW211035   3.899   1.672   0.586  0.0572  1.1178 -0.8060
  456SOL     OW11036   4.021   3.591   2.020 -0.3749 -0.3810  1.2872
  456SOL    HW111037   4.018   3.560   1.925 -1.6637  0.6022  0.9930
  456SOL    HW211038   4.084   3.669   2.027  0.0436 -0.7207  1.3239
  457SOL     OW11039   3.021   9.285   0.765  0.2755  0.8632  0.4984
  457SOL    HW111040   3.062   9.327   0.846 -0.2559  2.2108  0.0799
  457SOL    HW211041   3.019   9.351   0.690 -0.5847  0.0977 -0.1737
  458SOL     OW11042   2.943   2.488   1.044  0.1256 -0.3745 -0.2441
  458SOL    HW111043   2.932   2.476   0.945  1.3378 -1.7188 -0.2334
  458SOL    HW211044   2.854   2.476   1.088 -0.2304 -0.8476 -1.0725
  459SOL     OW11045   3.917   3.167   0.730 -0.0403 -0.5049  0.1967
  459SOL    HW111046   3.971   3.237   0.683 -2.1265  0.3043 -1.0795
  459SOL    HW211047   3.881   3.204   0.816 -0.7458 -0.1480 -0.2461
  460SOL     OW11048   3.388   3.178   1.120  0.7939  0.2471  0.2501
  460SOL    HW111049   3.344   3.131   1.044  0.9511  0.9124 -0.2611
  460SOL    HW211050   3.336   3.164   1.203 -0.8250  1.6561 -0.4887
  461SOL     OW11051   2.687   3.154   0.290 -0.1980  0.1472 -0.1149
  461SOL    HW111052   2.762   3.095   0.259 -0.6672 -0.4958 -0.0456
  461SOL    HW211053   2.651   3.206   0.212  0.2599  0.3911 -0.1637
  462SOL     OW11054   3.374   2.987   2.558  0.2425  0.2928  0.2347
  462SOL    HW111055   3.462   2.968   2.515  0.3283 -1.6076  1.1936
  462SOL    HW211056   3.310   3.020   2.488  1.2918  0.3240 -0.7344
  463SOL     OW11057   2.098   1.717   0.363  0.2579  0.4019 -0.3145
  463SOL    HW111058   2.092   1.649   0.290  0.5671 -0.5810  0.5563
  463SOL    HW211059   2.093   1.671   0.452 -1.4587  1.7031  0.2864
  464SOL     OW11060   3.346   3.662   0.775 -0.2957  0.1293 -0.7473
  464SOL    HW111061   3.276   3.652   0.847  1.3907  0.8467  1.0494
  464SOL    HW211062   3.428   3.613   0.802  0.7266  1.2991 -1.6837
  465SOL     OW11063   2.552   9.284   0.606  0.2751 -0.5019  0.0212
  465SOL    HW111064   2.462   9.253   0.577 -0.1274  0.3119  0.3786
  465SOL    HW211065   2.557   9.287   0.706  0.4652  0.0988 -0.0005
  466SOL     OW11066   3.654   1.704   0.246  0.1445 -0.3537  0.3835
  466SOL    HW111067   3.631   1.654   0.330  1.5328 -0.0733  0.9548
  466SOL    HW211068   3.571   1.722   0.194 -0.4969 -2.3867  0.6530
  467SOL     OW11069   3.790   2.611   2.100  0.1801 -1.2106 -0.1478
  467SOL    HW111070   3.824   2.568   2.017  0.0990  2.7881 -2.3792
  467SOL    HW211071   3.691   2.596   2.108 -0.0734 -0.3834 -1.6011
  468SOL     OW11072   3.505   1.552   0.973 -0.4646  0.1969 -0.2727
  468SOL    HW111073   3.515   1.463   0.929  1.4169  0.5974 -0.6831
  468SOL    HW211074   3.578   1.565   1.040 -0.4016  1.6432 -0.6029
  469SOL     OW11075   3.316   1.125   0.562 -0.4416  0.6791 -0.0603
  469SOL    HW111076   3.300   1.164   0.472 -0.3578  0.3316 -0.2262
  469SOL    HW211077   3.231   1.123   0.614 -0.4753  0.9424 -0.1075
  470SOL     OW11078   2.963   3.190   1.722  0.3670 -0.0248  0.6752
  470SOL    HW111079   2.882   3.140   1.691 -2.3502  2.4244  3.4670
  470SOL    HW211080   2.995   3.251   1.650  0.3500 -1.7311 -0.7927
  471SOL     OW11081   3.651   2.298   1.449  0.1495  0.1162 -0.5825
  471SOL    HW111082   3.674   2.377   1.392  0.5833  0.4858  0.0896
  471SOL    HW211083   3.731   2.272   1.503 -0.1953 -0.3492 -0.2910
  472SOL     OW11084   3.788   1.873   0.085  0.0653 -0.1759  0.2345
  472SOL    HW111085   3.746   1.787   0.116  0.8973 -1.2403 -1.4807
  472SOL    HW211086   3.721   1.924   0.030 -0.8884  0.9666  2.3957
  473SOL     OW11087   2.161   2.027   1.592  0.2395 -0.0934 -0.9497
  473SOL    HW111088   2.177   1.958   1.521 -1.1765  0.2809 -1.6500
  473SOL    HW211089   2.143   2.115   1.549 -1.3866 -0.0198 -0.1602
  474SOL     OW11090   3.074   3.047   2.210  0.1607 -0.3002 -0.1333
  474SOL    HW111091   3.088   2.952   2.235  2.5267 -0.4292 -1.8207
  474SOL    HW211092   3.089   3.105   2.290  1.7382 -1.1319  0.1912
  475SOL     OW11093   3.766   4.519   1.834  0.5746 -0.3644  0.2776
  475SOL    HW111094   3.782   4.606   1.788  0.5716 -0.6176 -0.2103
  475SOL    HW211095   3.821   4.514   1.917  1.4294 -0.3641 -0.2840
  476SOL     OW11096   4.313   4.584   0.734  0.2820  0.0151  0.2123
  476SOL    HW111097   4.381   4.526   0.689 -0.4705 -0.5621 -0.1988
  476SOL    HW211098   4.353   4.626   0.815  1.1829 -0.1665 -0.1362
  477SOL     OW11099   4.097   2.043   2.409 -0.1962 -0.4469  0.1503
  477SOL    HW111100   4.193   2.030   2.382 -0.2965  1.0138 -0.9446
  477SOL    HW211101   4.094   2.078   2.503  0.5663  3.6006 -1.2302
  478SOL     OW11102   3.280   0.311   1.518  0.1717  0.2989  0.0604
  478SOL    HW111103   3.265   0.240   1.586  1.9094  1.1122  1.3277
  478SOL    HW211104   3.348   0.280   1.451 -0.3816  0.0969 -0.4116
  479SOL     OW11105   2.948   2.134   1.056  0.4551  0.0059 -0.6693
  479SOL    HW111106   2.947   2.046   1.104 -1.1073  1.1736  1.5000
  479SOL    HW211107   3.021   2.191   1.092 -1.2179  1.1845  0.9344
  480SOL     OW11108   2.833   3.162   0.719 -0.0770  0.5396  0.5954
  480SOL    HW111109   2.891   3.193   0.794  1.1495 -0.7685  0.2076
  480SOL    HW211110   2.872   3.079   0.679 -0.9987  0.9431 -1.1641
  481SOL     OW11111   3.200   3.135   0.933 -0.2095 -0.2335 -0.5226
  481SOL    HW111112   3.199   3.201   0.859 -1.2813  1.8495  1.2866
  481SOL    HW211113   3.107   3.126   0.971  0.6569  0.1391  1.7676
  482SOL     OW11114   4.368   2.610   2.420 -0.5307  0.0949  0.2385
  482SOL    HW111115   4.365   2.510   2.417  1.0416  0.0044  1.2669
  482SOL    HW211116   4.458   2.641   2.391  0.0349  1.0681  2.9962
  483SOL     OW11117   4.439   4.003   0.345 -0.3440  0.2002 -0.4672
  483SOL    HW111118   4.386   3.956   0.416 -1.5368  2.6634  0.3050
  483SOL    HW211119   4.400   3.983   0.255 -0.6457 -0.5276 -0.1766
  484SOL     OW11120   3.460   0.496   2.557  0.0074 -0.1705 -0.1193
  484SOL    HW111121   3.392   0.558   2.518  1.0053  0.0464 -1.5100
  484SOL    HW211122   3.539   0.548   2.589  1.5035 -0.8177 -2.6444
  485SOL     OW11123   2.258   2.304   1.703 -0.5318  0.0351  0.2323
  485SOL    HW111124   2.183   2.261   1.754  0.8762 -2.4435  0.2753
  485SOL    HW211125   2.241   2.294   1.605 -0.7661  0.3904  0.2358
  486SOL     OW11126   3.091   2.019   2.222  0.0168 -0.6808 -0.3714
  486SOL    HW111127   3.152   2.004   2.300 -2.3586 -2.2919  1.2659
  486SOL    HW211128   3.131   1.977   2.140  0.6233 -2.6807  0.9022
  487SOL     OW11129   4.517   3.394   0.796  0.6283 -0.0502  0.1687
  487SOL    HW111130   4.445   3.415   0.730  0.5632  1.0256  0.5678
  487SOL    HW211131   4.528   3.295   0.803 -0.2497 -0.2038 -0.4937
  488SOL     OW11132   3.104   2.759   0.854 -0.1180 -0.0773 -0.8850
  488SOL    HW111133   3.138   2.667   0.872 -3.4663 -0.9271  1.6358
  488SOL    HW211134   3.167   2.826   0.893  1.6841 -1.2856 -1.6206
  489SOL     OW11135   3.106   3.550   0.642 -0.2227 -0.4588  0.1629
  489SOL    HW111136   3.188   3.595   0.677 -0.0046  0.7449 -1.8317
  489SOL    HW211137   3.029   3.613   0.646 -0.8097 -1.2142  0.9693
  490SOL     OW11138   2.791   3.011   2.093 -0.1613  0.8967 -0.3045
  490SOL    HW111139   2.857   2.938   2.110 -0.7058  0.5596  0.3968
  490SOL    HW211140   2.700   2.971   2.081 -0.2056  1.3377 -1.5161
  491SOL     OW11141   3.338   2.141   1.323 -0.5799 -0.4083  0.1902
  491SOL    HW111142   3.296   2.229   1.345  0.6255  0.2435 -0.0862
  491SOL    HW211143   3.324   2.122   1.225  0.6012  0.2757 -0.1210
  492SOL     OW11144   3.552   2.693   0.552 -0.0842  0.0745 -0.7351
  492SOL    HW111145   3.616   2.684   0.628  0.9183 -2.2809 -1.8079
  492SOL    HW211146   3.571   2.778   0.502 -0.9996  1.8351  1.7987
  493SOL     OW11147   2.572   0.611   2.408 -0.1149 -0.0190  0.0054
  493SOL    HW111148   2.617   0.665   2.478 -1.0530  0.3578  0.3239
  493SOL    HW211149   2.640   0.576   2.344  0.5671  0.9948  0.1695
  494SOL     OW11150   3.504   1.259   1.374  0.2321  0.8626 -0.0288
  494SOL    HW111151   3.469   1.209   1.295  1.3936  2.3226 -1.5014
  494SOL    HW211152   3.428   1.292   1.430 -0.6258  0.5201 -0.9801
  495SOL     OW11153   2.750   9.627   0.902  0.1637 -0.1049 -0.2617
  495SOL    HW111154   2.783   9.596   0.813  0.8413 -1.9611  0.5890
  495SOL    HW211155   2.818   9.687   0.943 -0.2217  0.8814 -1.0607
  496SOL     OW11156   3.281   9.112   0.483  0.0943 -0.1102  0.5312
  496SOL    HW111157   3.351   9.137   0.417  0.6862  0.5191  1.3850
  496SOL    HW211158   3.325   9.070   0.563 -0.5527 -0.2438  0.8168
  497SOL     OW11159   2.968   0.785   1.292  0.3027  0.6005  0.0824
  497SOL    HW111160   2.914   0.706   1.264  0.1463  0.0920  1.7661
  497SOL    HW211161   2.946   0.809   1.387  0.7742  2.3073 -0.2214
  498SOL     OW11162   4.166   4.087   1.915  0.1189  1.2189 -0.0113
  498SOL    HW111163   4.210   4.069   2.004 -1.0760 -0.0591  0.3497
  498SOL    HW211164   4.216   4.038   1.843  0.2972  1.1572  0.1513
  499SOL     OW11165   3.181   2.014   0.301  0.5049  0.0657 -0.6668
  499SOL    HW111166   3.234   1.969   0.372  2.8118  1.6959 -1.2794
  499SOL    HW211167   3.140   2.098   0.337 -0.8332 -0.6604 -0.4719
  500SOL     OW11168   2.948   2.468   0.078 -0.6029 -0.3528  0.1804
  500SOL    HW111169   2.980   2.377   0.051 -0.2788  0.1828 -1.3047
  500SOL    HW211170   2.849   2.474   0.062 -0.4739 -0.1603 -0.5815
  501SOL     OW11171   2.602   1.275   0.541  0.0610  0.0349  0.0202
  501SOL    HW111172   2.669   1.297   0.470 -0.1642  0.8806  0.0659
  501SOL    HW211173   2.647   1.226   0.615  0.7880  1.1976  0.3645
  502SOL     OW11174   2.683   1.346   2.585 -0.3225 -0.8504 -0.3650
  502SOL    HW111175   2.699   1.430   2.637 -0.5453 -0.6471 -0.6173
  502SOL    HW211176   2.700   1.364   2.488  0.9750 -1.4655 -0.2580
  503SOL     OW11177   4.126   0.865   1.991 -0.0049  0.5904 -0.1131
  503SOL    HW111178   4.149   0.927   1.916  0.3964 -0.9151 -1.2297
  503SOL    HW211179   4.131   0.771   1.960 -1.2196  0.0029  1.4274
  504SOL     OW11180   4.905   3.859   2.292 -0.4753  0.5388 -0.0696
  504SOL    HW111181   4.905   3.946   2.341 -0.1050  0.0443  0.8147
  504SOL    HW211182   4.842   3.795   2.337  0.3032 -0.1062  0.1070
  505SOL     OW11183   3.828   9.205   0.937 -0.4643 -0.0727 -0.5745
  505SOL    HW111184   3.810   9.109   0.957  0.2502 -0.2172 -0.6087
  505SOL    HW211185   3.767   9.236   0.864 -0.7770 -0.4652 -0.4807
  506SOL     OW11186   2.858   2.742   0.785  0.3582 -0.0456 -0.5258
  506SOL    HW111187   2.802   2.798   0.846  0.1483 -0.0562 -0.7110
  506SOL    HW211188   2.953   2.745   0.816  0.1743 -0.4512  0.1056
  507SOL     OW11189   4.506   1.536   1.546  0.2219  0.4283  0.0232
  507SOL    HW111190   4.546   1.597   1.614 -0.3938  0.6144  0.2235
  507SOL    HW211191   4.515   1.576   1.455  0.9211  0.2439  0.0066
  508SOL     OW11192   3.014   2.429   1.516  0.7780 -0.3125 -0.3654
  508SOL    HW111193   2.919   2.458   1.522  0.7413 -0.1372 -1.6454
  508SOL    HW211194   3.033   2.361   1.587  0.1713  0.9264  0.9998
  509SOL     OW11195   2.737   9.876   2.575 -0.9382 -0.4795 -0.2670
  509SOL    HW111196   2.778   9.882   2.484 -0.8164 -1.6058 -0.3047
  509SOL    HW211197   2.768   9.792   2.619  1.0752  1.3193  1.8573
  510SOL     OW11198   3.365   0.249   2.268  0.1728  0.3860 -0.3621
  510SOL    HW111199   3.320   0.335   2.243  0.4377  0.4264 -0.6966
  510SOL    HW211200   3.340   0.225   2.362 -0.2065  0.6297 -0.3982
  511SOL     OW11201   3.386   3.404   0.948 -0.0757  0.1659 -0.2071
  511SOL    HW111202   3.298   3.452   0.955 -0.5576 -0.6811 -0.3354
  511SOL    HW211203   3.381   3.318   0.998  0.1520 -0.6449 -1.5394
  512SOL     OW11204   2.194   2.054   2.251  0.5262 -0.3379 -0.0173
  512SOL    HW111205   2.205   1.963   2.291  1.3729 -0.7942 -1.2640
  512SOL    HW211206   2.195   2.047   2.152 -0.3791  0.9281 -0.1243
  513SOL     OW11207   3.377   0.678   1.272  0.1251 -0.3390  0.1190
  513SOL    HW111208   3.400   0.622   1.351 -1.1190  1.5725  1.8986
  513SOL    HW211209   3.439   0.756   1.266  0.1146 -0.3819 -0.7032
  514SOL     OW11210   2.793   8.802   0.856 -0.0592  0.2943  0.2994
  514SOL    HW111211   2.751   8.759   0.776  1.3555 -0.2031 -0.1857
  514SOL    HW211212   2.831   8.891   0.830  2.0380 -0.6687 -0.0498
  515SOL     OW11213   2.793   3.654   1.498 -0.3726  0.2534 -0.4667
  515SOL    HW111214   2.720   3.721   1.513  1.0571  1.7223 -0.0395
  515SOL    HW211215   2.863   3.665   1.568  0.0331 -1.5047 -0.5691
  516SOL     OW11216   2.438   0.517   2.002 -1.0589 -0.2539  0.7761
  516SOL    HW111217   2.381   0.529   2.083  0.3458 -0.7875  1.8684
  516SOL    HW211218   2.497   0.597   1.990 -1.4981 -0.0288  0.0795
  517SOL     OW11219   3.535   3.989   1.304  0.6078  0.2215 -0.5475
  517SOL    HW111220   3.517   3.949   1.214 -0.0573  1.5955 -1.0506
  517SOL    HW211221   3.448   4.003   1.352  0.8387  0.9226 -0.3288
  518SOL     OW11222   4.192   3.971   0.813 -0.0604 -0.1377  0.1999
  518SOL    HW111223   4.121   3.902   0.826 -2.3363  2.0373 -0.1893
  518SOL    HW211224   4.179   4.046   0.879  0.6624  1.2270 -1.1629
  519SOL     OW11225   3.783   1.937   0.783  1.0736  0.1763  0.0116
  519SOL    HW111226   3.749   1.856   0.735 -0.0377  0.5048  0.2267
  519SOL    HW211227   3.881   1.948   0.765  1.6136 -2.1545  1.3229
  520SOL     OW11228   2.447   1.214   2.655 -0.2053 -0.5587 -0.0014
  520SOL    HW111229   2.539   1.244   2.626 -0.1307  0.1825  0.9778
  520SOL    HW211230   2.407   1.157   2.583  0.7993 -0.4282 -0.6838
  521SOL     OW11231   2.578   9.935   2.113 -0.2491  0.4307 -0.8621
  521SOL    HW111232   2.497   9.947   2.171 -1.0349  0.4462 -1.9520
  521SOL    HW211233   2.653   9.899   2.169 -2.3022 -4.0139 -0.6993
  522SOL     OW11234   2.998   1.840   1.944 -0.0409  0.2944 -0.7865
  522SOL    HW111235   2.936   1.858   1.867  0.1607 -1.0977 -1.2914
  522SOL    HW211236   2.948   1.793   2.017 -0.2149  1.5499 -0.0784
  523SOL     OW11237   3.818   9.835   1.195  0.1112 -0.2662  0.3480
  523SOL    HW111238   3.881   9.767   1.158  0.7847  1.1265 -1.1671
  523SOL    HW211239   3.770   9.881   1.119  0.3323  1.5472  1.2657
  524SOL     OW11240   3.536   1.321   0.838 -0.3655  0.0372 -0.7040
  524SOL    HW111241   3.478   1.240   0.839 -2.0721  1.2466 -0.7181
  524SOL    HW211242   3.629   1.295   0.813 -0.9105 -1.9061 -0.7473
  525SOL     OW11243   3.016   0.838   1.567 -0.2687  0.1528  0.1540
  525SOL    HW111244   3.059   0.927   1.553  2.0831 -0.7807  1.1390
  525SOL    HW211245   2.935   0.849   1.624  0.9354  1.4521  1.6625
  526SOL     OW11246   2.048   1.158   1.436  0.3172  0.4224 -0.1862
  526SOL    HW111247   2.127   1.108   1.472 -0.2688 -0.8638 -0.6702
  526SOL    HW211248   2.040   1.245   1.484  0.6208 -0.4702  1.5445
  527SOL     OW11249   3.572   0.145   1.085 -0.4893  0.1602  0.0544
  527SOL    HW111250   3.584   0.057   1.038  3.3424  1.1491 -0.9714
  527SOL    HW211251   3.557   0.217   1.017 -0.3745  0.8021  0.7128
  528SOL     OW11252   2.593   2.189   1.968  0.4655  0.0702  0.1083
  528SOL    HW111253   2.656   2.150   1.901  0.5142  0.6275 -0.1698
  528SOL    HW211254   2.624   2.166   2.060  1.3671  0.7844 -0.0079
  529SOL     OW11255   2.467   2.291   0.918 -0.1882  0.2537  0.2968
  529SOL    HW111256   2.567   2.288   0.910  0.1310 -0.8211  3.7036
  529SOL    HW211257   2.428   2.210   0.875  0.7711 -1.3732  2.3475
  530SOL     OW11258   2.785   1.859   2.692 -0.1522 -0.6038  0.6007
  530SOL    HW111259   2.742   1.863   2.783  0.2365 -0.0481  0.7681
  530SOL    HW211260   2.746   1.931   2.634 -1.3973 -1.8401 -0.1279
  531SOL     OW11261   3.584   3.468   2.347 -0.2450 -0.0300 -0.1335
  531SOL    HW111262   3.620   3.479   2.254  0.7789 -0.0595  0.2606
  531SOL    HW211263   3.637   3.399   2.396  0.1672  1.0596  0.9711
  532SOL     OW11264   3.206   3.816   1.222 -0.4788  0.2615  0.2750
  532SOL    HW111265   3.112   3.784   1.239  0.0645 -2.3624 -1.3321
  532SOL    HW211266   3.239   3.865   1.303 -2.8362  0.2250  1.3094
  533SOL     OW11267   3.400   1.849   0.887  0.0982  0.1186  0.3787
  533SOL    HW111268   3.478   1.883   0.835  0.3057 -1.3001 -0.2695
  533SOL    HW211269   3.429   1.775   0.947 -0.6118  0.0357  0.6289
  534SOL     OW11270   3.050   3.820   2.501  0.0865 -0.4853 -0.2212
  534SOL    HW111271   3.071   3.741   2.443  0.8273  0.3395 -1.0917
  534SOL    HW211272   2.960   3.856   2.477  0.1588 -0.4796 -0.4881
  535SOL     OW11273   3.433   9.455   0.419 -0.2730  0.5896  0.0091
  535SOL    HW111274   3.384   9.478   0.503 -2.7181 -0.5834 -1.0134
  535SOL    HW211275   3.381   9.488   0.340  0.4799 -0.8695 -1.1356
  536SOL     OW11276   2.578   0.056   0.647 -0.2671  0.3194  1.0148
  536SOL    HW111277   2.530   0.057   0.559  3.0293  0.5778 -0.8724
  536SOL    HW211278   2.512   0.047   0.721 -3.0272 -1.6651 -1.5600
  537SOL     OW11279   2.514   1.600   2.319 -0.1676  0.4447  1.0775
  537SOL    HW111280   2.466   1.620   2.233 -1.2404 -1.6096  1.1689
  537SOL    HW211281   2.447   1.571   2.387  0.9194  0.1431  2.0216
  538SOL     OW11282   2.323   1.185   2.360 -0.2772 -0.4154  0.1476
  538SOL    HW111283   2.335   1.265   2.301 -0.6318 -0.7267 -0.3549
  538SOL    HW211284   2.233   1.187   2.402 -0.6573 -1.0233 -0.6082
  539SOL     OW11285   4.476   4.432   0.527  0.0422 -0.0689  0.4853
  539SOL    HW111286   4.483   4.335   0.508 -3.1494 -0.3509  0.6000
  539SOL    HW211287   4.480   4.484   0.442 -3.1629 -0.6397 -0.0599
  540SOL     OW11288   2.862   2.735   2.057  0.3623  0.6332  0.4984
  540SOL    HW111289   2.887   2.679   2.135  0.1555 -2.4418 -1.5635
  540SOL    HW211290   2.806   2.681   1.994  1.8211  2.5561 -2.5322
  541SOL     OW11291   3.913   4.017   1.978  0.7917  0.4660 -0.3104
  541SOL    HW111292   4.012   4.027   1.971  0.7873  0.3943 -0.4797
  541SOL    HW211293   3.879   4.068   2.057  0.9492  0.5842 -0.3205
  542SOL     OW11294   3.964   3.192   1.432  0.6905  0.7696  0.4264
  542SOL    HW111295   3.978   3.186   1.531 -1.4734 -0.5360  0.7130
  542SOL    HW211296   3.866   3.191   1.413  1.0914 -2.5467 -1.8882
  543SOL     OW11297   4.524   2.616   0.955  0.2669 -0.1139 -0.2884
  543SOL    HW111298   4.612   2.661   0.973  0.4015 -0.7186  0.6016
  543SOL    HW211299   4.513   2.539   1.018 -0.0233 -1.2391 -1.7095
  544SOL     OW11300   3.170   2.781   2.310  0.1347  0.1782  0.7736
  544SOL    HW111301   3.121   2.697   2.287 -1.8654  1.5423 -0.1329
  544SOL    HW211302   3.169   2.794   2.409  0.6354 -0.9587  0.9364
  545SOL     OW11303   2.242   0.489   0.537 -0.1972 -0.1522  0.2637
  545SOL    HW111304   2.241   0.400   0.582  1.5032 -0.0504  0.5600
  545SOL    HW211305   2.245   0.561   0.606 -2.2915  0.1728  0.0379
  546SOL     OW11306   3.664   3.875   2.251 -0.0973 -0.3552 -0.0057
  546SOL    HW111307   3.708   3.812   2.187  0.2741 -0.8016  0.6756
  546SOL    HW211308   3.685   3.847   2.345 -2.6622 -1.1990  0.3600
  547SOL     OW11309   4.808   2.847   1.621 -0.6062 -0.3258 -0.0217
  547SOL    HW111310   4.739   2.884   1.682 -1.3115 -1.8970  0.1648
  547SOL    HW211311   4.899   2.860   1.660 -1.0093 -0.7131  1.0465
  548SOL     OW11312   2.990   3.240   1.978 -0.2395 -0.0425 -0.4960
  548SOL    HW111313   2.982   3.209   1.883  0.1670 -2.0075  0.0925
  548SOL    HW211314   2.986   3.161   2.039  2.6370  0.9041  0.9635
  549SOL     OW11315   2.311   3.126   0.530  0.3964  0.0447 -0.2779
  549SOL    HW111316   2.274   3.033   0.523  0.0045  0.2261 -0.6406
  549SOL    HW211317   2.351   3.140   0.621  0.0590 -0.3310 -0.0726
  550SOL     OW11318   3.796   3.786   1.948  0.0753  0.9862  0.0939
  550SOL    HW111319   3.868   3.716   1.953 -1.6698 -1.0215 -1.9550
  550SOL    HW211320   3.838   3.876   1.953  2.6876 -0.1519 -0.2630
  551SOL     OW11321   4.378   3.286   1.415 -0.0721  0.7979 -0.1046
  551SOL    HW111322   4.401   3.368   1.363  0.9977  0.4233 -0.2340
  551SOL    HW211323   4.393   3.304   1.513  0.8640  0.5285 -0.1959
  552SOL     OW11324   3.255   2.148   2.632  0.1600 -0.0284  0.2670
  552SOL    HW111325   3.227   2.212   2.561  0.4975 -0.1102  0.0599
  552SOL    HW211326   3.345   2.174   2.668 -0.6543  0.8898  1.7172
  553SOL     OW11327   3.340   0.942   1.778 -0.2822 -0.0108  0.0915
  553SOL    HW111328   3.329   0.937   1.679 -0.1558 -1.8338  0.1623
  553SOL    HW211329   3.408   1.012   1.800  2.1872 -1.9035 -1.2891
  554SOL     OW11330   3.155   9.129   1.277 -0.1544 -0.2049  0.9435
  554SOL    HW111331   3.214   9.050   1.265 -0.4616 -0.3999  0.6881
  554SOL    HW211332   3.199   9.210   1.239 -0.8315 -0.6978 -0.9355
  555SOL     OW11333   2.660   1.538   0.291  0.0836 -0.2657 -0.3014
  555SOL    HW111334   2.694   1.459   0.341 -0.0300 -0.3800 -0.4034
  555SOL    HW211335   2.579   1.574   0.338 -0.2015 -0.5566 -0.5697
  556SOL     OW11336   3.094   8.796   1.530  0.1175  0.5051  0.1627
  556SOL    HW111337   3.088   8.823   1.626 -1.1045 -0.7145  0.4394
  556SOL    HW211338   3.026   8.846   1.476 -0.9620 -0.7362  0.3766
  557SOL     OW11339   3.703   4.427   2.360 -0.5419 -0.0062  0.1855
  557SOL    HW111340   3.706   4.349   2.422  0.0989  0.4410  0.7235
  557SOL    HW211341   3.653   4.402   2.277  0.5236 -1.2809 -0.0781
  558SOL     OW11342   4.154   4.169   0.027 -0.1402 -0.1132  0.4682
  558SOL    HW111343   4.068   4.217   0.040  0.0227  0.1451  0.6067
  558SOL    HW211344   4.145   4.103  -0.047  0.2385  1.6429 -1.2102
  559SOL     OW11345   3.534   4.167   0.904 -0.4003  0.2223 -0.3705
  559SOL    HW111346   3.478   4.114   0.840 -1.3220  1.2634 -0.4385
  559SOL    HW211347   3.522   4.131   0.996 -0.1915 -0.3661 -0.5716
  560SOL     OW11348   3.783   1.972   2.146  0.6018  0.7662 -0.4217
  560SOL    HW111349   3.692   1.969   2.187  0.7340  0.6547 -0.1359
  560SOL    HW211350   3.838   2.041   2.193  1.6559 -1.2860  1.4625
  561SOL     OW11351   3.218   1.740   1.336  0.2585 -0.0247 -0.1478
  561SOL    HW111352   3.229   1.689   1.250  2.1456  1.7178 -0.9904
  561SOL    HW211353   3.307   1.747   1.381 -0.7550 -1.0869  2.0860
  562SOL     OW11354   3.475   2.742   2.253 -0.1940  0.0619  0.2719
  562SOL    HW111355   3.534   2.770   2.329 -0.1119 -0.9072  0.5718
  562SOL    HW211356   3.383   2.780   2.267 -0.2679 -0.3749  1.0345
  563SOL     OW11357   3.624   9.037   1.085 -0.4978  0.2518 -0.0401
  563SOL    HW111358   3.679   9.082   1.155 -0.0436 -0.9935  0.4176
  563SOL    HW211359   3.675   8.960   1.047 -1.1401  0.3034 -1.0253
  564SOL     OW11360   2.326   2.710   2.508 -0.0055  0.0781 -0.6253
  564SOL    HW111361   2.423   2.706   2.485 -0.0050 -1.0173 -0.4608
  564SOL    HW211362   2.278   2.633   2.466 -0.5036 -0.3179  0.6363
  565SOL     OW11363   3.800   8.826   0.935 -0.2788  0.2087  0.1359
  565SOL    HW111364   3.752   8.743   0.965 -1.3541  1.0000  0.6219
  565SOL    HW211365   3.862   8.857   1.007  0.6941 -0.5885 -0.3392
  566SOL     OW11366   1.893   1.887   1.200  0.2400  0.0720 -0.1200
  566SOL    HW111367   1.916   1.984   1.200 -2.0540  0.6528 -1.0205
  566SOL    HW211368   1.880   1.855   1.106  0.8113 -1.0751  0.1746
  567SOL     OW11369   3.172   0.725   2.108  0.3399 -0.1944 -0.1117
  567SOL    HW111370   3.118   0.695   2.029  2.3320 -2.3726 -0.7023
  567SOL    HW211371   3.239   0.793   2.078  0.0126  0.2007  0.0406
  568SOL     OW11372   3.147   3.524   0.965  0.6374  0.1939  0.2554
  568SOL    HW111373   3.132   3.446   1.026 -0.0991 -0.7783 -1.1197
  568SOL    HW211374   3.066   3.582   0.965 -0.5808 -1.3901 -1.9744
  569SOL     OW11375   3.559   9.532   2.152 -0.3343  0.4046  0.1805
  569SOL    HW111376   3.627   9.498   2.216 -0.1919 -2.1225 -1.2562
  569SOL    HW211377   3.599   9.604   2.095  0.3217  0.7789  1.1072
  570SOL     OW11378   3.006   1.679   2.165  0.1420  0.2776  0.5272
  570SOL    HW111379   3.016   1.582   2.185  0.4454  0.4626  1.2841
  570SOL    HW211380   3.088   1.712   2.118 -0.9030 -0.3387 -1.7999
  571SOL     OW11381   2.595   2.748   2.475  0.6903  0.2622  0.1098
  571SOL    HW111382   2.590   2.779   2.569 -1.9502  0.5857 -0.1167
  571SOL    HW211383   2.663   2.675   2.468  0.9057  0.2288  2.2459
  572SOL     OW11384   2.863   2.101   2.081 -0.0208 -0.7385 -0.1261
  572SOL    HW111385   2.854   2.049   1.996 -0.0227  1.7286 -1.6530
  572SOL    HW211386   2.956   2.089   2.117  0.0573 -1.5787 -0.5781
  573SOL     OW11387   3.584   0.058   0.318  0.2465  0.0064 -0.1182
  573SOL    HW111388   3.626  -0.032   0.306 -3.9008 -2.4112  2.2938
  573SOL    HW211389   3.572   0.076   0.416 -1.3176  2.0015 -0.6489
  574SOL     OW11390   3.720   1.696   1.466  0.3656  0.0724 -0.4775
  574SOL    HW111391   3.780   1.765   1.425  1.2087 -0.2886  0.1326
  574SOL    HW211392   3.734   1.609   1.419  0.2219  0.0177 -0.4164
  575SOL     OW11393   3.525   9.403   1.231  0.1554  0.3946  0.2022
  575SOL    HW111394   3.484   9.335   1.170  0.3728  1.3751 -1.0605
  575SOL    HW211395   3.584   9.465   1.178 -0.8011  2.1675  1.1524
  576SOL     OW11396   2.734   2.757   1.196  0.2357  0.4525  0.0570
  576SOL    HW111397   2.769   2.806   1.276  0.6311  1.4015 -0.6971
  576SOL    HW211398   2.736   2.658   1.215 -1.5200  0.7339  1.9649
  577SOL     OW11399   2.976   0.941   0.920  0.0856  0.3440  0.3027
  577SOL    HW111400   3.047   0.876   0.891  1.0109  1.4520  0.0442
  577SOL    HW211401   2.907   0.893   0.974 -0.7358 -1.4070 -2.2386
  578SOL     OW11402   2.983   9.353   1.072 -0.2852 -0.0562  0.0987
  578SOL    HW111403   3.031   9.311   1.149 -0.3012 -1.1574 -0.4886
  578SOL    HW211404   2.974   9.451   1.088  0.6647 -0.1089  1.0045
  579SOL     OW11405   3.686   2.068   1.280 -0.0904  0.2644 -0.1357
  579SOL    HW111406   3.632   2.139   1.325  0.2183 -0.6979  1.8094
  579SOL    HW211407   3.626   1.994   1.250 -0.0526 -0.1065  0.6807
  580SOL     OW11408   4.340   3.457   0.050  0.0829  0.0969 -0.0883
  580SOL    HW111409   4.333   3.365   0.089  0.9525  1.4432  3.3967
  580SOL    HW211410   4.288   3.461  -0.035 -0.7152 -3.3618  0.1605
  581SOL     OW11411   3.728   0.699   1.800 -0.2238  0.3990 -0.0537
  581SOL    HW111412   3.668   0.758   1.747 -1.3118 -0.5658  0.0921
  581SOL    HW211413   3.676   0.653   1.872  0.8641  0.2453  0.6592
  582SOL     OW11414   3.036   9.429   2.058 -0.3726 -0.5515  0.2904
  582SOL    HW111415   3.130   9.401   2.077 -0.5652  0.5012  2.9933
  582SOL    HW211416   3.036   9.516   2.011  0.0412 -1.7120 -1.9185
  583SOL     OW11417   4.046   1.687   0.855 -0.3429 -0.2715  0.3987
  583SOL    HW111418   4.019   1.713   0.762 -0.0615 -1.2686  0.0321
  583SOL    HW211419   4.033   1.589   0.867 -0.3828 -0.1436  1.4197
  584SOL     OW11420   4.594   3.600   2.673  0.1718 -0.6409 -0.1732
  584SOL    HW111421   4.641   3.595   2.762 -2.7040 -0.3754  1.4120
  584SOL    HW211422   4.505   3.556   2.680 -0.6026  0.4671 -2.6317
  585SOL     OW11423   3.347   2.910   0.923  0.4310  0.6389 -0.1135
  585SOL    HW111424   3.442   2.921   0.894 -0.2234  0.3816 -2.4268
  585SOL    HW211425   3.304   3.000   0.930 -0.1185  0.5731 -2.4403
  586SOL     OW11426   2.358   0.643   2.229  1.0614 -0.2191 -0.3508
  586SOL    HW111427   2.434   0.634   2.293  1.1798  0.2570 -0.4242
  586SOL    HW211428   2.376   0.717   2.165  0.7239 -0.3776 -0.6355
  587SOL     OW11429   4.140   2.429   2.140 -0.4407 -0.4565 -0.0807
  587SOL    HW111430   4.141   2.338   2.098 -1.3027 -0.6078  0.2264
  587SOL    HW211431   4.120   2.497   2.070 -1.6927 -0.6901  0.0446
  588SOL     OW11432   2.752   2.255   0.915  0.2844  0.3175  0.1415
  588SOL    HW111433   2.772   2.347   0.881  1.5522  0.2398  0.6461
  588SOL    HW211434   2.826   2.225   0.975  0.2423 -1.3297 -0.5931
  589SOL     OW11435   3.635   9.492   1.854  0.1092  0.3835 -0.6566
  589SOL    HW111436   3.683   9.484   1.767  2.1086 -1.5317  0.5751
  589SOL    HW211437   3.663   9.576   1.901  0.5042  0.4324 -0.9783
  590SOL     OW11438   4.281   3.954   0.565  0.6666  0.6635 -0.3636
  590SOL    HW111439   4.283   3.862   0.525 -1.0491  0.6492 -0.4422
  590SOL    HW211440   4.246   3.949   0.659 -1.2223  1.4526 -1.0126
  591SOL     OW11441   2.454   2.911   0.861 -0.4134  0.2871 -0.0226
  591SOL    HW111442   2.429   2.998   0.820 -0.9002  0.1818  0.0523
  591SOL    HW211443   2.419   2.906   0.954 -1.2822 -0.4118 -0.3858
  592SOL     OW11444   2.928   2.942   0.577 -0.0608 -0.1414 -0.1198
  592SOL    HW111445   2.901   2.871   0.642 -0.8681  0.5376  0.2956
  592SOL    HW211446   3.022   2.925   0.547  0.8251  0.2890  2.2702
  593SOL     OW11447   3.304   1.816   0.481 -0.5316 -0.5859  0.2662
  593SOL    HW111448   3.286   1.860   0.568 -0.1322  1.0835 -0.4606
  593SOL    HW211449   3.387   1.761   0.488 -1.1723 -1.4325  1.2591
  594SOL     OW11450   4.501   2.412   0.719 -0.1121 -0.0398 -0.1262
  594SOL    HW111451   4.526   2.463   0.801 -0.6853 -0.0782  0.0752
  594SOL    HW211452   4.410   2.371   0.731  0.3450 -1.1206 -0.2749
  595SOL     OW11453   3.647   1.050   1.002  0.0780 -0.4110  0.5419
  595SOL    HW111454   3.666   0.955   1.027  0.2660  0.1962  2.8980
  595SOL    HW211455   3.722   1.108   1.035 -0.5282  0.6655  0.0470
  596SOL     OW11456   4.189   3.791   2.042  0.2446 -0.7570  0.9855
  596SOL    HW111457   4.278   3.757   2.012 -0.6746 -1.7454 -0.6719
  596SOL    HW211458   4.202   3.870   2.101  2.2457 -1.2580  1.2536
  597SOL     OW11459   3.004   9.143   2.514 -0.4793  0.5166 -0.3088
  597SOL    HW111460   3.052   9.150   2.427  2.8122 -1.1172  1.2596
  597SOL    HW211461   2.938   9.069   2.511 -1.8184  1.7491 -2.0066
  598SOL     OW11462   3.019   1.406   2.290 -0.1423  0.2725  0.0132
  598SOL    HW111463   3.053   1.446   2.375  0.1579  0.2159 -0.0783
  598SOL    HW211464   2.919   1.408   2.289 -0.1252  1.0957 -0.0303
  599SOL     OW11465   4.933   1.275   0.604 -0.1201  0.7374 -0.7630
  599SOL    HW111466   4.878   1.331   0.542 -0.1697  0.4425 -0.9909
  599SOL    HW211467   5.028   1.274   0.573 -0.2677  0.0805 -1.1923
  600SOL     OW11468   2.568   1.619   0.611  0.2533 -0.4804 -0.1484
  600SOL    HW111469   2.473   1.590   0.623 -0.0069  0.8113  1.0585
  600SOL    HW211470   2.600   1.663   0.695  1.6200 -0.0664 -0.8748
  601SOL     OW11471   4.153   1.747   2.630  0.1927  0.0511 -0.1597
  601SOL    HW111472   4.075   1.723   2.573  0.4121  1.2679 -0.9811
  601SOL    HW211473   4.223   1.676   2.623  0.0440 -0.0034 -1.0799
  602SOL     OW11474   3.694   3.140   1.424 -0.4254  0.3849 -0.0816
  602SOL    HW111475   3.600   3.149   1.457  0.0445 -1.1349  1.7787
  602SOL    HW211476   3.695   3.090   1.337 -1.3348  0.3072 -0.0472
  603SOL     OW11477   3.972   2.511   2.548  0.4153  0.0199  0.3290
  603SOL    HW111478   3.971   2.425   2.600  1.6813  0.2871  0.8319
  603SOL    HW211479   3.945   2.494   2.454 -0.2269 -0.7793  0.6592
  604SOL     OW11480   3.827   2.165   0.382  0.1406 -0.4809 -0.1302
  604SOL    HW111481   3.834   2.240   0.448 -0.7208 -1.0749  0.6386
  604SOL    HW211482   3.867   2.194   0.295  0.8796  0.4643  0.5078
  605SOL     OW11483   4.759   3.463   1.754  0.5132 -0.0587  1.0263
  605SOL    HW111484   4.706   3.467   1.669  1.2201 -0.9860  0.5240
  605SOL    HW211485   4.823   3.387   1.749  0.1310 -0.5085  2.6576
  606SOL     OW11486   4.296   1.827   0.934  0.3841  0.3898  0.2231
  606SOL    HW111487   4.372   1.791   0.880  1.0452  1.3881  0.4712
  606SOL    HW211488   4.211   1.781   0.907  1.5808 -3.5173  2.5632
  607SOL     OW11489   2.967   3.938   0.125  0.3676 -0.1163  0.2384
  607SOL    HW111490   3.023   3.874   0.177  0.5857  0.1099  0.2807
  607SOL    HW211491   2.998   3.942   0.030 -0.0653 -0.5704  0.0752
  608SOL     OW11492   4.747   3.722   2.491  0.0001 -0.1109  0.6508
  608SOL    HW111493   4.676   3.670   2.539  1.1524 -1.6780  0.6942
  608SOL    HW211494   4.782   3.794   2.550 -0.0579 -0.7024  1.4036
  609SOL     OW11495   2.336   2.923   1.093  0.2078 -0.4232 -0.0615
  609SOL    HW111496   2.369   3.010   1.128  0.2978 -0.0046 -1.1547
  609SOL    HW211497   2.318   2.860   1.169  1.2135  0.1656  0.6660
  610SOL     OW11498   4.652   1.827   1.558 -0.2400  0.5129 -0.4558
  610SOL    HW111499   4.708   1.901   1.594 -0.3298 -0.7299  2.3412
  610SOL    HW211500   4.559   1.836   1.591 -0.4365 -0.3901 -0.7393
  611SOL     OW11501   3.579   3.843   1.780  0.1297  0.0870  0.2413
  611SOL    HW111502   3.630   3.831   1.695 -0.3833 -0.0656 -0.0454
  611SOL    HW211503   3.640   3.830   1.858  0.9883  1.9361 -0.1150
  612SOL     OW11504   2.244   2.627   0.234 -0.2673 -0.2723  1.0489
  612SOL    HW111505   2.335   2.592   0.213 -0.2738 -0.3252  1.1069
  612SOL    HW211506   2.177   2.583   0.174  0.0363  1.6001 -0.6916
  613SOL     OW11507   2.719   0.690   2.641  0.0500 -0.1214 -0.1378
  613SOL    HW111508   2.715   0.739   2.727  0.3367  0.7494 -0.6129
  613SOL    HW211509   2.805   0.639   2.635 -0.2165 -0.6280  0.3232
  614SOL     OW11510   4.803   2.327   2.621  0.1010 -0.2074 -0.0509
  614SOL    HW111511   4.851   2.289   2.700  0.2906  2.0594  0.9513
  614SOL    HW211512   4.707   2.341   2.643  0.0353 -0.0810 -0.4107
  615SOL     OW11513   2.531   2.377   0.315  0.0773 -0.3986  0.2479
  615SOL    HW111514   2.597   2.449   0.338  0.0826 -0.5978  0.8750
  615SOL    HW211515   2.443   2.398   0.357 -0.2980 -0.0723 -0.6875
  616SOL     OW11516   3.344   9.364   2.101  0.8878 -0.3150  0.2868
  616SOL    HW111517   3.370   9.320   2.016 -0.4606 -0.5951  0.0083
  616SOL    HW211518   3.424   9.407   2.142  2.0165 -2.1341  0.0517
  617SOL     OW11519   2.852   9.982   1.702  0.2159 -0.4475  0.4026
  617SOL    HW111520   2.770   9.928   1.718 -0.6906  0.6427 -0.4289
  617SOL    HW211521   2.859  10.004   1.604  0.3242  1.2852  0.7812
  618SOL     OW11522   3.691   1.941   0.458  0.3768  0.3400  0.2655
  618SOL    HW111523   3.745   2.018   0.425  0.0869  0.2070 -0.5340
  618SOL    HW211524   3.682   1.873   0.385 -1.3629  0.6230  0.2015
  619SOL     OW11525   3.468   1.790   1.469 -0.3939 -0.0436  0.5663
  619SOL    HW111526   3.468   1.869   1.530  0.9214 -0.4137  1.0629
  619SOL    HW211527   3.555   1.741   1.478 -0.2045 -0.1523 -1.5435
  620SOL     OW11528   4.809   3.190   1.379  0.5496  0.1777  0.0350
  620SOL    HW111529   4.809   3.097   1.341  0.4261  0.4402 -0.6080
  620SOL    HW211530   4.756   3.190   1.464 -0.3134 -0.1357 -0.4900
  621SOL     OW11531   3.792   2.263   1.112 -0.1367  0.1875 -0.0101
  621SOL    HW111532   3.733   2.278   1.033 -1.1038  0.3678  0.7248
  621SOL    HW211533   3.766   2.178   1.157 -0.9058  1.0512  1.2264
  622SOL     OW11534   3.290   2.777   0.623 -0.0572  0.3036  0.1765
  622SOL    HW111535   3.385   2.757   0.597 -0.0434  1.0745 -0.3763
  622SOL    HW211536   3.270   2.733   0.710  0.5573 -0.5523 -0.1031
  623SOL     OW11537   2.707   2.466   2.672 -0.2759  0.0232 -0.0700
  623SOL    HW111538   2.671   2.374   2.658 -0.7040  0.2898 -0.7649
  623SOL    HW211539   2.739   2.503   2.585  0.5211  0.2717  0.3267
  624SOL     OW11540   2.636   0.891   2.261 -0.7185  0.1038  0.3540
  624SOL    HW111541   2.616   0.910   2.357  0.0380  0.2038  0.5005
  624SOL    HW211542   2.735   0.893   2.247 -0.7871 -0.6427 -0.2796
  625SOL     OW11543   3.654   3.544   2.048  0.0087 -0.1888  0.1416
  625SOL    HW111544   3.663   3.639   2.017  1.0253 -0.8176 -1.5985
  625SOL    HW211545   3.737   3.517   2.097 -0.9127  0.2852  1.9856
  626SOL     OW11546   3.307   1.489   1.936 -0.4148  0.5844  0.1740
  626SOL    HW111547   3.300   1.537   1.849 -0.0791  0.9972  0.3746
  626SOL    HW211548   3.367   1.410   1.925  1.6263  2.0306  0.6258
  627SOL     OW11549   3.002   2.244   0.337  0.2882  0.1788 -0.4954
  627SOL    HW111550   2.966   2.331   0.371 -1.4754 -0.7007 -0.0672
  627SOL    HW211551   2.975   2.231   0.242 -2.5322 -1.5014  0.4678
  628SOL     OW11552   4.058   4.505   2.617 -0.2572 -0.2611  0.6715
  628SOL    HW111553   4.153   4.509   2.650  0.4829 -0.4767 -1.3377
  628SOL    HW211554   3.996   4.492   2.694  1.1656  1.9886  2.2724
  629SOL     OW11555   4.547   4.001   2.303 -0.2529 -0.7086  0.7108
  629SOL    HW111556   4.493   4.079   2.268  1.0724 -1.2176 -2.6512
  629SOL    HW211557   4.507   3.916   2.270  0.1022 -1.3232  1.8448
  630SOL     OW11558   2.821   0.290   2.434  0.2826  0.3444 -0.1141
  630SOL    HW111559   2.845   0.237   2.516  2.2393 -0.4128 -1.1370
  630SOL    HW211560   2.722   0.297   2.427  0.0650 -0.2904  1.8694
  631SOL     OW11561   2.141   0.002   1.158  0.2680 -0.0967  0.3180
  631SOL    HW111562   2.052  -0.005   1.203 -0.5106 -0.0613 -1.1765
  631SOL    HW211563   2.159   0.098   1.135 -0.2843 -0.3425 -1.2494
  632SOL     OW11564   2.326   1.218   1.922  0.3171 -0.4159  0.5607
  632SOL    HW111565   2.269   1.154   1.871  0.6327  0.2079 -0.5944
  632SOL    HW211566   2.348   1.296   1.864  2.8968 -0.9545  0.7635
  633SOL     OW11567   2.045   1.687   1.292 -0.3656  0.3151  0.3612
  633SOL    HW111568   2.068   1.658   1.199  1.0954 -0.2544  0.8858
  633SOL    HW211569   1.975   1.758   1.288  1.4269  2.0573 -1.3140
  634SOL     OW11570   2.556   9.366   0.873 -0.3036 -0.3491  0.3689
  634SOL    HW111571   2.605   9.450   0.895 -0.9631 -0.0937  0.8847
  634SOL    HW211572   2.555   9.306   0.953 -0.5353 -0.4954  0.2572
  635SOL     OW11573   4.742   2.466   1.237  0.0554  0.3006  0.1968
  635SOL    HW111574   4.645   2.485   1.224  0.0982 -0.3485 -1.1896
  635SOL    HW211575   4.794   2.507   1.162  0.7119 -0.4742  0.2280
  636SOL     OW11576   3.265   3.108   1.382 -0.1979 -0.4253  0.1176
  636SOL    HW111577   3.286   3.192   1.432 -2.0791 -0.0442  0.2768
  636SOL    HW211578   3.307   3.030   1.428 -0.7841  0.0916  1.5301
  637SOL     OW11579   3.145   2.348   1.283  0.5994  0.0664  0.3079
  637SOL    HW111580   3.109   2.377   1.372 -1.9064  0.9650 -0.9658
  637SOL    HW211581   3.181   2.427   1.234  1.8689 -0.4122  0.4444
  638SOL     OW11582   4.205   0.856   1.434 -0.2120 -0.2082 -0.8500
  638SOL    HW111583   4.199   0.757   1.452 -2.3339  0.4002  2.2202
  638SOL    HW211584   4.261   0.899   1.504 -2.2109  1.2248 -0.1018
  639SOL     OW11585   2.512   2.362   2.444 -0.4342 -0.1200  0.3056
  639SOL    HW111586   2.424   2.405   2.426  0.5063  1.5464 -0.4679
  639SOL    HW211587   2.558   2.343   2.357  0.4655  0.1057  0.7255
  640SOL     OW11588   2.679   9.550   2.329  0.5428  0.1950  0.0079
  640SOL    HW111589   2.628   9.468   2.355  0.2663 -0.0112 -1.1518
  640SOL    HW211590   2.767   9.552   2.377 -0.2496  0.2103  1.5152
  641SOL     OW11591   4.781   4.308   0.382  0.4457 -0.1793  0.3039
  641SOL    HW111592   4.735   4.369   0.318 -0.2534  1.2447  2.1166
  641SOL    HW211593   4.715   4.242   0.418  0.7121 -0.6057  0.0283
  642SOL     OW11594   3.511   0.157   0.059  0.2226 -0.3022  0.2398
  642SOL    HW111595   3.583   0.165  -0.010 -0.6987 -1.4258 -0.8677
  642SOL    HW211596   3.547   0.106   0.138  0.7283 -0.6037 -0.1805
  643SOL     OW11597   3.273   9.389   0.635  0.3108  0.0328  0.2976
  643SOL    HW111598   3.186   9.430   0.608  0.7296  0.2755 -0.7197
  643SOL    HW211599   3.290   9.308   0.579  0.9555  0.2592  0.1608
  644SOL     OW11600   3.176   9.730   0.513 -0.3325  0.3310  0.0919
  644SOL    HW111601   3.248   9.738   0.444 -0.8499  0.7004 -0.4053
  644SOL    HW211602   3.153   9.633   0.526  0.1043  0.2262  0.0992
  645SOL     OW11603   3.428   9.932   0.829 -0.3417 -0.2077 -0.8077
  645SOL    HW111604   3.346   9.981   0.859 -0.5267 -1.1727  0.2694
  645SOL    HW211605   3.400   9.850   0.779 -0.0251  0.4347 -2.0761
  646SOL     OW11606   2.639   3.311   0.878  0.2426  0.2011  0.8868
  646SOL    HW111607   2.695   3.251   0.820  1.7751  0.8285  1.6728
  646SOL    HW211608   2.628   3.400   0.833 -0.1596  0.0572  0.7054
  647SOL     OW11609   2.139   2.277   2.639  0.3690  0.8597 -0.1490
  647SOL    HW111610   2.152   2.212   2.713  3.2446  0.8338 -0.6286
  647SOL    HW211611   2.078   2.238   2.571 -0.7380  0.1089  1.2590
  648SOL     OW11612   2.666   1.815   1.645  0.3027 -0.2229  0.5360
  648SOL    HW111613   2.721   1.860   1.574  0.1796 -2.6712 -1.1579
  648SOL    HW211614   2.577   1.790   1.609 -0.3521 -0.1236  2.0227
  649SOL     OW11615   2.917   3.706   1.224  0.0275  0.2479  0.1778
  649SOL    HW111616   2.929   3.688   1.126 -1.0525 -1.0892  0.2755
  649SOL    HW211617   2.914   3.619   1.273 -2.3134  0.8067  1.0624
  650SOL     OW11618   3.041   3.350   1.163 -0.3013 -0.4884  0.2305
  650SOL    HW111619   3.001   3.279   1.105  0.2661 -3.4790  3.3373
  650SOL    HW211620   2.969   3.391   1.220 -0.2931  0.0691 -0.1512
  651SOL     OW11621   3.026   0.726   1.853 -0.0853 -0.1594 -0.1400
  651SOL    HW111622   3.044   0.680   1.766  0.5995 -0.4404  0.1478
  651SOL    HW211623   2.993   0.819   1.835  1.0848  0.1584 -0.6881
  652SOL     OW11624   3.922   3.663   0.593 -0.1078  0.1838  0.4600
  652SOL    HW111625   3.897   3.745   0.541 -0.6827  0.8615  1.7826
  652SOL    HW211626   3.954   3.592   0.530 -0.0131  1.2733 -0.7358
  653SOL     OW11627   3.120   8.862   1.783 -0.0703 -0.0650 -0.2329
  653SOL    HW111628   3.119   8.928   1.859  0.5357  1.1492 -1.2526
  653SOL    HW211629   3.124   8.769   1.819 -0.0879  0.4870  1.2260
  654SOL     OW11630   3.403   0.863   2.118 -0.0889  0.3562  0.3409
  654SOL    HW111631   3.385   0.852   2.216 -2.4706 -0.3879 -0.1534
  654SOL    HW211632   3.452   0.782   2.084  0.5084  0.4988  0.8569
  655SOL     OW11633   2.826   3.612   0.392 -0.8799 -0.3034  0.1406
  655SOL    HW111634   2.786   3.677   0.458  1.1832  1.3695 -0.2301
  655SOL    HW211635   2.831   3.521   0.434 -1.1924  0.3735  1.6752
  656SOL     OW11636   2.580   0.221   0.175 -0.0248  0.4700  0.9576
  656SOL    HW111637   2.592   0.172   0.089 -0.8896  1.6562  0.1480
  656SOL    HW211638   2.573   0.319   0.157  0.5722  0.8015  2.4584
  657SOL     OW11639   3.543   1.391   2.531 -0.3060  0.3654  0.0921
  657SOL    HW111640   3.569   1.432   2.618  0.7647  1.8268 -0.8921
  657SOL    HW211641   3.547   1.460   2.459  0.4545 -1.1938 -1.4088
  658SOL     OW11642   3.963   3.435   2.469  0.1352  0.2475  0.8516
  658SOL    HW111643   3.912   3.473   2.546  0.5544  0.1330  1.1867
  658SOL    HW211644   3.926   3.346   2.445 -0.5431  0.6494  0.3718
  659SOL     OW11645   3.978   4.479   2.345 -0.0682 -0.0252  1.0476
  659SOL    HW111646   3.994   4.515   2.437 -0.8959  0.1165  1.1412
  659SOL    HW211647   3.886   4.440   2.340 -0.2740  0.5566  0.0968
  660SOL     OW11648   2.848   2.721   0.191  0.0859  0.1944 -0.0852
  660SOL    HW111649   2.885   2.628   0.189  2.0075  0.9433  0.0800
  660SOL    HW211650   2.923   2.787   0.190 -1.1378  1.7341  2.9034
  661SOL     OW11651   2.569   3.494   0.704  0.2016  0.6186  0.2442
  661SOL    HW111652   2.490   3.452   0.658  0.7386  0.9550 -0.9991
  661SOL    HW211653   2.562   3.594   0.699 -0.8666  0.7254  2.8481
  662SOL     OW11654   3.623   2.566   1.541  0.2165  0.1701  0.0242
  662SOL    HW111655   3.625   2.562   1.441  0.5069 -0.1761  0.0418
  662SOL    HW211656   3.645   2.476   1.578  1.8564  0.7103  0.4092
  663SOL     OW11657   4.606   1.260   1.506 -0.0848 -0.0156 -0.7494
  663SOL    HW111658   4.570   1.350   1.534  0.4896 -0.0146  0.0106
  663SOL    HW211659   4.699   1.270   1.471  0.0012 -0.3206 -0.6130
  664SOL     OW11660   3.678   0.953   2.085 -0.5720  0.3134 -0.4511
  664SOL    HW111661   3.582   0.951   2.113 -0.3306  0.5614  0.3931
  664SOL    HW211662   3.683   0.972   1.987 -1.3685  0.9257 -0.3817
  665SOL     OW11663   4.332   1.527   2.602 -0.4039  0.0221 -0.1808
  665SOL    HW111664   4.342   1.497   2.507  0.0965  2.3249 -0.8945
  665SOL    HW211665   4.410   1.493   2.656  0.1385  0.0190 -0.9536
  666SOL     OW11666   4.019   2.530   1.278 -0.0740 -0.1044  0.4059
  666SOL    HW111667   3.983   2.537   1.371 -0.0315  0.7197  0.3621
  666SOL    HW211668   4.055   2.618   1.249  1.2083 -0.7116  0.1231
  667SOL     OW11669   2.714   1.687   1.230 -0.3881  0.3186  0.4541
  667SOL    HW111670   2.749   1.773   1.191 -0.5321  1.3957  2.6128
  667SOL    HW211671   2.759   1.670   1.318 -1.9376 -0.6689  1.0739
  668SOL     OW11672   3.291   0.681   2.450 -0.9592 -0.5901  0.5445
  668SOL    HW111673   3.207   0.672   2.397 -0.2260  0.9219 -0.9147
  668SOL    HW211674   3.327   0.773   2.440  1.1014 -1.3457  0.8117
  669SOL     OW11675   4.373   1.142   1.459  0.4045  0.7067 -0.0322
  669SOL    HW111676   4.454   1.193   1.487  0.1139  0.8685  0.5282
  669SOL    HW211677   4.396   1.046   1.445  0.8993  0.9361 -0.8302
  670SOL     OW11678   3.589   3.183   0.057 -0.5559  0.5830 -0.0603
  670SOL    HW111679   3.567   3.275   0.089  0.2267  1.1706 -1.1804
  670SOL    HW211680   3.610   3.125   0.135  2.0552  2.1787  0.4703
  671SOL     OW11681   3.146   3.636   2.296  0.1413  0.3043 -0.3264
  671SOL    HW111682   3.075   3.678   2.239 -2.3689 -1.9080  1.0782
  671SOL    HW211683   3.179   3.552   2.253  1.9900  1.3100 -0.9660
  672SOL     OW11684   3.970   9.436   0.934 -0.1565  0.4901 -0.7771
  672SOL    HW111685   3.917   9.351   0.938 -0.5902  0.6803 -2.1882
  672SOL    HW211686   4.044   9.432   1.001  1.7594 -2.3584 -2.9010
  673SOL     OW11687   3.478   2.148   0.177 -0.2544 -0.3769  0.0912
  673SOL    HW111688   3.418   2.226   0.159 -0.8059 -1.1408 -1.4704
  673SOL    HW211689   3.534   2.168   0.257 -1.7154  0.8523  0.8562
  674SOL     OW11690   2.740   1.075   1.916  0.3979 -0.8537  1.0653
  674SOL    HW111691   2.742   1.159   1.862  2.3595 -1.1119  0.6708
  674SOL    HW211692   2.692   1.092   2.002 -0.7679  0.1742  0.2323
  675SOL     OW11693   4.386   3.036   1.093  0.3000 -0.4184  0.6072
  675SOL    HW111694   4.299   3.052   1.141 -1.8451  3.5961 -4.1508
  675SOL    HW211695   4.379   2.951   1.040 -1.9252  1.2022 -1.8694
  676SOL     OW11696   3.178   3.382   2.620 -0.1229 -0.1066 -0.0385
  676SOL    HW111697   3.196   3.359   2.716 -1.1156  0.6295  0.3338
  676SOL    HW211698   3.080   3.395   2.607  0.2063  1.8215 -0.7045
  677SOL     OW11699   3.186   9.737   1.776  0.6290  0.4142 -0.6988
  677SOL    HW111700   3.196   9.665   1.707 -0.6997  0.9040 -1.4240
  677SOL    HW211701   3.094   9.733   1.815  0.4635  1.8835 -0.9190
  678SOL     OW11702   3.869   3.924   2.447  0.5852  0.0158  0.0150
  678SOL    HW111703   3.811   3.850   2.482 -0.4719  0.0692 -1.5779
  678SOL    HW211704   3.811   3.996   2.408  1.5511  2.0662  2.2267
  679SOL     OW11705   3.372   0.928   0.290 -0.2099 -0.6174 -0.5639
  679SOL    HW111706   3.438   0.893   0.224  0.8541 -1.6685  1.0010
  679SOL    HW211707   3.414   1.001   0.344 -0.1169 -1.6221  0.7692
  680SOL     OW11708   3.847   1.287   1.973 -0.0189 -0.2009 -0.6915
  680SOL    HW111709   3.909   1.230   2.026  0.8211 -0.0490 -1.5060
  680SOL    HW211710   3.780   1.329   2.035 -0.0321 -1.2618  0.0426
  681SOL     OW11711   3.136   0.538   1.681  0.1869  0.0290  0.8242
  681SOL    HW111712   3.075   0.521   1.603  0.3076  1.3427  0.4399
  681SOL    HW211713   3.160   0.451   1.723 -0.2233 -0.6623 -0.3463
  682SOL     OW11714   2.408   9.968   1.277  0.0376  0.1879 -0.0220
  682SOL    HW111715   2.387   9.905   1.352 -0.6202  0.3386 -0.0725
  682SOL    HW211716   2.323   9.989   1.228  0.3242  0.8173 -0.2408
  683SOL     OW11717   2.821   1.320   0.375  0.0256 -0.2721 -0.0675
  683SOL    HW111718   2.824   1.220   0.385  0.3761 -0.1179  1.3749
  683SOL    HW211719   2.859   1.345   0.285  2.8624 -1.2438  0.7901
  684SOL     OW11720   3.367   3.571   2.723  0.1789  0.4710 -0.1370
  684SOL    HW111721   3.298   3.515   2.678  0.4459  0.4929 -0.5775
  684SOL    HW211722   3.359   3.666   2.691  0.7978  0.3548 -0.6359
  685SOL     OW11723   2.560   1.482   1.100 -0.3247 -0.6921 -0.3839
  685SOL    HW111724   2.632   1.413   1.092 -0.5226 -0.8441 -0.8669
  685SOL    HW211725   2.601   1.570   1.127 -0.0046 -0.8612 -0.3172
  686SOL     OW11726   3.415   8.895   1.684  0.2309  0.2285 -0.3391
  686SOL    HW111727   3.352   8.818   1.676  0.7948 -0.2383 -0.3346
  686SOL    HW211728   3.437   8.930   1.593  0.6694 -0.1880 -0.3973
  687SOL     OW11729   3.852   2.830   1.405  0.1319  0.2855  0.4354
  687SOL    HW111730   3.799   2.841   1.321  1.4420  1.0028 -0.3239
  687SOL    HW211731   3.821   2.896   1.473  1.1620  1.8744 -0.5992
  688SOL     OW11732   3.534   0.586   1.998 -0.5995  0.0403 -0.0354
  688SOL    HW111733   3.489   0.597   1.910  0.5032  1.2839 -0.4471
  688SOL    HW211734   3.525   0.490   2.028  0.5805 -0.8348 -2.3547
  689SOL     OW11735   2.501   0.825   2.044 -0.1632  0.2642 -0.4801
  689SOL    HW111736   2.573   0.774   1.996  0.0492  1.4811 -1.4643
  689SOL    HW211737   2.535   0.854   2.133 -1.0315 -3.2557  1.1086
  690SOL     OW11738   3.437   3.680   1.609  0.4018 -0.8294 -0.2415
  690SOL    HW111739   3.493   3.622   1.549 -0.5409  0.5446 -2.5186
  690SOL    HW211740   3.489   3.703   1.691  2.6105 -0.8910 -1.5753
  691SOL     OW11741   2.631   2.832   0.032  0.3784  0.4524  0.1669
  691SOL    HW111742   2.661   2.927   0.029  1.1719  0.1741 -1.0863
  691SOL    HW211743   2.701   2.776   0.077  1.0501  0.0827 -1.2712
  692SOL     OW11744   3.318   2.329   0.974 -0.3665  0.0246 -0.0970
  692SOL    HW111745   3.281   2.242   1.006  0.0331 -0.4985 -1.0368
  692SOL    HW211746   3.354   2.381   1.052  1.5814 -1.7090  0.1878
  693SOL     OW11747   2.106   2.567   2.715 -0.8924  0.3501 -0.1916
  693SOL    HW111748   2.063   2.479   2.698 -0.8841  0.3380 -0.1507
  693SOL    HW211749   2.200   2.566   2.681 -0.7927  0.2410  0.0856
  694SOL     OW11750   3.603   9.005   1.829 -0.6392  0.2647  0.2567
  694SOL    HW111751   3.518   8.975   1.786 -1.8138  2.2294  1.1652
  694SOL    HW211752   3.591   9.097   1.867  1.9020  0.5880  0.3655
  695SOL     OW11753   3.167   0.387   0.295 -0.2985 -0.6874  0.5127
  695SOL    HW111754   3.165   0.449   0.374 -2.6518 -0.4618  0.3036
  695SOL    HW211755   3.235   0.419   0.230  0.5713  0.0136  1.7371
  696SOL     OW11756   3.927   1.937   1.369  0.2755  0.1705  0.3593
  696SOL    HW111757   3.834   1.972   1.367  0.3431  0.3802  0.8007
  696SOL    HW211758   3.971   1.954   1.281 -0.9553 -2.2732 -0.7912
  697SOL     OW11759   4.159   0.751   1.183 -0.3266  0.1644 -0.1307
  697SOL    HW111760   4.166   0.790   1.275 -2.8656  0.2223  0.0707
  697SOL    HW211761   4.122   0.819   1.120  0.0988 -0.3184 -0.9170
  698SOL     OW11762   4.759   2.739   0.941 -0.4840 -0.0955  0.3236
  698SOL    HW111763   4.721   2.762   0.851 -0.8143  0.5708  0.6276
  698SOL    HW211764   4.809   2.817   0.977  0.4627 -0.6891  0.3000
  699SOL     OW11765   3.648   9.888   0.957 -0.2179  0.4063 -0.3763
  699SOL    HW111766   3.560   9.887   0.910 -0.0661  0.1618 -0.6510
  699SOL    HW211767   3.722   9.892   0.890  0.0106 -0.3136 -0.1703
  700SOL     OW11768   3.314   9.703   0.736  0.7494 -0.2469  0.2968
  700SOL    HW111769   3.384   9.638   0.706  0.9120 -0.5792  1.3594
  700SOL    HW211770   3.258   9.731   0.658  2.3557  0.3847 -0.6634
  701SOL     OW11771   3.150   3.142   2.473 -0.8609 -0.0691 -0.6049
  701SOL    HW111772   3.060   3.125   2.513 -1.2498  0.4261 -1.2388
  701SOL    HW211773   3.193   3.221   2.517 -0.1557 -1.1127  0.6034
  702SOL     OW11774   4.505   3.012   1.354 -0.3326  0.2374  0.2306
  702SOL    HW111775   4.486   3.100   1.398 -0.1698  0.7152 -0.6496
  702SOL    HW211776   4.492   3.020   1.255 -2.3558 -1.2888  0.3581
  703SOL     OW11777   3.463   1.256   2.005 -0.4183  0.5377  0.3963
  703SOL    HW111778   3.545   1.276   2.059  0.0921  2.3798 -0.9847
  703SOL    HW211779   3.386   1.241   2.066  0.7999 -0.5104  1.7025
  704SOL     OW11780   2.822   9.664   0.609  0.3491 -0.1404 -0.3592
  704SOL    HW111781   2.763   9.656   0.529  2.5097 -1.0237 -1.9332
  704SOL    HW211782   2.817   9.757   0.645 -1.5589 -0.0596 -0.7716
  705SOL     OW11783   4.402   1.807   1.638  0.3520 -0.0934  0.1062
  705SOL    HW111784   4.381   1.734   1.702  3.1180 -1.8883 -0.9340
  705SOL    HW211785   4.320   1.832   1.587 -0.8225 -1.8131  1.1182
  706SOL     OW11786   2.602   3.756   0.652  0.3775  0.2299 -0.6804
  706SOL    HW111787   2.582   3.850   0.680  0.1240 -0.3237  1.0661
  706SOL    HW211788   2.570   3.741   0.559 -1.1920  1.3764 -0.3457
  707SOL     OW11789   2.003   2.805   0.118 -0.7597 -0.8114 -0.0418
  707SOL    HW111790   1.925   2.762   0.163 -0.7226 -2.9887 -1.9581
  707SOL    HW211791   2.028   2.752   0.037  2.7061 -0.1639  0.5256
  708SOL     OW11792   4.052   4.056   1.554  0.1826  0.7875 -0.0447
  708SOL    HW111793   4.151   4.046   1.567 -0.1516 -2.4653  0.2252
  708SOL    HW211794   4.013   4.109   1.629  1.8480  3.1070 -0.7506
  709SOL     OW11795   3.099   2.674   1.370 -0.4689  0.0672 -0.0400
  709SOL    HW111796   3.191   2.680   1.410 -0.2017 -0.2481 -0.6120
  709SOL    HW211797   3.049   2.599   1.414 -0.8319  0.9053  1.0232
  710SOL     OW11798   3.453   2.427   1.194  0.1612  0.5903 -0.2345
  710SOL    HW111799   3.552   2.414   1.190  0.0032 -0.7929  0.0258
  710SOL    HW211800   3.423   2.423   1.290 -0.4466 -1.5337 -0.4794
  711SOL     OW11801   3.931   2.911   0.589  0.5051 -0.5012 -0.2741
  711SOL    HW111802   4.019   2.895   0.544  0.8966 -1.1083  0.7053
  711SOL    HW211803   3.933   2.999   0.637 -0.0407  0.3267 -1.7268
  712SOL     OW11804   3.335   1.600   1.694 -0.1308 -0.1489  0.1936
  712SOL    HW111805   3.293   1.673   1.641  1.9926 -0.3931 -1.9112
  712SOL    HW211806   3.433   1.617   1.702  0.2673 -2.3572  0.3442
  713SOL     OW11807   2.370   0.391   1.783  0.2748  0.4320 -0.3210
  713SOL    HW111808   2.407   0.446   1.858  2.0071  0.6345 -1.2823
  713SOL    HW211809   2.295   0.440   1.739  0.1942  0.9396  0.3869
  714SOL     OW11810   2.201   2.559   1.089  0.2381 -0.0165  0.0194
  714SOL    HW111811   2.202   2.615   1.172 -0.7171 -0.5825  0.4212
  714SOL    HW211812   2.195   2.619   1.009  0.5761  0.5117  0.3838
  715SOL     OW11813   2.773   2.013   1.816  0.3748  0.4021  0.5615
  715SOL    HW111814   2.788   2.093   1.756  0.3353 -0.1112 -0.1424
  715SOL    HW211815   2.730   1.940   1.763 -0.4760  0.2539  1.4555
  716SOL     OW11816   4.178   9.180   1.583 -0.2208  0.7449  0.3405
  716SOL    HW111817   4.137   9.090   1.598 -1.2483  1.0407 -0.6151
  716SOL    HW211818   4.277   9.175   1.600 -0.6606  0.0927  2.9382
  717SOL     OW11819   4.420   2.091   0.050 -0.1586  0.4294  0.3070
  717SOL    HW111820   4.433   1.997   0.019  0.2955  0.1540  1.3212
  717SOL    HW211821   4.467   2.153  -0.013  2.4654 -0.2592  1.5378
  718SOL     OW11822   3.720   8.582   1.054 -0.1255  0.2352  0.4116
  718SOL    HW111823   3.622   8.570   1.038 -0.6321  2.1739  1.8582
  718SOL    HW211824   3.768   8.497   1.033 -2.5181 -1.8020  2.8134
  719SOL     OW11825   3.895   4.116   0.950  0.2143 -0.1469  0.0278
  719SOL    HW111826   3.831   4.194   0.951  0.4507  0.0710 -1.7162
  719SOL    HW211827   3.983   4.146   0.986 -0.6719 -0.4918  2.6280
  720SOL     OW11828   2.088   3.261   0.600 -0.4045  0.5546  0.2546
  720SOL    HW111829   2.030   3.278   0.520 -0.2571 -0.7921 -0.1493
  720SOL    HW211830   2.171   3.214   0.572  0.5280  1.7331  0.9514
  721SOL     OW11831   3.542   1.997   2.275 -0.4306 -0.4161  0.1953
  721SOL    HW111832   3.546   2.082   2.327  0.6443 -0.2528 -0.1360
  721SOL    HW211833   3.484   1.931   2.323  0.0674 -0.0628  1.2926
  722SOL     OW11834   2.152   3.317   0.855 -0.0955 -0.0697  0.1427
  722SOL    HW111835   2.118   3.298   0.763  0.2028  0.0551  0.0040
  722SOL    HW211836   2.105   3.397   0.892  0.2435  0.2780 -0.1618
  723SOL     OW11837   3.573   9.238   1.951  0.4220 -0.0922 -0.4913
  723SOL    HW111838   3.598   9.325   1.910 -1.0807  0.3903 -0.3768
  723SOL    HW211839   3.619   9.228   2.039  1.3059  0.1711 -0.9177
  724SOL     OW11840   3.438   2.972   1.559 -0.0140 -0.2719  0.1371
  724SOL    HW111841   3.368   2.967   1.631  0.8615 -0.2046  1.0049
  724SOL    HW211842   3.522   2.929   1.592  0.3304 -0.4402 -0.9383
  725SOL     OW11843   3.812   4.088   2.228 -0.1341 -0.6145  0.0055
  725SOL    HW111844   3.745   4.161   2.211  0.1813 -0.8600 -2.4195
  725SOL    HW211845   3.767   3.999   2.222 -0.0794 -0.7070  0.8597
  726SOL     OW11846   4.396   4.221   2.256  0.0314 -0.5996  0.2379
  726SOL    HW111847   4.313   4.275   2.270  0.6394  0.5776 -0.6720
  726SOL    HW211848   4.475   4.273   2.287  0.5816 -1.1547 -0.2310
  727SOL     OW11849   3.958   0.478   0.638  0.3668  0.2126 -0.2775
  727SOL    HW111850   3.985   0.397   0.690  1.3897 -0.1247 -1.3112
  727SOL    HW211851   4.024   0.551   0.654  0.4709  0.2327 -0.7660
  728SOL     OW11852   2.831   1.516   0.584 -0.1846  0.7807 -0.6921
  728SOL    HW111853   2.853   1.443   0.519 -0.5318  0.6614 -0.6772
  728SOL    HW211854   2.740   1.553   0.563 -0.4883  0.4332  0.0045
  729SOL     OW11855   3.223   3.012   1.767 -0.4468  0.1918 -0.1844
  729SOL    HW111856   3.213   3.110   1.751 -1.1397  0.1595  0.0239
  729SOL    HW211857   3.133   2.972   1.786  0.0892 -0.1076  1.8321
  730SOL     OW11858   3.431   2.041   1.577  0.4192 -0.4584 -0.0811
  730SOL    HW111859   3.403   2.076   1.488 -0.0860 -0.4007  0.0997
  730SOL    HW211860   3.376   2.083   1.649  0.9474 -0.3668  0.2741
  731SOL     OW11861   3.192   3.891   2.017  0.3152  0.1454 -0.3597
  731SOL    HW111862   3.253   3.946   1.960  1.1493 -0.7703 -0.3573
  731SOL    HW211863   3.187   3.931   2.109  0.7310  0.3420 -0.4226
  732SOL     OW11864   3.896   4.524   2.079  0.0734 -0.7232 -0.2990
  732SOL    HW111865   3.923   4.508   2.173  0.3763 -1.9585 -0.5850
  732SOL    HW211866   3.897   4.622   2.060  1.1017 -0.5454  0.6514
  733SOL     OW11867   3.627   2.813   2.465  0.0371  0.3383 -0.0219
  733SOL    HW111868   3.654   2.902   2.502  2.3151  0.5198 -1.9680
  733SOL    HW211869   3.663   2.741   2.524 -0.9498  0.6816  1.0129
  734SOL     OW11870   3.326   2.394   0.187  0.0568  0.1784 -0.1562
  734SOL    HW111871   3.261   2.319   0.197  0.1942  0.0997  0.1518
  734SOL    HW211872   3.374   2.409   0.273 -0.3534  0.9759 -0.0531
  735SOL     OW11873   3.808   0.716   1.121 -0.5811  0.2660  0.0811
  735SOL    HW111874   3.890   0.773   1.123  0.2062 -0.8423 -0.5397
  735SOL    HW211875   3.806   0.657   1.202  0.0951 -0.8923 -0.7320
  736SOL     OW11876   2.610   3.336   0.104  0.5774 -0.1662 -0.3366
  736SOL    HW111877   2.661   3.422   0.110  0.6208 -0.2223  0.1007
  736SOL    HW211878   2.515   3.352   0.130  0.5591 -0.2325 -0.3629
  737SOL     OW11879   3.726   8.693   0.676 -0.3618  0.6419  0.6846
  737SOL    HW111880   3.803   8.756   0.682 -0.3814  0.5652  2.0426
  737SOL    HW211881   3.700   8.680   0.580 -0.1752  2.4650  0.3796
  738SOL     OW11882   4.111   1.309   1.131 -0.6138 -0.2540  0.2888
  738SOL    HW111883   4.173   1.307   1.210 -0.0517  2.4522 -0.0114
  738SOL    HW211884   4.158   1.349   1.053 -1.9670 -0.5427 -0.6937
  739SOL     OW11885   3.529   3.875   1.051 -0.0160  0.0251 -0.2471
  739SOL    HW111886   3.491   3.785   1.073 -1.3046  0.1929 -1.6945
  739SOL    HW211887   3.549   3.879   0.953 -3.3105  2.4685 -0.9303
  740SOL     OW11888   3.858   4.421   0.325  0.1213 -0.0025 -0.2732
  740SOL    HW111889   3.958   4.426   0.319  0.0700  0.5070 -0.7682
  740SOL    HW211890   3.832   4.354   0.394  0.8116  0.5529  0.5357
  741SOL     OW11891   3.797   4.740   1.673  0.0071  0.4426  0.0349
  741SOL    HW111892   3.748   4.825   1.655  0.3803  0.5424 -0.5289
  741SOL    HW211893   3.830   4.701   1.587 -2.5035 -1.7160 -0.0058
  742SOL     OW11894   2.416   1.691   1.274 -0.2917 -0.4478  0.5637
  742SOL    HW111895   2.513   1.677   1.252 -0.5496 -0.2605 -0.7259
  742SOL    HW211896   2.366   1.606   1.259 -0.4174 -0.4124  0.7787
  743SOL     OW11897   4.223   2.599   0.486  0.5616  0.2928 -0.0193
  743SOL    HW111898   4.168   2.655   0.549  0.4818 -0.5077  0.6218
  743SOL    HW211899   4.164   2.568   0.411  0.1600 -0.4828  0.6152
  744SOL     OW11900   3.425   4.101   0.518 -0.2633 -0.5158  0.0984
  744SOL    HW111901   3.368   4.071   0.594  0.2361 -1.0594  0.2631
  744SOL    HW211902   3.483   4.177   0.547 -1.2995  0.4013 -0.2277
  745SOL     OW11903   2.489   2.121   1.683  0.1137 -0.0516 -0.6688
  745SOL    HW111904   2.422   2.192   1.705  1.1863  1.2614 -1.5426
  745SOL    HW211905   2.450   2.031   1.701 -1.0914  0.7764  0.9539
  746SOL     OW11906   4.317   3.658   0.225 -0.3449  0.3170 -0.3810
  746SOL    HW111907   4.310   3.580   0.162 -1.3538  0.2231 -0.1702
  746SOL    HW211908   4.336   3.741   0.174  2.0201 -0.2736 -0.4794
  747SOL     OW11909   4.055   0.415   1.356 -0.1119  0.4724 -0.0026
  747SOL    HW111910   3.965   0.459   1.357 -0.2256  0.2240  0.5789
  747SOL    HW211911   4.099   0.432   1.268 -0.0951  1.8850  0.2582
  748SOL     OW11912   4.832   2.272   0.162  0.6407 -0.5442 -0.6204
  748SOL    HW111913   4.737   2.246   0.184  0.4366 -0.2248 -1.1090
  748SOL    HW211914   4.875   2.314   0.242  0.6315 -1.4296 -0.1443
  749SOL     OW11915   3.921   2.226   2.660 -0.0604  0.2074 -0.7022
  749SOL    HW111916   3.954   2.135   2.684 -1.9871 -0.0790  1.0260
  749SOL    HW211917   3.829   2.219   2.622 -0.8948  1.5287  0.9959
  750SOL     OW11918   3.128   0.318   1.851 -0.3633  0.6433  0.7005
  750SOL    HW111919   3.169   0.264   1.925  0.4258 -0.2036 -0.3541
  750SOL    HW211920   3.033   0.292   1.840 -0.0623 -0.3326  0.3900
  751SOL     OW11921   3.296   3.826   2.631 -0.1135 -0.4179  0.3020
  751SOL    HW111922   3.347   3.826   2.545 -1.1403  1.7268 -0.3419
  751SOL    HW211923   3.198   3.815   2.612 -0.3098 -0.2998  1.2111
  752SOL     OW11924   3.210   3.630   1.921  0.6593 -0.0979 -0.0251
  752SOL    HW111925   3.199   3.722   1.958 -2.5487 -1.4007  2.4829
  752SOL    HW211926   3.293   3.589   1.958  1.9149  1.5970 -0.8793
  753SOL     OW11927   3.058   3.379   0.196  0.3443 -0.0941 -0.1134
  753SOL    HW111928   3.054   3.279   0.208  3.2608 -0.1655  0.4486
  753SOL    HW211929   2.998   3.405   0.120  1.2615 -2.5468 -1.7598
  754SOL     OW11930   2.626   0.952   2.508 -0.4511 -0.2468 -0.0180
  754SOL    HW111931   2.686   1.029   2.486 -1.0937  0.2938  0.1027
  754SOL    HW211932   2.665   0.899   2.583 -0.5611  0.6091  0.6428
  755SOL     OW11933   2.081   1.511   0.179  0.6383  0.1446 -0.2636
  755SOL    HW111934   2.152   1.465   0.125  0.2323  0.6135 -1.2132
  755SOL    HW211935   1.991   1.492   0.139  0.5765  2.9297 -1.5457
  756SOL     OW11936   2.932   0.921   2.135  0.2824  0.3328  0.1362
  756SOL    HW111937   2.892   0.968   2.056 -0.5993  1.0148  0.9807
  756SOL    HW211938   3.031   0.937   2.137  0.1970  0.9403 -0.4101
  757SOL     OW11939   3.197   3.285   0.699 -0.1892  0.5659 -0.4016
  757SOL    HW111940   3.164   3.379   0.690 -0.4448  0.3369 -1.9497
  757SOL    HW211941   3.296   3.283   0.682 -0.3822  0.3890 -1.5418
  758SOL     OW11942   3.149   9.291   0.248 -0.2167 -0.0215  0.0088
  758SOL    HW111943   3.099   9.266   0.330  0.1509  1.0026  0.5606
  758SOL    HW211944   3.165   9.210   0.192 -1.4765 -0.5378  0.3836
  759SOL     OW11945   3.048   1.672   0.528 -0.3883  0.5057  0.5154
  759SOL    HW111946   3.054   1.742   0.600  1.6780  1.2843 -0.3737
  759SOL    HW211947   2.968   1.614   0.544 -0.3617  1.1163  3.0436
  760SOL     OW11948   2.939   3.099   2.631  0.4577  0.5811  0.4240
  760SOL    HW111949   2.989   3.100   2.718  1.2248  1.5508 -0.0113
  760SOL    HW211950   2.841   3.108   2.648  0.4497 -0.9973  1.2759
  761SOL     OW11951   2.838   0.513   2.279  0.7024  0.3027 -0.1797
  761SOL    HW111952   2.838   0.431   2.335 -1.0295  0.4339  0.0290
  761SOL    HW211953   2.913   0.573   2.308  0.6377 -0.2288  1.1223
  762SOL     OW11954   3.803   8.713   1.294 -0.0704 -0.0637  0.2253
  762SOL    HW111955   3.800   8.681   1.199  0.0517  1.2997 -0.2423
  762SOL    HW211956   3.723   8.679   1.342 -0.1654 -0.7228 -0.3807
  763SOL     OW11957   4.261   2.310   0.475  0.7309  0.2747 -0.8962
  763SOL    HW111958   4.277   2.408   0.482  1.0862  0.1401  0.1899
  763SOL    HW211959   4.281   2.266   0.563 -0.1970 -0.6602 -1.1461
  764SOL     OW11960   3.428   0.548   0.619 -0.4361  0.0738 -0.0507
  764SOL    HW111961   3.507   0.568   0.678 -0.4427  1.8935 -0.6275
  764SOL    HW211962   3.358   0.500   0.671 -0.1011  0.9331  1.1934
  765SOL     OW11963   3.797   1.875   1.850 -0.1036  0.9385 -0.0052
  765SOL    HW111964   3.734   1.946   1.818  0.0518  1.4245  0.7579
  765SOL    HW211965   3.801   1.876   1.950  0.8166  0.6507 -0.0358
  766SOL     OW11966   3.748   0.198   1.488 -0.0223  0.4568 -0.8506
  766SOL    HW111967   3.842   0.225   1.506  0.1350 -0.1370 -0.7963
  766SOL    HW211968   3.741   0.099   1.484 -0.7854  0.4796 -0.1149
  767SOL     OW11969   2.910   3.116   1.004 -0.2981 -0.1663  0.1800
  767SOL    HW111970   2.830   3.056   0.998  0.9469 -1.7465 -0.6701
  767SOL    HW211971   2.960   3.096   1.089 -1.3483  1.5566  1.2547
  768SOL     OW11972   3.507   9.264   0.995  0.8488 -0.3542 -0.9725
  768SOL    HW111973   3.561   9.330   0.943 -0.6071  0.0529 -1.9910
  768SOL    HW211974   3.556   9.177   0.998  1.7854  0.1423 -1.4738
  769SOL     OW11975   4.405   3.434   1.053  0.2817  0.2571  0.4137
  769SOL    HW111976   4.467   3.473   1.122 -0.1414  3.4987 -0.9616
  769SOL    HW211977   4.455   3.422   0.967 -0.3718  0.6507 -0.0251
  770SOL     OW11978   2.664   2.055   2.518 -0.0789 -0.8345 -0.0467
  770SOL    HW111979   2.588   2.106   2.558  0.0439 -2.8397  2.9516
  770SOL    HW211980   2.635   2.012   2.433 -2.0519 -0.8550  0.6122
  771SOL     OW11981   3.208   9.688   0.981 -0.3151  0.1133  0.1627
  771SOL    HW111982   3.280   9.687   1.050  0.0863  3.7128 -0.1501
  771SOL    HW211983   3.249   9.702   0.891 -1.2992  0.6546 -0.2025
  772SOL     OW11984   3.695   0.652   2.683 -0.1073  0.3334  0.4482
  772SOL    HW111985   3.753   0.707   2.743  0.0172 -0.7595  1.3623
  772SOL    HW211986   3.730   0.654   2.590 -0.1479  1.8424  0.4582
  773SOL     OW11987   3.921   3.821   1.643  0.7463 -0.4064  0.3950
  773SOL    HW111988   3.835   3.853   1.603  0.2028 -0.1830  1.7437
  773SOL    HW211989   3.997   3.876   1.606  0.1890  0.1766  0.1036
  774SOL     OW11990   2.098   2.298   1.136  0.1430 -0.0309 -0.3988
  774SOL    HW111991   2.141   2.387   1.121  2.1055 -0.8015  0.4569
  774SOL    HW211992   2.084   2.252   1.048 -1.4610  1.3635 -0.8974
  775SOL     OW11993   3.928   3.154   2.018  0.6274 -0.1871 -0.0685
  775SOL    HW111994   3.992   3.230   2.024  1.5373 -1.1005  2.5480
  775SOL    HW211995   3.967   3.074   2.064 -1.8629 -1.1172  0.5212
  776SOL     OW11996   2.768   3.328   2.442 -0.8399  0.2261 -0.3474
  776SOL    HW111997   2.774   3.243   2.493  0.9691  0.7294  0.3203
  776SOL    HW211998   2.745   3.308   2.347 -0.4721 -1.0170 -0.1878
  777SOL     OW11999   4.035   2.951   2.159 -0.2672  0.4401 -0.1367
  777SOL    HW112000   4.108   2.982   2.220  0.7871 -0.3922 -0.9377
  777SOL    HW212001   3.974   2.889   2.208  0.9077 -0.6775 -0.0594
  778SOL     OW12002   3.792   0.581   1.357 -0.1370 -0.0961 -0.0703
  778SOL    HW112003   3.782   0.583   1.456  0.4585  1.8186 -0.0296
  778SOL    HW212004   3.755   0.495   1.321 -1.0011 -0.4892  1.7312
  779SOL     OW12005   2.716   9.667   1.755  0.5504  0.4262 -0.7660
  779SOL    HW112006   2.698   9.682   1.658 -0.2270  3.2476 -0.2145
  779SOL    HW212007   2.642   9.705   1.809  1.3955 -0.3561  0.9838
  780SOL     OW12008   2.317   1.423   1.210 -0.9237 -0.7093 -0.7269
  780SOL    HW112009   2.398   1.449   1.158 -0.8447  0.4576 -0.0526
  780SOL    HW212010   2.287   1.332   1.183  1.1267 -1.5183 -0.3624
  781SOL     OW12011   4.136   4.373   0.303  0.6834  0.5244  0.2163
  781SOL    HW112012   4.159   4.317   0.383  0.6864 -0.0718 -0.1936
  781SOL    HW212013   4.191   4.456   0.304  1.4390  0.0353  0.2895
  782SOL     OW12014   4.011   9.399   1.583  0.3126  0.1220  0.1451
  782SOL    HW112015   4.058   9.472   1.534  0.8778 -1.1167 -1.2155
  782SOL    HW212016   4.069   9.317   1.585 -0.8383 -0.7019  0.4739
  783SOL     OW12017   2.957   3.087   0.239  0.9733 -0.3579  0.3666
  783SOL    HW112018   2.980   2.992   0.216 -0.0588 -0.5296  0.0201
  783SOL    HW212019   3.020   3.120   0.309  2.5338 -0.6820 -0.8470
  784SOL     OW12020   2.362   1.369   2.143 -0.4540  0.2355 -0.4054
  784SOL    HW112021   2.426   1.435   2.105  0.6471  0.1521  1.2391
  784SOL    HW212022   2.338   1.301   2.074  1.9429 -0.2520 -0.7999
  785SOL     OW12023   4.628   3.022   1.795  0.0742  0.0735 -0.0257
  785SOL    HW112024   4.669   2.977   1.873  0.5357 -0.4822 -0.5829
  785SOL    HW212025   4.528   3.025   1.805 -0.0781 -2.2363 -0.5892
  786SOL     OW12026   4.046   2.673   0.690  0.4113  0.0457 -0.2926
  786SOL    HW112027   4.031   2.747   0.755  3.0145  0.8733 -0.5569
  786SOL    HW212028   4.101   2.601   0.734  1.1458  0.0501 -1.1901
  787SOL     OW12029   3.612   2.309   0.925  0.0971 -0.5405 -0.0290
  787SOL    HW112030   3.617   2.218   0.885 -0.9391 -1.1201  1.0959
  787SOL    HW212031   3.515   2.336   0.934  0.4080  0.9953 -1.0713
  788SOL     OW12032   2.664   0.132   2.662  0.1079 -0.1571  0.4424
  788SOL    HW112033   2.610   0.178   2.592  1.1735 -0.6656 -0.7291
  788SOL    HW212034   2.683   0.038   2.634 -1.4600 -1.1282  2.5050
  789SOL     OW12035   3.215   1.985   1.855  0.1731 -0.6245  0.1382
  789SOL    HW112036   3.274   1.999   1.934  0.9563  1.2725 -0.7437
  789SOL    HW212037   3.139   1.925   1.880  0.2411  0.1882  2.3985
  790SOL     OW12038   3.520   3.124   2.289  0.2349  0.2935  0.0781
  790SOL    HW112039   3.460   3.193   2.329  0.0836  0.5357 -0.5565
  790SOL    HW212040   3.473   3.078   2.214  0.4405 -0.2987  0.3069
  791SOL     OW12041   3.706   0.345   1.262 -0.4234 -0.1986 -0.1326
  791SOL    HW112042   3.675   0.307   1.175  0.7627 -1.6587  0.0665
  791SOL    HW212043   3.690   0.278   1.335 -0.6094  0.6707  0.6402
  792SOL     OW12044   4.505   3.713   2.281 -0.5322 -0.2775 -0.5106
  792SOL    HW112045   4.434   3.759   2.334 -0.3348  0.0678 -0.5401
  792SOL    HW212046   4.583   3.692   2.341 -0.5477 -0.4089 -0.5369
  793SOL     OW12047   2.721   1.315   1.776  0.2709  0.2166 -0.3556
  793SOL    HW112048   2.715   1.353   1.684  2.6128  1.0013 -0.2135
  793SOL    HW212049   2.746   1.388   1.840 -1.6331 -0.2552  0.9678
  794SOL     OW12050   2.294   2.142   0.684  0.0958 -0.8240  0.7095
  794SOL    HW112051   2.258   2.234   0.668  0.5733 -0.7997 -0.3130
  794SOL    HW212052   2.223   2.084   0.722 -0.8803 -0.6302 -0.7681
  795SOL     OW12053   3.988   2.326   0.175  0.2282 -0.0200 -0.0709
  795SOL    HW112054   3.965   2.315   0.079  1.1567  0.5528 -0.3643
  795SOL    HW212055   4.032   2.243   0.209 -0.4196 -0.3527 -0.0478
  796SOL     OW12056   2.334   1.563   0.843  0.0480 -1.3783 -0.4191
  796SOL    HW112057   2.353   1.466   0.828  0.2501 -1.2657 -0.8888
  796SOL    HW212058   2.292   1.602   0.762  1.3837 -0.7102 -0.8143
  797SOL     OW12059   2.957   9.662   1.923 -0.4139 -0.2282 -0.0504
  797SOL    HW112060   2.863   9.640   1.897 -0.9670 -2.0895  3.2031
  797SOL    HW212061   2.957   9.743   1.982 -0.0827 -0.6904  0.5919
  798SOL     OW12062   3.382   2.671   2.620 -0.1512  0.2254  0.4982
  798SOL    HW112063   3.361   2.676   2.718 -1.6521 -1.1050  0.2617
  798SOL    HW212064   3.414   2.760   2.588  2.6978  0.0690  2.7108
  799SOL     OW12065   4.567   2.125   0.765 -0.2519 -0.7522  0.3606
  799SOL    HW112066   4.543   2.219   0.789 -2.7556 -1.8969  2.6502
  799SOL    HW212067   4.542   2.107   0.670 -1.2223  0.4173  0.3869
  800SOL     OW12068   3.288   8.926   0.227  0.3859  0.8460  0.3527
  800SOL    HW112069   3.259   8.832   0.209 -2.7264  1.8147  0.0850
  800SOL    HW212070   3.255   8.955   0.316  1.6901  1.5865  0.6129
  801SOL     OW12071   3.347   1.971   2.106 -0.5868  0.4545  0.4348
  801SOL    HW112072   3.350   1.872   2.089  0.5488  1.2505 -4.7447
  801SOL    HW212073   3.430   1.999   2.155 -0.1227 -0.8954  0.4473
  802SOL     OW12074   2.385   9.752   0.063  0.2825  0.4497  0.6041
  802SOL    HW112075   2.387   9.781   0.159  2.1729 -1.1025  1.0799
  802SOL    HW212076   2.432   9.664   0.055 -1.0435 -0.0746 -1.5496
  803SOL     OW12077   3.532   9.622   1.036  0.0615  0.1588  0.6451
  803SOL    HW112078   3.472   9.655   1.108  0.7739  1.3520  0.7063
  803SOL    HW212079   3.598   9.694   1.012 -0.1012 -0.2572 -1.1166
  804SOL     OW12080   3.720   1.815   2.448  0.3945  0.0335  0.4335
  804SOL    HW112081   3.819   1.808   2.433  0.1628  1.8348 -2.2578
  804SOL    HW212082   3.694   1.911   2.452 -1.6255 -0.3866 -1.7044
  805SOL     OW12083   3.091   9.099   1.962 -0.4696  0.0206 -0.2443
  805SOL    HW112084   3.003   9.093   2.009 -0.7353  1.7346 -0.4837
  805SOL    HW212085   3.162   9.059   2.020 -1.7605 -3.8021 -1.1462
  806SOL     OW12086   2.504   2.217   2.684  0.2393  0.5263  0.1636
  806SOL    HW112087   2.478   2.262   2.599 -0.6260 -2.1087 -0.9964
  806SOL    HW212088   2.421   2.187   2.732  0.8442 -2.7863 -0.7361
  807SOL     OW12089   2.793   9.934   0.725  0.1937 -0.7236 -0.0060
  807SOL    HW112090   2.716   9.991   0.697  0.8220  0.0928 -0.1113
  807SOL    HW212091   2.870   9.948   0.662  0.3479 -1.6972 -0.0356
  808SOL     OW12092   3.155   1.107   0.780 -0.6528 -0.2208 -0.3324
  808SOL    HW112093   3.241   1.088   0.826 -0.6109 -0.4830 -0.5161
  808SOL    HW212094   3.079   1.080   0.839 -0.6077 -0.1499 -0.2414
  809SOL     OW12095   3.203   8.538   1.093 -0.0192  0.5544  0.3423
  809SOL    HW112096   3.208   8.498   1.001 -2.6132 -1.9885  1.2002
  809SOL    HW212097   3.134   8.610   1.095  0.6550  1.2127  0.1099
  810SOL     OW12098   3.676   2.048   1.681  0.3875 -0.7208  0.6281
  810SOL    HW112099   3.589   2.041   1.633  1.6108 -1.7018 -1.5392
  810SOL    HW212100   3.691   2.143   1.710 -0.0353  0.0886 -1.6726
  811SOL     OW12101   3.639   9.772   0.281  0.3937 -0.1562  0.2988
  811SOL    HW112102   3.646   9.704   0.209 -1.9300  0.9264 -0.9902
  811SOL    HW212103   3.718   9.765   0.341  2.2867 -1.1741 -2.2471
  812SOL     OW12104   3.896   2.225   1.994  0.3142 -0.5666 -0.2232
  812SOL    HW112105   3.898   2.140   2.048  0.9165 -0.2398  0.2752
  812SOL    HW212106   3.897   2.202   1.897  2.0637 -1.1178 -0.0997
  813SOL     OW12107   2.502   3.369   0.445 -0.7697  0.6394  0.0799
  813SOL    HW112108   2.518   3.393   0.350 -0.3691 -1.5549 -0.4314
  813SOL    HW212109   2.589   3.370   0.494 -0.6551 -0.3196 -0.0900
  814SOL     OW12110   2.187   2.454   1.936  0.0479 -0.0614  0.2631
  814SOL    HW112111   2.223   2.436   1.845  0.1020 -1.8208  0.6285
  814SOL    HW212112   2.172   2.553   1.946  0.6379  0.2212 -1.4116
  815SOL     OW12113   2.525   2.395   1.828  0.2208  0.1800 -0.1094
  815SOL    HW112114   2.456   2.386   1.757  0.7325  1.0041 -0.7165
  815SOL    HW212115   2.551   2.305   1.861  0.6311 -0.2475 -1.5919
  816SOL     OW12116   2.962   1.805   1.145  0.1211  0.3032 -0.0239
  816SOL    HW112117   2.985   1.714   1.112  1.1125  0.6960 -0.4353
  816SOL    HW212118   3.013   1.824   1.229 -1.8525 -0.4169  1.3794
  817SOL     OW12119   2.351   9.798   1.488  0.0026 -0.0290  0.6573
  817SOL    HW112120   2.383   9.860   1.560  1.7863 -1.9626  1.5870
  817SOL    HW212121   2.266   9.755   1.515  0.0661  0.1306  1.1079
  818SOL     OW12122   2.887   1.818   2.375  0.4306  0.2535  0.1290
  818SOL    HW112123   2.924   1.759   2.303 -1.3809 -1.3419  0.4646
  818SOL    HW212124   2.957   1.883   2.404  0.8401  1.6435 -3.8030
  819SOL     OW12125   3.440   3.653   1.203  0.7248  0.4512 -0.7253
  819SOL    HW112126   3.402   3.571   1.245  1.4587  0.2844 -0.3935
  819SOL    HW212127   3.379   3.731   1.220  0.8548  0.3146  0.3417
  820SOL     OW12128   2.955   0.353   0.125 -0.5131  0.4656  0.1115
  820SOL    HW112129   3.028   0.382   0.186  2.1835 -2.8270 -1.4083
  820SOL    HW212130   2.899   0.282   0.169 -1.2511  1.1698  0.3262
  821SOL     OW12131   2.265   2.439   2.435  0.2609  0.3637 -0.1166
  821SOL    HW112132   2.221   2.410   2.350  2.6099 -1.4680 -0.7633
  821SOL    HW212133   2.223   2.390   2.512  1.5339 -1.8720 -0.8007
  822SOL     OW12134   3.496   9.876   1.446  0.0419 -0.1948  0.3745
  822SOL    HW112135   3.592   9.901   1.433 -0.9106  2.8479 -1.5098
  822SOL    HW212136   3.475   9.874   1.543  1.6543  0.5623  0.7566
  823SOL     OW12137   3.963   0.941   0.446  0.0895 -0.0162 -0.1944
  823SOL    HW112138   3.918   0.902   0.526  0.5535 -0.4382 -0.1323
  823SOL    HW212139   4.027   0.874   0.408  0.7973  0.6410 -0.1682
  824SOL     OW12140   2.140   2.932   0.340  0.2194  0.2703 -0.5995
  824SOL    HW112141   2.083   2.900   0.264 -1.8557 -1.9187  1.7705
  824SOL    HW212142   2.185   2.855   0.384  0.5535  1.3451  1.0201
  825SOL     OW12143   2.784   3.828   2.329 -0.1709 -0.0643  0.0901
  825SOL    HW112144   2.770   3.915   2.283 -0.7485 -1.1290 -1.7715
  825SOL    HW212145   2.844   3.770   2.274 -0.9601 -1.3977  0.6147
  826SOL     OW12146   4.146   1.885   1.159 -0.5378  0.3442  0.4154
  826SOL    HW112147   4.055   1.856   1.130 -1.1379  2.7112 -0.2106
  826SOL    HW212148   4.205   1.897   1.079 -0.2369  0.5832  0.6686
  827SOL     OW12149   2.449   1.646   1.599  0.1663 -0.1651 -0.0019
  827SOL    HW112150   2.372   1.618   1.658 -0.9677  1.8463 -0.4662
  827SOL    HW212151   2.485   1.566   1.552 -0.9691 -1.3226  1.0372
  828SOL     OW12152   3.579   1.102   1.809  0.0931  0.1561  0.2733
  828SOL    HW112153   3.537   1.147   1.888 -1.7782 -0.6523 -0.2276
  828SOL    HW212154   3.600   1.171   1.739 -1.5311  0.4647  0.0530
  829SOL     OW12155   3.275   2.053   1.076 -0.0964  0.1164 -0.0386
  829SOL    HW112156   3.369   2.031   1.049  0.0368  0.3945  0.1983
  829SOL    HW212157   3.217   1.973   1.061  0.4902 -0.5876  1.3153
  830SOL     OW12158   3.255   9.356   1.173  0.0889  0.0725  0.0969
  830SOL    HW112159   3.270   9.432   1.236 -1.6907  0.6364 -0.1298
  830SOL    HW212160   3.302   9.375   1.087 -0.7230  1.1424 -0.1176
  831SOL     OW12161   3.073   3.726   0.295  0.2386  0.2272 -0.1359
  831SOL    HW112162   3.132   3.673   0.356  0.6187  0.4984 -0.2690
  831SOL    HW212163   2.980   3.690   0.300  0.1291  0.6390  1.0953
  832SOL     OW12164   2.824   2.408   2.084  0.1741 -0.4745  0.4986
  832SOL    HW112165   2.833   2.309   2.090 -0.8882 -0.5690  0.6417
  832SOL    HW212166   2.730   2.435   2.109 -0.4714  0.2886 -2.5562
  833SOL     OW12167   2.290   2.054   1.990 -0.1736 -0.2519 -0.1402
  833SOL    HW112168   2.356   2.129   1.992 -1.0020  0.5846 -2.3747
  833SOL    HW212169   2.296   2.007   1.902 -3.0427  0.3467 -0.7136
  834SOL     OW12170   3.425   2.356   1.912  0.3318  0.1107  0.2963
  834SOL    HW112171   3.439   2.271   1.861  0.0840  1.1111 -1.4931
  834SOL    HW212172   3.336   2.395   1.888  1.2585  1.8615 -0.4128
  835SOL     OW12173   2.064   2.176   0.901  0.1024  0.1278  0.4592
  835SOL    HW112174   2.082   2.091   0.851  1.2236 -0.2951  1.5439
  835SOL    HW212175   2.080   2.254   0.841  0.1115 -0.4006 -0.2365
  836SOL     OW12176   2.148   1.462   1.417 -0.1031 -0.1428 -0.6392
  836SOL    HW112177   2.074   1.523   1.389 -0.0807 -1.2054 -3.1601
  836SOL    HW212178   2.213   1.451   1.342 -0.4784 -3.8122 -0.5332
  837SOL     OW12179   3.338   2.776   1.847 -0.2618  0.4179  0.4981
  837SOL    HW112180   3.270   2.849   1.851  0.2397  0.9927 -1.2819
  837SOL    HW212181   3.427   2.812   1.874 -0.3243  0.0662  1.1864
  838SOL     OW12182   4.267   1.745   1.992  0.0679 -0.6595 -0.1594
  838SOL    HW112183   4.204   1.787   1.928 -1.1404  0.2719  1.6307
  838SOL    HW212184   4.320   1.674   1.944 -0.8259 -0.0077 -2.1604
  839SOL     OW12185   4.162   1.377   0.603  0.1603 -0.2291  0.0602
  839SOL    HW112186   4.131   1.459   0.554  0.9758 -0.1985 -0.4123
  839SOL    HW212187   4.113   1.369   0.690 -1.2613 -0.2586 -0.7458
  840SOL     OW12188   3.587   8.751   2.063  0.3384  0.2763  0.2021
  840SOL    HW112189   3.663   8.809   2.035  0.5832 -0.2837 -0.3264
  840SOL    HW212190   3.566   8.687   1.989  2.0449 -2.3299  1.8592
  841SOL     OW12191   2.454   3.457   2.358 -0.2681  0.0899 -0.1201
  841SOL    HW112192   2.406   3.426   2.440 -0.8119  1.3446  0.0611
  841SOL    HW212193   2.531   3.515   2.385  0.2622 -0.4633 -0.4609
  842SOL     OW12194   3.220   3.100   0.069 -0.0269  0.5474  0.1220
  842SOL    HW112195   3.274   3.064  -0.008 -1.8302 -1.1571 -0.3928
  842SOL    HW212196   3.281   3.139   0.137  1.8076 -0.5628 -0.8459
  843SOL     OW12197   4.654   3.206   1.605 -0.0733  0.2171 -0.5679
  843SOL    HW112198   4.698   3.144   1.670 -2.1480 -1.6752 -0.8666
  843SOL    HW212199   4.559   3.220   1.633 -0.4108  1.0158 -2.0759
  844SOL     OW12200   3.713   2.672   1.067 -0.6441  0.6648 -0.2130
  844SOL    HW112201   3.614   2.668   1.050 -0.5956 -1.3110 -0.1190
  844SOL    HW212202   3.760   2.607   1.007  0.6627  1.9629 -0.6263
  845SOL     OW12203   2.104   1.966   0.523 -0.4078  0.4528  0.1960
  845SOL    HW112204   2.135   1.917   0.441  0.6688 -0.3692  1.0919
  845SOL    HW212205   2.140   2.059   0.522 -0.5878  0.5208 -0.3690
  846SOL     OW12206   2.403   0.431   2.605 -0.5947  0.2428 -0.1140
  846SOL    HW112207   2.357   0.507   2.558 -1.7364 -0.4544 -0.1301
  846SOL    HW212208   2.431   0.461   2.697 -2.1146  0.3296  0.3371
  847SOL     OW12209   2.735   2.898   0.960  0.6273  0.9054 -0.1011
  847SOL    HW112210   2.741   2.847   1.046  0.8496  0.2569 -0.4957
  847SOL    HW212211   2.640   2.924   0.944  0.5532  0.8578  0.2413
  848SOL     OW12212   3.047   0.703   2.335 -0.7939 -0.1704  0.1289
  848SOL    HW112213   3.084   0.707   2.243  1.5977 -1.3232  1.0005
  848SOL    HW212214   2.994   0.785   2.353  1.6425  1.7300 -1.0597
  849SOL     OW12215   3.175   0.065   0.872 -0.4642  0.7627  0.0462
  849SOL    HW112216   3.099   0.082   0.935  0.5067 -0.6101  1.6285
  849SOL    HW212217   3.141   0.070   0.778 -2.6568 -0.4443  0.7229
  850SOL     OW12218   3.835   0.166   0.816 -0.0199  0.6884  0.2063
  850SOL    HW112219   3.849   0.069   0.799  0.9629  0.7240  0.8140
  850SOL    HW212220   3.756   0.197   0.764  2.0516  0.4804 -3.1995
  851SOL     OW12221   2.354   1.888   1.749 -0.6690 -0.9379  0.4206
  851SOL    HW112222   2.275   1.900   1.689 -1.2126 -0.3986  1.2240
  851SOL    HW212223   2.416   1.820   1.710 -1.2894 -1.0079 -0.4609
  852SOL     OW12224   2.281   2.169   0.385 -0.2215  0.0999  0.0108
  852SOL    HW112225   2.293   2.265   0.411  1.3407  0.1469 -0.8264
  852SOL    HW212226   2.369   2.122   0.391 -0.6751 -0.8969 -1.1018
  853SOL     OW12227   4.150   1.810   1.504  0.0810 -0.7790  0.6512
  853SOL    HW112228   4.072   1.854   1.460  0.1497 -0.7741  0.5361
  853SOL    HW212229   4.176   1.728   1.454  0.5908 -0.4005  0.2884
  854SOL     OW12230   4.819   2.032   1.632  0.1523 -0.1819  0.5064
  854SOL    HW112231   4.869   2.036   1.546  0.6048 -0.1686  0.7722
  854SOL    HW212232   4.848   2.107   1.691 -0.2314 -0.1298  0.6334
  855SOL     OW12233   2.429   3.026   1.466 -0.1217  0.2697 -0.9925
  855SOL    HW112234   2.441   3.094   1.539  0.3527 -0.5129 -0.3206
  855SOL    HW212235   2.423   3.072   1.378  0.4794  1.1688 -0.5752
  856SOL     OW12236   2.274   0.822   1.864 -0.3887  0.1019 -0.6909
  856SOL    HW112237   2.299   0.728   1.844 -1.7737  0.0028 -2.0442
  856SOL    HW212238   2.329   0.856   1.941  0.3661 -1.6739 -0.4319
  10.00000  10.00000   2.72324
