chitosan Film  in water:acetic acid 2%
78843
    1CHTO  H203    1   5.214   6.632   5.504 -1.7976 -1.4781  3.3512
    1CHTO   O82    2   5.277   6.562   5.508  0.4402  0.2073 -0.1502
    1CHTO  C123    3   5.398   6.591   5.446 -0.3192  0.7291  0.0860
    1CHTO  H227    4   5.448   6.677   5.495  0.7326 -0.0280  0.3710
    1CHTO   O77    5   5.485   6.476   5.472 -0.4800  0.8788  0.0033
    1CHTO  C118    6   5.608   6.471   5.399  0.3972 -0.5042 -0.3694
    1CHTO  H222    7   5.673   6.550   5.440  0.0504  0.0168 -0.8112
    1CHTO  C125    8   5.666   6.329   5.428 -0.4008 -0.0350 -0.1051
    1CHTO   O84    9   5.711   6.321   5.565  0.0594  0.4722 -0.1680
    1CHTO  H205   10   5.789   6.270   5.577 -0.4256 -0.4229 -0.7565
    1CHTO  C114   11   5.582   6.487   5.247 -0.0182  0.2093  0.6445
    1CHTO  H218   12   5.504   6.419   5.214 -1.2627  1.6287  0.6198
    1CHTO  C116   13   5.517   6.629   5.226  0.6144  0.0255  0.6164
    1CHTO  H220   14   5.588   6.700   5.274 -0.5776 -0.4745  3.1701
    1CHTO   O79   15   5.510   6.656   5.086  0.1765 -0.3243 -0.4613
    1CHTO  H201   16   5.542   6.589   5.030  2.3390  1.5839 -1.6019
    1CHTO  C120   17   5.376   6.631   5.298 -0.5750 -0.0573  0.2280
    1CHTO  H224   18   5.321   6.551   5.244  2.0059 -2.2045  0.6558
    1CHTO   N21   19   5.307   6.760   5.284 -0.2679 -0.2526 -0.0269
    1CHTO  H211   20   5.252   6.791   5.372 -1.4443  0.4683 -0.9999
    1CHTO  H212   21   5.362   6.845   5.247  0.5339  0.2762  2.2870
    1CHTO   O75   22   5.707   6.457   5.177 -0.3667 -0.0733  0.2877
    1CHTO  C112   23   5.682   6.385   5.026  0.1896 -0.4981  0.2629
    1CHTO  H216   24   5.596   6.439   4.984  0.7643 -0.7774 -1.3016
    1CHTO   O73   25   5.653   6.244   5.046  0.0204 -0.2890  0.6643
    1CHTO  C113   26   5.610   6.165   4.932  0.0080  0.0606 -0.2825
    1CHTO  H217   27   5.511   6.212   4.911  0.6623  1.8683  0.4957
    1CHTO  C124   28   5.589   6.020   4.986  0.2778 -0.2184 -0.2822
    1CHTO   O83   29   5.555   5.917   4.892  0.1007  0.2412  0.2066
    1CHTO  H204   30   5.612   5.842   4.895 -0.9696 -0.6582 -1.4633
    1CHTO  C109   31   5.717   6.179   4.816  0.5716  0.7252 -1.0216
    1CHTO  H213   32   5.803   6.117   4.846  0.2398  1.4858  1.5988
    1CHTO  C110   33   5.751   6.324   4.784 -0.3099 -0.1083 -0.4612
    1CHTO  H214   34   5.671   6.385   4.742  0.9856 -0.3293 -3.3145
    1CHTO   O78   35   5.862   6.322   4.686 -0.6323 -1.0379 -0.1658
    1CHTO  H200   36   5.899   6.405   4.661 -2.2716 -0.4877 -0.8264
    1CHTO  C111   37   5.796   6.394   4.918 -0.5217 -0.4379  0.2518
    1CHTO  H215   38   5.885   6.340   4.956 -0.8768  0.2491  2.1084
    1CHTO   N19   39   5.831   6.546   4.908 -0.7629  0.2111  0.3108
    1CHTO  H207   40   5.938   6.549   4.891 -0.7274 -1.6686  0.1325
    1CHTO  H208   41   5.818   6.592   5.005  1.6284 -0.3343  0.9438
    1CHTO   O74   42   5.657   6.126   4.690  0.0795  0.1648  0.1804
    1CHTO  C115   43   5.717   6.002   4.639 -0.5110  0.0555 -0.4956
    1CHTO  H219   44   5.787   5.959   4.710 -1.3357 -1.7107 -0.7250
    1CHTO   O76   45   5.603   5.882   4.615  0.0260  0.3349 -0.2048
    1CHTO  C122   46   5.535   5.903   4.491  0.7244 -0.2746  0.4196
    1CHTO  H226   47   5.475   5.994   4.491 -1.8233 -1.8776  1.6495
    1CHTO  C126   48   5.441   5.779   4.459  0.3336 -0.1052 -0.6615
    1CHTO   O85   49   5.517   5.661   4.457  0.2147 -0.0335 -0.2773
    1CHTO  H206   50   5.478   5.592   4.507  2.1050 -1.3652 -0.5461
    1CHTO  C121   51   5.638   5.919   4.361 -0.4438  0.5012  0.1499
    1CHTO  H225   52   5.624   5.837   4.288 -1.3423  1.3481 -0.6584
    1CHTO   O81   53   5.608   6.044   4.285 -0.0512  0.1967  0.0623
    1CHTO  H202   54   5.640   6.123   4.322  0.4789 -0.8586  1.9016
    1CHTO  C119   55   5.787   5.915   4.406  0.1428 -0.8251  0.9021
    1CHTO  H223   56   5.800   5.820   4.458 -1.9232 -2.2076 -1.0131
    1CHTO  C117   57   5.805   6.031   4.508 -0.4928 -0.2942 -0.7294
    1CHTO  H221   58   5.778   6.135   4.489 -2.0041 -0.4408  0.5302
    1CHTO   N20   59   5.956   6.040   4.540 -0.2184  0.0792  0.4742
    1CHTO  H209   60   5.974   6.072   4.642  0.2780 -0.3465  0.5215
    1CHTO  H210   61   6.011   5.950   4.517 -0.8391 -0.5184  1.2949
    1CHTO   O80   62   5.879   5.896   4.291  0.5592 -0.0323 -0.4617
    1CHTO  C103   63   5.955   5.762   4.286 -0.7483  0.3833 -0.0092
    1CHTO  H190   64   5.982   5.730   4.387 -0.2600 -0.0352 -0.2657
    1CHTO  C101   65   5.888   5.637   4.221  0.0950 -0.2180  0.1823
    1CHTO  H188   66   5.846   5.659   4.123  0.7503 -0.2324 -0.1094
    1CHTO   O68   67   5.759   5.604   4.323  0.3236 -0.1098 -0.0721
    1CHTO  H168   68   5.690   5.573   4.267  2.1780 -1.4875 -1.6483
    1CHTO   C99   69   5.974   5.508   4.204  0.7308  0.2777 -0.3627
    1CHTO  H186   70   6.010   5.479   4.306  1.5672 -0.6332 -0.9079
    1CHTO   N17   71   5.902   5.383   4.139  0.1927 -0.5150  0.2172
    1CHTO  H174   72   5.882   5.403   4.035  0.9517  3.1143  0.6858
    1CHTO  H175   73   5.976   5.305   4.136  0.1896 -0.4622 -2.8864
    1CHTO   C97   74   6.096   5.567   4.131 -0.3407  0.8999 -0.1599
    1CHTO  H184   75   6.056   5.611   4.039 -3.1035  1.7421  1.3828
    1CHTO   O64   76   6.170   5.662   4.216  0.4921  0.2801  0.2970
    1CHTO  C104   77   6.098   5.786   4.209  0.8258  0.3060  0.4296
    1CHTO  H191   78   6.080   5.826   4.110 -1.3600 -0.4332  0.5092
    1CHTO  C108   79   6.190   5.879   4.285  0.1218  0.4174  0.0860
    1CHTO   O71   80   6.308   5.895   4.202 -0.1343  0.1961  0.3889
    1CHTO  H171   81   6.387   5.909   4.251  2.5440 -1.6032 -3.1533
    1CHTO   O62   82   6.198   5.470   4.106  0.1791 -0.2339 -0.3419
    1CHTO   C91   83   6.295   5.495   3.996  0.2762 -0.7124 -0.4421
    1CHTO  H178   84   6.312   5.603   3.987 -0.1146 -0.4733  1.4742
    1CHTO   C92   85   6.228   5.441   3.865 -0.2068 -0.2284 -0.9856
    1CHTO  H179   86   6.120   5.451   3.883  0.2787  1.3900  1.1974
    1CHTO   O66   87   6.264   5.532   3.758 -0.0792 -0.3400 -0.0904
    1CHTO  H166   88   6.353   5.520   3.729  0.1091 -0.0438  0.3579
    1CHTO   C93   89   6.269   5.290   3.828 -0.7835 -0.3288 -0.2115
    1CHTO  H180   90   6.239   5.283   3.722  0.4562 -1.5370 -0.5025
    1CHTO   N16   91   6.186   5.194   3.906  0.2986  0.5401 -0.3901
    1CHTO  H172   92   6.198   5.097   3.860 -0.7236  0.6548 -0.8972
    1CHTO  H173   93   6.082   5.221   3.911 -0.0533 -1.1786  2.4203
    1CHTO   C94   94   6.425   5.271   3.842  0.0382 -0.1369  0.1001
    1CHTO  H181   95   6.451   5.181   3.898  2.8426  0.2338 -0.5204
    1CHTO   O61   96   6.491   5.396   3.894  0.1484  0.0779 -0.0917
    1CHTO   C95   97   6.433   5.435   4.017 -0.5246 -0.8411 -0.2871
    1CHTO  H182   98   6.422   5.347   4.080  0.0015 -1.0828 -0.5285
    1CHTO  C106   99   6.534   5.527   4.094  0.0430  0.2257  0.1423
    1CHTO   O69  100   6.643   5.448   4.144  0.2780 -0.4724 -0.4482
    1CHTO  H169  101   6.707   5.507   4.177 -2.8059  1.2043  2.9924
    1CHTO   O63  102   6.464   5.253   3.717  0.2029  0.1680  0.2893
    1CHTO   C96  103   6.604   5.172   3.715 -0.3640 -0.4835 -0.4987
    1CHTO  H183  104   6.623   5.102   3.795 -1.6210  1.3209  1.4434
    1CHTO   C98  105   6.732   5.263   3.717  0.0247 -0.3236  0.1744
    1CHTO  H185  106   6.712   5.360   3.765  2.6776  1.0658 -1.4049
    1CHTO   O67  107   6.830   5.196   3.804 -0.6304  0.3118  1.1496
    1CHTO  H167  108   6.922   5.209   3.791 -0.5688 -1.1693  0.0383
    1CHTO  C102  109   6.794   5.296   3.576 -0.0264 -0.4964 -0.6307
    1CHTO  H189  110   6.894   5.338   3.598 -0.4707  1.0891 -1.5830
    1CHTO   N18  111   6.728   5.403   3.498  0.1865  0.2966  0.1293
    1CHTO  H176  112   6.783   5.460   3.425 -1.4351 -1.3079 -2.4482
    1CHTO  H177  113   6.632   5.374   3.459 -1.3332  4.5474  0.3797
    1CHTO  C105  114   6.809   5.162   3.505 -0.1109  0.1901 -0.2475
    1CHTO  H192  115   6.785   5.178   3.400 -0.4105 -0.9713 -0.3679
    1CHTO   O65  116   6.730   5.053   3.546  0.1580  0.1176 -0.3606
    1CHTO  C100  117   6.598   5.093   3.579  0.1071  0.4126  0.9247
    1CHTO  H187  118   6.561   5.146   3.490 -0.4125  0.7467  1.3332
    1CHTO  C107  119   6.527   4.957   3.596 -0.2463  0.1271 -0.2403
    1CHTO   O70  120   6.381   4.978   3.600  0.1350 -0.3514 -0.4655
    1CHTO  H170  121   6.352   5.017   3.520  2.0365  2.5772  0.2076
    1CHTO   O57  122   6.943   5.119   3.528 -0.1249  0.0194  0.4170
    1CHTO   C85  123   7.022   5.022   3.455 -0.1477  0.0116  0.2264
    1CHTO  H157  124   6.974   5.016   3.355 -0.9010 -0.2624  0.6024
    1CHTO   C83  125   7.005   4.885   3.512 -0.0997 -0.1038  0.0216
    1CHTO  H155  126   6.902   4.857   3.488 -1.1450  0.7223  3.2561
    1CHTO   O56  127   7.019   4.878   3.655  0.0272  0.3995 -0.3028
    1CHTO  H135  128   6.982   4.798   3.688  0.5415  0.9886  1.7628
    1CHTO   C81  129   7.106   4.796   3.436  0.7555  0.2442  0.0814
    1CHTO  H153  130   7.087   4.803   3.329 -0.3175  0.1485  0.2675
    1CHTO   N14  131   7.103   4.649   3.455 -0.0481 -0.6835 -0.1451
    1CHTO  H141  132   7.008   4.602   3.473 -0.6793  1.2583  1.7879
    1CHTO  H142  133   7.154   4.595   3.378 -1.0138 -0.5074 -0.9101
    1CHTO   C79  134   7.257   4.841   3.462 -0.1596  0.0120 -0.3711
    1CHTO  H151  135   7.326   4.777   3.407  0.4778 -0.2942  0.7645
    1CHTO   O52  136   7.275   4.976   3.400 -0.0305 -0.0477  0.0230
    1CHTO   C86  137   7.175   5.070   3.452 -0.0605 -0.4058 -0.1424
    1CHTO  H158  138   7.208   5.088   3.557 -0.5165  1.1657 -0.2645
    1CHTO   C90  139   7.189   5.204   3.372  0.9709 -0.2711  0.5279
    1CHTO   O60  140   7.317   5.269   3.402  0.1707 -0.2609 -0.4191
    1CHTO  H138  141   7.316   5.362   3.408 -1.2808 -0.2189 -1.0565
    1CHTO   O50  142   7.294   4.850   3.602  0.0140 -0.5212 -0.0112
    1CHTO   C73  143   7.409   4.877   3.685 -0.2500 -0.4094  0.3300
    1CHTO  H145  144   7.490   4.813   3.648 -0.3184  0.4255 -1.2820
    1CHTO   C74  145   7.379   4.837   3.832 -0.1391 -0.0867  0.6614
    1CHTO  H146  146   7.363   4.729   3.834  0.6806 -0.2009  1.5590
    1CHTO   O54  147   7.502   4.860   3.906  0.5343  0.1351  0.9561
    1CHTO  H133  148   7.531   4.788   3.958  3.1480  0.0211 -0.5677
    1CHTO   C75  149   7.256   4.919   3.885  0.3800  0.6835  0.2283
    1CHTO  H147  150   7.172   4.890   3.821  0.6285  2.4626 -0.9339
    1CHTO   N13  151   7.211   4.898   4.028  0.7169 -1.1985  0.1077
    1CHTO  H139  152   7.299   4.923   4.085  2.3516 -1.8047 -2.0800
    1CHTO  H140  153   7.173   4.800   4.051  1.3818 -1.6166 -0.5674
    1CHTO   C76  154   7.283   5.077   3.862 -0.0334 -0.2684  0.3799
    1CHTO  H148  155   7.342   5.117   3.944  0.8955 -0.4963 -0.1651
    1CHTO   O49  156   7.350   5.106   3.727  0.1289  0.2120  0.5522
    1CHTO   C77  157   7.456   5.026   3.682  0.1352 -0.0687  0.0875
    1CHTO  H149  158   7.544   5.030   3.746  0.1719  1.6859 -0.0257
    1CHTO   C88  159   7.510   5.061   3.541  0.0618 -0.4516 -0.0584
    1CHTO   O58  160   7.570   5.209   3.537  0.8611  0.1102 -0.7481
    1CHTO  H136  161   7.592   5.234   3.625 -2.3956 -0.3358  0.2361
    1CHTO   O51  162   7.151   5.145   3.855  0.5978 -0.2786  0.4838
    1CHTO   C78  163   7.149   5.282   3.916 -0.1811  0.4092  0.3464
    1CHTO  H150  164   7.254   5.309   3.942  0.4249 -1.5807  0.0253
    1CHTO   C80  165   7.067   5.284   4.045  0.9014 -0.7884 -0.5362
    1CHTO  H152  166   6.964   5.248   4.023  0.2586  1.9890 -2.3931
    1CHTO   O55  167   7.122   5.188   4.141 -0.3643  0.5349  0.0735
    1CHTO  H134  168   7.194   5.216   4.194 -1.9775  0.1051  2.5779
    1CHTO   C84  169   7.061   5.430   4.109  0.4693 -0.1131  0.3674
    1CHTO  H156  170   7.165   5.444   4.138  0.5050 -1.2859  0.8127
    1CHTO   N15  171   6.974   5.438   4.233 -0.0134 -0.1392 -0.4545
    1CHTO  H143  172   6.967   5.539   4.270  0.9914 -0.2521  0.0722
    1CHTO  H144  173   6.878   5.406   4.198 -0.2707  0.1727 -0.0313
    1CHTO   C87  174   7.021   5.524   3.987 -1.1050  0.0722 -0.6991
    1CHTO  H159  175   6.916   5.504   3.963 -1.6983  1.2688  0.8017
    1CHTO   O53  176   7.113   5.512   3.873  0.5934  0.2409 -0.2259
    1CHTO   C82  177   7.104   5.388   3.813 -0.1923  0.0500  0.8047
    1CHTO  H154  178   7.005   5.364   3.773  1.2713  1.2048 -3.7375
    1CHTO   C89  179   7.200   5.380   3.690 -0.0425  0.3031  0.5572
    1CHTO   O59  180   7.159   5.481   3.596  0.8449 -0.4788  0.0549
    1CHTO  H137  181   7.183   5.461   3.508  0.8971  0.0054 -0.0417
    1CHTO   O45  182   7.037   5.688   4.017  0.0124 -0.3023  0.2913
    1CHTO   C67  183   6.967   5.764   3.910 -0.7194 -0.4920  0.7886
    1CHTO  H124  184   6.992   5.714   3.816 -2.1718  1.0806 -0.4601
    1CHTO   C65  185   6.813   5.775   3.931 -0.4810  0.0046 -0.2712
    1CHTO  H122  186   6.787   5.688   3.991  3.1609 -1.4408 -0.6238
    1CHTO   O44  187   6.743   5.772   3.803  0.6573 -0.1714 -0.6895
    1CHTO  H102  188   6.795   5.725   3.741 -1.6468 -2.2444 -1.1037
    1CHTO   C63  189   6.784   5.904   4.009  0.4446 -0.1807 -0.6118
    1CHTO  H120  190   6.844   5.906   4.100  1.5838  0.3898 -1.3633
    1CHTO   N11  191   6.652   5.909   4.081  0.1509  0.1115 -0.3346
    1CHTO  H108  192   6.646   5.977   4.163  1.6407  0.7894 -0.7686
    1CHTO  H109  193   6.578   5.909   4.004 -2.4453 -0.9990  2.0660
    1CHTO   C61  194   6.837   6.029   3.924 -0.3565 -0.3151 -0.0150
    1CHTO  H118  195   6.842   6.114   3.995  0.7939 -1.6565  1.5446
    1CHTO   O40  196   6.968   6.014   3.856  0.2605 -0.2081 -0.1246
    1CHTO   C68  197   7.046   5.901   3.904  0.3938 -0.1661  0.0732
    1CHTO  H125  198   7.073   5.922   4.010 -0.1401  0.0425  0.1709
    1CHTO   C72  199   7.177   5.891   3.824 -0.0239  0.1183  0.3934
    1CHTO   O48  200   7.278   5.986   3.859  0.7328  0.1454  0.2551
    1CHTO  H105  201   7.367   5.958   3.864  0.3706 -1.6614 -2.3443
    1CHTO   O38  202   6.744   6.068   3.823  0.0813 -0.0390  0.4193
    1CHTO   C55  203   6.713   6.207   3.796 -0.3488  0.0151 -0.3824
    1CHTO  H112  204   6.786   6.274   3.842 -0.7337 -0.9434  1.6697
    1CHTO   C56  205   6.572   6.232   3.858  0.4360 -0.3965 -0.0551
    1CHTO  H113  206   6.504   6.148   3.838  1.3551 -1.2022  0.1936
    1CHTO   O42  207   6.575   6.217   3.997  0.2825  0.3650 -0.3964
    1CHTO  H100  208   6.500   6.255   4.038  1.1880  2.2270 -0.4137
    1CHTO   C57  209   6.511   6.375   3.812 -0.9014  0.0073 -0.5097
    1CHTO  H114  210   6.557   6.455   3.870 -2.4873  1.9845 -1.8721
    1CHTO   N10  211   6.365   6.389   3.839  0.5458 -0.2083 -0.1119
    1CHTO  H106  212   6.319   6.450   3.763 -0.1389 -2.2598 -1.4104
    1CHTO  H107  213   6.346   6.430   3.937  1.0148 -0.4246  0.0740
    1CHTO   C58  214   6.538   6.406   3.663 -0.6141 -0.0323  0.7118
    1CHTO  H115  215   6.470   6.342   3.603 -1.6224  1.0127  0.7309
    1CHTO   O37  216   6.674   6.383   3.628  0.2907 -0.1090  0.4622
    1CHTO   C59  217   6.708   6.245   3.644  0.0902  0.0029 -0.3281
    1CHTO  H116  218   6.629   6.184   3.601  0.7691 -1.7319  0.8066
    1CHTO   C70  219   6.835   6.197   3.560  0.5870 -0.2433  0.2017
    1CHTO   O46  220   6.960   6.241   3.615  0.0554  0.5140  0.1731
    1CHTO  H103  221   6.973   6.333   3.603 -1.8251  1.2019  2.7976
    1CHTO   O39  222   6.518   6.560   3.642 -0.4548  0.2726  0.3291
    1CHTO   C60  223   6.519   6.617   3.510  0.3729  0.8187  0.2775
    1CHTO  H117  224   6.623   6.623   3.478  0.0998  2.3187 -0.3760
    1CHTO   C62  225   6.449   6.526   3.415  0.6923 -0.1393  0.1564
    1CHTO  H119  226   6.500   6.428   3.410  1.7388  0.4434 -0.5516
    1CHTO   O43  227   6.319   6.496   3.469 -0.6094  0.5363 -0.4281
    1CHTO  H101  228   6.323   6.411   3.507  2.2143 -0.4260 -2.6330
    1CHTO   C66  229   6.425   6.590   3.264  0.0440  0.1980  0.1836
    1CHTO  H123  230   6.522   6.622   3.225  1.2626 -2.5129  0.8875
    1CHTO   N12  231   6.359   6.512   3.162 -0.3479  0.1135 -0.5832
    1CHTO  H110  232   6.416   6.425   3.133 -0.9389 -0.0156 -1.4089
    1CHTO  H111  233   6.262   6.477   3.194  0.3633 -1.0628  0.3342
    1CHTO   C69  234   6.363   6.727   3.289  0.2698  0.3095  1.2565
    1CHTO  H126  235   6.259   6.709   3.324 -0.6709  0.5691 -1.2478
    1CHTO   O41  236   6.440   6.804   3.380  0.3675  0.3252  0.0691
    1CHTO   C64  237   6.457   6.760   3.508  0.0463 -0.2999 -0.1736
    1CHTO  H121  238   6.357   6.760   3.557 -0.4761 -0.5183 -1.2334
    1CHTO   C71  239   6.554   6.857   3.585 -0.3015  0.0679 -0.1735
    1CHTO   O47  240   6.673   6.893   3.520  0.9486  0.5381  0.0970
    1CHTO  H104  241   6.722   6.954   3.571  1.4366 -1.0431  1.5738
    1CHTO   O34  242   6.359   6.810   3.157 -0.4239 -0.3419  0.2127
    1CHTO   C49  243   6.309   6.937   3.089  0.5941 -0.1063 -0.0739
    1CHTO   H91  244   6.391   6.958   3.020 -0.1657  1.2416 -0.5769
    1CHTO   C47  245   6.302   7.061   3.184 -0.0762  0.5648  0.8316
    1CHTO   H89  246   6.411   7.078   3.195  0.5073 -0.6689 -2.3406
    1CHTO   O33  247   6.250   7.024   3.310 -0.2487  0.2055  0.3767
    1CHTO   H70  248   6.286   7.078   3.377 -3.6611  0.9744  1.6806
    1CHTO   C45  249   6.227   7.184   3.128 -0.3045 -0.2366 -0.1312
    1CHTO   H87  250   6.134   7.187   3.186  0.5442 -1.3089  1.3236
    1CHTO    N8  251   6.298   7.310   3.164 -0.6922  0.9718 -0.3151
    1CHTO   H75  252   6.239   7.382   3.219 -2.7683 -0.5185 -0.5112
    1CHTO   H76  253   6.344   7.350   3.076  1.9370  1.3505  1.1749
    1CHTO   C43  254   6.195   7.175   2.972 -0.3263 -0.0882 -0.3039
    1CHTO   H85  255   6.133   7.263   2.957  0.0957  0.5050  1.3317
    1CHTO   O29  256   6.123   7.056   2.944 -0.2743 -0.1421  0.1728
    1CHTO   C50  257   6.177   6.934   3.000  0.7125 -0.4027 -0.3198
    1CHTO   H92  258   6.093   6.895   3.060  0.1541  2.3425  0.7714
    1CHTO   C54  259   6.203   6.848   2.879  0.0988  0.5283  0.5191
    1CHTO   O36  260   6.085   6.816   2.811  0.4555 -0.5909 -0.5417
    1CHTO   H72  261   6.104   6.772   2.731  1.6377 -1.3878  0.1669
    1CHTO   O27  262   6.312   7.175   2.891  0.6725 -0.1523  0.3555
    1CHTO   C37  263   6.341   7.167   2.747  0.0843  0.4438 -0.8313
    1CHTO   H79  264   6.291   7.077   2.709  1.4580  0.2618 -2.2506
    1CHTO   C38  265   6.281   7.287   2.675  0.3697 -0.6496  0.2258
    1CHTO   H80  266   6.308   7.378   2.731 -3.9381 -0.1697  1.6739
    1CHTO   O31  267   6.131   7.277   2.673 -0.1928  0.3481  0.1209
    1CHTO   H68  268   6.092   7.340   2.730  1.8457  0.7611  1.1146
    1CHTO   C39  269   6.330   7.297   2.525 -0.5819 -0.7121  0.2769
    1CHTO   H81  270   6.281   7.218   2.467 -2.7259  0.1273  0.8719
    1CHTO    N7  271   6.299   7.423   2.447  0.0394 -0.3247  0.0183
    1CHTO   H73  272   6.244   7.399   2.357 -0.7332 -0.6465  0.5740
    1CHTO   H74  273   6.246   7.485   2.517  1.4810  0.6504  0.2791
    1CHTO   C40  274   6.493   7.278   2.520  0.4010 -1.3559  0.1190
    1CHTO   H82  275   6.535   7.366   2.569 -0.5619  0.4574 -2.2356
    1CHTO   O26  276   6.523   7.158   2.589 -0.2819 -0.2857 -0.6986
    1CHTO   C41  277   6.496   7.151   2.730 -0.0283  0.8651 -0.6197
    1CHTO   H83  278   6.553   7.222   2.792  0.5136 -1.6689  1.8903
    1CHTO   C52  279   6.545   7.013   2.777 -0.1842  0.2753  0.3743
    1CHTO   O35  280   6.693   6.991   2.755  0.2839 -0.8264 -0.3356
    1CHTO   H71  281   6.709   6.967   2.665  0.9658 -2.2815  0.1468
    1CHTO   O28  282   6.528   7.251   2.381  0.3528 -0.7262  0.0235
    1CHTO   C42  283   6.663   7.251   2.333  0.1776 -0.0453  0.7545
    1CHTO   H84  284   6.664   7.243   2.224 -0.7469  1.4059  0.6360
    1CHTO   C44  285   6.752   7.135   2.381 -0.4506  0.2264  0.2348
    1CHTO   H86  286   6.753   7.137   2.489 -3.7375  0.5474  0.3284
    1CHTO   O32  287   6.683   7.013   2.338  0.2931  0.2082  0.2296
    1CHTO   H69  288   6.736   6.936   2.333 -0.5166 -0.3481  0.0810
    1CHTO   C48  289   6.890   7.140   2.313 -0.2143 -0.4426  0.2965
    1CHTO   H90  290   6.888   7.123   2.205 -1.7944  0.6621  0.1354
    1CHTO    N9  291   6.979   7.036   2.370 -0.5876 -0.1611 -1.0235
    1CHTO   H77  292   7.072   7.041   2.315 -0.2233 -0.3747 -0.4399
    1CHTO   H78  293   6.940   6.935   2.371 -0.8124 -0.0772 -1.3142
    1CHTO   C51  294   6.953   7.286   2.313 -0.3239 -0.3341 -0.2059
    1CHTO   H93  295   6.996   7.311   2.410  1.4876 -3.2420 -0.1803
    1CHTO   O30  296   6.854   7.381   2.266 -0.5513 -0.3498 -0.4855
    1CHTO   C46  297   6.735   7.387   2.360  1.0085  0.1532 -0.1859
    1CHTO   H88  298   6.770   7.393   2.463  0.8004  1.2029 -0.1754
    1CHTO   C53  299   6.665   7.519   2.314 -0.3702  0.2456 -0.4507
    1CHTO   O72  300   6.584   7.500   2.202  0.1481 -0.1263 -0.1649
    1CHTO  H199  301   6.510   7.558   2.213  0.5667  0.7237 -1.6492
    1CHTO   O22  302   7.068   7.274   2.227  0.3891 -0.1751  0.7937
    1CHTO   C31  303   7.120   7.372   2.132  0.6867  0.0198 -0.2496
    1CHTO   H59  304   7.037   7.403   2.064 -0.9921 -0.5740  1.4965
    1CHTO   C29  305   7.173   7.499   2.199  0.0297  0.1946  0.5296
    1CHTO   H57  306   7.257   7.469   2.263 -0.5768  0.1602  1.3168
    1CHTO   O21  307   7.080   7.554   2.294  0.0755 -0.2325  0.6438
    1CHTO   H37  308   7.085   7.532   2.385 -0.0390  1.4206  1.0586
    1CHTO   C27  309   7.208   7.615   2.096  0.1455  0.6591 -0.5762
    1CHTO   H55  310   7.112   7.640   2.048  0.3538 -1.0414 -1.9525
    1CHTO    N5  311   7.270   7.739   2.150 -0.6441 -0.3009 -0.2741
    1CHTO   H43  312   7.308   7.808   2.076  1.4719 -1.4361 -0.2653
    1CHTO   H44  313   7.227   7.790   2.235  1.6028  1.6297 -0.2637
    1CHTO   C25  314   7.297   7.555   1.979 -0.0774  0.3929 -0.6399
    1CHTO   H53  315   7.400   7.553   2.018  0.0313 -2.4770 -1.0286
    1CHTO   O17  316   7.258   7.419   1.938 -0.5473 -0.3061 -0.5011
    1CHTO   C32  317   7.229   7.315   2.037 -0.0886 -0.1963  0.0601
    1CHTO   H60  318   7.314   7.282   2.097  0.3380 -0.4034 -0.6587
    1CHTO   C36  319   7.182   7.185   1.960 -0.0240 -0.4607 -0.2417
    1CHTO   O25  320   7.174   7.070   2.041  0.3336 -0.5499 -0.0999
    1CHTO   H40  321   7.108   7.087   2.106 -1.6591  0.7851 -2.3619
    1CHTO   O15  322   7.305   7.662   1.854  0.5281  0.3523 -0.1905
    1CHTO   C19  323   7.196   7.711   1.774 -0.1523 -0.0497  0.5785
    1CHTO   H47  324   7.106   7.674   1.825  0.2145 -1.7014  0.0680
    1CHTO   C20  325   7.189   7.867   1.760  0.3465  0.2652  0.4067
    1CHTO   H48  326   7.281   7.909   1.715  0.0573 -0.0273 -0.4552
    1CHTO   O19  327   7.180   7.922   1.891  0.0507 -0.4784 -0.6027
    1CHTO   H35  328   7.266   7.919   1.927  0.4744  0.0318 -1.5721
    1CHTO   C21  329   7.068   7.907   1.667  0.8009 -0.6932  0.1003
    1CHTO   H49  330   6.974   7.871   1.709 -0.6193  1.3255 -1.2476
    1CHTO    N4  331   7.046   8.052   1.651 -0.3560 -0.1670  0.4424
    1CHTO   H41  332   7.135   8.111   1.668 -0.2311 -1.0956  3.4107
    1CHTO   H42  333   6.971   8.083   1.724  0.4936  3.6368 -0.1755
    1CHTO   C22  334   7.091   7.839   1.526  0.2406 -0.5317  0.1931
    1CHTO   H50  335   7.191   7.868   1.493  0.4496 -2.6904 -1.1867
    1CHTO   O14  336   7.083   7.696   1.556 -0.4366  0.5587  0.2707
    1CHTO   C23  337   7.199   7.650   1.632  0.3429 -0.4621 -0.0710
    1CHTO   H51  338   7.291   7.678   1.578 -0.0674  0.8477 -0.1165
    1CHTO   C34  339   7.178   7.499   1.622 -0.4408 -0.0769  0.3285
    1CHTO   O23  340   7.286   7.431   1.682 -0.3868 -0.2802  0.1437
    1CHTO   H38  341   7.281   7.339   1.662  0.4505 -0.4300  0.5996
    1CHTO   O16  342   6.989   7.856   1.422 -0.5083  0.3397 -0.5113
    1CHTO   C24  343   6.994   7.741   1.289  0.3506 -0.2547 -0.3564
    1CHTO   H52  344   7.026   7.643   1.323  1.1499 -0.0006 -0.3688
    1CHTO   C26  345   7.088   7.787   1.169  0.3097 -0.9248 -0.4952
    1CHTO   H54  346   7.068   7.893   1.144  0.6053 -0.4730  1.1527
    1CHTO   O20  347   7.212   7.776   1.236 -0.7549 -0.6069  0.7711
    1CHTO   H36  348   7.267   7.792   1.162 -2.0125  2.0444  0.3452
    1CHTO   C30  349   7.069   7.694   1.051 -0.5783  0.1978 -0.2880
    1CHTO   H58  350   7.092   7.589   1.075  1.5761  0.8218  0.5200
    1CHTO    N6  351   7.162   7.737   0.941 -0.0434  0.2437  0.1726
    1CHTO   H45  352   7.105   7.790   0.867 -1.2052 -0.1496  0.7818
    1CHTO   H46  353   7.247   7.796   0.973  1.7365 -1.3078 -1.5521
    1CHTO   C33  354   6.923   7.682   1.010 -0.2626 -0.5647  0.0899
    1CHTO   H61  355   6.887   7.781   0.979 -1.0679 -0.6457  0.7378
    1CHTO   O18  356   6.838   7.639   1.122  0.3432 -0.6803  0.1681
    1CHTO   C28  357   6.849   7.729   1.234 -0.3278 -0.2656  0.0527
    1CHTO   H56  358   6.823   7.824   1.189  3.8108 -0.4133 -2.9568
    1CHTO   C35  359   6.756   7.700   1.348 -0.3458 -0.9143  0.1049
    1CHTO   O24  360   6.750   7.560   1.367 -0.5551  0.0982  0.1994
    1CHTO   H39  361   6.819   7.529   1.423  0.1999  1.5133  0.0769
    1CHTO    O9  362   6.908   7.596   0.895 -0.4287 -0.1414  0.0699
    1CHTO   C13  363   6.805   7.631   0.789  0.4366 -0.5109  1.0495
    1CHTO   H26  364   6.818   7.739   0.768  1.0302 -0.6244  0.8040
    1CHTO   C11  365   6.659   7.589   0.841  0.0048 -0.2267  0.5604
    1CHTO   H24  366   6.634   7.661   0.921 -1.3003 -0.7594  0.6325
    1CHTO    O8  367   6.662   7.458   0.908 -0.3101 -0.4527  0.2903
    1CHTO    H3  368   6.582   7.410   0.904  0.3271 -1.9257  3.3294
    1CHTO    C9  369   6.566   7.611   0.718 -0.0638 -0.2977 -0.2506
    1CHTO   H22  370   6.580   7.715   0.684  1.3543 -0.3634  0.1039
    1CHTO    N2  371   6.430   7.607   0.772  0.4574 -0.2092  0.0924
    1CHTO   H10  372   6.409   7.503   0.793  0.1307 -0.3231 -0.7628
    1CHTO   H11  373   6.346   7.652   0.720 -0.3663 -0.4481  1.2068
    1CHTO    C7  374   6.600   7.522   0.593  0.2484 -0.1275  0.5137
    1CHTO   H20  375   6.535   7.564   0.513  0.7602 -2.5033 -1.1932
    1CHTO    O4  376   6.736   7.541   0.558 -0.3180  0.2618  0.2120
    1CHTO   C14  377   6.846   7.558   0.653 -0.0286  0.0811  0.4863
    1CHTO   H27  378   6.917   7.622   0.597  0.2057 -1.8511 -1.4772
    1CHTO   C18  379   6.922   7.426   0.670  0.5510 -0.6641  0.0381
    1CHTO   O13  380   6.953   7.361   0.551 -0.0845 -0.0159 -0.2106
    1CHTO    H7  381   6.985   7.278   0.581  1.2118  0.1157 -1.1982
    1CHTO    O2  382   6.572   7.373   0.622  0.3626 -0.1549 -0.0480
    1CHTO    C1  383   6.586   7.272   0.519  0.1103  0.3842 -0.1767
    1CHTO   H14  384   6.689   7.263   0.480  0.0792  0.6370 -0.3115
    1CHTO    C2  385   6.486   7.288   0.392 -0.6381 -0.8151  0.3775
    1CHTO   H15  386   6.390   7.325   0.431 -0.6259  0.6297 -0.9315
    1CHTO    O6  387   6.541   7.405   0.320 -0.3769  0.2065  0.1218
    1CHTO    H1  388   6.608   7.374   0.262 -1.9918 -0.0245 -1.7002
    1CHTO    C3  389   6.480   7.160   0.296  0.7497  0.0688  0.2758
    1CHTO   H16  390   6.580   7.159   0.250  1.0898  1.0885  0.9790
    1CHTO    N1  391   6.375   7.181   0.194  0.5893 -0.2213  0.4145
    1CHTO    H8  392   6.306   7.098   0.184 -1.7036  1.8967 -2.4051
    1CHTO    H9  393   6.409   7.229   0.103 -2.2020  0.1737 -0.4787
    1CHTO    C4  394   6.466   7.024   0.381 -0.0251 -0.2393 -0.2341
    1CHTO   H17  395   6.360   7.011   0.406 -0.6083 -0.1926 -2.5587
    1CHTO    O1  396   6.553   7.026   0.496  0.0551 -0.6587  0.0303
    1CHTO    C5  397   6.547   7.138   0.588 -0.4835 -0.5044 -1.0543
    1CHTO   H18  398   6.447   7.147   0.632  0.8413  0.4296  1.9102
    1CHTO   C16  399   6.642   7.094   0.704 -0.1907 -0.3386  0.5701
    1CHTO   O11  400   6.655   7.179   0.819  0.0965  0.2625  0.5911
    1CHTO    H5  401   6.609   7.147   0.894 -0.6470 -1.0354 -0.4031
    1CHTO    O3  402   6.528   6.912   0.314  0.6263 -0.3497 -0.0772
    1CHTO    C6  403   6.455   6.789   0.349 -0.2120  0.4484 -0.1500
    1CHTO   H19  404   6.400   6.805   0.442  0.3867  1.1017  0.1002
    1CHTO    C8  405   6.355   6.729   0.242  0.6031 -0.7020 -0.2485
    1CHTO   H21  406   6.410   6.721   0.148  0.3811 -0.0782 -0.4329
    1CHTO    O7  407   6.257   6.835   0.229 -0.1930  0.1500 -0.0897
    1CHTO    H2  408   6.208   6.818   0.151  0.4313 -0.2949 -0.3847
    1CHTO   C12  409   6.297   6.588   0.280 -0.0930 -0.4786 -0.3265
    1CHTO   H25  410   6.245   6.602   0.377  0.4519  3.1486 -0.4890
    1CHTO    N3  411   6.188   6.543   0.183 -0.5923 -0.3098 -0.1871
    1CHTO   H12  412   6.094   6.525   0.233 -0.7008  2.3760  0.6590
    1CHTO   H13  413   6.215   6.465   0.114  0.8072 -0.3849  0.4443
    1CHTO   C15  414   6.412   6.490   0.299 -0.1127 -0.1800 -0.0252
    1CHTO   H28  415   6.461   6.478   0.202 -2.9311 -3.1109 -1.1949
    1CHTO   O10  416   6.382   6.350   0.344 -0.0323  0.4028  0.5706
    1CHTO    H4  417   6.455   6.296   0.364 -1.9035 -3.7201 -2.8009
    1CHTO    O5  418   6.498   6.538   0.400 -0.2496  0.3109 -0.2957
    1CHTO   C10  419   6.553   6.669   0.374 -0.0239  0.2238 -0.0655
    1CHTO   H23  420   6.622   6.654   0.291 -1.4325  0.5198 -1.3138
    1CHTO   C17  421   6.645   6.699   0.497  0.5877  0.0190  0.3819
    1CHTO   O12  422   6.573   6.701   0.619 -0.1511  0.5205  0.0481
    1CHTO    H6  423   6.562   6.617   0.660 -0.4404  0.2586 -0.5516
    2CHTO  H203  424   6.465   5.220   6.460  0.8071  2.2740 -0.0325
    2CHTO   O82  425   6.374   5.232   6.476  0.4851  0.1554 -0.0798
    2CHTO  C123  426   6.294   5.154   6.388 -0.1036  0.6193 -0.8737
    2CHTO  H227  427   6.342   5.055   6.382  0.2078  0.5402  2.0645
    2CHTO   O77  428   6.168   5.155   6.471 -0.2282 -0.0073 -0.2042
    2CHTO  C118  429   6.047   5.105   6.410 -0.1029 -0.7436 -0.1077
    2CHTO  H222  430   6.060   4.995   6.407 -0.3017 -0.7752  0.2237
    2CHTO  C125  431   5.933   5.130   6.508 -0.3205  0.4364 -0.3809
    2CHTO   O84  432   5.904   5.264   6.537 -0.0904 -0.0478  0.6257
    2CHTO  H205  433   5.824   5.273   6.585 -1.4033 -0.2422 -1.4300
    2CHTO  C114  434   6.030   5.154   6.262 -0.7187 -0.7533  0.5158
    2CHTO  H218  435   5.999   5.258   6.269  0.4793 -0.4172  0.9713
    2CHTO  C116  436   6.152   5.140   6.175 -0.0866 -0.6712 -0.7000
    2CHTO  H220  437   6.183   5.034   6.167 -1.1956 -1.0623  0.0282
    2CHTO   O79  438   6.122   5.203   6.046 -0.6717 -0.3888  0.0927
    2CHTO  H201  439   6.099   5.294   6.043 -0.7601 -0.4600 -2.2362
    2CHTO  C120  440   6.267   5.224   6.250  0.5211 -0.6293 -0.7856
    2CHTO  H224  441   6.224   5.324   6.271  0.5257 -0.5880 -0.9698
    2CHTO   N21  442   6.391   5.249   6.167  0.3744  0.3339  0.0092
    2CHTO  H211  443   6.432   5.340   6.209  0.3620  0.7393 -0.8264
    2CHTO  H212  444   6.463   5.173   6.192 -0.3803 -0.3423  0.1499
    2CHTO   O75  445   5.924   5.075   6.206 -0.1586 -0.1189  0.6050
    2CHTO  C112  446   5.784   5.167   6.215 -0.8073  0.3121  0.5414
    2CHTO  H216  447   5.810   5.269   6.245  0.4158 -0.1134  0.9581
    2CHTO   O73  448   5.702   5.101   6.314  0.1560  0.4636 -0.4337
    2CHTO  C113  449   5.580   5.168   6.343 -0.1701 -0.2897  0.2301
    2CHTO  H217  450   5.604   5.270   6.380 -1.9298  0.3225 -0.2580
    2CHTO  C124  451   5.515   5.100   6.463  0.3791 -0.3533 -0.4044
    2CHTO   O83  452   5.565   5.140   6.592  0.1113 -0.4665  0.6699
    2CHTO  H204  453   5.568   5.234   6.599 -0.2048 -0.5305  1.6742
    2CHTO  C109  454   5.495   5.164   6.212 -0.2624  0.2120  0.1254
    2CHTO  H213  455   5.484   5.057   6.187  0.9586  0.0751  0.1742
    2CHTO  C110  456   5.573   5.236   6.094 -0.0618 -0.4091  0.4740
    2CHTO  H214  457   5.585   5.342   6.114  1.3423 -0.6341  0.9253
    2CHTO   O78  458   5.500   5.246   5.969  0.4468  0.2417  0.0823
    2CHTO  H200  459   5.543   5.288   5.896  0.9052  0.6121  0.5629
    2CHTO  C111  460   5.714   5.169   6.074 -0.2873  0.3334 -0.2313
    2CHTO  H215  461   5.700   5.064   6.044 -1.2754  0.7140 -1.0976
    2CHTO   N19  462   5.810   5.226   5.973 -0.7832  0.0537 -0.3090
    2CHTO  H207  463   5.792   5.202   5.869 -0.4507 -0.9561 -0.1437
    2CHTO  H208  464   5.809   5.332   5.992 -0.9694 -0.1069  0.6079
    2CHTO   O74  465   5.365   5.219   6.230 -0.4891 -0.2930 -0.9989
    2CHTO  C115  466   5.243   5.131   6.173  0.0166  0.6598 -0.4315
    2CHTO  H219  467   5.277   5.065   6.093  2.1597  0.4149  0.6420
    2CHTO   O76  468   5.184   5.031   6.285 -0.2818 -0.7225 -0.1219
    2CHTO  C122  469   5.070   4.962   6.232  0.9008 -0.4606 -0.4800
    2CHTO  H226  470   5.032   4.898   6.311 -1.3509 -0.7348 -1.7438
    2CHTO  C126  471   5.111   4.866   6.111 -0.3502  0.3296 -0.5051
    2CHTO   O85  472   5.206   4.767   6.152  0.6765 -0.3022  0.7641
    2CHTO  H206  473   5.166   4.722   6.224 -0.9054 -2.2096 -1.2263
    2CHTO  C121  474   4.949   5.053   6.214 -0.0783  0.2516 -0.5553
    2CHTO  H225  475   4.856   5.001   6.183 -0.8115 -1.0960  3.5987
    2CHTO   O81  476   4.910   5.108   6.347  0.4632  0.0840  0.9255
    2CHTO  H202  477   4.975   5.169   6.374 -0.5480  0.5807  2.2553
    2CHTO  C119  478   4.987   5.163   6.103 -0.2034 -0.1462  0.2304
    2CHTO  H223  479   4.993   5.111   6.008  0.8882  0.8356 -0.2496
    2CHTO  C117  480   5.128   5.233   6.122  0.1796 -0.2827  0.0116
    2CHTO  H221  481   5.129   5.308   6.201  1.3479  0.1495 -0.4065
    2CHTO   N20  482   5.180   5.303   5.993  0.3469 -0.5981 -0.1079
    2CHTO  H209  483   5.111   5.384   5.982  0.2723 -0.4940  1.0689
    2CHTO  H210  484   5.280   5.340   6.015  0.2159 -1.7949  2.7893
    2CHTO   O80  485   4.886   5.262   6.072 -0.1931 -0.5720  0.0812
    2CHTO  C103  486   4.778   5.238   5.980  0.3693  0.5205  0.0690
    2CHTO  H190  487   4.829   5.210   5.888 -0.3329  0.5918 -0.3400
    2CHTO  C101  488   4.669   5.124   6.017  0.4145 -0.2153  0.1463
    2CHTO  H188  489   4.640   5.141   6.121 -0.6936 -0.4406 -0.1275
    2CHTO   O68  490   4.726   4.975   5.993  0.0713 -0.1712 -0.3097
    2CHTO  H168  491   4.759   4.970   5.905  0.2687 -3.2419 -0.1198
    2CHTO   C99  492   4.544   5.141   5.919 -0.6185  0.3454 -0.7362
    2CHTO  H186  493   4.574   5.116   5.815 -2.0104 -1.6115 -0.6879
    2CHTO   N17  494   4.429   5.041   5.948 -0.1344 -0.4810 -0.2827
    2CHTO  H174  495   4.366   5.048   5.861  2.7352 -0.9810 -2.4701
    2CHTO  H175  496   4.385   5.073   6.042  0.9754 -3.7737  1.4352
    2CHTO   C97  497   4.492   5.283   5.915  0.0379 -0.5618  0.3788
    2CHTO  H184  498   4.453   5.312   6.014 -2.0065  1.2007 -0.9011
    2CHTO   O64  499   4.600   5.370   5.869  0.1504  0.0344  0.6895
    2CHTO  C104  500   4.707   5.383   5.965  0.0229  0.3334 -0.7827
    2CHTO  H191  501   4.656   5.404   6.059  1.7378  0.6695  0.1012
    2CHTO  C108  502   4.795   5.504   5.929  0.1382  0.7465 -0.2815
    2CHTO   O71  503   4.876   5.475   5.812  0.1470 -0.2125 -0.5493
    2CHTO  H171  504   4.829   5.420   5.753 -3.4061 -0.3759  2.1997
    2CHTO   O62  505   4.385   5.297   5.817 -0.3966 -0.0700  0.6875
    2CHTO   C91  506   4.309   5.423   5.850  0.0394 -0.3697 -0.2384
    2CHTO  H178  507   4.369   5.484   5.917  1.2377  0.6075 -2.1372
    2CHTO   C92  508   4.177   5.388   5.932  0.8793 -0.4244 -0.1773
    2CHTO  H179  509   4.199   5.306   6.001  2.3265 -1.2079 -1.5341
    2CHTO   O66  510   4.147   5.497   6.020  0.6671 -0.0500 -0.1026
    2CHTO  H166  511   4.086   5.478   6.088 -1.2850  1.1102 -1.4608
    2CHTO   C93  512   4.056   5.361   5.846 -0.1574 -0.4635 -0.2578
    2CHTO  H180  513   3.968   5.370   5.911 -1.5744 -0.2811 -2.1629
    2CHTO   N16  514   4.064   5.218   5.798  0.3836  0.3178 -0.1410
    2CHTO  H172  515   3.979   5.210   5.732 -0.2036 -0.8652  0.7206
    2CHTO  H173  516   4.047   5.158   5.886 -0.8559 -0.1235 -0.6677
    2CHTO   C94  517   4.031   5.465   5.726 -0.8527 -0.4912 -0.1858
    2CHTO  H181  518   4.030   5.417   5.628 -1.8825  0.3156 -0.5947
    2CHTO   O61  519   4.137   5.561   5.717  0.0969  0.2637 -0.1904
    2CHTO   C95  520   4.271   5.510   5.717 -0.0130  0.0622  0.2509
    2CHTO  H182  521   4.278   5.440   5.634  1.4442 -0.8084  1.0826
    2CHTO  C106  522   4.376   5.631   5.700 -0.1931 -0.2994 -0.2616
    2CHTO   O69  523   4.517   5.595   5.713  0.3166  0.4679 -0.0363
    2CHTO  H169  524   4.524   5.503   5.695  1.1696 -0.0813  2.8075
    2CHTO   O63  525   3.890   5.531   5.744  0.1831  0.0274 -0.3786
    2CHTO   C96  526   3.863   5.682   5.702  0.3958  0.6468 -0.0644
    2CHTO  H183  527   3.946   5.706   5.636  0.8485 -1.4676 -0.3132
    2CHTO   C98  528   3.869   5.776   5.825  0.4584 -0.1768 -0.3536
    2CHTO  H185  529   3.784   5.749   5.889  0.6208 -1.5320 -0.6844
    2CHTO   O67  530   3.994   5.758   5.902  0.6903  0.8114 -0.0640
    2CHTO  H167  531   3.978   5.774   5.993  0.6763 -1.5992  0.3819
    2CHTO  C102  532   3.854   5.928   5.789 -0.2510  0.7148 -0.5577
    2CHTO  H189  533   3.946   5.957   5.736  0.6061 -1.0557 -0.0605
    2CHTO   N18  534   3.846   6.025   5.903  0.7215  0.7997 -0.4902
    2CHTO  H176  535   3.854   5.973   5.997 -1.8939  1.1434 -0.0551
    2CHTO  H177  536   3.750   6.073   5.896 -0.5681 -1.7649 -0.8795
    2CHTO  C105  537   3.742   5.941   5.686  0.0178  0.6784 -0.2812
    2CHTO  H192  538   3.648   5.947   5.741  0.4541 -0.8589  0.6663
    2CHTO   O65  539   3.730   5.839   5.584  0.9234  0.0038  0.5676
    2CHTO  C100  540   3.740   5.705   5.624  0.2996 -0.1075  0.2709
    2CHTO  H187  541   3.654   5.684   5.690 -0.0305 -0.3385 -0.2254
    2CHTO  C107  542   3.720   5.602   5.504 -0.7888 -0.2826 -0.2517
    2CHTO   O70  543   3.838   5.609   5.420  0.0275 -0.4816 -0.1250
    2CHTO  H170  544   3.821   5.558   5.343 -0.6841 -0.4803  0.0288
    2CHTO   O57  545   3.778   6.086   5.593 -0.1897 -0.3349  0.8231
    2CHTO   C85  546   3.791   6.078   5.454 -0.2553 -0.2921  0.1481
    2CHTO  H157  547   3.721   5.998   5.420 -0.5331 -0.5881  1.3789
    2CHTO   C83  548   3.931   6.011   5.412 -0.1364 -0.1961 -0.1523
    2CHTO  H155  549   3.928   5.908   5.449  0.2145 -0.0444  0.3023
    2CHTO   O56  550   4.036   6.078   5.485 -0.4463 -0.1011  0.5374
    2CHTO  H135  551   4.072   6.149   5.436  0.0745  0.3172  1.5059
    2CHTO   C81  552   3.952   6.002   5.259  0.3074 -0.0618 -0.2454
    2CHTO  H153  553   3.875   5.936   5.218  2.2337 -1.9932 -0.7925
    2CHTO   N14  554   4.078   5.933   5.220 -0.3612 -0.1178 -0.3418
    2CHTO  H141  555   4.166   5.980   5.258 -1.0053  0.2758  0.6702
    2CHTO  H142  556   4.084   5.925   5.113  0.7810 -2.6664 -0.1124
    2CHTO   C79  557   3.937   6.144   5.197  0.3209 -0.3834 -0.3919
    2CHTO  H151  558   3.935   6.132   5.089 -1.2618  1.3190 -0.5614
    2CHTO   O52  559   3.811   6.210   5.229 -0.1153 -0.0854 -0.1769
    2CHTO   C86  560   3.775   6.212   5.370  0.1542  0.4925 -0.2124
    2CHTO  H158  561   3.844   6.284   5.419 -1.4974  0.0868  2.7871
    2CHTO   C90  562   3.635   6.267   5.384  0.0621  0.3810  0.3439
    2CHTO   O60  563   3.621   6.408   5.361 -0.0510  1.0742 -0.2662
    2CHTO  H138  564   3.538   6.447   5.382 -0.8851 -0.2060 -1.1073
    2CHTO   O50  565   4.043   6.226   5.239  0.3973  0.6335  1.0040
    2CHTO   C73  566   4.115   6.337   5.170 -0.0958 -0.1075  0.0348
    2CHTO  H145  567   4.041   6.401   5.119 -0.0354 -0.8263 -0.9760
    2CHTO   C74  568   4.204   6.281   5.059 -0.6501  0.3200  0.2861
    2CHTO  H146  569   4.138   6.209   5.009  1.1659 -2.2811  1.5715
    2CHTO   O54  570   4.258   6.380   4.968 -0.9029  0.6101  0.5536
    2CHTO  H133  571   4.278   6.458   5.016  1.0982 -0.0221  0.8127
    2CHTO   C75  572   4.333   6.208   5.120 -1.0289  0.0787 -0.2685
    2CHTO  H147  573   4.292   6.123   5.176  1.2457 -0.6799  0.3071
    2CHTO   N13  574   4.429   6.149   5.027 -0.1663 -0.4686 -0.2478
    2CHTO  H139  575   4.435   6.041   5.033  0.6089 -0.5003 -1.3526
    2CHTO  H140  576   4.528   6.193   5.031 -0.1682 -0.6037  1.4343
    2CHTO   C76  577   4.403   6.306   5.226  0.4173  0.4372 -0.0795
    2CHTO  H148  578   4.452   6.380   5.162 -0.1340 -0.7824 -1.9682
    2CHTO   O49  579   4.309   6.357   5.325  0.3133 -0.7935  0.1100
    2CHTO   C77  580   4.197   6.421   5.268 -0.2899  0.8090  0.0332
    2CHTO  H149  581   4.228   6.514   5.220  1.6583  0.1414 -0.0421
    2CHTO   C88  582   4.105   6.471   5.383  0.0843 -0.1072  0.3278
    2CHTO   O58  583   4.090   6.362   5.492 -0.0389  0.6386  0.3613
    2CHTO  H136  584   4.012   6.311   5.477 -0.8462  1.8772  0.2640
    2CHTO   O51  585   4.516   6.211   5.327 -0.4127  0.3923 -0.0652
    2CHTO   C78  586   4.594   6.306   5.458  0.3631 -0.1353 -0.4340
    2CHTO  H150  587   4.519   6.372   5.506 -1.0779 -2.0810  0.0636
    2CHTO   C80  588   4.694   6.393   5.385  0.2906 -0.7917 -0.2277
    2CHTO  H152  589   4.749   6.340   5.304  3.1168  0.7673  0.6087
    2CHTO   O55  590   4.624   6.488   5.312  0.5500  0.9020 -0.0228
    2CHTO  H134  591   4.607   6.563   5.366 -1.1426  0.0724  0.6039
    2CHTO   C84  592   4.799   6.467   5.477 -0.3258  0.4002 -0.5636
    2CHTO  H156  593   4.744   6.536   5.541 -0.7597 -1.0428  0.6503
    2CHTO   N15  594   4.910   6.545   5.411  0.1265 -0.6777  0.0694
    2CHTO  H143  595   4.874   6.614   5.337 -1.7159 -1.8599 -0.1685
    2CHTO  H144  596   4.982   6.481   5.365  0.6936  0.4080 -0.5929
    2CHTO   C87  597   4.855   6.368   5.582  0.2160  0.3267 -0.0454
    2CHTO  H159  598   4.923   6.299   5.533 -0.4888  0.5588 -1.3638
    2CHTO   O53  599   4.735   6.298   5.655  0.7412 -0.0941 -0.3216
    2CHTO   C82  600   4.664   6.213   5.561 -0.3182  0.1410  0.4846
    2CHTO  H154  601   4.725   6.143   5.504 -0.2104 -1.6571  2.7160
    2CHTO   C89  602   4.563   6.126   5.646 -0.6922  0.5302  0.4402
    2CHTO   O59  603   4.500   6.031   5.561 -0.1552 -0.4665  0.0240
    2CHTO  H137  604   4.439   6.072   5.502  2.4173 -0.0228 -2.4142
    2CHTO   O45  605   4.932   6.439   5.696  0.2553 -0.1205  0.1671
    2CHTO   C67  606   4.992   6.347   5.794  0.1310  0.1183  0.1394
    2CHTO  H124  607   4.954   6.246   5.782  1.2682 -0.6495  2.6773
    2CHTO   C65  608   5.152   6.341   5.785  0.3681  0.0871 -0.1040
    2CHTO  H122  609   5.176   6.445   5.768  2.5244 -0.2521  0.7028
    2CHTO   O44  610   5.180   6.262   5.670  0.0607  0.2340  0.2142
    2CHTO  H102  611   5.233   6.308   5.608  1.0060 -2.4308 -1.0736
    2CHTO   C63  612   5.219   6.307   5.922  0.0872  1.0340  0.2425
    2CHTO  H120  613   5.221   6.395   5.987  1.3205  0.6479  0.7265
    2CHTO   N11  614   5.366   6.269   5.913 -0.1399  0.3848 -0.5972
    2CHTO  H108  615   5.383   6.168   5.885  0.7658  0.0544  1.0706
    2CHTO  H109  616   5.422   6.294   6.001 -1.9699 -2.3715  1.4311
    2CHTO   C61  617   5.122   6.211   6.008  0.1860 -0.1125 -0.2403
    2CHTO  H118  618   5.176   6.197   6.103 -0.3519  3.0027  0.5990
    2CHTO   O40  619   4.997   6.285   6.039  0.2101 -0.6273  0.0697
    2CHTO   C68  620   4.942   6.381   5.937  0.1449 -0.3494 -0.1327
    2CHTO  H125  621   4.978   6.484   5.957 -1.7951  0.3665 -0.2223
    2CHTO   C72  622   4.781   6.384   5.950 -0.4904 -0.4812  0.9815
    2CHTO   O48  623   4.740   6.444   6.074 -0.2006 -0.3619 -0.2540
    2CHTO  H105  624   4.767   6.534   6.074  2.1944 -1.0516 -1.8002
    2CHTO   O38  625   5.099   6.081   5.937 -0.3539  0.3100  0.0722
    2CHTO   C55  626   5.088   5.975   6.032  0.0117 -0.1842 -0.2950
    2CHTO  H112  627   5.064   6.002   6.135 -0.3538  2.2323 -0.9923
    2CHTO   C56  628   5.211   5.882   6.028  0.0906 -0.0296 -0.3346
    2CHTO  H113  629   5.220   5.844   5.925 -0.9656  1.0155 -0.8178
    2CHTO   O42  630   5.334   5.957   6.045  0.1396 -0.3944 -0.0143
    2CHTO  H100  631   5.328   6.043   6.009 -2.0113 -1.3058 -1.9558
    2CHTO   C57  632   5.192   5.767   6.133 -0.0017  0.4141 -0.0077
    2CHTO  H114  633   5.211   5.807   6.233  0.4594  0.4001 -0.0887
    2CHTO   N10  634   5.298   5.662   6.122 -0.3371  0.4264 -0.0907
    2CHTO  H106  635   5.383   5.714   6.081  0.1937 -1.3539 -1.3022
    2CHTO  H107  636   5.269   5.588   6.049  2.2903  0.9789 -1.7724
    2CHTO   C58  637   5.051   5.707   6.132  0.0897  0.1746 -0.5921
    2CHTO  H115  638   5.047   5.627   6.055  0.1904  0.5998 -1.0398
    2CHTO   O37  639   4.950   5.807   6.117  0.4165  0.5705  0.1241
    2CHTO   C59  640   4.965   5.892   6.003  0.7756 -0.2289 -0.1412
    2CHTO  H116  641   4.984   5.837   5.911 -0.6587 -0.5469 -0.2660
    2CHTO   C70  642   4.836   5.977   5.981  0.1710 -0.0963  0.4536
    2CHTO   O46  643   4.738   5.889   5.923  0.6482  0.3531 -0.4207
    2CHTO  H103  644   4.682   5.858   5.992  0.2382  2.0859  0.0487
    2CHTO   O39  645   5.023   5.636   6.285 -0.1288 -0.2531  0.4459
    2CHTO   C60  646   4.884   5.622   6.319  1.0566 -0.7083 -0.3300
    2CHTO  H117  647   4.813   5.657   6.244  1.5652  1.2855  0.0746
    2CHTO   C62  648   4.831   5.476   6.355 -0.0364 -0.2995 -0.9173
    2CHTO  H119  649   4.837   5.398   6.277 -2.6679  0.0654 -1.5207
    2CHTO   O43  650   4.916   5.411   6.453  0.6068 -0.3118  0.1771
    2CHTO  H101  651   4.975   5.344   6.422  1.5474  0.1366  0.9690
    2CHTO   C66  652   4.675   5.486   6.406 -0.3065  0.3419  0.0778
    2CHTO  H123  653   4.617   5.512   6.317 -0.6296  3.4451  1.1417
    2CHTO   N12  654   4.626   5.348   6.440 -0.1077  0.4615 -0.2893
    2CHTO  H110  655   4.705   5.275   6.439  0.0179  0.5830  0.5603
    2CHTO  H111  656   4.531   5.324   6.394  0.0662 -1.0473  0.1279
    2CHTO   C69  657   4.644   5.597   6.519  0.2090  0.3030 -0.4520
    2CHTO  H126  658   4.673   5.555   6.618  0.6270  1.7841  0.0669
    2CHTO   O41  659   4.716   5.727   6.496  0.3844 -0.3881 -0.0014
    2CHTO   C64  660   4.864   5.714   6.448  0.4120 -0.2576 -0.7360
    2CHTO  H121  661   4.920   5.663   6.529  2.1813  1.5712 -0.7673
    2CHTO   C71  662   4.914   5.866   6.436  0.4921  0.4572  0.2245
    2CHTO   O47  663   4.833   5.944   6.346  0.0728 -0.1879  0.2690
    2CHTO  H104  664   4.837   5.923   6.255  1.4822  2.6238 -0.3445
    2CHTO   O34  665   4.481   5.635   6.509 -0.2700  0.5508  0.2228
    2CHTO   C49  666   4.373   5.732   6.463 -1.1026 -0.1179  0.4983
    2CHTO   H91  667   4.279   5.717   6.516 -1.5526  2.0424  0.3403
    2CHTO   C47  668   4.361   5.711   6.311  0.4935 -1.0229  0.3898
    2CHTO   H89  669   4.269   5.770   6.288  0.4268 -1.5566 -0.7511
    2CHTO   O33  670   4.340   5.574   6.287 -0.2363  0.0068 -0.4148
    2CHTO   H70  671   4.418   5.526   6.272 -1.1343 -1.7650  0.4860
    2CHTO   C45  672   4.489   5.761   6.224  0.3799  0.0170  0.0706
    2CHTO   H87  673   4.573   5.710   6.275 -1.1304 -0.1048  2.5161
    2CHTO    N8  674   4.493   5.731   6.078  0.5395  0.2576  0.0296
    2CHTO   H75  675   4.421   5.782   6.014 -1.6109 -0.2850  1.9722
    2CHTO   H76  676   4.471   5.627   6.064 -0.6540  0.3859  0.8583
    2CHTO   C43  677   4.502   5.918   6.265 -0.0801  0.0511  0.1078
    2CHTO   H85  678   4.593   5.951   6.216 -0.4282 -0.7521 -1.0827
    2CHTO   O29  679   4.512   5.934   6.407 -0.1067  0.5178 -0.0023
    2CHTO   C50  680   4.403   5.882   6.490 -0.4343  0.5258  0.0757
    2CHTO   H92  681   4.437   5.887   6.594 -2.7640 -0.5379  0.9125
    2CHTO   C54  682   4.278   5.977   6.494  0.1443  0.3073  0.6589
    2CHTO   O36  683   4.302   6.104   6.550  0.2643  0.0669 -0.0041
    2CHTO   H72  684   4.370   6.146   6.502 -1.2169  2.6758  0.1055
    2CHTO   O27  685   4.401   5.996   6.205  0.6380 -0.5324 -0.4010
    2CHTO   C37  686   4.398   6.098   6.103 -0.4853 -0.0192 -0.6770
    2CHTO   H79  687   4.479   6.079   6.031  0.1570  1.8028 -0.4460
    2CHTO   C38  688   4.269   6.100   6.025  0.1088 -0.0087 -0.5893
    2CHTO   H80  689   4.186   6.116   6.096  1.3670  1.9477  0.4478
    2CHTO   O31  690   4.256   5.971   5.958  0.0855  0.4365 -0.1400
    2CHTO   H68  691   4.223   5.917   6.026 -3.4876  0.3114 -1.8573
    2CHTO   C39  692   4.272   6.219   5.924  0.2104 -0.1047 -0.6206
    2CHTO   H81  693   4.360   6.203   5.862  2.0030  0.7776  1.6301
    2CHTO    N7  694   4.151   6.224   5.834  0.0798  0.1869 -0.0889
    2CHTO   H73  695   4.059   6.243   5.888 -0.6493 -0.9645 -0.9085
    2CHTO   H74  696   4.157   6.284   5.745 -0.8101 -1.4245 -1.2610
    2CHTO   C40  697   4.305   6.349   6.002  0.4476 -0.0033  0.0492
    2CHTO   H82  698   4.222   6.358   6.072 -0.6147 -0.5014 -1.1218
    2CHTO   O26  699   4.428   6.340   6.069  0.0009  0.7939 -0.1467
    2CHTO   C41  700   4.424   6.241   6.172 -0.2167 -0.3013  0.8180
    2CHTO   H83  701   4.336   6.273   6.230  0.8360  0.2999  2.1174
    2CHTO   C52  702   4.545   6.250   6.265  0.1443  0.3450 -0.0054
    2CHTO   O35  703   4.669   6.195   6.224  0.1687 -0.6001 -0.1920
    2CHTO   H71  704   4.676   6.107   6.257  0.6931 -0.8802 -1.0416
    2CHTO   O28  705   4.325   6.470   5.924  0.0470 -0.0569  0.8333
    2CHTO   C42  706   4.296   6.610   5.972 -0.3238  0.1410 -0.5818
    2CHTO   H84  707   4.312   6.668   5.880  1.0169  1.5153  0.4890
    2CHTO   C44  708   4.392   6.667   6.084  0.7598 -0.0891  0.3855
    2CHTO   H86  709   4.375   6.605   6.172  0.4793 -0.2672  0.2099
    2CHTO   O32  710   4.531   6.646   6.029  0.3297  0.2278  0.1862
    2CHTO   H69  711   4.561   6.562   6.056 -0.1930 -0.0208 -0.0029
    2CHTO   C48  712   4.357   6.822   6.118  0.0305 -0.4208 -0.9116
    2CHTO   H90  713   4.350   6.873   6.022  1.5331  1.3581 -0.1252
    2CHTO    N9  714   4.452   6.888   6.203  0.5468  0.4374  0.5337
    2CHTO   H77  715   4.437   6.995   6.201 -0.4656  0.3150  1.1751
    2CHTO   H78  716   4.546   6.870   6.154  1.3899  2.1315  1.4759
    2CHTO   C51  717   4.210   6.829   6.170 -0.5188  0.4255 -0.5637
    2CHTO   H93  718   4.191   6.764   6.256 -1.3885  1.0888 -0.2430
    2CHTO   O30  719   4.137   6.787   6.058 -0.2876 -0.8276  0.4244
    2CHTO   C46  720   4.147   6.636   6.013 -0.6121  0.2054 -0.2132
    2CHTO   H88  721   4.128   6.578   6.104  0.5664 -1.2216 -0.8601
    2CHTO   C53  722   4.040   6.599   5.904 -0.3298  0.6341 -0.4786
    2CHTO   O72  723   3.910   6.627   5.953  0.0398  0.7657 -0.0421
    2CHTO  H199  724   3.879   6.716   5.950  0.7132  1.0976  1.7452
    2CHTO   O22  725   4.160   6.963   6.204  0.3864 -0.3746 -0.7926
    2CHTO   C31  726   4.054   6.977   6.307  0.1850 -0.1244  0.4632
    2CHTO   H59  727   4.026   7.085   6.306  0.7724  0.0295  0.9759
    2CHTO   C29  728   3.928   6.899   6.269  0.7008 -0.1116  0.2927
    2CHTO   H57  729   3.961   6.794   6.265  0.9495 -0.0128 -0.2937
    2CHTO   O21  730   3.879   6.945   6.142 -0.7922 -0.0863  0.2851
    2CHTO   H37  731   3.944   6.927   6.078 -0.2815 -0.0251  0.7868
    2CHTO   C27  732   3.818   6.909   6.378 -0.5499 -0.4172 -0.7122
    2CHTO   H55  733   3.782   7.013   6.387  0.4841 -0.1284  0.2035
    2CHTO    N5  734   3.707   6.821   6.338  0.6444 -0.4474 -0.0183
    2CHTO   H43  735   3.632   6.873   6.281  1.2762  1.2330  0.6234
    2CHTO   H44  736   3.744   6.727   6.301  1.3869  0.3308 -1.2804
    2CHTO   C25  737   3.882   6.864   6.516 -0.2525 -0.2207 -0.0392
    2CHTO   H53  738   3.921   6.762   6.512 -0.7105 -0.3660 -0.8222
    2CHTO   O17  739   3.997   6.955   6.547  0.6778  0.4528 -0.5095
    2CHTO   C32  740   4.101   6.943   6.452 -0.1762  0.0960  0.5116
    2CHTO   H60  741   4.132   6.839   6.457  1.6094  0.6695  1.9854
    2CHTO   C36  742   4.212   7.044   6.485  0.1698 -0.8313 -0.2139
    2CHTO   O25  743   4.274   7.016   6.609  1.0621 -0.0294  0.1701
    2CHTO   H40  744   4.314   6.931   6.609  2.4722  0.5932 -1.1990
    2CHTO   O15  745   3.783   6.883   6.638  0.1150  0.3457 -0.2427
    2CHTO   C19  746   3.700   6.877   6.766  0.2664  0.4186  0.0431
    2CHTO   H47  747   3.608   6.933   6.743 -0.6125 -0.8472  0.4499
    2CHTO   C20  748   3.663   6.730   6.797 -0.1956  0.3404  0.7657
    2CHTO   H48  749   3.751   6.664   6.799 -0.3635  0.0444 -0.8410
    2CHTO   O19  750   3.575   6.698   6.690  0.1052 -0.0775  0.2255
    2CHTO   H35  751   3.539   6.613   6.705 -0.4919 -0.0939 -1.2017
    2CHTO   C21  752   3.596   6.707   6.936  0.6666 -0.0616  0.3029
    2CHTO   H49  753   3.498   6.753   6.938  1.1708  1.0665 -0.4275
    2CHTO    N4  754   3.580   6.569   6.988 -0.3720 -0.2287  0.2879
    2CHTO   H41  755   3.655   6.494   6.971 -1.1268 -1.0959  0.7092
    2CHTO   H42  756   3.498   6.528   6.931  0.7268 -0.1086 -1.3822
    2CHTO   C22  757   3.670   6.798   7.042 -0.3672 -0.2366  1.5195
    2CHTO   H50  758   3.763   6.749   7.068  0.7545  0.0209 -1.7563
    2CHTO   O14  759   3.688   6.929   6.999 -0.4021  0.0649 -0.3211
    2CHTO   C23  760   3.771   6.949   6.883 -0.0104  0.2828  0.1955
    2CHTO   H51  761   3.869   6.903   6.902 -0.6472 -0.7891  0.9430
    2CHTO   C34  762   3.796   7.098   6.865 -0.2830  0.0665  0.6091
    2CHTO   O23  763   3.871   7.112   6.742  0.3399 -0.0182  0.0496
    2CHTO   H38  764   3.874   7.203   6.721  0.0800  0.2752  1.2471
    2CHTO   O16  765   3.594   6.817   7.164 -0.3175  0.1323 -0.5876
    2CHTO   C24  766   3.702   6.870   7.293  0.1658 -0.0888 -0.4468
    2CHTO   H52  767   3.798   6.907   7.257 -0.7194  3.1952  0.3754
    2CHTO   C26  768   3.721   6.750   7.384  0.5616 -0.4200 -0.3401
    2CHTO   H54  769   3.623   6.704   7.407  1.3571 -1.9280  0.1777
    2CHTO   O20  770   3.790   6.657   7.302 -0.3244 -0.0996 -0.3295
    2CHTO   H36  771   3.734   6.619   7.237  2.1029  0.1964 -2.7268
    2CHTO   C30  772   3.797   6.791   7.512 -0.5575  0.1968 -0.4329
    2CHTO   H58  773   3.896   6.828   7.482 -2.4611  2.4580 -4.3023
    2CHTO    N6  774   3.794   6.677   7.607  0.0196 -0.1144 -0.3834
    2CHTO   H45  775   3.755   6.705   7.704 -2.4294  1.0608 -1.6598
    2CHTO   H46  776   3.891   6.630   7.616  0.7384  1.1069 -1.5663
    2CHTO   C33  777   3.745   6.923   7.578  0.1786 -0.3596  0.0931
    2CHTO   H61  778   3.645   6.904   7.620  0.4848 -0.8244  0.6152
    2CHTO   O18  779   3.725   7.021   7.470 -0.4335  0.3938 -0.0660
    2CHTO   C28  780   3.636   6.990   7.360  0.0116  0.0206 -0.5517
    2CHTO   H56  781   3.537   6.967   7.400  0.2710  0.2298  0.2288
    2CHTO   C35  782   3.619   7.113   7.266 -0.3345  0.3139 -0.6343
    2CHTO   O24  783   3.527   7.097   7.161  0.1191 -0.4202  0.6954
    2CHTO   H39  784   3.546   7.021   7.108  0.7030  0.1132  0.1318
    2CHTO    O9  785   3.823   6.972   7.686  0.3861 -0.4140  0.1216
    2CHTO   C13  786   3.740   7.110   7.754 -0.4123  0.2755 -0.2676
    2CHTO   H26  787   3.631   7.107   7.732  0.0936  2.3513 -3.3573
    2CHTO   C11  788   3.804   7.240   7.692 -0.2486  0.3097  0.2254
    2CHTO   H24  789   3.760   7.249   7.591  3.3133  2.5951 -1.2306
    2CHTO    O8  790   3.947   7.234   7.679  0.2408 -0.5354  0.1046
    2CHTO    H3  791   3.972   7.173   7.612  1.1500 -1.2276  1.0487
    2CHTO    C9  792   3.769   7.363   7.774 -0.3107 -0.1896  0.0840
    2CHTO   H22  793   3.662   7.346   7.791 -0.6660  0.8323 -1.0973
    2CHTO    N2  794   3.788   7.494   7.711 -0.3846 -0.7949  0.4765
    2CHTO   H10  795   3.871   7.494   7.641  0.5987 -0.6539  1.6230
    2CHTO   H11  796   3.700   7.546   7.677  0.8230  0.3254 -0.9863
    2CHTO    C7  797   3.834   7.354   7.918  0.1152  0.1178 -0.1072
    2CHTO   H20  798   3.771   7.414   7.987  0.7022  0.6569 -0.0429
    2CHTO    O4  799   3.837   7.215   7.969 -0.2731  0.1965  0.0230
    2CHTO   C14  800   3.755   7.114   7.912  0.1749 -0.2540 -0.3554
    2CHTO   H27  801   3.658   7.128   7.964 -0.4061 -3.6309 -0.4692
    2CHTO   C18  802   3.809   6.977   7.964 -0.7757 -0.6197 -0.0021
    2CHTO   O13  803   3.949   6.971   7.992  0.1825  0.2304 -0.0292
    2CHTO    H7  804   3.968   6.995   8.080  1.7643  1.0324 -0.5683
    2CHTO    O2  805   3.998   7.417   7.923  0.4362  0.2682  0.1125
    2CHTO    C1  806   4.050   7.420   8.054  0.8552 -0.2950  0.6645
    2CHTO   H14  807   3.975   7.367   8.116 -2.0642  0.2755 -2.2307
    2CHTO    C2  808   4.077   7.564   8.119 -0.2361  0.1888  0.2173
    2CHTO   H15  809   4.168   7.600   8.070 -0.5542 -1.4550 -1.6247
    2CHTO    O6  810   3.961   7.644   8.094 -0.0687  0.3901  0.3078
    2CHTO    H1  811   3.985   7.735   8.091  2.6386 -0.2805  0.2481
    2CHTO    C3  812   4.108   7.542   8.282 -0.1417  0.8047 -0.2617
    2CHTO   H16  813   4.028   7.479   8.322  2.1091 -0.8490  1.8514
    2CHTO    N1  814   4.108   7.670   8.359  0.1171 -0.1854  0.2691
    2CHTO    H8  815   4.189   7.686   8.429  0.5532 -3.4270  0.5554
    2CHTO    H9  816   4.015   7.686   8.412  0.0771 -2.1221  0.8137
    2CHTO    C4  817   4.240   7.455   8.291  0.1491 -0.4208 -0.1525
    2CHTO   H17  818   4.326   7.508   8.250 -0.0662  0.0533  0.0121
    2CHTO    O1  819   4.217   7.333   8.210 -0.6349  0.0196  0.0277
    2CHTO    C5  820   4.184   7.350   8.074 -0.4662  0.4368 -0.7661
    2CHTO   H18  821   4.265   7.411   8.034  0.2893  0.4325  0.7355
    2CHTO   C16  822   4.184   7.213   8.001  0.1781 -0.0074 -0.7818
    2CHTO   O11  823   4.313   7.154   7.987 -0.4220 -0.1429 -0.1163
    2CHTO    H5  824   4.301   7.100   7.911 -2.4117 -0.5706  0.4814
    2CHTO    O3  825   4.261   7.414   8.427  0.0324 -0.8693 -0.2031
    2CHTO    C6  826   4.391   7.368   8.469 -0.7570 -0.7188 -0.3433
    2CHTO   H19  827   4.468   7.365   8.392 -1.0108  1.9620 -0.7433
    2CHTO    C8  828   4.453   7.466   8.574  0.3425  0.0709 -1.1960
    2CHTO   H21  829   4.376   7.489   8.648  0.8724 -5.4357  1.2927
    2CHTO    O7  830   4.483   7.585   8.509  0.0773  0.4075 -0.3576
    2CHTO    H2  831   4.489   7.656   8.571 -0.5807  0.8862 -0.8339
    2CHTO   C12  832   4.579   7.399   8.652  0.0227  0.3505  0.2215
    2CHTO   H25  833   4.662   7.394   8.579  0.3148  1.1176  0.4892
    2CHTO    N3  834   4.636   7.485   8.766  0.6094 -0.1420 -0.4992
    2CHTO   H12  835   4.564   7.555   8.806 -1.6595 -2.2762 -0.7302
    2CHTO   H13  836   4.672   7.425   8.848  1.5365  1.1582  0.0519
    2CHTO   C15  837   4.544   7.256   8.697  0.3064 -0.1964 -0.0008
    2CHTO   H28  838   4.464   7.255   8.772 -0.2702 -1.3169 -0.6184
    2CHTO   O10  839   4.668   7.175   8.756  0.0402 -0.1293 -0.0574
    2CHTO    H4  840   4.653   7.084   8.767 -0.5251 -0.0740 -0.3220
    2CHTO    O5  841   4.495   7.175   8.589  0.1155  0.1826 -0.0741
    2CHTO   C10  842   4.372   7.228   8.523 -0.4107 -0.3950  0.5320
    2CHTO   H23  843   4.285   7.218   8.588 -2.9917  1.5544 -2.4772
    2CHTO   C17  844   4.342   7.132   8.413  0.4653  0.4069  0.2403
    2CHTO   O12  845   4.281   7.004   8.470  0.7099  0.2386 -0.0154
    2CHTO    H6  846   4.197   7.016   8.509 -0.0849  0.9838 -1.8950
    3CHTO  H203  847   5.996   3.399   4.288  0.6560 -0.5456 -0.6295
    3CHTO   O82  848   5.928   3.348   4.327  0.6907 -0.0738  0.0751
    3CHTO  C123  849   5.861   3.258   4.240  0.5632 -0.0390 -0.2311
    3CHTO  H227  850   5.762   3.232   4.279  1.3369 -0.4969  1.4857
    3CHTO   O77  851   5.844   3.333   4.119  0.0665  0.1669  0.0861
    3CHTO  C118  852   5.757   3.284   4.021  0.0978 -0.1475  0.0945
    3CHTO  H222  853   5.660   3.251   4.061 -0.5730  0.4841 -0.9620
    3CHTO  C125  854   5.732   3.394   3.904 -0.6253 -0.0188  0.1283
    3CHTO   O84  855   5.608   3.388   3.831 -0.1288  0.4435 -0.4163
    3CHTO  H205  856   5.537   3.394   3.893  0.9542  0.6287  0.8124
    3CHTO  C114  857   5.834   3.159   3.970  0.4935 -0.0088 -0.5946
    3CHTO  H218  858   5.925   3.193   3.921  1.3484  0.1490  1.0713
    3CHTO  C116  859   5.878   3.051   4.076  0.0387 -0.3267 -0.0199
    3CHTO  H220  860   5.792   2.989   4.109 -0.0246 -0.7860 -1.0091
    3CHTO   O79  861   5.980   2.964   4.022  0.0808 -0.6504 -0.3307
    3CHTO  H201  862   6.029   3.010   3.957 -1.4620 -0.3353 -1.2887
    3CHTO  C120  863   5.938   3.122   4.204  0.6634 -0.2508 -0.0303
    3CHTO  H224  864   6.040   3.154   4.174  0.4950  0.2643 -0.0676
    3CHTO   N21  865   5.954   3.026   4.320 -0.0791  0.1951  0.0045
    3CHTO  H211  866   5.864   3.014   4.378 -0.3543 -2.5612 -0.9140
    3CHTO  H212  867   6.025   3.073   4.386 -0.1955 -0.9312  0.9542
    3CHTO   O75  868   5.740   3.099   3.876  0.0988  0.3474 -0.2628
    3CHTO  C112  869   5.800   3.019   3.736 -0.0660 -0.0938 -1.0620
    3CHTO  H216  870   5.809   2.911   3.757 -0.3104  0.6266  3.3436
    3CHTO   O73  871   5.929   3.076   3.714  0.4088 -0.1427 -0.1259
    3CHTO  C113  872   6.006   3.034   3.602 -0.2808  0.6591 -0.3290
    3CHTO  H217  873   6.006   2.924   3.617 -1.0799  0.6877 -0.0834
    3CHTO  C124  874   6.151   3.092   3.614 -0.0186 -0.2935  0.0740
    3CHTO   O83  875   6.237   3.043   3.716 -0.6575 -0.1653  0.3460
    3CHTO  H204  876   6.310   3.101   3.725  0.1639 -1.2278  0.6321
    3CHTO  C109  877   5.938   3.086   3.468 -0.4845 -0.5458  0.2090
    3CHTO  H213  878   5.947   3.196   3.473  2.5566 -0.7152 -0.6220
    3CHTO  C110  879   5.784   3.039   3.470 -0.5924  0.1730  0.0109
    3CHTO  H214  880   5.782   2.932   3.451 -1.5629  0.0959  0.5249
    3CHTO   O78  881   5.716   3.103   3.362  0.3373 -0.1109  0.0303
    3CHTO  H200  882   5.749   3.075   3.279  0.9551  1.7235 -0.3612
    3CHTO  C111  883   5.714   3.065   3.610 -0.0530 -0.1806 -0.6291
    3CHTO  H215  884   5.702   3.174   3.618 -2.0583 -0.4738  0.7600
    3CHTO   N19  885   5.579   3.010   3.612 -0.8956  0.4890  0.4144
    3CHTO  H207  886   5.531   3.057   3.696  1.9780 -0.5118  2.6801
    3CHTO  H208  887   5.593   2.908   3.643 -0.4521  0.8331  1.3599
    3CHTO   O74  888   6.015   3.036   3.353 -0.8006  0.7587 -0.2961
    3CHTO  C115  889   6.042   3.156   3.251 -0.3082  0.6114  0.3826
    3CHTO  H219  890   6.009   3.254   3.286  1.2743  1.5156 -0.5825
    3CHTO   O76  891   6.193   3.183   3.227 -0.1352 -0.1587 -0.2725
    3CHTO  C122  892   6.266   3.077   3.164 -0.5523 -0.3234 -0.2969
    3CHTO  H226  893   6.305   3.026   3.252 -1.5519  1.3074  1.1228
    3CHTO  C126  894   6.397   3.135   3.079  0.3602 -0.5350 -0.3586
    3CHTO   O85  895   6.479   3.220   3.158 -0.6088  0.4664  0.2110
    3CHTO  H206  896   6.527   3.167   3.218 -0.5811  1.2578  0.8892
    3CHTO  C121  897   6.181   2.972   3.080 -0.1388 -0.7277  0.3473
    3CHTO  H225  898   6.241   2.924   3.000 -0.4784  0.6534 -0.7428
    3CHTO   O81  899   6.140   2.863   3.160 -0.1358  0.2330  0.0869
    3CHTO  H202  900   6.122   2.784   3.115 -0.4792 -1.1158  2.5079
    3CHTO  C119  901   6.066   3.054   3.011 -0.0175 -0.0647 -0.4479
    3CHTO  H223  902   6.122   3.128   2.954  0.3139  0.2205  0.2383
    3CHTO  C117  903   5.972   3.114   3.119  1.2110 -0.4209 -0.5993
    3CHTO  H221  904   5.896   3.043   3.151  1.4261 -0.3074  0.1862
    3CHTO   N20  905   5.897   3.228   3.061  0.0299 -0.0561  0.2538
    3CHTO  H209  906   5.820   3.261   3.129 -0.2763 -0.3094  0.0337
    3CHTO  H210  907   5.861   3.213   2.960  0.7425 -4.5105  0.5549
    3CHTO   O80  908   5.993   2.976   2.896  0.2252 -0.0369 -0.4174
    3CHTO  C103  909   5.891   2.850   2.921 -0.5605  0.0675  0.4163
    3CHTO  H190  910   5.918   2.802   3.016  0.3745  0.3435  0.2898
    3CHTO  C101  911   5.740   2.883   2.916  0.3468 -0.1913  0.7632
    3CHTO  H188  912   5.716   2.946   2.830  0.1033  1.9383  2.3324
    3CHTO   O68  913   5.707   2.965   3.043  0.5880  0.4851 -0.2197
    3CHTO  H168  914   5.643   2.922   3.097  0.7554 -0.5904 -0.8549
    3CHTO   C99  915   5.647   2.744   2.910 -0.4235 -0.1548 -0.3493
    3CHTO  H186  916   5.655   2.696   3.009  2.7995  1.2821  0.1290
    3CHTO   N17  917   5.502   2.773   2.895 -0.0369 -0.0920  0.1451
    3CHTO  H174  918   5.477   2.827   2.805  0.6982  3.8512  2.2041
    3CHTO  H175  919   5.442   2.683   2.905 -1.7605  1.0902  0.5849
    3CHTO   C97  920   5.706   2.645   2.808  0.1138 -0.1919  0.1936
    3CHTO  H184  921   5.687   2.692   2.710  2.4777 -1.1907 -0.7867
    3CHTO   O64  922   5.846   2.624   2.831  0.4497 -0.4154 -0.1108
    3CHTO  C104  923   5.919   2.744   2.807  0.0413  0.2259 -0.1002
    3CHTO  H191  924   5.894   2.790   2.711  1.2434  2.4399  0.6149
    3CHTO  C108  925   6.068   2.706   2.795 -0.7130 -0.3109 -0.3142
    3CHTO   O71  926   6.148   2.818   2.748  0.1002 -0.2694 -0.0233
    3CHTO  H171  927   6.222   2.838   2.802  1.8608 -0.8345 -2.1681
    3CHTO   O62  928   5.637   2.517   2.813 -0.0310 -0.3532 -0.0405
    3CHTO   C91  929   5.622   2.439   2.693  0.5558 -0.3720 -0.5836
    3CHTO  H178  930   5.592   2.511   2.617  1.0351  1.5994  1.0611
    3CHTO   C92  931   5.500   2.341   2.710 -0.4005  0.5845 -0.5466
    3CHTO  H179  932   5.523   2.293   2.806 -1.1187 -0.3812 -0.8438
    3CHTO   O66  933   5.383   2.422   2.726  0.1422 -0.3116  0.5261
    3CHTO  H166  934   5.374   2.456   2.813 -2.2573  1.5822 -0.3909
    3CHTO   C93  935   5.495   2.242   2.590 -0.0303 -0.7300 -0.0791
    3CHTO  H180  936   5.473   2.299   2.498  2.8906 -1.0333 -1.0139
    3CHTO   N16  937   5.395   2.140   2.590  0.2707  0.6915 -0.2204
    3CHTO  H172  938   5.367   2.120   2.693  0.7283  0.3975 -0.1534
    3CHTO  H173  939   5.305   2.170   2.538  0.5771  2.4866  0.2276
    3CHTO   C94  940   5.631   2.162   2.570 -0.1462 -0.8733  0.1329
    3CHTO  H181  941   5.625   2.061   2.609 -3.0263 -0.2769  1.3486
    3CHTO   O61  942   5.742   2.217   2.643  0.7377  0.4334  0.0302
    3CHTO   C95  943   5.756   2.365   2.651  0.1996  0.7822 -0.1522
    3CHTO  H182  944   5.829   2.385   2.729 -0.4808  0.0531  0.6781
    3CHTO  C106  945   5.809   2.432   2.511  0.1568 -0.1092 -0.3339
    3CHTO   O69  946   5.943   2.390   2.494 -0.1978  0.0776  0.1789
    3CHTO  H169  947   5.959   2.298   2.505 -0.4597 -0.1453 -1.1854
    3CHTO   O63  948   5.665   2.164   2.408 -0.3454  0.2192 -0.3386
    3CHTO   C96  949   5.722   2.022   2.369  1.2293  1.0596  0.4423
    3CHTO  H183  950   5.685   1.944   2.436  1.4689  2.9766  2.8940
    3CHTO   C98  951   5.873   2.004   2.358 -0.3756  0.5928 -0.3943
    3CHTO  H185  952   5.910   2.072   2.280  1.1111 -2.3019 -2.3414
    3CHTO   O67  953   5.930   2.048   2.486  0.5893 -0.0443 -0.0756
    3CHTO  H167  954   5.904   1.993   2.558 -1.8077  0.7517 -0.2909
    3CHTO  C102  955   5.916   1.857   2.317 -0.6369  0.0913  0.6335
    3CHTO  H189  956   5.903   1.796   2.408  0.6083  0.6580  1.1985
    3CHTO   N18  957   6.060   1.844   2.277  0.8932  0.2372  0.2878
    3CHTO  H176  958   6.121   1.860   2.365 -0.4030 -0.6669  1.3703
    3CHTO  H177  959   6.104   1.891   2.191 -0.6196  1.2715  0.0646
    3CHTO  C105  960   5.820   1.802   2.213 -0.4203  0.2489 -0.0250
    3CHTO  H192  961   5.861   1.819   2.113 -1.5043 -1.6530 -0.8234
    3CHTO   O65  962   5.681   1.840   2.219 -0.1099  0.5137  0.1929
    3CHTO  C100  963   5.662   1.980   2.229  0.0249  0.4211  0.1498
    3CHTO  H187  964   5.722   2.017   2.144  2.4532 -1.9447  0.7657
    3CHTO  C107  965   5.516   2.005   2.203 -0.3904 -0.2091  0.5122
    3CHTO   O70  966   5.482   2.146   2.197  0.3357  0.1521 -0.2726
    3CHTO  H170  967   5.498   2.190   2.278 -2.9335 -0.6138  0.8422
    3CHTO   O57  968   5.823   1.642   2.234  1.3604 -0.2514 -0.1802
    3CHTO   C85  969   5.780   1.539   2.147  0.1384  0.2514  0.5166
    3CHTO  H157  970   5.848   1.547   2.060 -1.7735  1.5059 -0.8941
    3CHTO   C83  971   5.636   1.554   2.099 -0.3188 -0.9121 -0.5229
    3CHTO  H155  972   5.634   1.645   2.038 -0.2451 -0.5245  0.0547
    3CHTO   O56  973   5.547   1.583   2.208  0.4379  0.2405  0.4109
    3CHTO  H135  974   5.498   1.662   2.196 -0.4944 -0.4118 -0.1873
    3CHTO   C81  975   5.603   1.437   2.011  0.4174 -0.6096 -0.3298
    3CHTO  H153  976   5.678   1.426   1.932  1.6028 -0.1946  0.7187
    3CHTO   N14  977   5.466   1.463   1.951 -0.3423 -0.3893  0.2068
    3CHTO  H141  978   5.412   1.542   1.998  0.1329 -0.6162  1.1489
    3CHTO  H142  979   5.478   1.476   1.845 -1.5755 -2.9967 -0.2853
    3CHTO   C79  980   5.598   1.306   2.103 -0.2081 -1.0206  0.0495
    3CHTO  H151  981   5.575   1.220   2.040  1.7656 -0.6160 -1.2584
    3CHTO   O52  982   5.734   1.285   2.153 -0.6657  0.0062  0.0067
    3CHTO   C86  983   5.793   1.393   2.225 -0.4751 -0.4218 -0.3698
    3CHTO  H158  984   5.744   1.383   2.324  1.9173  1.9197  1.1075
    3CHTO   C90  985   5.935   1.347   2.246 -0.5925 -0.4984 -0.2358
    3CHTO   O60  986   6.018   1.441   2.309  0.2343  0.6496 -0.4637
    3CHTO  H138  987   6.096   1.405   2.345  0.3675 -1.1100 -2.4249
    3CHTO   O50  988   5.514   1.306   2.213 -0.6931  0.6373 -0.4002
    3CHTO   C73  989   5.438   1.222   2.304 -0.1168 -0.2149 -0.1766
    3CHTO  H145  990   5.504   1.144   2.345  0.2440 -0.0743 -0.4892
    3CHTO   C74  991   5.306   1.170   2.238 -0.2012 -0.2345 -0.0958
    3CHTO  H146  992   5.336   1.105   2.155 -0.2965  0.4533 -0.6750
    3CHTO   O54  993   5.243   1.086   2.337 -0.0333  0.0842  0.6410
    3CHTO  H133  994   5.151   1.080   2.320  0.1201  1.8519 -0.9264
    3CHTO   C75  995   5.219   1.294   2.186 -0.3844  0.0183  0.2943
    3CHTO  H147  996   5.271   1.355   2.111  0.9079 -1.3042  0.0976
    3CHTO   N13  997   5.098   1.240   2.121  0.4585  0.6967 -0.2276
    3CHTO  H139  998   5.109   1.143   2.076 -0.0535  1.1052 -1.2526
    3CHTO  H140  999   5.065   1.301   2.038 -0.0400  0.1006 -0.4692
    3CHTO   C76 1000   5.187   1.399   2.304 -0.2162  0.6808  0.2192
    3CHTO  H148 1001   5.104   1.358   2.362 -0.3005  1.8203  0.9202
    3CHTO   O49 1002   5.312   1.417   2.388 -0.1298 -0.1735  0.2955
    3CHTO   C77 1003   5.400   1.310   2.426 -0.4150  0.5963  0.2631
    3CHTO  H149 1004   5.359   1.249   2.506  2.2783 -0.1022  1.1796
    3CHTO   C88 1005   5.523   1.377   2.489  0.2515  0.0009  0.0928
    3CHTO   O58 1006   5.639   1.264   2.534  0.3863  0.2351 -0.1189
    3CHTO  H136 1007   5.680   1.239   2.453  2.5572 -1.9777  1.5893
    3CHTO   O51 1008   5.159   1.552   2.248  0.4580  0.5913 -0.3514
    3CHTO   C78 1009   5.056   1.639   2.346  0.1528  0.1677  0.1918
    3CHTO  H150 1010   5.028   1.584   2.438 -2.3317  0.1522 -0.5178
    3CHTO   C80 1011   4.926   1.671   2.270  0.5118 -1.2788 -0.3832
    3CHTO  H152 1012   4.950   1.725   2.175 -1.1953  1.2452  0.5615
    3CHTO   O55 1013   4.861   1.555   2.234 -0.3380 -0.0793  0.2367
    3CHTO  H134 1014   4.882   1.541   2.143 -1.6022 -1.3094  0.1240
    3CHTO   C84 1015   4.830   1.762   2.357 -0.1813  0.6149 -0.7129
    3CHTO  H156 1016   4.784   1.697   2.431  0.5646  0.1704 -0.6316
    3CHTO   N15 1017   4.721   1.825   2.272  0.0993  0.3365 -0.6477
    3CHTO  H143 1018   4.726   1.780   2.175  0.9373  0.0647 -0.4834
    3CHTO  H144 1019   4.625   1.799   2.312  0.4252 -0.8758 -0.6406
    3CHTO   C87 1020   4.913   1.873   2.432  0.2024 -0.1139  0.2486
    3CHTO  H159 1021   4.934   1.959   2.368 -0.9052  1.9754  2.5926
    3CHTO   O53 1022   5.033   1.830   2.492  0.0930 -0.4296 -0.1604
    3CHTO   C82 1023   5.121   1.768   2.392  0.5196 -0.4688  0.0816
    3CHTO  H154 1024   5.143   1.834   2.308 -0.1543 -0.4187 -0.0592
    3CHTO   C89 1025   5.259   1.737   2.453  0.2194 -0.1388 -0.3585
    3CHTO   O59 1026   5.250   1.690   2.587 -0.0271  0.2497  0.1200
    3CHTO  H137 1027   5.307   1.617   2.606 -0.4825  0.7410  3.7294
    3CHTO   O45 1028   4.817   1.942   2.538 -0.5355 -1.2536 -0.1529
    3CHTO   C67 1029   4.861   2.038   2.639  0.0933  0.1810 -0.1042
    3CHTO  H124 1030   4.970   2.037   2.643  0.1420 -0.0448 -1.3109
    3CHTO   C65 1031   4.816   2.184   2.610  0.1752  0.0044 -0.0934
    3CHTO  H122 1032   4.724   2.179   2.551  0.2400 -2.3107 -0.0373
    3CHTO   O44 1033   4.920   2.232   2.529  0.5103  0.9732  0.0436
    3CHTO  H102 1034   4.935   2.324   2.535 -0.7390  1.1298  0.8251
    3CHTO   C63 1035   4.791   2.265   2.740 -0.2935 -0.1503 -0.3545
    3CHTO  H120 1036   4.689   2.248   2.773 -0.8333 -0.1751 -1.9737
    3CHTO   N11 1037   4.795   2.412   2.722 -0.1278  0.7676 -0.5245
    3CHTO  H108 1038   4.710   2.441   2.663  0.1869 -3.2283 -3.1480
    3CHTO  H109 1039   4.889   2.439   2.678  2.0019 -1.5791  2.3866
    3CHTO   C61 1040   4.874   2.217   2.865 -0.2908  0.4385  0.2944
    3CHTO  H118 1041   4.835   2.264   2.956 -0.5195  0.3529  0.2430
    3CHTO   O40 1042   4.870   2.074   2.881 -0.2221  0.2813  0.0117
    3CHTO   C68 1043   4.817   1.994   2.773 -0.2591  1.0155  0.1505
    3CHTO  H125 1044   4.706   1.999   2.784 -0.3735 -1.0477  0.0385
    3CHTO   C72 1045   4.855   1.850   2.805  0.1361  0.1691  0.1074
    3CHTO   O48 1046   4.994   1.822   2.800 -0.5180 -0.0421  0.5516
    3CHTO  H105 1047   5.025   1.760   2.863  2.1295  0.5200 -0.1218
    3CHTO   O38 1048   5.013   2.244   2.848  0.3311  0.7142 -0.3215
    3CHTO   C55 1049   5.074   2.271   2.975  0.0729  0.1263  0.2367
    3CHTO  H112 1050   5.014   2.224   3.054 -0.6559 -2.6593 -1.9140
    3CHTO   C56 1051   5.087   2.434   2.991 -0.4294  0.5572  0.5842
    3CHTO  H113 1052   5.142   2.477   2.907 -0.0293  0.2126  0.6651
    3CHTO   O42 1053   4.957   2.494   2.993  0.1342  0.3575  0.0440
    3CHTO  H100 1054   4.936   2.520   3.080  1.0867 -1.8004  0.9574
    3CHTO   C57 1055   5.173   2.468   3.123  0.0644 -0.8211  0.0595
    3CHTO  H114 1056   5.122   2.442   3.216  0.2205  0.1993  0.4409
    3CHTO   N10 1057   5.200   2.614   3.140 -0.0537  0.0708 -0.2879
    3CHTO  H106 1058   5.298   2.632   3.181  0.2935 -2.7921  0.2807
    3CHTO  H107 1059   5.197   2.667   3.046  0.6835 -0.3152 -0.5336
    3CHTO   C58 1060   5.305   2.391   3.114 -0.5924 -0.1814 -0.2000
    3CHTO  H115 1061   5.360   2.419   3.021  0.9340  0.6484  0.9323
    3CHTO   O37 1062   5.274   2.250   3.112 -0.0997 -0.3694 -0.2714
    3CHTO   C59 1063   5.215   2.211   2.993  0.1067  0.6549 -0.2811
    3CHTO  H116 1064   5.281   2.239   2.911 -0.8826  2.4430 -0.4802
    3CHTO   C70 1065   5.193   2.054   3.003  0.0153  0.1627 -0.6215
    3CHTO   O46 1066   5.315   1.987   2.984  0.4772  0.3361  0.6830
    3CHTO  H103 1067   5.380   2.017   3.044  0.1605 -1.9653  2.2275
    3CHTO   O39 1068   5.400   2.421   3.247  0.5059 -0.3314  0.0985
    3CHTO   C60 1069   5.544   2.423   3.218  0.4526  0.4147 -0.3581
    3CHTO  H117 1070   5.552   2.436   3.110 -0.0131  1.8648 -0.2264
    3CHTO   C62 1071   5.609   2.538   3.301 -0.2427 -0.6496  0.1275
    3CHTO  H119 1072   5.553   2.630   3.276  2.1860  1.1840  1.1347
    3CHTO   O43 1073   5.584   2.513   3.442 -0.2731 -0.4264 -0.5554
    3CHTO  H101 1074   5.499   2.483   3.469  0.5120  1.0555  4.1750
    3CHTO   C66 1075   5.761   2.561   3.255  0.7602  0.0193 -0.2780
    3CHTO  H123 1076   5.767   2.570   3.146  1.9641 -1.0570 -0.3122
    3CHTO   N12 1077   5.805   2.690   3.307 -0.3083 -0.2618 -0.0957
    3CHTO  H110 1078   5.839   2.689   3.410 -2.4756 -0.7339  0.6490
    3CHTO  H111 1079   5.728   2.765   3.300  0.2226  0.4747  1.7353
    3CHTO   C69 1080   5.840   2.440   3.310 -0.3368  0.0294  0.4952
    3CHTO  H126 1081   5.834   2.435   3.421 -0.9918 -0.8406  0.4253
    3CHTO   O41 1082   5.776   2.296   3.261  0.1545  0.0291  0.0195
    3CHTO   C64 1083   5.613   2.286   3.262  1.2825  0.4744 -0.1962
    3CHTO  H121 1084   5.585   2.258   3.366 -2.7899 -1.2224 -1.6238
    3CHTO   C71 1085   5.567   2.161   3.176  0.1361 -0.3408 -0.7792
    3CHTO   O47 1086   5.580   2.049   3.253  0.7014 -0.5550 -0.1009
    3CHTO  H104 1087   5.671   2.025   3.251  0.7213 -0.4597 -0.5749
    3CHTO   O34 1088   5.991   2.456   3.256 -0.2196 -0.8540  0.1459
    3CHTO   C49 1089   6.069   2.486   3.117 -0.6646  0.3631  0.0629
    3CHTO   H91 1090   6.045   2.587   3.085 -0.9760 -0.9048 -3.9612
    3CHTO   C47 1091   6.018   2.388   3.012  1.0193  0.1190 -0.3415
    3CHTO   H89 1092   6.057   2.419   2.914 -0.5715  0.0296 -1.0184
    3CHTO   O33 1093   5.871   2.406   3.011 -0.1377  0.1356 -0.0818
    3CHTO   H70 1094   5.853   2.481   2.959 -1.1468 -0.5758 -0.7789
    3CHTO   C45 1095   6.056   2.232   3.050  0.0847 -0.5491 -0.3155
    3CHTO   H87 1096   6.015   2.218   3.150  2.3894 -1.8884  0.4862
    3CHTO    N8 1097   5.995   2.127   2.965 -0.0798  0.4687 -0.1806
    3CHTO   H75 1098   6.029   2.032   3.003  0.3044  2.2025  4.0996
    3CHTO   H76 1099   6.010   2.149   2.861  1.7438 -1.6345 -0.4014
    3CHTO   C43 1100   6.218   2.234   3.057 -0.2455 -0.2148 -0.1724
    3CHTO   H85 1101   6.246   2.133   3.088  2.6886 -0.2069 -2.6106
    3CHTO   O29 1102   6.268   2.333   3.150 -0.9036 -0.3020  0.2598
    3CHTO   C50 1103   6.223   2.470   3.137  0.3362  0.1049  0.5540
    3CHTO   H92 1104   6.244   2.520   3.233  1.2307 -0.2694  0.5534
    3CHTO   C54 1105   6.309   2.549   3.038  0.3949  0.3500  0.0812
    3CHTO   O36 1106   6.449   2.542   3.067 -0.3330  0.0859  0.8055
    3CHTO   H72 1107   6.484   2.629   3.059 -0.5432  0.1061  0.0190
    3CHTO   O27 1108   6.277   2.258   2.929  0.4244 -0.1295 -0.0692
    3CHTO   C37 1109   6.380   2.269   2.828 -0.2501 -0.5599  0.2652
    3CHTO   H79 1110   6.419   2.370   2.811  0.6017 -0.7726  0.9576
    3CHTO   C38 1111   6.508   2.175   2.861 -0.4072 -0.3322 -0.0221
    3CHTO   H80 1112   6.475   2.073   2.886  2.0114 -0.9719  0.6617
    3CHTO   O31 1113   6.560   2.233   2.981 -0.6186  0.0164 -0.1977
    3CHTO   H68 1114   6.605   2.315   2.974  1.0001 -0.7701  0.5616
    3CHTO   C39 1115   6.608   2.169   2.740  0.8019 -0.4056 -0.2895
    3CHTO   H81 1116   6.636   2.273   2.731 -0.2131 -0.2451 -1.5988
    3CHTO    N7 1117   6.736   2.088   2.760  0.1223 -0.4637 -0.6768
    3CHTO   H73 1118   6.790   2.119   2.848 -0.8704 -0.8117  0.0614
    3CHTO   H74 1119   6.705   1.985   2.772 -1.3285  0.3907  3.7196
    3CHTO   C40 1120   6.527   2.130   2.605 -0.6234 -0.0911  0.2674
    3CHTO   H82 1121   6.506   2.023   2.607 -2.1935  0.1892 -0.6296
    3CHTO   O26 1122   6.408   2.210   2.594  0.3793  0.4530  0.6336
    3CHTO   C41 1123   6.315   2.225   2.699  0.8021  0.0600  0.1141
    3CHTO   H83 1124   6.252   2.135   2.708  0.5136  0.0951 -1.3402
    3CHTO   C52 1125   6.205   2.329   2.659  0.4533 -0.3882 -0.5048
    3CHTO   O35 1126   6.251   2.470   2.638 -0.2739 -0.0355  0.2925
    3CHTO   H71 1127   6.282   2.481   2.550 -0.5124  0.7922  0.3074
    3CHTO   O28 1128   6.608   2.154   2.489 -0.2617 -0.7104 -0.7998
    3CHTO   C42 1129   6.584   2.095   2.353  0.0399  0.1318  0.0143
    3CHTO   H84 1130   6.660   2.146   2.294  0.3041  0.3186  0.5103
    3CHTO   C44 1131   6.446   2.133   2.289 -0.1349  0.2154 -0.4893
    3CHTO   H86 1132   6.371   2.106   2.364  1.1731  0.3327  0.8745
    3CHTO   O32 1133   6.438   2.277   2.295  0.2690 -0.0120 -0.2626
    3CHTO   H69 1134   6.367   2.313   2.345  0.5649 -0.2887  0.3567
    3CHTO   C48 1135   6.406   2.079   2.146  0.4921  0.7587 -0.2987
    3CHTO   H90 1136   6.475   2.133   2.081 -0.9344  0.6295 -1.9900
    3CHTO    N9 1137   6.269   2.114   2.104  0.2028  0.1785  0.2827
    3CHTO   H77 1138   6.259   2.218   2.080 -1.4074  0.2419  1.1575
    3CHTO   H78 1139   6.198   2.086   2.180 -0.1188 -2.5049 -0.9315
    3CHTO   C51 1140   6.440   1.923   2.140 -0.1258  0.2881 -0.7208
    3CHTO   H93 1141   6.361   1.876   2.198 -1.5258  1.4619 -1.6631
    3CHTO   O30 1142   6.568   1.905   2.200 -0.0926 -0.1912 -0.0236
    3CHTO   C46 1143   6.610   1.946   2.347 -0.1526 -0.0762 -0.5036
    3CHTO   H88 1144   6.540   1.898   2.415  1.2919  1.2304  1.9733
    3CHTO   C53 1145   6.756   1.919   2.376 -0.4975 -0.0127 -0.0201
    3CHTO   O72 1146   6.784   1.785   2.347  0.5375 -0.2475 -0.6383
    3CHTO  H199 1147   6.738   1.741   2.415 -1.6291  1.6884 -0.7761
    3CHTO   O22 1148   6.442   1.868   2.009 -0.2529 -0.3387  0.5549
    3CHTO   C31 1149   6.388   1.733   1.982 -0.0562  0.6618  0.0130
    3CHTO   H59 1150   6.443   1.695   1.893  0.2895  2.1053 -0.4033
    3CHTO   C29 1151   6.419   1.629   2.095 -0.8024 -0.1913  0.8501
    3CHTO   H57 1152   6.361   1.660   2.183 -2.5157 -1.0604  0.0762
    3CHTO   O21 1153   6.552   1.641   2.139 -0.0960  0.4261  0.1218
    3CHTO   H37 1154   6.572   1.574   2.202  0.3092 -0.2564 -0.7366
    3CHTO   C27 1155   6.372   1.480   2.044 -0.3993 -0.5270 -0.0467
    3CHTO   H55 1156   6.446   1.449   1.968 -1.6353 -1.8836 -0.7232
    3CHTO    N5 1157   6.384   1.383   2.158 -0.0121  0.6067 -0.0767
    3CHTO   H43 1158   6.386   1.282   2.120  2.0201  0.3898  0.5614
    3CHTO   H44 1159   6.478   1.394   2.209 -0.0523  1.5241 -0.2000
    3CHTO   C25 1160   6.232   1.479   1.985 -0.2573  0.1170 -0.0838
    3CHTO   H53 1161   6.163   1.482   2.071  0.7192  0.9421  0.6878
    3CHTO   O17 1162   6.218   1.597   1.895 -0.2213 -0.1094 -0.4893
    3CHTO   C32 1163   6.237   1.728   1.947 -0.7331  0.0044  0.0269
    3CHTO   H60 1164   6.179   1.753   2.036  0.0176 -1.1735  0.8623
    3CHTO   C36 1165   6.188   1.825   1.842 -0.7065 -0.0441 -0.1074
    3CHTO   O25 1166   6.048   1.825   1.829  0.1641  0.4357 -0.5996
    3CHTO   H40 1167   6.010   1.833   1.914  1.4493 -1.7019  0.2128
    3CHTO   O15 1168   6.200   1.358   1.914 -0.1204 -0.5970 -0.1570
    3CHTO   C19 1169   6.101   1.286   1.835 -0.0281 -0.0697  0.0264
    3CHTO   H47 1170   6.164   1.248   1.753  0.3307 -1.3446  0.8929
    3CHTO   C20 1171   6.054   1.162   1.927 -0.4652 -0.4612 -0.0102
    3CHTO   H48 1172   6.003   1.197   2.018 -1.1382  0.5620 -0.7764
    3CHTO   O19 1173   6.173   1.089   1.969  0.4320 -0.2594 -1.0402
    3CHTO   H35 1174   6.146   1.021   2.028 -2.3357  0.1803 -1.7255
    3CHTO   C21 1175   5.949   1.066   1.848 -0.1102  0.4181 -0.0000
    3CHTO   H49 1176   5.998   1.021   1.761 -1.2004 -0.6967 -0.0547
    3CHTO    N4 1177   5.896   0.965   1.941  0.4686 -0.0817  0.0173
    3CHTO   H41 1178   5.846   1.018   2.021 -1.5573 -1.5282 -0.2405
    3CHTO   H42 1179   5.972   0.898   1.980 -0.3389 -1.6321 -1.0424
    3CHTO   C22 1180   5.839   1.162   1.789  0.0993 -0.7495 -0.5149
    3CHTO   H50 1181   5.788   1.208   1.874 -0.3583  0.9869 -1.6887
    3CHTO   O14 1182   5.897   1.269   1.706  0.7364 -0.7995  0.0017
    3CHTO   C23 1183   5.978   1.362   1.777  0.1828  0.0702 -0.7309
    3CHTO   H51 1184   5.915   1.401   1.858 -2.7240 -1.6955 -2.0653
    3CHTO   C34 1185   6.013   1.475   1.682  0.4346  0.0915 -0.1242
    3CHTO   O23 1186   5.910   1.568   1.656  0.0004 -0.2905 -0.3527
    3CHTO   H38 1187   5.944   1.637   1.602 -2.5095  1.5475  0.3025
    3CHTO   O16 1188   5.745   1.098   1.697 -0.3631 -0.8232  0.0957
    3CHTO   C24 1189   5.593   1.177   1.700 -0.4040 -0.0719 -0.0913
    3CHTO   H52 1190   5.586   1.258   1.772 -1.1009 -1.8291  1.8632
    3CHTO   C26 1191   5.490   1.069   1.751  0.2863 -0.7190 -0.2943
    3CHTO   H54 1192   5.489   0.982   1.682 -2.8753  0.2385 -1.5542
    3CHTO   O20 1193   5.539   1.036   1.880  0.6314  0.2524 -0.1953
    3CHTO   H36 1194   5.612   0.977   1.883 -0.8500 -1.8525 -2.7846
    3CHTO   C30 1195   5.340   1.122   1.753 -0.4156 -0.0752  0.0245
    3CHTO   H58 1196   5.348   1.208   1.822  3.4065 -0.5127  0.2673
    3CHTO    N6 1197   5.234   1.041   1.808  0.1861  0.0016 -0.6283
    3CHTO   H45 1198   5.274   0.944   1.832 -0.7868 -0.8544 -2.3593
    3CHTO   H46 1199   5.186   1.083   1.895 -0.8643  1.1366 -1.7213
    3CHTO   C33 1200   5.315   1.179   1.609  0.2132 -0.2386  0.6396
    3CHTO   H61 1201   5.312   1.103   1.530  0.8542  0.3058  0.0796
    3CHTO   O18 1202   5.414   1.275   1.569 -0.5677 -0.4848  0.5015
    3CHTO   C28 1203   5.555   1.235   1.562 -0.0037  0.6962  0.5366
    3CHTO   H56 1204   5.574   1.159   1.487  3.4848  0.8913  1.1301
    3CHTO   C35 1205   5.640   1.359   1.534  0.2412 -0.4025  0.3157
    3CHTO   O24 1206   5.623   1.466   1.626  0.2285 -0.2926  0.0179
    3CHTO   H39 1207   5.559   1.446   1.690 -1.8610 -0.4670 -2.0633
    3CHTO    O9 1208   5.181   1.242   1.603  0.0161 -0.2815 -0.6043
    3CHTO   C13 1209   5.171   1.380   1.667  0.3264  0.2610 -0.7641
    3CHTO   H26 1210   5.258   1.397   1.734  0.6370 -2.1354 -0.5012
    3CHTO   C11 1211   5.030   1.385   1.753 -0.0093 -0.1261  0.6088
    3CHTO   H24 1212   5.022   1.302   1.824  0.0341 -1.7868 -1.2826
    3CHTO    O8 1213   4.916   1.376   1.660  0.1678  0.1740 -0.4944
    3CHTO    H3 1214   4.834   1.365   1.704  0.5923  3.1937  1.1764
    3CHTO    C9 1215   5.028   1.519   1.835  0.1875 -0.1328  0.1862
    3CHTO   H22 1216   5.096   1.502   1.920  0.6039 -1.0605 -0.3363
    3CHTO    N2 1217   4.905   1.552   1.914  0.1042  0.6508 -0.1984
    3CHTO   H10 1218   4.919   1.549   2.021 -2.5803 -1.4622  0.1339
    3CHTO   H11 1219   4.867   1.646   1.876  1.1743 -0.1911 -3.6045
    3CHTO    C7 1220   5.094   1.641   1.755 -0.4112 -1.0530 -0.3732
    3CHTO   H20 1221   5.195   1.645   1.800 -0.7423  1.5845  0.2168
    3CHTO    O4 1222   5.093   1.608   1.614 -0.6890  0.2753  0.3270
    3CHTO   C14 1223   5.180   1.506   1.567  0.6023  0.7684  0.5321
    3CHTO   H27 1224   5.286   1.537   1.568  1.6826 -2.6427  0.4042
    3CHTO   C18 1225   5.152   1.470   1.425  0.5044  0.1089  0.1732
    3CHTO   O13 1226   5.019   1.414   1.413  0.1645 -0.5332 -0.4218
    3CHTO    H7 1227   5.017   1.338   1.468 -1.6076 -0.9756 -1.0585
    3CHTO    O2 1228   5.025   1.785   1.770 -0.1406  0.1708  0.4846
    3CHTO    C1 1229   5.114   1.893   1.807  0.0838  0.0199 -0.0128
    3CHTO   H14 1230   5.221   1.866   1.794  0.1303  0.4793 -0.6218
    3CHTO    C2 1231   5.091   1.923   1.958  0.3304  0.9270 -0.3893
    3CHTO   H15 1232   4.984   1.926   1.985  0.3115 -1.4905 -0.1028
    3CHTO    O6 1233   5.131   1.808   2.037 -0.7619  0.1406 -0.3671
    3CHTO    H1 1234   5.106   1.727   1.997 -3.1108  0.4825  0.3679
    3CHTO    C3 1235   5.165   2.051   2.016 -0.2976  0.3630 -0.3214
    3CHTO   H16 1236   5.269   2.021   2.038  0.0135  0.4418 -1.6305
    3CHTO    N1 1237   5.105   2.098   2.146  0.3737  0.4036 -0.1976
    3CHTO    H8 1238   5.077   2.015   2.209 -2.3947  0.8715 -0.7736
    3CHTO    H9 1239   5.159   2.174   2.201 -0.8255  0.6307  0.6686
    3CHTO    C4 1240   5.165   2.173   1.917 -0.2662  0.8212  0.4066
    3CHTO   H17 1241   5.069   2.224   1.923 -0.8702 -0.1334 -0.7470
    3CHTO    O1 1242   5.191   2.124   1.786  0.2792  0.5462  0.3432
    3CHTO    C5 1243   5.094   2.033   1.737  0.2069 -0.1592 -0.0177
    3CHTO   H18 1244   4.989   2.056   1.758  0.0143 -1.8368  0.9170
    3CHTO   C16 1245   5.110   2.027   1.588 -0.0501 -0.2905 -0.5392
    3CHTO   O11 1246   5.033   2.129   1.521 -0.1884  0.3875  0.2145
    3CHTO    H5 1247   5.047   2.120   1.429  0.2819 -0.5439  0.3676
    3CHTO    O3 1248   5.276   2.262   1.931  0.3903 -0.2106 -0.1169
    3CHTO    C6 1249   5.243   2.397   1.895 -0.1916  0.7589  0.4726
    3CHTO   H19 1250   5.147   2.404   1.844 -0.2480 -1.3510  0.2452
    3CHTO    C8 1251   5.238   2.493   2.008  0.7401 -0.1106  0.1090
    3CHTO   H21 1252   5.337   2.497   2.055  0.1148  3.0583  1.2946
    3CHTO    O7 1253   5.129   2.449   2.096 -0.5024 -0.2432 -0.2830
    3CHTO    H2 1254   5.160   2.389   2.161 -0.0739  1.5132  1.1729
    3CHTO   C12 1255   5.208   2.635   1.954  0.3168 -0.0417 -0.0668
    3CHTO   H25 1256   5.110   2.634   1.902  0.5464  1.5808 -0.5749
    3CHTO    N3 1257   5.195   2.734   2.062 -0.5365 -0.6891 -0.1064
    3CHTO   H12 1258   5.181   2.834   2.022  0.8274 -2.0137 -4.0365
    3CHTO   H13 1259   5.136   2.703   2.147 -0.4864  0.2172  0.2706
    3CHTO   C15 1260   5.314   2.676   1.849  0.5955  0.0843 -0.3898
    3CHTO   H28 1261   5.411   2.680   1.900  1.1783 -2.3074 -1.2379
    3CHTO   O10 1262   5.286   2.800   1.778 -0.1433 -0.0540  0.0376
    3CHTO    H4 1263   5.195   2.798   1.753 -0.6157  0.6440  1.6621
    3CHTO    O5 1264   5.314   2.578   1.742 -0.5618  0.0058 -0.4275
    3CHTO   C10 1265   5.350   2.450   1.794  0.2005 -0.1150 -0.9497
    3CHTO   H23 1266   5.445   2.462   1.847 -0.6152 -1.7213  0.9690
    3CHTO   C17 1267   5.379   2.364   1.670  0.4347 -0.7101  0.5293
    3CHTO   O12 1268   5.264   2.359   1.582 -0.4256  0.4286  0.1302
    3CHTO    H6 1269   5.268   2.422   1.513  1.3186  0.9819  0.7121
    4CHTO  H203 1270   6.078   9.198   1.284 -2.4150  2.0240  2.8771
    4CHTO   O82 1271   6.144   9.176   1.347 -0.4771  0.4904  0.3729
    4CHTO  C123 1272   6.197   9.040   1.327 -0.2391  0.0950 -0.8595
    4CHTO  H227 1273   6.113   8.975   1.298 -1.2028  0.7574  0.3908
    4CHTO   O77 1274   6.277   9.063   1.211 -0.0882  1.0828  0.2691
    4CHTO  C118 1275   6.376   8.965   1.176 -0.0764  0.1878 -0.3587
    4CHTO  H222 1276   6.326   8.869   1.156  1.3459 -0.8750  1.0699
    4CHTO  C125 1277   6.445   9.005   1.045  0.0670  0.0353 -0.0433
    4CHTO   O84 1278   6.516   9.128   1.035  0.1079  0.2464  0.5874
    4CHTO  H205 1279   6.558   9.127   0.952  0.3357 -1.5244  0.7194
    4CHTO  C114 1280   6.466   8.943   1.294 -0.2605  0.5454 -0.2972
    4CHTO  H218 1281   6.509   9.038   1.326 -0.7925  1.2630 -1.7235
    4CHTO  C116 1282   6.385   8.886   1.419 -0.3780  0.0566  0.9880
    4CHTO  H220 1283   6.331   8.793   1.393  2.5244 -1.8413  1.4654
    4CHTO   O79 1284   6.473   8.870   1.531 -0.2031  0.7887  0.0643
    4CHTO  H201 1285   6.522   8.948   1.550 -1.3241  1.2637  1.0380
    4CHTO  C120 1286   6.276   8.992   1.456 -0.4997 -0.1124  0.0054
    4CHTO  H224 1287   6.333   9.081   1.489 -2.0265  1.3138 -1.1213
    4CHTO   N21 1288   6.183   8.949   1.560 -0.4680 -0.1929 -0.1869
    4CHTO  H211 1289   6.086   8.976   1.521 -0.9522 -0.3023  0.9064
    4CHTO  H212 1290   6.214   9.004   1.648  1.2340 -0.0494 -0.8559
    4CHTO   O75 1291   6.568   8.851   1.257 -0.3435  0.1154 -0.4182
    4CHTO  C112 1292   6.721   8.909   1.276  0.1547  1.1828 -0.1927
    4CHTO  H216 1293   6.728   8.940   1.382  0.9870  2.3783 -0.5874
    4CHTO   O73 1294   6.743   9.023   1.189 -0.0317  0.0694 -0.2448
    4CHTO  C113 1295   6.877   9.076   1.179 -0.2795 -0.1856  0.6073
    4CHTO  H217 1296   6.897   9.135   1.271  1.0131  1.9863 -1.0280
    4CHTO  C124 1297   6.870   9.183   1.065  0.3023  0.5153 -0.1963
    4CHTO   O83 1298   6.979   9.269   1.081  0.2223  0.2920  0.1549
    4CHTO  H204 1299   6.981   9.344   1.024  0.4257  0.3345  0.2165
    4CHTO  C109 1300   6.989   8.969   1.158  0.2648  0.0754 -1.0072
    4CHTO  H213 1301   6.985   8.944   1.051  0.0832  2.3518 -1.5534
    4CHTO  C110 1302   6.965   8.857   1.254  0.1551  1.0353 -0.0073
    4CHTO  H214 1303   6.981   8.893   1.356  0.4644  0.1467  0.2572
    4CHTO   O78 1304   7.067   8.754   1.232 -0.0763  0.2239 -0.4206
    4CHTO  H200 1305   7.103   8.725   1.313 -1.2278  0.5973  0.2416
    4CHTO  C111 1306   6.822   8.798   1.241  0.4207  0.6417  0.6626
    4CHTO  H215 1307   6.806   8.779   1.134  0.4978 -0.0650  0.7757
    4CHTO   N19 1308   6.796   8.680   1.320  0.1233  0.6552  0.1940
    4CHTO  H207 1309   6.744   8.608   1.259  1.3330 -1.8291  1.9785
    4CHTO  H208 1310   6.894   8.638   1.338  0.1259 -0.2746 -1.8598
    4CHTO   O74 1311   7.118   9.028   1.184  0.2953  0.7512 -0.4947
    4CHTO  C115 1312   7.231   8.982   1.066  0.2305 -0.2706  0.4777
    4CHTO  H219 1313   7.198   8.895   1.008 -0.6895  0.3689  0.0264
    4CHTO   O76 1314   7.254   9.093   0.970 -0.5127 -0.8172  0.3965
    4CHTO  C122 1315   7.309   9.209   1.039 -0.0784  0.7579 -0.0802
    4CHTO  H226 1316   7.251   9.236   1.128  0.9180 -0.2488  0.9008
    4CHTO  C126 1317   7.306   9.329   0.934  0.1082 -0.3177 -0.1613
    4CHTO   O85 1318   7.387   9.308   0.828  0.4790  0.2271 -0.4054
    4CHTO  H206 1319   7.476   9.292   0.852  0.5425  0.4359 -0.4939
    4CHTO  C121 1320   7.458   9.174   1.093  0.2144 -0.7362  0.5124
    4CHTO  H225 1321   7.530   9.229   1.029  0.5164 -1.5885  0.1104
    4CHTO   O81 1322   7.480   9.214   1.233 -0.6975 -0.1383  0.0975
    4CHTO  H202 1323   7.405   9.189   1.283 -2.2263 -1.2924 -2.7044
    4CHTO  C119 1324   7.484   9.026   1.075  0.6890  0.4840 -0.0234
    4CHTO  H223 1325   7.480   9.014   0.966  0.7770 -2.6994  0.2662
    4CHTO  C117 1326   7.368   8.938   1.135 -0.9920 -0.3501 -0.1733
    4CHTO  H221 1327   7.362   8.949   1.243 -0.2935 -0.5068 -0.1124
    4CHTO   N20 1328   7.394   8.792   1.112 -0.0703 -0.0846  0.4907
    4CHTO  H209 1329   7.477   8.759   1.172 -0.3373 -0.0178  0.8922
    4CHTO  H210 1330   7.406   8.761   1.009 -0.1399  0.5601  0.2882
    4CHTO   O80 1331   7.643   8.979   1.104  0.3942  0.1843  0.0552
    4CHTO  C103 1332   7.757   9.065   1.038  0.2517 -0.0320 -0.4407
    4CHTO  H190 1333   7.720   9.159   0.997 -1.2121 -0.2996  0.2223
    4CHTO  C101 1334   7.883   9.092   1.125  0.5151 -0.3384  0.5919
    4CHTO  H188 1335   7.919   8.997   1.164  2.3219 -0.3042 -0.9138
    4CHTO   O68 1336   7.836   9.179   1.241 -0.2759 -0.3452  0.0146
    4CHTO  H168 1337   7.758   9.228   1.222  0.3672  0.1024 -1.5391
    4CHTO   C99 1338   8.004   9.160   1.046  0.4457  0.1387  0.3058
    4CHTO  H186 1339   7.977   9.266   1.025 -0.7818 -0.0377  0.9548
    4CHTO   N17 1340   8.135   9.161   1.123 -0.1893  0.3975  0.2106
    4CHTO  H174 1341   8.124   9.195   1.225 -0.0167 -0.1960  0.4260
    4CHTO  H175 1342   8.212   9.223   1.079  1.2539  0.3108  2.5226
    4CHTO   C97 1343   8.027   9.089   0.907  0.3574 -0.2812 -0.0844
    4CHTO  H184 1344   8.084   8.996   0.924  0.6892  0.0933  0.8646
    4CHTO   O64 1345   7.900   9.063   0.849 -0.2767  0.3305  0.2867
    4CHTO  C104 1346   7.804   8.981   0.921 -0.2360  0.1696  0.2114
    4CHTO  H191 1347   7.844   8.886   0.955 -1.8429  0.0267  1.7829
    4CHTO  C108 1348   7.707   8.949   0.802  0.0588 -0.3079 -0.3661
    4CHTO   O71 1349   7.643   9.079   0.766 -0.6448 -0.2964  0.2428
    4CHTO  H171 1350   7.550   9.066   0.774 -0.5052 -0.4879  1.7028
    4CHTO   O62 1351   8.099   9.173   0.818  0.3001  0.5671 -0.6083
    4CHTO   C91 1352   8.146   9.123   0.690  0.6956 -0.0633  0.3336
    4CHTO  H178 1353   8.179   9.021   0.710  1.7521  0.3123  0.5579
    4CHTO   C92 1354   8.282   9.201   0.655 -0.5128  0.1805 -0.1723
    4CHTO  H179 1355   8.347   9.206   0.743 -0.3691  1.5763 -0.3544
    4CHTO   O66 1356   8.352   9.114   0.564 -0.3619 -0.2995  0.0610
    4CHTO  H166 1357   8.347   9.137   0.473 -0.2795 -0.2257  0.0756
    4CHTO   C93 1358   8.268   9.342   0.591 -0.4101  0.4870 -0.2400
    4CHTO  H180 1359   8.355   9.343   0.524  0.5953  2.0460  1.0655
    4CHTO   N16 1360   8.287   9.462   0.687  0.1838  0.7294 -0.0098
    4CHTO  H172 1361   8.219   9.452   0.769  0.7577  1.4010  0.5566
    4CHTO  H173 1362   8.387   9.480   0.725 -0.3096 -0.9178  2.1104
    4CHTO   C94 1363   8.129   9.349   0.510 -0.6207  0.2982  0.3296
    4CHTO  H181 1364   8.047   9.396   0.565 -0.9652  0.3154 -0.1865
    4CHTO   O61 1365   8.086   9.220   0.459 -0.2111 -0.6443 -0.2084
    4CHTO   C95 1366   8.045   9.134   0.569 -0.2760 -0.6012 -0.4382
    4CHTO  H182 1367   7.947   9.171   0.600  0.6540  1.9758 -0.3845
    4CHTO  C106 1368   8.011   8.998   0.516 -0.4876 -0.1966 -0.0443
    4CHTO   O69 1369   8.127   8.922   0.475  0.6385  0.5207 -0.3331
    4CHTO  H169 1370   8.200   8.980   0.468  1.8355 -0.8465  0.5442
    4CHTO   O63 1371   8.165   9.437   0.384 -0.3621  0.6151 -0.2938
    4CHTO   C96 1372   8.039   9.467   0.288  0.0804  0.0866 -0.2873
    4CHTO  H183 1373   7.945   9.421   0.318  1.2829 -1.7597  0.7226
    4CHTO   C98 1374   8.065   9.435   0.144  0.6632 -0.5131  0.0402
    4CHTO  H185 1375   8.164   9.468   0.107  0.4091 -1.1899 -1.2518
    4CHTO   O67 1376   8.072   9.293   0.131 -0.4999  0.3801 -0.5513
    4CHTO  H167 1377   8.162   9.271   0.147 -0.7624 -0.0647  0.3264
    4CHTO  C102 1378   7.955   9.484   0.044 -0.0760  0.4946 -1.1175
    4CHTO  H189 1379   7.877   9.407   0.047  0.8686 -0.4365 -0.1371
    4CHTO   N18 1380   7.992   9.491  -0.102  0.2600  0.1552  0.4373
    4CHTO  H176 1381   8.058   9.410  -0.130 -0.9849 -1.4601  2.0458
    4CHTO  H177 1382   8.047   9.582  -0.120 -1.3999  0.6842 -2.1909
    4CHTO  C105 1383   7.878   9.607   0.088  0.5698 -0.2066  0.6720
    4CHTO  H192 1384   7.864   9.673   0.003  0.4029 -0.1884  0.7123
    4CHTO   O65 1385   7.941   9.685   0.185 -0.1983 -0.3917  0.5330
    4CHTO  C100 1386   8.004   9.626   0.298 -0.3950 -0.4806 -0.2560
    4CHTO  H187 1387   8.102   9.674   0.308  0.9250 -3.1953  0.2171
    4CHTO  C107 1388   7.932   9.660   0.428 -0.2828 -0.3437  0.4363
    4CHTO   O70 1389   7.797   9.610   0.439  0.8630 -0.4882  0.1012
    4CHTO  H170 1390   7.811   9.518   0.453 -0.6775 -0.8972 -0.8880
    4CHTO   O57 1391   7.723   9.559   0.153  0.0023 -0.1357 -0.0192
    4CHTO   C85 1392   7.610   9.586   0.070 -0.3900  0.2273 -0.2003
    4CHTO  H157 1393   7.660   9.602  -0.028 -3.0873  0.8729 -1.5526
    4CHTO   C83 1394   7.538   9.718   0.108 -0.6386 -0.0076 -0.0675
    4CHTO  H155 1395   7.609   9.799   0.096 -1.7529  1.4031  2.4073
    4CHTO   O56 1396   7.509   9.706   0.245  0.5409  0.4155 -0.0336
    4CHTO  H135 1397   7.471   9.786   0.276 -4.7686 -2.4435  1.4281
    4CHTO   C81 1398   7.420   9.738   0.015  0.3980 -0.7799 -0.3691
    4CHTO  H153 1399   7.462   9.749  -0.085  1.1787  1.6792  0.1931
    4CHTO   N14 1400   7.338   9.866   0.039  0.0730  0.4700 -0.1249
    4CHTO  H141 1401   7.232   9.851   0.037  0.3139 -1.5731  1.0786
    4CHTO  H142 1402   7.370   9.918   0.127 -3.9631  0.8776  1.2202
    4CHTO   C79 1403   7.320   9.608   0.010  0.6640  1.1607 -0.7551
    4CHTO  H151 1404   7.240   9.628  -0.061  0.1149 -1.3933 -0.9088
    4CHTO   O52 1405   7.393   9.483  -0.030 -0.5248  0.0055 -0.5122
    4CHTO   C86 1406   7.505   9.467   0.063  0.5103  0.9443 -0.2524
    4CHTO  H158 1407   7.459   9.441   0.161  0.9059  0.8274 -0.0951
    4CHTO   C90 1408   7.588   9.346   0.032  0.1056  0.3583  0.9270
    4CHTO   O60 1409   7.500   9.228   0.037 -0.2991 -0.1048 -0.7073
    4CHTO  H138 1410   7.475   9.209   0.125 -3.7785 -0.8718 -1.7876
    4CHTO   O50 1411   7.251   9.586   0.135 -0.0883  0.4473  0.2690
    4CHTO   C73 1412   7.136   9.528   0.193 -0.4609 -0.5402  0.0308
    4CHTO  H145 1413   7.043   9.566   0.147 -0.0390 -0.0829 -0.4419
    4CHTO   C74 1414   7.129   9.572   0.339  0.1833  0.3730 -0.7891
    4CHTO  H146 1415   7.123   9.682   0.334 -2.1571  0.2302 -1.5298
    4CHTO   O54 1416   7.005   9.530   0.395  0.2223  0.0558  0.6513
    4CHTO  H133 1417   7.025   9.488   0.477 -0.5897  0.6211  1.1488
    4CHTO   C75 1418   7.256   9.521   0.418  0.4305 -0.0666  0.5783
    4CHTO  H147 1419   7.349   9.554   0.371 -0.6994  0.0553 -1.6636
    4CHTO   N13 1420   7.261   9.564   0.562 -0.1144  0.3936  0.4198
    4CHTO  H139 1421   7.317   9.493   0.621 -1.2602 -0.6628  0.2482
    4CHTO  H140 1422   7.160   9.569   0.600 -0.2358  1.5540 -0.0176
    4CHTO   C76 1423   7.253   9.363   0.397  0.3787  0.9949  0.0379
    4CHTO  H148 1424   7.165   9.320   0.445  0.8783 -1.0474 -0.8189
    4CHTO   O49 1425   7.261   9.327   0.255  0.5678  0.2819 -0.2770
    4CHTO   C77 1426   7.142   9.367   0.191 -0.2891 -0.4772  0.7270
    4CHTO  H149 1427   7.056   9.325   0.244 -0.0884 -0.3729  1.1386
    4CHTO   C88 1428   7.143   9.313   0.046 -0.1723  0.2481 -1.1433
    4CHTO   O58 1429   7.021   9.353  -0.024 -0.5375 -0.1650  0.1898
    4CHTO  H136 1430   7.037   9.402  -0.102  0.2080  0.8946  0.9927
    4CHTO   O51 1431   7.390   9.310   0.456  0.1254 -0.2484  0.1532
    4CHTO   C78 1432   7.449   9.164   0.388 -0.0717 -0.1084 -0.0328
    4CHTO  H150 1433   7.456   9.176   0.277  1.7296  0.3226  0.1148
    4CHTO   C80 1434   7.363   9.032   0.415 -0.3336  0.0831 -0.6229
    4CHTO  H152 1435   7.367   9.017   0.525  2.8237  1.5357 -0.4999
    4CHTO   O55 1436   7.235   9.064   0.351  0.1712  0.0406  0.0721
    4CHTO  H134 1437   7.181   8.988   0.361  1.0094 -0.6061 -0.1668
    4CHTO   C84 1438   7.434   8.903   0.350  0.0920  0.1095  0.0678
    4CHTO  H156 1439   7.431   8.931   0.244  0.8903 -2.8766 -0.7954
    4CHTO   N15 1440   7.351   8.781   0.351  0.1618  0.4450  0.4994
    4CHTO  H143 1441   7.246   8.801   0.350 -0.0544 -0.6963 -0.8474
    4CHTO  H144 1442   7.369   8.724   0.440 -1.3126 -0.7171  0.0851
    4CHTO   C87 1443   7.581   8.882   0.407 -0.5732 -0.1715  0.3703
    4CHTO  H159 1444   7.590   8.856   0.513 -1.8382  0.2724  0.6006
    4CHTO   O53 1445   7.652   9.026   0.386 -0.0144  0.2267 -0.1052
    4CHTO   C82 1446   7.592   9.141   0.440 -0.0996 -0.5325  0.1399
    4CHTO  H154 1447   7.587   9.140   0.549 -0.6024 -1.2214  0.1133
    4CHTO   C89 1448   7.689   9.258   0.394 -0.4413 -0.8086 -0.1030
    4CHTO   O59 1449   7.787   9.222   0.292  0.2796 -0.3567 -0.2751
    4CHTO  H137 1450   7.801   9.287   0.225  0.2811 -1.9057 -1.8067
    4CHTO   O45 1451   7.656   8.785   0.313 -0.0813  0.0678 -0.5427
    4CHTO   C67 1452   7.790   8.738   0.343 -0.1769  0.1196  0.2965
    4CHTO  H124 1453   7.856   8.824   0.351 -0.9878  0.7131  0.7191
    4CHTO   C65 1454   7.801   8.657   0.485 -0.9566 -0.3740  1.3713
    4CHTO  H122 1455   7.760   8.720   0.565  0.4121  0.1843  1.6472
    4CHTO   O44 1456   7.945   8.651   0.519  0.5211  0.0837  0.4657
    4CHTO  H102 1457   7.989   8.605   0.450 -2.5243 -1.0666 -0.8053
    4CHTO   C63 1458   7.724   8.523   0.481 -0.3211  0.0832  0.6245
    4CHTO  H120 1459   7.627   8.542   0.435  0.6296  0.3804 -1.3224
    4CHTO   N11 1460   7.693   8.455   0.606  0.4218  0.6313 -0.4339
    4CHTO  H108 1461   7.629   8.372   0.586  1.1117  0.1030 -0.4758
    4CHTO  H109 1462   7.640   8.511   0.680  0.6834  1.0309 -0.5467
    4CHTO   C61 1463   7.790   8.430   0.371 -0.2691 -0.6991 -0.0602
    4CHTO  H118 1464   7.715   8.353   0.348 -1.8284  0.1293  2.0903
    4CHTO   O40 1465   7.814   8.497   0.245  0.2545  0.3276 -0.4357
    4CHTO   C68 1466   7.839   8.637   0.224  0.4279  0.6999  0.1226
    4CHTO  H125 1467   7.784   8.660   0.130 -1.8208 -0.9010  0.9899
    4CHTO   C72 1468   7.989   8.660   0.191 -0.2833  0.1586  0.4922
    4CHTO   O48 1469   8.009   8.799   0.144  0.0769 -0.1107  0.1499
    4CHTO  H105 1470   7.987   8.808   0.053  0.8649  0.1228 -0.0194
    4CHTO   O38 1471   7.903   8.362   0.420  0.0243  0.1291  0.0079
    4CHTO   C55 1472   7.928   8.231   0.370 -0.2015 -1.2016 -0.4262
    4CHTO  H112 1473   7.874   8.219   0.275  1.9509 -2.4805 -1.5313
    4CHTO   C56 1474   7.882   8.131   0.479  0.0883  0.8163 -0.1568
    4CHTO  H113 1475   7.937   8.152   0.572  0.0257 -1.4411  0.4369
    4CHTO   O42 1476   7.744   8.154   0.511 -0.5386  0.2617  0.0792
    4CHTO  H100 1477   7.684   8.109   0.454  0.6717 -0.7299 -0.4301
    4CHTO   C57 1478   7.906   7.981   0.451 -0.6580  0.7294  0.1503
    4CHTO  H114 1479   7.840   7.940   0.374 -0.3905  0.6527 -0.0373
    4CHTO   N10 1480   7.879   7.894   0.573 -0.7006  0.7064  0.3835
    4CHTO  H106 1481   7.836   7.808   0.525  2.1667 -0.6276  0.0986
    4CHTO  H107 1482   7.806   7.942   0.636 -0.6589 -1.0956  1.8357
    4CHTO   C58 1483   8.058   7.956   0.404  0.7081  0.0260  0.2870
    4CHTO  H115 1484   8.129   7.958   0.490  0.6001  1.1963  0.3585
    4CHTO   O37 1485   8.104   8.063   0.315 -0.6436  0.3632  0.0834
    4CHTO   C59 1486   8.089   8.201   0.352  0.3255 -0.2169 -0.7195
    4CHTO  H116 1487   8.138   8.228   0.446 -0.1108  2.0708 -1.1087
    4CHTO   C70 1488   8.144   8.280   0.228  0.0453  0.0640  0.4316
    4CHTO   O46 1489   8.287   8.259   0.219  0.3487 -0.0132 -0.3115
    4CHTO  H103 1490   8.331   8.305   0.150 -0.0125  1.5472  0.4875
    4CHTO   O39 1491   8.075   7.820   0.324  0.5413 -0.6188 -0.1138
    4CHTO   C60 1492   8.001   7.804   0.204 -0.4194  0.8201 -1.3497
    4CHTO  H117 1493   7.894   7.816   0.221 -0.1818  1.6778 -0.4022
    4CHTO   C62 1494   8.031   7.900   0.095 -0.3972  0.1605  0.0191
    4CHTO  H119 1495   7.978   7.993   0.124  1.6213  1.1544  0.5697
    4CHTO   O43 1496   8.176   7.923   0.078 -0.2382  0.2121  0.7644
    4CHTO  H101 1497   8.189   7.992   0.015  0.6269 -1.7889 -1.3398
    4CHTO   C66 1498   7.962   7.870  -0.051  0.4769  0.4059  0.6735
    4CHTO  H123 1499   7.854   7.867  -0.040  0.3276 -0.9546 -0.8876
    4CHTO   N12 1500   7.989   7.970  -0.155 -0.1444  0.0695 -0.1009
    4CHTO  H110 1501   7.909   7.970  -0.226 -0.6999  0.0156  0.5162
    4CHTO  H111 1502   8.078   7.936  -0.206 -0.8446 -0.4569 -0.9919
    4CHTO   C69 1503   7.995   7.720  -0.086 -0.6078  0.0071  0.1134
    4CHTO  H126 1504   8.103   7.701  -0.099 -0.6061 -0.9358  1.4356
    4CHTO   O41 1505   7.933   7.630   0.027 -0.5314 -0.2110  0.8000
    4CHTO   C64 1506   8.015   7.655   0.159  0.3142  0.0306  0.0690
    4CHTO  H121 1507   8.122   7.639   0.135  0.4310 -1.3610  1.4707
    4CHTO   C71 1508   7.967   7.547   0.262  0.1194  0.0334 -0.3106
    4CHTO   O47 1509   7.821   7.533   0.279  0.1828 -0.1019 -0.1856
    4CHTO  H104 1510   7.776   7.601   0.233 -1.4327 -0.9693  0.0908
    4CHTO   O34 1511   7.921   7.688  -0.233 -0.3339 -0.5113 -0.2491
    4CHTO   C49 1512   7.970   7.551  -0.320  0.4354 -0.1688 -0.6490
    4CHTO   H91 1513   8.013   7.584  -0.414 -1.0132 -1.1304 -1.6717
    4CHTO   C47 1514   7.845   7.473  -0.362 -0.3426 -0.0903  0.3809
    4CHTO   H89 1515   7.872   7.380  -0.416 -0.3345  0.0172  0.2003
    4CHTO   O33 1516   7.769   7.562  -0.448  0.1162  0.2668  0.2939
    4CHTO   H70 1517   7.684   7.527  -0.467 -1.4891  2.6622  2.6847
    4CHTO   C45 1518   7.770   7.422  -0.229 -0.8545 -0.4303  0.5196
    4CHTO   H87 1519   7.760   7.513  -0.168  0.5257 -0.0197  0.1282
    4CHTO    N8 1520   7.631   7.373  -0.245 -0.0707  0.1491  0.0560
    4CHTO   H75 1521   7.566   7.450  -0.285 -0.6771 -0.4643 -0.1446
    4CHTO   H76 1522   7.587   7.343  -0.151  0.3079 -3.1614 -0.7535
    4CHTO   C43 1523   7.861   7.325  -0.156  0.0262  0.0101 -0.5276
    4CHTO   H85 1524   7.805   7.304  -0.065  1.0744  1.6966  0.5349
    4CHTO   O29 1525   7.993   7.381  -0.130 -0.2594 -0.3496  0.3003
    4CHTO   C50 1526   8.062   7.448  -0.240 -0.0712  0.8569  0.3024
    4CHTO   H92 1527   8.132   7.508  -0.179  0.7249  0.7285 -0.4755
    4CHTO   C54 1528   8.154   7.366  -0.340  0.3740 -0.1026 -0.1878
    4CHTO   O36 1529   8.252   7.301  -0.267  0.5322  0.3379 -0.3567
    4CHTO   H72 1530   8.325   7.286  -0.323  1.4614 -0.0752  0.9367
    4CHTO   O27 1531   7.880   7.203  -0.230 -0.0354 -0.8646 -0.3599
    4CHTO   C37 1532   7.905   7.060  -0.210 -0.1443 -0.1697  0.4662
    4CHTO   H79 1533   7.965   7.016  -0.291  1.2669  0.5034  1.1162
    4CHTO   C38 1534   7.994   7.037  -0.084  1.0177  0.2050 -1.0996
    4CHTO   H80 1535   7.957   7.105  -0.005  2.5937 -1.1139  0.8274
    4CHTO   O31 1536   8.119   7.090  -0.116 -0.7646 -0.5588 -0.1482
    4CHTO   H68 1537   8.166   7.110  -0.037  0.7240  1.6714 -1.5231
    4CHTO   C39 1538   8.005   6.891  -0.028  0.2754  0.3382 -0.0363
    4CHTO   H81 1539   8.065   6.853  -0.111 -1.0406  0.0064 -0.8613
    4CHTO    N7 1540   8.077   6.885   0.103  0.0001  0.3414  0.2482
    4CHTO   H73 1541   8.024   6.831   0.180 -0.7283 -0.8546 -1.0683
    4CHTO   H74 1542   8.174   6.843   0.083 -0.9099 -1.6380 -0.1281
    4CHTO   C40 1543   7.870   6.813  -0.033  0.3017 -1.4010  0.1684
    4CHTO   H82 1544   7.815   6.861   0.048  0.3655  0.4422 -0.8480
    4CHTO   O26 1545   7.807   6.838  -0.161  0.0515 -1.3776 -0.3953
    4CHTO   C41 1546   7.773   6.983  -0.192 -0.0912 -0.3610  0.2590
    4CHTO   H83 1547   7.712   7.031  -0.114  2.0956  0.2419  1.6473
    4CHTO   C52 1548   7.684   6.986  -0.325 -0.3617  0.3833 -0.3677
    4CHTO   O35 1549   7.576   6.910  -0.314  0.1206  0.5353 -0.0276
    4CHTO   H71 1550   7.545   6.873  -0.395  0.6196 -2.4725  1.0906
    4CHTO   O28 1551   7.889   6.668  -0.014  0.2564 -0.7259 -0.5771
    4CHTO   C42 1552   7.782   6.594   0.045 -0.0424  0.4350  0.2131
    4CHTO   H84 1553   7.802   6.493   0.009  1.8611  0.5909  0.7376
    4CHTO   C44 1554   7.635   6.625  -0.004 -0.2668 -0.3332  0.3451
    4CHTO   H86 1555   7.603   6.727   0.020  0.7520  0.0043  0.2660
    4CHTO   O32 1556   7.646   6.586  -0.149 -0.2560 -0.3117  0.3526
    4CHTO   H69 1557   7.563   6.611  -0.185 -0.1061  2.2399  1.6297
    4CHTO   C48 1558   7.529   6.533   0.070  0.4934 -0.0579  0.1940
    4CHTO   H90 1559   7.570   6.437   0.041  2.4030  1.7044 -3.2180
    4CHTO    N9 1560   7.387   6.559   0.020 -0.4218 -0.6100 -0.4859
    4CHTO   H77 1561   7.385   6.544  -0.087  2.5345 -2.6018 -0.3084
    4CHTO   H78 1562   7.302   6.513   0.069  0.9044 -0.9999  1.4777
    4CHTO   C51 1563   7.539   6.558   0.226 -0.1096  0.0166  0.5872
    4CHTO   H93 1564   7.525   6.665   0.240  2.4969  0.8058 -2.2919
    4CHTO   O30 1565   7.667   6.518   0.273 -0.3273  0.0961 -0.0164
    4CHTO   C46 1566   7.796   6.594   0.197  0.4012  0.2906 -0.3495
    4CHTO   H88 1567   7.807   6.696   0.233  1.1433  1.0859 -2.7354
    4CHTO   C53 1568   7.922   6.510   0.236 -0.2947  0.2000  0.4178
    4CHTO   O72 1569   7.981   6.538   0.364  0.1032 -0.8373  0.2100
    4CHTO  H199 1570   8.028   6.459   0.385  0.6461 -1.0268 -1.6750
    4CHTO   O22 1571   7.442   6.487   0.312  0.0101 -0.1435  0.2935
    4CHTO   C31 1572   7.419   6.526   0.460  0.5812  0.0938 -0.4575
    4CHTO   H59 1573   7.517   6.566   0.496  0.2501 -1.4411  2.2530
    4CHTO   C29 1574   7.315   6.634   0.478 -0.2769  0.2999  0.3031
    4CHTO   H57 1575   7.228   6.595   0.423 -0.5310 -3.5113  3.1195
    4CHTO   O21 1576   7.370   6.749   0.420 -0.4687 -0.3194 -0.1031
    4CHTO   H37 1577   7.306   6.793   0.367 -0.9025  1.6705  2.0038
    4CHTO   C27 1578   7.269   6.657   0.629  0.0436 -0.7413  0.1475
    4CHTO   H55 1579   7.352   6.699   0.688 -2.1638  2.6428  0.9444
    4CHTO    N5 1580   7.153   6.739   0.641  0.5506  0.3151  0.0383
    4CHTO   H43 1581   7.164   6.814   0.718 -0.4472  0.5513 -0.0500
    4CHTO   H44 1582   7.131   6.786   0.547  0.2256 -3.7009 -1.9772
    4CHTO   C25 1583   7.244   6.509   0.688  0.2395 -0.0798  0.5581
    4CHTO   H53 1584   7.162   6.455   0.639  0.8753 -0.2191 -0.3514
    4CHTO   O17 1585   7.369   6.432   0.681 -0.0407 -0.5131  0.4499
    4CHTO   C32 1586   7.396   6.396   0.541  0.2886  0.9142 -0.4607
    4CHTO   H60 1587   7.303   6.354   0.503  0.0821  0.2116  0.8017
    4CHTO   C36 1588   7.519   6.297   0.547  0.0909  0.4634  0.0238
    4CHTO   O25 1589   7.630   6.359   0.605 -0.6462  0.1366 -0.5808
    4CHTO   H40 1590   7.698   6.297   0.620  0.3463  1.6927  1.6446
    4CHTO   O15 1591   7.210   6.525   0.846  0.1594 -0.1049  0.2043
    4CHTO   C19 1592   7.283   6.565   0.963  0.6359 -0.3128 -0.4299
    4CHTO   H47 1593   7.247   6.500   1.044  2.2269 -2.6311 -1.5221
    4CHTO   C20 1594   7.439   6.541   0.956 -1.2239 -0.5393  0.0594
    4CHTO   H48 1595   7.486   6.585   0.867 -0.4751  0.9487  1.1543
    4CHTO   O19 1596   7.464   6.405   0.927 -0.1446  0.1952  0.0145
    4CHTO   H35 1597   7.552   6.396   0.896 -0.2221 -3.4464  0.6549
    4CHTO   C21 1598   7.513   6.602   1.077  0.1213 -0.1880  0.3261
    4CHTO   H49 1599   7.483   6.552   1.169  0.9044 -0.3092  0.5146
    4CHTO    N4 1600   7.666   6.590   1.077  0.2703  0.4922 -0.1737
    4CHTO   H41 1601   7.688   6.504   1.138  0.3519 -0.5575 -1.6338
    4CHTO   H42 1602   7.701   6.566   0.977 -0.0533  1.2375 -0.4724
    4CHTO   C22 1603   7.468   6.751   1.097  0.2385  0.5266 -0.4425
    4CHTO   H50 1604   7.500   6.803   1.006 -2.3070  3.2879  0.1577
    4CHTO   O14 1605   7.328   6.750   1.121  0.7059  0.1392  0.3108
    4CHTO   C23 1606   7.248   6.713   1.003 -0.1559  0.7237 -0.8880
    4CHTO   H51 1607   7.258   6.781   0.918  1.6098 -2.5608 -3.4196
    4CHTO   C34 1608   7.097   6.735   1.026 -0.7901 -0.0571 -0.1421
    4CHTO   O23 1609   7.027   6.644   1.117  0.2434 -0.3610  0.2531
    4CHTO   H38 1610   6.939   6.677   1.121  1.0442  1.6456  2.1971
    4CHTO   O16 1611   7.526   6.815   1.210  0.4852 -0.1568 -0.2630
    4CHTO   C24 1612   7.559   6.975   1.183 -0.3869  0.3969 -0.3589
    4CHTO   H52 1613   7.494   7.012   1.103  0.5291 -0.1731 -1.3762
    4CHTO   C26 1614   7.708   6.992   1.164 -0.3938  0.7539  0.4241
    4CHTO   H54 1615   7.756   6.938   1.248  0.0308 -2.2602 -1.6472
    4CHTO   O20 1616   7.740   6.925   1.045  0.4250 -0.0181  0.3222
    4CHTO   H36 1617   7.831   6.940   1.026 -0.4820  1.2599 -3.3227
    4CHTO   C30 1618   7.756   7.135   1.150 -0.4353 -0.0615 -0.0977
    4CHTO   H58 1619   7.725   7.173   1.051  0.1024  0.2351 -0.1513
    4CHTO    N6 1620   7.902   7.159   1.145  1.3340  0.0157 -0.3212
    4CHTO   H45 1621   7.951   7.064   1.157  2.8189  0.5898 -1.7372
    4CHTO   H46 1622   7.934   7.193   1.048 -0.8284  1.1439 -0.6797
    4CHTO   C33 1623   7.684   7.226   1.257  0.0516  0.6001 -0.1703
    4CHTO   H61 1624   7.729   7.206   1.355 -3.8761 -0.9443  1.4221
    4CHTO   O18 1625   7.549   7.194   1.270  0.0438 -0.3836  0.2007
    4CHTO   C28 1626   7.524   7.057   1.305 -0.0787 -0.3381 -0.0994
    4CHTO   H56 1627   7.591   7.023   1.385  1.4897  1.2499 -0.7064
    4CHTO   C35 1628   7.377   7.036   1.358  0.4921 -0.5957  0.0849
    4CHTO   O24 1629   7.346   7.105   1.480 -0.3315 -0.2638  0.3724
    4CHTO   H39 1630   7.294   7.051   1.536 -0.0483  1.7284  2.5810
    4CHTO    O9 1631   7.702   7.368   1.230  0.0537  0.4937  0.4108
    4CHTO   C13 1632   7.759   7.453   1.369 -0.9551 -0.0606 -0.7994
    4CHTO   H26 1633   7.849   7.398   1.403 -1.9034  0.1970  2.2929
    4CHTO   C11 1634   7.650   7.462   1.487 -0.4347  0.1618 -0.3645
    4CHTO   H24 1635   7.617   7.362   1.519 -0.0333  0.5191  1.1870
    4CHTO    O8 1636   7.527   7.522   1.443  0.1833 -0.1769 -0.6041
    4CHTO    H3 1637   7.454   7.516   1.501  1.6081  2.6758  1.6158
    4CHTO    C9 1638   7.720   7.531   1.609  1.1211  0.3084 -0.4432
    4CHTO   H22 1639   7.812   7.477   1.635  2.2511  3.8051  3.3508
    4CHTO    N2 1640   7.643   7.540   1.734 -0.0162 -0.5968 -0.8364
    4CHTO   H10 1641   7.694   7.583   1.818  0.5641  1.5220 -2.2459
    4CHTO   H11 1642   7.619   7.437   1.757  1.2724 -0.4856  1.0377
    4CHTO    C7 1643   7.767   7.674   1.566  0.1658  0.2953  0.5764
    4CHTO   H20 1644   7.830   7.719   1.645 -1.4953  1.2573  1.3882
    4CHTO    O4 1645   7.847   7.678   1.446  0.7658 -0.3444 -0.1246
    4CHTO   C14 1646   7.807   7.599   1.322 -0.6821  0.0392 -0.3392
    4CHTO   H27 1647   7.902   7.578   1.270 -0.9349 -0.1644 -0.7221
    4CHTO   C18 1648   7.721   7.684   1.218  0.7574  0.0016  0.9036
    4CHTO   O13 1649   7.735   7.635   1.081 -0.4687 -0.1192 -0.1610
    4CHTO    H7 1650   7.674   7.569   1.055  0.3578 -0.4281 -1.4085
    4CHTO    O2 1651   7.612   7.773   1.535 -0.2016  0.2642 -0.3135
    4CHTO    C1 1652   7.622   7.915   1.571 -0.3206  0.1444  0.6560
    4CHTO   H14 1653   7.724   7.952   1.546 -1.0525  1.5371 -0.3220
    4CHTO    C2 1654   7.600   7.927   1.730 -1.4683  0.6605  0.3302
    4CHTO   H15 1655   7.516   7.857   1.745 -2.3495  2.0559  2.0865
    4CHTO    O6 1656   7.721   7.889   1.801 -0.2515 -0.7421 -0.0245
    4CHTO    H1 1657   7.782   7.960   1.811  1.3140 -2.0513 -0.0770
    4CHTO    C3 1658   7.559   8.067   1.774  0.0319 -0.4066  0.0542
    4CHTO   H16 1659   7.652   8.125   1.779 -0.6812  0.9756 -2.3572
    4CHTO    N1 1660   7.501   8.060   1.910 -1.2334  0.8762 -0.5643
    4CHTO    H8 1661   7.566   8.017   1.984  0.2462  3.6469 -0.1877
    4CHTO    H9 1662   7.465   8.156   1.943  0.9877  0.7427  2.4249
    4CHTO    C4 1663   7.469   8.149   1.671 -0.1871  0.5786 -0.6626
    4CHTO   H17 1664   7.366   8.112   1.671 -0.4699  1.3573 -0.0482
    4CHTO    O1 1665   7.521   8.141   1.540 -0.0018 -0.5587 -0.5083
    4CHTO    C5 1666   7.522   8.005   1.491  0.3499  0.3147  0.4524
    4CHTO   H18 1667   7.420   7.970   1.509  0.8571 -0.6395  1.5340
    4CHTO   C16 1668   7.544   7.994   1.334 -0.6186  0.1428 -0.1271
    4CHTO   O11 1669   7.448   8.065   1.274 -0.2337 -0.1468 -0.1097
    4CHTO    H5 1670   7.373   8.009   1.272 -0.8639  0.7021 -0.4692
    4CHTO    O3 1671   7.474   8.287   1.699 -0.4880  0.6298  0.2813
    4CHTO    C6 1672   7.345   8.357   1.667 -0.6713 -0.3604  0.0963
    4CHTO   H19 1673   7.283   8.296   1.601  1.9547 -3.4024  0.2970
    4CHTO    C8 1674   7.264   8.390   1.801  0.6565  0.4696  0.5490
    4CHTO   H21 1675   7.328   8.444   1.870  1.2022  0.1535  0.2898
    4CHTO    O7 1676   7.216   8.263   1.857  0.6823 -0.5095 -0.2023
    4CHTO    H2 1677   7.261   8.236   1.934  1.9758  2.1710  0.0635
    4CHTO   C12 1678   7.145   8.486   1.764 -0.5017  0.5243  0.2398
    4CHTO   H25 1679   7.050   8.439   1.732 -1.2867  1.2473  1.4856
    4CHTO    N3 1680   7.083   8.540   1.889  0.3138 -0.4238  0.3970
    4CHTO   H12 1681   7.052   8.455   1.949  1.7673 -0.7219  0.7558
    4CHTO   H13 1682   7.150   8.614   1.931 -1.7307  1.7005  0.0008
    4CHTO   C15 1683   7.188   8.597   1.656 -0.3263  0.0265  0.4793
    4CHTO   H28 1684   7.248   8.674   1.704  0.6181 -0.1558 -0.4024
    4CHTO   O10 1685   7.057   8.663   1.601  0.1747 -0.6420 -0.2420
    4CHTO    H4 1686   7.023   8.731   1.655 -0.9163 -2.2736  1.1932
    4CHTO    O5 1687   7.260   8.546   1.542  0.0989 -0.8798 -0.3240
    4CHTO   C10 1688   7.379   8.489   1.589  0.0048 -0.1844  0.3852
    4CHTO   H23 1689   7.429   8.560   1.656 -1.6823 -0.5588  2.0963
    4CHTO   C17 1690   7.465   8.469   1.466  0.0768  0.1841  0.3026
    4CHTO   O12 1691   7.503   8.593   1.410  0.1785  0.0938  0.0752
    4CHTO    H6 1692   7.449   8.617   1.337  1.8265 -0.4220 -1.3766
    5CHTO  H203 1693   7.205   3.524   4.098  1.0159 -0.3071 -0.7110
    5CHTO   O82 1694   7.242   3.602   4.061  0.2841  0.7506  0.7303
    5CHTO  C123 1695   7.282   3.701   4.164 -0.4403 -1.1224 -0.3554
    5CHTO  H227 1696   7.391   3.715   4.164 -0.6210  0.3661  0.0990
    5CHTO   O77 1697   7.224   3.820   4.112 -0.0414 -0.1471  0.0121
    5CHTO  C118 1698   7.226   3.939   4.191 -0.2704 -0.2009 -0.2273
    5CHTO  H222 1699   7.324   3.988   4.194 -1.7203  2.8714 -0.5255
    5CHTO  C125 1700   7.134   4.030   4.108 -0.5620  0.0644 -0.0392
    5CHTO   O84 1701   7.140   4.163   4.145  0.1806 -0.9252 -0.6391
    5CHTO  H205 1702   7.223   4.196   4.118  0.2092 -1.9725 -1.8754
    5CHTO  C114 1703   7.179   3.906   4.336  1.2086  0.4305  0.6524
    5CHTO  H218 1704   7.072   3.887   4.332  1.5739 -1.9365  1.6966
    5CHTO  C116 1705   7.244   3.781   4.404 -0.3606  1.0842 -0.4497
    5CHTO  H220 1706   7.353   3.795   4.419 -0.3860 -0.0069  0.8899
    5CHTO   O79 1707   7.177   3.767   4.532  0.0540 -0.3153 -0.2786
    5CHTO  H201 1708   7.179   3.678   4.562 -1.0025 -0.6618 -1.1811
    5CHTO  C120 1709   7.220   3.654   4.302  0.5448  0.2007  0.4934
    5CHTO  H224 1710   7.111   3.638   4.294  0.7817 -1.1660 -0.0357
    5CHTO   N21 1711   7.268   3.518   4.352 -0.3996 -0.2730 -0.3200
    5CHTO  H211 1712   7.273   3.511   4.460 -0.0230  0.1696 -0.3086
    5CHTO  H212 1713   7.205   3.438   4.316  0.5097 -1.3298  0.4041
    5CHTO   O75 1714   7.201   4.032   4.404  0.2883  0.3520  0.4761
    5CHTO  C112 1715   7.066   4.091   4.493 -0.8609  0.4734  0.2055
    5CHTO  H216 1716   7.016   4.004   4.538 -1.3215  1.2841  1.2947
    5CHTO   O73 1717   6.980   4.158   4.394  0.1653  0.1517  0.8509
    5CHTO  C113 1718   6.852   4.190   4.444  0.2923 -0.5972 -0.6001
    5CHTO  H217 1719   6.797   4.095   4.463 -0.0519 -0.4336 -0.7788
    5CHTO  C124 1720   6.776   4.268   4.334 -0.8140 -0.1736 -0.1490
    5CHTO   O83 1721   6.756   4.197   4.213  0.3217  0.1642  0.5711
    5CHTO  H204 1722   6.843   4.166   4.196  0.1946  0.5320 -0.7561
    5CHTO  C109 1723   6.861   4.283   4.572  0.3991  0.2502  0.0966
    5CHTO  H213 1724   6.877   4.385   4.533  2.5718 -0.6016 -1.3818
    5CHTO  C110 1725   6.984   4.251   4.659  0.6003  0.0478 -0.2894
    5CHTO  H214 1726   6.951   4.174   4.728 -0.2049  1.6352  1.1447
    5CHTO   O78 1727   7.018   4.372   4.740 -0.1220 -0.4604 -0.2934
    5CHTO  H200 1728   6.981   4.370   4.826  0.3107 -0.6870 -0.1106
    5CHTO  C111 1729   7.109   4.194   4.595  0.2991 -0.2032  0.2917
    5CHTO  H215 1730   7.158   4.280   4.545 -1.2287  0.2828 -0.4007
    5CHTO   N19 1731   7.210   4.136   4.691 -0.3915  0.3441  0.1942
    5CHTO  H207 1732   7.258   4.203   4.760  1.0242  0.6386 -1.0404
    5CHTO  H208 1733   7.298   4.098   4.640  0.3505  2.8507 -0.4958
    5CHTO   O74 1734   6.741   4.278   4.643  0.2266  0.2576  0.0104
    5CHTO  C115 1735   6.686   4.427   4.672  0.5634 -0.5693  0.3875
    5CHTO  H219 1736   6.767   4.495   4.695  0.5764 -0.1193 -0.9757
    5CHTO   O76 1737   6.622   4.484   4.553 -0.0435  0.7266 -0.3515
    5CHTO  C122 1738   6.549   4.610   4.569 -0.8614 -0.0488  0.2068
    5CHTO  H226 1739   6.497   4.624   4.474 -1.0625  2.2756  0.6258
    5CHTO  C126 1740   6.650   4.734   4.586  0.1337 -0.1836  0.4790
    5CHTO   O85 1741   6.729   4.769   4.472  0.1586 -0.1516  0.0904
    5CHTO  H206 1742   6.685   4.814   4.402  0.3705 -1.2280 -0.7565
    5CHTO  C121 1743   6.441   4.595   4.677  0.9850  0.2642 -0.0220
    5CHTO  H225 1744   6.394   4.695   4.686  1.6634  0.3579  3.3068
    5CHTO   O81 1745   6.339   4.501   4.633 -0.3670 -0.2929 -0.6207
    5CHTO  H202 1746   6.275   4.490   4.701 -0.1932 -1.2872 -0.6020
    5CHTO  C119 1747   6.507   4.560   4.812 -0.2284 -0.2927 -0.9771
    5CHTO  H223 1748   6.590   4.629   4.828 -1.2968  0.6892  0.5404
    5CHTO  C117 1749   6.580   4.424   4.790 -0.2073 -0.3880 -0.0229
    5CHTO  H221 1750   6.517   4.339   4.763 -1.2330  1.1003 -2.5291
    5CHTO   N20 1751   6.653   4.388   4.912 -0.6545  0.1885  0.8532
    5CHTO  H209 1752   6.745   4.340   4.884 -0.5765  0.1816  1.1162
    5CHTO  H210 1753   6.584   4.319   4.958 -1.6855 -0.2940 -1.3743
    5CHTO   O80 1754   6.413   4.581   4.952  0.3771 -0.4618  0.1334
    5CHTO  C103 1755   6.279   4.522   4.957  0.5634 -0.4937 -0.4359
    5CHTO  H190 1756   6.242   4.525   4.854 -0.4190  0.6485 -0.0555
    5CHTO  C101 1757   6.256   4.374   5.020 -0.6587 -0.0885  0.1821
    5CHTO  H188 1758   6.325   4.359   5.103  0.7804 -0.9609 -1.1698
    5CHTO   O68 1759   6.300   4.269   4.888 -0.5455  0.3098  0.0357
    5CHTO  H168 1760   6.233   4.258   4.824  0.1981  1.7515 -1.0108
    5CHTO   C99 1761   6.103   4.342   5.067 -0.6089 -0.1823  0.0468
    5CHTO  H186 1762   6.036   4.343   4.978 -0.7027  1.3946  0.1140
    5CHTO   N17 1763   6.079   4.205   5.135 -0.2488  0.4234 -0.1094
    5CHTO  H174 1764   6.025   4.148   5.060 -0.7735  0.9225 -0.1116
    5CHTO  H175 1765   6.172   4.157   5.164  0.7381  2.4515  0.1647
    5CHTO   C97 1766   6.061   4.465   5.148  0.4058  0.2179 -0.0977
    5CHTO  H184 1767   6.129   4.480   5.234  1.0898 -0.4183 -0.5257
    5CHTO   O64 1768   6.063   4.582   5.060  0.2837 -0.1758  0.7400
    5CHTO  C104 1769   6.196   4.629   5.042 -0.5530 -0.0727 -0.2943
    5CHTO  H191 1770   6.252   4.655   5.132 -1.5412  0.5791  0.1421
    5CHTO  C108 1771   6.201   4.767   4.967 -0.1440 -0.2883  0.3134
    5CHTO   O71 1772   6.318   4.842   4.940  0.1341  0.0247 -0.0871
    5CHTO  H171 1773   6.336   4.916   4.994  2.9994  2.1150 -3.6041
    5CHTO   O62 1774   5.929   4.458   5.203 -0.2035 -0.2236 -0.4783
    5CHTO   C91 1775   5.805   4.494   5.141 -0.0712 -0.4840  0.2987
    5CHTO  H178 1776   5.811   4.598   5.108  1.3935 -0.1033  1.7260
    5CHTO   C92 1777   5.697   4.490   5.252  0.2134  1.0188 -0.6058
    5CHTO  H179 1778   5.720   4.544   5.345  0.6364 -0.8053  0.3673
    5CHTO   O66 1779   5.572   4.553   5.195  0.3564  0.0612  1.0332
    5CHTO  H166 1780   5.491   4.509   5.207 -1.1711  2.1879 -0.9512
    5CHTO   C93 1781   5.665   4.343   5.298 -0.2784 -0.0330 -0.0633
    5CHTO  H180 1782   5.564   4.358   5.338  0.0266  0.7702  0.4143
    5CHTO   N16 1783   5.757   4.289   5.401  0.1053  0.0927 -0.4517
    5CHTO  H172 1784   5.835   4.355   5.438 -0.4827  0.5951 -0.0853
    5CHTO  H173 1785   5.806   4.202   5.362  1.7115  1.0705 -0.6790
    5CHTO   C94 1786   5.655   4.247   5.171  0.3681  0.3886  0.1791
    5CHTO  H181 1787   5.748   4.193   5.153 -0.0415 -0.5609  0.8760
    5CHTO   O61 1788   5.652   4.313   5.045 -0.1247 -0.6610 -0.8024
    5CHTO   C95 1789   5.755   4.405   5.013 -0.6544  0.4893 -0.1594
    5CHTO  H182 1790   5.844   4.356   4.972 -0.3951  1.6373 -0.9748
    5CHTO  C106 1791   5.707   4.504   4.907 -0.4476  0.0750 -0.3235
    5CHTO   O69 1792   5.670   4.429   4.786 -0.0466  0.1145 -0.4082
    5CHTO  H169 1793   5.748   4.390   4.751 -0.1149 -0.3773 -0.0171
    5CHTO   O63 1794   5.514   4.154   5.181  0.9480  0.1915 -0.4367
    5CHTO   C96 1795   5.524   4.024   5.094  0.2301  0.0604 -0.1393
    5CHTO  H183 1796   5.585   4.046   5.006 -0.9603 -1.7997 -1.4803
    5CHTO   C98 1797   5.379   3.977   5.041 -0.0502 -0.1715  0.1195
    5CHTO  H185 1798   5.311   4.062   5.022  0.9016  0.1808 -1.8465
    5CHTO   O67 1799   5.395   3.909   4.919 -0.1082 -0.0281  0.2305
    5CHTO  H167 1800   5.470   3.854   4.923 -0.8151 -0.9922  0.5926
    5CHTO  C102 1801   5.315   3.866   5.140 -0.3573 -0.2069 -0.5626
    5CHTO  H189 1802   5.233   3.812   5.090  1.5268 -3.2657 -0.5385
    5CHTO   N18 1803   5.251   3.922   5.266  0.0997 -0.5730  0.0062
    5CHTO  H176 1804   5.292   4.017   5.297  0.3111 -0.6525 -0.0237
    5CHTO  H177 1805   5.243   3.860   5.353  1.8153 -0.4709  0.2583
    5CHTO  C105 1806   5.422   3.752   5.173 -0.3783 -0.1936 -0.2398
    5CHTO  H192 1807   5.385   3.676   5.241  1.0346 -0.6099  0.0812
    5CHTO   O65 1808   5.535   3.812   5.232  0.2603  0.3691  0.0420
    5CHTO  C100 1809   5.605   3.920   5.171  0.0037 -0.3335 -0.2398
    5CHTO  H187 1810   5.649   3.969   5.259 -0.9167  0.7630 -0.3765
    5CHTO  C107 1811   5.713   3.856   5.092 -0.3358  0.6916 -0.0156
    5CHTO   O70 1812   5.801   3.942   5.020 -0.0440 -0.1674  0.0352
    5CHTO  H170 1813   5.830   3.901   4.940  2.3438  0.7731  0.3618
    5CHTO   O57 1814   5.439   3.672   5.028 -0.0431  0.3035 -0.2624
    5CHTO   C85 1815   5.435   3.526   5.039  0.3370  0.7556 -0.1294
    5CHTO  H157 1816   5.361   3.499   5.118  0.4943 -0.0292 -0.2403
    5CHTO   C83 1817   5.569   3.459   5.089  0.1642 -0.3664 -0.6989
    5CHTO  H155 1818   5.581   3.496   5.190 -0.0488  1.4449 -1.3161
    5CHTO   O56 1819   5.679   3.497   4.999 -0.2783 -0.0244 -0.2445
    5CHTO  H135 1820   5.763   3.500   5.041  0.4421  2.4023 -1.7490
    5CHTO   C81 1821   5.549   3.310   5.091 -0.2373 -0.5833 -0.0751
    5CHTO  H153 1822   5.461   3.287   5.152 -2.4880  2.4393 -2.0614
    5CHTO   N14 1823   5.666   3.247   5.156 -0.1427 -0.7259  0.1580
    5CHTO  H141 1824   5.739   3.314   5.198  0.3087 -0.7383 -0.5913
    5CHTO  H142 1825   5.638   3.173   5.229 -2.3871  0.6561  0.7356
    5CHTO   C79 1826   5.517   3.259   4.945 -0.4866 -0.2324 -0.3208
    5CHTO  H151 1827   5.496   3.152   4.954  1.9398 -0.7507 -0.6645
    5CHTO   O52 1828   5.401   3.327   4.889  0.0310  0.6071 -0.2555
    5CHTO   C86 1829   5.388   3.471   4.896 -0.4701 -0.4145 -0.4600
    5CHTO  H158 1830   5.458   3.503   4.817  0.5518  1.7186  1.2572
    5CHTO   C90 1831   5.248   3.518   4.848  0.1831  0.0497 -0.0460
    5CHTO   O60 1832   5.227   3.484   4.707  0.5918 -0.2794  0.4449
    5CHTO  H138 1833   5.151   3.429   4.704 -0.6764  1.4786 -0.6922
    5CHTO   O50 1834   5.631   3.267   4.852 -0.3195  0.2468  0.3894
    5CHTO   C73 1835   5.675   3.194   4.732  0.2029  0.3970 -0.6275
    5CHTO  H145 1836   5.598   3.133   4.684 -0.3937 -0.6950  1.6731
    5CHTO   C74 1837   5.787   3.095   4.773  0.1585 -0.2657 -0.1044
    5CHTO  H146 1838   5.739   3.030   4.848 -0.1443  0.5785  0.4425
    5CHTO   O54 1839   5.819   3.002   4.672 -0.0774 -0.7244 -0.4080
    5CHTO  H133 1840   5.877   3.034   4.606 -1.1095 -1.2195 -1.5677
    5CHTO   C75 1841   5.913   3.170   4.829  0.4698  0.4481 -0.0079
    5CHTO  H147 1842   5.871   3.219   4.918 -0.4009 -0.9362  0.3637
    5CHTO   N13 1843   6.018   3.075   4.876  0.4008  0.2384  0.0892
    5CHTO  H139 1844   6.103   3.132   4.910  0.3838 -0.0405  0.5941
    5CHTO  H140 1845   6.046   3.006   4.797 -1.1954  0.6083 -0.8330
    5CHTO   C76 1846   5.956   3.289   4.726  0.2289  0.4830 -0.0541
    5CHTO  H148 1847   6.000   3.245   4.637 -0.0119  3.1041 -1.5014
    5CHTO   O49 1848   5.843   3.369   4.692 -0.1709  0.0189 -0.6855
    5CHTO   C77 1849   5.731   3.297   4.633  0.0037  0.4928  0.3882
    5CHTO  H149 1850   5.753   3.244   4.541 -1.6165 -0.8535  0.7385
    5CHTO   C88 1851   5.617   3.387   4.599  0.3589 -0.3401 -0.3337
    5CHTO   O58 1852   5.674   3.479   4.503  0.1200 -0.3756 -0.1415
    5CHTO  H136 1853   5.609   3.541   4.476  0.2901 -0.2494 -0.2548
    5CHTO   O51 1854   6.048   3.387   4.798  0.0391 -0.1753  0.0736
    5CHTO   C78 1855   6.099   3.518   4.696  0.3428  0.6186 -0.3274
    5CHTO  H150 1856   6.020   3.558   4.629 -1.1375 -0.6851  0.6052
    5CHTO   C80 1857   6.215   3.457   4.609 -0.1259  0.2041  0.4545
    5CHTO  H152 1858   6.266   3.377   4.666  0.0817 -1.5977 -2.1960
    5CHTO   O55 1859   6.155   3.386   4.501 -0.0870  0.0467 -0.4377
    5CHTO  H134 1860   6.132   3.298   4.525  2.5992  0.1572  2.9387
    5CHTO   C84 1861   6.317   3.562   4.550 -0.6816  0.3746 -0.2230
    5CHTO  H156 1862   6.259   3.620   4.478  0.0065 -0.4698 -1.4824
    5CHTO   N15 1863   6.434   3.493   4.483 -0.0450  0.0662  0.0255
    5CHTO  H143 1864   6.470   3.560   4.408  0.5857 -1.2262 -0.8444
    5CHTO  H144 1865   6.402   3.407   4.428  0.4965  0.3519 -0.7509
    5CHTO   C87 1866   6.366   3.662   4.659  0.1646  0.0659 -0.0442
    5CHTO  H159 1867   6.420   3.606   4.736 -0.7289 -1.1457 -0.2758
    5CHTO   O53 1868   6.232   3.733   4.710 -0.5260 -0.2330  0.0604
    5CHTO   C82 1869   6.163   3.636   4.787 -0.0742  0.6665 -0.4269
    5CHTO  H154 1870   6.233   3.589   4.857 -1.8500 -1.5767 -0.0702
    5CHTO   C89 1871   6.066   3.719   4.871 -0.3540  0.0204 -0.1373
    5CHTO   O59 1872   5.982   3.649   4.963  0.3397 -0.1356 -0.2900
    5CHTO  H137 1873   5.969   3.693   5.044 -0.3093 -0.7102 -0.0798
    5CHTO   O45 1874   6.479   3.783   4.605  0.1798 -0.5329  0.1920
    5CHTO   C67 1875   6.535   3.866   4.712 -0.3586  1.1954  0.0229
    5CHTO  H124 1876   6.476   3.849   4.802  2.2912 -1.0206  1.4428
    5CHTO   C65 1877   6.681   3.818   4.747  0.0893 -0.1557 -0.4305
    5CHTO  H122 1878   6.733   3.786   4.657  0.1074 -0.8317 -0.1808
    5CHTO   O44 1879   6.656   3.701   4.825 -0.2840 -0.0526 -0.3988
    5CHTO  H102 1880   6.704   3.710   4.905 -1.5227  2.5461  0.0825
    5CHTO   C63 1881   6.771   3.935   4.800  0.1848 -0.0121  0.3014
    5CHTO  H120 1882   6.810   3.994   4.717 -0.0458 -2.9120 -1.9461
    5CHTO   N11 1883   6.907   3.890   4.862  0.0726  0.6124 -0.4769
    5CHTO  H108 1884   6.898   3.791   4.902  0.8756  1.2418  1.2954
    5CHTO  H109 1885   6.942   3.955   4.939 -0.5091 -0.3022  0.5743
    5CHTO   C61 1886   6.679   4.024   4.893  0.3460  0.2057  0.0643
    5CHTO  H118 1887   6.742   4.105   4.933  0.1530  0.5607 -0.3398
    5CHTO   O40 1888   6.566   4.088   4.813  0.6713 -0.2978 -0.3792
    5CHTO   C68 1889   6.528   4.018   4.691  0.4822  0.1390 -0.3094
    5CHTO  H125 1890   6.593   4.051   4.607 -0.8104  1.3567 -0.8470
    5CHTO   C72 1891   6.379   4.066   4.656 -0.1986  0.0900  0.2257
    5CHTO   O48 1892   6.356   4.195   4.609 -0.7361 -0.6570 -0.1397
    5CHTO  H105 1893   6.276   4.213   4.563  0.1460  1.0053 -1.0750
    5CHTO   O38 1894   6.634   3.944   5.005 -0.2912  0.4036 -0.4055
    5CHTO   C55 1895   6.561   4.025   5.104 -0.3434  0.1736 -0.0995
    5CHTO  H112 1896   6.511   4.115   5.065 -1.0558  0.1380  0.7301
    5CHTO   C56 1897   6.662   4.063   5.222  0.1407 -0.1102  0.1244
    5CHTO  H113 1898   6.713   3.975   5.265 -0.6121 -0.0855  1.0896
    5CHTO   O42 1899   6.761   4.150   5.167 -1.4272  0.4018 -0.0374
    5CHTO  H100 1900   6.844   4.107   5.175 -1.5707 -0.1752 -1.4697
    5CHTO   C57 1901   6.590   4.143   5.339 -0.1988 -0.6756 -0.4595
    5CHTO  H114 1902   6.546   4.231   5.293  2.0580  1.5353  1.4471
    5CHTO   N10 1903   6.683   4.178   5.448 -0.0109  0.4910 -0.0320
    5CHTO  H106 1904   6.652   4.272   5.493 -2.3609  1.3395 -3.2323
    5CHTO  H107 1905   6.786   4.176   5.417  0.3787  3.2088  0.8790
    5CHTO   C58 1906   6.473   4.056   5.388 -0.6287  0.2976  0.6570
    5CHTO  H115 1907   6.515   3.964   5.434  4.6414  2.1814  0.0567
    5CHTO   O37 1908   6.388   4.010   5.280  0.1031  0.7594  0.2719
    5CHTO   C59 1909   6.444   3.938   5.174  0.3464 -0.5827  0.1791
    5CHTO  H116 1910   6.486   3.853   5.229  1.7199  0.7325  1.1970
    5CHTO   C70 1911   6.346   3.887   5.071  0.5367 -0.2277  0.4885
    5CHTO   O46 1912   6.275   3.981   4.987  0.1274  0.9065  0.3521
    5CHTO  H103 1913   6.330   4.052   4.960  1.9822 -0.5462  0.1489
    5CHTO   O39 1914   6.378   4.155   5.483  0.5218 -0.4154  0.0096
    5CHTO   C60 1915   6.284   4.089   5.573 -0.3189  0.5058  0.8096
    5CHTO  H117 1916   6.215   4.032   5.511  1.3563  0.8424 -1.3993
    5CHTO   C62 1917   6.355   3.990   5.664 -0.6769 -1.0364 -0.2522
    5CHTO  H119 1918   6.382   3.917   5.585  0.7404 -0.2135 -0.5313
    5CHTO   O43 1919   6.463   4.062   5.720 -0.5338  0.0557  0.2324
    5CHTO  H101 1920   6.533   4.009   5.753 -0.3502  0.0805 -0.1112
    5CHTO   C66 1921   6.243   3.932   5.766  0.3721 -0.0219  0.0098
    5CHTO  H123 1922   6.154   3.890   5.720 -0.7216  0.8197  1.3341
    5CHTO   N12 1923   6.281   3.823   5.854 -0.3439 -0.0351 -0.4108
    5CHTO  H110 1924   6.388   3.807   5.859 -0.4108 -0.5233 -0.5357
    5CHTO  H111 1925   6.228   3.821   5.948  1.2078  0.9190  0.5149
    5CHTO   C69 1926   6.182   4.055   5.837  0.4501 -0.3623 -0.6119
    5CHTO  H126 1927   6.255   4.112   5.898 -0.5456  0.8591 -0.5225
    5CHTO   O41 1928   6.124   4.148   5.720  0.2056 -0.2393 -0.0709
    5CHTO   C64 1929   6.206   4.191   5.649  0.4359 -0.7947  0.6845
    5CHTO  H121 1930   6.276   4.251   5.711 -1.6101  1.3673  0.9569
    5CHTO   C71 1931   6.144   4.283   5.537 -0.1919 -0.2421 -0.3973
    5CHTO   O47 1932   6.085   4.408   5.570  0.1912 -0.4890  0.3473
    5CHTO  H104 1933   6.140   4.473   5.531  2.1697 -1.8079  0.8592
    5CHTO   O34 1934   6.062   4.027   5.915  0.1117 -0.3856 -0.5616
    5CHTO   C49 1935   5.990   4.100   6.051 -0.3369  0.6430 -0.3116
    5CHTO   H91 1936   6.067   4.108   6.128 -1.0228 -3.1215  0.8803
    5CHTO   C47 1937   5.880   4.002   6.102  0.1078  0.4578 -0.0882
    5CHTO   H89 1938   5.829   4.041   6.193  1.9467  1.6898  0.4428
    5CHTO   O33 1939   5.935   3.871   6.136  0.2328  0.2337 -0.3089
    5CHTO   H70 1940   5.952   3.867   6.228 -1.9714 -0.9817  0.0742
    5CHTO   C45 1941   5.772   3.990   5.981  0.2818 -0.7308  0.3867
    5CHTO   H87 1942   5.823   3.962   5.888 -0.9935 -3.1734  0.4009
    5CHTO    N8 1943   5.661   3.896   6.005  0.4801  0.3165 -0.6603
    5CHTO   H75 1944   5.691   3.793   5.993  0.6773  0.3401 -0.3771
    5CHTO   H76 1945   5.616   3.916   6.101  1.4516 -0.4763 -0.0259
    5CHTO   C43 1946   5.710   4.139   5.963  0.1284  0.5050  0.1071
    5CHTO   H85 1947   5.635   4.135   5.883 -0.9685 -1.3307  1.1813
    5CHTO   O29 1948   5.818   4.229   5.929  0.6081 -0.1078 -0.4518
    5CHTO   C50 1949   5.935   4.232   6.007 -0.1194 -1.1627 -0.1127
    5CHTO   H92 1950   6.023   4.271   5.953  0.9204 -0.0120  2.3190
    5CHTO   C54 1951   5.922   4.311   6.139  0.0230 -0.5417  0.4211
    5CHTO   O36 1952   5.849   4.431   6.109  0.6205  0.1087 -0.2582
    5CHTO   H72 1953   5.756   4.420   6.098  0.7210 -0.6213 -0.4265
    5CHTO   O27 1954   5.639   4.187   6.074 -0.1060 -0.0572 -0.1600
    5CHTO   C37 1955   5.527   4.256   6.131 -0.0486 -0.2094  0.3950
    5CHTO   H79 1956   5.566   4.352   6.168 -1.0032  0.4374 -0.2605
    5CHTO   C38 1957   5.414   4.280   6.033 -0.2390  0.3551 -0.2125
    5CHTO   H80 1958   5.398   4.184   5.981  0.6865  0.5897 -0.9432
    5CHTO   O31 1959   5.453   4.376   5.935  0.5357  0.1353  0.1163
    5CHTO   H68 1960   5.378   4.405   5.886  0.1255  0.8239  1.1323
    5CHTO   C39 1961   5.272   4.318   6.099  0.8121 -0.5274  0.3234
    5CHTO   H81 1962   5.263   4.421   6.135 -0.3658  0.0564 -1.5670
    5CHTO    N7 1963   5.151   4.301   6.009 -0.0386 -0.1204  0.0132
    5CHTO   H73 1964   5.144   4.198   5.977  1.5875 -1.6376  4.1787
    5CHTO   H74 1965   5.157   4.368   5.925  2.3882  0.9684  0.9864
    5CHTO   C40 1966   5.250   4.240   6.237  0.0468  0.1301  0.0376
    5CHTO   H82 1967   5.225   4.134   6.226  0.3136 -0.0173  0.8275
    5CHTO   O26 1968   5.376   4.257   6.306 -0.1092 -0.2264  0.3272
    5CHTO   C41 1969   5.485   4.175   6.255  0.2964  0.3802  0.8149
    5CHTO   H83 1970   5.458   4.072   6.227  1.6099  0.5651 -1.2168
    5CHTO   C52 1971   5.594   4.178   6.368  0.4960 -0.2551  0.2350
    5CHTO   O35 1972   5.555   4.108   6.484 -0.0147  0.9702 -0.3373
    5CHTO   H71 1973   5.574   4.018   6.470 -0.6169  0.8652 -0.4794
    5CHTO   O28 1974   5.136   4.280   6.316 -0.3405 -0.2461 -0.1975
    5CHTO   C42 1975   5.141   4.339   6.445 -0.1266  0.5100 -0.8606
    5CHTO   H84 1976   5.037   4.327   6.476  0.4762 -2.3518  0.1926
    5CHTO   C44 1977   5.167   4.501   6.432 -0.2101  0.2268  0.6062
    5CHTO   H86 1978   5.265   4.519   6.388 -0.5038  0.9406  0.2348
    5CHTO   O32 1979   5.070   4.559   6.343  0.4365  0.1554  0.2554
    5CHTO   H69 1980   5.108   4.623   6.286 -4.5393  1.4018 -2.0113
    5CHTO   C48 1981   5.183   4.572   6.576  0.3934  0.1250 -0.0523
    5CHTO   H90 1982   5.086   4.576   6.624 -0.3572  1.3021 -1.6519
    5CHTO    N9 1983   5.228   4.713   6.581  0.1965  0.3652  0.1123
    5CHTO   H77 1984   5.168   4.767   6.509 -1.3214  1.0463  1.8764
    5CHTO   H78 1985   5.193   4.736   6.680  0.7310  1.8933 -0.0473
    5CHTO   C51 1986   5.276   4.484   6.667 -0.2559  0.4022 -0.6821
    5CHTO   H93 1987   5.375   4.473   6.623  0.1416 -0.6447  0.4545
    5CHTO   O30 1988   5.215   4.356   6.680  0.1939 -0.3072 -0.2239
    5CHTO   C46 1989   5.224   4.270   6.559  0.2826 -0.0442  0.6838
    5CHTO   H88 1990   5.329   4.261   6.533 -0.2496 -0.1987 -1.5940
    5CHTO   C53 1991   5.164   4.124   6.590  0.6618 -0.2201  0.7009
    5CHTO   O72 1992   5.243   4.030   6.512  0.1189  0.0043 -0.5606
    5CHTO  H199 1993   5.333   4.025   6.538  0.3288 -1.1495 -1.4243
    5CHTO   O22 1994   5.295   4.521   6.810  0.1068  0.5313 -0.7047
    5CHTO   C31 1995   5.407   4.460   6.887 -0.2022  0.6471 -0.6644
    5CHTO   H59 1996   5.382   4.494   6.989 -3.5002  0.1874 -1.2588
    5CHTO   C29 1997   5.414   4.304   6.892 -0.2907  0.8767 -0.1522
    5CHTO   H57 1998   5.406   4.270   6.788  1.2782 -0.9529  0.3055
    5CHTO   O21 1999   5.296   4.251   6.957  0.3141 -0.6357 -0.0125
    5CHTO   H37 2000   5.221   4.295   6.922  0.4270  0.0947  0.6318
    5CHTO   C27 2001   5.548   4.242   6.942 -0.6116  1.0038  0.5688
    5CHTO   H55 2002   5.546   4.246   7.052  1.1865 -1.8225  0.7700
    5CHTO    N5 2003   5.558   4.096   6.900  0.1059 -0.0071  0.2853
    5CHTO   H43 2004   5.465   4.040   6.908 -0.1722  0.1808 -1.4054
    5CHTO   H44 2005   5.638   4.049   6.956  1.2252 -0.1594 -1.4033
    5CHTO   C25 2006   5.667   4.324   6.879  0.6466  0.4078 -0.5645
    5CHTO   H53 2007   5.670   4.305   6.771  1.6491  0.5300 -0.5548
    5CHTO   O17 2008   5.654   4.458   6.923 -0.2506  0.1695  0.1740
    5CHTO   C32 2009   5.548   4.515   6.850 -0.0700  0.4038  0.2035
    5CHTO   H60 2010   5.567   4.493   6.745 -2.6651  0.4835 -0.3188
    5CHTO   C36 2011   5.551   4.673   6.873  0.0710  0.1597  0.0363
    5CHTO   O25 2012   5.513   4.692   7.011  0.5961 -0.2501 -0.2968
    5CHTO   H40 2013   5.571   4.648   7.070 -0.2044  0.5676  1.1593
    5CHTO   O15 2014   5.823   4.275   6.932  0.3044 -0.0610 -0.0134
    5CHTO   C19 2015   5.941   4.335   6.868  1.1441  0.5460  0.6404
    5CHTO   H47 2016   5.895   4.431   6.838  0.1594  0.3890  1.6159
    5CHTO   C20 2017   6.059   4.356   6.966 -0.3637 -0.5475 -0.3019
    5CHTO   H48 2018   6.089   4.263   7.015 -0.9780  1.4036  3.9765
    5CHTO   O19 2019   6.012   4.438   7.075  0.1579  0.1806  0.0238
    5CHTO   H35 2020   5.958   4.384   7.129  1.6330 -1.2665  0.1062
    5CHTO   C21 2021   6.173   4.428   6.887  0.0063 -0.5689  0.3222
    5CHTO   H49 2022   6.135   4.526   6.859  1.8814 -0.3410 -1.5192
    5CHTO    N4 2023   6.293   4.455   6.967  0.9383  0.1866 -0.3731
    5CHTO   H41 2024   6.264   4.500   7.061 -0.8159 -0.7137 -0.4519
    5CHTO   H42 2025   6.341   4.359   6.985  0.6159  0.1971  0.5481
    5CHTO   C22 2026   6.220   4.342   6.767  0.1087  0.2802  0.0036
    5CHTO   H50 2027   6.263   4.251   6.811 -0.7484 -0.4905 -0.7210
    5CHTO   O14 2028   6.106   4.307   6.684 -0.1040  0.3422 -0.1058
    5CHTO   C23 2029   5.988   4.258   6.746  0.3020  0.7128  0.4428
    5CHTO   H51 2030   6.006   4.152   6.770  0.2938  0.4501 -0.7113
    5CHTO   C34 2031   5.889   4.248   6.629  0.5189  0.1692 -0.2221
    5CHTO   O23 2032   5.850   4.366   6.570  0.3444  0.1085  0.0503
    5CHTO   H38 2033   5.780   4.338   6.514  0.8860 -1.5614  0.1611
    5CHTO   O16 2034   6.312   4.408   6.674  0.3473 -0.3558  0.7068
    5CHTO   C24 2035   6.398   4.297   6.592  0.4149 -0.0509 -0.0399
    5CHTO   H52 2036   6.353   4.198   6.603  0.2794 -0.1808 -1.6795
    5CHTO   C26 2037   6.545   4.306   6.637  0.3986 -0.1358  0.1369
    5CHTO   H54 2038   6.579   4.411   6.623 -1.6655  0.4693 -0.5079
    5CHTO   O20 2039   6.556   4.278   6.779  0.4439 -0.4725  0.2339
    5CHTO   H36 2040   6.633   4.319   6.813  1.2036 -0.5024 -1.4103
    5CHTO   C30 2041   6.628   4.203   6.552  0.2684 -0.3467  0.3102
    5CHTO   H58 2042   6.591   4.101   6.571  0.8535 -0.7930 -0.9517
    5CHTO    N6 2043   6.774   4.213   6.586  0.2591 -0.3685  0.0903
    5CHTO   H45 2044   6.787   4.158   6.678 -2.5965 -0.9715  0.1947
    5CHTO   H46 2045   6.837   4.176   6.507  0.9424  1.0243 -0.0231
    5CHTO   C33 2046   6.602   4.241   6.400 -0.3137  0.3227  0.2340
    5CHTO   H61 2047   6.634   4.344   6.376 -1.1415  0.1861 -1.5140
    5CHTO   O18 2048   6.456   4.231   6.374 -0.7104 -0.5658 -0.3984
    5CHTO   C28 2049   6.380   4.331   6.446  0.5684  0.8085  0.5497
    5CHTO   H56 2050   6.410   4.434   6.430  0.5790  0.5544 -1.1533
    5CHTO   C35 2051   6.237   4.329   6.376  0.5217 -0.1158  0.0698
    5CHTO   O24 2052   6.162   4.209   6.381 -0.5404  0.8472 -0.0767
    5CHTO   H39 2053   6.089   4.219   6.440  0.8842  0.3765  1.8030
    5CHTO    O9 2054   6.674   4.161   6.298  0.4257  0.4876  0.5860
    5CHTO   C13 2055   6.596   4.050   6.211 -0.1857  0.4211 -1.0097
    5CHTO   H26 2056   6.497   4.033   6.257  0.0632 -1.2553 -1.0630
    5CHTO   C11 2057   6.682   3.916   6.212  0.0659  0.2895  0.6144
    5CHTO   H24 2058   6.678   3.874   6.314 -2.3933 -2.1439 -0.4359
    5CHTO    O8 2059   6.822   3.938   6.203  0.6082 -0.3829 -0.0780
    5CHTO    H3 2060   6.842   4.019   6.160 -0.7398 -0.4824 -0.9585
    5CHTO    C9 2061   6.617   3.814   6.115  0.3034 -0.4310 -0.3122
    5CHTO   H22 2062   6.511   3.810   6.144  0.9820 -2.8310  2.1393
    5CHTO    N2 2063   6.661   3.676   6.147 -0.2781 -0.2634  0.3250
    5CHTO   H10 2064   6.693   3.682   6.250 -1.3764  0.7673  0.6227
    5CHTO   H11 2065   6.746   3.646   6.086 -2.8982  1.3505 -4.4330
    5CHTO    C7 2066   6.624   3.871   5.969 -0.1565  0.0743  0.4147
    5CHTO   H20 2067   6.526   3.843   5.923  0.3639  0.3051 -0.8523
    5CHTO    O4 2068   6.628   4.014   5.958 -0.3977  0.2117 -0.1423
    5CHTO   C14 2069   6.558   4.082   6.057  0.2052 -0.7751  0.3242
    5CHTO   H27 2070   6.452   4.055   6.037  0.7994 -1.9288 -1.3099
    5CHTO   C18 2071   6.575   4.233   6.031  0.3076 -0.8484  0.2389
    5CHTO   O13 2072   6.459   4.314   6.061  0.2878  0.1389 -0.9000
    5CHTO    H7 2073   6.420   4.350   5.984  0.1438  2.1928  0.0798
    5CHTO    O2 2074   6.739   3.810   5.888 -0.5410 -0.0895 -0.1620
    5CHTO    C1 2075   6.767   3.850   5.753 -0.0260 -0.1412  0.2900
    5CHTO   H14 2076   6.714   3.946   5.735  2.0136  1.4068  2.1611
    5CHTO    C2 2077   6.730   3.742   5.643 -0.4638  0.1979 -0.7796
    5CHTO   H15 2078   6.769   3.644   5.674 -1.4782 -0.3190 -1.1041
    5CHTO    O6 2079   6.588   3.726   5.657 -0.6420 -0.4434  0.3781
    5CHTO    H1 2080   6.544   3.678   5.589 -0.5149  0.9787 -0.7294
    5CHTO    C3 2081   6.776   3.777   5.495 -0.2159 -0.4361  0.0695
    5CHTO   H16 2082   6.714   3.863   5.468 -1.6864 -1.9914 -1.6509
    5CHTO    N1 2083   6.766   3.656   5.409 -0.3434  0.0832 -0.9500
    5CHTO    H8 2084   6.660   3.649   5.389 -0.8251  0.6270  1.2343
    5CHTO    H9 2085   6.833   3.652   5.325 -2.0808 -0.5440 -2.3482
    5CHTO    C4 2086   6.922   3.839   5.499 -0.0221  0.0528  0.1225
    5CHTO   H17 2087   6.997   3.761   5.510  0.8752  1.3425  4.0546
    5CHTO    O1 2088   6.941   3.933   5.607  0.2726  0.3648 -0.0753
    5CHTO    C5 2089   6.912   3.875   5.735 -0.1558 -0.3944 -0.7325
    5CHTO   H18 2090   6.969   3.782   5.742 -0.5930 -0.5602  0.9978
    5CHTO   C16 2091   6.964   3.975   5.843  0.1542  0.1715  0.0237
    5CHTO   O11 2092   7.108   3.981   5.837 -0.0095 -0.1117  0.2544
    5CHTO    H5 2093   7.148   3.903   5.871 -0.4691 -0.6308 -0.3721
    5CHTO    O3 2094   6.939   3.926   5.387 -0.6181 -0.4415 -0.3968
    5CHTO    C6 2095   7.071   3.942   5.338  0.5737 -0.4852 -0.1250
    5CHTO   H19 2096   7.142   3.898   5.408 -0.1154  0.7098  1.3680
    5CHTO    C8 2097   7.093   3.876   5.196 -0.0697  0.6605  0.4025
    5CHTO   H21 2098   7.014   3.900   5.125 -1.5461 -1.7216  1.1621
    5CHTO    O7 2099   7.082   3.734   5.211 -0.0759  0.4730 -0.2283
    5CHTO    H2 2100   7.072   3.688   5.130  0.8662 -1.3559  0.6620
    5CHTO   C12 2101   7.244   3.908   5.144  0.1969 -0.0883 -0.5085
    5CHTO   H25 2102   7.306   3.848   5.213  1.1562 -0.7023 -1.8839
    5CHTO    N3 2103   7.265   3.850   5.007  0.6830  0.2650 -0.1402
    5CHTO   H12 2104   7.347   3.903   4.961  1.5086 -0.3263  0.6344
    5CHTO   H13 2105   7.282   3.743   5.012 -0.1235  0.2165  1.9659
    5CHTO   C15 2106   7.279   4.060   5.157  0.1993 -0.2303  0.2363
    5CHTO   H28 2107   7.224   4.112   5.078 -0.9773  2.0463  2.4689
    5CHTO   O10 2108   7.431   4.093   5.138  0.3100 -0.4499 -0.2263
    5CHTO    H4 2109   7.440   4.155   5.067 -2.4609 -1.3922 -1.4823
    5CHTO    O5 2110   7.250   4.111   5.290 -0.2353  0.0164  0.2722
    5CHTO   C10 2111   7.114   4.093   5.324  1.2309  0.1809  0.0696
    5CHTO   H23 2112   7.046   4.132   5.249  0.2036  0.7915  1.3099
    5CHTO   C17 2113   7.094   4.187   5.449  0.4260  0.0735  0.4408
    5CHTO   O12 2114   7.117   4.321   5.407  0.1595  0.2916 -0.3184
    5CHTO    H6 2115   7.209   4.339   5.409  0.5710 -1.7164  2.6473
    6CHTO  H203 2116   6.445   6.524   1.946  0.6338  0.6437 -0.9239
    6CHTO   O82 2117   6.429   6.440   1.906  0.0642  0.4278 -0.2630
    6CHTO  C123 2118   6.392   6.360   2.021  0.4165 -0.0044  0.5905
    6CHTO  H227 2119   6.354   6.430   2.097 -1.6381  0.2878 -0.6581
    6CHTO   O77 2120   6.277   6.274   1.978  0.1742 -0.0168 -0.1300
    6CHTO  C118 2121   6.215   6.208   2.085 -0.5091  0.8228 -0.3924
    6CHTO  H222 2122   6.186   6.288   2.155 -0.0810 -1.5137  2.5615
    6CHTO  C125 2123   6.077   6.141   2.030 -0.1442 -0.0006  0.2394
    6CHTO   O84 2124   6.084   6.076   1.902 -0.2132 -0.2914 -0.6353
    6CHTO  H205 2125   6.086   5.982   1.910 -2.0010 -0.2625  0.7621
    6CHTO  C114 2126   6.306   6.107   2.155  0.4957  0.3278 -0.0250
    6CHTO  H218 2127   6.333   6.029   2.084 -0.8262  0.0486 -0.2377
    6CHTO  C116 2128   6.433   6.187   2.208 -0.3429 -0.1269 -0.5303
    6CHTO  H220 2129   6.404   6.259   2.287 -1.6675 -1.2811  0.0545
    6CHTO   O79 2130   6.522   6.096   2.280  0.2504  0.4506 -0.1689
    6CHTO  H201 2131   6.513   6.007   2.250 -1.1985  0.6164 -0.2310
    6CHTO  C120 2132   6.502   6.262   2.088  0.1328 -0.9376  0.1760
    6CHTO  H224 2133   6.534   6.179   2.022 -1.2499 -2.8838  1.8816
    6CHTO   N21 2134   6.628   6.335   2.121  0.0740 -0.6367  0.1330
    6CHTO  H211 2135   6.707   6.260   2.117  0.2549 -0.3650 -1.7303
    6CHTO  H212 2136   6.620   6.389   2.214  0.3889  1.9145 -1.2706
    6CHTO   O75 2137   6.232   6.048   2.258  0.0657  0.0973 -0.4953
    6CHTO  C112 2138   6.227   5.878   2.259 -0.2248  0.1935  0.1867
    6CHTO  H216 2139   6.318   5.840   2.210  0.4714  0.2205  1.4392
    6CHTO   O73 2140   6.111   5.837   2.186 -0.0164 -0.3273 -0.7616
    6CHTO  C113 2141   6.087   5.694   2.208 -0.0106  0.1516 -0.2246
    6CHTO  H217 2142   6.187   5.649   2.191 -1.3430 -3.5877  1.3853
    6CHTO  C124 2143   5.991   5.649   2.093 -0.3408  0.4910  1.2722
    6CHTO   O83 2144   5.880   5.740   2.077  0.5063  0.5185 -0.0406
    6CHTO  H204 2145   5.833   5.708   2.002 -1.1163  1.2609  0.6397
    6CHTO  C109 2146   6.048   5.662   2.352 -0.3895 -0.0766 -0.5565
    6CHTO  H213 2147   5.959   5.723   2.371 -0.6457  0.1705 -2.4428
    6CHTO  C110 2148   6.160   5.696   2.449  0.7586  0.2715 -0.5095
    6CHTO  H214 2149   6.236   5.617   2.440 -3.0286 -3.4146 -1.9718
    6CHTO   O78 2150   6.107   5.689   2.582 -0.6090 -0.0723  0.0978
    6CHTO  H200 2151   6.180   5.698   2.641  0.5359  1.8514 -1.5634
    6CHTO  C111 2152   6.226   5.835   2.414  0.0434  0.7727 -0.3961
    6CHTO  H215 2153   6.172   5.912   2.471 -1.5978  1.4819 -2.8662
    6CHTO   N19 2154   6.366   5.847   2.458 -0.3449 -0.2609 -0.2793
    6CHTO  H207 2155   6.430   5.775   2.410 -0.6418 -0.0021 -1.0738
    6CHTO  H208 2156   6.391   5.846   2.563 -0.8487 -1.4461 -0.1679
    6CHTO   O74 2157   6.006   5.522   2.350  0.0631  0.0585 -0.3877
    6CHTO  C115 2158   5.844   5.478   2.386  0.2575  0.0222 -0.7180
    6CHTO  H219 2159   5.777   5.563   2.372  0.5084  0.4437  0.5497
    6CHTO   O76 2160   5.796   5.370   2.294  0.0434  0.9572 -0.3050
    6CHTO  C122 2161   5.857   5.248   2.330 -0.6962 -0.2022  0.7151
    6CHTO  H226 2162   5.964   5.262   2.349 -0.3245 -0.2748 -1.2141
    6CHTO  C126 2163   5.854   5.149   2.204  0.4334  0.0033 -0.1628
    6CHTO   O85 2164   5.907   5.021   2.247 -0.4761 -0.4905  0.2541
    6CHTO  H206 2165   5.901   4.952   2.183  1.2666 -0.1655 -0.2762
    6CHTO  C121 2166   5.794   5.196   2.465  0.4061 -0.5031  1.0845
    6CHTO  H225 2167   5.706   5.132   2.441  1.5982 -1.6829 -0.1788
    6CHTO   O81 2168   5.888   5.111   2.528  0.5363  0.1532  0.7301
    6CHTO  H202 2169   5.862   5.098   2.617 -0.4958  2.5495  0.8032
    6CHTO  C119 2170   5.747   5.310   2.565  0.0581 -0.6404 -0.2373
    6CHTO  H223 2171   5.650   5.351   2.537 -1.0055 -1.5106  1.9713
    6CHTO  C117 2172   5.839   5.437   2.536  0.4835  0.8086  0.3322
    6CHTO  H221 2173   5.943   5.417   2.565 -0.2927 -0.7910  2.1031
    6CHTO   N20 2174   5.796   5.554   2.617  0.4999  0.6118 -0.4908
    6CHTO  H209 2175   5.817   5.549   2.723 -2.9767 -0.0181  0.2391
    6CHTO  H210 2176   5.847   5.639   2.575 -1.2145  2.4601  1.0654
    6CHTO   O80 2177   5.720   5.260   2.714 -0.8487  0.3048  0.2783
    6CHTO  C103 2178   5.570   5.222   2.762 -0.0566 -0.2581  0.3305
    6CHTO  H190 2179   5.564   5.209   2.870  0.4779  0.2549  0.4222
    6CHTO  C101 2180   5.457   5.324   2.739 -0.4126  0.0606  0.5707
    6CHTO  H188 2181   5.471   5.366   2.639 -0.2184 -0.1437  0.5125
    6CHTO   O68 2182   5.491   5.461   2.834 -0.5076 -0.9952 -0.2451
    6CHTO  H168 2183   5.572   5.502   2.812 -0.7889  0.2724  0.9786
    6CHTO   C99 2184   5.311   5.253   2.767  0.1629  1.0216 -0.0900
    6CHTO  H186 2185   5.285   5.248   2.875 -3.7959 -1.2652 -1.0483
    6CHTO   N17 2186   5.200   5.341   2.718 -0.4882 -0.3108 -0.5136
    6CHTO  H174 2187   5.223   5.428   2.658 -1.7290  0.0050 -0.5461
    6CHTO  H175 2188   5.148   5.370   2.808  0.2980  0.0805 -0.1736
    6CHTO   C97 2189   5.309   5.113   2.714 -0.1744 -0.1751 -0.2894
    6CHTO  H184 2190   5.292   5.112   2.606  0.0607 -0.3802 -0.3239
    6CHTO   O64 2191   5.423   5.032   2.752 -0.4580 -0.3551 -0.1157
    6CHTO  C104 2192   5.543   5.080   2.703 -0.2206 -0.6734  0.1682
    6CHTO  H191 2193   5.533   5.090   2.595 -1.6456  1.9423  0.5033
    6CHTO  C108 2194   5.654   4.974   2.728  0.0109 -0.8229 -0.2412
    6CHTO   O71 2195   5.646   4.902   2.850  0.0641 -0.4082  0.0582
    6CHTO  H171 2196   5.563   4.859   2.863 -0.9774  0.8635 -2.0182
    6CHTO   O62 2197   5.209   5.022   2.764 -0.1485 -0.4203  0.0962
    6CHTO   C91 2198   5.190   5.001   2.903 -0.0906 -0.4255  0.4147
    6CHTO  H178 2199   5.264   5.059   2.959  0.9246 -0.9737 -0.3290
    6CHTO   C92 2200   5.248   4.859   2.937 -0.0165 -0.1950  0.0194
    6CHTO  H179 2201   5.331   4.836   2.869 -0.7297 -1.2034 -0.5288
    6CHTO   O66 2202   5.291   4.863   3.072 -0.8568 -0.2130  0.1514
    6CHTO  H166 2203   5.213   4.890   3.117 -2.5274  0.3406 -2.9043
    6CHTO   C93 2204   5.138   4.748   2.916 -0.7915 -0.2709 -0.4919
    6CHTO  H180 2205   5.171   4.648   2.950  0.8421  0.3607 -0.1786
    6CHTO   N16 2206   5.097   4.722   2.774  0.2703 -0.4866  0.4934
    6CHTO  H172 2207   5.031   4.795   2.730 -0.7850 -2.5212 -1.4041
    6CHTO  H173 2208   5.174   4.680   2.711  0.8775  0.6335  0.4753
    6CHTO   C94 2209   5.016   4.789   3.014 -0.5134 -0.3808 -0.1140
    6CHTO  H181 2210   4.919   4.772   2.967 -0.9188  1.0534  0.1920
    6CHTO   O61 2211   5.015   4.927   3.058 -0.2410  0.2768  0.3221
    6CHTO   C95 2212   5.046   5.023   2.958  0.7307 -0.0740 -0.3136
    6CHTO  H182 2213   4.971   5.015   2.878  0.3185 -0.7702  0.1402
    6CHTO  C106 2214   5.036   5.163   3.023 -0.9083 -0.2296  0.5298
    6CHTO   O69 2215   4.897   5.181   3.051  0.2573  0.1815 -0.1500
    6CHTO  H169 2216   4.890   5.208   3.141  1.0469 -1.2710  0.3619
    6CHTO   O63 2217   5.032   4.691   3.160 -0.0370  0.5744  0.2435
    6CHTO   C96 2218   4.949   4.557   3.185 -0.4824 -0.1818  0.0539
    6CHTO  H183 2219   4.924   4.511   3.089 -0.7527  1.7146 -0.8210
    6CHTO   C98 2220   4.816   4.589   3.255  0.2961  0.3742 -0.3059
    6CHTO  H185 2221   4.840   4.636   3.351  1.3170  0.7065 -0.7199
    6CHTO   O67 2222   4.741   4.681   3.175  0.1198 -0.9676 -0.0984
    6CHTO  H167 2223   4.734   4.762   3.222  0.4980  1.2298 -3.6485
    6CHTO  C102 2224   4.743   4.443   3.275  0.6488 -0.5201 -0.0912
    6CHTO  H189 2225   4.728   4.398   3.176 -2.6013  0.5115 -0.1327
    6CHTO   N18 2226   4.604   4.445   3.332 -0.0702  0.6624  0.5342
    6CHTO  H176 2227   4.575   4.344   3.356 -1.7693  0.8499 -0.6337
    6CHTO  H177 2228   4.536   4.474   3.253 -0.7796  0.3684  1.0303
    6CHTO  C105 2229   4.837   4.351   3.359  0.9030  0.4668 -0.1482
    6CHTO  H192 2230   4.854   4.400   3.454 -0.9045  2.4901 -0.8432
    6CHTO   O65 2231   4.966   4.344   3.295  0.1234 -0.1346 -0.5235
    6CHTO  C100 2232   5.036   4.463   3.269  0.1101  0.1538  0.5199
    6CHTO  H187 2233   5.056   4.514   3.364 -2.6045  1.1396  0.5974
    6CHTO  C107 2234   5.172   4.426   3.211 -0.0176  0.0391  0.3576
    6CHTO   O70 2235   5.240   4.346   3.309  0.2030  0.1385  0.6796
    6CHTO  H170 2236   5.323   4.386   3.291  0.6866 -1.5168 -0.8959
    6CHTO   O57 2237   4.760   4.186   3.366  0.1412 -0.2293 -0.0770
    6CHTO   C85 2238   4.811   4.082   3.455 -0.0540 -0.1891  0.5270
    6CHTO  H157 2239   4.760   3.991   3.417 -1.6758  0.6363  0.6512
    6CHTO   C83 2240   4.757   4.111   3.603  0.0219  0.3232 -0.2874
    6CHTO  H155 2241   4.653   4.079   3.602 -0.4522  1.7426  1.1265
    6CHTO   O56 2242   4.745   4.247   3.632 -0.4431  0.0026  0.2793
    6CHTO  H135 2243   4.821   4.282   3.674 -1.6408  0.0979  2.4645
    6CHTO   C81 2244   4.833   4.021   3.699 -0.3285  0.2890  0.6574
    6CHTO  H153 2245   4.814   3.917   3.672  0.9318  0.3688 -0.5937
    6CHTO   N14 2246   4.779   4.031   3.839 -0.1617 -0.3144  0.0608
    6CHTO  H141 2247   4.793   4.134   3.867 -2.0340 -0.0472  0.0788
    6CHTO  H142 2248   4.823   3.965   3.910  0.4828 -1.0690 -1.0271
    6CHTO   C79 2249   4.989   4.035   3.694 -0.3399 -0.1274  0.0056
    6CHTO  H151 2250   5.025   3.964   3.768  1.3679  2.5241  1.8403
    6CHTO   O52 2251   5.040   3.996   3.562  0.0459 -0.1805 -0.4734
    6CHTO   C86 2252   4.977   4.069   3.445 -0.3186 -0.0715 -0.2228
    6CHTO  H158 2253   5.031   4.166   3.447  0.6393 -0.5909 -0.4577
    6CHTO   C90 2254   5.011   4.011   3.312  0.2068 -0.3648 -0.5098
    6CHTO   O60 2255   5.155   4.003   3.305  0.1872 -0.5323  0.8527
    6CHTO  H138 2256   5.194   4.086   3.324  1.0489 -0.6764 -0.2392
    6CHTO   O50 2257   5.027   4.170   3.731 -0.1383 -0.1476  0.3759
    6CHTO   C73 2258   5.140   4.227   3.800  0.2387 -0.6217  0.4289
    6CHTO  H145 2259   5.178   4.155   3.874 -0.8790 -1.1019  0.5424
    6CHTO   C74 2260   5.087   4.345   3.890  0.6448  0.0620  0.2591
    6CHTO  H146 2261   5.002   4.305   3.948  1.9869 -1.0316  1.5100
    6CHTO   O54 2262   5.186   4.384   3.986  0.6587  0.2349  0.3366
    6CHTO  H133 2263   5.239   4.453   3.952 -1.7139  1.7447 -0.3995
    6CHTO   C75 2264   5.041   4.463   3.795  0.4841  0.5444  0.1931
    6CHTO  H147 2265   4.965   4.423   3.726  0.8689  2.1306 -1.1983
    6CHTO   N13 2266   4.980   4.577   3.872  0.4011  0.1469 -0.3177
    6CHTO  H139 2267   4.927   4.542   3.959 -1.8129 -0.3466 -1.8252
    6CHTO  H140 2268   4.913   4.639   3.814  1.1054 -0.1346 -1.4611
    6CHTO   C76 2269   5.173   4.515   3.701 -0.1523  0.4301 -0.1607
    6CHTO  H148 2270   5.252   4.548   3.768 -0.2262 -1.3147  0.8075
    6CHTO   O49 2271   5.214   4.391   3.623  0.3502  0.4498 -0.0049
    6CHTO   C77 2272   5.258   4.284   3.710 -0.6612 -0.3191 -0.4786
    6CHTO  H149 2273   5.340   4.321   3.771 -0.3814 -1.2361 -0.2841
    6CHTO   C88 2274   5.323   4.174   3.622  0.7136 -0.1518  0.0876
    6CHTO   O58 2275   5.451   4.205   3.588 -0.3303 -0.2363  0.0025
    6CHTO  H136 2276   5.485   4.132   3.539 -0.8268  0.4223 -1.3511
    6CHTO   O51 2277   5.139   4.604   3.591 -0.9387  0.0697 -0.3537
    6CHTO   C78 2278   5.220   4.738   3.566 -0.0934  0.0750 -0.5392
    6CHTO  H150 2279   5.294   4.749   3.647 -0.5420 -1.7946  0.1631
    6CHTO   C80 2280   5.122   4.855   3.569 -0.3543  0.0417 -0.4922
    6CHTO  H152 2281   5.039   4.834   3.498 -1.5077 -0.4576  0.9607
    6CHTO   O55 2282   5.080   4.859   3.707  0.0791  0.4219 -0.0611
    6CHTO  H134 2283   4.986   4.857   3.704  0.0151  1.8435  0.7716
    6CHTO   C84 2284   5.189   4.995   3.525 -0.4601  1.1395 -0.7097
    6CHTO  H156 2285   5.252   5.031   3.607 -0.3778  1.2380 -0.8159
    6CHTO   N15 2286   5.088   5.101   3.504 -0.4691 -0.1065 -0.2927
    6CHTO  H143 2287   4.985   5.072   3.513 -0.6234  0.5605  0.0479
    6CHTO  H144 2288   5.107   5.157   3.415 -3.5240  2.1866  0.4413
    6CHTO   C87 2289   5.281   4.978   3.406 -0.7550  0.4090  0.3255
    6CHTO  H159 2290   5.233   4.987   3.309  2.9275  1.1160 -1.5271
    6CHTO   O53 2291   5.365   4.854   3.424  0.6928  0.0741  0.7524
    6CHTO   C82 2292   5.301   4.729   3.439 -0.5519  0.1278 -0.8506
    6CHTO  H154 2293   5.227   4.712   3.361 -0.2662  1.3252 -1.3955
    6CHTO   C89 2294   5.401   4.616   3.441 -0.5881 -0.6467  0.0691
    6CHTO   O59 2295   5.516   4.627   3.349  0.2414 -0.0474 -0.1921
    6CHTO  H137 2296   5.583   4.679   3.389 -0.0708  1.3269 -1.3910
    6CHTO   O45 2297   5.392   5.108   3.409  1.1090 -0.4903 -0.1749
    6CHTO   C67 2298   5.464   5.128   3.284  0.2378 -0.1205  0.8519
    6CHTO  H124 2299   5.401   5.074   3.213 -0.5596  1.6197  0.1878
    6CHTO   C65 2300   5.474   5.272   3.245  0.2165 -0.0509 -0.3138
    6CHTO  H122 2301   5.379   5.318   3.274 -1.0422 -1.0872 -2.6574
    6CHTO   O44 2302   5.478   5.278   3.104 -0.0306 -0.2254 -0.3282
    6CHTO  H102 2303   5.466   5.366   3.075  2.1957  0.6234  1.1503
    6CHTO   C63 2304   5.593   5.338   3.317 -0.4030  0.6384  0.1404
    6CHTO  H120 2305   5.580   5.321   3.424  1.1172  2.3783  0.6274
    6CHTO   N11 2306   5.602   5.494   3.294  0.4937 -0.7038 -0.0939
    6CHTO  H108 2307   5.676   5.514   3.219  0.3089 -0.5938 -0.2466
    6CHTO  H109 2308   5.627   5.549   3.382  0.4987 -2.9767  1.3698
    6CHTO   C61 2309   5.725   5.267   3.270 -0.4383  0.1691  0.6079
    6CHTO  H118 2310   5.812   5.316   3.318 -1.6687  2.4343  0.5934
    6CHTO   O40 2311   5.726   5.124   3.305  0.3574 -0.3050  0.1726
    6CHTO   C68 2312   5.602   5.050   3.285 -0.5262 -0.0963  0.4037
    6CHTO  H125 2313   5.603   4.975   3.366 -0.0813 -2.2733 -1.5455
    6CHTO   C72 2314   5.617   4.971   3.161 -0.1888  0.8644  0.6276
    6CHTO   O48 2315   5.690   4.846   3.167  0.0449 -0.7004  0.0818
    6CHTO  H105 2316   5.781   4.866   3.178  0.1449 -1.1631  0.0929
    6CHTO   O38 2317   5.745   5.282   3.128  0.2722  0.2073 -0.8145
    6CHTO   C55 2318   5.876   5.315   3.076 -0.0919 -0.3212 -0.0040
    6CHTO  H112 2319   5.934   5.297   3.168 -1.1260 -1.9407  0.3546
    6CHTO   C56 2320   5.898   5.467   3.024  0.0868  0.1850  0.2499
    6CHTO  H113 2321   5.815   5.479   2.953 -0.0309 -2.1675 -0.0461
    6CHTO   O42 2322   5.867   5.558   3.127 -0.1982 -0.4368  0.0949
    6CHTO  H100 2323   5.829   5.631   3.081  3.5558  2.5930  1.5277
    6CHTO   C57 2324   6.040   5.492   2.968 -0.9272 -0.3362  0.0471
    6CHTO  H114 2325   6.116   5.484   3.045 -0.5589 -2.2898 -0.4861
    6CHTO   N10 2326   6.060   5.624   2.903  0.4490  0.4936 -0.6300
    6CHTO  H106 2327   6.108   5.686   2.978 -0.6513  1.2769 -0.5663
    6CHTO  H107 2328   6.132   5.608   2.824 -0.7194 -2.3592 -1.1546
    6CHTO   C58 2329   6.061   5.384   2.859  0.1923  0.6563 -0.2531
    6CHTO  H115 2330   5.975   5.388   2.789  0.2405 -1.2326 -0.4332
    6CHTO   O37 2331   6.067   5.263   2.940  0.0596 -0.2732  0.0603
    6CHTO   C59 2332   5.939   5.214   2.982  0.4888 -0.3414  0.7644
    6CHTO  H116 2333   5.874   5.206   2.894  3.1909  2.0159 -1.5721
    6CHTO   C70 2334   5.948   5.080   3.057 -0.1422 -0.2641  0.0527
    6CHTO   O46 2335   6.013   4.985   2.972 -0.0411  0.4405 -0.1314
    6CHTO  H103 2336   5.955   4.933   2.920  0.0877  1.0082 -0.8664
    6CHTO   O39 2337   6.205   5.395   2.758 -0.3300  0.0161 -0.0347
    6CHTO   C60 2338   6.260   5.266   2.715  0.1492  0.1620  0.3124
    6CHTO  H117 2339   6.260   5.194   2.797 -0.7755  1.2824  1.2966
    6CHTO   C62 2340   6.181   5.201   2.606 -0.0281  0.3578 -0.7140
    6CHTO  H119 2341   6.080   5.185   2.649  0.5318  1.3817  1.0273
    6CHTO   O43 2342   6.169   5.297   2.494  0.1134  0.1644  0.0345
    6CHTO  H101 2343   6.084   5.336   2.502  0.5542  0.7565  1.9581
    6CHTO   C66 2344   6.264   5.062   2.568  0.3253  0.2645  0.0898
    6CHTO  H123 2345   6.274   5.002   2.658 -2.4688 -0.4383 -0.0257
    6CHTO   N12 2346   6.178   4.970   2.485  0.1327 -0.2150 -0.3768
    6CHTO  H110 2347   6.148   5.023   2.395 -2.0094  0.6873  0.8154
    6CHTO  H111 2348   6.089   4.934   2.536  1.3391 -1.5188  0.8509
    6CHTO   C69 2349   6.409   5.103   2.522 -0.1396  0.3285  0.3886
    6CHTO  H126 2350   6.416   5.154   2.424 -1.1397  0.6485  0.4844
    6CHTO   O41 2351   6.478   5.184   2.627  0.1220 -0.2565  0.1192
    6CHTO   C64 2352   6.410   5.296   2.671 -0.0514  0.4415  0.4823
    6CHTO  H121 2353   6.398   5.361   2.582  0.2824  0.5022  0.4815
    6CHTO   C71 2354   6.497   5.366   2.785  0.4381 -0.5299  0.4218
    6CHTO   O47 2355   6.631   5.396   2.751 -0.4031  0.0562  0.0014
    6CHTO  H104 2356   6.666   5.460   2.809 -1.1541  2.0747 -1.7248
    6CHTO   O34 2357   6.489   4.998   2.505  0.0272  0.5138  0.0323
    6CHTO   C49 2358   6.520   4.855   2.546  0.1630  0.2860 -0.5138
    6CHTO   H91 2359   6.435   4.789   2.528  0.3289  0.4064 -1.8099
    6CHTO   C47 2360   6.567   4.858   2.694  0.2281 -0.4165 -0.2142
    6CHTO   H89 2361   6.580   4.748   2.708  2.1879  0.1035  2.3804
    6CHTO   O33 2362   6.462   4.905   2.783 -0.4627  0.4120 -0.9019
    6CHTO   H70 2363   6.493   4.885   2.869  1.9480  1.6148 -1.4400
    6CHTO   C45 2364   6.712   4.937   2.710  0.2619 -0.4468 -0.8052
    6CHTO   H87 2365   6.692   5.039   2.746  0.6779 -1.2406  1.7493
    6CHTO    N8 2366   6.788   4.861   2.810  0.2710 -0.5077 -0.1565
    6CHTO   H75 2367   6.730   4.770   2.821  1.5685 -1.4521 -0.9491
    6CHTO   H76 2368   6.768   4.916   2.901 -1.0680 -1.9580  0.4500
    6CHTO   C43 2369   6.783   4.968   2.565 -0.4198 -0.1771 -0.0141
    6CHTO   H85 2370   6.731   5.046   2.511 -0.3010  0.2132  0.4369
    6CHTO   O29 2371   6.773   4.842   2.491 -0.6238  0.5957 -0.2796
    6CHTO   C50 2372   6.642   4.805   2.453  0.0283 -0.8739  0.4629
    6CHTO   H92 2373   6.624   4.851   2.354  0.6088 -0.9496  0.3201
    6CHTO   C54 2374   6.639   4.653   2.420  0.1946 -1.0177  0.7058
    6CHTO   O36 2375   6.506   4.613   2.391 -0.6572 -0.2215  0.4744
    6CHTO   H72 2376   6.496   4.577   2.305  0.0045 -1.1435  0.7809
    6CHTO   O27 2377   6.917   5.021   2.579 -0.7675  0.5861  0.5026
    6CHTO   C37 2378   6.978   5.147   2.585 -0.6427 -0.7176 -0.3899
    6CHTO   H79 2379   7.073   5.153   2.530 -0.2014 -3.1704  0.0921
    6CHTO   C38 2380   6.894   5.250   2.512 -0.4026  0.8120  0.8740
    6CHTO   H80 2381   6.790   5.246   2.549 -0.6869 -1.3922 -0.1080
    6CHTO   O31 2382   6.882   5.215   2.377  0.0067 -0.5848 -0.6285
    6CHTO   H68 2383   6.824   5.271   2.330 -1.6942 -2.5098 -0.8927
    6CHTO   C39 2384   6.945   5.395   2.541 -0.1191 -0.8530  0.8011
    6CHTO   H81 2385   7.044   5.405   2.495  0.7017 -0.7286  2.5338
    6CHTO    N7 2386   6.858   5.508   2.489  0.3062  0.4230  0.0118
    6CHTO   H73 2387   6.786   5.472   2.417 -0.0505  2.4158 -0.6723
    6CHTO   H74 2388   6.801   5.555   2.568  0.3289 -1.5158  1.2203
    6CHTO   C40 2389   6.983   5.426   2.690  0.7615  0.6759  0.3926
    6CHTO   H82 2390   6.894   5.431   2.753 -0.6382  0.4943 -1.5333
    6CHTO   O26 2391   7.075   5.318   2.728 -0.3261 -0.0458  0.0983
    6CHTO   C41 2392   7.002   5.191   2.732 -0.7890  0.2647  0.3749
    6CHTO   H83 2393   6.907   5.200   2.787 -1.6138  1.0597 -1.1313
    6CHTO   C52 2394   7.102   5.087   2.797 -0.7329  0.5264  0.3988
    6CHTO   O35 2395   7.106   5.097   2.940  0.8266  0.6377 -0.0069
    6CHTO   H71 2396   7.163   5.167   2.966 -0.4883  1.8616 -0.3451
    6CHTO   O28 2397   7.058   5.551   2.707  0.3274  0.2846 -0.2174
    6CHTO   C42 2398   7.059   5.621   2.836  0.5030  0.4099 -0.9506
    6CHTO   H84 2399   7.121   5.708   2.818  0.9803  0.2322 -0.1922
    6CHTO   C44 2400   7.134   5.550   2.953  0.3919 -0.7235  0.3542
    6CHTO   H86 2401   7.069   5.473   2.994  1.1027 -0.1631  2.5807
    6CHTO   O32 2402   7.264   5.507   2.899 -0.6248 -0.0938 -0.8715
    6CHTO   H69 2403   7.249   5.430   2.847 -2.2434  0.1540 -0.7882
    6CHTO   C48 2404   7.157   5.641   3.082 -0.1420 -0.6906 -0.9962
    6CHTO   H90 2405   7.225   5.724   3.064 -0.2046 -0.6379 -0.9852
    6CHTO    N9 2406   7.211   5.557   3.201 -0.2329 -0.2295  0.2270
    6CHTO   H77 2407   7.182   5.603   3.294 -0.3292 -1.5026  0.8405
    6CHTO   H78 2408   7.319   5.558   3.199 -0.1998 -2.9637 -0.6584
    6CHTO   C51 2409   7.007   5.695   3.117 -0.2004  0.3098  0.2077
    6CHTO   H93 2410   6.946   5.611   3.150  1.0084 -0.4821  0.4707
    6CHTO   O30 2411   6.956   5.764   3.000  0.1978  0.6046  0.3557
    6CHTO   C46 2412   6.918   5.679   2.888 -0.1541 -0.0528 -1.0447
    6CHTO   H88 2413   6.849   5.602   2.925 -0.8304  1.5257  1.0632
    6CHTO   C53 2414   6.843   5.771   2.785 -0.2187 -0.1822  0.7633
    6CHTO   O72 2415   6.721   5.794   2.853 -0.2752  0.1863  0.2015
    6CHTO  H199 2416   6.668   5.853   2.804 -0.5827 -2.8439 -3.3328
    6CHTO   O22 2417   7.011   5.789   3.231 -0.5923 -0.3308 -0.0731
    6CHTO   C31 2418   6.896   5.867   3.284 -0.7645  0.4178 -0.2104
    6CHTO   H59 2419   6.947   5.944   3.345  0.4497 -1.2351  0.9124
    6CHTO   C29 2420   6.814   5.937   3.170  0.0148  0.4962 -0.1724
    6CHTO   H57 2421   6.773   5.860   3.103 -0.5199 -0.3840  1.1212
    6CHTO   O21 2422   6.896   6.040   3.106 -0.2459  0.0217  0.0494
    6CHTO   H37 2423   6.843   6.107   3.069 -0.1824 -1.2012 -2.3747
    6CHTO   C27 2424   6.696   6.011   3.237 -0.1658 -0.3712 -0.4691
    6CHTO   H55 2425   6.738   6.089   3.302  2.5716 -2.7103  0.6704
    6CHTO    N5 2426   6.601   6.072   3.142 -0.1915  0.3784 -0.3765
    6CHTO   H43 2427   6.510   6.097   3.194  0.4713  2.3205 -0.1013
    6CHTO   H44 2428   6.595   6.010   3.054 -0.6041  0.4649 -0.4125
    6CHTO   C25 2429   6.620   5.916   3.341 -0.1641 -0.5852 -0.2875
    6CHTO   H53 2430   6.582   5.832   3.281 -0.5704 -0.6709  0.0886
    6CHTO   O17 2431   6.701   5.856   3.438 -0.1659 -0.4714 -0.2322
    6CHTO   C32 2432   6.809   5.781   3.386 -0.2159  0.2963  0.1848
    6CHTO   H60 2433   6.775   5.689   3.340 -1.2196  0.6457  0.2153
    6CHTO   C36 2434   6.891   5.742   3.508  0.0841 -0.1845  0.2435
    6CHTO   O25 2435   7.024   5.705   3.487 -0.3170  0.2514 -0.4256
    6CHTO   H40 2436   7.073   5.784   3.476 -0.8744  0.8831  1.4159
    6CHTO   O15 2437   6.508   5.999   3.416 -0.2080 -0.5996  0.0293
    6CHTO   C19 2438   6.387   5.986   3.497 -0.6385 -0.0772  0.4296
    6CHTO   H47 2439   6.326   5.909   3.448  0.4360 -1.9514  1.9676
    6CHTO   C20 2440   6.400   5.940   3.645  0.4338  0.0269  0.4593
    6CHTO   H48 2441   6.470   6.002   3.704 -0.4803  1.6145 -0.1032
    6CHTO   O19 2442   6.457   5.810   3.637  0.0794 -0.0249  0.2478
    6CHTO   H35 2443   6.518   5.803   3.708  4.8148  0.3150 -3.6157
    6CHTO   C21 2444   6.266   5.932   3.726 -0.0473 -0.4156 -0.1856
    6CHTO   H49 2445   6.216   5.844   3.685 -0.8389 -0.2367  0.3970
    6CHTO    N4 2446   6.271   5.907   3.872 -0.5519 -0.0633 -0.1462
    6CHTO   H41 2447   6.357   5.846   3.895 -0.5062  0.3412  0.7802
    6CHTO   H42 2448   6.182   5.852   3.900 -0.8442  1.3059  1.6730
    6CHTO   C22 2449   6.187   6.058   3.699  0.3780 -0.8192  0.2753
    6CHTO   H50 2450   6.226   6.142   3.756 -0.1517 -0.0731 -0.4473
    6CHTO   O14 2451   6.177   6.101   3.564 -0.2847  0.5908  0.0099
    6CHTO   C23 2452   6.299   6.113   3.498  0.4279 -0.4022  0.0775
    6CHTO   H51 2453   6.351   6.201   3.539 -0.5694 -0.3945  1.3479
    6CHTO   C34 2454   6.265   6.145   3.353  0.3580  0.7052  0.1393
    6CHTO   O23 2455   6.170   6.250   3.335  0.0404 -0.2874 -0.6328
    6CHTO   H38 2456   6.147   6.265   3.245  2.8630 -1.3541 -1.5992
    6CHTO   O16 2457   6.046   6.040   3.740 -0.0220 -0.0321 -0.2623
    6CHTO   C24 2458   5.984   6.194   3.817  0.1464  0.5971 -0.1308
    6CHTO   H52 2459   6.034   6.282   3.777 -1.6283  2.0453  0.7830
    6CHTO   C26 2460   6.002   6.178   3.970 -0.0684  0.2470  0.4391
    6CHTO   H54 2461   5.959   6.082   4.004 -1.8605  1.5982  2.0932
    6CHTO   O20 2462   6.143   6.190   4.004  0.3092 -0.4903 -0.3525
    6CHTO   H36 2463   6.194   6.118   3.973  1.4120  0.0011  0.2677
    6CHTO   C30 2464   5.921   6.293   4.041 -0.1036 -0.1393  0.0459
    6CHTO   H58 2465   5.955   6.391   4.003 -1.7997  0.8779  1.0830
    6CHTO    N6 2466   5.935   6.288   4.191  0.1197 -0.2844  0.3295
    6CHTO   H45 2467   6.007   6.214   4.223 -0.5468 -0.3072  1.8212
    6CHTO   H46 2468   5.961   6.385   4.229 -0.4975  0.3537 -0.8328
    6CHTO   C33 2469   5.772   6.294   3.998 -0.3076  0.6492 -0.3997
    6CHTO   H61 2470   5.723   6.200   4.027  0.8131  0.4735  1.0090
    6CHTO   O18 2471   5.775   6.307   3.859  0.1708  0.3573 -0.1101
    6CHTO   C28 2472   5.832   6.200   3.784  0.0685 -0.7829  0.1038
    6CHTO   H56 2473   5.788   6.101   3.799  1.4346 -1.2291  1.2882
    6CHTO   C35 2474   5.800   6.229   3.631  0.2379  0.5494  0.2584
    6CHTO   O24 2475   5.882   6.145   3.545 -0.2659 -0.2032  0.5331
    6CHTO   H39 2476   5.928   6.201   3.485 -1.9026  2.1268  1.3749
    6CHTO    O9 2477   5.693   6.402   4.061  0.1720  0.0415  0.0332
    6CHTO   C13 2478   5.575   6.353   4.193 -0.3394 -0.3281  0.1436
    6CHTO   H26 2479   5.622   6.281   4.263 -0.3485  1.7906  2.3753
    6CHTO   C11 2480   5.447   6.292   4.126  0.1090  0.4315  0.0876
    6CHTO   H24 2481   5.480   6.197   4.081 -1.8515  0.0386 -0.5554
    6CHTO    O8 2482   5.399   6.390   4.027  0.0766 -0.3699 -0.3696
    6CHTO    H3 2483   5.329   6.358   3.974 -0.5187  1.1098 -0.4935
    6CHTO    C9 2484   5.349   6.266   4.242  0.3344  0.5189 -0.1215
    6CHTO   H22 2485   5.396   6.186   4.301  0.3942 -0.2168 -1.1622
    6CHTO    N2 2486   5.228   6.192   4.192  0.0449  0.0950  0.3167
    6CHTO   H10 2487   5.197   6.234   4.097 -2.0951 -1.9393  0.0580
    6CHTO   H11 2488   5.143   6.190   4.258 -0.7942  1.7256 -0.6931
    6CHTO    C7 2489   5.327   6.390   4.341 -0.0015 -0.7273  0.1626
    6CHTO   H20 2490   5.360   6.343   4.436 -0.2880 -0.5003  0.3725
    6CHTO    O4 2491   5.400   6.505   4.305  0.2870 -0.1270  0.4309
    6CHTO   C14 2492   5.541   6.478   4.284 -0.0014  0.3008 -0.2591
    6CHTO   H27 2493   5.579   6.450   4.385  1.2850 -1.6010 -1.2544
    6CHTO   C18 2494   5.616   6.602   4.238 -0.7052  0.5591  0.0977
    6CHTO   O13 2495   5.558   6.666   4.120 -0.5251 -0.0066  0.2211
    6CHTO    H7 2496   5.571   6.759   4.129 -0.5288 -0.2899  4.2898
    6CHTO    O2 2497   5.183   6.428   4.361  0.1561  0.5948 -0.5115
    6CHTO    C1 2498   5.146   6.472   4.492 -0.3886  0.0474  0.0423
    6CHTO   H14 2499   5.055   6.534   4.477 -1.2509 -0.9127  1.2362
    6CHTO    C2 2500   5.242   6.562   4.569 -0.1666 -0.2646  0.7186
    6CHTO   H15 2501   5.340   6.512   4.561 -1.0260 -1.8825  0.2232
    6CHTO    O6 2502   5.254   6.693   4.508 -0.4806  0.2706  0.1696
    6CHTO    H1 2503   5.283   6.759   4.569  0.0220 -0.2190  0.4638
    6CHTO    C3 2504   5.203   6.577   4.727  0.2454 -0.3932  0.1738
    6CHTO   H16 2505   5.110   6.635   4.739  0.0209 -0.5993 -0.5695
    6CHTO    N1 2506   5.303   6.664   4.797 -0.1777  0.6586 -0.3963
    6CHTO    H8 2507   5.372   6.721   4.737  4.7830 -0.9075  3.4413
    6CHTO    H9 2508   5.362   6.612   4.872 -0.2947 -0.3088 -0.9749
    6CHTO    C4 2509   5.172   6.440   4.790 -0.6388  0.0122  0.9242
    6CHTO   H17 2510   5.267   6.390   4.810 -0.5084 -0.6059 -1.0911
    6CHTO    O1 2511   5.080   6.362   4.705  0.4659  0.4117 -0.9418
    6CHTO    C5 2512   5.114   6.337   4.565 -0.7213 -1.0251 -0.1079
    6CHTO   H18 2513   5.194   6.262   4.568 -1.5221 -1.9732 -1.7114
    6CHTO   C16 2514   4.986   6.273   4.498  0.0712  0.1396  0.1485
    6CHTO   O11 2515   4.870   6.363   4.495 -0.2876  0.5073 -0.0077
    6CHTO    H5 2516   4.836   6.380   4.580  0.4277 -2.5521  0.9523
    6CHTO    O3 2517   5.103   6.457   4.912  0.4120  0.2677  0.1001
    6CHTO    C6 2518   5.086   6.343   4.991  0.2086  0.9016  0.0431
    6CHTO   H19 2519   5.107   6.246   4.945 -0.0346  2.2420 -3.0018
    6CHTO    C8 2520   5.186   6.338   5.116 -0.0821 -0.3697  0.6362
    6CHTO   H21 2521   5.173   6.432   5.170  0.0138  1.0831 -1.7502
    6CHTO    O7 2522   5.316   6.336   5.057 -0.3800 -0.2107  0.8952
    6CHTO    H2 2523   5.371   6.325   5.131 -0.7008 -2.5539  0.8510
    6CHTO   C12 2524   5.161   6.226   5.217  0.2918  0.6829 -0.3579
    6CHTO   H25 2525   5.200   6.141   5.157 -0.3556  1.6060 -2.1059
    6CHTO    N3 2526   5.247   6.234   5.341  0.1051 -0.4186 -0.0906
    6CHTO   H12 2527   5.205   6.206   5.436 -0.2421 -0.7233 -0.3279
    6CHTO   H13 2528   5.345   6.194   5.319 -0.2851 -0.3248 -2.1013
    6CHTO   C15 2529   5.000   6.206   5.244  0.4680 -0.6369  0.0692
    6CHTO   H28 2530   4.947   6.269   5.315  0.8821  0.6882 -0.7789
    6CHTO   O10 2531   4.952   6.061   5.281  0.2832 -0.2754  0.0113
    6CHTO    H4 2532   5.030   6.009   5.285 -1.0845 -2.3063  1.8807
    6CHTO    O5 2533   4.928   6.211   5.121 -0.9115 -0.0681  0.0389
    6CHTO   C10 2534   4.938   6.337   5.045 -0.0695 -0.8510 -0.3645
    6CHTO   H23 2535   4.915   6.429   5.098 -1.6921 -0.9547 -0.8831
    6CHTO   C17 2536   4.837   6.338   4.924 -0.6580  0.0411 -0.7563
    6CHTO   O12 2537   4.701   6.341   4.965  0.2544  0.1890 -0.3012
    6CHTO    H6 2538   4.650   6.359   4.889  1.7529  0.9990 -1.1390
    7CHTO  H203 2539   5.408   3.716   5.873 -0.4982 -1.8475 -2.9868
    7CHTO   O82 2540   5.397   3.796   5.824 -0.1695  0.1997  0.1770
    7CHTO  C123 2541   5.448   3.772   5.692  0.0422 -0.5756 -0.6589
    7CHTO  H227 2542   5.374   3.814   5.622  2.5489  0.1253 -2.9813
    7CHTO   O77 2543   5.564   3.860   5.696 -0.2854  0.5778 -0.3855
    7CHTO  C118 2544   5.641   3.862   5.572  0.1795 -1.4073  0.4632
    7CHTO  H222 2545   5.572   3.897   5.494 -1.3365  1.1984  2.8635
    7CHTO  C125 2546   5.757   3.975   5.585  0.2543  0.1651 -0.0597
    7CHTO   O84 2547   5.864   3.931   5.667 -0.1510  0.5082  0.3653
    7CHTO  H205 2548   5.902   3.852   5.634  0.5510  1.1575 -0.3906
    7CHTO  C114 2549   5.687   3.721   5.542 -0.4552 -0.0362  0.2468
    7CHTO  H218 2550   5.754   3.685   5.621 -1.8633 -1.6331  0.7292
    7CHTO  C116 2551   5.571   3.611   5.541  0.9456 -0.7051  0.2263
    7CHTO  H220 2552   5.507   3.635   5.454  1.0078  0.3498  0.4612
    7CHTO   O79 2553   5.626   3.479   5.525  0.2550 -1.3323  0.2155
    7CHTO  H201 2554   5.644   3.449   5.438  0.2707 -2.0233  0.4518
    7CHTO  C120 2555   5.481   3.623   5.671 -0.5545 -0.0099 -0.3899
    7CHTO  H224 2556   5.539   3.584   5.757 -3.2595  0.5874  1.7842
    7CHTO   N21 2557   5.357   3.541   5.668  0.3429  0.3472  0.1654
    7CHTO  H211 2558   5.281   3.593   5.725  0.2280 -0.2329  0.5398
    7CHTO  H212 2559   5.383   3.443   5.704  2.5066  0.6447 -0.5291
    7CHTO   O75 2560   5.757   3.742   5.418  0.1953 -0.6855 -0.3997
    7CHTO  C112 2561   5.904   3.663   5.401  0.5146  0.3889 -0.4452
    7CHTO  H216 2562   5.900   3.639   5.294  0.1831  1.6649 -0.7367
    7CHTO   O73 2563   5.903   3.542   5.491  0.9210 -0.0168  0.3438
    7CHTO  C113 2564   5.996   3.442   5.452 -0.0400 -0.7281 -0.9012
    7CHTO  H217 2565   5.992   3.424   5.343  0.4766 -0.5952 -0.9404
    7CHTO  C124 2566   5.964   3.307   5.522 -0.3166  0.0419  0.0650
    7CHTO   O83 2567   5.834   3.255   5.477 -0.0637 -0.0831  1.1206
    7CHTO  H204 2568   5.803   3.187   5.533 -0.3309  0.6348  1.8573
    7CHTO  C109 2569   6.134   3.502   5.497 -0.2667  0.5249  0.2410
    7CHTO  H213 2570   6.129   3.519   5.606 -1.1322 -2.5497  0.7012
    7CHTO  C110 2571   6.160   3.636   5.425  0.4943  0.0305  0.0445
    7CHTO  H214 2572   6.161   3.619   5.317  1.7154  2.2091 -0.3260
    7CHTO   O78 2573   6.284   3.702   5.455 -0.2531 -0.5441  0.0803
    7CHTO  H200 2574   6.289   3.777   5.400 -2.9741  0.1050  0.6316
    7CHTO  C111 2575   6.039   3.735   5.441  0.1606 -0.1670 -0.1648
    7CHTO  H215 2576   6.029   3.763   5.547  0.1103 -5.8388  1.4820
    7CHTO   N19 2577   6.053   3.859   5.362 -0.4081 -0.4240 -0.3231
    7CHTO  H207 2578   6.030   3.944   5.424  0.7277 -1.0161  0.9336
    7CHTO  H208 2579   6.147   3.859   5.309 -1.8520  1.8453 -3.0018
    7CHTO   O74 2580   6.253   3.409   5.472 -0.1292  0.3317 -0.4138
    7CHTO  C115 2581   6.372   3.434   5.596 -0.0309  0.3132  0.0800
    7CHTO  H219 2582   6.425   3.528   5.578  1.5650 -0.2613  1.6278
    7CHTO   O76 2583   6.316   3.442   5.737  0.1242  0.0137  0.9171
    7CHTO  C122 2584   6.277   3.325   5.804  0.4647 -0.0928  0.1524
    7CHTO  H226 2585   6.190   3.292   5.747  0.7193  2.2471 -1.6443
    7CHTO  C126 2586   6.224   3.375   5.943 -0.0708  0.0431  0.3121
    7CHTO   O85 2587   6.312   3.442   6.037  0.0606  0.4185 -0.4462
    7CHTO  H206 2588   6.308   3.535   6.030  2.3006  0.5573 -0.3432
    7CHTO  C121 2589   6.402   3.226   5.812 -0.3852 -0.0394 -0.1728
    7CHTO  H225 2590   6.440   3.233   5.915 -1.1729  1.1898  0.0474
    7CHTO   O81 2591   6.346   3.097   5.782  0.1078  0.0387  0.5383
    7CHTO  H202 2592   6.406   3.024   5.779  0.2683  0.2198 -1.4027
    7CHTO  C119 2593   6.523   3.259   5.715 -0.5533 -0.1796  0.0690
    7CHTO  H223 2594   6.589   3.334   5.757  0.5775 -1.0908 -0.0552
    7CHTO  C117 2595   6.467   3.311   5.575 -0.0540 -0.1933 -0.0798
    7CHTO  H221 2596   6.402   3.237   5.527  0.3639 -0.0223 -0.9244
    7CHTO   N20 2597   6.572   3.348   5.467  0.3180  0.1818 -0.5893
    7CHTO  H209 2598   6.597   3.453   5.458  0.9057  0.0944 -0.0752
    7CHTO  H210 2599   6.541   3.313   5.370 -0.8141 -0.8119  0.1222
    7CHTO   O80 2600   6.632   3.138   5.692 -0.1385 -0.4558 -0.5012
    7CHTO  C103 2601   6.753   3.103   5.814 -0.6169 -0.2859  0.1752
    7CHTO  H190 2602   6.848   3.080   5.765 -1.4131 -0.1159 -1.4828
    7CHTO  C101 2603   6.777   3.218   5.915 -0.6490 -0.4068  0.2710
    7CHTO  H188 2604   6.681   3.253   5.954  1.0723  2.2744  2.2957
    7CHTO   O68 2605   6.825   3.353   5.822 -0.2927 -0.0184  0.0237
    7CHTO  H168 2606   6.869   3.338   5.741  0.0106  1.7571 -0.1591
    7CHTO   C99 2607   6.867   3.186   6.041  1.0258 -0.1111  0.2722
    7CHTO  H186 2608   6.973   3.169   6.012  1.1234  1.8590 -0.5716
    7CHTO   N17 2609   6.868   3.298   6.145  0.2169 -0.2273  0.4325
    7CHTO  H174 2610   6.963   3.349   6.152 -1.1814  2.1800  3.2947
    7CHTO  H175 2611   6.790   3.369   6.121 -0.5703 -1.1964  0.0883
    7CHTO   C97 2612   6.825   3.048   6.103  0.2512  0.1376 -0.2170
    7CHTO  H184 2613   6.725   3.065   6.146 -0.1928 -0.9307 -0.8103
    7CHTO   O64 2614   6.817   2.945   6.000 -0.0502 -0.2175 -0.6551
    7CHTO  C104 2615   6.718   2.973   5.893  0.1793 -0.9686 -0.3958
    7CHTO  H191 2616   6.621   2.978   5.943 -0.7008  0.3971 -2.2096
    7CHTO  C108 2617   6.703   2.849   5.802  0.0139 -1.0957 -0.3719
    7CHTO   O71 2618   6.823   2.826   5.729 -0.7054  0.1838 -0.0507
    7CHTO  H171 2619   6.830   2.895   5.665 -0.8028  0.0661 -0.1874
    7CHTO   O62 2620   6.911   2.996   6.205 -0.1374  0.4186  0.7974
    7CHTO   C91 2621   6.846   2.905   6.297 -0.0117 -0.2830 -0.5126
    7CHTO  H178 2622   6.739   2.923   6.303  0.3855  2.2974 -0.7185
    7CHTO   C92 2623   6.903   2.952   6.436 -0.4285 -0.1186  0.8334
    7CHTO  H179 2624   6.881   3.059   6.449 -0.9653 -0.1083 -0.0894
    7CHTO   O66 2625   6.824   2.890   6.535  0.1899 -0.1829 -0.0227
    7CHTO  H166 2626   6.738   2.870   6.505 -0.3564  0.2734  1.1793
    7CHTO   C93 2627   7.059   2.903   6.457  0.8099  0.6612  0.1731
    7CHTO  H180 2628   7.068   2.907   6.566  0.4491  1.5711  0.1696
    7CHTO   N16 2629   7.159   2.997   6.399 -0.4575 -1.1122 -0.2124
    7CHTO  H172 2630   7.239   3.023   6.467  0.4290  0.3112 -1.7770
    7CHTO  H173 2631   7.194   2.989   6.297 -1.0428 -0.6381 -0.4495
    7CHTO   C94 2632   7.069   2.754   6.405 -0.2762 -0.8319 -0.4651
    7CHTO  H181 2633   7.126   2.748   6.312  1.3767 -0.7232  0.5258
    7CHTO   O61 2634   6.938   2.699   6.382  0.5622 -0.0861 -0.5192
    7CHTO   C95 2635   6.868   2.754   6.270 -0.5770 -0.1658  0.5071
    7CHTO  H182 2636   6.923   2.727   6.180 -1.3972 -1.6563  0.4430
    7CHTO  C106 2637   6.741   2.680   6.260  0.1557  0.1797 -0.6415
    7CHTO   O69 2638   6.664   2.676   6.382 -0.0097 -0.4349  0.9533
    7CHTO  H169 2639   6.676   2.592   6.422 -1.7507 -0.4801  1.4227
    7CHTO   O63 2640   7.137   2.684   6.513  0.7148  0.0345  0.0956
    7CHTO   C96 2641   7.041   2.661   6.644  1.0852  0.1470  0.0269
    7CHTO  H183 2642   6.940   2.696   6.623  0.4295 -0.7801  1.5817
    7CHTO   C98 2643   7.080   2.730   6.780 -0.5223  0.2819 -0.7404
    7CHTO  H185 2644   7.090   2.839   6.771  2.2567  0.2478  1.2558
    7CHTO   O67 2645   6.983   2.712   6.883  0.1055 -0.7315  0.3295
    7CHTO  H167 2646   6.893   2.720   6.859  0.1409  0.1222  0.4992
    7CHTO  C102 2647   7.221   2.665   6.828  0.1245 -0.1983  0.2604
    7CHTO  H189 2648   7.233   2.690   6.934  2.9068 -0.7860  0.1292
    7CHTO   N18 2649   7.342   2.718   6.754  0.7908 -0.3547  0.2351
    7CHTO  H176 2650   7.308   2.810   6.709  0.3579 -0.5905  0.0680
    7CHTO  H177 2651   7.424   2.739   6.821 -0.9111 -0.4049  2.4041
    7CHTO  C105 2652   7.221   2.511   6.820  0.7942 -0.0888  0.4754
    7CHTO  H192 2653   7.296   2.478   6.749  0.3840  1.7490 -0.8368
    7CHTO   O65 2654   7.097   2.456   6.776  0.6048  0.1105 -0.2534
    7CHTO  C100 2655   7.035   2.508   6.655  0.3000 -0.3694  0.5731
    7CHTO  H187 2656   7.084   2.460   6.569  0.8599 -0.0324  0.6983
    7CHTO  C107 2657   6.898   2.442   6.654 -0.0616  0.3131 -0.1996
    7CHTO   O70 2658   6.818   2.475   6.539 -0.4832 -0.0767  0.0269
    7CHTO  H170 2659   6.786   2.405   6.485 -2.3743  0.8523 -0.1282
    7CHTO   O57 2660   7.272   2.464   6.964 -0.0303  0.5439  0.1757
    7CHTO   C85 2661   7.381   2.367   6.963 -0.2019 -0.5663 -0.4103
    7CHTO  H157 2662   7.452   2.401   6.884  1.5393 -0.4805  1.1535
    7CHTO   C83 2663   7.334   2.222   6.927 -0.2818 -0.8680 -0.3057
    7CHTO  H155 2664   7.305   2.232   6.822  0.4448 -1.3454 -0.5542
    7CHTO   O56 2665   7.213   2.192   6.992  0.3918 -0.0975  0.3528
    7CHTO  H135 2666   7.138   2.226   6.948  0.6832 -2.2911 -1.9979
    7CHTO   C81 2667   7.446   2.124   6.936  0.4774  0.0343  0.6410
    7CHTO  H153 2668   7.528   2.162   6.874  0.8304  0.4898  1.3794
    7CHTO   N14 2669   7.416   1.996   6.874  0.2309  0.0068  0.1630
    7CHTO  H141 2670   7.373   2.013   6.778  0.8942  0.0825 -0.1294
    7CHTO  H142 2671   7.342   1.947   6.933  1.2075 -1.2995  0.3259
    7CHTO   C79 2672   7.497   2.110   7.073 -0.5970  0.5853 -0.6591
    7CHTO  H151 2673   7.579   2.038   7.070 -1.4778 -0.6522  2.8805
    7CHTO   O52 2674   7.550   2.236   7.120 -0.0607  0.1217 -0.1804
    7CHTO   C86 2675   7.455   2.355   7.107  0.1875  0.6582 -0.7295
    7CHTO  H158 2676   7.381   2.339   7.188 -1.0246 -1.8671 -2.2673
    7CHTO   C90 2677   7.539   2.483   7.151 -0.3818  0.3350 -0.0583
    7CHTO   O60 2678   7.646   2.505   7.065  0.1749  0.1212  0.6829
    7CHTO  H138 2679   7.720   2.534   7.115 -0.6711 -0.2206  2.1675
    7CHTO   O50 2680   7.395   2.068   7.167 -0.4170 -0.2628  0.7227
    7CHTO   C73 2681   7.386   1.974   7.275 -0.5577 -0.4321 -0.2119
    7CHTO  H145 2682   7.483   1.937   7.311 -0.0124  1.2611  0.1048
    7CHTO   C74 2683   7.305   1.855   7.224  0.4385 -0.2264  0.6559
    7CHTO  H146 2684   7.359   1.818   7.136  1.2903  0.3667  0.9303
    7CHTO   O54 2685   7.306   1.753   7.326 -0.2181 -0.1844 -0.7107
    7CHTO  H133 2686   7.277   1.787   7.408 -0.1909  0.1343 -0.8339
    7CHTO   C75 2687   7.158   1.899   7.189 -0.4459  0.0051  0.9143
    7CHTO  H147 2688   7.171   1.980   7.116  2.8228  0.6460  2.0985
    7CHTO   N13 2689   7.081   1.795   7.120 -0.0864 -0.1227 -0.9671
    7CHTO  H139 2690   6.993   1.852   7.093 -2.1073 -1.5880  2.3162
    7CHTO  H140 2691   7.050   1.720   7.190 -0.8264  0.2102 -0.9281
    7CHTO   C76 2692   7.095   1.960   7.319  0.3884  0.0498 -0.5296
    7CHTO  H148 2693   7.093   1.884   7.397  0.8252 -0.5706 -1.1190
    7CHTO   O49 2694   7.175   2.073   7.363 -0.0822  0.0465 -0.8587
    7CHTO   C77 2695   7.316   2.041   7.399 -0.7983 -0.6929 -0.4413
    7CHTO  H149 2696   7.321   1.968   7.480  1.6503 -0.7717 -0.6334
    7CHTO   C88 2697   7.386   2.169   7.452  0.2501 -0.3320 -0.0410
    7CHTO   O58 2698   7.512   2.142   7.493  0.1165  0.7095  0.0213
    7CHTO  H136 2699   7.554   2.221   7.522  0.0297  1.5594 -2.0754
    7CHTO   O51 2700   6.964   2.015   7.298 -0.3399 -0.2148  0.2572
    7CHTO   C78 2701   6.865   2.001   7.425 -0.5979 -0.1587  0.4520
    7CHTO  H150 2702   6.912   1.963   7.518  0.3304  0.8575  0.4145
    7CHTO   C80 2703   6.753   1.902   7.386 -0.0093 -0.0024 -0.1272
    7CHTO  H152 2704   6.701   1.936   7.294  0.5113 -0.6884 -0.6772
    7CHTO   O55 2705   6.809   1.767   7.363  0.3589 -0.0610  0.4455
    7CHTO  H134 2706   6.806   1.722   7.445  2.0134 -0.8059  0.1108
    7CHTO   C84 2707   6.639   1.896   7.500 -0.0629 -0.0500  0.3562
    7CHTO  H156 2708   6.685   1.885   7.598  1.4163  0.4080 -0.2659
    7CHTO   N15 2709   6.537   1.785   7.492 -0.1075  0.3363 -0.5302
    7CHTO  H143 2710   6.484   1.802   7.400  1.3197  0.3283 -1.3602
    7CHTO  H144 2711   6.467   1.793   7.573  2.2083 -0.1125  1.5530
    7CHTO   C87 2712   6.569   2.034   7.489 -0.4531 -0.5220 -0.1696
    7CHTO  H159 2713   6.535   2.052   7.387 -1.5240 -0.3221  0.2158
    7CHTO   O53 2714   6.693   2.143   7.537  0.0991  0.4548 -0.3359
    7CHTO   C82 2715   6.806   2.140   7.442 -0.7789 -0.3084  0.5913
    7CHTO  H154 2716   6.781   2.178   7.343  1.8989 -0.0714 -0.0382
    7CHTO   C89 2717   6.911   2.237   7.493 -0.1269  0.4790  0.0296
    7CHTO   O59 2718   6.866   2.372   7.499  0.2656  0.2498  0.0759
    7CHTO  H137 2719   6.786   2.373   7.547 -0.2576  2.8479 -0.7647
    7CHTO   O45 2720   6.459   2.048   7.594  0.6716  0.5624  0.0354
    7CHTO   C67 2721   6.353   2.139   7.569 -0.3615  0.5447  0.3507
    7CHTO  H124 2722   6.388   2.223   7.508 -0.4582 -0.2434 -0.8037
    7CHTO   C65 2723   6.224   2.081   7.504  0.3810  0.4742  0.6239
    7CHTO  H122 2724   6.217   1.976   7.530  0.7383 -0.0321 -1.2838
    7CHTO   O44 2725   6.253   2.090   7.365 -0.2474 -0.2727  0.6365
    7CHTO  H102 2726   6.233   2.177   7.334 -0.7023 -1.0593 -1.3103
    7CHTO   C63 2727   6.087   2.140   7.553 -0.6836  0.2061  0.1679
    7CHTO  H120 2728   6.066   2.094   7.650 -1.4113 -0.2143 -0.1843
    7CHTO   N11 2729   5.963   2.098   7.475 -0.3280 -0.1522  0.4831
    7CHTO  H108 2730   5.940   1.995   7.492 -0.0057  0.1274  2.6787
    7CHTO  H109 2731   5.981   2.129   7.374  2.2363 -1.9687  0.3397
    7CHTO   C61 2732   6.103   2.287   7.579  0.5277 -0.2218  0.5133
    7CHTO  H118 2733   6.014   2.319   7.635 -1.3637 -3.0636 -0.8010
    7CHTO   O40 2734   6.218   2.310   7.675  0.3037 -0.2099 -0.3717
    7CHTO   C68 2735   6.310   2.199   7.704  0.1171 -0.3692 -0.4266
    7CHTO  H125 2736   6.268   2.113   7.761  2.2801 -0.5590  0.9229
    7CHTO   C72 2737   6.432   2.250   7.781 -0.1407 -0.2121  0.1300
    7CHTO   O48 2738   6.411   2.306   7.906 -0.6346 -0.4423 -0.6748
    7CHTO  H105 2739   6.492   2.295   7.952 -1.5374 -0.9357  0.8352
    7CHTO   O38 2740   6.119   2.379   7.465  0.5820  0.1545  0.1276
    7CHTO   C55 2741   6.089   2.518   7.500 -0.1919  0.2001 -0.2356
    7CHTO  H112 2742   6.096   2.528   7.609  0.2574  1.2263 -0.3524
    7CHTO   C56 2743   5.948   2.564   7.445 -0.1613  0.4351  0.3380
    7CHTO  H113 2744   5.959   2.535   7.340 -3.1747 -1.7170  0.5650
    7CHTO   O42 2745   5.849   2.489   7.516  0.2646 -0.0101  0.1914
    7CHTO  H100 2746   5.833   2.528   7.600 -2.0423  0.2354 -0.3208
    7CHTO   C57 2747   5.916   2.718   7.447  0.0011  0.3464  0.5777
    7CHTO  H114 2748   5.897   2.753   7.549  1.5981  3.9115 -0.2791
    7CHTO   N10 2749   5.795   2.758   7.363 -0.4401 -0.1832  0.0229
    7CHTO  H106 2750   5.797   2.722   7.261  1.2618 -0.7848  0.2425
    7CHTO  H107 2751   5.706   2.729   7.416 -0.0325  2.1257  2.0233
    7CHTO   C58 2752   6.042   2.796   7.400  0.2447  0.4834 -0.3516
    7CHTO  H115 2753   6.055   2.765   7.294  0.0963  0.0444 -0.2420
    7CHTO   O37 2754   6.156   2.757   7.480 -0.4400 -0.0124 -0.7626
    7CHTO   C59 2755   6.195   2.620   7.452  0.7353  0.1942  0.4005
    7CHTO  H116 2756   6.224   2.609   7.347 -0.1147  1.4523  0.0294
    7CHTO   C70 2757   6.322   2.597   7.535 -0.0002  0.7560  0.2802
    7CHTO   O46 2758   6.435   2.661   7.482 -0.2599  0.5009 -0.0343
    7CHTO  H103 2759   6.462   2.629   7.398  1.7247  1.6506  0.1260
    7CHTO   O39 2760   6.034   2.949   7.409  0.2282 -0.1268 -0.3577
    7CHTO   C60 2761   6.135   3.020   7.328 -0.0272 -0.1207 -0.5863
    7CHTO  H117 2762   6.214   2.955   7.293  0.0658 -1.9300  2.8123
    7CHTO   C62 2763   6.066   3.075   7.194 -0.7570  0.2600 -0.4598
    7CHTO  H119 2764   6.020   2.988   7.143  1.0928 -0.3350 -1.1720
    7CHTO   O43 2765   5.954   3.162   7.222 -0.0247  0.2140  0.4322
    7CHTO  H101 2766   5.874   3.118   7.246 -0.5630  0.1607 -1.3503
    7CHTO   C66 2767   6.185   3.140   7.102  0.0332  0.2132  0.2595
    7CHTO  H123 2768   6.264   3.064   7.101  0.9722  1.1809 -0.3108
    7CHTO   N12 2769   6.146   3.159   6.959  0.4585 -0.7111  0.3419
    7CHTO  H110 2770   6.055   3.103   6.939  0.6386 -0.5230 -1.0122
    7CHTO  H111 2771   6.126   3.261   6.932 -0.9433 -0.8089  0.9415
    7CHTO   C69 2772   6.239   3.265   7.167  0.0867  0.0727 -0.6032
    7CHTO  H126 2773   6.159   3.341   7.160  0.8281  0.9767  0.4377
    7CHTO   O41 2774   6.289   3.229   7.314 -0.6165  0.0080  0.2530
    7CHTO   C64 2775   6.207   3.140   7.404  0.4340  0.3298 -0.7588
    7CHTO  H121 2776   6.127   3.200   7.452  0.4380  0.6497 -1.1548
    7CHTO   C71 2777   6.296   3.072   7.512 -0.3162 -0.8482 -0.1561
    7CHTO   O47 2778   6.349   3.163   7.609 -0.3519  0.3125  0.1358
    7CHTO  H104 2779   6.432   3.189   7.574 -0.2747  1.1120  0.8877
    7CHTO   O34 2780   6.373   3.317   7.084 -0.4426  0.8078  0.0241
    7CHTO   C49 2781   6.416   3.465   7.097 -0.1083 -0.6160  0.2276
    7CHTO   H91 2782   6.350   3.521   7.030 -2.0787 -0.0883  2.5605
    7CHTO   C47 2783   6.562   3.476   7.049 -0.1062  0.1043 -0.2782
    7CHTO   H89 2784   6.588   3.584   7.040  0.6349 -0.0729 -0.3270
    7CHTO   O33 2785   6.577   3.418   6.914 -0.0230 -0.0776 -0.0511
    7CHTO   H70 2786   6.554   3.327   6.923 -0.9413 -0.1308 -2.4440
    7CHTO   C45 2787   6.665   3.404   7.148  0.0050 -0.0218  0.2688
    7CHTO   H87 2788   6.684   3.299   7.121 -0.8915 -0.1866  0.2766
    7CHTO    N8 2789   6.793   3.482   7.141 -0.2081  0.2510  0.1513
    7CHTO   H75 2790   6.810   3.511   7.038 -0.4486  2.0588  0.6117
    7CHTO   H76 2791   6.776   3.574   7.195 -0.1198  0.6305 -0.4632
    7CHTO   C43 2792   6.601   3.393   7.294  0.3159  0.7968  0.0593
    7CHTO   H85 2793   6.538   3.305   7.278  0.8153  0.6930 -1.5168
    7CHTO   O29 2794   6.525   3.504   7.327  0.7102  0.0816  0.2639
    7CHTO   C50 2795   6.409   3.526   7.247  0.4307 -0.4203  0.0267
    7CHTO   H92 2796   6.325   3.475   7.297 -0.4422  0.9131 -0.0791
    7CHTO   C54 2797   6.368   3.677   7.243 -0.5566 -0.3773 -0.4211
    7CHTO   O36 2798   6.457   3.756   7.165 -0.2081  0.0999 -0.5104
    7CHTO   H72 2799   6.440   3.735   7.075 -0.4812 -0.5850 -0.2968
    7CHTO   O27 2800   6.696   3.354   7.390  0.0897 -0.5890 -0.0640
    7CHTO   C37 2801   6.675   3.238   7.481 -0.3636  0.0581  0.5420
    7CHTO   H79 2802   6.575   3.233   7.528 -0.3219  1.0440  0.7380
    7CHTO   C38 2803   6.700   3.092   7.413  0.7590  0.4505  0.2121
    7CHTO   H80 2804   6.788   3.101   7.348 -1.4228 -0.1022 -2.8918
    7CHTO   O31 2805   6.591   3.077   7.327  0.1442  0.4741  0.0012
    7CHTO   H68 2806   6.519   3.074   7.387 -1.1212  0.1330 -1.4890
    7CHTO   C39 2807   6.715   2.970   7.519  0.0173  0.0632  0.0271
    7CHTO   H81 2808   6.618   2.959   7.567 -0.2254  2.3545  0.1130
    7CHTO    N7 2809   6.740   2.837   7.456  0.1505 -0.4355 -0.1992
    7CHTO   H73 2810   6.794   2.848   7.364 -0.3950  1.9838 -0.2813
    7CHTO   H74 2811   6.788   2.765   7.520  0.5312 -1.3045 -1.4494
    7CHTO   C40 2812   6.827   3.008   7.617 -0.0811  0.3580 -1.0253
    7CHTO   H82 2813   6.927   3.010   7.574 -0.6829 -1.0195 -2.5213
    7CHTO   O26 2814   6.788   3.132   7.679 -0.1729  0.0088 -0.1139
    7CHTO   C41 2815   6.783   3.244   7.592 -0.6034 -0.1780 -0.4611
    7CHTO   H83 2816   6.881   3.257   7.544 -1.4014  3.3254 -1.2597
    7CHTO   C52 2817   6.750   3.374   7.675  0.4838 -0.1642 -0.1529
    7CHTO   O35 2818   6.625   3.374   7.740  0.5121  0.0317 -0.7324
    7CHTO   H71 2819   6.560   3.379   7.672  1.6820  2.0366 -1.7578
    7CHTO   O28 2820   6.828   2.930   7.742  0.5179  0.1989  0.0642
    7CHTO   C42 2821   6.946   2.902   7.823  0.0788  0.1470  0.6292
    7CHTO   H84 2822   6.913   2.845   7.910  1.3280  0.2879  1.2071
    7CHTO   C44 2823   7.013   3.039   7.870 -0.8842  0.2440 -0.1629
    7CHTO   H86 2824   7.029   3.098   7.779 -0.8052 -1.6926 -1.4453
    7CHTO   O32 2825   6.925   3.118   7.949 -0.3496  0.4126 -0.0704
    7CHTO   H69 2826   6.901   3.084   8.033  0.9296 -1.3488 -0.3898
    7CHTO   C48 2827   7.154   3.009   7.933 -0.1692  0.0782 -0.2658
    7CHTO   H90 2828   7.140   2.949   8.023  1.2961 -0.1941 -0.2061
    7CHTO    N9 2829   7.219   3.140   7.979  0.8687  0.5887  0.6378
    7CHTO   H77 2830   7.287   3.181   7.906  0.6862  1.1246  0.7713
    7CHTO   H78 2831   7.273   3.128   8.072  0.2708 -1.8152  0.7042
    7CHTO   C51 2832   7.229   2.926   7.826 -0.3113 -0.1136 -1.0469
    7CHTO   H93 2833   7.233   2.979   7.731  0.9185 -1.9733 -2.0679
    7CHTO   O30 2834   7.168   2.796   7.809  0.3829 -0.1658  0.1045
    7CHTO   C46 2835   7.037   2.804   7.749  0.1552  0.0246 -0.3880
    7CHTO   H88 2836   7.047   2.840   7.646  2.3146 -0.3471 -0.3412
    7CHTO   C53 2837   6.983   2.659   7.755 -0.2737 -0.7224 -0.2944
    7CHTO   O72 2838   7.062   2.566   7.681 -0.7196 -0.0813 -0.1364
    7CHTO  H199 2839   7.002   2.534   7.616  1.7016  0.2004 -2.6190
    7CHTO   O22 2840   7.361   2.884   7.863 -0.3767 -0.2580  0.2230
    7CHTO   C31 2841   7.481   2.882   7.776  0.2012  0.0119  0.0618
    7CHTO   H59 2842   7.570   2.871   7.842  1.1599  0.7950 -1.0762
    7CHTO   C29 2843   7.481   2.759   7.684  0.5917 -0.2467 -0.2208
    7CHTO   H57 2844   7.390   2.765   7.623 -0.7703  0.0248  1.7823
    7CHTO   O21 2845   7.471   2.642   7.776  0.3679  0.0075  0.3526
    7CHTO   H37 2846   7.489   2.560   7.734 -0.2704 -1.2013  2.3394
    7CHTO   C27 2847   7.601   2.761   7.581  0.0209  0.1367  0.1656
    7CHTO   H55 2848   7.695   2.763   7.638  0.0136 -0.9659  0.2319
    7CHTO    N5 2849   7.598   2.640   7.494  0.4702 -0.5494 -0.4557
    7CHTO   H43 2850   7.524   2.642   7.414  1.0714  2.1102 -0.9874
    7CHTO   H44 2851   7.697   2.623   7.455 -0.2110  1.5605 -3.3119
    7CHTO   C25 2852   7.597   2.902   7.507 -0.1359  0.0699  0.3932
    7CHTO   H53 2853   7.513   2.913   7.437  0.7730  0.5060 -0.6509
    7CHTO   O17 2854   7.602   3.009   7.598  0.0953  0.0933 -0.4297
    7CHTO   C32 2855   7.500   3.013   7.698 -0.1698  0.4971  0.0232
    7CHTO   H60 2856   7.410   3.032   7.640  0.6437  0.6299 -1.2206
    7CHTO   C36 2857   7.535   3.127   7.788 -0.1612 -0.1457  0.2541
    7CHTO   O25 2858   7.548   3.248   7.715  0.2850 -0.0408  0.7698
    7CHTO   H40 2859   7.504   3.321   7.756  2.3267  1.9788 -0.4722
    7CHTO   O15 2860   7.721   2.922   7.427 -0.4520 -0.0274 -0.0348
    7CHTO   C19 2861   7.761   2.970   7.292 -0.1720  0.3315 -0.0513
    7CHTO   H47 2862   7.870   2.984   7.295 -0.0925 -0.4658  2.3769
    7CHTO   C20 2863   7.742   2.866   7.177 -1.0387  0.2514  0.4309
    7CHTO   H48 2864   7.639   2.829   7.175 -1.3156  0.7813  3.1449
    7CHTO   O19 2865   7.842   2.765   7.198 -0.0731  0.2368  0.1876
    7CHTO   H35 2866   7.834   2.730   7.285 -0.3742 -0.3258 -0.0660
    7CHTO   C21 2867   7.767   2.927   7.036  0.1333 -1.1566 -0.9376
    7CHTO   H49 2868   7.874   2.945   7.032 -0.3659  2.4143  0.0715
    7CHTO    N4 2869   7.714   2.835   6.931 -1.1943  0.0526 -0.2208
    7CHTO   H41 2870   7.791   2.782   6.877 -0.1675 -1.7223  2.8785
    7CHTO   H42 2871   7.644   2.765   6.974 -0.5389  0.6838  1.8847
    7CHTO   C22 2872   7.684   3.057   7.027  0.1100 -0.1613 -0.4026
    7CHTO   H50 2873   7.576   3.038   7.022 -0.0257  0.3393  0.5595
    7CHTO   O14 2874   7.727   3.143   7.127  0.3873  0.3803 -0.4913
    7CHTO   C23 2875   7.694   3.107   7.260  0.3191  0.5268  0.1761
    7CHTO   H51 2876   7.584   3.100   7.263  0.3190  0.9359  1.2274
    7CHTO   C34 2877   7.745   3.221   7.350 -0.0711 -0.1530 -0.0673
    7CHTO   O23 2878   7.683   3.349   7.314 -0.1419 -0.1383  0.0355
    7CHTO   H38 2879   7.700   3.411   7.383  0.9271 -2.3930  1.8333
    7CHTO   O16 2880   7.729   3.131   6.915  0.9513  0.4627  0.2890
    7CHTO   C24 2881   7.636   3.224   6.854  1.0505 -0.0885  0.1286
    7CHTO   H52 2882   7.550   3.246   6.918  1.2951  0.5250  0.2506
    7CHTO   C26 2883   7.586   3.158   6.720 -0.3503 -0.0902 -0.0398
    7CHTO   H54 2884   7.673   3.124   6.662 -0.9621 -1.2814 -0.2758
    7CHTO   O20 2885   7.506   3.045   6.761 -0.1448 -0.0565 -0.0397
    7CHTO   H36 2886   7.554   2.978   6.806 -0.1057  1.0439  1.5792
    7CHTO   C30 2887   7.506   3.252   6.623  0.2079  0.2165  0.2237
    7CHTO   H58 2888   7.413   3.276   6.677 -0.1610 -0.0994 -0.2718
    7CHTO    N6 2889   7.476   3.179   6.499  0.0388  0.1400 -0.2189
    7CHTO   H45 2890   7.495   3.236   6.409  2.8486  2.0135  1.4991
    7CHTO   H46 2891   7.531   3.087   6.489 -0.7103 -0.4498  0.9511
    7CHTO   C33 2892   7.579   3.394   6.615  0.0893 -0.4975  0.0097
    7CHTO   H61 2893   7.660   3.380   6.543 -0.8418  2.0244 -1.5631
    7CHTO   O18 2894   7.634   3.449   6.740  0.7547  0.3095 -0.6684
    7CHTO   C28 2895   7.705   3.358   6.824 -0.2764  0.9118  0.4614
    7CHTO   H56 2896   7.802   3.333   6.781  0.1494 -0.4612  2.1636
    7CHTO   C35 2897   7.742   3.440   6.957  0.1884  0.0374  1.0682
    7CHTO   O24 2898   7.622   3.488   7.023 -0.7829 -0.2462  0.0347
    7CHTO   H39 2899   7.649   3.505   7.111  1.3943  0.8276 -0.7810
    7CHTO    O9 2900   7.485   3.486   6.555  0.1953 -0.1335 -0.0319
    7CHTO   C13 2901   7.531   3.567   6.420 -0.0124  0.4594  0.0726
    7CHTO   H26 2902   7.591   3.496   6.360 -1.0499 -0.4593  0.1106
    7CHTO   C11 2903   7.611   3.686   6.466  0.2047  0.1957 -0.5117
    7CHTO   H24 2904   7.707   3.650   6.505 -0.6797 -0.7201  0.8607
    7CHTO    O8 2905   7.543   3.753   6.576  0.2444 -0.0192 -0.4985
    7CHTO    H3 2906   7.604   3.789   6.638 -1.3251  1.5469  0.1821
    7CHTO    C9 2907   7.637   3.775   6.338  0.8055  0.4968 -0.6673
    7CHTO   H22 2908   7.685   3.704   6.269  3.2950  0.7696  0.7374
    7CHTO    N2 2909   7.740   3.880   6.351  0.1057  0.3230 -0.0484
    7CHTO   H10 2910   7.693   3.958   6.409 -1.5459  0.3516 -1.4062
    7CHTO   H11 2911   7.750   3.913   6.249 -0.8560 -2.5127 -1.1194
    7CHTO    C7 2912   7.496   3.825   6.283 -0.2812 -0.0530 -0.0922
    7CHTO   H20 2913   7.520   3.893   6.199 -0.7199 -1.2732 -1.2259
    7CHTO    O4 2914   7.422   3.709   6.244 -0.0422  0.2276 -0.0195
    7CHTO   C14 2915   7.403   3.602   6.338  0.9829  0.1963  0.6718
    7CHTO   H27 2916   7.371   3.519   6.273 -0.4213 -0.4256  2.1153
    7CHTO   C18 2917   7.269   3.637   6.417 -0.6053 -0.1856 -0.4728
    7CHTO   O13 2918   7.150   3.629   6.337  0.1869 -0.8204 -0.0002
    7CHTO    H7 2919   7.135   3.541   6.309  0.1995 -0.5452 -0.8719
    7CHTO    O2 2920   7.405   3.917   6.399  0.3677  0.0442  0.9970
    7CHTO    C1 2921   7.383   4.051   6.363  0.6963 -0.0003 -0.2712
    7CHTO   H14 2922   7.450   4.085   6.282  0.1390 -0.6300 -0.9915
    7CHTO    C2 2923   7.396   4.157   6.487  0.6327 -0.2743 -0.2008
    7CHTO   H15 2924   7.331   4.113   6.564 -0.5440  4.1740  1.5067
    7CHTO    O6 2925   7.534   4.164   6.534 -0.3685 -0.1730  0.0671
    7CHTO    H1 2926   7.536   4.146   6.626  1.2881 -0.5680 -0.0231
    7CHTO    C3 2927   7.342   4.303   6.436 -0.4459 -0.4080  0.1166
    7CHTO   H16 2928   7.414   4.329   6.357 -0.2237 -0.0878  0.4228
    7CHTO    N1 2929   7.340   4.413   6.539 -0.5005  1.0409  0.8115
    7CHTO    H8 2930   7.323   4.506   6.487 -0.6636  1.1417  1.0409
    7CHTO    H9 2931   7.439   4.426   6.581  0.4715 -0.9499 -0.8291
    7CHTO    C4 2932   7.204   4.284   6.362  0.5815 -0.2992  0.7673
    7CHTO   H17 2933   7.140   4.237   6.437  1.2890 -2.5905 -0.0360
    7CHTO    O1 2934   7.212   4.192   6.256 -0.2236 -0.0009  0.0141
    7CHTO    C5 2935   7.239   4.061   6.304 -0.0204  0.5047  0.2218
    7CHTO   H18 2936   7.163   4.037   6.379 -0.7160 -0.7298 -0.8492
    7CHTO   C16 2937   7.215   3.980   6.178  0.4994  0.0220  1.2084
    7CHTO   O11 2938   7.314   3.993   6.073 -0.4122  0.0999 -0.0180
    7CHTO    H5 2939   7.284   3.966   5.988  0.6464 -0.3814 -0.2586
    7CHTO    O3 2940   7.140   4.402   6.307 -0.0631  0.0022  0.2104
    7CHTO    C6 2941   6.998   4.415   6.337  0.5297 -0.6489 -0.1423
    7CHTO   H19 2942   6.955   4.327   6.384 -2.2307  1.0410  0.6150
    7CHTO    C8 2943   6.972   4.519   6.458 -0.1507  0.6318  0.2859
    7CHTO   H21 2944   7.039   4.604   6.448 -1.4529  1.6282 -0.0925
    7CHTO    O7 2945   7.010   4.460   6.586  0.1067  0.4537  0.5871
    7CHTO    H2 2946   6.975   4.374   6.603  2.0221 -0.9696 -2.2575
    7CHTO   C12 2947   6.822   4.570   6.460  0.2872 -0.1671  0.2813
    7CHTO   H25 2948   6.764   4.484   6.501 -0.1569 -1.3186 -2.6450
    7CHTO    N3 2949   6.806   4.680   6.560 -0.4339  0.0814 -0.4097
    7CHTO   H12 2950   6.888   4.749   6.543  1.7223 -1.5816  2.9099
    7CHTO   H13 2951   6.710   4.729   6.571 -1.4432 -2.2504  1.4062
    7CHTO   C15 2952   6.769   4.604   6.318  0.7208 -0.0025 -0.4086
    7CHTO   H28 2953   6.825   4.688   6.276  1.6632 -1.3623 -1.8927
    7CHTO   O10 2954   6.602   4.624   6.313 -0.3641  0.3416 -0.2761
    7CHTO    H4 2955   6.583   4.702   6.264 -2.4793 -0.4548 -0.7736
    7CHTO    O5 2956   6.781   4.480   6.245  0.1283  0.1367 -0.2454
    7CHTO   C10 2957   6.914   4.445   6.210  0.2140 -0.2842 -0.6673
    7CHTO   H23 2958   6.962   4.519   6.146  0.1598  0.4951  0.1860
    7CHTO   C17 2959   6.909   4.316   6.123 -0.6652  0.1954  0.3438
    7CHTO   O12 2960   7.026   4.297   6.038 -0.5275 -0.2004 -0.1480
    7CHTO    H6 2961   7.096   4.346   6.076  0.3407 -2.3557  1.1687
    8CHTO  H203 2962   8.013   8.237   0.996 -1.9413  1.4800  1.1215
    8CHTO   O82 2963   7.954   8.197   0.935  0.0061 -0.3690  0.4024
    8CHTO  C123 2964   7.818   8.206   0.979 -0.3740  0.5802 -0.7339
    8CHTO  H227 2965   7.807   8.186   1.087  0.4718  0.3516 -0.6913
    8CHTO   O77 2966   7.794   8.342   0.953 -0.1491 -0.0813 -0.3604
    8CHTO  C118 2967   7.671   8.394   1.011 -0.2810 -0.0052  0.1454
    8CHTO  H222 2968   7.678   8.382   1.120 -1.4283 -1.1002  0.1154
    8CHTO  C125 2969   7.652   8.545   0.983  0.3007 -0.0180  0.5305
    8CHTO   O84 2970   7.750   8.615   1.066  0.4219 -0.3365 -0.1858
    8CHTO  H205 2971   7.754   8.584   1.155 -0.6577  1.0567  0.3768
    8CHTO  C114 2972   7.549   8.320   0.949 -0.2173  0.0723 -0.0147
    8CHTO  H218 2973   7.533   8.353   0.847 -3.0893 -0.5399  0.1888
    8CHTO  C116 2974   7.571   8.167   0.956  0.5958  0.1899 -0.2469
    8CHTO  H220 2975   7.558   8.139   1.063  0.9983  2.6288  0.4724
    8CHTO   O79 2976   7.464   8.104   0.886  0.4002  0.1844 -0.0333
    8CHTO  H201 2977   7.392   8.087   0.943  1.2220  0.2538  1.0383
    8CHTO  C120 2978   7.713   8.120   0.905  0.6556  0.5384  0.2509
    8CHTO  H224 2979   7.722   8.123   0.794  1.1446 -1.5598  0.2239
    8CHTO   N21 2980   7.727   7.971   0.937 -0.1091  0.1402 -0.1231
    8CHTO  H211 2981   7.673   7.950   1.028 -2.1186 -0.7085 -1.4599
    8CHTO  H212 2982   7.682   7.902   0.866 -0.5439 -0.2467  0.5299
    8CHTO   O75 2983   7.437   8.374   1.026 -1.0811 -0.0426 -0.7613
    8CHTO  C112 2984   7.316   8.428   0.946 -0.0181 -0.3115  0.1103
    8CHTO  H216 2985   7.282   8.343   0.884 -1.1131 -0.5616  1.0285
    8CHTO   O73 2986   7.351   8.541   0.866  0.1223  0.1872 -0.1062
    8CHTO  C113 2987   7.248   8.588   0.781  0.1854 -0.0820 -0.7304
    8CHTO  H217 2988   7.227   8.506   0.708 -0.1221 -0.2430 -0.4617
    8CHTO  C124 2989   7.307   8.710   0.702  0.3785 -0.4536 -0.6510
    8CHTO   O83 2990   7.341   8.811   0.797 -0.2464  0.0391  0.0397
    8CHTO  H204 2991   7.428   8.793   0.825 -1.2200 -2.1923  1.8073
    8CHTO  C109 2992   7.113   8.627   0.860 -0.1480 -0.1685 -0.0705
    8CHTO  H213 2993   7.136   8.711   0.926 -1.5538  0.8807 -0.8881
    8CHTO  C110 2994   7.079   8.505   0.949 -0.2266  0.6437  0.3886
    8CHTO  H214 2995   7.059   8.421   0.883 -2.2878  0.8930  0.6427
    8CHTO   O78 2996   6.947   8.513   1.014 -0.0743 -0.1595 -0.2052
    8CHTO  H200 2997   6.929   8.430   1.055 -0.0264 -0.2512 -0.3712
    8CHTO  C111 2998   7.198   8.467   1.043 -0.5856  0.4802  0.2669
    8CHTO  H215 2999   7.212   8.556   1.105 -0.8885 -0.3083  1.4882
    8CHTO   N19 3000   7.160   8.351   1.131  0.3762  0.2204  0.3916
    8CHTO  H207 3001   7.070   8.303   1.096  0.8344  0.5302 -1.2673
    8CHTO  H208 3002   7.150   8.379   1.235  1.5792  2.5846 -0.0827
    8CHTO   O74 3003   7.021   8.670   0.758  1.0254 -0.1485  0.3609
    8CHTO  C115 3004   6.942   8.797   0.815 -0.0712 -0.1730  0.2187
    8CHTO  H219 3005   6.918   8.788   0.921  1.2225  0.5854  0.5864
    8CHTO   O76 3006   7.030   8.939   0.802  0.1833  0.1082  0.2176
    8CHTO  C122 3007   7.071   8.967   0.668  0.4615 -0.8148  0.0204
    8CHTO  H226 3008   7.167   8.919   0.649 -0.0428 -0.7494 -2.8871
    8CHTO  C126 3009   7.096   9.127   0.658  0.1758  0.1839  0.6004
    8CHTO   O85 3010   6.985   9.191   0.719 -0.3356 -0.4138 -0.5149
    8CHTO  H206 3011   6.985   9.170   0.810  1.2545  0.7115 -0.2425
    8CHTO  C121 3012   6.956   8.929   0.553  0.4636 -0.0719  0.1258
    8CHTO  H225 3013   6.949   9.003   0.471 -0.9542  0.5041  0.7634
    8CHTO   O81 3014   6.993   8.803   0.491  0.4277 -0.1378  0.2145
    8CHTO  H202 3015   6.948   8.795   0.409 -0.8648  1.7200  0.7225
    8CHTO  C119 3016   6.818   8.919   0.626  0.0971  0.4586 -0.1688
    8CHTO  H223 3017   6.803   9.016   0.672  1.2871  1.3941 -1.7381
    8CHTO  C117 3018   6.807   8.806   0.733 -0.7659 -0.6585  0.2689
    8CHTO  H221 3019   6.795   8.703   0.699 -0.9921 -0.8435  0.9100
    8CHTO   N20 3020   6.699   8.816   0.823 -0.0305  0.4390  0.1296
    8CHTO  H209 3021   6.734   8.801   0.924  1.6036 -0.4588 -0.5550
    8CHTO  H210 3022   6.618   8.747   0.803 -0.3046  0.6256  0.5849
    8CHTO   O80 3023   6.691   8.914   0.529 -0.1009 -0.7756  0.7716
    8CHTO  C103 3024   6.596   9.059   0.512  0.0078  0.0626 -0.1907
    8CHTO  H190 3025   6.507   9.035   0.453 -0.4903 -1.1513  1.0158
    8CHTO  C101 3026   6.550   9.143   0.642  0.2476  0.7323  0.2569
    8CHTO  H188 3027   6.628   9.162   0.716  2.1688  0.7068 -1.7195
    8CHTO   O68 3028   6.455   9.054   0.728 -0.2414 -0.1550  0.0371
    8CHTO  H168 3029   6.486   8.967   0.743 -1.9247 -0.7216  0.4138
    8CHTO   C99 3030   6.482   9.279   0.590  0.4025  0.0269 -0.6182
    8CHTO  H186 3031   6.388   9.254   0.537 -0.1946  0.5546  0.1853
    8CHTO   N17 3032   6.426   9.364   0.694  0.2874  0.6478  0.3790
    8CHTO  H174 3033   6.448   9.467   0.669  2.9491  0.1825  0.6859
    8CHTO  H175 3034   6.323   9.350   0.722 -1.1953  3.3591 -3.1961
    8CHTO   C97 3035   6.579   9.357   0.501 -0.5920  0.2534 -0.0441
    8CHTO  H184 3036   6.659   9.403   0.561  1.5413 -1.6949 -1.2876
    8CHTO   O64 3037   6.629   9.277   0.397 -0.4020  0.3971 -0.1874
    8CHTO  C104 3038   6.689   9.148   0.423 -0.0513  0.2436 -0.3093
    8CHTO  H191 3039   6.787   9.155   0.472  0.9204 -0.8526 -2.0341
    8CHTO  C108 3040   6.721   9.086   0.289  0.7972  0.9873 -0.9056
    8CHTO   O71 3041   6.850   9.096   0.233 -0.0954  0.3642  0.8940
    8CHTO  H171 3042   6.908   9.025   0.254 -0.5147 -0.5341 -0.8776
    8CHTO   O62 3043   6.519   9.460   0.421 -0.2458 -0.2240  0.0890
    8CHTO   C91 3044   6.617   9.559   0.380  0.4521  1.0623 -0.0600
    8CHTO  H178 3045   6.719   9.533   0.409  0.7031 -0.4701 -2.2169
    8CHTO   C92 3046   6.590   9.689   0.462  0.0207  0.0418  0.1422
    8CHTO  H179 3047   6.482   9.709   0.458  0.1049  0.9731  2.0946
    8CHTO   O66 3048   6.597   9.651   0.603 -0.3294  0.5129 -0.7241
    8CHTO  H166 3049   6.668   9.699   0.643 -1.5699 -0.0103  2.2871
    8CHTO   C93 3050   6.672   9.820   0.422 -0.1244 -1.4529 -0.0041
    8CHTO  H180 3051   6.774   9.819   0.463 -0.4035 -0.0468  0.7721
    8CHTO   N16 3052   6.606   9.944   0.475  0.7745  0.3147  0.0437
    8CHTO  H172 3053   6.662  10.028   0.435 -0.1661 -0.1118 -2.2501
    8CHTO  H173 3054   6.616   9.947   0.582 -1.1672  1.0933  0.2119
    8CHTO   C94 3055   6.680   9.834   0.265  0.0321  0.1284 -0.0417
    8CHTO  H181 3056   6.586   9.870   0.223  1.2963  2.8377 -0.6399
    8CHTO   O61 3057   6.724   9.714   0.205 -0.6844  0.1077  0.4273
    8CHTO   C95 3058   6.631   9.604   0.225 -0.1099 -0.2259 -0.1041
    8CHTO  H182 3059   6.539   9.635   0.175 -0.0844  0.0804  0.0411
    8CHTO  C106 3060   6.677   9.481   0.130  0.3662  0.1240  0.3574
    8CHTO   O69 3061   6.586   9.374   0.141  0.2167 -0.5144 -0.1974
    8CHTO  H169 3062   6.632   9.293   0.133 -1.3511 -1.5233  0.7652
    8CHTO   O63 3063   6.796   9.962   0.224  0.4412 -0.2214  0.9996
    8CHTO   C96 3064   6.792   9.982   0.059 -1.0779 -0.4818 -0.8830
    8CHTO  H183 3065   6.730   9.903   0.018  0.1879 -0.5290 -2.7426
    8CHTO   C98 3066   6.939   9.964   0.001  0.2534 -1.3491 -0.4097
    8CHTO  H185 3067   7.007  10.021   0.066 -0.5335 -0.8602 -0.0118
    8CHTO   O67 3068   6.975   9.830   0.029 -0.5189  0.7737  0.6080
    8CHTO  H167 3069   7.065   9.818   0.007 -0.2210  1.9570  1.1297
    8CHTO  C102 3070   6.941   9.995  -0.153  0.2254 -0.2167  0.1627
    8CHTO  H189 3071   6.883   9.915  -0.202 -1.6733  0.8465  0.5911
    8CHTO   N18 3072   7.075   9.983  -0.213  0.2951 -0.0324  0.2437
    8CHTO  H176 3073   7.093  10.042  -0.302  1.1417 -0.2008  0.2947
    8CHTO  H177 3074   7.150   9.999  -0.137  0.6796 -0.6882  0.0047
    8CHTO  C105 3075   6.862  10.123  -0.187  1.0971 -0.0178  0.6623
    8CHTO  H192 3076   6.917  10.209  -0.150  1.2479  0.6490 -1.0896
    8CHTO   O65 3077   6.735  10.133  -0.128  0.4028  0.5263  0.0078
    8CHTO  C100 3078   6.732  10.121   0.019  0.0407  0.2132  0.6062
    8CHTO  H187 3079   6.792  10.202   0.062 -0.0351  1.3609 -1.3796
    8CHTO  C107 3080   6.593  10.127   0.068 -0.1408 -0.5981 -0.4985
    8CHTO   O70 3081   6.556  10.263   0.068  0.1284 -1.0451 -0.3993
    8CHTO  H170 3082   6.489  10.279   0.131 -0.6524 -1.6418 -1.0586
    8CHTO   O57 3083   6.851  10.115  -0.348 -0.1692 -0.3163 -0.6246
    8CHTO   C85 3084   6.915  10.204  -0.446  0.3877  0.6225  0.2503
    8CHTO  H157 3085   7.024  10.192  -0.430  0.5039  2.8018  1.2707
    8CHTO   C83 3086   6.898  10.354  -0.412  0.5117 -0.5743  0.3025
    8CHTO  H155 3087   6.961  10.389  -0.331 -2.1460  1.2240  1.6814
    8CHTO   O56 3088   6.763  10.381  -0.362  0.2148  0.4215  0.4109
    8CHTO  H135 3089   6.744  10.319  -0.294  0.0454 -1.3894 -1.2188
    8CHTO   C81 3090   6.928  10.447  -0.534 -0.1869 -0.0743 -0.5826
    8CHTO  H153 3091   7.033  10.432  -0.558  0.1816  1.8277 -0.2591
    8CHTO   N14 3092   6.916  10.588  -0.512 -0.8463 -0.6102  0.4580
    8CHTO  H141 3093   6.813  10.615  -0.523 -0.4888  0.3742 -0.4775
    8CHTO  H142 3094   6.948  10.614  -0.413 -1.0362  2.0879 -0.1540
    8CHTO   C79 3095   6.842  10.401  -0.663 -0.4737  0.1834 -0.7268
    8CHTO  H151 3096   6.875  10.463  -0.746 -0.7895  1.3046 -0.0302
    8CHTO   O52 3097   6.894  10.267  -0.705  0.1331 -0.1457 -0.0535
    8CHTO   C86 3098   6.877  10.166  -0.597 -0.3462 -0.1807  0.2617
    8CHTO  H158 3099   6.768  10.146  -0.600 -0.6979  1.4831  0.8316
    8CHTO   C90 3100   6.946  10.042  -0.635 -0.0923  0.0344  0.0106
    8CHTO   O60 3101   7.089  10.048  -0.643 -0.1120  0.2452 -0.1406
    8CHTO  H138 3102   7.110  10.106  -0.714 -1.1585 -0.5677 -1.1286
    8CHTO   O50 3103   6.701  10.408  -0.651 -0.1332  0.4280  0.2683
    8CHTO   C73 3104   6.608  10.438  -0.749  0.1921  0.4249  1.0512
    8CHTO  H145 3105   6.642  10.397  -0.845  1.0792 -2.6034  2.6024
    8CHTO   C74 3106   6.573  10.593  -0.746 -0.5918  0.1673 -0.2958
    8CHTO  H146 3107   6.671  10.638  -0.765 -1.2689  2.4630  1.3593
    8CHTO   O54 3108   6.486  10.626  -0.857  0.1542 -0.4137  0.2461
    8CHTO  H133 3109   6.402  10.586  -0.843 -0.6695  1.0556 -0.3553
    8CHTO   C75 3110   6.520  10.636  -0.601  0.2848  0.5416  0.3843
    8CHTO  H147 3111   6.597  10.618  -0.525  0.5270  0.5065  0.1297
    8CHTO   N13 3112   6.475  10.774  -0.580 -0.1840 -0.6249  0.2459
    8CHTO  H139 3113   6.419  10.787  -0.489 -1.3014 -0.5470 -0.4449
    8CHTO  H140 3114   6.559  10.842  -0.592  1.5110 -2.3020  2.2845
    8CHTO   C76 3115   6.402  10.539  -0.558  0.2885 -0.8400 -0.7784
    8CHTO  H148 3116   6.309  10.574  -0.603  0.1247 -2.8997 -2.1054
    8CHTO   O49 3117   6.417  10.400  -0.594  0.0471  0.1802 -0.1549
    8CHTO   C77 3118   6.473  10.368  -0.718 -0.0553 -0.1194  0.2638
    8CHTO  H149 3119   6.399  10.404  -0.790 -1.2850 -0.0929  1.5116
    8CHTO   C88 3120   6.479  10.215  -0.721 -0.5321  0.3011 -0.2974
    8CHTO   O58 3121   6.505  10.155  -0.850 -0.0380 -0.2637 -0.1919
    8CHTO  H136 3122   6.592  10.180  -0.877  0.1852 -0.5002  0.3108
    8CHTO   O51 3123   6.400  10.515  -0.392  0.3532  0.2829 -0.5276
    8CHTO   C78 3124   6.269  10.406  -0.341 -0.1118 -0.1020 -0.0819
    8CHTO  H150 3125   6.245  10.335  -0.423 -0.3287 -0.3989  0.2386
    8CHTO   C80 3126   6.145  10.488  -0.306 -0.3552  0.6003  0.5572
    8CHTO  H152 3127   6.173  10.569  -0.237 -1.7233 -0.4272  2.3541
    8CHTO   O55 3128   6.101  10.522  -0.437 -0.0205 -0.7747  0.1663
    8CHTO  H134 3129   6.165  10.582  -0.469 -0.8088 -0.2299 -0.4051
    8CHTO   C84 3130   6.043  10.392  -0.239  0.4136 -0.2664  0.2573
    8CHTO  H156 3131   6.022  10.325  -0.323  2.6239 -1.3676  0.5281
    8CHTO   N15 3132   5.925  10.475  -0.197  0.0907  0.0359  0.2374
    8CHTO  H143 3133   5.878  10.421  -0.117  2.2237 -2.1199  0.0848
    8CHTO  H144 3134   5.954  10.573  -0.166 -1.2046 -0.9933  5.0705
    8CHTO   C87 3135   6.096  10.304  -0.118 -0.1367  0.4480  0.4609
    8CHTO  H159 3136   6.114  10.359  -0.025  2.0388  0.5779 -0.0125
    8CHTO   O53 3137   6.219  10.239  -0.166 -0.2037  0.0935 -0.1654
    8CHTO   C82 3138   6.324  10.321  -0.225 -0.2921  0.3322  0.1580
    8CHTO  H154 3139   6.369  10.382  -0.146  0.7582  0.1727 -0.3185
    8CHTO   C89 3140   6.437  10.220  -0.275  0.0891 -0.8414  0.7855
    8CHTO   O59 3141   6.394  10.119  -0.368  0.5583 -0.0743 -0.2647
    8CHTO  H137 3142   6.330  10.057  -0.340 -1.0659  0.9175 -1.6420
    8CHTO   O45 3143   5.980  10.206  -0.095  0.0786  0.2649 -0.2764
    8CHTO   C67 3144   6.006  10.119   0.020  0.5433  0.4151  0.2973
    8CHTO  H124 3145   6.112  10.092   0.016  0.5473  0.5394 -0.5673
    8CHTO   C65 3146   5.978  10.204   0.155 -0.5035 -0.1394 -0.0460
    8CHTO  H122 3147   5.911  10.286   0.130  0.1432  0.6769  0.9054
    8CHTO   O44 3148   6.108  10.249   0.195  0.3195  0.2512 -0.1951
    8CHTO  H102 3149   6.110  10.299   0.274  3.6957  1.3473 -0.9016
    8CHTO   C63 3150   5.898  10.109   0.253 -0.6296 -0.3839 -0.1076
    8CHTO  H120 3151   5.793  10.113   0.222 -1.2441 -0.2680  1.8750
    8CHTO   N11 3152   5.879  10.168   0.388 -0.0342  0.1126 -0.3198
    8CHTO  H108 3153   5.973  10.197   0.429  0.5133 -0.2220 -1.3225
    8CHTO  H109 3154   5.789  10.146   0.442 -0.2895 -0.3172 -0.9119
    8CHTO   C61 3155   5.944   9.956   0.247  0.6512  0.3826 -0.0044
    8CHTO  H118 3156   5.860   9.900   0.290 -1.1415  1.5260 -1.9749
    8CHTO   O40 3157   5.962   9.906   0.117 -0.3738 -0.1173  0.2394
    8CHTO   C68 3158   5.929   9.994   0.007 -0.3970 -0.3286  0.3494
    8CHTO  H125 3159   5.819  10.010   0.007 -0.5851 -1.4954 -0.9465
    8CHTO   C72 3160   5.959   9.910  -0.122 -0.0877 -0.2736  0.1481
    8CHTO   O48 3161   5.906   9.779  -0.109 -0.1124 -0.1393 -0.1666
    8CHTO  H105 3162   5.976   9.717  -0.111 -0.6366 -0.7432 -0.2935
    8CHTO   O38 3163   6.066   9.926   0.321 -0.1600  0.0582  0.1579
    8CHTO   C55 3164   6.084   9.791   0.354 -0.1824  0.4775  0.2775
    8CHTO  H112 3165   6.035   9.722   0.283 -0.2435  0.5585  0.2412
    8CHTO   C56 3166   6.055   9.755   0.499  0.5509 -0.2372  0.2481
    8CHTO  H113 3167   6.123   9.818   0.558  3.8888 -1.1556 -2.4706
    8CHTO   O42 3168   5.911   9.789   0.525 -0.0628 -0.0604 -0.8880
    8CHTO  H100 3169   5.889   9.798   0.615  0.6428  0.2126 -0.7382
    8CHTO   C57 3170   6.074   9.601   0.523 -0.2004 -0.1637 -0.7759
    8CHTO  H114 3171   5.993   9.545   0.476 -0.4465 -1.1834  0.8363
    8CHTO   N10 3172   6.068   9.569   0.669  0.4236  0.2961 -0.7233
    8CHTO  H106 3173   5.966   9.561   0.705  0.1461  1.1350 -1.3270
    8CHTO  H107 3174   6.125   9.482   0.697  0.5535  0.2720 -1.0703
    8CHTO   C58 3175   6.205   9.554   0.463  0.7093  0.4938 -0.6429
    8CHTO  H115 3176   6.289   9.591   0.525  1.0760 -0.3267 -0.6355
    8CHTO   O37 3177   6.239   9.613   0.336  0.1012 -0.2796 -0.1356
    8CHTO   C59 3178   6.232   9.756   0.324  0.5174 -0.2641  0.4209
    8CHTO  H116 3179   6.288   9.820   0.393  0.4100  0.2879  0.0057
    8CHTO   C70 3180   6.276   9.786   0.180  0.6154 -0.5703  0.1547
    8CHTO   O46 3181   6.324   9.921   0.166 -0.3893  0.4303  0.3065
    8CHTO  H103 3182   6.372   9.925   0.085  1.1040  0.9715  1.2022
    8CHTO   O39 3183   6.217   9.392   0.441 -0.5263  0.1627  0.2838
    8CHTO   C60 3184   6.126   9.342   0.338 -0.4023 -0.1158 -0.2140
    8CHTO  H117 3185   6.045   9.414   0.326 -0.6818 -0.3957 -0.0219
    8CHTO   C62 3186   6.193   9.327   0.199  0.3741  0.1847  0.2787
    8CHTO  H119 3187   6.275   9.396   0.172 -1.3184  1.6790 -1.1369
    8CHTO   O43 3188   6.279   9.207   0.202 -0.2489 -0.3567  0.2525
    8CHTO  H101 3189   6.252   9.125   0.238  1.3142 -0.5559  1.0035
    8CHTO   C66 3190   6.079   9.327   0.089  0.1975 -0.3261 -0.6636
    8CHTO  H123 3191   6.017   9.411   0.118  0.1983 -1.0838  1.6980
    8CHTO   N12 3192   6.118   9.353  -0.053 -0.0878  0.3950 -0.3110
    8CHTO  H110 3193   6.029   9.379  -0.109  0.6034 -1.6473 -2.4458
    8CHTO  H111 3194   6.179   9.281  -0.106 -0.5595 -0.0166 -0.3066
    8CHTO   C69 3195   5.994   9.200   0.101  0.3705  0.3415  0.2330
    8CHTO  H126 3196   6.040   9.102   0.075 -2.2227  0.1639 -4.2233
    8CHTO   O41 3197   5.941   9.188   0.259 -0.2701 -0.0298  0.1766
    8CHTO   C64 3198   6.059   9.207   0.380 -0.5561  0.6540  0.2054
    8CHTO  H121 3199   6.127   9.119   0.379 -1.5613 -0.1699  2.0817
    8CHTO   C71 3200   5.989   9.231   0.513 -0.3141 -0.3346  0.1094
    8CHTO   O47 3201   6.078   9.237   0.634  0.2400 -0.4063 -1.0790
    8CHTO  H104 3202   6.078   9.155   0.680 -0.3728  0.8525  1.2078
    8CHTO   O34 3203   5.880   9.204   0.001  0.1463 -0.1119 -0.2825
    8CHTO   C49 3204   5.773   9.105  -0.047  0.0761 -0.7612  0.7146
    8CHTO   H91 3205   5.771   9.015   0.014 -0.4127 -1.4566 -0.3045
    8CHTO   C47 3206   5.810   9.069  -0.196 -0.1165 -0.3326  0.2983
    8CHTO   H89 3207   5.741   8.989  -0.230 -0.3703  0.4246 -1.0201
    8CHTO   O33 3208   5.939   9.022  -0.199 -0.3638 -0.4866  0.2825
    8CHTO   H70 3209   5.963   9.004  -0.288  2.7413 -0.4689  1.0725
    8CHTO   C45 3210   5.784   9.198  -0.297  0.5184 -0.1308 -0.1223
    8CHTO   H87 3211   5.884   9.239  -0.315  0.6983  0.2142  1.6483
    8CHTO    N8 3212   5.723   9.145  -0.423  0.3508  0.2111 -0.1987
    8CHTO   H75 3213   5.633   9.089  -0.399  1.9252 -1.9482  0.7853
    8CHTO   H76 3214   5.776   9.064  -0.471  1.7056  0.8647  0.1867
    8CHTO   C43 3215   5.691   9.304  -0.219 -0.5047 -0.1567 -0.0827
    8CHTO   H85 3216   5.762   9.336  -0.143  0.1201 -0.9434 -0.3192
    8CHTO   O29 3217   5.579   9.229  -0.166  0.4743  0.1228 -0.1067
    8CHTO   C50 3218   5.622   9.171  -0.039  0.1035 -0.2273 -0.2401
    8CHTO   H92 3219   5.634   9.238   0.047 -0.2743 -1.2858  0.6478
    8CHTO   C54 3220   5.508   9.068   0.008 -0.2993 -0.7808 -0.0208
    8CHTO   O36 3221   5.504   9.067   0.148  0.3275 -0.7223 -0.2109
    8CHTO   H72 3222   5.472   8.991   0.192  0.4043 -0.1247  0.8996
    8CHTO   O27 3223   5.650   9.412  -0.309 -0.2540  0.2633  0.0272
    8CHTO   C37 3224   5.563   9.526  -0.285  0.1544  0.0669 -0.6581
    8CHTO   H79 3225   5.459   9.493  -0.266  0.8077 -1.9676 -0.4576
    8CHTO   C38 3226   5.606   9.607  -0.160 -0.8738 -0.2772 -0.1155
    8CHTO   H80 3227   5.713   9.630  -0.169 -0.9134 -0.0897 -0.1083
    8CHTO   O31 3228   5.586   9.531  -0.035 -0.0900 -0.0908 -0.3252
    8CHTO   H68 3229   5.610   9.578   0.042  0.5197 -0.3575 -0.3503
    8CHTO   C39 3230   5.536   9.751  -0.159  0.6811 -0.5267 -0.2012
    8CHTO   H81 3231   5.432   9.732  -0.131  1.0777 -0.3104  1.4893
    8CHTO    N7 3232   5.581   9.848  -0.055  0.2301  0.6857  0.0483
    8CHTO   H73 3233   5.658   9.901  -0.109  1.6156 -3.5943 -2.4769
    8CHTO   H74 3234   5.508   9.926  -0.039 -0.1808  0.4562 -0.6842
    8CHTO   C40 3235   5.517   9.815  -0.299 -0.8056 -0.6229 -0.0491
    8CHTO   H82 3236   5.614   9.855  -0.330 -1.3826  0.9394  0.1282
    8CHTO   O26 3237   5.464   9.716  -0.386 -0.4428  0.1777 -0.0704
    8CHTO   C41 3238   5.570   9.615  -0.409  0.1635 -0.3878 -0.1527
    8CHTO   H83 3239   5.670   9.655  -0.432 -0.2523  0.5662 -0.2941
    8CHTO   C52 3240   5.532   9.536  -0.537  0.6301  0.2997 -0.6331
    8CHTO   O35 3241   5.372   9.470  -0.533  0.0385  0.5228  0.5197
    8CHTO   H71 3242   5.375   9.384  -0.569  0.0080  1.0723 -0.8440
    8CHTO   O28 3243   5.431   9.926  -0.297 -0.4777  0.0254 -0.8296
    8CHTO   C42 3244   5.429  10.021  -0.410  0.0180 -0.1659  0.2675
    8CHTO   H84 3245   5.344  10.085  -0.388  0.1293 -0.0313  0.3069
    8CHTO   C44 3246   5.397   9.952  -0.551 -0.1654  0.7082 -0.7692
    8CHTO   H86 3247   5.481   9.891  -0.584 -1.1396 -1.8882  1.3890
    8CHTO   O32 3248   5.274   9.872  -0.522 -0.2747 -0.0178  0.0248
    8CHTO   H69 3249   5.198   9.927  -0.521  0.3631  0.8717  1.5713
    8CHTO   C48 3250   5.366  10.063  -0.666 -0.4439  0.4504 -0.0013
    8CHTO   H90 3251   5.288  10.133  -0.635 -0.7194 -1.2280  3.3098
    8CHTO    N9 3252   5.319   9.998  -0.794 -0.1528  0.7943  0.5271
    8CHTO   H77 3253   5.217  10.030  -0.812 -1.1884 -2.2206  0.7441
    8CHTO   H78 3254   5.386  10.038  -0.868 -0.0504  1.8716  1.2025
    8CHTO   C51 3255   5.499  10.153  -0.675 -0.2163 -0.2890 -0.7508
    8CHTO   H93 3256   5.580  10.083  -0.698  0.3887  0.4647 -0.9238
    8CHTO   O30 3257   5.520  10.208  -0.545 -0.5396  0.2128 -0.1702
    8CHTO   C46 3258   5.554  10.110  -0.439  0.1821 -0.1374 -0.8317
    8CHTO   H88 3259   5.633  10.045  -0.477  2.0642  0.6931  1.5007
    8CHTO   C53 3260   5.586  10.192  -0.314  0.7748 -0.4011  0.1168
    8CHTO   O72 3261   5.705  10.277  -0.326  0.0141  0.2293  0.8724
    8CHTO  H199 3262   5.728  10.311  -0.242 -1.2762  0.8070  1.0014
    8CHTO   O22 3263   5.487  10.265  -0.769  0.0544  0.0812  0.1955
    8CHTO   C31 3264   5.604  10.321  -0.841  0.2711 -0.6347  0.0978
    8CHTO   H59 3265   5.568  10.418  -0.881 -0.0984 -1.8562 -2.6470
    8CHTO   C29 3266   5.722  10.354  -0.748  0.2284 -0.6896  0.1002
    8CHTO   H57 3267   5.748  10.261  -0.695 -0.6652 -0.1571  1.4933
    8CHTO   O21 3268   5.684  10.438  -0.642 -0.3581  0.2559 -0.3882
    8CHTO   H37 3269   5.708  10.397  -0.561 -0.3210 -3.1501 -2.0204
    8CHTO   C27 3270   5.845  10.405  -0.831  0.3669  0.0048 -0.0077
    8CHTO   H55 3271   5.816  10.502  -0.875  0.9749  0.2800  0.2025
    8CHTO    N5 3272   5.959  10.425  -0.742 -0.3122 -0.1321  0.0159
    8CHTO   H43 3273   6.036  10.482  -0.791  0.6505  0.4929  2.2102
    8CHTO   H44 3274   5.927  10.472  -0.651  2.0811  0.6216  0.4969
    8CHTO   C25 3275   5.878  10.305  -0.949 -0.0018  0.1606 -0.3451
    8CHTO   H53 3276   5.886  10.205  -0.905 -4.8490 -0.0394  0.4631
    8CHTO   O17 3277   5.766  10.298  -1.032  1.1135 -0.1750 -0.0758
    8CHTO   C32 3278   5.650  10.235  -0.966 -1.0103  0.0694 -0.2908
    8CHTO   H60 3279   5.687  10.136  -0.938  1.2333  0.8508 -0.3888
    8CHTO   C36 3280   5.526  10.236  -1.061  0.4615  0.1817  0.3822
    8CHTO   O25 3281   5.508  10.106  -1.122  0.6954  0.3397 -0.3177
    8CHTO   H40 3282   5.417  10.093  -1.139  0.3965 -2.1398  2.8161
    8CHTO   O15 3283   6.027  10.356  -1.027 -0.1195  0.3675 -0.1237
    8CHTO   C19 3284   6.156  10.339  -1.095  0.1075  0.5715 -0.1582
    8CHTO   H47 3285   6.128  10.283  -1.186  2.9068  0.3845 -0.9431
    8CHTO   C20 3286   6.235  10.476  -1.118 -0.0381  0.0702 -0.7834
    8CHTO   H48 3287   6.257  10.528  -1.023  0.1022 -0.9984 -0.2240
    8CHTO   O19 3288   6.151  10.575  -1.194 -0.2366 -0.1399  0.0163
    8CHTO   H35 3289   6.208  10.646  -1.216  0.8521 -0.4978  1.6080
    8CHTO   C21 3290   6.371  10.439  -1.203  0.6681 -0.4932  0.1890
    8CHTO   H49 3291   6.335  10.402  -1.299 -0.6456  1.6918 -0.2050
    8CHTO    N4 3292   6.446  10.561  -1.237 -0.5199 -0.5515  0.1479
    8CHTO   H41 3293   6.457  10.616  -1.146  2.9281 -0.7853 -0.0803
    8CHTO   H42 3294   6.543  10.537  -1.278 -0.0660  1.0576  0.2788
    8CHTO   C22 3295   6.449  10.327  -1.137 -0.2650 -0.2608 -0.9942
    8CHTO   H50 3296   6.489  10.368  -1.044  1.4605 -2.8446 -0.5641
    8CHTO   O14 3297   6.364  10.215  -1.106  0.2214  0.3815  0.3499
    8CHTO   C23 3298   6.246  10.236  -1.023 -0.0732  0.4464  0.0748
    8CHTO   H51 3299   6.274  10.269  -0.922  1.5745 -1.9601  0.4371
    8CHTO   C34 3300   6.177  10.099  -1.004 -0.1889 -0.5842 -0.5133
    8CHTO   O23 3301   6.232  10.018  -0.904 -0.1411  0.1613 -0.3437
    8CHTO   H38 3302   6.203   9.929  -0.908  1.6745 -0.4955  0.5178
    8CHTO   O16 3303   6.560  10.275  -1.219  0.2207  0.1764 -0.1372
    8CHTO   C24 3304   6.677  10.215  -1.137  0.0566  0.2213 -0.4206
    8CHTO   H52 3305   6.651  10.204  -1.032 -1.2468  1.3831 -0.5970
    8CHTO   C26 3306   6.801  10.303  -1.152  0.3124  0.5538  0.6471
    8CHTO   H54 3307   6.828  10.304  -1.260 -0.8603  0.2587  0.3487
    8CHTO   O20 3308   6.768  10.430  -1.097 -0.6455  0.5085  0.3063
    8CHTO   H36 3309   6.838  10.452  -1.038  0.6061 -1.5963 -0.3513
    8CHTO   C30 3310   6.918  10.227  -1.077 -0.1599 -0.6485  0.3479
    8CHTO   H58 3311   6.893  10.234  -0.970 -2.0843  1.2096 -0.1905
    8CHTO    N6 3312   7.043  10.305  -1.090 -0.4267  0.6179 -0.3708
    8CHTO   H45 3313   7.100  10.274  -1.176 -2.2116 -2.2928 -0.5654
    8CHTO   H46 3314   7.097  10.289  -0.998  0.5841  0.0421 -1.0631
    8CHTO   C33 3315   6.937  10.078  -1.113 -0.0524  0.5442 -0.0907
    8CHTO   H61 3316   6.983  10.068  -1.212  0.6521 -1.2955  0.4026
    8CHTO   O18 3317   6.814  10.011  -1.116 -0.0953 -0.4354  0.0975
    8CHTO   C28 3318   6.705  10.069  -1.192 -0.2599  0.4280 -0.7804
    8CHTO   H56 3319   6.725  10.065  -1.299  1.2595  2.0136 -0.5676
    8CHTO   C35 3320   6.588   9.979  -1.178 -0.1453 -0.1020  0.1949
    8CHTO   O24 3321   6.610   9.845  -1.234 -0.1964 -0.1176  0.4630
    8CHTO   H39 3322   6.654   9.792  -1.171 -0.4978  1.2374  1.8274
    8CHTO    O9 3323   7.030  10.017  -1.022 -0.4611  0.6921 -0.5383
    8CHTO   C13 3324   7.098   9.893  -1.076 -0.9850  0.6114 -0.0801
    8CHTO   H26 3325   7.131   9.907  -1.181 -1.4132 -0.4972 -0.3686
    8CHTO   C11 3326   6.998   9.769  -1.072  0.0542 -0.0234 -0.3061
    8CHTO   H24 3327   6.916   9.788  -1.143 -0.3107  0.2756  0.1890
    8CHTO    O8 3328   6.930   9.771  -0.940  0.3312 -0.0195 -0.1258
    8CHTO    H3 3329   6.868   9.702  -0.946 -0.0077  0.1419  1.4512
    8CHTO    C9 3330   7.081   9.646  -1.109 -0.6105 -0.4932 -0.3071
    8CHTO   H22 3331   7.127   9.671  -1.205 -1.9344  2.0517 -0.3058
    8CHTO    N2 3332   6.989   9.530  -1.143 -0.0372 -0.2860  0.2899
    8CHTO   H10 3333   7.040   9.436  -1.126  1.6395  0.7218  0.9894
    8CHTO   H11 3334   6.978   9.540  -1.250  3.1542 -2.0983 -0.2896
    8CHTO    C7 3335   7.183   9.629  -0.991  0.0583  0.4552  0.2067
    8CHTO   H20 3336   7.274   9.586  -1.038 -0.0000 -0.6168  1.0570
    8CHTO    O4 3337   7.221   9.749  -0.920  0.0913 -0.2205  0.2553
    8CHTO   C14 3338   7.239   9.858  -1.004  0.4031 -0.8509  0.2385
    8CHTO   H27 3339   7.311   9.832  -1.084 -2.2623 -1.2371 -2.1347
    8CHTO   C18 3340   7.294   9.982  -0.920  0.2225 -0.7473 -0.4361
    8CHTO   O13 3341   7.435   9.975  -0.909 -0.1050 -0.3907  0.1808
    8CHTO    H7 3342   7.463   9.987  -0.821  0.9558  1.2208 -0.3453
    8CHTO    O2 3343   7.134   9.501  -0.868 -0.4360  0.1990  0.3939
    8CHTO    C1 3344   7.232   9.410  -0.806 -0.2196 -0.2984 -0.0861
    8CHTO   H14 3345   7.231   9.441  -0.699 -1.3435  1.2058 -0.5016
    8CHTO    C2 3346   7.378   9.421  -0.862 -0.5977 -0.2358 -0.1755
    8CHTO   H15 3347   7.382   9.423  -0.972  0.1875  1.7002 -0.1323
    8CHTO    O6 3348   7.421   9.554  -0.824 -0.2214  0.0053  0.3078
    8CHTO    H1 3349   7.473   9.602  -0.886  0.4253  1.7532  2.1718
    8CHTO    C3 3350   7.472   9.315  -0.801  0.5410 -0.2502 -0.0802
    8CHTO   H16 3351   7.473   9.339  -0.694 -0.8717 -1.8089  0.2966
    8CHTO    N1 3352   7.610   9.324  -0.851  0.2797  0.1799 -0.0275
    8CHTO    H8 3353   7.634   9.422  -0.889  2.5047  0.7222  2.6301
    8CHTO    H9 3354   7.695   9.296  -0.790 -0.2260  1.2809  1.2079
    8CHTO    C4 3355   7.412   9.171  -0.816 -0.0672 -0.3051  0.4579
    8CHTO   H17 3356   7.419   9.138  -0.920 -2.1523 -1.0898  0.5478
    8CHTO    O1 3357   7.279   9.170  -0.764  0.8075  0.3439  0.2111
    8CHTO    C5 3358   7.188   9.269  -0.826  0.0112 -0.5732  0.1671
    8CHTO   H18 3359   7.181   9.260  -0.934  0.2434  0.0943  0.0958
    8CHTO   C16 3360   7.048   9.239  -0.768  0.4079 -0.2107 -0.8054
    8CHTO   O11 3361   7.047   9.261  -0.625  0.0147 -0.4476  0.2808
    8CHTO    H5 3362   7.106   9.207  -0.575  0.6596  0.8853  0.9854
    8CHTO    O3 3363   7.488   9.075  -0.731  0.5994 -0.0938 -0.1967
    8CHTO    C6 3364   7.474   8.932  -0.781 -0.2478  0.4011  0.0839
    8CHTO   H19 3365   7.417   8.922  -0.873 -2.7545 -0.1690  1.6765
    8CHTO    C8 3366   7.617   8.892  -0.827  0.1094 -0.5554  0.0212
    8CHTO   H21 3367   7.687   8.900  -0.743  0.6027  0.8909 -0.5123
    8CHTO    O7 3368   7.656   8.986  -0.934 -0.2608 -0.6037  0.0107
    8CHTO    H2 3369   7.584   9.001  -0.991  1.2115  1.7265 -1.3294
    8CHTO   C12 3370   7.621   8.740  -0.882 -1.1636  0.3873 -0.4286
    8CHTO   H25 3371   7.555   8.730  -0.971 -0.0679  1.7286 -1.4226
    8CHTO    N3 3372   7.767   8.705  -0.922  0.0982  0.0561 -0.5804
    8CHTO   H12 3373   7.798   8.782  -0.991 -0.0016 -0.1620 -0.8681
    8CHTO   H13 3374   7.834   8.718  -0.838 -0.9572  2.4385 -0.0597
    8CHTO   C15 3375   7.563   8.643  -0.770  0.6286  0.9104  0.3163
    8CHTO   H28 3376   7.629   8.644  -0.683 -0.0978  0.5412  0.8805
    8CHTO   O10 3377   7.535   8.496  -0.821 -0.5019  0.0851 -0.2534
    8CHTO    H4 3378   7.472   8.491  -0.891 -3.0315  1.4160  1.8263
    8CHTO    O5 3379   7.429   8.694  -0.738 -0.5803  0.6245 -0.6622
    8CHTO   C10 3380   7.424   8.829  -0.680 -0.0260  0.9965  0.2871
    8CHTO   H23 3381   7.478   8.835  -0.586  1.6316 -1.2699 -0.4976
    8CHTO   C17 3382   7.276   8.861  -0.648  0.8826 -0.7500  0.1774
    8CHTO   O12 3383   7.209   8.748  -0.582  0.1136  0.1426  0.3920
    8CHTO    H6 3384   7.159   8.702  -0.646  0.2838 -1.5579  1.4522
    9CHTO  H203 3385   7.234   5.333   5.370 -3.0998  0.1365  2.0363
    9CHTO   O82 3386   7.185   5.294   5.300  0.2561 -0.1009 -0.2758
    9CHTO  C123 3387   7.262   5.269   5.179  0.0383  0.1390 -0.1694
    9CHTO  H227 3388   7.371   5.278   5.194  0.2561 -2.3866 -0.1030
    9CHTO   O77 3389   7.240   5.130   5.150  0.2984 -0.7269 -0.8507
    9CHTO  C118 3390   7.330   5.089   5.045  0.1022 -0.3002 -0.7211
    9CHTO  H222 3391   7.432   5.109   5.079 -0.3750 -0.4673  0.8782
    9CHTO  C125 3392   7.310   4.930   5.034  0.1110  0.1370 -0.0377
    9CHTO   O84 3393   7.300   4.845   5.156  0.1364  0.1321  0.2765
    9CHTO  H205 3394   7.271   4.759   5.131  0.9307 -0.6186  1.8956
    9CHTO  C114 3395   7.306   5.164   4.916 -0.0062 -0.5649 -0.3431
    9CHTO  H218 3396   7.202   5.154   4.882 -0.2203 -1.5091  0.5773
    9CHTO  C116 3397   7.307   5.322   4.935  0.0337 -0.2581  0.3029
    9CHTO  H220 3398   7.405   5.360   4.968  1.5970 -4.2155  0.5227
    9CHTO   O79 3399   7.276   5.393   4.813  0.4143  0.0732 -0.3487
    9CHTO  H201 3400   7.286   5.330   4.744 -1.4963  0.7114 -1.2583
    9CHTO  C120 3401   7.213   5.362   5.055  0.1369 -0.0003  0.1645
    9CHTO  H224 3402   7.107   5.341   5.028 -0.5893  0.8000  2.2643
    9CHTO   N21 3403   7.215   5.509   5.086 -0.2212 -0.1884 -0.0188
    9CHTO  H211 3404   7.138   5.573   5.047 -0.6225 -0.3589  0.4808
    9CHTO  H212 3405   7.242   5.545   5.184  2.0558  1.1999 -1.1193
    9CHTO   O75 3406   7.413   5.117   4.831 -0.4363  0.9295 -0.3731
    9CHTO  C112 3407   7.369   4.996   4.708 -0.3519  0.0425  0.4341
    9CHTO  H216 3408   7.260   4.980   4.704 -0.3984 -0.1190  2.0219
    9CHTO   O73 3409   7.440   4.873   4.734 -0.0828  0.7161  0.2605
    9CHTO  C113 3410   7.416   4.766   4.639  0.3882 -0.1928  0.5018
    9CHTO  H217 3411   7.307   4.744   4.643  0.7093 -2.5787 -2.5600
    9CHTO  C124 3412   7.497   4.647   4.689 -0.0313 -0.5745 -0.3052
    9CHTO   O83 3413   7.640   4.667   4.677 -0.1676 -0.8869  0.0590
    9CHTO  H204 3414   7.684   4.605   4.731 -1.9203  0.0366  2.6326
    9CHTO  C109 3415   7.447   4.812   4.489  0.0468 -0.2216 -0.0604
    9CHTO  H213 3416   7.556   4.821   4.481  0.3930 -3.3935  0.4903
    9CHTO  C110 3417   7.380   4.947   4.455 -0.0437 -0.0117  0.0920
    9CHTO  H214 3418   7.272   4.937   4.463  0.2290 -1.2371  2.8023
    9CHTO   O78 3419   7.406   4.988   4.315  0.2619 -0.5418  0.0342
    9CHTO  H200 3420   7.360   5.066   4.291  0.1585 -0.9553 -1.1665
    9CHTO  C111 3421   7.416   5.053   4.567  0.1148  0.1848 -0.1428
    9CHTO  H215 3422   7.525   5.065   4.571  0.2123 -1.0043  1.6721
    9CHTO   N19 3423   7.354   5.187   4.551 -0.1314 -0.1144 -0.1384
    9CHTO  H207 3424   7.288   5.173   4.466 -1.3479  0.9593  0.6062
    9CHTO  H208 3425   7.420   5.267   4.521 -1.5803  0.7947 -0.9935
    9CHTO   O74 3426   7.409   4.707   4.393 -0.1342 -0.7020 -0.2142
    9CHTO  C115 3427   7.525   4.636   4.308  0.3275  0.5394 -0.0257
    9CHTO  H219 3428   7.600   4.709   4.278 -1.2573  2.1838 -0.0968
    9CHTO   O76 3429   7.607   4.524   4.391  0.1019 -0.3186 -0.0424
    9CHTO  C122 3430   7.521   4.413   4.422  0.1227 -0.0984 -0.0325
    9CHTO  H226 3431   7.448   4.449   4.494  1.6390  1.4669  0.7677
    9CHTO  C126 3432   7.607   4.301   4.498 -0.2416  0.0097 -0.3466
    9CHTO   O85 3433   7.689   4.356   4.600 -0.2427 -0.2347  0.0142
    9CHTO  H206 3434   7.775   4.318   4.602 -0.5257 -0.9413 -0.9300
    9CHTO  C121 3435   7.467   4.350   4.292  0.0669  0.6185  1.0969
    9CHTO  H225 3436   7.547   4.310   4.226 -1.1117 -0.2932  0.1981
    9CHTO   O81 3437   7.385   4.235   4.326  0.7850  0.0646  0.1532
    9CHTO  H202 3438   7.312   4.257   4.380 -0.0660  2.1208 -1.7391
    9CHTO  C119 3439   7.379   4.450   4.214 -0.3980  0.3799 -0.7684
    9CHTO  H223 3440   7.349   4.399   4.123 -0.1160  0.5536 -0.9566
    9CHTO  C117 3441   7.466   4.580   4.175  0.0919 -0.2758  0.1399
    9CHTO  H221 3442   7.413   4.666   4.133  0.0342 -1.2981 -1.8922
    9CHTO   N20 3443   7.573   4.549   4.076  0.0750 -0.3160 -0.7634
    9CHTO  H209 3444   7.634   4.633   4.047  0.3957 -0.7701 -1.4070
    9CHTO  H210 3445   7.526   4.522   3.983 -0.1903 -2.0828 -0.1426
    9CHTO   O80 3446   7.247   4.472   4.273  0.0799 -0.9462 -0.8113
    9CHTO  C103 3447   7.135   4.564   4.188  0.2257  0.3709 -0.5117
    9CHTO  H190 3448   7.164   4.669   4.194 -1.2473  0.7641 -0.3020
    9CHTO  C101 3449   7.099   4.529   4.040 -0.2852  0.2712 -0.1501
    9CHTO  H188 3450   7.082   4.422   4.028  0.6976 -0.0205  0.9439
    9CHTO   O68 3451   7.228   4.559   3.947  0.0935 -0.6177 -0.8285
    9CHTO  H168 3452   7.293   4.495   3.966  1.3518  1.2208  1.3770
    9CHTO   C99 3453   6.975   4.618   3.997  0.2284  0.2884  0.3600
    9CHTO  H186 3454   7.005   4.723   3.977  2.0648 -0.3483 -0.2614
    9CHTO   N17 3455   6.930   4.586   3.862  0.0993  0.6367  0.1264
    9CHTO  H174 3456   7.011   4.583   3.791 -0.1111  0.6179 -0.1118
    9CHTO  H175 3457   6.866   4.499   3.859  0.0699  0.6598  0.0852
    9CHTO   C97 3458   6.861   4.618   4.104  0.0454 -0.0754 -0.2245
    9CHTO  H184 3459   6.818   4.517   4.091 -0.9860  0.2741  0.3666
    9CHTO   O64 3460   6.901   4.639   4.233 -0.5954 -0.1024 -0.1678
    9CHTO  C104 3461   7.008   4.555   4.281  0.0056  0.5742 -0.3141
    9CHTO  H191 3462   6.976   4.451   4.284  1.1606  0.2505  1.2280
    9CHTO  C108 3463   7.036   4.594   4.425  0.2312  0.2481  0.0831
    9CHTO   O71 3464   7.092   4.720   4.443  0.2872  0.3129  0.2038
    9CHTO  H171 3465   7.043   4.778   4.498  0.7705  0.6025  0.3355
    9CHTO   O62 3466   6.767   4.728   4.090 -0.3718  0.1894  0.0313
    9CHTO   C91 3467   6.637   4.700   4.039 -0.1951  0.5775  0.8280
    9CHTO  H178 3468   6.649   4.640   3.948  2.0229  1.5928  0.4273
    9CHTO   C92 3469   6.563   4.831   3.985 -1.3052  0.4900 -0.2755
    9CHTO  H179 3470   6.638   4.883   3.923 -0.8045  1.1159  0.8477
    9CHTO   O66 3471   6.458   4.796   3.892  0.2445 -0.2052  0.1044
    9CHTO  H166 3472   6.485   4.822   3.806 -1.6771 -0.9509 -0.7432
    9CHTO   C93 3473   6.504   4.917   4.104 -0.7192  0.3617 -0.5554
    9CHTO  H180 3474   6.430   4.988   4.063 -1.0588  0.1324 -0.3399
    9CHTO   N16 3475   6.606   5.003   4.163 -0.9292 -0.3318 -0.4494
    9CHTO  H172 3476   6.575   5.078   4.234 -0.7325 -0.6977  0.0292
    9CHTO  H173 3477   6.679   4.942   4.214 -0.7378  0.8925  0.7806
    9CHTO   C94 3478   6.429   4.822   4.208  0.0265 -0.1356  0.1904
    9CHTO  H181 3479   6.472   4.829   4.308 -1.7160 -0.0633  0.9383
    9CHTO   O61 3480   6.423   4.686   4.167  0.3136  0.3352 -0.4063
    9CHTO   C95 3481   6.550   4.619   4.145  0.3916 -0.8912 -0.4506
    9CHTO  H182 3482   6.597   4.598   4.241 -0.7711  0.6813  0.5046
    9CHTO  C106 3483   6.528   4.468   4.088 -0.1534 -0.7510 -0.3101
    9CHTO   O69 3484   6.464   4.386   4.189  0.3072  0.4342  0.4309
    9CHTO  H169 3485   6.374   4.383   4.162  0.6368 -2.7796 -0.5209
    9CHTO   O63 3486   6.292   4.864   4.223  0.0286  0.1802 -0.1225
    9CHTO   C96 3487   6.244   4.859   4.392  0.4679  0.2531  0.5312
    9CHTO  H183 3488   6.330   4.864   4.459  0.1183 -1.1448  1.0947
    9CHTO   C98 3489   6.144   4.742   4.430 -0.2665  0.0718 -0.0222
    9CHTO  H185 3490   6.057   4.744   4.362 -0.4708  1.9497  0.2721
    9CHTO   O67 3491   6.211   4.611   4.404  0.5834  0.2665 -0.0996
    9CHTO  H167 3492   6.289   4.606   4.455  0.5293 -1.0090 -0.1214
    9CHTO  C102 3493   6.079   4.757   4.581 -0.5967  0.2613  0.9964
    9CHTO  H189 3494   6.166   4.741   4.647  1.1158  0.5924 -1.1202
    9CHTO   N18 3495   5.973   4.660   4.630  0.5471  0.2005 -0.3064
    9CHTO  H176 3496   5.928   4.603   4.551 -0.3924  1.5713 -0.7799
    9CHTO  H177 3497   6.009   4.592   4.706 -1.2866  0.1027  0.4900
    9CHTO  C105 3498   6.035   4.899   4.606  0.3712 -0.1866  0.5372
    9CHTO  H192 3499   5.943   4.912   4.549 -0.1159 -1.2867  1.0542
    9CHTO   O65 3500   6.130   5.002   4.563 -0.5250 -0.2982  0.0305
    9CHTO  C100 3501   6.176   4.991   4.427 -0.0492 -0.2396  0.7265
    9CHTO  H187 3502   6.093   4.987   4.356  1.3206  0.8016 -0.9585
    9CHTO  C107 3503   6.271   5.109   4.394  0.5431  0.4545  0.1428
    9CHTO   O70 3504   6.194   5.234   4.391 -0.6097 -0.2289 -0.1017
    9CHTO  H170 3505   6.255   5.301   4.367  0.0064 -0.4816  0.7265
    9CHTO   O57 3506   5.984   4.930   4.768 -0.2804  0.7603 -0.3912
    9CHTO   C85 3507   5.855   4.981   4.797 -0.5250  0.6110 -0.0766
    9CHTO  H157 3508   5.781   4.902   4.772 -1.0518  1.1230 -0.1502
    9CHTO   C83 3509   5.815   5.105   4.710  0.6662  0.1457  0.8252
    9CHTO  H155 3510   5.810   5.082   4.604  1.1165  0.7339  0.6725
    9CHTO   O56 3511   5.924   5.198   4.712  0.3870 -0.3218  0.4377
    9CHTO  H135 3512   5.972   5.197   4.792  1.9226 -1.9563 -0.4567
    9CHTO   C81 3513   5.678   5.160   4.761 -0.1392  0.0658  0.3531
    9CHTO  H153 3514   5.612   5.074   4.768  0.9288 -1.0637 -2.9874
    9CHTO   N14 3515   5.615   5.253   4.664  0.4444  0.1248 -0.2242
    9CHTO  H141 3516   5.694   5.299   4.608  1.0989 -1.0055 -0.2483
    9CHTO  H142 3517   5.548   5.209   4.593 -0.0587 -0.4267  0.5891
    9CHTO   C79 3518   5.690   5.222   4.900  0.6751 -0.4029  0.3451
    9CHTO  H151 3519   5.592   5.254   4.936  1.5381  2.3083  0.3928
    9CHTO   O52 3520   5.724   5.105   4.989  0.2458 -0.1710 -0.0062
    9CHTO   C86 3521   5.839   5.029   4.948 -0.2187  1.1112  0.4440
    9CHTO  H158 3522   5.925   5.089   4.985  1.2064  0.1434 -1.2010
    9CHTO   C90 3523   5.841   4.896   5.028  0.4524  0.0082  0.2913
    9CHTO   O60 3524   5.810   4.911   5.164  0.5118  0.0993 -0.4137
    9CHTO  H138 3525   5.836   4.838   5.216  1.1486 -0.5654 -1.6435
    9CHTO   O50 3526   5.783   5.325   4.923 -0.2501  0.1994  0.5243
    9CHTO   C73 3527   5.808   5.455   4.972  0.5751 -0.2966  0.0677
    9CHTO  H145 3528   5.738   5.480   5.053  0.5531 -3.4520  1.0900
    9CHTO   C74 3529   5.796   5.563   4.861 -0.3490 -0.5717  0.2323
    9CHTO  H146 3530   5.688   5.562   4.837 -0.5813 -0.0428  1.2159
    9CHTO   O54 3531   5.814   5.690   4.927 -0.3309 -0.1862 -0.1220
    9CHTO  H133 3532   5.900   5.696   4.965  0.7591  0.4061 -2.5973
    9CHTO   C75 3533   5.884   5.532   4.739  0.0877 -1.0454 -0.2422
    9CHTO  H147 3534   5.861   5.434   4.694  0.0841 -1.0051 -0.3285
    9CHTO   N13 3535   5.859   5.629   4.629  0.3990 -0.5735  0.0703
    9CHTO  H139 3536   5.878   5.729   4.666  0.2601 -0.7426  0.6096
    9CHTO  H140 3537   5.753   5.618   4.608  0.7237 -2.3298 -0.7020
    9CHTO   C76 3538   6.032   5.517   4.793 -0.8441 -0.5546  0.7913
    9CHTO  H148 3539   6.071   5.616   4.813  0.1854 -0.8250  0.1715
    9CHTO   O49 3540   6.042   5.428   4.910 -0.7109  0.1810  1.0216
    9CHTO   C77 3541   5.954   5.455   5.022  0.6488 -0.6137  0.0900
    9CHTO  H149 3542   5.976   5.558   5.050  0.1091 -0.7352  0.9722
    9CHTO   C88 3543   5.983   5.359   5.136 -0.1970  0.3495 -0.4738
    9CHTO   O58 3544   5.922   5.395   5.260  0.2660 -0.2589 -0.2044
    9CHTO  H136 3545   5.972   5.352   5.326 -1.6913 -0.8563  0.9368
    9CHTO   O51 3546   6.127   5.422   4.672 -0.0326 -0.2954  0.6752
    9CHTO   C78 3547   6.283   5.461   4.678  0.0048  0.6889 -0.0797
    9CHTO  H150 3548   6.310   5.494   4.781 -0.2260  0.1602  0.1567
    9CHTO   C80 3549   6.313   5.566   4.566  0.4131 -1.3263  0.1751
    9CHTO  H152 3550   6.277   5.522   4.471 -0.1446  1.2877 -0.8671
    9CHTO   O55 3551   6.242   5.691   4.591 -0.1707 -0.4578 -0.3564
    9CHTO  H134 3552   6.240   5.754   4.522 -0.2491 -0.9543 -0.8073
    9CHTO   C84 3553   6.470   5.584   4.565  0.7083 -0.3391  1.2599
    9CHTO  H156 3554   6.498   5.629   4.660  2.4529  1.8848 -0.2523
    9CHTO   N15 3555   6.510   5.681   4.457 -0.0824  0.5404 -0.7515
    9CHTO  H143 3556   6.615   5.690   4.443 -0.0579  1.2510 -0.1211
    9CHTO  H144 3557   6.465   5.643   4.367 -0.3974 -2.6620  0.6899
    9CHTO   C87 3558   6.543   5.447   4.543 -0.1726  0.4875 -0.4459
    9CHTO  H159 3559   6.515   5.390   4.454 -0.7078 -0.5411  0.3797
    9CHTO   O53 3560   6.506   5.360   4.670 -0.1175  0.5192 -0.0158
    9CHTO   C82 3561   6.364   5.332   4.664  0.8683 -0.3701  0.0404
    9CHTO  H154 3562   6.344   5.284   4.568  1.9539 -1.5055  0.3581
    9CHTO   C89 3563   6.323   5.231   4.776 -0.0742  0.2944  0.3311
    9CHTO   O59 3564   6.404   5.111   4.758 -0.4054 -0.4278 -0.4841
    9CHTO  H137 3565   6.402   5.060   4.837 -0.6287  0.1889 -0.0932
    9CHTO   O45 3566   6.710   5.472   4.527 -0.1063 -0.3112 -0.0474
    9CHTO   C67 3567   6.785   5.366   4.590 -0.3761  0.6443  0.7095
    9CHTO  H124 3568   6.732   5.327   4.678 -0.1165 -1.1254  0.1063
    9CHTO   C65 3569   6.799   5.243   4.490  0.5899  0.3428  0.2241
    9CHTO  H122 3570   6.804   5.274   4.385  0.1443  0.6636  0.2979
    9CHTO   O44 3571   6.684   5.157   4.511  0.3896 -0.3462  0.3702
    9CHTO  H102 3572   6.703   5.077   4.465  1.1096  0.7078 -1.1884
    9CHTO   C63 3573   6.946   5.169   4.505  0.4649 -0.1289 -0.0128
    9CHTO  H120 3574   7.018   5.228   4.447  0.2511 -0.5484 -0.7174
    9CHTO   N11 3575   6.961   5.036   4.434 -0.7028 -0.4381 -0.1582
    9CHTO  H108 3576   6.983   4.957   4.502  0.5312 -0.8359 -1.0163
    9CHTO  H109 3577   6.864   5.019   4.390 -1.8246 -0.0810  2.0878
    9CHTO   C61 3578   6.975   5.177   4.663  0.0242 -0.3963 -0.3504
    9CHTO  H118 3579   7.068   5.117   4.670 -1.0646 -1.9616  1.0678
    9CHTO   O40 3580   6.997   5.312   4.718 -1.1297  0.7042 -0.0404
    9CHTO   C68 3581   6.927   5.417   4.643 -0.4804  0.6297  0.8349
    9CHTO  H125 3582   6.995   5.443   4.560  1.6869  3.3753  3.3678
    9CHTO   C72 3583   6.925   5.538   4.738 -0.0735  0.2636  0.3768
    9CHTO   O48 3584   6.879   5.658   4.678  0.1402  0.6025 -0.0167
    9CHTO  H105 3585   6.861   5.717   4.748  0.5671 -1.0717  1.5357
    9CHTO   O38 3586   6.873   5.116   4.737  0.8957  0.0168  0.1134
    9CHTO   C55 3587   6.894   5.062   4.870  0.2816  0.0022  0.3646
    9CHTO  H112 3588   6.976   5.110   4.926  1.0378  0.2599 -0.9329
    9CHTO   C56 3589   6.912   4.907   4.867  0.3880 -0.1206  0.0162
    9CHTO  H113 3590   6.822   4.872   4.815  0.5802  2.0832 -1.8832
    9CHTO   O42 3591   7.033   4.868   4.803 -0.3913  0.1810 -0.5208
    9CHTO  H100 3592   7.113   4.886   4.850 -0.9676  1.2764  0.0681
    9CHTO   C57 3593   6.914   4.840   5.010 -0.2122 -0.0611 -0.0736
    9CHTO  H114 3594   7.003   4.878   5.059 -1.6515  2.6596  0.5207
    9CHTO   N10 3595   6.910   4.687   5.010 -0.1521  0.1760  0.7652
    9CHTO  H106 3596   6.815   4.637   5.022  0.3332 -1.2299 -0.9269
    9CHTO  H107 3597   6.959   4.642   4.925 -0.1430  1.2568  0.1929
    9CHTO   C58 3598   6.790   4.887   5.084 -0.0113 -0.1510  1.0988
    9CHTO  H115 3599   6.699   4.839   5.043 -0.1710  2.1192 -1.3488
    9CHTO   O37 3600   6.775   5.029   5.079  0.4782  0.4137 -0.4586
    9CHTO   C59 3601   6.769   5.090   4.951 -0.1868  0.5724  0.7632
    9CHTO  H116 3602   6.686   5.050   4.893 -0.9145 -1.4965  3.1143
    9CHTO   C70 3603   6.731   5.240   4.956 -0.8172  0.3432 -0.4891
    9CHTO   O46 3604   6.822   5.328   5.022  0.0923 -1.0162  0.0889
    9CHTO  H103 3605   6.818   5.417   4.993  0.8233 -0.4012  1.7972
    9CHTO   O39 3606   6.795   4.849   5.240  0.2320 -0.2679  0.3588
    9CHTO   C60 3607   6.672   4.828   5.311 -0.0292  0.1294 -0.0635
    9CHTO  H117 3608   6.599   4.901   5.276  1.0435  2.8434  3.1232
    9CHTO   C62 3609   6.625   4.681   5.283  0.2778 -0.5841 -0.0871
    9CHTO  H119 3610   6.602   4.670   5.175  1.0428  0.1702 -0.3280
    9CHTO   O43 3611   6.737   4.596   5.324  0.0997  0.3023  0.3466
    9CHTO  H101 3612   6.748   4.590   5.417  2.3640  1.5907  0.2059
    9CHTO   C66 3613   6.488   4.643   5.372  0.5683  0.1626 -0.0507
    9CHTO  H123 3614   6.399   4.697   5.342  0.2801 -1.2116 -1.7368
    9CHTO   N12 3615   6.439   4.507   5.351 -0.0924  0.1139 -0.7157
    9CHTO  H110 3616   6.414   4.491   5.247 -0.6577  0.9776 -0.7147
    9CHTO  H111 3617   6.502   4.426   5.386 -0.7909 -0.0287  0.2369
    9CHTO   C69 3618   6.519   4.677   5.520  0.5896  0.7067  0.4262
    9CHTO  H126 3619   6.587   4.610   5.575 -1.6553 -0.2617  2.1160
    9CHTO   O41 3620   6.567   4.823   5.538 -0.3630 -0.2251  0.2481
    9CHTO   C64 3621   6.695   4.856   5.462  0.0293 -0.1618 -0.0839
    9CHTO  H121 3622   6.772   4.783   5.496 -0.0112 -0.3458 -0.3874
    9CHTO   C71 3623   6.737   5.011   5.480  0.0353  0.6837 -0.0107
    9CHTO   O47 3624   6.754   5.037   5.626 -0.2881  0.2426  0.7109
    9CHTO  H104 3625   6.797   5.119   5.635  2.2337 -0.8348 -0.9372
    9CHTO   O34 3626   6.374   4.668   5.600  0.5264 -0.4010  0.2168
    9CHTO   C49 3627   6.285   4.672   5.719 -0.0379 -0.2298  1.1567
    9CHTO   H91 3628   6.186   4.659   5.675 -0.0414  0.9870  0.7759
    9CHTO   C47 3629   6.296   4.811   5.789 -0.8354 -0.1228  0.2183
    9CHTO   H89 3630   6.201   4.813   5.847  0.9649 -1.7262  3.3935
    9CHTO   O33 3631   6.287   4.922   5.698 -0.1959  0.0092  0.7390
    9CHTO   H70 3632   6.372   4.936   5.662  0.2639 -2.5594  0.7098
    9CHTO   C45 3633   6.438   4.825   5.872  0.3737  0.2739  0.2540
    9CHTO   H87 3634   6.506   4.894   5.821 -0.4234  2.0458  1.5209
    9CHTO    N8 3635   6.405   4.893   5.999  0.2487 -0.3194 -0.0065
    9CHTO   H75 3636   6.370   4.994   5.982  0.2818 -0.1591  0.8338
    9CHTO   H76 3637   6.331   4.843   6.061  0.0891  1.6745  1.4735
    9CHTO   C43 3638   6.510   4.688   5.883  0.4340  0.4197  0.1521
    9CHTO   H85 3639   6.546   4.676   5.781 -2.6905 -1.4199 -0.7927
    9CHTO   O29 3640   6.425   4.581   5.914  0.5809 -0.6313 -0.0475
    9CHTO   C50 3641   6.321   4.560   5.817  0.3770 -0.1586  0.6651
    9CHTO   H92 3642   6.357   4.474   5.758  1.0422  1.0402 -0.7260
    9CHTO   C54 3643   6.205   4.486   5.887  0.0394 -0.2632  0.4473
    9CHTO   O36 3644   6.122   4.572   5.959  0.3022 -0.0500  0.1180
    9CHTO   H72 3645   6.174   4.641   5.996  0.9472 -0.0282 -0.8052
    9CHTO   O27 3646   6.624   4.702   5.972  0.2086 -0.5734  0.1129
    9CHTO   C37 3647   6.764   4.695   5.941  0.4364  0.7677 -0.0398
    9CHTO   H79 3648   6.830   4.666   6.025  0.5296 -1.1266 -0.7508
    9CHTO   C38 3649   6.796   4.592   5.828 -0.4191 -0.6591  0.6135
    9CHTO   H80 3650   6.735   4.610   5.738  0.8251  1.9061  0.2432
    9CHTO   O31 3651   6.754   4.460   5.876  0.9250 -0.5433 -0.3169
    9CHTO   H68 3652   6.796   4.447   5.958  0.1858  1.3161  0.3712
    9CHTO   C39 3653   6.947   4.601   5.781 -0.1153  0.3694  0.7115
    9CHTO   H81 3654   7.002   4.555   5.864 -0.5589  2.0512  1.9699
    9CHTO    N7 3655   6.971   4.507   5.668  0.4100 -0.1598  0.1110
    9CHTO   H73 3656   7.078   4.492   5.659  0.3014 -0.6926 -0.3144
    9CHTO   H74 3657   6.924   4.539   5.576 -3.5250  0.0237  2.1089
    9CHTO   C40 3658   6.992   4.757   5.760  0.1986  0.0521  0.0132
    9CHTO   H82 3659   6.951   4.790   5.664 -0.0693  1.3347  0.5600
    9CHTO   O26 3660   6.947   4.840   5.871 -0.7414  0.3472  0.0468
    9CHTO   C41 3661   6.807   4.837   5.897 -0.6997  0.2089  1.0354
    9CHTO   H83 3662   6.756   4.870   5.806 -0.7516  0.0591  1.0112
    9CHTO   C52 3663   6.788   4.957   6.002 -0.0064  0.4971 -0.1483
    9CHTO   O35 3664   6.829   5.077   5.948  0.2071 -0.5475 -0.4421
    9CHTO   H71 3665   6.799   5.141   6.009  0.6500 -1.4769  0.7830
    9CHTO   O28 3666   7.138   4.780   5.744 -0.1871  0.1449  0.1906
    9CHTO   C42 3667   7.196   4.919   5.726  0.0997  0.0084 -0.7532
    9CHTO   H84 3668   7.290   4.896   5.675 -0.4198 -0.6492 -1.4298
    9CHTO   C44 3669   7.232   4.986   5.868 -0.8770 -0.2768 -0.5127
    9CHTO   H86 3670   7.173   4.938   5.946 -1.5530 -0.1116 -0.9184
    9CHTO   O32 3671   7.357   4.934   5.904 -0.9893  0.5521 -0.0116
    9CHTO   H69 3672   7.341   4.843   5.922 -2.5950 -0.0248 -3.8151
    9CHTO   C48 3673   7.232   5.144   5.885 -0.1124 -0.3769 -0.0784
    9CHTO   H90 3674   7.329   5.185   5.856 -0.0321  0.0367  0.7330
    9CHTO    N9 3675   7.206   5.182   6.033 -0.6445  0.2875 -0.1906
    9CHTO   H77 3676   7.113   5.236   6.038 -1.5338 -1.1095 -1.0845
    9CHTO   H78 3677   7.280   5.258   6.053 -0.8418  1.0650 -2.3091
    9CHTO   C51 3678   7.121   5.207   5.797 -0.3435  0.5378  0.1739
    9CHTO   H93 3679   7.023   5.173   5.830 -0.7106  0.6170 -0.7953
    9CHTO   O30 3680   7.144   5.173   5.662  0.3609  0.0634  0.4438
    9CHTO   C46 3681   7.109   5.015   5.633  0.4548 -0.1068 -0.3146
    9CHTO   H88 3682   7.004   4.998   5.657  0.3139  2.2379  0.9023
    9CHTO   C53 3683   7.151   5.002   5.482  0.3205 -0.3144 -0.1674
    9CHTO   O72 3684   7.109   4.875   5.439 -0.2972  0.1781 -0.4144
    9CHTO  H199 3685   7.169   4.834   5.380  0.4661 -1.5908  1.5296
    9CHTO   O22 3686   7.126   5.352   5.784  0.0733 -0.1330 -0.5050
    9CHTO   C31 3687   7.008   5.420   5.723 -0.0050  0.2388  0.1137
    9CHTO   H59 3688   7.016   5.528   5.745 -2.0440  0.3851  0.1934
    9CHTO   C29 3689   7.013   5.415   5.568  0.0777  0.0627  0.7346
    9CHTO   H57 3690   7.016   5.312   5.527 -1.2024 -0.2311  1.3575
    9CHTO   O21 3691   7.142   5.464   5.527 -0.2561  0.0364 -0.1357
    9CHTO   H37 3692   7.147   5.469   5.433 -2.0910  0.5684 -0.2297
    9CHTO   C27 3693   6.887   5.487   5.501  0.3862 -0.7003 -0.0530
    9CHTO   H55 3694   6.895   5.594   5.525  0.7730 -0.8335  0.4299
    9CHTO    N5 3695   6.872   5.467   5.357  0.7637 -0.6611  0.5502
    9CHTO   H43 3696   6.970   5.500   5.323  0.7946 -0.3872  0.9046
    9CHTO   H44 3697   6.855   5.365   5.325  3.2928 -0.7582 -0.6247
    9CHTO   C25 3698   6.752   5.432   5.572 -0.4808 -0.3722  0.2321
    9CHTO   H53 3699   6.742   5.325   5.550  0.6105 -0.5559  0.6364
    9CHTO   O17 3700   6.769   5.450   5.716 -0.5231 -0.5422  0.0492
    9CHTO   C32 3701   6.870   5.374   5.782  0.3093 -0.8222 -1.1344
    9CHTO   H60 3702   6.852   5.269   5.761  0.8185 -1.0144 -0.6360
    9CHTO   C36 3703   6.848   5.409   5.937  0.2432  0.6579 -0.4751
    9CHTO   O25 3704   6.935   5.345   6.027  0.0982 -0.3446  0.3148
    9CHTO   H40 3705   6.876   5.298   6.084 -0.9109 -1.4390 -1.5980
    9CHTO   O15 3706   6.613   5.508   5.529 -0.3121 -0.4764 -0.1676
    9CHTO   C19 3707   6.494   5.447   5.477 -0.2313 -0.1326 -0.2553
    9CHTO   H47 3708   6.436   5.534   5.442 -1.1577 -0.9089 -0.6789
    9CHTO   C20 3709   6.514   5.343   5.356  0.2010 -0.6943  0.0268
    9CHTO   H48 3710   6.586   5.263   5.382 -0.2673 -0.3326  2.6200
    9CHTO   O19 3711   6.569   5.425   5.251  0.2936 -0.3727 -0.5543
    9CHTO   H35 3712   6.583   5.381   5.170 -1.4987  2.0514 -2.2362
    9CHTO   C21 3713   6.384   5.281   5.315  0.2374 -0.0465 -0.1682
    9CHTO   H49 3714   6.328   5.357   5.261  0.2855  0.6327  0.7358
    9CHTO    N4 3715   6.401   5.171   5.215  0.0057  0.1177  0.0060
    9CHTO   H41 3716   6.481   5.104   5.243  0.2697 -0.2034 -1.4458
    9CHTO   H42 3717   6.434   5.217   5.122  0.6810 -1.6751 -0.6694
    9CHTO   C22 3718   6.294   5.236   5.441  0.0673  0.1845  0.8677
    9CHTO   H50 3719   6.339   5.144   5.478  0.6707  0.8356  1.7778
    9CHTO   O14 3720   6.287   5.325   5.555  0.5063 -0.5792 -0.6769
    9CHTO   C23 3721   6.417   5.379   5.590  0.7492  0.7651 -0.2574
    9CHTO   H51 3722   6.471   5.290   5.626 -0.2976  0.1728 -0.1368
    9CHTO   C34 3723   6.406   5.473   5.714 -0.8160 -0.1117 -0.7568
    9CHTO   O23 3724   6.330   5.412   5.817 -0.9233 -0.0231  0.3583
    9CHTO   H38 3725   6.275   5.346   5.779 -0.9317  1.1966 -1.8926
    9CHTO   O16 3726   6.161   5.210   5.397 -0.5643  0.2350 -0.0106
    9CHTO   C24 3727   6.083   5.100   5.483  0.1419 -0.1646  0.4444
    9CHTO   H52 3728   6.126   5.083   5.581  1.8539 -3.0981 -0.7520
    9CHTO   C26 3729   6.093   4.967   5.402 -0.0820  0.3993  0.2141
    9CHTO   H54 3730   6.047   4.981   5.303 -0.0464 -0.3200  0.0979
    9CHTO   O20 3731   6.234   4.937   5.383  0.1891 -0.1415  0.2589
    9CHTO   H36 3732   6.270   4.998   5.322  0.7272 -0.2083  0.5100
    9CHTO   C30 3733   6.010   4.854   5.474  0.4742 -0.4072  0.3332
    9CHTO   H58 3734   6.063   4.827   5.566  0.9123  0.5996  0.3844
    9CHTO    N6 3735   5.994   4.729   5.398  0.1947  0.0498 -0.5742
    9CHTO   H45 3736   6.041   4.642   5.440 -0.5647 -0.6547 -1.1596
    9CHTO   H46 3737   6.032   4.739   5.297  0.6293 -0.4364 -0.4599
    9CHTO   C33 3738   5.875   4.910   5.520  0.4227 -0.6909  0.0542
    9CHTO   H61 3739   5.813   4.925   5.430 -0.5605  0.4030  0.8832
    9CHTO   O18 3740   5.885   5.038   5.588 -0.2717  0.3630  0.7980
    9CHTO   C28 3741   5.941   5.146   5.504  0.5354  0.5412 -0.7626
    9CHTO   H56 3742   5.886   5.146   5.409 -2.7013 -0.3183  1.0464
    9CHTO   C35 3743   5.926   5.289   5.572 -0.0983  0.0114 -0.7745
    9CHTO   O24 3744   5.797   5.341   5.566 -0.4486 -0.2553 -0.0075
    9CHTO   H39 3745   5.787   5.423   5.610  0.6376  0.9444 -1.9266
    9CHTO    O9 3746   5.804   4.818   5.601  0.0924  0.4399 -0.5865
    9CHTO   C13 3747   5.650   4.791   5.608 -0.1484  0.5142 -0.2246
    9CHTO   H26 3748   5.608   4.780   5.506  2.0434  1.1259 -1.2344
    9CHTO   C11 3749   5.584   4.910   5.684  0.1349 -0.1224  0.1079
    9CHTO   H24 3750   5.565   4.995   5.617 -0.3047 -0.3280 -0.0312
    9CHTO    O8 3751   5.678   4.966   5.783  0.1341 -0.2861 -0.6862
    9CHTO    H3 3752   5.675   5.059   5.780 -0.6695 -0.3288 -1.3573
    9CHTO    C9 3753   5.448   4.869   5.749 -0.1634  0.8299  0.1578
    9CHTO   H22 3754   5.388   4.825   5.668 -0.4166  3.5667 -1.1874
    9CHTO    N2 3755   5.368   4.984   5.789 -0.6059  0.4718  0.5570
    9CHTO   H10 3756   5.276   4.965   5.843 -0.2145  0.0202  1.0704
    9CHTO   H11 3757   5.428   5.050   5.850 -0.9471 -0.4984  1.9673
    9CHTO    C7 3758   5.472   4.758   5.862 -0.7671 -0.3891  0.4116
    9CHTO   H20 3759   5.371   4.722   5.890 -1.0918  1.2733  1.4622
    9CHTO    O4 3760   5.552   4.652   5.811  0.5213  0.3147 -0.2190
    9CHTO   C14 3761   5.616   4.648   5.684 -0.7656 -0.3160 -0.4647
    9CHTO   H27 3762   5.537   4.599   5.623 -1.0831  0.3808 -0.6167
    9CHTO   C18 3763   5.729   4.543   5.692 -0.6356  0.6341  0.6524
    9CHTO   O13 3764   5.682   4.414   5.730 -0.5657  0.4459 -0.0029
    9CHTO    H7 3765   5.640   4.419   5.814  0.9639  0.4795  0.7859
    9CHTO    O2 3766   5.554   4.819   5.994  0.2460  0.3835 -0.8548
    9CHTO    C1 3767   5.626   4.727   6.081  0.4211 -0.4709 -0.1804
    9CHTO   H14 3768   5.652   4.629   6.034 -1.8664  0.0918 -2.7033
    9CHTO    C2 3769   5.549   4.698   6.212  0.3145  1.5119  0.0632
    9CHTO   H15 3770   5.513   4.792   6.255 -0.1970  0.7455  1.3473
    9CHTO    O6 3771   5.438   4.607   6.182  0.7566 -0.4296 -0.0040
    9CHTO    H1 3772   5.474   4.533   6.136  1.0163  0.0165 -0.5300
    9CHTO    C3 3773   5.646   4.613   6.315 -0.2209  0.7992 -0.7485
    9CHTO   H16 3774   5.670   4.510   6.287  0.7917 -0.1668  3.3790
    9CHTO    N1 3775   5.575   4.599   6.447 -0.0906  0.1539 -0.5578
    9CHTO    H8 3776   5.551   4.496   6.470 -0.1772  0.2269 -0.3211
    9CHTO    H9 3777   5.495   4.669   6.462  2.3852  2.5458  1.9235
    9CHTO    C4 3778   5.780   4.688   6.325  0.3712 -0.3674  0.0874
    9CHTO   H17 3779   5.756   4.789   6.359  1.9134 -0.2591  0.9052
    9CHTO    O1 3780   5.833   4.698   6.195 -0.1340  0.7078 -0.0885
    9CHTO    C5 3781   5.767   4.788   6.106 -0.2636 -0.0078  0.4840
    9CHTO   H18 3782   5.766   4.890   6.145 -2.1332  0.1845 -0.0258
    9CHTO   C16 3783   5.847   4.778   5.972  0.7287 -0.3468  0.5677
    9CHTO   O11 3784   5.970   4.853   5.988  0.2417  0.6846 -0.1377
    9CHTO    H5 3785   6.032   4.826   5.923  0.8605  1.9272 -0.0744
    9CHTO    O3 3786   5.876   4.621   6.413  0.1344  0.2645 -0.2612
    9CHTO    C6 3787   5.956   4.712   6.485  0.5589 -0.2642  0.0849
    9CHTO   H19 3788   5.950   4.813   6.445 -1.1325 -0.0218  0.9038
    9CHTO    C8 3789   5.923   4.710   6.639  0.6928 -0.7497 -0.0237
    9CHTO   H21 3790   5.912   4.607   6.675  0.4763 -0.4899  0.6724
    9CHTO    O7 3791   5.793   4.773   6.650  0.0370 -0.4017  0.5495
    9CHTO    H2 3792   5.790   4.863   6.625 -2.1274 -0.0914  1.8740
    9CHTO   C12 3793   6.035   4.794   6.709 -0.1957 -0.7342  0.2110
    9CHTO   H25 3794   6.013   4.889   6.656 -1.5387 -0.6023  0.9857
    9CHTO    N3 3795   6.016   4.815   6.852  0.0107 -0.6819  0.2323
    9CHTO   H12 3796   6.089   4.871   6.910  0.7501 -2.1458  0.7313
    9CHTO   H13 3797   5.914   4.843   6.873  1.0872  1.3157  3.1823
    9CHTO   C15 3798   6.182   4.749   6.661 -0.8666  0.4494 -0.4403
    9CHTO   H28 3799   6.208   4.647   6.691 -1.7483  0.7540  1.3763
    9CHTO   O10 3800   6.300   4.845   6.700 -0.2876  0.2174 -0.6314
    9CHTO    H4 3801   6.311   4.859   6.792 -0.2492 -0.4063 -0.5445
    9CHTO    O5 3802   6.196   4.757   6.520  0.1328  0.3398 -0.0845
    9CHTO   C10 3803   6.104   4.664   6.464  0.2621 -0.0286  0.1470
    9CHTO   H23 3804   6.135   4.570   6.509  1.1372  0.5061  0.6637
    9CHTO   C17 3805   6.138   4.651   6.312 -0.8312 -0.0004 -0.2227
    9CHTO   O12 3806   6.141   4.778   6.242 -0.5396  0.4248 -0.4738
    9CHTO    H6 3807   6.055   4.806   6.217 -1.6954 -1.2734  1.4217
   10CHTO  H203 3808   5.845   6.969   5.811  0.5416 -1.8454  0.2038
   10CHTO   O82 3809   5.835   6.983   5.903  0.4453  0.4625 -0.1211
   10CHTO  C123 3810   5.704   6.956   5.948  0.1183 -0.8520  0.1594
   10CHTO  H227 3811   5.635   7.031   5.906  0.6757 -0.6306 -0.3708
   10CHTO   O77 3812   5.665   6.826   5.902 -0.0470 -0.4908  0.0461
   10CHTO  C118 3813   5.525   6.794   5.931  0.2383  0.2045  0.8669
   10CHTO  H222 3814   5.451   6.862   5.885 -1.2825 -1.9342  0.0654
   10CHTO  C125 3815   5.499   6.641   5.892  0.2041 -0.0530 -1.2235
   10CHTO   O84 3816   5.562   6.605   5.771  0.3409  0.3630 -0.5352
   10CHTO  H205 3817   5.578   6.512   5.777 -0.8430  0.1617 -0.3117
   10CHTO  C114 3818   5.498   6.795   6.082  0.3944  0.4283  0.0782
   10CHTO  H218 3819   5.551   6.710   6.126  0.5881 -1.3638 -3.4188
   10CHTO  C116 3820   5.541   6.931   6.145 -0.4237  0.2875  0.3334
   10CHTO  H220 3821   5.476   7.013   6.109 -1.2579 -0.2396  0.6345
   10CHTO   O79 3822   5.528   6.907   6.284 -0.3634 -0.8837  0.1104
   10CHTO  H201 3823   5.600   6.935   6.339 -2.0334  1.6986  1.1048
   10CHTO  C120 3824   5.693   6.974   6.103  0.4717 -0.2467  0.6423
   10CHTO  H224 3825   5.761   6.907   6.160  1.5016  0.6860  0.5159
   10CHTO   N21 3826   5.734   7.113   6.149 -0.5990  0.3349  0.0331
   10CHTO  H211 3827   5.841   7.114   6.133 -0.5954  0.9623  0.0758
   10CHTO  H212 3828   5.692   7.137   6.246  2.0799 -2.8592  2.0843
   10CHTO   O75 3829   5.356   6.769   6.089 -0.6201 -0.1159  0.4438
   10CHTO  C112 3830   5.311   6.694   6.232 -1.0615  0.0833 -0.4615
   10CHTO  H216 3831   5.346   6.751   6.320  0.3549  1.4821 -1.9028
   10CHTO   O73 3832   5.372   6.566   6.230 -0.4305 -0.0834  0.1618
   10CHTO  C113 3833   5.353   6.488   6.350 -0.7442  0.0002 -0.2687
   10CHTO  H217 3834   5.395   6.545   6.435  0.2259 -0.6665 -0.2929
   10CHTO  C124 3835   5.434   6.351   6.331  0.3013  0.1297 -0.0772
   10CHTO   O83 3836   5.376   6.264   6.236  0.0420 -0.2921 -0.3639
   10CHTO  H204 3837   5.284   6.263   6.254 -0.1047  0.6861 -1.0229
   10CHTO  C109 3838   5.198   6.459   6.375  0.2559  0.0718 -0.1434
   10CHTO  H213 3839   5.161   6.389   6.299 -0.3268 -0.3247  0.4941
   10CHTO  C110 3840   5.114   6.592   6.362 -0.5235  0.1037 -0.1597
   10CHTO  H214 3841   5.129   6.649   6.453 -3.6253 -1.2557  1.2552
   10CHTO   O78 3842   4.982   6.551   6.358  0.4241  0.0255 -0.0971
   10CHTO  H200 3843   4.944   6.540   6.273 -0.1958  3.4754 -0.3328
   10CHTO  C111 3844   5.157   6.680   6.242  0.4097 -0.7991  0.2828
   10CHTO  H215 3845   5.131   6.630   6.148 -1.9303  0.5065  0.2124
   10CHTO   N19 3846   5.087   6.812   6.236  0.4016  0.3003 -0.1030
   10CHTO  H207 3847   5.155   6.895   6.229  0.6579 -0.0620 -2.1011
   10CHTO  H208 3848   5.027   6.821   6.326  0.6221 -0.9535  0.1718
   10CHTO   O74 3849   5.172   6.396   6.501  0.1825 -0.2845 -0.0012
   10CHTO  C115 3850   5.071   6.262   6.475  0.1825  0.8527 -0.0229
   10CHTO  H219 3851   5.033   6.256   6.373 -0.6011  0.7536  0.2768
   10CHTO   O76 3852   5.149   6.134   6.494  0.0556  0.5103 -0.6090
   10CHTO  C122 3853   5.190   6.124   6.636 -0.3216  0.3973 -0.1146
   10CHTO  H226 3854   5.276   6.190   6.644 -1.2410  1.7374 -1.1312
   10CHTO  C126 3855   5.251   5.982   6.661 -0.2083  0.2780 -0.2769
   10CHTO   O85 3856   5.361   5.963   6.574 -0.3832  0.5330 -0.2725
   10CHTO  H206 3857   5.347   6.012   6.496 -0.6517 -0.2600 -0.7269
   10CHTO  C121 3858   5.082   6.160   6.747 -0.2453  0.1361 -0.1104
   10CHTO  H225 3859   5.081   6.081   6.825 -0.7878 -0.0991 -0.3527
   10CHTO   O81 3860   5.114   6.287   6.810  0.3059  0.2286  0.6762
   10CHTO  H202 3861   5.094   6.305   6.900 -0.1526 -0.3615  0.6895
   10CHTO  C119 3862   4.943   6.163   6.681  0.4769 -0.4989  0.0808
   10CHTO  H223 3863   4.928   6.068   6.630 -0.1750 -0.0246 -0.6261
   10CHTO  C117 3864   4.944   6.277   6.571 -0.1831  0.2755 -0.1886
   10CHTO  H221 3865   4.941   6.375   6.619 -2.1489 -0.2000  0.7016
   10CHTO   N20 3866   4.816   6.273   6.491 -0.0025 -0.1722 -0.6381
   10CHTO  H209 3867   4.736   6.303   6.558 -0.4078  0.6502 -1.4802
   10CHTO  H210 3868   4.802   6.177   6.443  0.6529 -0.9415  0.6630
   10CHTO   O80 3869   4.814   6.162   6.789 -0.7673 -0.4604 -0.1344
   10CHTO  C103 3870   4.708   6.035   6.776  0.3044 -0.5663 -0.2770
   10CHTO  H190 3871   4.676   6.029   6.672 -2.5048 -1.5342  0.5990
   10CHTO  C101 3872   4.753   5.894   6.831  1.0003 -0.3192 -0.5715
   10CHTO  H188 3873   4.785   5.913   6.933  0.2333 -0.8011 -0.2373
   10CHTO   O68 3874   4.871   5.839   6.751  0.3051  0.4315  0.3560
   10CHTO  H168 3875   4.945   5.896   6.748  0.3074  0.5247  1.8589
   10CHTO   C99 3876   4.625   5.800   6.834  0.1744  0.0191 -0.5406
   10CHTO  H186 3877   4.580   5.792   6.733  1.6103 -1.4016 -1.1030
   10CHTO   N17 3878   4.654   5.663   6.887  0.2842  0.2054  0.0810
   10CHTO  H174 3879   4.603   5.591   6.825 -0.4935 -0.3053  1.2958
   10CHTO  H175 3880   4.640   5.654   6.994  3.6310 -0.7755  0.4832
   10CHTO   C97 3881   4.519   5.871   6.924 -0.3038 -0.5908  0.4772
   10CHTO  H184 3882   4.567   5.893   7.020  0.7994  0.7362 -0.3595
   10CHTO   O64 3883   4.477   5.991   6.853  0.3205  0.7383  0.2507
   10CHTO  C104 3884   4.584   6.084   6.850  0.2042 -0.3084 -0.2259
   10CHTO  H191 3885   4.608   6.104   6.954 -0.0626 -0.6666 -0.0921
   10CHTO  C108 3886   4.527   6.218   6.793  0.0360 -0.2864 -0.3541
   10CHTO   O71 3887   4.401   6.250   6.857  0.4540  0.0527 -0.0563
   10CHTO  H171 3888   4.342   6.190   6.816  0.1180 -0.5285  1.2398
   10CHTO   O62 3889   4.399   5.792   6.953 -0.0592  0.1808  0.0040
   10CHTO   C91 3890   4.318   5.840   7.064  0.8830 -0.1861  0.1701
   10CHTO  H178 3891   4.342   5.944   7.087 -1.3778  1.2920 -3.6840
   10CHTO   C92 3892   4.333   5.753   7.188  0.1586  0.1499 -0.0605
   10CHTO  H179 3893   4.273   5.662   7.177 -0.8824  0.6179  1.5133
   10CHTO   O66 3894   4.478   5.726   7.202  0.6674  0.5205  0.2841
   10CHTO  H166 3895   4.538   5.798   7.193  1.3162 -0.3220 -2.6099
   10CHTO   C93 3896   4.270   5.836   7.307 -0.0085  0.4476  0.3884
   10CHTO  H180 3897   4.324   5.931   7.325 -2.2513  1.5053  1.6561
   10CHTO   N16 3898   4.276   5.763   7.441 -0.0055 -0.0113  0.2675
   10CHTO  H172 3899   4.250   5.659   7.433  1.2456 -0.3431  0.3973
   10CHTO  H173 3900   4.203   5.804   7.509 -1.4462 -0.2695 -1.0659
   10CHTO   C94 3901   4.123   5.877   7.280 -0.3208  0.0053  0.9968
   10CHTO  H181 3902   4.051   5.798   7.294 -0.8030 -0.4269 -3.3280
   10CHTO   O61 3903   4.100   5.910   7.143  0.2394 -1.1868  0.2724
   10CHTO   C95 3904   4.166   5.852   7.034  0.1597  0.4479 -0.1798
   10CHTO  H182 3905   4.121   5.755   7.012  1.3145 -0.5773  1.8857
   10CHTO  C106 3906   4.119   5.941   6.904 -0.4820 -0.2539  0.8199
   10CHTO   O69 3907   4.179   5.885   6.787 -0.8749  0.0788 -0.3501
   10CHTO  H169 3908   4.132   5.805   6.772 -0.9840  0.3946 -1.7890
   10CHTO   O63 3909   4.082   6.010   7.391 -0.1920 -0.0342  0.1134
   10CHTO   C96 3910   4.112   6.159   7.344  0.2728  0.5785 -0.4625
   10CHTO  H183 3911   4.085   6.162   7.238  0.6854  3.2552 -0.5325
   10CHTO   C98 3912   4.266   6.202   7.367  0.5202 -0.6120  0.1335
   10CHTO  H185 3913   4.341   6.134   7.324  0.7131 -0.3756  0.0941
   10CHTO   O67 3914   4.281   6.328   7.292 -0.1959 -0.5194 -0.1933
   10CHTO  H167 3915   4.359   6.374   7.314 -0.5775 -0.1323  0.3472
   10CHTO  C102 3916   4.289   6.231   7.521  0.3936  0.1746  0.3920
   10CHTO  H189 3917   4.379   6.294   7.526 -0.2839  1.3141 -1.0462
   10CHTO   N18 3918   4.317   6.109   7.596 -0.0670  0.7507  0.8920
   10CHTO  H176 3919   4.424   6.095   7.600 -0.0927  0.2276 -0.1869
   10CHTO  H177 3920   4.260   6.024   7.562 -0.9221  1.6207  0.1079
   10CHTO  C105 3921   4.173   6.318   7.580  0.4841 -0.5549 -0.8562
   10CHTO  H192 3922   4.131   6.274   7.670  1.1378 -1.6033 -1.0607
   10CHTO   O65 3923   4.068   6.357   7.489  0.0030  0.0076 -1.1379
   10CHTO  C100 3924   4.006   6.252   7.417 -0.7063 -0.0611 -0.3454
   10CHTO  H187 3925   3.960   6.187   7.492 -1.0183  1.2702  0.6343
   10CHTO  C107 3926   3.897   6.313   7.324 -0.6749 -0.1387 -0.0719
   10CHTO   O70 3927   3.786   6.346   7.400  0.3775  0.5233  0.6697
   10CHTO  H170 3928   3.746   6.275   7.447  1.3133  0.6182  1.6392
   10CHTO   O57 3929   4.259   6.456   7.621 -0.0787  0.3631 -0.2133
   10CHTO   C85 3930   4.212   6.557   7.718 -0.3177  0.2690  0.0180
   10CHTO  H157 3931   4.106   6.536   7.741 -0.6670  0.0185 -1.7142
   10CHTO   C83 3932   4.211   6.695   7.653  0.2234 -0.6843 -0.1154
   10CHTO  H155 3933   4.130   6.691   7.581 -0.5508 -0.3574  0.7320
   10CHTO   O56 3934   4.342   6.724   7.581 -0.5157 -0.3563 -0.2272
   10CHTO  H135 3935   4.376   6.810   7.597  0.1985  0.3260 -4.6915
   10CHTO   C81 3936   4.183   6.803   7.763  0.2146  0.4944 -0.4160
   10CHTO  H153 3937   4.086   6.773   7.804  1.0578 -0.9527  0.5773
   10CHTO   N14 3938   4.174   6.936   7.695 -0.0319 -0.8512 -0.7810
   10CHTO  H141 3939   4.178   7.020   7.762 -0.7412 -1.6950  0.3372
   10CHTO  H142 3940   4.234   6.961   7.610  0.2433  1.7041  0.1022
   10CHTO   C79 3941   4.292   6.797   7.878  0.7740  0.4908  0.0925
   10CHTO  H151 3942   4.260   6.867   7.955 -1.2716 -1.5875  1.1795
   10CHTO   O52 3943   4.275   6.668   7.933  0.5932 -0.3329 -0.1689
   10CHTO   C86 3944   4.294   6.559   7.846 -0.5146 -0.5489 -0.7639
   10CHTO  H158 3945   4.401   6.562   7.816  0.1429 -2.8644  1.1571
   10CHTO   C90 3946   4.283   6.430   7.927 -0.5628 -0.1392 -0.6760
   10CHTO   O60 3947   4.323   6.313   7.854 -0.0521  0.0787  0.3341
   10CHTO  H138 3948   4.241   6.276   7.830  0.0217  0.8383 -1.1758
   10CHTO   O50 3949   4.428   6.818   7.839  0.3342 -0.0049 -0.4493
   10CHTO   C73 3950   4.566   6.808   7.870 -0.3425 -0.2421 -0.5610
   10CHTO  H145 3951   4.602   6.723   7.810 -0.2019 -2.6969  2.8428
   10CHTO   C74 3952   4.583   6.774   8.020 -0.6344  0.1730  0.2327
   10CHTO  H146 3953   4.517   6.687   8.041  0.5745 -0.2313  2.5245
   10CHTO   O54 3954   4.715   6.726   8.060 -0.4675 -0.1104 -0.2728
   10CHTO  H133 3955   4.713   6.696   8.149 -0.4257  1.1055  0.1427
   10CHTO   C75 3956   4.542   6.894   8.112 -0.3928 -0.4109  0.0159
   10CHTO  H147 3957   4.439   6.922   8.085 -0.0832  1.1226  0.3521
   10CHTO   N13 3958   4.543   6.862   8.253 -0.0700  0.2325  0.0225
   10CHTO  H139 3959   4.642   6.825   8.274 -1.0344 -1.7163  1.3596
   10CHTO  H140 3960   4.476   6.779   8.275 -0.6823  1.0715  1.4077
   10CHTO   C76 3961   4.630   7.021   8.070 -0.6327 -1.0502  0.8579
   10CHTO  H148 3962   4.733   6.992   8.087  0.0360 -0.6660 -2.2456
   10CHTO   O49 3963   4.617   7.048   7.927 -0.6552 -0.1243 -0.0557
   10CHTO   C77 3964   4.655   6.935   7.841 -0.2339  0.6420  0.7220
   10CHTO  H149 3965   4.760   6.915   7.861 -0.4885 -1.1370  0.4355
   10CHTO   C88 3966   4.643   6.996   7.701 -0.2861  0.3720 -0.1202
   10CHTO   O58 3967   4.677   6.900   7.625 -0.7282 -0.5049 -0.0989
   10CHTO  H136 3968   4.761   6.919   7.587 -0.9229 -0.0769 -0.3191
   10CHTO   O51 3969   4.584   7.142   8.148  0.1926 -0.1569 -0.2759
   10CHTO   C78 3970   4.697   7.257   8.177  0.0006  0.6755  0.7226
   10CHTO  H150 3971   4.779   7.233   8.105 -1.4178  0.6349 -0.9148
   10CHTO   C80 3972   4.760   7.255   8.321  0.6136  0.1956  0.4625
   10CHTO  H152 3973   4.674   7.256   8.391 -0.3339 -2.1617 -0.6281
   10CHTO   O55 3974   4.827   7.128   8.323 -0.8252  0.0764  0.4689
   10CHTO  H134 3975   4.888   7.131   8.395 -1.1453 -0.3967  0.7610
   10CHTO   C84 3976   4.860   7.371   8.358  0.5265 -0.7683 -0.2148
   10CHTO  H156 3977   4.936   7.362   8.280 -0.2706 -2.0170 -0.8636
   10CHTO   N15 3978   4.924   7.356   8.494 -0.0669  0.2233  0.5685
   10CHTO  H143 3979   4.986   7.269   8.495 -0.9005 -0.3606  1.8483
   10CHTO  H144 3980   4.852   7.342   8.572  0.8769 -0.1967  1.3730
   10CHTO   C87 3981   4.783   7.504   8.326 -0.6610 -0.2424  0.2830
   10CHTO  H159 3982   4.699   7.530   8.390 -1.3610 -0.7882 -0.4045
   10CHTO   O53 3983   4.750   7.499   8.174  0.1641 -0.0066  0.0527
   10CHTO   C82 3984   4.646   7.402   8.147 -0.6212  1.2036  0.6538
   10CHTO  H154 3985   4.552   7.425   8.198 -0.7449  0.8725  0.5775
   10CHTO   C89 3986   4.607   7.396   7.997 -0.3536 -0.3800  0.3382
   10CHTO   O59 3987   4.523   7.517   7.971  0.1932 -0.3181 -0.1107
   10CHTO  H137 3988   4.541   7.589   8.029  0.5138  0.5545 -1.2703
   10CHTO   O45 3989   4.871   7.621   8.343  0.1908 -0.0320 -0.0567
   10CHTO   C67 3990   4.812   7.747   8.377 -0.0695  0.0817  0.5648
   10CHTO  H124 3991   4.708   7.743   8.342 -0.0129  0.4096  0.3604
   10CHTO   C65 3992   4.811   7.764   8.526 -0.9052  0.0620 -0.6901
   10CHTO  H122 3993   4.789   7.665   8.567  1.8827  0.3137  1.6128
   10CHTO   O44 3994   4.713   7.852   8.582  0.0106 -0.6102  0.0417
   10CHTO  H102 3995   4.660   7.893   8.516  2.1376 -1.1191 -2.0328
   10CHTO   C63 3996   4.952   7.790   8.583  0.1333  0.5670 -0.0433
   10CHTO  H120 3997   5.016   7.707   8.552  0.9611  1.0896  0.2392
   10CHTO   N11 3998   4.965   7.767   8.731 -0.3006  0.3738 -0.4043
   10CHTO  H108 3999   5.040   7.831   8.772 -1.4087  1.2606  0.2965
   10CHTO  H109 4000   4.971   7.661   8.749  0.5518  0.5943  0.6348
   10CHTO   C61 4001   5.006   7.922   8.520 -0.2541 -0.1538  0.1241
   10CHTO  H118 4002   5.112   7.911   8.547  0.4767 -2.3363 -3.2895
   10CHTO   O40 4003   4.992   7.910   8.375  0.2751 -0.2156 -0.1823
   10CHTO   C68 4004   4.872   7.865   8.303 -0.3738  0.2156 -0.6981
   10CHTO  H125 4005   4.895   7.820   8.204 -0.2073 -1.3392  0.0341
   10CHTO   C72 4006   4.782   7.990   8.285 -0.6870 -0.3754 -0.2007
   10CHTO   O48 4007   4.646   7.975   8.241 -0.3804 -0.2730  0.8624
   10CHTO  H105 4008   4.639   7.984   8.148  3.5327 -0.9309  0.3883
   10CHTO   O38 4009   4.947   8.039   8.579 -0.6101 -0.1385 -0.2387
   10CHTO   C55 4010   5.035   8.147   8.601  0.7149 -0.2390  0.1460
   10CHTO  H112 4011   5.101   8.135   8.513 -2.6313  1.1338 -2.6677
   10CHTO   C56 4012   5.113   8.148   8.736  0.6768 -0.7569  0.4625
   10CHTO  H113 4013   5.044   8.124   8.818  4.0675 -2.8978  2.8258
   10CHTO   O42 4014   5.202   8.042   8.752  0.2414 -0.3080 -0.3513
   10CHTO  H100 4015   5.190   7.998   8.833 -1.0938 -0.3577 -0.5699
   10CHTO   C57 4016   5.193   8.292   8.765 -0.3532 -0.3779  0.6667
   10CHTO  H114 4017   5.280   8.282   8.700  0.0205  0.4841  1.0265
   10CHTO   N10 4018   5.238   8.322   8.903  0.2318  0.7843  0.3848
   10CHTO  H106 4019   5.170   8.282   8.977 -0.3674  0.7209 -0.1923
   10CHTO  H107 4020   5.341   8.301   8.928 -0.0747 -2.7013 -1.0152
   10CHTO   C58 4021   5.114   8.408   8.714 -0.8360 -0.0315 -0.1073
   10CHTO  H115 4022   5.032   8.434   8.785 -2.0097  0.8743 -1.7690
   10CHTO   O37 4023   5.062   8.392   8.584 -0.1258  0.7561  0.1633
   10CHTO   C59 4024   4.968   8.284   8.568 -0.4485  0.7337 -0.4122
   10CHTO  H116 4025   4.892   8.301   8.645 -1.5315  1.7613 -1.6991
   10CHTO   C70 4026   4.910   8.280   8.426  0.1100  0.0283  0.2658
   10CHTO   O46 4027   4.856   8.406   8.384 -0.5832  0.0141  0.3050
   10CHTO  H103 4028   4.913   8.447   8.321 -0.8296  2.4496  1.6316
   10CHTO   O39 4029   5.223   8.531   8.677  0.4688 -0.6990  0.4886
   10CHTO   C60 4030   5.162   8.659   8.649 -0.0947  0.2187 -0.4764
   10CHTO  H117 4031   5.069   8.649   8.593 -0.2104 -0.8263 -0.1079
   10CHTO   C62 4032   5.138   8.726   8.792 -0.1430  0.4959  0.1086
   10CHTO  H119 4033   5.059   8.667   8.842 -0.3534  0.6928  0.0143
   10CHTO   O43 4034   5.257   8.726   8.879 -0.3770 -0.0338  0.1362
   10CHTO  H101 4035   5.249   8.658   8.943  2.2920  1.2922  1.9407
   10CHTO   C66 4036   5.080   8.879   8.756 -0.0668 -0.2594  0.0711
   10CHTO  H123 4037   4.984   8.867   8.707 -1.0333  0.2924  1.8001
   10CHTO   N12 4038   5.035   8.947   8.879 -0.1858 -0.1124 -0.3179
   10CHTO  H110 4039   4.944   8.904   8.917  0.7120 -1.0263  0.8136
   10CHTO  H111 4040   5.020   9.053   8.862  2.4301  0.1829 -0.9234
   10CHTO   C69 4041   5.166   8.954   8.651 -0.3657 -0.5221  0.3232
   10CHTO  H126 4042   5.266   8.989   8.685 -1.3346  0.8068  1.9027
   10CHTO   O41 4043   5.190   8.868   8.528  0.4128  0.5164  0.2840
   10CHTO   C64 4044   5.259   8.740   8.562 -0.2580  0.1317  0.5926
   10CHTO  H121 4045   5.353   8.767   8.615  0.8241 -0.9318 -0.7487
   10CHTO   C71 4046   5.300   8.665   8.433 -0.5482 -0.3227  0.3332
   10CHTO   O47 4047   5.186   8.609   8.379  0.0502 -0.1394 -0.1943
   10CHTO  H104 4048   5.157   8.653   8.302 -1.2060 -0.8120 -0.1194
   10CHTO   O34 4049   5.093   9.095   8.618 -0.4849 -0.2432 -0.2014
   10CHTO   C49 4050   5.152   9.243   8.578  0.2158 -0.1487 -0.2495
   10CHTO   H91 4051   5.215   9.264   8.664 -0.9362 -1.1486  0.8718
   10CHTO   C47 4052   5.030   9.346   8.572 -0.3841  0.6429 -0.2789
   10CHTO   H89 4053   5.079   9.446   8.580 -0.4699  0.5655  1.3838
   10CHTO   O33 4054   4.954   9.326   8.695  0.7839  0.1480  0.2730
   10CHTO   H70 4055   5.012   9.324   8.769 -0.1626 -1.7196  0.9931
   10CHTO   C45 4056   4.950   9.340   8.438  0.5082  0.4441 -0.2862
   10CHTO   H87 4057   4.908   9.239   8.436  0.9261  0.2240  1.1036
   10CHTO    N8 4058   4.835   9.433   8.444  0.2229  0.1108 -0.5736
   10CHTO   H75 4059   4.744   9.386   8.411 -1.0165  2.3376 -0.3797
   10CHTO   H76 4060   4.852   9.523   8.386 -0.2227 -0.4190 -1.5430
   10CHTO   C43 4061   5.053   9.349   8.313  0.2250 -0.4724  0.8491
   10CHTO   H85 4062   4.992   9.338   8.223  0.6753 -0.3617  0.5333
   10CHTO   O29 4063   5.151   9.245   8.327 -0.1788 -0.1727  0.3188
   10CHTO   C50 4064   5.230   9.241   8.450 -0.0430 -0.0495 -0.5172
   10CHTO   H92 4065   5.292   9.152   8.466 -2.0258 -1.2862  0.3794
   10CHTO   C54 4066   5.346   9.349   8.451 -0.3729  0.3045 -0.5210
   10CHTO   O36 4067   5.422   9.357   8.570  0.2320  0.0309 -0.5247
   10CHTO   H72 4068   5.498   9.408   8.549 -0.3107  1.5808  1.1664
   10CHTO   O27 4069   5.109   9.486   8.309 -0.2258 -0.1072 -0.0575
   10CHTO   C37 4070   5.161   9.586   8.230  0.3267  0.0269  0.2902
   10CHTO   H79 4071   5.270   9.574   8.220  0.5350  1.6303  0.5872
   10CHTO   C38 4072   5.107   9.582   8.080  0.2998 -0.7154  0.0050
   10CHTO   H80 4073   4.998   9.565   8.083  0.3329 -0.6994  1.2827
   10CHTO   O31 4074   5.170   9.468   8.022  0.3285  0.0862 -0.3705
   10CHTO   H68 4075   5.124   9.435   7.947 -0.5309 -0.3244  0.3283
   10CHTO   C39 4076   5.140   9.719   8.007 -0.2626  1.1031 -0.8672
   10CHTO   H81 4077   5.244   9.719   7.977 -0.5276  0.2715 -1.8284
   10CHTO    N7 4078   5.062   9.729   7.879  0.1680 -0.9260  0.0532
   10CHTO   H73 4079   5.078   9.829   7.841  0.4835 -0.8522  0.3764
   10CHTO   H74 4080   4.959   9.707   7.900  0.1871 -0.9400  0.1310
   10CHTO   C40 4081   5.108   9.838   8.099 -0.2047  0.0296 -0.2792
   10CHTO   H82 4082   5.000   9.841   8.115 -0.2712  1.6066 -0.9239
   10CHTO   O26 4083   5.175   9.825   8.224 -0.3571  0.7260  0.0334
   10CHTO   C41 4084   5.129   9.717   8.304  0.0638  0.5176  0.5434
   10CHTO   H83 4085   5.021   9.722   8.327 -0.3846 -1.5890 -0.9785
   10CHTO   C52 4086   5.213   9.731   8.433 -0.6094 -0.0131  0.3303
   10CHTO   O35 4087   5.193   9.641   8.532 -0.2295 -0.2592 -0.3227
   10CHTO   H71 4088   5.230   9.556   8.520  1.8399  0.6179 -0.5110
   10CHTO   O28 4089   5.175   9.964   8.056  0.1428 -0.7304 -0.0912
   10CHTO   C42 4090   5.126  10.101   8.092  0.3216  0.7164  0.2437
   10CHTO   H84 4091   5.069  10.080   8.183  2.0507 -2.7277  0.6403
   10CHTO   C44 4092   5.024  10.155   7.983 -0.7511  0.1753 -0.2490
   10CHTO   H86 4093   5.075  10.154   7.887  0.3027  0.7391  0.2893
   10CHTO   O32 4094   4.909  10.069   7.989  0.7147 -0.5750 -0.2891
   10CHTO   H69 4095   4.837  10.089   7.932  0.7332 -0.4593 -0.2713
   10CHTO   C48 4096   4.984  10.304   8.006  0.4288 -0.2992 -0.4359
   10CHTO   H90 4097   4.917  10.288   8.090  1.4233  0.5911  0.5544
   10CHTO    N9 4098   4.911  10.367   7.895  0.2664 -0.4619  0.1846
   10CHTO   H77 4099   4.966  10.426   7.823 -1.3905  0.1184 -0.6485
   10CHTO   H78 4100   4.829  10.425   7.936 -0.1670  1.2154 -2.8697
   10CHTO   C51 4101   5.100  10.399   8.043  0.1576  0.0412  0.4946
   10CHTO   H93 4102   5.164  10.412   7.955 -0.5231 -0.4569 -0.0757
   10CHTO   O30 4103   5.175  10.335   8.149  0.4569 -0.0676  0.6484
   10CHTO   C46 4104   5.236  10.205   8.118 -0.3126 -0.1777  0.4798
   10CHTO   H88 4105   5.297  10.206   8.028  0.1196  0.5730  0.7817
   10CHTO   C53 4106   5.332  10.163   8.232  0.4638 -0.6735 -0.1064
   10CHTO   O72 4107   5.393  10.282   8.293 -0.1269  0.0338 -0.4888
   10CHTO  H199 4108   5.470  10.277   8.347 -0.5789 -0.7868  0.1006
   10CHTO   O22 4109   5.057  10.522   8.099  0.5078  0.7857  0.4327
   10CHTO   C31 4110   5.135  10.637   8.121 -0.1672 -0.3330 -0.1822
   10CHTO   H59 4111   5.232  10.600   8.161  0.7974  2.5202  0.2572
   10CHTO   C29 4112   5.159  10.720   7.994  0.1978 -0.7489 -0.6037
   10CHTO   H57 4113   5.062  10.763   7.966 -0.6833 -2.8427 -0.8692
   10CHTO   O21 4114   5.198  10.638   7.886  0.6686 -0.0780 -0.3249
   10CHTO   H37 4115   5.155  10.554   7.890 -1.0676  0.7594 -0.7205
   10CHTO   C27 4116   5.261  10.834   8.038  0.2851 -0.0085  0.2929
   10CHTO   H55 4117   5.353  10.789   8.078  0.4795  2.2380  2.4509
   10CHTO    N5 4118   5.296  10.929   7.929  0.0657  0.3212 -0.2070
   10CHTO   H43 4119   5.252  11.027   7.942  1.5327  0.7582  1.6626
   10CHTO   H44 4120   5.393  10.914   7.884 -0.0798 -0.4730 -0.2576
   10CHTO   C25 4121   5.209  10.920   8.160 -0.4863  0.5161  0.7017
   10CHTO   H53 4122   5.126  10.986   8.131 -0.5136 -0.3069 -1.1713
   10CHTO   O17 4123   5.164  10.839   8.268 -0.2474 -0.5487 -0.2188
   10CHTO   C32 4124   5.078  10.729   8.237 -0.1792  0.2856  0.4823
   10CHTO   H60 4125   4.979  10.766   8.210 -0.8623 -0.6934  1.6178
   10CHTO   C36 4126   5.055  10.651   8.366  0.1823  0.3910 -0.2005
   10CHTO   O25 4127   4.937  10.694   8.434  0.3881  0.2859 -0.6538
   10CHTO   H40 4128   4.858  10.673   8.387  1.0775 -0.2491 -1.5898
   10CHTO   O15 4129   5.323  11.021   8.221 -0.0872 -0.3149 -0.2792
   10CHTO   C19 4130   5.361  11.044   8.357  0.2722  0.4769 -0.0486
   10CHTO   H47 4131   5.284  10.984   8.409  2.3281 -2.1477  0.0647
   10CHTO   C20 4132   5.502  10.988   8.399 -0.1399 -0.1890  0.2663
   10CHTO   H48 4133   5.583  11.056   8.368 -0.6747  1.2362  1.9235
   10CHTO   O19 4134   5.515  10.852   8.356  0.2307 -0.0922 -0.2167
   10CHTO   H35 4135   5.474  10.792   8.417 -1.9886  0.7816 -0.8066
   10CHTO   C21 4136   5.522  11.005   8.559 -0.7981 -0.2779  0.6349
   10CHTO   H49 4137   5.451  10.936   8.604 -1.4174  0.3310  0.6059
   10CHTO    N4 4138   5.651  10.951   8.602 -0.2852  0.3477  0.2133
   10CHTO   H41 4139   5.677  10.864   8.543  3.3848  0.8741  0.9341
   10CHTO   H42 4140   5.726  11.027   8.588  1.1585 -1.0566  0.1879
   10CHTO   C22 4141   5.490  11.152   8.599 -0.4090  0.3517  0.9324
   10CHTO   H50 4142   5.556  11.216   8.542 -1.3235 -1.0285 -1.7654
   10CHTO   O14 4143   5.357  11.191   8.549 -0.4142 -0.0274 -0.4601
   10CHTO   C23 4144   5.341  11.189   8.407 -0.4186 -0.4162 -0.2230
   10CHTO   H51 4145   5.416  11.255   8.361  1.1355 -1.7180  0.3443
   10CHTO   C34 4146   5.203  11.246   8.374  0.3307  0.2179 -0.4246
   10CHTO   O23 4147   5.183  11.383   8.420 -0.6816 -0.8127  0.4202
   10CHTO   H38 4148   5.162  11.435   8.345  4.3308 -0.2587 -0.8378
   10CHTO   O16 4149   5.502  11.154   8.742  0.1206 -0.1281 -0.6581
   10CHTO   C24 4150   5.512  11.294   8.806  0.0797 -0.8968 -0.0101
   10CHTO   H52 4151   5.465  11.372   8.747  1.1857 -2.3710 -2.9853
   10CHTO   C26 4152   5.665  11.329   8.836  0.0953 -0.3414 -0.3565
   10CHTO   H54 4153   5.716  11.241   8.881 -0.0479 -0.0485  0.3944
   10CHTO   O20 4154   5.740  11.353   8.714  0.8640  0.3642  0.0198
   10CHTO   H36 4155   5.690  11.411   8.660  0.0844 -1.2319 -0.9993
   10CHTO   C30 4156   5.669  11.466   8.923  0.3219  0.4002 -0.4960
   10CHTO   H58 4157   5.631  11.557   8.874  0.2622  0.1256 -0.9646
   10CHTO    N6 4158   5.810  11.495   8.971 -0.1734 -0.7903 -0.4127
   10CHTO   H45 4159   5.828  11.491   9.077 -0.9274 -0.3339 -0.2633
   10CHTO   H46 4160   5.843  11.591   8.934  1.8867 -0.6555  1.6736
   10CHTO   C33 4161   5.573  11.449   9.044 -0.2116 -0.4020 -0.2354
   10CHTO   H61 4162   5.601  11.372   9.117 -0.4584 -1.1557 -0.9313
   10CHTO   O18 4163   5.441  11.419   8.996  0.5496 -0.5064  0.3330
   10CHTO   C28 4164   5.433  11.290   8.937  0.0209 -0.2365 -0.3522
   10CHTO   H56 4165   5.481  11.217   9.003 -1.7401  0.1057  1.3411
   10CHTO   C35 4166   5.283  11.262   8.904 -0.2086  0.0871  0.3447
   10CHTO   O24 4167   5.203  11.233   9.018  0.0950 -0.3186 -0.7243
   10CHTO   H39 4168   5.127  11.287   9.012  0.3949  0.3739  1.3362
   10CHTO    O9 4169   5.576  11.572   9.126  0.4382  0.3317 -0.0397
   10CHTO   C13 4170   5.503  11.574   9.261 -0.4269  0.0639 -0.6590
   10CHTO   H26 4171   5.425  11.495   9.263  1.1177 -1.4428  2.4989
   10CHTO   C11 4172   5.441  11.713   9.299  0.1848 -1.0207 -0.6701
   10CHTO   H24 4173   5.354  11.731   9.233  0.9289  1.2446 -1.0896
   10CHTO    O8 4174   5.534  11.817   9.264  0.0846  0.3110 -0.3279
   10CHTO    H3 4175   5.496  11.894   9.226  0.8721  1.0312  0.3283
   10CHTO    C9 4176   5.388  11.717   9.442  0.9128  0.2761 -0.6272
   10CHTO   H22 4177   5.315  11.635   9.450  0.3574  0.9190  0.9805
   10CHTO    N2 4178   5.319  11.843   9.477  0.2687  0.2214  0.0758
   10CHTO   H10 4179   5.213  11.833   9.456  0.5542 -1.6877 -0.5389
   10CHTO   H11 4180   5.347  11.878   9.575 -0.5306  4.0720 -0.9759
   10CHTO    C7 4181   5.508  11.690   9.542 -0.6213  0.0887 -0.3482
   10CHTO   H20 4182   5.452  11.662   9.633  2.2432 -1.8801  0.8671
   10CHTO    O4 4183   5.595  11.584   9.510  0.1438 -0.9250 -0.9297
   10CHTO   C14 4184   5.607  11.528   9.374  0.1005  0.6347 -0.0480
   10CHTO   H27 4185   5.606  11.417   9.382  1.3201  0.7875  3.1733
   10CHTO   C18 4186   5.754  11.560   9.334  0.9905 -0.4660 -0.3035
   10CHTO   O13 4187   5.787  11.701   9.340 -0.2179  0.6646 -0.0211
   10CHTO    H7 4188   5.739  11.749   9.406  2.5759  0.3504  2.3708
   10CHTO    O2 4189   5.593  11.810   9.572 -0.0576 -0.1502 -0.6440
   10CHTO    C1 4190   5.655  11.820   9.704  1.1597 -0.0378 -0.4132
   10CHTO   H14 4191   5.686  11.721   9.743  1.5023  0.2394  0.0348
   10CHTO    C2 4192   5.551  11.882   9.808  0.2252 -0.4095  0.7752
   10CHTO   H15 4193   5.512  11.972   9.758  1.8014  0.1520  0.5142
   10CHTO    O6 4194   5.445  11.787   9.842  0.1472 -0.0064 -0.0471
   10CHTO    H1 4195   5.384  11.768   9.774  1.6018  0.5427 -1.5499
   10CHTO    C3 4196   5.624  11.929   9.944 -0.0202 -0.3578 -0.1876
   10CHTO   H16 4197   5.668  11.838   9.987 -0.7344 -1.1594 -1.1252
   10CHTO    N1 4198   5.525  11.999  10.038 -0.6837  0.0300  0.0534
   10CHTO    H8 4199   5.439  11.939  10.060  1.5669 -2.4450  2.4481
   10CHTO    H9 4200   5.575  12.011  10.133 -2.1954  2.8219  0.5556
   10CHTO    C4 4201   5.748  12.020   9.905  0.3168 -0.5188  0.7725
   10CHTO   H17 4202   5.704  12.105   9.852 -2.6611 -2.3805  0.1132
   10CHTO    O1 4203   5.828  11.948   9.815  0.4573  0.2176 -0.1471
   10CHTO    C5 4204   5.792  11.896   9.688  0.3355 -0.2145 -0.3473
   10CHTO   H18 4205   5.780  11.981   9.621 -0.9560  0.8640  1.2374
   10CHTO   C16 4206   5.905  11.800   9.640  0.1074  0.0378  0.2358
   10CHTO   O11 4207   6.008  11.885   9.590 -1.3555 -0.6984  0.4414
   10CHTO    H5 4208   5.987  11.894   9.499 -0.2264 -0.4005  0.2035
   10CHTO    O3 4209   5.836  12.061  10.012  0.0236  0.0985 -0.3264
   10CHTO    C6 4210   5.871  12.199  10.020 -0.1078 -0.3197  0.0845
   10CHTO   H19 4211   5.802  12.265   9.967  1.6521  0.8366 -0.7892
   10CHTO    C8 4212   5.868  12.227  10.171 -0.0573 -0.2244 -0.6176
   10CHTO   H21 4213   5.925  12.150  10.222  1.1245  0.7790 -0.4114
   10CHTO    O7 4214   5.732  12.228  10.213  0.0834 -0.6541  0.4617
   10CHTO    H2 4215   5.674  12.197  10.146  1.3901  2.4081 -2.2393
   10CHTO   C12 4216   5.940  12.363  10.212 -0.0712 -0.3624 -0.1637
   10CHTO   H25 4217   5.872  12.444  10.177 -0.3205 -0.9885 -1.1592
   10CHTO    N3 4218   5.963  12.384  10.359 -0.0667 -0.0104  0.1848
   10CHTO   H12 4219   5.991  12.488  10.370 -1.1979  0.5983 -2.2893
   10CHTO   H13 4220   6.044  12.319  10.388  0.9421  0.6823 -1.0447
   10CHTO   C15 4221   6.074  12.377  10.134 -1.1170  0.1314  0.6585
   10CHTO   H28 4222   6.149  12.306  10.169  0.0538  1.6063  1.2192
   10CHTO   O10 4223   6.130  12.529  10.132  0.4360  0.0508 -0.0204
   10CHTO    H4 4224   6.222  12.528  10.114  0.6960 -0.2550  1.2310
   10CHTO    O5 4225   6.053  12.354   9.991  0.0272 -0.5052 -0.0293
   10CHTO   C10 4226   6.007  12.225   9.963  0.1146 -0.0447 -0.6189
   10CHTO   H23 4227   6.078  12.163  10.019 -0.6851  0.7660  1.3270
   10CHTO   C17 4228   6.020  12.201   9.815 -0.6978  0.4234  0.4229
   10CHTO   O12 4229   6.163  12.172   9.783  0.3493 -0.1261 -0.3768
   10CHTO    H6 4230   6.159  12.117   9.707 -0.1830 -0.6638  0.0333
   11CHTO  H203 4231   6.805   6.388   3.311 -0.7907  0.6919 -0.2698
   11CHTO   O82 4232   6.805   6.327   3.240  0.8632  0.3389 -0.0027
   11CHTO  C123 4233   6.859   6.384   3.119 -0.1402  0.1324 -0.0703
   11CHTO  H227 4234   6.967   6.364   3.118  0.1896  1.8625 -1.2155
   11CHTO   O77 4235   6.798   6.312   3.008  0.6335 -0.7868 -0.2181
   11CHTO  C118 4236   6.844   6.341   2.874  0.2812  0.7228 -0.2199
   11CHTO  H222 4237   6.953   6.336   2.860  0.2600 -1.2887  0.1711
   11CHTO  C125 4238   6.775   6.240   2.764 -0.2070 -0.3690  0.1749
   11CHTO   O84 4239   6.819   6.109   2.803  0.3595 -0.0440  0.2523
   11CHTO  H205 4240   6.860   6.065   2.731 -3.1138  0.7192 -2.3143
   11CHTO  C114 4241   6.811   6.488   2.850  0.1043  0.1660  0.0788
   11CHTO  H218 4242   6.703   6.498   2.838  0.1764  0.0309 -0.7064
   11CHTO  C116 4243   6.848   6.586   2.962  0.1661  0.4522  0.0589
   11CHTO  H220 4244   6.957   6.604   2.949 -0.3024  1.9255 -2.2167
   11CHTO   O79 4245   6.788   6.710   2.925  0.4401  0.6945 -1.2067
   11CHTO  H201 4246   6.783   6.777   2.991  1.7747 -0.9805  0.6358
   11CHTO  C120 4247   6.817   6.542   3.113 -0.1922 -0.5029  0.7261
   11CHTO  H224 4248   6.709   6.556   3.133  0.0410  3.3126 -0.3086
   11CHTO   N21 4249   6.887   6.628   3.211 -0.1763  0.0261  0.1720
   11CHTO  H211 4250   6.985   6.586   3.228 -0.1159  0.9131  2.1152
   11CHTO  H212 4251   6.839   6.627   3.308 -0.2943 -0.2765  0.1123
   11CHTO   O75 4252   6.876   6.514   2.723 -0.6471  0.0558 -0.1084
   11CHTO  C112 4253   6.797   6.619   2.633 -0.2096 -0.0078  0.2706
   11CHTO  H216 4254   6.805   6.722   2.669 -2.1642 -0.5208  2.2805
   11CHTO   O73 4255   6.659   6.578   2.622 -0.2377 -0.2663  0.2315
   11CHTO  C113 4256   6.575   6.671   2.554  0.4273 -0.5878  0.2105
   11CHTO  H217 4257   6.599   6.775   2.586  1.1144 -0.9478  0.9128
   11CHTO  C124 4258   6.431   6.641   2.593  0.2681  0.4935  0.0791
   11CHTO   O83 4259   6.328   6.736   2.567 -0.1003  0.0690  0.0839
   11CHTO  H204 4260   6.356   6.821   2.593  0.2964 -0.9542  3.2173
   11CHTO  C109 4261   6.599   6.663   2.403  0.4118  0.4412 -0.1969
   11CHTO  H213 4262   6.559   6.565   2.375 -1.4491  0.7122  1.4555
   11CHTO  C110 4263   6.756   6.673   2.375  0.5159 -0.1719  0.2609
   11CHTO  H214 4264   6.778   6.779   2.368  1.5811 -0.5338 -2.2894
   11CHTO   O78 4265   6.784   6.628   2.247  0.8283 -0.1154 -0.4898
   11CHTO  H200 4266   6.717   6.648   2.184 -1.0931  0.3188  1.6010
   11CHTO  C111 4267   6.851   6.602   2.485  0.0396 -0.0355  0.0686
   11CHTO  H215 4268   6.847   6.495   2.459 -1.2959  0.7723 -3.2819
   11CHTO   N19 4269   6.991   6.645   2.477  0.0364  0.6496  0.0738
   11CHTO  H207 4270   7.053   6.642   2.565  1.5661  0.9382 -0.9750
   11CHTO  H208 4271   6.999   6.740   2.427 -1.8008  1.1179  0.6488
   11CHTO   O74 4272   6.517   6.757   2.341  0.3630 -0.2072  0.1846
   11CHTO  C115 4273   6.458   6.711   2.203  0.7111 -0.4610 -0.0166
   11CHTO  H219 4274   6.504   6.618   2.171  3.9058  1.4546 -1.2867
   11CHTO   O76 4275   6.299   6.678   2.217  0.0791 -0.4362 -0.0107
   11CHTO  C122 4276   6.226   6.798   2.257  0.0062 -0.3929  0.7232
   11CHTO  H226 4277   6.247   6.814   2.362  0.0268 -0.3003  0.7045
   11CHTO  C126 4278   6.068   6.796   2.245  0.4138 -0.2876  0.2045
   11CHTO   O85 4279   6.000   6.894   2.327 -0.7000  0.0891 -0.4357
   11CHTO  H206 4280   5.908   6.880   2.311 -1.5623  0.7032  3.3871
   11CHTO  C121 4281   6.284   6.930   2.183 -0.4518  0.5651 -0.1839
   11CHTO  H225 4282   6.195   6.987   2.150 -0.7558  0.2538  0.0987
   11CHTO   O81 4283   6.360   7.013   2.281  0.1819  0.6391 -0.2405
   11CHTO  H202 4284   6.311   7.031   2.358 -0.4286  1.8746 -0.8978
   11CHTO  C119 4285   6.368   6.894   2.059 -0.4918 -0.3938 -0.0578
   11CHTO  H223 4286   6.305   6.821   2.009  1.5560 -3.0784  1.1955
   11CHTO  C117 4287   6.489   6.820   2.099 -0.1689 -1.3646  0.7305
   11CHTO  H221 4288   6.566   6.883   2.144 -0.4418  0.0836 -0.7514
   11CHTO   N20 4289   6.562   6.754   1.983  0.0459 -0.2684  0.0870
   11CHTO  H209 4290   6.576   6.816   1.896 -0.1877 -2.6907 -1.7072
   11CHTO  H210 4291   6.519   6.657   1.963  0.8550 -1.1783  2.5061
   11CHTO   O80 4292   6.387   7.018   1.947  0.5440 -0.0300  0.0311
   11CHTO  C103 4293   6.476   7.134   1.984 -0.8965 -0.0814  1.2709
   11CHTO  H190 4294   6.468   7.156   2.091 -0.7141  2.6578  0.7610
   11CHTO  C101 4295   6.631   7.135   1.942 -0.5817  0.8292 -0.2545
   11CHTO  H188 4296   6.635   7.096   1.841  0.4652 -2.8013  1.1349
   11CHTO   O68 4297   6.716   7.031   2.049 -0.2439 -0.5300  0.1522
   11CHTO  H168 4298   6.682   7.052   2.134 -0.3817 -0.9334  0.2009
   11CHTO   C99 4299   6.688   7.283   1.933 -0.8682 -0.2291 -0.0372
   11CHTO  H186 4300   6.704   7.323   2.036  4.9822 -0.7750 -0.5447
   11CHTO   N17 4301   6.817   7.287   1.871  0.6579 -0.3977 -0.1993
   11CHTO  H174 4302   6.802   7.304   1.766 -2.2854  0.6319  0.3519
   11CHTO  H175 4303   6.864   7.190   1.878 -0.5609 -0.9048  1.3966
   11CHTO   C97 4304   6.592   7.384   1.861  0.1207  0.3950 -0.5786
   11CHTO  H184 4305   6.588   7.359   1.754 -0.4638  0.5298 -0.5918
   11CHTO   O64 4306   6.460   7.381   1.919  0.1657  0.0357 -0.2140
   11CHTO  C104 4307   6.394   7.252   1.914 -0.0478  0.0953  0.7793
   11CHTO  H191 4308   6.378   7.229   1.809  3.0431 -3.4573  0.9776
   11CHTO  C108 4309   6.260   7.272   1.983  0.0496 -0.7509 -0.2435
   11CHTO   O71 4310   6.268   7.303   2.120 -0.3481  0.6363  0.2513
   11CHTO  H171 4311   6.352   7.282   2.157 -1.0498  0.5200  1.7846
   11CHTO   O62 4312   6.637   7.517   1.875 -0.3557 -0.5689 -0.0956
   11CHTO   C91 4313   6.574   7.615   1.794  0.3847 -0.3840  0.2326
   11CHTO  H178 4314   6.540   7.580   1.697  1.8956  1.2755 -0.9435
   11CHTO   C92 4315   6.700   7.707   1.767 -0.3560 -0.0283  0.2347
   11CHTO  H179 4316   6.782   7.646   1.725 -0.3983 -0.7816  1.2384
   11CHTO   O66 4317   6.670   7.788   1.658  0.3002 -0.3014 -0.3168
   11CHTO  H166 4318   6.736   7.852   1.635  0.8879 -0.8417 -0.1496
   11CHTO   C93 4319   6.745   7.792   1.889 -0.0227  0.0231  0.3833
   11CHTO  H180 4320   6.812   7.870   1.849 -1.1853  2.0619  2.2703
   11CHTO   N16 4321   6.825   7.725   1.999  0.0085 -0.6385  0.2101
   11CHTO  H172 4322   6.779   7.639   2.046 -0.6318  1.3494  3.2994
   11CHTO  H173 4323   6.836   7.800   2.075  1.6288 -0.4172 -0.2194
   11CHTO   C94 4324   6.616   7.869   1.949  0.1830  0.3039  0.4318
   11CHTO  H181 4325   6.639   7.913   2.046 -0.4312  1.6856 -0.0428
   11CHTO   O61 4326   6.509   7.780   1.980 -0.1919  0.0270  0.0902
   11CHTO   C95 4327   6.459   7.693   1.875  0.0294  0.1468  0.3651
   11CHTO  H182 4328   6.387   7.621   1.914 -0.0839 -0.3343 -0.7407
   11CHTO  C106 4329   6.369   7.768   1.772  0.2526  0.1703 -0.0452
   11CHTO   O69 4330   6.250   7.798   1.846  0.0635 -0.4468  0.1528
   11CHTO  H169 4331   6.201   7.718   1.850 -0.5620 -0.2895 -2.8913
   11CHTO   O63 4332   6.577   7.976   1.853  0.2766 -0.2914 -0.6990
   11CHTO   C96 4333   6.614   8.112   1.911  0.5754  0.2853 -0.2707
   11CHTO  H183 4334   6.703   8.104   1.974  1.6875  3.4086 -1.3316
   11CHTO   C98 4335   6.503   8.188   1.989  0.2183 -0.1581  0.5804
   11CHTO  H185 4336   6.471   8.120   2.070 -0.6981 -0.1347  0.2437
   11CHTO   O67 4337   6.555   8.301   2.051  0.4768  0.0022 -0.4419
   11CHTO  H167 4338   6.576   8.372   1.993  0.7287  0.0716 -0.2639
   11CHTO  C102 4339   6.378   8.224   1.896  0.2526 -0.7292  1.1156
   11CHTO  H189 4340   6.338   8.320   1.932  0.8057 -0.4803  1.0763
   11CHTO   N18 4341   6.268   8.127   1.915  0.0517 -0.6087  0.8598
   11CHTO  H176 4342   6.188   8.160   1.979 -1.6517 -0.9204 -1.0360
   11CHTO  H177 4343   6.225   8.107   1.818 -0.0335 -1.8931  1.1517
   11CHTO  C105 4344   6.426   8.238   1.747 -0.2778  0.4097 -0.0491
   11CHTO  H192 4345   6.422   8.138   1.704 -0.0253 -0.0203  0.9257
   11CHTO   O65 4346   6.559   8.289   1.741 -0.3167 -0.3457  0.8041
   11CHTO  C100 4347   6.662   8.202   1.786  0.6028 -0.1735 -0.5700
   11CHTO  H187 4348   6.682   8.140   1.698  0.6987  0.7371 -1.2039
   11CHTO  C107 4349   6.784   8.292   1.820  0.0590  0.7311 -0.3558
   11CHTO   O70 4350   6.842   8.331   1.696 -0.9064 -0.0111 -0.2178
   11CHTO  H170 4351   6.834   8.423   1.683  2.1154  0.4022  0.3648
   11CHTO   O57 4352   6.330   8.339   1.665 -0.0222 -0.1114 -0.4700
   11CHTO   C85 4353   6.282   8.326   1.533 -0.4682  0.3235 -0.0202
   11CHTO  H157 4354   6.228   8.423   1.527  0.9236  1.1963  1.1034
   11CHTO   C83 4355   6.175   8.213   1.517 -0.6592 -0.5354  0.4112
   11CHTO  H155 4356   6.088   8.231   1.580 -0.4675 -1.6414  1.0190
   11CHTO   O56 4357   6.214   8.078   1.557  0.1967  0.5247  0.4567
   11CHTO  H135 4358   6.301   8.061   1.526 -0.2548 -0.4087 -0.3214
   11CHTO   C81 4359   6.131   8.226   1.368 -0.0432 -0.0535 -0.2450
   11CHTO  H153 4360   6.105   8.331   1.358 -1.2160 -0.1308  1.6815
   11CHTO   N14 4361   6.009   8.156   1.326  0.1078  0.1339 -0.1500
   11CHTO  H141 4362   5.967   8.209   1.244  0.6454  2.4949  1.0586
   11CHTO  H142 4363   5.938   8.165   1.406  0.6179  3.3791 -0.0153
   11CHTO   C79 4364   6.246   8.188   1.273 -0.0000 -1.0504 -0.1972
   11CHTO  H151 4365   6.216   8.196   1.169  1.5821  0.0090 -0.6033
   11CHTO   O52 4366   6.359   8.278   1.288  0.1434  0.6822 -0.6730
   11CHTO   C86 4367   6.395   8.317   1.426  0.2814  0.2245  0.3322
   11CHTO  H158 4368   6.457   8.231   1.459  0.3234  0.9523  2.2191
   11CHTO   C90 4369   6.492   8.444   1.428  0.3319 -0.6599 -0.1153
   11CHTO   O60 4370   6.622   8.417   1.382 -0.3219  0.5227 -0.6004
   11CHTO  H138 4371   6.620   8.412   1.288 -0.7926 -0.7217 -0.5190
   11CHTO   O50 4372   6.299   8.062   1.286 -0.0201 -0.4259  0.0478
   11CHTO   C73 4373   6.377   7.977   1.201  0.1760 -0.1632  0.8716
   11CHTO  H145 4374   6.459   8.034   1.154  0.0668 -2.0134 -1.6502
   11CHTO   C74 4375   6.303   7.911   1.075 -0.5562  0.4823  0.7739
   11CHTO  H146 4376   6.251   7.997   1.031 -0.0669  0.7778  0.7637
   11CHTO   O54 4377   6.402   7.865   0.977  0.5581 -0.3726 -0.4197
   11CHTO  H133 4378   6.375   7.809   0.907  1.5875 -1.5043  0.0729
   11CHTO   C75 4379   6.205   7.793   1.116  0.2808  0.1655 -0.2264
   11CHTO  H147 4380   6.126   7.829   1.184 -0.6197 -0.0138 -1.1570
   11CHTO   N13 4381   6.122   7.745   1.005 -0.0428 -0.3616 -0.2765
   11CHTO  H139 4382   6.076   7.653   1.040 -0.3434 -0.8195 -1.8666
   11CHTO  H140 4383   6.048   7.820   0.981  1.4166  0.5416 -2.0510
   11CHTO   C76 4384   6.296   7.690   1.196 -0.5263 -0.2781  0.4964
   11CHTO  H148 4385   6.370   7.664   1.119  0.9818  0.5771  1.6280
   11CHTO   O49 4386   6.352   7.745   1.314  0.1070 -0.7249  0.3668
   11CHTO   C77 4387   6.437   7.863   1.290 -0.1604 -0.2917  0.5044
   11CHTO  H149 4388   6.530   7.835   1.241  0.4107  2.1773  0.1085
   11CHTO   C88 4389   6.495   7.917   1.424  0.0590 -0.1519 -0.1964
   11CHTO   O58 4390   6.601   8.017   1.412 -0.1133 -0.0378  0.0639
   11CHTO  H136 4391   6.581   8.065   1.334 -0.2527 -0.1684  0.0193
   11CHTO   O51 4392   6.217   7.559   1.233 -0.2847  0.1247 -0.6622
   11CHTO   C78 4393   6.319   7.424   1.231 -0.0735 -0.2376  0.5532
   11CHTO  H150 4394   6.423   7.460   1.214  0.0218 -0.4390  0.7108
   11CHTO   C80 4395   6.273   7.320   1.117  0.0630  0.3567  0.3060
   11CHTO  H152 4396   6.173   7.277   1.137  0.2180 -0.3987 -0.5131
   11CHTO   O55 4397   6.264   7.395   0.997 -0.0103 -0.1549  0.0634
   11CHTO  H134 4398   6.182   7.431   0.971  0.1589 -0.5870 -1.0845
   11CHTO   C84 4399   6.378   7.202   1.105  0.2239 -0.2276  0.3430
   11CHTO  H156 4400   6.475   7.245   1.081  0.6740 -0.7794  1.1847
   11CHTO   N15 4401   6.347   7.099   0.990 -0.4795  0.3317 -0.1698
   11CHTO  H143 4402   6.443   7.083   0.946 -0.0510  0.4947  0.6902
   11CHTO  H144 4403   6.279   7.142   0.919 -1.7835 -1.8420 -0.2936
   11CHTO   C87 4404   6.377   7.142   1.251 -0.6727  0.0099  0.0973
   11CHTO  H159 4405   6.277   7.104   1.273 -1.3822  1.8795  0.2102
   11CHTO   O53 4406   6.414   7.245   1.354  0.5350 -0.0442  0.5495
   11CHTO   C82 4407   6.315   7.349   1.363 -0.3156  0.1088 -1.0351
   11CHTO  H154 4408   6.216   7.308   1.380 -0.7853  1.6573  0.0677
   11CHTO   C89 4409   6.338   7.448   1.477 -0.0710  0.2018 -0.0574
   11CHTO   O59 4410   6.319   7.395   1.605  0.0889 -0.7499 -0.0781
   11CHTO  H137 4411   6.383   7.327   1.605  0.4368 -0.4562  1.9056
   11CHTO   O45 4412   6.481   7.020   1.255  0.1530 -0.0718  0.2152
   11CHTO   C67 4413   6.623   7.053   1.252 -0.0282  0.6060  0.2090
   11CHTO  H124 4414   6.632   7.129   1.175  1.1125  2.8983  2.5262
   11CHTO   C65 4415   6.685   7.110   1.387 -0.0212 -0.1217 -0.1804
   11CHTO  H122 4416   6.613   7.079   1.462  0.0370  0.2456  0.0275
   11CHTO   O44 4417   6.683   7.254   1.367 -0.1672 -0.2246 -0.0456
   11CHTO  H102 4418   6.657   7.305   1.440  0.7870  0.5595 -0.2443
   11CHTO   C63 4419   6.824   7.051   1.438 -0.1580 -0.8008 -0.3155
   11CHTO  H120 4420   6.805   6.952   1.478 -2.6239  0.6578  2.2638
   11CHTO   N11 4421   6.899   7.129   1.543  0.0020 -0.2185 -0.2803
   11CHTO  H108 4422   6.976   7.069   1.586  0.5573  2.1384  2.1638
   11CHTO  H109 4423   6.950   7.216   1.507 -0.3572 -0.3797 -1.2052
   11CHTO   C61 4424   6.914   7.035   1.303  0.6364 -0.2602 -0.1265
   11CHTO  H118 4425   7.011   6.990   1.331  2.1921  1.9125 -1.8665
   11CHTO   O40 4426   6.851   6.941   1.207 -0.1672 -0.2674  0.6364
   11CHTO   C68 4427   6.707   6.925   1.205  0.2911  0.4964 -0.0452
   11CHTO  H125 4428   6.680   6.844   1.276 -0.5327 -0.5495 -1.5352
   11CHTO   C72 4429   6.659   6.880   1.062 -0.1465  0.2962  0.1914
   11CHTO   O48 4430   6.737   6.775   1.006 -0.6961  0.5899 -0.0341
   11CHTO  H105 4431   6.683   6.700   0.998  0.3297 -0.0495 -1.1292
   11CHTO   O38 4432   6.938   7.158   1.231  0.7336 -0.9925  0.5974
   11CHTO   C55 4433   7.064   7.180   1.163  0.1363 -0.4356 -0.1240
   11CHTO  H112 4434   7.127   7.090   1.174  2.9092  1.2792 -1.4191
   11CHTO   C56 4435   7.128   7.302   1.228  0.8299 -0.1280  0.3773
   11CHTO  H113 4436   7.059   7.386   1.214  0.4077 -0.4371  0.5671
   11CHTO   O42 4437   7.134   7.283   1.369  0.0542  0.1040 -0.7399
   11CHTO  H100 4438   7.053   7.302   1.412  0.5804  1.6755 -0.4223
   11CHTO   C57 4439   7.271   7.326   1.162  0.3160 -0.4236 -1.2883
   11CHTO  H114 4440   7.329   7.244   1.203 -0.7270 -0.3439  0.3646
   11CHTO   N10 4441   7.338   7.450   1.215  0.0717  0.1682 -0.3504
   11CHTO  H106 4442   7.321   7.540   1.158 -0.9959  1.3083  1.7014
   11CHTO  H107 4443   7.316   7.470   1.319 -2.1117 -1.2827 -0.5139
   11CHTO   C58 4444   7.260   7.314   1.007  0.1761 -0.1674 -0.0604
   11CHTO  H115 4445   7.225   7.409   0.962  1.6858  0.2333 -0.4259
   11CHTO   O37 4446   7.179   7.211   0.960  0.1185  0.2523 -0.0328
   11CHTO   C59 4447   7.047   7.195   1.012 -0.4911 -0.2582  0.2677
   11CHTO  H116 4448   6.983   7.279   0.987  0.3674  0.3732  0.1782
   11CHTO   C70 4449   6.990   7.062   0.960  0.4645 -0.0320  0.0857
   11CHTO   O46 4450   7.029   7.039   0.826  0.1669 -0.7162  0.4291
   11CHTO  H103 4451   6.959   7.061   0.768  0.8527 -0.4676 -0.3144
   11CHTO   O39 4452   7.420   7.282   0.952  0.5941 -0.4384 -0.1440
   11CHTO   C60 4453   7.447   7.285   0.814  0.5118  0.2521 -0.2543
   11CHTO  H117 4454   7.358   7.255   0.761  0.3161 -0.8386  0.6706
   11CHTO   C62 4455   7.485   7.435   0.762 -0.6709 -0.3481  0.4129
   11CHTO  H119 4456   7.388   7.487   0.774 -0.0816  1.0989 -0.8733
   11CHTO   O43 4457   7.584   7.497   0.844 -0.8834  0.1977 -0.4829
   11CHTO  H101 4458   7.620   7.431   0.901  1.5335  3.0884  1.4961
   11CHTO   C66 4459   7.520   7.435   0.610 -0.0998 -0.5107  0.3467
   11CHTO  H123 4460   7.441   7.384   0.555  0.2163 -0.3168 -0.2980
   11CHTO   N12 4461   7.529   7.569   0.541 -0.0053 -0.2799  0.1986
   11CHTO  H110 4462   7.439   7.628   0.546 -0.2316 -0.5262 -0.7992
   11CHTO  H111 4463   7.566   7.560   0.440 -0.7448  0.0340 -0.0971
   11CHTO   C69 4464   7.640   7.343   0.587 -0.1772 -0.1260  0.0526
   11CHTO  H126 4465   7.731   7.387   0.632 -0.2036  3.2038 -2.8560
   11CHTO   O41 4466   7.602   7.190   0.655 -0.1171  0.2265  0.2166
   11CHTO   C64 4467   7.561   7.187   0.785  0.4276  0.2836  0.2177
   11CHTO  H121 4468   7.644   7.217   0.851  1.1064 -1.7410  0.3412
   11CHTO   C71 4469   7.528   7.043   0.826  0.5987 -0.6196 -0.3505
   11CHTO   O47 4470   7.413   6.999   0.747  0.1077  0.5088  0.1603
   11CHTO  H104 4471   7.381   6.912   0.760 -0.1542  0.6154  0.2334
   11CHTO   O34 4472   7.668   7.339   0.391 -0.2212 -0.0994  0.1383
   11CHTO   C49 4473   7.664   7.228   0.299 -0.2895  0.7911  0.8029
   11CHTO   H91 4474   7.768   7.204   0.280 -0.8350 -1.2822  0.2915
   11CHTO   C47 4475   7.598   7.270   0.164 -0.5054  0.1031 -0.2499
   11CHTO   H89 4476   7.605   7.180   0.100  3.0251 -0.2148  0.4955
   11CHTO   O33 4477   7.669   7.387   0.107 -0.1687  0.0366 -0.2018
   11CHTO   H70 4478   7.760   7.372   0.092 -0.1189 -1.8014  1.6692
   11CHTO   C45 4479   7.438   7.307   0.200 -1.2517  0.5016  0.4376
   11CHTO   H87 4480   7.439   7.388   0.275 -1.7226  0.1080  0.8741
   11CHTO    N8 4481   7.358   7.345   0.081  0.8915 -0.0303  0.2259
   11CHTO   H75 4482   7.280   7.412   0.113 -0.8240 -2.0132  0.3572
   11CHTO   H76 4483   7.306   7.255   0.051 -2.1409  2.0934 -1.2100
   11CHTO   C43 4484   7.376   7.180   0.273 -0.7482 -0.2061  0.1334
   11CHTO   H85 4485   7.280   7.221   0.303 -0.3792  1.4446 -0.8821
   11CHTO   O29 4486   7.454   7.139   0.389  0.1681 -0.3635  0.5828
   11CHTO   C50 4487   7.592   7.109   0.361  0.1000  0.8299  0.5547
   11CHTO   H92 4488   7.619   7.089   0.466  0.5045 -0.3623  0.2352
   11CHTO   C54 4489   7.611   6.970   0.292  0.2296  0.0784 -0.5196
   11CHTO   O36 4490   7.647   6.876   0.395 -0.0661  0.2535 -0.2115
   11CHTO   H72 4491   7.735   6.894   0.423 -0.3526  2.3646 -0.5729
   11CHTO   O27 4492   7.351   7.070   0.190 -0.1032 -0.1255 -0.4377
   11CHTO   C37 4493   7.249   6.975   0.176  0.7277  0.4848 -0.3975
   11CHTO   H79 4494   7.288   6.878   0.211  0.3659 -0.1832 -1.7759
   11CHTO   C38 4495   7.130   7.001   0.261 -0.1017 -0.0253 -0.2881
   11CHTO   H80 4496   7.097   7.103   0.237  1.8565  0.3629 -1.4178
   11CHTO   O31 4497   7.177   6.996   0.400 -0.0593 -0.5577  0.5835
   11CHTO   H68 4498   7.124   6.948   0.461  1.2819 -1.3961  1.1399
   11CHTO   C39 4499   6.999   6.913   0.242 -0.7433 -0.3084  0.3650
   11CHTO   H81 4500   7.021   6.823   0.300 -0.8288 -0.3538  0.3262
   11CHTO    N7 4501   6.875   6.981   0.294  0.6311 -0.0603  0.3640
   11CHTO   H73 4502   6.838   6.925   0.378 -0.1625 -0.1169 -0.0145
   11CHTO   H74 4503   6.902   7.082   0.324  1.9132 -1.0909  2.7905
   11CHTO   C40 4504   6.985   6.882   0.088  0.9733 -0.5734  0.5811
   11CHTO   H82 4505   6.946   6.970   0.036  0.4914 -0.6258  0.8469
   11CHTO   O26 4506   7.105   6.842   0.030 -0.0436 -0.0328  0.1992
   11CHTO   C41 4507   7.211   6.953   0.027  0.4126  0.1734 -0.0368
   11CHTO   H83 4508   7.166   7.049  -0.005  3.1319  1.5616  0.1593
   11CHTO   C52 4509   7.329   6.916  -0.067 -0.1823 -0.5005  0.3063
   11CHTO   O35 4510   7.273   6.894  -0.206  0.0419 -0.0042 -0.4657
   11CHTO   H71 4511   7.211   6.825  -0.195  0.4987 -0.3003  0.3016
   11CHTO   O28 4512   6.899   6.769   0.065  0.1618 -0.1798 -0.0083
   11CHTO   C42 4513   6.815   6.756  -0.054 -0.4857 -0.0530  0.1735
   11CHTO   H84 4514   6.844   6.835  -0.123  0.7769 -2.8755 -2.6401
   11CHTO   C44 4515   6.666   6.782  -0.023 -1.0041 -0.7128 -0.5372
   11CHTO   H86 4516   6.634   6.704   0.047 -0.6182  1.5046  2.1869
   11CHTO   O32 4517   6.647   6.905   0.050  0.1103 -0.0550 -0.1767
   11CHTO   H69 4518   6.576   6.899   0.111  0.2628 -0.7390 -0.0674
   11CHTO   C48 4519   6.574   6.777  -0.150  0.8074 -0.4036  0.0697
   11CHTO   H90 4520   6.614   6.860  -0.210 -0.5564  1.0939  1.1896
   11CHTO    N9 4521   6.425   6.798  -0.123 -0.2642  0.0509  0.0081
   11CHTO   H77 4522   6.363   6.722  -0.168  1.4292 -0.7838 -0.9663
   11CHTO   H78 4523   6.399   6.903  -0.136  2.8075  1.3116  3.3823
   11CHTO   C51 4524   6.602   6.641  -0.229  1.2213 -1.0845 -0.8199
   11CHTO   H93 4525   6.560   6.558  -0.173 -0.1982 -0.4395 -0.9195
   11CHTO   O30 4526   6.745   6.626  -0.251  0.8735 -0.2826 -0.1050
   11CHTO   C46 4527   6.837   6.622  -0.126  0.0474 -0.1835 -0.2356
   11CHTO   H88 4528   6.801   6.544  -0.057  0.8499 -0.2417  0.1309
   11CHTO   C53 4529   6.979   6.589  -0.174  0.7083 -0.4630 -0.5715
   11CHTO   O72 4530   7.075   6.590  -0.073 -0.0287  0.8284  0.1401
   11CHTO  H199 4531   7.066   6.670  -0.024 -0.6870  1.7316 -1.4114
   11CHTO   O22 4532   6.543   6.642  -0.360  0.3315 -0.1089  0.6760
   11CHTO   C31 4533   6.413   6.578  -0.402  0.0094  0.6970  0.4296
   11CHTO   H59 4534   6.361   6.549  -0.308 -0.5531 -0.3592 -0.2036
   11CHTO   C29 4535   6.322   6.671  -0.488 -0.0774  0.5737 -0.8745
   11CHTO   H57 4536   6.376   6.714  -0.573 -0.0161  0.1885 -1.0302
   11CHTO   O21 4537   6.281   6.791  -0.415 -0.0918  0.4328  0.0141
   11CHTO   H37 4538   6.217   6.834  -0.469 -0.1259 -0.5021 -0.6859
   11CHTO   C27 4539   6.199   6.590  -0.541  1.3501  0.6162 -0.1315
   11CHTO   H55 4540   6.141   6.558  -0.452 -0.0719 -0.6931 -1.5061
   11CHTO    N5 4541   6.116   6.673  -0.627 -0.0239  0.2679  0.5854
   11CHTO   H43 4542   6.105   6.624  -0.723  1.4469  2.7092 -0.8730
   11CHTO   H44 4543   6.026   6.698  -0.572 -1.2127 -1.8060 -0.3559
   11CHTO   C25 4544   6.241   6.462  -0.611  0.1456  0.4248  0.3894
   11CHTO   H53 4545   6.312   6.493  -0.689 -1.0929  1.5182 -0.3299
   11CHTO   O17 4546   6.322   6.382  -0.523 -0.9323  0.3927 -0.1946
   11CHTO   C32 4547   6.443   6.443  -0.478 -0.1908 -0.1212  0.3903
   11CHTO   H60 4548   6.509   6.466  -0.561  0.8261  1.7693  1.6713
   11CHTO   C36 4549   6.508   6.337  -0.389  0.5955 -0.1284 -0.2738
   11CHTO   O25 4550   6.652   6.359  -0.380 -0.2555 -0.6431 -0.0931
   11CHTO   H40 4551   6.670   6.416  -0.308 -0.6253 -1.4635  0.6576
   11CHTO   O15 4552   6.125   6.372  -0.674 -0.4142 -0.2185  0.3426
   11CHTO   C19 4553   6.084   6.253  -0.607 -0.0787  0.0463  0.1728
   11CHTO   H47 4554   6.177   6.204  -0.577 -1.2560 -2.4264 -0.1412
   11CHTO   C20 4555   5.978   6.277  -0.495 -0.3588 -0.1881 -0.3004
   11CHTO   H48 4556   5.895   6.342  -0.527 -0.2341 -0.8087 -1.9396
   11CHTO   O19 4557   6.049   6.350  -0.396  0.3012 -0.7996 -0.1254
   11CHTO   H35 4558   5.988   6.408  -0.354  0.8988  0.3212 -0.7830
   11CHTO   C21 4559   5.922   6.145  -0.432 -0.2611 -0.1705 -1.1408
   11CHTO   H49 4560   5.998   6.101  -0.368 -1.4194 -0.5633 -0.0144
   11CHTO    N4 4561   5.809   6.178  -0.347  0.6301 -0.1452 -0.2063
   11CHTO   H41 4562   5.828   6.272  -0.298  1.5094 -1.0109  1.1737
   11CHTO   H42 4563   5.800   6.105  -0.268  1.1886  0.5927  0.5547
   11CHTO   C22 4564   5.882   6.033  -0.534 -0.5191  0.3683  0.0136
   11CHTO   H50 4565   5.785   6.058  -0.579  0.9290  0.9228 -2.9243
   11CHTO   O14 4566   5.983   6.029  -0.637  0.0364 -0.1494 -0.2232
   11CHTO   C23 4567   6.013   6.150  -0.705 -0.2584  0.0139 -0.1324
   11CHTO   H51 4568   5.920   6.190  -0.748  0.3942  1.8041  0.0803
   11CHTO   C34 4569   6.098   6.119  -0.824  0.3097  0.2512  0.1156
   11CHTO   O23 4570   6.044   6.018  -0.913 -0.1084  0.4889 -0.1907
   11CHTO   H38 4571   5.981   6.056  -0.971 -0.6980 -1.6633 -1.0207
   11CHTO   O16 4572   5.867   5.901  -0.481 -0.0070 -0.9779  0.1434
   11CHTO   C24 4573   5.776   5.805  -0.576  0.0423  0.6501 -0.4928
   11CHTO   H52 4574   5.737   5.857  -0.663  0.0110  0.8969 -0.3304
   11CHTO   C26 4575   5.655   5.749  -0.499 -0.3379 -0.7307  0.0999
   11CHTO   H54 4576   5.697   5.695  -0.411  0.7214 -0.9612 -0.5368
   11CHTO   O20 4577   5.583   5.863  -0.455  0.2385 -0.3775 -0.4420
   11CHTO   H36 4578   5.538   5.844  -0.374  2.1152  2.7981  1.4696
   11CHTO   C30 4579   5.567   5.656  -0.584 -0.6649 -0.4227  0.2821
   11CHTO   H58 4580   5.518   5.715  -0.663 -0.4051 -0.6645 -0.0602
   11CHTO    N6 4581   5.461   5.596  -0.498  0.4471  0.3808 -0.6892
   11CHTO   H45 4582   5.499   5.523  -0.429 -0.9821 -0.5719 -0.8758
   11CHTO   H46 4583   5.402   5.538  -0.568 -1.3539 -0.5649  1.5660
   11CHTO   C33 4584   5.665   5.538  -0.642  0.1835  0.0823  0.0213
   11CHTO   H61 4585   5.704   5.480  -0.558  1.5625 -0.6436 -1.1026
   11CHTO   O18 4586   5.772   5.597  -0.708 -0.0198 -0.4128 -0.6817
   11CHTO   C28 4587   5.856   5.679  -0.627 -0.0130  0.0424  0.0981
   11CHTO   H56 4588   5.897   5.629  -0.540  1.5796  0.5481 -0.3262
   11CHTO   C35 4589   5.973   5.723  -0.716  0.0284  0.4017  0.1617
   11CHTO   O24 4590   6.055   5.616  -0.762  0.0347 -0.5506 -0.1980
   11CHTO   H39 4591   6.059   5.617  -0.856 -1.7887 -0.6911 -0.2980
   11CHTO    O9 4592   5.592   5.441  -0.731 -0.2726 -0.0768 -0.4455
   11CHTO   C13 4593   5.503   5.502  -0.858 -0.5633 -0.1511  0.0068
   11CHTO   H26 4594   5.431   5.580  -0.827 -0.3337  0.3217 -0.6428
   11CHTO   C11 4595   5.428   5.387  -0.923 -0.1358  0.7402 -0.5822
   11CHTO   H24 4596   5.343   5.353  -0.862  1.0668  0.3854  0.9025
   11CHTO    O8 4597   5.520   5.276  -0.941 -0.5210 -0.0597  0.3737
   11CHTO    H3 4598   5.500   5.218  -0.870 -0.1765 -0.5848  0.0495
   11CHTO    C9 4599   5.348   5.448  -1.044 -0.1874 -0.4973  0.5941
   11CHTO   H22 4600   5.274   5.512  -0.994  1.4858  2.0242 -0.0957
   11CHTO    N2 4601   5.264   5.350  -1.119  0.1090 -0.5056 -0.3352
   11CHTO   H10 4602   5.282   5.256  -1.069 -2.1818 -0.4083  0.7328
   11CHTO   H11 4603   5.159   5.371  -1.130  0.1842 -0.1588 -0.3931
   11CHTO    C7 4604   5.426   5.543  -1.138  0.5685 -0.3054  0.3453
   11CHTO   H20 4605   5.345   5.606  -1.181  0.2868 -0.4045  0.7257
   11CHTO    O4 4606   5.524   5.629  -1.077  0.6092  0.7938  0.2959
   11CHTO   C14 4607   5.590   5.576  -0.963 -0.0140 -0.7749  0.3724
   11CHTO   H27 4608   5.628   5.667  -0.911  1.0004  0.4467 -2.4448
   11CHTO   C18 4609   5.714   5.497  -1.004  0.1396 -0.0432  0.8644
   11CHTO   O13 4610   5.799   5.593  -1.069 -0.5334 -0.0693  0.4334
   11CHTO    H7 4611   5.867   5.547  -1.115 -2.2121 -2.4204  0.1873
   11CHTO    O2 4612   5.507   5.463  -1.277 -0.5656 -0.3349 -0.2644
   11CHTO    C1 4613   5.500   5.549  -1.397 -0.1695 -0.7154  0.3841
   11CHTO   H14 4614   5.454   5.645  -1.366  0.0261 -0.8868  1.2125
   11CHTO    C2 4615   5.406   5.485  -1.492  0.1915  0.2564  1.4445
   11CHTO   H15 4616   5.438   5.380  -1.502 -0.5278  0.0319  1.4543
   11CHTO    O6 4617   5.277   5.498  -1.430  0.2438 -0.1148  0.0224
   11CHTO    H1 4618   5.249   5.587  -1.421 -0.5232 -0.4351  0.7635
   11CHTO    C3 4619   5.410   5.540  -1.643 -0.3837  0.5676  0.0622
   11CHTO   H16 4620   5.359   5.637  -1.628  0.6037  0.8515  1.8016
   11CHTO    N1 4621   5.334   5.449  -1.739 -0.8121  0.3682  0.1834
   11CHTO    H8 4622   5.263   5.503  -1.801  1.1035  1.1414 -1.3835
   11CHTO    H9 4623   5.285   5.375  -1.677 -0.1444  0.5646  0.9554
   11CHTO    C4 4624   5.562   5.574  -1.695 -0.4095  0.1457 -0.6675
   11CHTO   H17 4625   5.618   5.485  -1.723 -0.3596  0.5668 -1.9451
   11CHTO    O1 4626   5.632   5.645  -1.588  0.4655  0.3169  0.2313
   11CHTO    C5 4627   5.640   5.571  -1.463 -0.6138 -0.2666 -0.6028
   11CHTO   H18 4628   5.687   5.474  -1.480  1.5097  0.5988  0.2145
   11CHTO   C16 4629   5.733   5.653  -1.371 -0.0132  0.5029 -0.2488
   11CHTO   O11 4630   5.869   5.638  -1.408  0.2774  0.1148  0.0705
   11CHTO    H5 4631   5.903   5.565  -1.360 -0.9621 -0.1430  0.5674
   11CHTO    O3 4632   5.559   5.660  -1.811  0.2004 -0.2206 -0.1479
   11CHTO    C6 4633   5.685   5.709  -1.868 -0.8045  0.3761 -0.5406
   11CHTO   H19 4634   5.754   5.757  -1.799  1.4041 -3.2060 -0.1352
   11CHTO    C8 4635   5.789   5.597  -1.915  0.7152  0.1741  0.5155
   11CHTO   H21 4636   5.734   5.517  -1.964  2.2872 -0.5741 -0.0713
   11CHTO    O7 4637   5.848   5.533  -1.802  0.0616 -0.1073  0.0916
   11CHTO    H2 4638   5.930   5.572  -1.776  0.6651 -0.5022 -1.1842
   11CHTO   C12 4639   5.908   5.659  -2.006  0.1489 -0.5737 -0.1759
   11CHTO   H25 4640   5.978   5.708  -1.935 -0.8997 -0.0442  0.4980
   11CHTO    N3 4641   5.975   5.539  -2.076 -0.8749 -0.0992 -0.1909
   11CHTO   H12 4642   6.057   5.569  -2.139 -1.2689 -0.3731 -0.8384
   11CHTO   H13 4643   5.907   5.474  -2.129 -1.0701  0.4714 -0.6422
   11CHTO   C15 4644   5.855   5.766  -2.109 -0.2822  0.0487  0.1876
   11CHTO   H28 4645   5.794   5.714  -2.183  0.9372 -0.5907 -0.3756
   11CHTO   O10 4646   5.981   5.858  -2.166  0.2569  0.0375  0.0026
   11CHTO    H4 4647   5.964   5.876  -2.256 -0.1639 -2.7371 -0.4988
   11CHTO    O5 4648   5.778   5.861  -2.039  0.5347  0.3409  0.4187
   11CHTO   C10 4649   5.659   5.809  -1.982 -0.2355  0.0269 -0.0136
   11CHTO   H23 4650   5.598   5.770  -2.064  0.0715 -0.1585 -0.1554
   11CHTO   C17 4651   5.574   5.929  -1.933  1.0057  0.0352 -0.2851
   11CHTO   O12 4652   5.642   6.010  -1.842 -0.0349 -0.7967 -0.3064
   11CHTO    H6 4653   5.582   6.063  -1.794 -0.5058 -2.4937  1.0558
   12CHTO  H203 4654   5.889   2.658   7.080 -0.6184 -0.3372 -1.2211
   12CHTO   O82 4655   5.969   2.646   7.033 -0.0301 -0.2351 -0.2566
   12CHTO  C123 4656   5.957   2.512   6.978  0.5224 -0.1367 -0.5698
   12CHTO  H227 4657   5.901   2.522   6.883 -0.1781  1.9699  0.0426
   12CHTO   O77 4658   6.103   2.473   6.962 -0.4213  0.0354  0.4891
   12CHTO  C118 4659   6.132   2.349   6.907  0.2017 -0.4040 -0.4249
   12CHTO  H222 4660   6.094   2.338   6.804  2.4764 -1.3553 -1.2004
   12CHTO  C125 4661   6.295   2.336   6.905 -0.0164 -0.3966 -0.4468
   12CHTO   O84 4662   6.358   2.461   6.871 -0.2128 -0.3674 -0.1148
   12CHTO  H205 4663   6.448   2.453   6.898 -0.5128 -1.0426  0.7036
   12CHTO  C114 4664   6.067   2.236   6.990 -0.3485  0.1504 -0.5060
   12CHTO  H218 4665   6.124   2.235   7.083 -2.1424 -0.8643  0.6081
   12CHTO  C116 4666   5.909   2.261   7.017 -0.1294  0.3419 -0.1345
   12CHTO  H220 4667   5.845   2.252   6.927  1.3135 -0.1124 -1.1252
   12CHTO   O79 4668   5.875   2.160   7.117 -0.2524  1.0409  0.2054
   12CHTO  H201 4669   5.801   2.112   7.086  0.5598 -1.7153  2.3594
   12CHTO  C120 4670   5.892   2.410   7.074  0.0737 -0.5880  0.2874
   12CHTO  H224 4671   5.950   2.406   7.169  0.7714 -2.3570 -0.2016
   12CHTO   N21 4672   5.752   2.450   7.106  0.4922 -0.6966 -0.6293
   12CHTO  H211 4673   5.758   2.530   7.178  0.6101  2.1186 -3.6554
   12CHTO  H212 4674   5.696   2.366   7.144 -0.7400 -0.1128 -1.1226
   12CHTO   O75 4675   6.095   2.121   6.922  0.0980 -0.8340 -0.2236
   12CHTO  C112 4676   6.120   1.990   7.013 -0.7769  0.2759 -0.6117
   12CHTO  H216 4677   6.062   2.006   7.105  0.1630  2.1740 -0.3077
   12CHTO   O73 4678   6.258   1.987   7.042 -0.4981 -0.4979  0.3556
   12CHTO  C113 4679   6.307   1.871   7.111 -0.2755  0.2289 -0.3428
   12CHTO  H217 4680   6.268   1.855   7.214 -0.0465 -3.3831 -0.7588
   12CHTO  C124 4681   6.459   1.878   7.117  0.2112 -0.1031 -0.7013
   12CHTO   O83 4682   6.498   2.001   7.179  0.7865  0.3256  0.0598
   12CHTO  H204 4683   6.591   1.988   7.183  0.6349 -0.7240  0.4254
   12CHTO  C109 4684   6.272   1.746   7.024 -0.0883  0.2451 -0.5255
   12CHTO  H213 4685   6.320   1.764   6.927  2.3548 -0.8667  0.4336
   12CHTO  C110 4686   6.122   1.730   7.001  0.3561  0.8016 -0.1566
   12CHTO  H214 4687   6.066   1.724   7.095 -1.9284  1.3920 -1.4586
   12CHTO   O78 4688   6.103   1.616   6.913  0.2962  0.1296  0.3513
   12CHTO  H200 4689   6.010   1.604   6.900  0.2950  1.6142 -1.2161
   12CHTO  C111 4690   6.079   1.860   6.926  0.6288  0.1510 -0.3838
   12CHTO  H215 4691   6.130   1.855   6.829  0.7738  0.5904 -0.3321
   12CHTO   N19 4692   5.938   1.861   6.899 -0.5909  0.0421  0.3341
   12CHTO  H207 4693   5.877   1.866   6.987  1.2045 -0.5063  1.6342
   12CHTO  H208 4694   5.915   1.935   6.823  0.3308  2.8013  2.6530
   12CHTO   O74 4695   6.322   1.623   7.079  0.2702 -0.3106  0.0394
   12CHTO  C115 4696   6.388   1.525   6.996  0.5448  0.2102 -0.4472
   12CHTO  H219 4697   6.352   1.528   6.893 -4.0165  1.7734  1.0350
   12CHTO   O76 4698   6.561   1.559   6.980 -0.3166 -0.3136  0.4520
   12CHTO  C122 4699   6.633   1.461   7.051  0.0065 -0.3953  0.3878
   12CHTO  H226 4700   6.619   1.487   7.156 -0.8625 -0.0834  0.1988
   12CHTO  C126 4701   6.784   1.485   7.018 -0.1757  0.1633 -0.5737
   12CHTO   O85 4702   6.828   1.614   7.059 -0.5624 -0.0539 -0.0518
   12CHTO  H206 4703   6.892   1.645   6.998 -1.6708  2.1566 -0.1419
   12CHTO  C121 4704   6.611   1.311   7.027 -0.1273  0.5098 -0.2317
   12CHTO  H225 4705   6.683   1.280   6.949 -0.8213  1.1059 -1.1212
   12CHTO   O81 4706   6.632   1.242   7.150  0.0712  0.8619 -0.3664
   12CHTO  H202 4707   6.562   1.275   7.202 -1.2572 -0.2423 -1.4183
   12CHTO  C119 4708   6.463   1.285   6.980  0.6377 -0.1830  1.3534
   12CHTO  H223 4709   6.463   1.312   6.875 -2.0899  0.1838  1.4187
   12CHTO  C117 4710   6.366   1.380   7.048  0.4992  0.6770  0.0209
   12CHTO  H221 4711   6.364   1.384   7.157 -0.7064 -1.7191  0.1309
   12CHTO   N20 4712   6.224   1.340   7.012 -0.1364  0.0205  0.4123
   12CHTO  H209 4713   6.164   1.403   6.947  1.0652  1.1538  0.3763
   12CHTO  H210 4714   6.175   1.311   7.103  2.4048  0.6823  2.0419
   12CHTO   O80 4715   6.424   1.132   6.980  0.0296 -0.3660  0.1732
   12CHTO  C103 4716   6.385   1.058   6.845  0.4602 -0.2053 -0.1616
   12CHTO  H190 4717   6.309   1.114   6.789 -0.4167  0.7837  1.9341
   12CHTO  C101 4718   6.514   1.026   6.750  0.7153  0.4382 -0.2908
   12CHTO  H188 4719   6.594   0.970   6.798  0.4642  1.6119  1.5530
   12CHTO   O68 4720   6.598   1.160   6.716  0.0006  0.0855 -0.2745
   12CHTO  H168 4721   6.554   1.214   6.653  1.4140 -1.5874 -2.7902
   12CHTO   C99 4722   6.453   0.955   6.622  0.1968  0.6686 -0.1733
   12CHTO  H186 4723   6.368   1.018   6.589 -0.1112 -0.1713 -1.0164
   12CHTO   N17 4724   6.548   0.925   6.509 -0.2026  0.3003 -0.6218
   12CHTO  H174 4725   6.597   1.009   6.462  1.6722 -0.2970  0.2230
   12CHTO  H175 4726   6.623   0.854   6.540 -2.1394 -1.9195 -0.8173
   12CHTO   C97 4727   6.386   0.819   6.674 -0.0285 -0.0083  0.7967
   12CHTO  H184 4728   6.471   0.761   6.713 -0.9529 -1.1458  1.1384
   12CHTO   O64 4729   6.291   0.844   6.781  0.7217  0.3734  0.2132
   12CHTO  C104 4730   6.322   0.923   6.896  0.1520 -0.1296 -0.2466
   12CHTO  H191 4731   6.393   0.868   6.957 -2.0983 -2.9066 -0.0183
   12CHTO  C108 4732   6.192   0.932   6.973 -0.1746 -0.4510 -0.1228
   12CHTO   O71 4733   6.093   1.001   6.895 -0.0343 -0.1032 -0.3375
   12CHTO  H171 4734   6.007   0.963   6.898 -0.8858  1.7264 -0.9919
   12CHTO   O62 4735   6.313   0.749   6.570  0.0634  0.4241 -0.4644
   12CHTO   C91 4736   6.287   0.610   6.603 -0.1566  0.0059 -0.3110
   12CHTO  H178 4737   6.299   0.595   6.710  1.5939  2.4509 -0.1263
   12CHTO   C92 4738   6.382   0.511   6.524 -0.1186 -0.4856 -0.3573
   12CHTO  H179 4739   6.365   0.523   6.416 -1.4223  1.0501  0.0081
   12CHTO   O66 4740   6.518   0.554   6.542  0.3379  0.1643 -0.2991
   12CHTO  H166 4741   6.535   0.580   6.630 -0.0076  1.6503 -0.6646
   12CHTO   C93 4742   6.346   0.360   6.564 -0.1225  0.3380 -0.1783
   12CHTO  H180 4743   6.359   0.346   6.672 -2.6885  2.3818  0.4593
   12CHTO   N16 4744   6.423   0.250   6.494 -0.0746 -0.4809 -0.7079
   12CHTO  H172 4745   6.528   0.248   6.522 -0.6976  2.5295  2.1514
   12CHTO  H173 4746   6.429   0.269   6.388  0.2515  1.4849 -0.3622
   12CHTO   C94 4747   6.194   0.340   6.521 -0.3337  0.5886  0.2279
   12CHTO  H181 4748   6.176   0.369   6.417 -0.5365  0.1566  0.1453
   12CHTO   O61 4749   6.116   0.431   6.601 -0.7039  0.2687 -0.7805
   12CHTO   C95 4750   6.142   0.567   6.562  0.3038 -0.3457 -0.4952
   12CHTO  H182 4751   6.129   0.572   6.454  0.3594 -1.3259 -0.5557
   12CHTO  C106 4752   6.030   0.644   6.636  0.2804  0.1818 -0.5432
   12CHTO   O69 4753   5.900   0.606   6.587 -0.4459 -0.2175  0.2462
   12CHTO  H169 4754   5.843   0.567   6.650  1.8635 -0.4770  2.2493
   12CHTO   O63 4755   6.137   0.176   6.554  0.3155  0.3450  0.0132
   12CHTO   C96 4756   6.121   0.143   6.699 -0.2633 -0.3956  0.4724
   12CHTO  H183 4757   6.140   0.230   6.761  1.5315  0.3038 -1.0228
   12CHTO   C98 4758   6.228   0.037   6.742 -0.2462 -0.3071  0.4040
   12CHTO  H185 4759   6.323   0.050   6.689 -1.0550 -0.4465 -1.1026
   12CHTO   O67 4760   6.261   0.073   6.880 -0.3723  0.3170  0.4496
   12CHTO  H167 4761   6.340   0.028   6.901 -1.3433 -0.4523  2.6212
   12CHTO  C102 4762   6.165  -0.113   6.724  0.2049 -0.5982 -0.1089
   12CHTO  H189 4763   6.231  -0.183   6.778 -0.2855 -2.7841 -2.2790
   12CHTO   N18 4764   6.166  -0.161   6.584  0.2359 -0.1527 -0.1053
   12CHTO  H176 4765   6.242  -0.237   6.566  0.9131 -0.0346  2.1023
   12CHTO  H177 4766   6.172  -0.083   6.510  4.5414 -0.5580 -0.3064
   12CHTO  C105 4767   6.019  -0.126   6.783 -0.5994 -0.2639 -0.0069
   12CHTO  H192 4768   5.976  -0.221   6.749 -2.4567  0.7578 -0.5488
   12CHTO   O65 4769   5.934  -0.034   6.715 -0.2410  0.4976 -0.1637
   12CHTO  C100 4770   5.967   0.109   6.718  0.7877 -0.1922 -0.0090
   12CHTO  H187 4771   5.905   0.162   6.645  0.8571 -0.4345 -0.2440
   12CHTO  C107 4772   5.917   0.178   6.851 -0.3493 -0.7761 -0.2487
   12CHTO   O70 4773   5.947   0.320   6.855  0.0362 -0.0325  0.6581
   12CHTO  H170 4774   5.909   0.369   6.784 -1.4139 -1.6852  0.2568
   12CHTO   O57 4775   6.026  -0.110   6.942 -0.2894 -0.1187  0.0379
   12CHTO   C85 4776   5.946  -0.200   7.025 -0.1391  0.2132  0.3999
   12CHTO  H157 4777   5.906  -0.283   6.963  2.0066  0.5942 -1.5577
   12CHTO   C83 4778   5.818  -0.129   7.089 -0.0308  0.3528  0.5269
   12CHTO  H155 4779   5.752  -0.084   7.015 -0.6500  1.5688  1.7877
   12CHTO   O56 4780   5.874  -0.013   7.152 -0.3943 -0.7810  0.4683
   12CHTO  H135 4781   5.819   0.011   7.224 -0.2395  1.0090  0.0166
   12CHTO   C81 4782   5.738  -0.233   7.171  0.9837  0.2137 -0.1416
   12CHTO  H153 4783   5.711  -0.316   7.106  3.0019  0.9359 -1.9529
   12CHTO   N14 4784   5.610  -0.177   7.230  0.4851  0.1231  0.0098
   12CHTO  H141 4785   5.552  -0.260   7.261  0.9576  0.2354  1.2194
   12CHTO  H142 4786   5.633  -0.121   7.318 -3.3660  0.7839  0.6773
   12CHTO   C79 4787   5.833  -0.292   7.286  0.1043  0.1865 -0.0106
   12CHTO  H151 4788   5.774  -0.367   7.338 -0.1887 -0.3363 -1.0813
   12CHTO   O52 4789   5.952  -0.350   7.228  0.3719  0.4071  0.4470
   12CHTO   C86 4790   6.030  -0.256   7.147 -0.1278 -0.6546 -0.1662
   12CHTO  H158 4791   6.065  -0.173   7.212  0.6800 -0.3367 -1.0046
   12CHTO   C90 4792   6.157  -0.327   7.092 -0.4966 -0.4217  0.2058
   12CHTO   O60 4793   6.136  -0.420   6.986 -0.0090  0.4049 -0.3605
   12CHTO  H138 4794   6.213  -0.471   6.968  1.7444  2.8702  0.0425
   12CHTO   O50 4795   5.873  -0.197   7.391  0.0369 -0.5260  0.6376
   12CHTO   C73 4796   5.853  -0.212   7.533 -0.4182  0.8093 -0.4636
   12CHTO  H145 4797   5.750  -0.249   7.549 -0.3090 -0.3711 -2.3198
   12CHTO   C74 4798   5.864  -0.074   7.608 -0.5707 -0.9285 -1.0022
   12CHTO  H146 4799   5.790  -0.009   7.559 -1.4533 -3.1726 -2.7034
   12CHTO   O54 4800   5.820  -0.089   7.748 -0.3251  0.1373  0.1979
   12CHTO  H133 4801   5.885  -0.137   7.795 -0.5150 -1.1259 -0.7970
   12CHTO   C75 4802   6.019  -0.019   7.600  0.5836  0.7914 -0.0543
   12CHTO  H147 4803   6.046   0.001   7.496  1.7105  1.7889  0.4097
   12CHTO   N13 4804   6.047   0.115   7.658  0.1768  0.0927 -0.2712
   12CHTO  H139 4805   6.082   0.186   7.584  1.4483  0.2720  0.4928
   12CHTO  H140 4806   6.108   0.113   7.747  0.7081  1.7588 -0.5720
   12CHTO   C76 4807   6.116  -0.135   7.666 -0.0592  0.5224 -0.0093
   12CHTO  H148 4808   6.090  -0.150   7.771  1.9232 -1.4971  0.2441
   12CHTO   O49 4809   6.084  -0.263   7.595 -0.1460  0.2052  0.2240
   12CHTO   C77 4810   5.955  -0.313   7.608  0.2238  0.1355  0.4806
   12CHTO  H149 4811   5.914  -0.332   7.707 -1.4100  1.9302  0.1931
   12CHTO   C88 4812   5.948  -0.449   7.546  0.5350 -0.5452 -0.1226
   12CHTO   O58 4813   5.818  -0.506   7.547  1.0107  0.3463 -0.5002
   12CHTO  H136 4814   5.752  -0.445   7.519 -0.5550 -0.4397  1.3600
   12CHTO   O51 4815   6.257  -0.112   7.650 -0.4240 -1.2264  0.1013
   12CHTO   C78 4816   6.356  -0.222   7.701  0.1182 -0.3697  0.5196
   12CHTO  H150 4817   6.326  -0.324   7.669 -0.0661  0.6496 -2.8074
   12CHTO   C80 4818   6.370  -0.207   7.857 -1.0435 -0.2294  0.4927
   12CHTO  H152 4819   6.373  -0.100   7.886 -1.4851 -0.1875  0.3888
   12CHTO   O55 4820   6.248  -0.273   7.900 -0.3997 -0.2283  0.8283
   12CHTO  H134 4821   6.214  -0.223   7.972 -0.9638  0.7926 -0.1447
   12CHTO   C84 4822   6.502  -0.277   7.912  1.4537  0.0556  0.1003
   12CHTO  H156 4823   6.484  -0.385   7.918 -0.1893  0.1361 -2.8906
   12CHTO   N15 4824   6.527  -0.249   8.060  0.0824  0.0170 -0.8053
   12CHTO  H143 4825   6.559  -0.341   8.104 -1.0082  0.1812  0.3565
   12CHTO  H144 4826   6.435  -0.217   8.104  0.9714 -0.1000  1.1708
   12CHTO   C87 4827   6.630  -0.248   7.830  1.0038  0.1152  0.1387
   12CHTO  H159 4828   6.651  -0.141   7.838  3.2231 -0.2781 -0.0334
   12CHTO   O53 4829   6.597  -0.277   7.684 -0.5318 -0.0038  0.0085
   12CHTO   C82 4830   6.493  -0.187   7.641  0.1573  0.7415  0.1658
   12CHTO  H154 4831   6.518  -0.084   7.668  0.1186  0.0679  2.9338
   12CHTO   C89 4832   6.481  -0.201   7.484 -1.0195 -0.6100 -0.4762
   12CHTO   O59 4833   6.609  -0.166   7.426  0.1640 -0.0873 -0.3830
   12CHTO  H137 4834   6.625  -0.226   7.356  1.2651  0.4415 -0.5951
   12CHTO   O45 4835   6.765  -0.323   7.874 -0.4346  0.1772 -0.3678
   12CHTO   C67 4836   6.802  -0.442   7.796  0.1882  0.5313 -0.0659
   12CHTO  H124 4837   6.724  -0.500   7.748 -0.4402 -0.4982  2.1408
   12CHTO   C65 4838   6.908  -0.393   7.692  0.6311 -0.0001 -0.3242
   12CHTO  H122 4839   6.859  -0.306   7.649 -2.6455 -1.1317  0.9527
   12CHTO   O44 4840   6.930  -0.499   7.590 -0.3443 -0.1489 -0.2437
   12CHTO  H102 4841   7.022  -0.515   7.581  0.1828  1.8288  1.3395
   12CHTO   C63 4842   7.039  -0.342   7.763  0.0893 -0.4338 -0.0052
   12CHTO  H120 4843   7.013  -0.260   7.830 -2.2016  0.6691 -2.1610
   12CHTO   N11 4844   7.140  -0.270   7.670  0.5754 -0.2819 -0.4574
   12CHTO  H108 4845   7.233  -0.322   7.681  0.7085  0.1798  0.6783
   12CHTO  H109 4846   7.116  -0.256   7.567 -0.8848 -0.7278 -0.1900
   12CHTO   C61 4847   7.102  -0.444   7.861 -0.1411  0.7236 -0.2272
   12CHTO  H118 4848   7.155  -0.383   7.936  0.8751  0.4563 -0.7065
   12CHTO   O40 4849   7.000  -0.512   7.929 -0.5624 -0.1230  0.0077
   12CHTO   C68 4850   6.868  -0.547   7.890 -0.0941  0.2285 -0.6091
   12CHTO  H125 4851   6.809  -0.544   7.985  0.3853 -1.6627 -0.2304
   12CHTO   C72 4852   6.859  -0.694   7.838 -0.1799 -0.9788  0.5089
   12CHTO   O48 4853   6.886  -0.778   7.951  0.1467 -0.0261  0.3349
   12CHTO  H105 4854   6.839  -0.857   7.934 -0.4513  0.2935  0.5152
   12CHTO   O38 4855   7.189  -0.547   7.799  0.2442 -0.3904  0.6812
   12CHTO   C55 4856   7.316  -0.567   7.866 -0.0135  0.4664 -0.8319
   12CHTO  H112 4857   7.302  -0.556   7.974  4.2702 -2.8489  0.2341
   12CHTO   C56 4858   7.422  -0.465   7.807 -0.4564  0.1687 -0.2393
   12CHTO  H113 4859   7.385  -0.461   7.704 -2.6689  0.4169  0.5337
   12CHTO   O42 4860   7.411  -0.335   7.868 -0.3873  0.0298  0.4266
   12CHTO  H100 4861   7.386  -0.344   7.958  0.2251 -0.4256  0.5565
   12CHTO   C57 4862   7.575  -0.515   7.826  0.0798 -0.2497 -0.0166
   12CHTO  H114 4863   7.602  -0.478   7.925 -1.9458 -1.1617  0.8905
   12CHTO   N10 4864   7.665  -0.452   7.726 -0.4914  0.8395 -0.4050
   12CHTO  H106 4865   7.734  -0.387   7.779  0.2108 -1.3062  1.4139
   12CHTO  H107 4866   7.619  -0.408   7.640 -1.1904  0.5167 -0.1993
   12CHTO   C58 4867   7.589  -0.670   7.828 -0.6689  0.8008 -0.6427
   12CHTO  H115 4868   7.576  -0.713   7.727  0.8455  0.6666 -0.7888
   12CHTO   O37 4869   7.485  -0.737   7.905  0.1294  0.3152  0.2073
   12CHTO   C59 4870   7.359  -0.717   7.849  0.3526 -0.4791  0.0611
   12CHTO  H116 4871   7.359  -0.741   7.743  0.2096  0.9251 -0.2632
   12CHTO   C70 4872   7.258  -0.811   7.914  0.6091  0.0016  0.0733
   12CHTO   O46 4873   7.264  -0.934   7.854  0.5152  0.2849 -0.0090
   12CHTO  H103 4874   7.331  -0.973   7.906 -0.3073  1.2239  1.8046
   12CHTO   O39 4875   7.733  -0.700   7.899 -0.3370 -0.3072  0.0009
   12CHTO   C60 4876   7.791  -0.829   7.856 -1.1604 -0.1456 -0.4085
   12CHTO  H117 4877   7.719  -0.909   7.839 -0.4437 -1.2436  1.4744
   12CHTO   C62 4878   7.845  -0.817   7.709  0.1222  0.3239 -0.3440
   12CHTO  H119 4879   7.762  -0.779   7.646 -1.5934  0.6398  2.0483
   12CHTO   O43 4880   7.937  -0.711   7.718 -0.8199  0.3554  0.4076
   12CHTO  H101 4881   7.993  -0.715   7.643 -0.4463  1.3452  0.6223
   12CHTO   C66 4882   7.906  -0.958   7.653  0.2838 -0.3818  0.5799
   12CHTO  H123 4883   7.830  -1.036   7.661 -0.7425  0.7529  2.3448
   12CHTO   N12 4884   7.926  -0.948   7.507  0.2721  0.9724 -0.0398
   12CHTO  H110 4885   7.844  -0.915   7.445  0.1305  1.4420  0.3912
   12CHTO  H111 4886   8.022  -0.913   7.472 -0.5836  1.7924 -1.6102
   12CHTO   C69 4887   8.015  -0.996   7.757  0.5903 -0.1551 -0.2018
   12CHTO  H126 4888   8.091  -0.916   7.746  1.2307 -0.8701 -1.1420
   12CHTO   O41 4889   7.947  -1.006   7.908  0.0563  0.0316  0.4901
   12CHTO   C64 4890   7.894  -0.883   7.958 -0.4279 -0.6984  0.2064
   12CHTO  H121 4891   7.979  -0.812   7.969 -0.5087 -0.3231 -1.4508
   12CHTO   C71 4892   7.836  -0.921   8.094  0.0800 -0.5533 -0.1887
   12CHTO   O47 4893   7.936  -0.938   8.190  0.3573  0.2897 -0.6544
   12CHTO  H104 4894   8.023  -0.969   8.172  0.2274  0.2067 -1.1249
   12CHTO   O34 4895   8.077  -1.126   7.726 -0.1685  0.0454 -0.1444
   12CHTO   C49 4896   8.132  -1.256   7.788  0.1066  0.0090  0.0981
   12CHTO   H91 4897   8.239  -1.245   7.804  0.0896  1.1558 -0.5128
   12CHTO   C47 4898   8.111  -1.366   7.675  0.5870  0.4141 -0.1849
   12CHTO   H89 4899   8.158  -1.459   7.713 -1.1250 -0.6451 -0.5784
   12CHTO   O33 4900   8.172  -1.334   7.551  0.0229 -0.1558 -0.5028
   12CHTO   H70 4901   8.259  -1.365   7.564  0.2097 -0.0678 -1.5265
   12CHTO   C45 4902   7.952  -1.395   7.662  0.0701 -0.3352  0.1850
   12CHTO   H87 4903   7.906  -1.339   7.579 -0.1422  0.7373  1.0172
   12CHTO    N8 4904   7.938  -1.537   7.632 -0.0926  0.2594  0.3074
   12CHTO   H75 4905   7.911  -1.596   7.719 -1.5536  0.4583 -0.0034
   12CHTO   H76 4906   7.857  -1.554   7.563  0.4521 -2.8621  0.3511
   12CHTO   C43 4907   7.872  -1.342   7.801  0.0259  0.1025  0.5193
   12CHTO   H85 4908   7.859  -1.235   7.787 -1.1052 -0.2258 -1.1054
   12CHTO   O29 4909   7.947  -1.375   7.918 -0.6203  0.4049  0.1683
   12CHTO   C50 4910   8.065  -1.300   7.927 -0.0717 -0.3297  0.0722
   12CHTO   H92 4911   8.044  -1.215   7.994  1.2466 -0.2313  0.3789
   12CHTO   C54 4912   8.163  -1.374   8.018  0.1967  0.1806 -0.0129
   12CHTO   O36 4913   8.302  -1.345   8.011  0.7833  0.1884 -0.1649
   12CHTO   H72 4914   8.346  -1.391   8.080  0.7876 -0.0291 -0.3112
   12CHTO   O27 4915   7.741  -1.401   7.825 -0.2401 -0.4235  0.1547
   12CHTO   C37 4916   7.619  -1.394   7.904 -0.8128 -0.6895  0.3886
   12CHTO   H79 4917   7.621  -1.455   7.996 -2.1219  0.6989  1.3556
   12CHTO   C38 4918   7.605  -1.250   7.961 -0.7499  0.2107 -0.7283
   12CHTO   H80 4919   7.605  -1.180   7.876 -1.5603 -0.8907 -1.6439
   12CHTO   O31 4920   7.712  -1.230   8.051  0.2291  0.0020 -0.2082
   12CHTO   H68 4921   7.724  -1.142   8.080  0.2173 -0.7519  2.2327
   12CHTO   C39 4922   7.464  -1.248   8.040  0.2823 -0.2384 -0.4256
   12CHTO   H81 4923   7.470  -1.318   8.124  1.0380 -0.5518 -0.7350
   12CHTO    N7 4924   7.441  -1.103   8.104 -0.1867  0.7630  0.0930
   12CHTO   H73 4925   7.403  -1.125   8.202  0.7340  1.5961  0.6404
   12CHTO   H74 4926   7.362  -1.057   8.046 -0.3535 -1.2790 -1.3952
   12CHTO   C40 4927   7.346  -1.298   7.950 -0.2012 -0.7861  0.1964
   12CHTO   H82 4928   7.341  -1.218   7.876  0.5417  2.3107  3.3662
   12CHTO   O26 4929   7.374  -1.427   7.898 -0.5491  0.3594 -0.4751
   12CHTO   C41 4930   7.498  -1.434   7.817  0.3231 -0.5660  0.2485
   12CHTO   H83 4931   7.484  -1.369   7.730  1.0944 -1.6564 -0.7165
   12CHTO   C52 4932   7.513  -1.573   7.762  0.0945 -0.8481 -0.0955
   12CHTO   O35 4933   7.560  -1.677   7.839 -0.0361 -0.8815 -0.3868
   12CHTO   H71 4934   7.642  -1.710   7.808  0.2589 -0.1546 -0.3980
   12CHTO   O28 4935   7.233  -1.315   8.031 -0.4247  0.0399  0.2250
   12CHTO   C42 4936   7.086  -1.326   8.009 -0.2314  0.4435 -0.7251
   12CHTO   H84 4937   7.049  -1.367   8.103  1.7189  0.2742 -0.0101
   12CHTO   C44 4938   7.035  -1.427   7.906 -0.4555  0.3145 -0.1302
   12CHTO   H86 4939   7.084  -1.408   7.810 -1.6471 -0.2642 -0.8669
   12CHTO   O32 4940   7.084  -1.562   7.937  0.4086 -0.3708 -0.1921
   12CHTO   H69 4941   7.168  -1.564   7.894  0.9030  1.2896  0.6678
   12CHTO   C48 4942   6.883  -1.414   7.872 -0.0999 -0.3057  0.6829
   12CHTO   H90 4943   6.834  -1.438   7.967  1.8679 -2.3961  1.2088
   12CHTO    N9 4944   6.844  -1.510   7.756 -0.3340  0.8861 -0.5629
   12CHTO   H77 4945   6.928  -1.542   7.697 -0.7692  0.8704 -1.1722
   12CHTO   H78 4946   6.774  -1.587   7.784 -1.0066  1.4008 -0.8060
   12CHTO   C51 4947   6.837  -1.267   7.843  0.2192  0.0697  0.8777
   12CHTO   H93 4948   6.875  -1.238   7.745  1.2379 -0.7209  1.0229
   12CHTO   O30 4949   6.880  -1.178   7.944  0.3772 -0.0417  0.2521
   12CHTO   C46 4950   7.024  -1.187   7.991  0.1096  0.1719 -0.8083
   12CHTO   H88 4951   7.097  -1.122   7.943  0.2283  0.6278 -0.0267
   12CHTO   C53 4952   7.006  -1.117   8.129  1.1001  0.4408 -0.2916
   12CHTO   O72 4953   6.924  -1.198   8.217 -0.4953 -0.4026 -1.0659
   12CHTO  H199 4954   6.982  -1.226   8.286 -0.8430  1.1148 -0.1264
   12CHTO   O22 4955   6.690  -1.258   7.842 -0.3148  0.0332 -0.6264
   12CHTO   C31 4956   6.616  -1.132   7.836  0.0552  0.1062 -0.5050
   12CHTO   H59 4957   6.513  -1.164   7.809  1.1220 -1.3278 -3.0529
   12CHTO   C29 4958   6.600  -1.049   7.969  0.1729 -0.0694  0.8446
   12CHTO   H57 4959   6.698  -1.014   8.004  0.1898  0.4498  0.2765
   12CHTO   O21 4960   6.550  -1.138   8.068  0.1476  0.4795 -0.3937
   12CHTO   H37 4961   6.613  -1.193   8.110  0.8158  2.5471  1.3636
   12CHTO   C27 4962   6.496  -0.927   7.948 -1.0406  0.4211 -0.2098
   12CHTO   H55 4963   6.401  -0.980   7.927  0.9509 -3.6345  0.4940
   12CHTO    N5 4964   6.476  -0.856   8.074 -0.3064 -0.5800 -0.2586
   12CHTO   H43 4965   6.567  -0.814   8.116 -1.0905  0.0114  0.8823
   12CHTO   H44 4966   6.399  -0.780   8.070  1.5574  1.3809 -0.3732
   12CHTO   C25 4967   6.515  -0.843   7.817  0.3644  0.0383 -0.4409
   12CHTO   H53 4968   6.601  -0.777   7.830  1.1893 -0.7695 -1.6930
   12CHTO   O17 4969   6.542  -0.933   7.714 -0.3404  0.1364 -0.1725
   12CHTO   C32 4970   6.656  -1.029   7.726  0.9062  0.1290  0.6219
   12CHTO   H60 4971   6.746  -0.976   7.756 -0.6691  2.3074  1.6099
   12CHTO   C36 4972   6.670  -1.089   7.582 -0.5450 -0.3622  0.2325
   12CHTO   O25 4973   6.717  -0.985   7.500  0.2874  0.2254  0.2289
   12CHTO   H40 4974   6.689  -1.008   7.414 -0.3501 -0.0050  0.5004
   12CHTO   O15 4975   6.372  -0.744   7.799  0.0283 -0.0063 -0.1180
   12CHTO   C19 4976   6.310  -0.711   7.674 -0.0479  0.6244 -0.4706
   12CHTO   H47 4977   6.241  -0.628   7.694  0.2246  0.7900 -0.2094
   12CHTO   C20 4978   6.407  -0.652   7.568 -0.2921 -0.7200 -0.1806
   12CHTO   H48 4979   6.485  -0.723   7.536  0.6374  1.0637 -1.9776
   12CHTO   O19 4980   6.460  -0.533   7.629 -0.4283 -0.1311 -0.0514
   12CHTO   H35 4981   6.540  -0.546   7.676  1.0877  0.0872 -2.4628
   12CHTO   C21 4982   6.317  -0.610   7.444 -0.3934 -0.2479 -0.1841
   12CHTO   H49 4983   6.235  -0.548   7.480  1.5130  2.2827 -0.0502
   12CHTO    N4 4984   6.391  -0.528   7.340  0.5796  0.0632 -0.4700
   12CHTO   H41 4985   6.371  -0.423   7.356 -1.3654 -0.1386 -1.3505
   12CHTO   H42 4986   6.350  -0.549   7.242  1.2249  0.6342 -0.8603
   12CHTO   C22 4987   6.238  -0.741   7.395 -1.0202 -0.2701 -0.6930
   12CHTO   H50 4988   6.313  -0.814   7.364  1.6616  2.5570 -1.0139
   12CHTO   O14 4989   6.155  -0.797   7.501  0.8705 -0.1109 -0.3553
   12CHTO   C23 4990   6.231  -0.830   7.619  0.1484  0.0613 -0.4984
   12CHTO   H51 4991   6.295  -0.918   7.608 -0.0197  0.0500 -1.3877
   12CHTO   C34 4992   6.134  -0.885   7.725 -0.5714 -0.2745 -0.5423
   12CHTO   O23 4993   6.107  -1.026   7.701  0.4558  0.5929  0.2348
   12CHTO   H38 4994   6.066  -1.077   7.769 -2.5991 -0.1871 -2.0894
   12CHTO   O16 4995   6.143  -0.710   7.291 -0.7203  0.7703  0.5295
   12CHTO   C24 4996   6.126  -0.831   7.200  0.3682  0.1637 -0.2445
   12CHTO   H52 4997   6.179  -0.919   7.235  0.6171 -0.5470 -2.3392
   12CHTO   C26 4998   6.174  -0.800   7.056 -0.1105 -1.1981 -0.7697
   12CHTO   H54 4999   6.128  -0.706   7.019  1.9988  0.3057  0.2960
   12CHTO   O20 5000   6.312  -0.776   7.065  0.1455 -0.6315  0.1834
   12CHTO   H36 5001   6.328  -0.686   7.084  0.1839 -0.2368 -1.6557
   12CHTO   C30 5002   6.145  -0.912   6.953  0.3912  0.0720 -0.3163
   12CHTO   H58 5003   6.217  -0.993   6.974 -0.0891  0.0111  1.2020
   12CHTO    N6 5004   6.176  -0.865   6.815 -0.2065  0.2341 -0.3260
   12CHTO   H45 5005   6.130  -0.918   6.732 -0.3464 -0.4224  0.1637
   12CHTO   H46 5006   6.160  -0.759   6.806 -1.4884  0.0742 -0.0551
   12CHTO   C33 5007   5.997  -0.968   6.969  0.0412 -0.4568  0.5829
   12CHTO   H61 5008   5.924  -0.910   6.910  0.0940  0.0713  1.0312
   12CHTO   O18 5009   5.956  -0.977   7.108 -0.0779  0.0759 -0.7403
   12CHTO   C28 5010   5.974  -0.864   7.194 -0.3239  1.0236  0.4437
   12CHTO   H56 5011   5.915  -0.776   7.169  0.2499  1.4843  0.6955
   12CHTO   C35 5012   5.907  -0.913   7.324  0.0159 -0.2273 -0.8650
   12CHTO   O24 5013   5.891  -0.810   7.419 -0.0769  0.0374  0.7004
   12CHTO   H39 5014   5.913  -0.727   7.382 -0.5422 -1.3599 -2.8899
   12CHTO    O9 5015   5.992  -1.099   6.905 -0.1823  0.4841 -0.0310
   12CHTO   C13 5016   6.049  -1.223   6.983 -0.3239 -1.2672  0.2652
   12CHTO   H26 5017   6.124  -1.187   7.057  0.4907 -0.4487 -0.9499
   12CHTO   C11 5018   6.109  -1.325   6.886  0.1257 -0.3745  0.2921
   12CHTO   H24 5019   6.204  -1.280   6.853 -0.4737 -0.5494 -1.7140
   12CHTO    O8 5020   6.024  -1.335   6.773 -0.6317  0.7539 -0.9780
   12CHTO    H3 5021   6.010  -1.251   6.733 -1.2159  1.4167  0.5783
   12CHTO    C9 5022   6.152  -1.455   6.958 -0.1586 -0.4612  0.2508
   12CHTO   H22 5023   6.218  -1.422   7.040 -1.8518 -0.1386  1.5080
   12CHTO    N2 5024   6.229  -1.547   6.874 -0.4220 -0.4635  0.1671
   12CHTO   H10 5025   6.325  -1.507   6.845  0.4465 -1.2611  1.8664
   12CHTO   H11 5026   6.240  -1.645   6.918  0.6657 -0.1671  0.5670
   12CHTO    C7 5027   6.023  -1.513   7.032  0.2237 -0.1958  0.6620
   12CHTO   H20 5028   6.072  -1.592   7.093 -1.3153 -2.2625 -0.7174
   12CHTO    O4 5029   5.961  -1.421   7.125  0.5164 -0.8049 -0.3764
   12CHTO   C14 5030   5.935  -1.281   7.080  0.3108 -0.2215  0.6472
   12CHTO   H27 5031   5.931  -1.228   7.177 -1.6407 -2.2914  1.7567
   12CHTO   C18 5032   5.792  -1.285   7.013 -0.1309  0.7126 -0.0136
   12CHTO   O13 5033   5.722  -1.163   6.973 -0.1996 -0.4136  0.0582
   12CHTO    H7 5034   5.772  -1.122   6.905 -0.1192 -2.3283 -1.1018
   12CHTO    O2 5035   5.900  -1.579   6.921  0.1965 -0.3880 -0.0792
   12CHTO    C1 5036   5.860  -1.716   6.926  0.1236  0.0783 -0.2646
   12CHTO   H14 5037   5.842  -1.745   7.032  1.0897  0.0203 -0.1071
   12CHTO    C2 5038   5.977  -1.819   6.869  0.0935 -0.7332  0.2289
   12CHTO   H15 5039   6.009  -1.787   6.769 -0.7250  0.3229  0.2949
   12CHTO    O6 5040   6.086  -1.828   6.958  0.0649  0.5934 -0.3105
   12CHTO    H1 5041   6.066  -1.856   7.045  4.7098  2.5133  1.5548
   12CHTO    C3 5042   5.925  -1.965   6.859  0.5350 -0.7210 -0.2596
   12CHTO   H16 5043   5.922  -2.020   6.955 -1.8611  1.2890  0.8957
   12CHTO    N1 5044   6.018  -2.048   6.766  0.3591 -0.0418  0.2744
   12CHTO    H8 5045   6.072  -2.133   6.803  0.9938  0.5840  0.7903
   12CHTO    H9 5046   6.087  -1.981   6.716  3.6621 -2.3462  1.6274
   12CHTO    C4 5047   5.770  -1.971   6.806  0.9782  0.1785  0.2088
   12CHTO   H17 5048   5.767  -1.964   6.697  2.7393 -1.4110  0.0229
   12CHTO    O1 5049   5.686  -1.868   6.858  0.4912  0.2238  0.7825
   12CHTO    C5 5050   5.733  -1.738   6.847 -1.1263 -0.0428 -0.7738
   12CHTO   H18 5051   5.751  -1.705   6.745 -1.7038 -0.7914 -1.1325
   12CHTO   C16 5052   5.621  -1.645   6.905  0.6401 -0.1339 -0.2809
   12CHTO   O11 5053   5.512  -1.638   6.810 -0.0435  0.5411 -0.2130
   12CHTO    H5 5054   5.430  -1.660   6.850  1.1247 -1.2256  1.3365
   12CHTO    O3 5055   5.709  -2.091   6.865  0.8350  0.1952 -0.9507
   12CHTO    C6 5056   5.637  -2.173   6.762 -1.0893 -0.0001  0.6167
   12CHTO   H19 5057   5.648  -2.134   6.661  1.4990  0.3043  0.9580
   12CHTO    C8 5058   5.702  -2.320   6.761 -0.0572 -0.5235 -0.2359
   12CHTO   H21 5059   5.721  -2.347   6.865  1.4371  2.7555  0.4136
   12CHTO    O7 5060   5.830  -2.308   6.694  0.4414  0.1739 -0.9333
   12CHTO    H2 5061   5.897  -2.341   6.750  0.3458  0.1885 -0.8095
   12CHTO   C12 5062   5.607  -2.416   6.680  0.0795 -0.3590 -0.0581
   12CHTO   H25 5063   5.615  -2.381   6.575  2.2975 -0.0676  0.1951
   12CHTO    N3 5064   5.657  -2.559   6.677 -0.2909 -0.1833 -0.0377
   12CHTO   H12 5065   5.614  -2.606   6.764 -0.5085 -0.2708 -0.1930
   12CHTO   H13 5066   5.765  -2.561   6.677 -0.2533  1.0784 -0.6826
   12CHTO   C15 5067   5.460  -2.407   6.727  0.0724 -0.1425  0.1393
   12CHTO   H28 5068   5.453  -2.451   6.826 -0.0934  0.5481  0.4429
   12CHTO   O10 5069   5.358  -2.467   6.619 -0.6380  0.2243 -0.8769
   12CHTO    H4 5070   5.384  -2.550   6.584  0.2290 -0.1598  0.5849
   12CHTO    O5 5071   5.421  -2.268   6.717  0.1668 -0.2514 -0.0655
   12CHTO   C10 5072   5.490  -2.176   6.797  0.6305 -0.5550 -0.5898
   12CHTO   H23 5073   5.478  -2.207   6.901  1.7287 -1.5913 -0.7624
   12CHTO   C17 5074   5.427  -2.037   6.777 -0.3355 -0.3581 -0.1543
   12CHTO   O12 5075   5.446  -1.982   6.645 -0.1953  0.3588 -0.0164
   12CHTO    H6 5076   5.400  -1.901   6.631 -0.3936 -0.1517 -2.4433
   13CHTO  H203 5077   6.738   4.730   3.184 -0.1103  1.0743 -0.8414
   13CHTO   O82 5078   6.763   4.807   3.233 -0.0159  0.3704  0.2408
   13CHTO  C123 5079   6.666   4.912   3.223  0.2903  0.2086 -0.2632
   13CHTO  H227 5080   6.651   4.955   3.322  0.0274  0.5550 -0.4531
   13CHTO   O77 5081   6.735   5.017   3.146  0.4729 -0.4967 -0.4929
   13CHTO  C118 5082   6.671   5.143   3.151  0.5426 -0.2495  0.4268
   13CHTO  H222 5083   6.644   5.189   3.247 -0.6743 -0.0694  0.0135
   13CHTO  C125 5084   6.760   5.248   3.079 -0.2420  0.8397  0.3009
   13CHTO   O84 5085   6.901   5.240   3.103 -0.0581 -0.2455 -0.4760
   13CHTO  H205 5086   6.956   5.178   3.058 -0.4776 -1.8105  1.0850
   13CHTO  C114 5087   6.534   5.125   3.075 -0.0068 -0.1175  0.2342
   13CHTO  H218 5088   6.555   5.094   2.972  0.7674  0.8550  0.0843
   13CHTO  C116 5089   6.448   5.014   3.144 -0.4753  0.1222 -0.9763
   13CHTO  H220 5090   6.412   5.055   3.241  1.2627 -0.0463 -0.2482
   13CHTO   O79 5091   6.335   4.999   3.058  0.1306 -0.1162 -0.3509
   13CHTO  H201 5092   6.261   4.949   3.087 -0.4831  1.0008  0.0084
   13CHTO  C120 5093   6.530   4.878   3.151  0.0966 -0.2374 -1.4040
   13CHTO  H224 5094   6.546   4.844   3.047  2.3809  1.0119 -1.4819
   13CHTO   N21 5095   6.457   4.778   3.223  0.6749  0.3380 -0.1400
   13CHTO  H211 5096   6.517   4.706   3.277  0.0310 -1.0538 -1.2685
   13CHTO  H212 5097   6.362   4.807   3.265  0.6019 -0.5162  0.2890
   13CHTO   O75 5098   6.477   5.259   3.061 -0.1076  0.2647 -0.4988
   13CHTO  C112 5099   6.415   5.336   3.205 -0.2791 -0.4590  0.4029
   13CHTO  H216 5100   6.496   5.340   3.279  1.2622 -0.6420 -1.2352
   13CHTO   O73 5101   6.297   5.263   3.248 -0.4584 -0.3093  0.2931
   13CHTO  C113 5102   6.240   5.307   3.370  0.0226 -0.2550 -0.0108
   13CHTO  H217 5103   6.312   5.301   3.455 -1.0783  0.3579  0.9706
   13CHTO  C124 5104   6.136   5.206   3.413 -0.1388 -0.2544  0.0686
   13CHTO   O83 5105   6.197   5.076   3.428  0.0632  0.8944  0.7583
   13CHTO  H204 5106   6.203   5.058   3.520  0.0793  2.8829  1.1851
   13CHTO  C109 5107   6.195   5.456   3.363  0.2590  0.0633  0.4574
   13CHTO  H213 5108   6.115   5.462   3.288 -0.7635  2.0440  1.6807
   13CHTO  C110 5109   6.307   5.545   3.312 -0.9587  0.3717  1.0387
   13CHTO  H214 5110   6.384   5.557   3.388  1.0970 -1.3019 -0.6939
   13CHTO   O78 5111   6.269   5.684   3.289  0.3307 -0.1379  0.1862
   13CHTO  H200 5112   6.255   5.730   3.370  1.6971 -0.7168  0.7565
   13CHTO  C111 5113   6.379   5.487   3.180 -0.7968  0.5628 -0.2465
   13CHTO  H215 5114   6.309   5.490   3.095 -1.0861 -0.3818 -0.0457
   13CHTO   N19 5115   6.493   5.570   3.134 -0.1769  0.4377  0.1892
   13CHTO  H207 5116   6.469   5.669   3.098 -1.9750  1.0945  3.0200
   13CHTO  H208 5117   6.581   5.576   3.195  1.2855  0.7755 -1.8880
   13CHTO   O74 5118   6.146   5.510   3.487 -0.0120 -0.0494 -0.3644
   13CHTO  C115 5119   5.981   5.537   3.487 -0.3555 -0.7006 -0.5515
   13CHTO  H219 5120   5.938   5.543   3.386 -0.4910 -0.7238 -0.4954
   13CHTO   O76 5121   5.901   5.415   3.558 -0.0689  0.0108 -0.2112
   13CHTO  C122 5122   5.906   5.430   3.701 -0.4152  0.6697  0.1223
   13CHTO  H226 5123   6.009   5.439   3.733  0.3281 -0.5734 -1.8485
   13CHTO  C126 5124   5.852   5.290   3.757  0.3504 -0.2455 -0.4500
   13CHTO   O85 5125   5.940   5.177   3.735  0.2582 -0.1162  0.3778
   13CHTO  H206 5126   5.931   5.112   3.802 -0.6317 -1.9951 -1.5031
   13CHTO  C121 5127   5.830   5.565   3.754 -0.6482 -0.2102  0.3091
   13CHTO  H225 5128   5.728   5.542   3.791  0.0765  2.5612  4.3959
   13CHTO   O81 5129   5.891   5.618   3.873 -0.2390  0.1336  0.5465
   13CHTO  H202 5130   5.983   5.597   3.869 -0.4638 -1.2554  2.1007
   13CHTO  C119 5131   5.830   5.679   3.642 -0.2145 -0.1071  0.1604
   13CHTO  H223 5132   5.754   5.648   3.571  0.0271 -2.3299  0.8262
   13CHTO  C117 5133   5.964   5.686   3.560  0.6908 -0.4079 -0.6358
   13CHTO  H221 5134   6.059   5.702   3.611  1.2318 -2.8130 -0.8127
   13CHTO   N20 5135   5.959   5.788   3.452  1.1701 -0.5951  0.6409
   13CHTO  H209 5136   6.042   5.785   3.383  1.0152 -2.5770  0.5147
   13CHTO  H210 5137   5.969   5.884   3.499  3.1025  0.0343 -0.9488
   13CHTO   O80 5138   5.766   5.826   3.699  0.3341  0.5369  0.3441
   13CHTO  C103 5139   5.616   5.858   3.687  0.3410  0.2793  0.4701
   13CHTO  H190 5140   5.593   5.965   3.682 -0.4127  0.1785  1.6097
   13CHTO  C101 5141   5.533   5.795   3.571  0.5630  1.1376 -0.2536
   13CHTO  H188 5142   5.554   5.688   3.572  1.0104  1.1403 -3.5764
   13CHTO   O68 5143   5.572   5.863   3.438 -0.0398 -0.0412 -0.0250
   13CHTO  H168 5144   5.556   5.802   3.368  1.4350 -1.3608  0.7694
   13CHTO   C99 5145   5.379   5.808   3.594  0.0970 -0.2831  0.4948
   13CHTO  H186 5146   5.344   5.913   3.601 -0.8649 -0.4140 -1.9589
   13CHTO   N17 5147   5.294   5.737   3.490  0.3715 -0.5859 -0.2702
   13CHTO  H174 5148   5.303   5.795   3.399 -1.8569  0.9770  0.4574
   13CHTO  H175 5149   5.194   5.731   3.529 -0.2308  0.7584 -1.5720
   13CHTO   C97 5150   5.349   5.747   3.734  1.0325  0.5385  0.3878
   13CHTO  H184 5151   5.376   5.641   3.737  1.2842  0.5352 -1.2656
   13CHTO   O64 5152   5.420   5.825   3.837  0.1073  0.3438  0.3463
   13CHTO  C104 5153   5.561   5.810   3.821 -0.0898 -0.1779 -0.7081
   13CHTO  H191 5154   5.589   5.707   3.842 -0.6355 -0.3138 -0.6540
   13CHTO  C108 5155   5.624   5.890   3.934 -0.2530 -0.5130  0.1820
   13CHTO   O71 5156   5.593   6.029   3.941  0.0589 -0.1951 -0.7145
   13CHTO  H171 5157   5.611   6.060   4.028  2.2423 -1.0110 -0.8437
   13CHTO   O62 5158   5.211   5.760   3.776  0.4210 -0.0726  0.0211
   13CHTO   C91 5159   5.167   5.681   3.887 -0.5691 -0.4937  0.0551
   13CHTO  H178 5160   5.249   5.623   3.930  0.5890  2.6107  2.1502
   13CHTO   C92 5161   5.061   5.583   3.820 -1.3053 -0.3091  0.8552
   13CHTO  H179 5162   4.979   5.646   3.783 -1.6029 -1.6541 -0.8427
   13CHTO   O66 5163   5.118   5.505   3.712  0.1493  0.0064  0.2858
   13CHTO  H166 5164   5.060   5.434   3.692 -0.5128  0.6081  0.0153
   13CHTO   C93 5165   5.016   5.483   3.939 -0.3068 -0.8840 -0.2587
   13CHTO  H180 5166   5.099   5.419   3.972 -0.6547 -2.0796 -1.6402
   13CHTO   N16 5167   4.902   5.405   3.885  0.6524  0.4936  0.9356
   13CHTO  H172 5168   4.818   5.469   3.862 -0.5502 -1.1569  0.6835
   13CHTO  H173 5169   4.926   5.333   3.808  0.6053  0.7763  0.6572
   13CHTO   C94 5170   4.965   5.570   4.064  0.8548 -0.1156 -0.6753
   13CHTO  H181 5171   4.875   5.627   4.040 -0.0003 -1.7363 -1.3846
   13CHTO   O61 5172   5.067   5.656   4.104 -0.4297 -0.0876 -0.2523
   13CHTO   C95 5173   5.109   5.751   4.009  0.0820 -0.3486  0.1474
   13CHTO  H182 5174   5.022   5.804   3.969 -0.7918 -1.5389  0.4359
   13CHTO  C106 5175   5.210   5.855   4.068 -0.5225 -0.9249 -0.5557
   13CHTO   O69 5176   5.325   5.782   4.118  0.3352  0.0990 -0.0130
   13CHTO  H169 5177   5.301   5.704   4.165 -0.7446  1.5576  1.9340
   13CHTO   O63 5178   4.938   5.485   4.189 -0.0447  0.2379 -0.5022
   13CHTO   C96 5179   4.809   5.533   4.284 -0.0652  0.7962 -0.3877
   13CHTO  H183 5180   4.753   5.606   4.225 -0.7872  1.2413  0.8201
   13CHTO   C98 5181   4.867   5.603   4.409  0.4128 -0.0479  0.2328
   13CHTO  H185 5182   4.945   5.675   4.380 -0.0616  0.5646  0.4444
   13CHTO   O67 5183   4.762   5.687   4.459 -0.0567  0.4857  0.4175
   13CHTO  H167 5184   4.801   5.759   4.505  1.4788 -0.9658  1.4451
   13CHTO  C102 5185   4.917   5.507   4.518  0.6250 -0.1880 -0.1301
   13CHTO  H189 5186   4.941   5.568   4.607 -0.6665 -1.1665  0.9133
   13CHTO   N18 5187   5.041   5.440   4.481  0.1249 -0.2097 -0.9932
   13CHTO  H176 5188   5.087   5.491   4.398  0.8853  2.5730  1.0533
   13CHTO  H177 5189   5.106   5.430   4.566 -0.0729  0.9609 -0.6896
   13CHTO  C105 5190   4.795   5.408   4.554 -0.4446 -0.2759  0.7432
   13CHTO  H192 5191   4.827   5.304   4.560 -0.0511 -0.4263 -3.0205
   13CHTO   O65 5192   4.681   5.417   4.459 -0.0312  0.7659 -0.0294
   13CHTO  C100 5193   4.721   5.404   4.323  0.2767  0.0694  0.1790
   13CHTO  H187 5194   4.777   5.312   4.301 -0.5167 -0.2927 -0.3793
   13CHTO  C107 5195   4.589   5.400   4.246  0.5810 -0.7842  0.9328
   13CHTO   O70 5196   4.614   5.394   4.106  0.2278 -0.2472  0.3892
   13CHTO  H170 5197   4.596   5.481   4.075  1.2654 -0.2944 -0.3842
   13CHTO   O57 5198   4.736   5.460   4.706 -0.1382 -0.9406  0.2908
   13CHTO   C85 5199   4.740   5.371   4.822  0.1482 -0.0128  0.0310
   13CHTO  H157 5200   4.813   5.291   4.796 -1.4744 -1.3167 -0.5353
   13CHTO   C83 5201   4.591   5.305   4.833  0.2061  0.1187  0.0163
   13CHTO  H155 5202   4.575   5.239   4.748  0.5225 -2.1745  1.7059
   13CHTO   O56 5203   4.503   5.417   4.814  0.1694  0.2669 -0.2663
   13CHTO  H135 5204   4.413   5.389   4.811 -0.0572  0.7587  1.3935
   13CHTO   C81 5205   4.575   5.224   4.967 -1.0223  0.5331 -0.0897
   13CHTO  H153 5206   4.641   5.138   4.961 -0.0645  1.3180 -1.2985
   13CHTO   N14 5207   4.444   5.159   4.975  0.1001 -0.1973 -0.2799
   13CHTO  H141 5208   4.432   5.086   4.898 -2.0617  1.3469 -1.4792
   13CHTO  H142 5209   4.412   5.114   5.067 -1.8739  2.6213  0.4979
   13CHTO   C79 5210   4.611   5.316   5.083 -1.0699 -0.6934 -0.1009
   13CHTO  H151 5211   4.619   5.251   5.171 -1.6862  1.1311  1.3366
   13CHTO   O52 5212   4.747   5.369   5.068  0.4107 -0.1441  0.7755
   13CHTO   C86 5213   4.776   5.447   4.951  0.4605 -0.5852  0.1850
   13CHTO  H158 5214   4.715   5.539   4.958 -2.4458 -2.4674  0.9537
   13CHTO   C90 5215   4.921   5.487   4.939 -0.5408  0.1167  0.2408
   13CHTO   O60 5216   4.956   5.585   5.034 -0.0360  0.2860 -0.4215
   13CHTO  H138 5217   5.040   5.619   5.009 -0.6772  1.4893 -0.9834
   13CHTO   O50 5218   4.525   5.429   5.114  0.0264 -0.3657 -0.2384
   13CHTO   C73 5219   4.467   5.515   5.211  0.1318  0.5117 -0.1937
   13CHTO  H145 5220   4.358   5.506   5.205  0.2299 -1.3833  0.5553
   13CHTO   C74 5221   4.514   5.670   5.201 -0.3550  0.0030 -0.6659
   13CHTO  H146 5222   4.483   5.719   5.107 -1.7518 -0.4906 -0.4800
   13CHTO   O54 5223   4.437   5.743   5.302  0.2231 -0.4351  0.7513
   13CHTO  H133 5224   4.489   5.752   5.379  0.2284  0.4459  0.6488
   13CHTO   C75 5225   4.667   5.670   5.220  0.1925  0.2766 -0.3745
   13CHTO  H147 5226   4.713   5.607   5.141  1.8700 -2.2971  2.5217
   13CHTO   N13 5227   4.727   5.808   5.211  0.3090 -0.8213  0.6301
   13CHTO  H139 5228   4.761   5.836   5.113 -1.2217  0.9139  0.5662
   13CHTO  H140 5229   4.784   5.841   5.297  2.9926 -3.4517 -0.0964
   13CHTO   C76 5230   4.711   5.604   5.359 -0.0353 -0.4030  0.0824
   13CHTO  H148 5231   4.688   5.654   5.453  0.5387 -1.0369  0.5686
   13CHTO   O49 5232   4.651   5.473   5.365  0.6535 -0.3589 -0.2188
   13CHTO   C77 5233   4.506   5.469   5.354 -0.1962 -0.0438 -0.4415
   13CHTO  H149 5234   4.467   5.542   5.425 -1.5291 -0.7204 -0.4564
   13CHTO   C88 5235   4.445   5.333   5.388  0.2809  0.3483  0.0917
   13CHTO   O58 5236   4.480   5.308   5.505  0.2903  0.2392  0.2542
   13CHTO  H136 5237   4.532   5.230   5.504 -2.6850 -1.8509  1.7624
   13CHTO   O51 5238   4.875   5.575   5.344 -0.2613 -0.0623 -0.2826
   13CHTO   C78 5239   4.952   5.600   5.468 -0.1915 -0.7067 -0.5272
   13CHTO  H150 5240   4.899   5.551   5.552  1.2471 -0.2353  0.6740
   13CHTO   C80 5241   4.976   5.749   5.497  0.0246 -0.1457  0.0546
   13CHTO  H152 5242   5.022   5.795   5.408 -0.4443 -0.6423 -0.4494
   13CHTO   O55 5243   4.852   5.817   5.537 -0.0237  0.0543 -0.0093
   13CHTO  H134 5244   4.869   5.909   5.545 -1.7549  0.3400  0.6891
   13CHTO   C84 5245   5.079   5.766   5.613  0.0263 -1.1291  0.1019
   13CHTO  H156 5246   5.034   5.738   5.708 -0.5228  0.1674  0.2415
   13CHTO   N15 5247   5.131   5.907   5.622  0.4732 -0.0464 -0.5414
   13CHTO  H143 5248   5.219   5.914   5.682 -0.1351 -1.3267  0.5562
   13CHTO  H144 5249   5.060   5.977   5.662 -1.0756 -2.3506  0.8904
   13CHTO   C87 5250   5.200   5.677   5.594  0.4106  0.2331 -0.1946
   13CHTO  H159 5251   5.245   5.708   5.500 -0.3145  0.0586 -0.6002
   13CHTO   O53 5252   5.156   5.518   5.577 -0.5966 -0.0637  0.2544
   13CHTO   C82 5253   5.077   5.510   5.459  0.6506 -0.3743 -0.2145
   13CHTO  H154 5254   5.139   5.540   5.374  0.5383  0.8278  0.1169
   13CHTO   C89 5255   5.041   5.357   5.435  0.2618  0.1716 -0.2509
   13CHTO   O59 5256   4.985   5.320   5.310  0.1996  0.0389 -0.0644
   13CHTO  H137 5257   5.034   5.249   5.274  0.9534  0.8006 -0.5444
   13CHTO   O45 5258   5.300   5.665   5.730  0.0891  0.5910 -0.0457
   13CHTO   C67 5259   5.433   5.690   5.701  0.1282  0.1391  0.4733
   13CHTO  H124 5260   5.447   5.680   5.593  0.1684 -1.8104  0.6580
   13CHTO   C65 5261   5.478   5.834   5.744  0.2923 -0.3969  0.4321
   13CHTO  H122 5262   5.415   5.876   5.821 -2.5194 -0.4111 -1.7922
   13CHTO   O44 5263   5.477   5.924   5.626 -0.5985 -0.1409  0.1740
   13CHTO  H102 5264   5.547   5.900   5.568  1.5652  0.6461  2.4018
   13CHTO   C63 5265   5.619   5.836   5.816  0.4515  0.0968 -0.8026
   13CHTO  H120 5266   5.608   5.790   5.915  0.5834 -0.1837 -0.9158
   13CHTO   N11 5267   5.665   5.967   5.853  0.4113  0.0634  0.2060
   13CHTO  H108 5268   5.586   6.031   5.886  0.9497  1.3175 -0.9013
   13CHTO  H109 5269   5.733   5.963   5.936  1.1603 -0.1459 -0.4132
   13CHTO   C61 5270   5.718   5.738   5.742 -0.5238 -0.0652 -0.0822
   13CHTO  H118 5271   5.804   5.731   5.810 -0.8244 -1.0607  0.1976
   13CHTO   O40 5272   5.673   5.600   5.723  0.3219 -0.1975 -0.3070
   13CHTO   C68 5273   5.530   5.577   5.749  0.1091  0.1462 -0.6952
   13CHTO  H125 5274   5.514   5.558   5.858  1.9576  1.1378 -0.2445
   13CHTO   C72 5275   5.500   5.449   5.674  0.2096 -0.2395  0.3316
   13CHTO   O48 5276   5.382   5.378   5.708 -0.3016  0.0870  0.0018
   13CHTO  H105 5277   5.309   5.431   5.682 -1.7427 -1.4670  0.8134
   13CHTO   O38 5278   5.751   5.795   5.613  0.1659  0.0824  0.0734
   13CHTO   C55 5279   5.843   5.724   5.525 -0.3966  0.4394 -0.1318
   13CHTO  H112 5280   5.811   5.620   5.508 -2.0275  0.8608  0.2811
   13CHTO   C56 5281   5.988   5.739   5.568 -0.5344 -0.3839 -0.0297
   13CHTO  H113 5282   5.991   5.844   5.599  1.1165 -0.8731  1.5385
   13CHTO   O42 5283   6.019   5.663   5.688  0.3369 -0.2625  0.1288
   13CHTO  H100 5284   6.067   5.583   5.681 -0.0415 -0.4059 -0.8223
   13CHTO   C57 5285   6.096   5.704   5.460  0.2839  0.1712  0.8633
   13CHTO  H114 5286   6.109   5.596   5.459  0.3458  0.1718 -2.2074
   13CHTO   N10 5287   6.230   5.752   5.498 -0.2734 -0.2897 -0.2325
   13CHTO  H106 5288   6.271   5.839   5.449  1.4071 -1.1583 -0.4314
   13CHTO  H107 5289   6.304   5.674   5.510  0.5693  0.6093  0.5122
   13CHTO   C58 5290   6.057   5.755   5.315 -0.1870 -0.2965 -0.3597
   13CHTO  H115 5291   6.062   5.865   5.304 -1.1890 -0.5254 -3.7929
   13CHTO   O37 5292   5.920   5.718   5.285 -0.2809  0.2248  0.2539
   13CHTO   C59 5293   5.827   5.782   5.381 -0.4310 -0.7319  0.9710
   13CHTO  H116 5294   5.840   5.890   5.369  2.0464 -0.9952  0.9056
   13CHTO   C70 5295   5.690   5.751   5.318 -0.4705  0.1922  0.2998
   13CHTO   O46 5296   5.588   5.851   5.330  0.1056  0.2166  0.3761
   13CHTO  H103 5297   5.629   5.934   5.320  0.7676  0.2135  2.7400
   13CHTO   O39 5298   6.137   5.686   5.218 -0.5034 -0.2644 -0.2966
   13CHTO   C60 5299   6.241   5.758   5.149 -0.7571  0.1265 -0.7265
   13CHTO  H117 5300   6.273   5.845   5.208 -1.1153 -1.9192  2.6102
   13CHTO   C62 5301   6.362   5.666   5.119 -0.7064 -0.3573  0.4110
   13CHTO  H119 5302   6.404   5.630   5.216 -0.7662  1.8251  1.2671
   13CHTO   O43 5303   6.320   5.544   5.051 -0.4323 -0.7618 -0.3170
   13CHTO  H101 5304   6.286   5.554   4.964  1.2640 -0.3505 -0.9417
   13CHTO   C66 5305   6.481   5.750   5.043  0.1581 -0.5258 -0.1362
   13CHTO  H123 5306   6.509   5.840   5.097  2.2523 -1.4520  0.3787
   13CHTO   N12 5307   6.608   5.675   5.016 -0.4435  0.0007 -0.1419
   13CHTO  H110 5308   6.641   5.623   5.105  1.7225  1.4900 -0.0389
   13CHTO  H111 5309   6.679   5.746   4.978 -1.6391  1.2272 -0.1375
   13CHTO   C69 5310   6.423   5.793   4.905 -0.0012  0.0241 -0.0112
   13CHTO  H126 5311   6.377   5.703   4.861 -0.0824  1.2691 -2.5259
   13CHTO   O41 5312   6.318   5.886   4.921  0.3713  0.4869 -0.2800
   13CHTO   C64 5313   6.195   5.817   5.017  0.2459 -0.6102 -0.3888
   13CHTO  H121 5314   6.146   5.735   4.960 -4.4295  3.2303 -2.1768
   13CHTO   C71 5315   6.088   5.932   5.024 -0.1262  0.7644 -0.6933
   13CHTO   O47 5316   6.029   5.951   4.895  0.1759  0.5813  0.1485
   13CHTO  H104 5317   5.982   5.871   4.881 -0.0393  0.6015  0.7256
   13CHTO   O34 5318   6.522   5.857   4.807  0.2301  0.4342  0.0351
   13CHTO   C49 5319   6.572   5.958   4.704  0.6973  0.2780 -0.0792
   13CHTO   H91 5320   6.621   5.895   4.630  0.0934  1.6899 -1.7241
   13CHTO   C47 5321   6.696   6.032   4.750  0.6747 -0.5697  0.3404
   13CHTO   H89 5322   6.725   6.088   4.659  4.2564 -1.5067  0.8177
   13CHTO   O33 5323   6.805   5.949   4.788  0.2555 -0.2410 -0.1588
   13CHTO   H70 5324   6.882   5.999   4.804 -0.7165  1.1685  0.2258
   13CHTO   C45 5325   6.651   6.123   4.885 -1.0955  0.1657 -0.1645
   13CHTO   H87 5326   6.661   6.063   4.977 -0.1666  1.2879  0.4882
   13CHTO    N8 5327   6.736   6.245   4.890  0.6149  0.1454 -0.2887
   13CHTO   H75 5328   6.759   6.297   4.798  2.6610  1.8833  1.1535
   13CHTO   H76 5329   6.824   6.202   4.936  0.8122 -2.5585 -3.0731
   13CHTO   C43 5330   6.490   6.153   4.879  0.8508 -0.0136 -0.3613
   13CHTO   H85 5331   6.451   6.058   4.917  1.9832 -1.0597 -1.7681
   13CHTO   O29 5332   6.442   6.175   4.748  0.0422  0.8920  0.3003
   13CHTO   C50 5333   6.460   6.062   4.653  0.1563 -0.6730  0.2942
   13CHTO   H92 5334   6.370   6.005   4.626 -0.7175  1.2235 -0.8698
   13CHTO   C54 5335   6.492   6.130   4.517 -0.3638 -0.1406 -0.3320
   13CHTO   O36 5336   6.459   6.041   4.409  0.0414  0.3458 -0.0481
   13CHTO   H72 5337   6.473   6.073   4.322 -0.7474 -2.6832 -1.3423
   13CHTO   O27 5338   6.450   6.250   4.974 -0.2274  0.4721 -0.0192
   13CHTO   C37 5339   6.369   6.214   5.087  0.0679 -0.1786 -0.5167
   13CHTO   H79 5340   6.311   6.123   5.066  2.5060 -2.1656  1.0297
   13CHTO   C38 5341   6.448   6.183   5.228  0.4985 -0.0167  0.4602
   13CHTO   H80 5342   6.521   6.264   5.244  0.8559 -0.1998 -0.2460
   13CHTO   O31 5343   6.530   6.071   5.199 -0.1044 -0.5782  0.1570
   13CHTO   H68 5344   6.552   6.070   5.108 -1.5158  2.6414 -0.2766
   13CHTO   C39 5345   6.354   6.154   5.351  0.9878  0.0865  0.7230
   13CHTO   H81 5346   6.309   6.058   5.327 -1.4113  1.2134  0.5304
   13CHTO    N7 5347   6.431   6.145   5.474  0.1864  0.6520 -0.1485
   13CHTO   H73 5348   6.441   6.041   5.503 -0.6242  0.3110 -1.0587
   13CHTO   H74 5349   6.524   6.201   5.477 -1.0045  2.6726 -0.0078
   13CHTO   C40 5350   6.239   6.264   5.362 -0.2757  0.7681  0.3594
   13CHTO   H82 5351   6.297   6.348   5.402 -0.5245 -0.2320  2.9136
   13CHTO   O26 5352   6.187   6.294   5.234 -0.0397 -0.3300 -0.1489
   13CHTO   C41 5353   6.272   6.330   5.126  0.0409 -0.2972  0.6990
   13CHTO   H83 5354   6.330   6.420   5.152 -1.8173  1.5363 -1.3482
   13CHTO   C52 5355   6.172   6.381   5.018 -0.3383  0.3100  0.2720
   13CHTO   O35 5356   6.106   6.273   4.940 -0.2809  0.8763  0.2547
   13CHTO   H71 5357   6.014   6.285   4.950 -0.9184 -2.6511 -0.6517
   13CHTO   O28 5358   6.133   6.204   5.436 -0.2847  0.4618 -0.1603
   13CHTO   C42 5359   6.054   6.289   5.531 -1.2829  0.6715  0.2068
   13CHTO   H84 5360   5.956   6.242   5.520  0.2486 -2.1647 -2.0875
   13CHTO   C44 5361   6.049   6.439   5.485  0.1560 -0.0161  0.3958
   13CHTO   H86 5362   6.150   6.478   5.478 -0.0462  0.9458  2.3628
   13CHTO   O32 5363   5.980   6.439   5.360  0.4254 -0.0013 -0.3349
   13CHTO   H69 5364   5.970   6.524   5.321  2.8958  0.4808  0.0179
   13CHTO   C48 5365   5.975   6.531   5.586  0.7592  0.2788 -0.0134
   13CHTO   H90 5366   5.868   6.511   5.590  0.9763 -0.9306 -0.0247
   13CHTO    N9 5367   5.983   6.681   5.555 -0.0129 -0.5158 -0.1371
   13CHTO   H77 5368   5.909   6.735   5.613 -0.7889 -1.6295 -0.0540
   13CHTO   H78 5369   6.083   6.715   5.579  0.1026 -0.5317 -0.6027
   13CHTO   C51 5370   6.027   6.506   5.728 -0.5615 -0.0933 -0.5398
   13CHTO   H93 5371   6.128   6.546   5.732 -0.3048 -0.7231 -0.6247
   13CHTO   O30 5372   6.021   6.364   5.751 -0.1887 -0.1024  0.5724
   13CHTO   C46 5373   6.101   6.270   5.675  0.1503  0.2904 -0.5571
   13CHTO   H88 5374   6.204   6.303   5.691  0.5781 -1.5123  0.5190
   13CHTO   C53 5375   6.078   6.132   5.730  0.5860 -0.8926 -0.1989
   13CHTO   O72 5376   6.102   6.130   5.871  0.3203  0.4868 -0.3242
   13CHTO  H199 5377   6.135   6.047   5.899 -1.1628 -1.2819 -3.4927
   13CHTO   O22 5378   5.945   6.557   5.830  0.0060 -0.3154 -0.4919
   13CHTO   C31 5379   5.982   6.556   5.975 -0.5131 -0.4348  0.0807
   13CHTO   H59 5380   6.053   6.471   5.986  1.1182  0.8782 -0.0244
   13CHTO   C29 5381   6.066   6.680   6.026 -0.1272  0.0432 -0.5775
   13CHTO   H57 5382   6.019   6.768   5.980  1.0459  1.3064  0.6096
   13CHTO   O21 5383   6.196   6.671   5.967  0.0297 -0.6573  0.3147
   13CHTO   H37 5384   6.248   6.606   6.009  0.4808 -0.1252  0.5890
   13CHTO   C27 5385   6.072   6.691   6.185  0.0437  0.4294  0.3337
   13CHTO   H55 5386   6.139   6.613   6.223 -0.6068  0.3004  1.2381
   13CHTO    N5 5387   6.121   6.822   6.232 -0.1747  0.2064  0.2039
   13CHTO   H43 5388   6.211   6.851   6.179 -0.6312 -0.8506 -1.1721
   13CHTO   H44 5389   6.040   6.892   6.217 -1.9083 -1.4223  1.7132
   13CHTO   C25 5390   5.937   6.656   6.251 -0.0152  0.5043  0.2728
   13CHTO   H53 5391   5.859   6.732   6.235 -0.0973 -0.3522 -3.8762
   13CHTO   O17 5392   5.895   6.525   6.203  0.3055  0.2937 -0.5779
   13CHTO   C32 5393   5.859   6.526   6.063  0.7328  1.0050  0.4873
   13CHTO   H60 5394   5.778   6.596   6.044 -0.0641 -0.5062 -1.9782
   13CHTO   C36 5395   5.801   6.383   6.045 -0.0877  0.3930 -0.0369
   13CHTO   O25 5396   5.710   6.357   5.936  0.0598  0.0712 -0.0809
   13CHTO   H40 5397   5.733   6.270   5.910  0.5270 -0.4575  1.9972
   13CHTO   O15 5398   5.958   6.645   6.436  0.0236 -0.1430 -0.0353
   13CHTO   C19 5399   5.870   6.700   6.529 -0.4497  0.1501 -0.0941
   13CHTO   H47 5400   5.896   6.655   6.626  1.7079 -0.9148 -1.1586
   13CHTO   C20 5401   5.884   6.857   6.544  0.0880 -0.4278 -0.1587
   13CHTO   H48 5402   5.859   6.909   6.450 -1.9194 -1.3901 -0.1852
   13CHTO   O19 5403   6.014   6.907   6.574 -0.3641  0.1704  0.1376
   13CHTO   H35 5404   6.076   6.894   6.505  1.8672  1.9071  1.7512
   13CHTO   C21 5405   5.772   6.917   6.646 -0.3708  0.4017 -0.4008
   13CHTO   H49 5406   5.799   6.884   6.746 -0.0484 -1.3810 -1.0537
   13CHTO    N4 5407   5.775   7.064   6.665 -0.0802 -0.2487 -0.5689
   13CHTO   H41 5408   5.819   7.083   6.762  0.2151 -0.3518 -0.6824
   13CHTO   H42 5409   5.840   7.107   6.590  0.7666 -1.0791 -0.3122
   13CHTO   C22 5410   5.635   6.860   6.610  0.3269  0.1204  0.1460
   13CHTO   H50 5411   5.614   6.892   6.507  2.0198 -0.3479 -0.3637
   13CHTO   O14 5412   5.628   6.719   6.604 -0.3404 -0.2643  0.3090
   13CHTO   C23 5413   5.719   6.670   6.503  0.2363  0.5767 -0.2482
   13CHTO   H51 5414   5.677   6.709   6.408 -0.7248  1.7753  0.6419
   13CHTO   C34 5415   5.714   6.517   6.500  0.3628 -0.0427  0.3556
   13CHTO   O23 5416   5.682   6.459   6.620 -0.3094  0.3754 -0.4269
   13CHTO   H38 5417   5.750   6.468   6.683  0.6588 -3.2843 -0.8269
   13CHTO   O16 5418   5.530   6.892   6.708  0.3135 -0.1523 -0.0817
   13CHTO   C24 5419   5.378   6.902   6.637  0.0251 -0.4434 -0.1086
   13CHTO   H52 5420   5.374   6.865   6.534 -3.0149  0.5213 -0.4008
   13CHTO   C26 5421   5.332   7.052   6.633  0.1644  0.0654 -0.6351
   13CHTO   H54 5422   5.341   7.098   6.734 -1.2067  1.0319 -0.9283
   13CHTO   O20 5423   5.421   7.130   6.554  0.3460 -0.5712 -0.5872
   13CHTO   H36 5424   5.430   7.215   6.592  0.4970 -1.3387  1.1574
   13CHTO   C30 5425   5.187   7.063   6.585 -0.4374  0.7209 -0.3910
   13CHTO   H58 5426   5.171   7.042   6.478  2.2569  1.0710 -0.9049
   13CHTO    N6 5427   5.150   7.205   6.607  0.6263  0.0475  0.6520
   13CHTO   H45 5428   5.147   7.218   6.714  1.3118 -1.7674  0.9065
   13CHTO   H46 5429   5.221   7.274   6.563  0.0728  0.6518  0.6975
   13CHTO   C33 5430   5.095   6.965   6.660  0.0395  0.2981 -0.4700
   13CHTO   H61 5431   5.099   6.987   6.768  0.8660 -2.1574  0.0233
   13CHTO   O18 5432   5.151   6.832   6.638 -0.3412  0.7199  0.2954
   13CHTO   C28 5433   5.273   6.812   6.712 -0.6685 -0.6798 -0.0748
   13CHTO   H56 5434   5.260   6.843   6.816  3.2624  2.5923 -0.4087
   13CHTO   C35 5435   5.320   6.669   6.721 -0.0664  0.0395 -0.3451
   13CHTO   O24 5436   5.244   6.579   6.800 -0.4015 -0.1168  0.3196
   13CHTO   H39 5437   5.185   6.527   6.748  2.0389  0.4469 -3.1758
   13CHTO    O9 5438   4.958   6.972   6.623  0.3653 -0.7707  0.0364
   13CHTO   C13 5439   4.865   6.929   6.748  0.2414  0.1047 -0.6210
   13CHTO   H26 5440   4.910   6.983   6.834 -1.0643  1.3789 -0.7137
   13CHTO   C11 5441   4.861   6.772   6.770  0.6506  0.1451  0.5190
   13CHTO   H24 5442   4.961   6.738   6.799  1.2507  1.4968  0.0569
   13CHTO    O8 5443   4.841   6.713   6.639 -0.3367  0.1118 -0.1285
   13CHTO    H3 5444   4.874   6.627   6.626 -1.1284 -0.1204 -0.5949
   13CHTO    C9 5445   4.748   6.730   6.869  0.8906  0.9058 -0.2830
   13CHTO   H22 5446   4.779   6.768   6.968  0.5248  1.0728 -0.2309
   13CHTO    N2 5447   4.734   6.585   6.889  0.0481  0.9776  0.0337
   13CHTO   H10 5448   4.657   6.548   6.823 -1.8044  2.2086  1.4550
   13CHTO   H11 5449   4.721   6.547   6.989 -0.4396 -1.3519 -0.8664
   13CHTO    C7 5450   4.617   6.802   6.818 -0.2363  0.6688 -0.1358
   13CHTO   H20 5451   4.545   6.775   6.898  0.2839  0.1744  0.1749
   13CHTO    O4 5452   4.620   6.948   6.801  0.2876 -0.1581 -0.8991
   13CHTO   C14 5453   4.726   7.006   6.718 -0.0759  0.4490 -0.0865
   13CHTO   H27 5454   4.743   7.112   6.745 -0.3311 -0.2238  3.0032
   13CHTO   C18 5455   4.690   6.997   6.571 -0.2795  0.0669 -0.2584
   13CHTO   O13 5456   4.565   7.046   6.520 -0.0600  0.5089  0.0245
   13CHTO    H7 5457   4.553   7.138   6.531  0.4742  0.7661 -1.4495
   13CHTO    O2 5458   4.545   6.747   6.688  0.2611 -0.1248 -0.0667
   13CHTO    C1 5459   4.409   6.710   6.682  0.1565  0.3971 -0.4854
   13CHTO   H14 5460   4.373   6.785   6.609 -1.8100  0.9427  0.9682
   13CHTO    C2 5461   4.315   6.713   6.811  0.5409  0.1286 -0.2933
   13CHTO   H15 5462   4.359   6.648   6.887  1.4283  0.6514 -0.3589
   13CHTO    O6 5463   4.309   6.839   6.883  0.1306 -0.1625 -0.1908
   13CHTO    H1 5464   4.254   6.827   6.958  2.8055 -1.3995  1.6864
   13CHTO    C3 5465   4.167   6.659   6.777  0.4014 -0.5931 -0.2783
   13CHTO   H16 5466   4.110   6.728   6.714  2.3378  0.3026 -1.0778
   13CHTO    N1 5467   4.084   6.628   6.904 -0.1852 -0.0230  0.1866
   13CHTO    H8 5468   3.982   6.610   6.871 -0.0924  0.0999 -0.1729
   13CHTO    H9 5469   4.121   6.553   6.972 -0.1565  0.6907  0.9652
   13CHTO    C4 5470   4.185   6.526   6.698  0.5281  0.1104  0.4162
   13CHTO   H17 5471   4.229   6.450   6.763  0.5584  0.0624  0.3384
   13CHTO    O1 5472   4.275   6.527   6.586 -0.2116  0.1449  0.3233
   13CHTO    C5 5473   4.405   6.569   6.616  0.2065 -0.9123  0.4274
   13CHTO   H18 5474   4.452   6.499   6.685  2.0942  2.5966  2.8433
   13CHTO   C16 5475   4.479   6.560   6.478  0.2317 -0.1927  0.2874
   13CHTO   O11 5476   4.617   6.589   6.491  0.1051 -0.3356 -0.0525
   13CHTO    H5 5477   4.643   6.612   6.404  2.4515 -1.5445  0.2663
   13CHTO    O3 5478   4.055   6.484   6.638  0.2097  0.2523 -0.2617
   13CHTO    C6 5479   4.021   6.340   6.636 -0.0780 -0.5314 -0.1771
   13CHTO   H19 5480   4.100   6.269   6.662  1.1370 -0.8322 -4.4317
   13CHTO    C8 5481   3.904   6.305   6.726 -0.0209 -0.9343  0.4111
   13CHTO   H21 5482   3.821   6.370   6.695 -0.8167 -1.8792  0.5305
   13CHTO    O7 5483   3.944   6.335   6.858  0.6404  0.0182 -0.8298
   13CHTO    H2 5484   3.878   6.357   6.921  1.0215  0.9957 -0.7649
   13CHTO   C12 5485   3.877   6.148   6.697  0.5329  0.4579 -0.2830
   13CHTO   H25 5486   3.963   6.093   6.740  0.8327 -0.7467 -2.4150
   13CHTO    N3 5487   3.761   6.101   6.783  0.1821  0.2532  0.1756
   13CHTO   H12 5488   3.782   6.144   6.880  2.9968 -1.3339  0.3274
   13CHTO   H13 5489   3.761   5.994   6.791 -1.0756  0.3282  1.3715
   13CHTO   C15 5490   3.862   6.110   6.547 -0.2441 -0.1588 -0.4149
   13CHTO   H28 5491   3.767   6.149   6.510  0.5271  1.2965 -0.9070
   13CHTO   O10 5492   3.895   5.951   6.527  0.1164 -0.2643 -0.1163
   13CHTO    H4 5493   3.854   5.920   6.449 -1.5755 -0.5869  0.8667
   13CHTO    O5 5494   3.965   6.167   6.470  0.0305  0.3998 -0.1589
   13CHTO   C10 5495   3.982   6.311   6.487  0.0161  0.3464  0.7511
   13CHTO   H23 5496   3.893   6.367   6.456 -0.0355  1.4049  2.7208
   13CHTO   C17 5497   4.086   6.351   6.382  0.0210  0.5150  0.0543
   13CHTO   O12 5498   4.058   6.308   6.248 -0.4784  0.4568 -0.1049
   13CHTO    H6 5499   3.966   6.325   6.243 -0.1290  1.9485 -1.8411
   14CHTO  H203 5500   4.974   6.087   4.983 -1.2626 -0.1144  0.2027
   14CHTO   O82 5501   4.969   6.016   4.923 -0.4108 -0.3213  0.3687
   14CHTO  C123 5502   5.105   5.967   4.913 -0.6141 -0.3363  0.0221
   14CHTO  H227 5503   5.174   6.047   4.885 -0.6495 -0.7435 -1.2501
   14CHTO   O77 5504   5.130   5.915   5.051 -0.0287 -0.8505  0.1726
   14CHTO  C118 5505   5.252   5.853   5.061 -0.2028  0.7505 -0.1428
   14CHTO  H222 5506   5.337   5.920   5.041  2.3696 -2.5111 -0.7681
   14CHTO  C125 5507   5.264   5.805   5.205 -0.3760  0.1074 -0.5151
   14CHTO   O84 5508   5.306   5.900   5.304 -0.7529  0.0469  0.0764
   14CHTO  H205 5509   5.377   5.941   5.259  0.1234 -0.5436  0.8946
   14CHTO  C114 5510   5.257   5.734   4.964 -0.4462 -0.0301  0.3899
   14CHTO  H218 5511   5.184   5.659   4.997 -0.8195  0.5052  0.7987
   14CHTO  C116 5512   5.234   5.781   4.818 -0.1436  0.4673  1.0919
   14CHTO  H220 5513   5.314   5.852   4.789 -3.1847  4.1327  1.3431
   14CHTO   O79 5514   5.268   5.667   4.726 -0.6896  0.5168  0.6748
   14CHTO  H201 5515   5.360   5.679   4.709 -0.8204  1.4916  0.6491
   14CHTO  C120 5516   5.104   5.854   4.805 -0.1653 -0.3685  0.4799
   14CHTO  H224 5517   5.026   5.781   4.838 -2.0666  0.6529 -1.6464
   14CHTO   N21 5518   5.080   5.899   4.660 -0.2079 -0.3271  0.3652
   14CHTO  H211 5519   5.159   5.970   4.641 -0.2108 -0.3493  0.2676
   14CHTO  H212 5520   4.987   5.953   4.647  1.0138  1.7348 -0.0436
   14CHTO   O75 5521   5.393   5.679   4.972  0.2506 -0.3096  0.5179
   14CHTO  C112 5522   5.387   5.497   4.979  0.0402 -0.8113 -0.0330
   14CHTO  H216 5523   5.488   5.456   4.963  0.2664 -0.1808 -0.2208
   14CHTO   O73 5524   5.294   5.445   4.882 -0.3060 -0.4843  0.5352
   14CHTO  C113 5525   5.277   5.306   4.878 -0.1114  1.0000 -0.2355
   14CHTO  H217 5526   5.377   5.270   4.847 -1.6088 -2.4368 -1.3127
   14CHTO  C124 5527   5.188   5.258   4.766 -0.2132  0.0827  0.1923
   14CHTO   O83 5528   5.253   5.266   4.636  0.0032  0.4900 -0.1607
   14CHTO  H204 5529   5.191   5.268   4.566 -1.0854  2.2160  0.8174
   14CHTO  C109 5530   5.233   5.242   5.010 -0.3632  0.1326 -0.5323
   14CHTO  H213 5531   5.133   5.284   5.028 -0.6393  0.0916 -1.8719
   14CHTO  C110 5532   5.333   5.288   5.117 -0.0263  0.2757 -0.2325
   14CHTO  H214 5533   5.428   5.239   5.098  0.1521 -0.1053  1.6296
   14CHTO   O78 5534   5.287   5.238   5.239  0.6014  0.1038 -0.2112
   14CHTO  H200 5535   5.345   5.171   5.269 -0.5496 -1.8716 -2.2553
   14CHTO  C111 5536   5.351   5.447   5.128 -0.6656  0.2658  0.3711
   14CHTO  H215 5537   5.255   5.490   5.160 -0.8417  0.8218 -0.8558
   14CHTO   N19 5538   5.451   5.495   5.224 -0.5489  0.1460  0.3489
   14CHTO  H207 5539   5.454   5.603   5.231 -0.0056  0.1099  0.6661
   14CHTO  H208 5540   5.544   5.442   5.208 -1.0078 -0.0947 -1.6762
   14CHTO   O74 5541   5.214   5.094   5.004  0.5676  0.3100  0.1764
   14CHTO  C115 5542   5.062   5.036   4.984  0.1792  0.9460 -0.3854
   14CHTO  H219 5543   4.984   5.112   4.977  1.3506  2.2620  0.6586
   14CHTO   O76 5544   5.053   4.959   4.867 -0.2416  0.4306  0.5069
   14CHTO  C122 5545   4.933   4.887   4.834  0.1074  0.3107 -0.0343
   14CHTO  H226 5546   4.966   4.824   4.753  2.6784 -0.3670  1.4788
   14CHTO  C126 5547   4.826   4.984   4.776  0.1451 -0.7730 -0.3620
   14CHTO   O85 5548   4.873   5.063   4.665  0.0004  0.3372  0.2248
   14CHTO  H206 5549   4.861   5.012   4.587  0.6323  0.1540  0.2417
   14CHTO  C121 5550   4.880   4.802   4.953 -0.2261 -1.0825 -0.1577
   14CHTO  H225 5551   4.775   4.773   4.932 -1.2284  1.6118  0.8814
   14CHTO   O81 5552   4.964   4.692   4.965 -0.2038  0.2289 -0.2288
   14CHTO  H202 5553   5.053   4.723   4.971  0.2073 -0.8548 -0.5050
   14CHTO  C119 5554   4.883   4.878   5.089  0.1107  0.3528  0.0501
   14CHTO  H223 5555   4.814   4.962   5.074 -0.2590  0.3991  1.9129
   14CHTO  C117 5556   5.027   4.942   5.105 -1.0923  0.6541  0.1182
   14CHTO  H221 5557   5.112   4.874   5.112 -1.3541  0.2838 -0.2520
   14CHTO   N20 5558   5.029   5.016   5.236  0.3622 -0.2839  0.1249
   14CHTO  H209 5559   4.969   4.957   5.303 -2.1689  0.1592 -1.6814
   14CHTO  H210 5560   5.122   5.055   5.275 -0.2024  0.5940  0.6168
   14CHTO   O80 5561   4.811   4.799   5.203  0.1101 -0.2016  0.2733
   14CHTO  C103 5562   4.669   4.785   5.191  0.8755  0.0008  0.0681
   14CHTO  H190 5563   4.626   4.848   5.113  0.7272  0.3420  0.4248
   14CHTO  C101 5564   4.607   4.639   5.177 -0.4433 -0.4189 -0.7414
   14CHTO  H188 5565   4.641   4.582   5.263  1.6099  0.8683 -0.6554
   14CHTO   O68 5566   4.652   4.565   5.040  0.2862  0.2350 -0.7704
   14CHTO  H168 5567   4.680   4.626   4.974  1.7698  0.5305  0.1048
   14CHTO   C99 5568   4.448   4.637   5.175  0.0832 -0.4365 -0.6034
   14CHTO  H186 5569   4.406   4.678   5.081  1.1160 -2.1570 -1.8359
   14CHTO   N17 5570   4.379   4.502   5.197  0.3943 -0.3578 -0.6541
   14CHTO  H174 5571   4.378   4.458   5.296 -0.9763 -1.8465 -1.2898
   14CHTO  H175 5572   4.415   4.437   5.118 -0.6862 -1.9740  0.1330
   14CHTO   C97 5573   4.396   4.730   5.289  0.4666 -0.1606  0.7327
   14CHTO  H184 5574   4.377   4.677   5.384  1.6850 -0.9694  0.5399
   14CHTO   O64 5575   4.475   4.851   5.308 -0.1217  0.4087 -0.1389
   14CHTO  C104 5576   4.612   4.838   5.328 -1.1829 -0.2652  0.0331
   14CHTO  H191 5577   4.625   4.768   5.411 -0.9087  1.5831  1.5713
   14CHTO  C108 5578   4.671   4.970   5.383  0.8721  0.4469 -0.2324
   14CHTO   O71 5579   4.606   4.994   5.512 -0.5934 -0.4256 -0.0312
   14CHTO  H171 5580   4.513   4.982   5.515 -0.4137 -1.4688  2.5840
   14CHTO   O62 5581   4.264   4.775   5.248 -0.0355 -0.1370 -0.0736
   14CHTO   C91 5582   4.178   4.842   5.336 -0.2781 -0.4780 -0.6343
   14CHTO  H178 5583   4.170   4.772   5.420 -3.9382  0.6337  0.0252
   14CHTO   C92 5584   4.032   4.848   5.274  0.1956  0.4534 -0.3047
   14CHTO  H179 5585   4.014   4.751   5.226 -0.7458  1.1066 -1.3039
   14CHTO   O66 5586   3.931   4.876   5.373  0.0777  0.5655  0.0423
   14CHTO  H166 5587   3.951   4.834   5.455 -0.5405  0.6919  0.2624
   14CHTO   C93 5588   4.029   4.967   5.168 -0.1809  0.0727 -0.6676
   14CHTO  H180 5589   3.922   4.976   5.146 -0.2331  1.5453  0.1377
   14CHTO   N16 5590   4.096   4.930   5.035 -0.2385 -0.3001  0.1714
   14CHTO  H172 5591   4.023   4.941   4.956 -1.0713  0.3894  1.0203
   14CHTO  H173 5592   4.184   4.992   5.027 -0.9109  0.6605  0.1093
   14CHTO   C94 5593   4.088   5.099   5.232  0.3779 -0.1590  0.5927
   14CHTO  H181 5594   4.176   5.130   5.177 -1.0210 -0.5841 -1.9820
   14CHTO   O61 5595   4.125   5.090   5.371  0.1843 -0.3626  0.1234
   14CHTO   C95 5596   4.223   4.990   5.393  0.2744 -0.7301 -0.3559
   14CHTO  H182 5597   4.315   5.024   5.347  0.4888  0.9238  1.2461
   14CHTO  C106 5598   4.236   4.992   5.543 -0.1941 -0.1245 -0.1232
   14CHTO   O69 5599   4.352   4.945   5.607  0.1188 -0.1906  0.1753
   14CHTO  H169 5600   4.432   4.993   5.599  0.0298  0.3699  2.4327
   14CHTO   O63 5601   3.985   5.215   5.236  0.5290 -0.2638  0.3033
   14CHTO   C96 5602   3.999   5.315   5.126 -0.5008 -0.1319  0.2523
   14CHTO  H183 5603   3.916   5.384   5.139 -0.5108 -0.2231  0.7010
   14CHTO   C98 5604   4.006   5.266   4.985 -0.4634  0.5524  0.0552
   14CHTO  H185 5605   4.084   5.189   4.977 -1.1487 -0.2069  0.5550
   14CHTO   O67 5606   3.884   5.198   4.959  0.0547  0.1359 -0.0851
   14CHTO  H167 5607   3.904   5.146   4.884 -0.7798 -2.0262  1.1521
   14CHTO  C102 5608   4.038   5.381   4.881  0.1358 -0.2427  0.2732
   14CHTO  H189 5609   3.957   5.456   4.882  0.7546  0.4415 -0.4860
   14CHTO   N18 5610   4.048   5.338   4.738 -0.0523 -0.3513 -0.2115
   14CHTO  H176 5611   3.970   5.269   4.711  1.4117 -1.9667 -0.4011
   14CHTO  H177 5612   4.034   5.427   4.678  2.6118 -0.8624 -1.6858
   14CHTO  C105 5613   4.156   5.463   4.926 -0.3738 -0.1684  0.6759
   14CHTO  H192 5614   4.248   5.404   4.917 -0.2597 -0.2063  2.0380
   14CHTO   O65 5615   4.136   5.511   5.059 -0.4228 -0.4662 -0.3733
   14CHTO  C100 5616   4.122   5.412   5.164  0.4021  0.5307  0.0216
   14CHTO  H187 5617   4.220   5.361   5.160  0.2554  0.1803  0.8071
   14CHTO  C107 5618   4.103   5.475   5.302  0.6303  0.3429 -0.3104
   14CHTO   O70 5619   4.166   5.604   5.328 -0.3091  0.4870 -0.2092
   14CHTO  H170 5620   4.186   5.636   5.243  0.5873  1.1273  0.2391
   14CHTO   O57 5621   4.153   5.601   4.827  0.1385  0.3453 -0.0046
   14CHTO   C85 5622   4.266   5.622   4.742 -0.6126 -0.2458 -0.5202
   14CHTO  H157 5623   4.313   5.523   4.728  1.5949  1.3450 -5.2436
   14CHTO   C83 5624   4.368   5.711   4.824  0.3336 -0.4513 -0.3786
   14CHTO  H155 5625   4.408   5.656   4.909  0.9244 -0.3010 -0.5581
   14CHTO   O56 5626   4.297   5.831   4.879 -0.1256 -0.4070  0.2624
   14CHTO  H135 5627   4.230   5.811   4.942  1.0796 -1.8294  1.1179
   14CHTO   C81 5628   4.493   5.750   4.733  0.3262  0.3022 -0.1887
   14CHTO  H153 5629   4.540   5.659   4.694 -0.0634  0.1644 -0.3360
   14CHTO   N14 5630   4.595   5.834   4.803 -0.5138 -0.2606  0.0521
   14CHTO  H141 5631   4.676   5.853   4.737 -1.0694  2.0622  0.0059
   14CHTO  H142 5632   4.630   5.775   4.885  0.5724 -1.0137 -0.9365
   14CHTO   C79 5633   4.447   5.828   4.598  0.3755 -0.2907  0.7478
   14CHTO  H151 5634   4.533   5.832   4.532  1.3377 -1.9331  1.8827
   14CHTO   O52 5635   4.346   5.745   4.535 -0.1806  0.3708 -0.3831
   14CHTO   C86 5636   4.236   5.686   4.610 -0.4694 -0.6409 -0.3962
   14CHTO  H158 5637   4.167   5.772   4.623 -1.9765 -1.7263 -0.9972
   14CHTO   C90 5638   4.158   5.595   4.522  0.4678  0.1936  0.0666
   14CHTO   O60 5639   4.103   5.670   4.413  0.7847  0.5637  0.4935
   14CHTO  H138 5640   4.041   5.619   4.364  0.8196  0.6284  0.3816
   14CHTO   O50 5641   4.384   5.964   4.616  0.7531  0.5773 -0.3117
   14CHTO   C73 5642   4.316   6.072   4.547  0.4313  1.0632  0.4085
   14CHTO  H145 5643   4.243   6.117   4.616 -0.0167 -1.3545  1.5623
   14CHTO   C74 5644   4.234   6.035   4.417 -0.1344 -0.4321 -0.3077
   14CHTO  H146 5645   4.169   5.948   4.437  0.8078 -1.4284 -1.4535
   14CHTO   O54 5646   4.149   6.146   4.391 -0.1837 -0.7264 -0.2976
   14CHTO  H133 5647   4.088   6.146   4.462 -0.4332 -1.4180 -0.5053
   14CHTO   C75 5648   4.330   6.010   4.292  0.4019  0.1765  0.4147
   14CHTO  H147 5649   4.373   5.910   4.308  0.7874  0.6150  2.2426
   14CHTO   N13 5650   4.267   5.979   4.165 -0.3254 -0.0095  0.4120
   14CHTO  H139 5651   4.197   6.057   4.141 -0.6566 -1.2774 -2.8909
   14CHTO  H140 5652   4.215   5.885   4.172  0.3627 -0.3593  0.9827
   14CHTO   C76 5653   4.451   6.112   4.273  0.1250  0.7069  0.0865
   14CHTO  H148 5654   4.412   6.208   4.239  1.3241  0.5840 -1.7282
   14CHTO   O49 5655   4.510   6.129   4.408 -0.5718  0.1103 -0.0819
   14CHTO   C77 5656   4.429   6.182   4.511  0.8557 -0.1923  0.9868
   14CHTO  H149 5657   4.375   6.270   4.474  2.3245  0.4075  0.2370
   14CHTO   C88 5658   4.507   6.232   4.633  0.2636  0.2918  0.1829
   14CHTO   O58 5659   4.573   6.340   4.597 -0.7156  0.7845 -0.1234
   14CHTO  H136 5660   4.646   6.356   4.652 -0.5185 -0.5549  0.0283
   14CHTO   O51 5661   4.556   6.042   4.162 -0.5263 -0.0877 -0.0747
   14CHTO   C78 5662   4.665   6.136   4.126  0.1851 -0.5747 -0.8788
   14CHTO  H150 5663   4.683   6.207   4.209  2.2797 -1.7231 -0.2999
   14CHTO   C80 5664   4.617   6.209   4.004 -0.1989 -1.2182 -0.6696
   14CHTO  H152 5665   4.574   6.139   3.930  0.3614 -0.9973 -1.2019
   14CHTO   O55 5666   4.508   6.298   4.033 -0.4674 -0.3050 -0.4298
   14CHTO  H134 5667   4.432   6.255   4.067 -2.0781  2.0057 -0.9648
   14CHTO   C84 5668   4.731   6.292   3.938  0.8118  0.1259 -0.4896
   14CHTO  H156 5669   4.759   6.376   4.001 -1.3692 -0.7483  1.7255
   14CHTO   N15 5670   4.686   6.358   3.803 -0.1142  0.1785 -0.4640
   14CHTO  H143 5671   4.615   6.291   3.760  0.7704 -0.1189 -1.4712
   14CHTO  H144 5672   4.766   6.373   3.734 -0.5839 -1.3439 -1.3382
   14CHTO   C87 5673   4.848   6.201   3.904  0.1091  0.4634 -0.3387
   14CHTO  H159 5674   4.802   6.126   3.840  2.6116 -0.6142 -0.9589
   14CHTO   O53 5675   4.895   6.127   4.046  0.5262  0.7092  0.7392
   14CHTO   C82 5676   4.790   6.054   4.107  0.3063  0.1471  0.5861
   14CHTO  H154 5677   4.776   5.965   4.046 -1.2984 -0.0442  1.1925
   14CHTO   C89 5678   4.839   6.007   4.253 -0.1566  0.5950  0.1342
   14CHTO   O59 5679   4.970   5.953   4.256 -0.2259  0.0026 -0.0816
   14CHTO  H137 5680   4.991   5.963   4.346  0.5338 -0.2846 -0.2187
   14CHTO   O45 5681   4.969   6.269   3.845  0.1851  0.8001  0.6959
   14CHTO   C67 5682   5.075   6.184   3.791  0.5007 -0.2552  0.2093
   14CHTO  H124 5683   5.097   6.107   3.865  0.9201 -0.1411  0.2052
   14CHTO   C65 5684   5.021   6.112   3.665 -0.4731  0.6163 -0.0171
   14CHTO  H122 5685   4.915   6.096   3.683 -0.9696  2.7237 -0.9134
   14CHTO   O44 5686   5.091   5.985   3.647 -0.0926 -0.5906 -0.0758
   14CHTO  H102 5687   5.104   5.933   3.724  0.7448  0.0801  0.2431
   14CHTO   C63 5688   5.017   6.217   3.552  1.1852  0.1715  0.7512
   14CHTO  H120 5689   4.958   6.301   3.590  0.7755  0.9514 -1.5396
   14CHTO   N11 5690   4.945   6.173   3.430  0.2404 -0.5139 -0.4580
   14CHTO  H108 5691   4.847   6.135   3.451  0.3666  0.2436  1.6273
   14CHTO  H109 5692   4.930   6.255   3.363  0.1853 -1.4609 -1.6185
   14CHTO   C61 5693   5.165   6.273   3.519  0.3153  0.3530 -0.0359
   14CHTO  H118 5694   5.151   6.351   3.442 -1.3790  0.3071  0.2010
   14CHTO   O40 5695   5.213   6.340   3.639 -0.6051  0.0746  0.4436
   14CHTO   C68 5696   5.213   6.265   3.767  0.2620 -0.1138 -0.2678
   14CHTO  H125 5697   5.213   6.344   3.846 -0.5485  0.4942 -0.8674
   14CHTO   C72 5698   5.336   6.169   3.784 -0.4366  0.5324 -0.0595
   14CHTO   O48 5699   5.464   6.229   3.775  0.5333 -0.1946  0.4732
   14CHTO  H105 5700   5.462   6.305   3.830 -1.0233  0.6717 -0.7693
   14CHTO   O38 5701   5.259   6.176   3.467 -0.2499 -0.0590  0.0550
   14CHTO   C55 5702   5.306   6.195   3.330  0.0996 -0.5155 -0.5171
   14CHTO  H112 5703   5.231   6.255   3.277 -0.5451 -0.1613  0.7779
   14CHTO   C56 5704   5.328   6.054   3.260 -0.0344  0.9646 -0.3512
   14CHTO  H113 5705   5.402   5.992   3.313 -0.5153  0.2896 -0.4591
   14CHTO   O42 5706   5.199   5.992   3.263  0.0035  0.6842  0.0327
   14CHTO  H100 5707   5.160   5.982   3.348  4.2570  1.7711  2.2404
   14CHTO   C57 5708   5.386   6.072   3.116  0.1009  0.0364  0.9357
   14CHTO  H114 5709   5.320   6.135   3.056  0.5292 -1.3071 -1.0150
   14CHTO   N10 5710   5.409   5.941   3.043  0.5758 -0.5651 -0.2419
   14CHTO  H106 5711   5.407   5.955   2.936 -2.3209 -0.5640 -0.2267
   14CHTO  H107 5712   5.320   5.884   3.064 -0.3890  1.2624  0.8203
   14CHTO   C58 5713   5.524   6.146   3.132 -0.2424 -0.7025  0.7068
   14CHTO  H115 5714   5.586   6.088   3.203 -0.0746  0.2631  1.3471
   14CHTO   O37 5715   5.494   6.273   3.184  0.2156 -0.0941 -0.6859
   14CHTO   C59 5716   5.445   6.269   3.323 -0.6245 -0.4630 -0.0742
   14CHTO  H116 5717   5.518   6.223   3.390  0.3718  0.8497 -0.2360
   14CHTO   C70 5718   5.443   6.413   3.369 -0.4413  0.0631 -0.0884
   14CHTO   O46 5719   5.569   6.486   3.377 -0.4540 -0.2725  0.6333
   14CHTO  H103 5720   5.594   6.507   3.289  0.5564 -1.0026  0.7325
   14CHTO   O39 5721   5.611   6.155   2.981 -0.0087  0.5033  0.6419
   14CHTO   C60 5722   5.753   6.193   2.978  0.1125 -0.2856 -0.2822
   14CHTO  H117 5723   5.799   6.183   2.879  2.8728  0.7199  0.8574
   14CHTO   C62 5724   5.792   6.339   3.007 -0.0808 -0.5596  0.0753
   14CHTO  H119 5725   5.715   6.398   2.954 -0.6163 -2.5879 -1.4870
   14CHTO   O43 5726   5.774   6.376   3.139 -0.3244  0.1559  0.3417
   14CHTO  H101 5727   5.693   6.358   3.182  0.1039 -1.0622  0.6531
   14CHTO   C66 5728   5.946   6.352   2.956 -0.1799 -0.2111  0.5081
   14CHTO  H123 5729   5.954   6.310   2.856  0.6669 -0.1762  0.5587
   14CHTO   N12 5730   5.986   6.492   2.929 -0.1761 -0.1783 -0.4621
   14CHTO  H110 5731   5.961   6.570   2.999  0.2523 -0.7037  0.2810
   14CHTO  H111 5732   6.092   6.489   2.909 -0.0310 -0.4460  0.3610
   14CHTO   C69 5733   6.041   6.265   3.039  0.8028  0.8830 -0.0994
   14CHTO  H126 5734   6.044   6.307   3.142 -2.4939  2.1806 -0.4628
   14CHTO   O41 5735   5.978   6.120   3.062  0.7587 -0.5739  0.1895
   14CHTO   C64 5736   5.836   6.097   3.071 -0.4703  0.4798 -0.5470
   14CHTO  H121 5737   5.803   6.113   3.176  1.2026 -1.2931  0.2879
   14CHTO   C71 5738   5.796   5.955   3.034 -0.2096  0.0626 -0.6988
   14CHTO   O47 5739   5.816   5.864   3.138 -0.0853  0.5063 -0.1770
   14CHTO  H104 5740   5.892   5.895   3.184 -0.7554 -1.0209  2.0620
   14CHTO   O34 5741   6.191   6.264   2.977  0.2078 -0.4333  0.2944
   14CHTO   C49 5742   6.296   6.157   2.939  0.3700  0.1350  0.4173
   14CHTO   H91 5743   6.338   6.128   3.035  0.7370  0.0550  0.2345
   14CHTO   C47 5744   6.392   6.231   2.839  0.3763 -0.5645  0.1477
   14CHTO   H89 5745   6.471   6.155   2.819  1.1032  0.5323 -1.2309
   14CHTO   O33 5746   6.456   6.343   2.896 -0.1376  0.1948  0.3664
   14CHTO   H70 5747   6.388   6.384   2.946  0.6116  1.1658  0.6139
   14CHTO   C45 5748   6.315   6.267   2.697  0.0144 -0.4648  0.5038
   14CHTO   H87 5749   6.274   6.368   2.707  2.9487  1.4376 -4.6735
   14CHTO    N8 5750   6.416   6.269   2.586  0.0304  0.2958 -0.1805
   14CHTO   H75 5751   6.356   6.309   2.505 -0.1856  1.4972  0.5569
   14CHTO   H76 5752   6.495   6.342   2.603 -0.0702  0.7475 -1.5799
   14CHTO   C43 5753   6.188   6.165   2.667  0.5598 -0.1390  0.5594
   14CHTO   H85 5754   6.108   6.213   2.724 -1.0087  0.4738 -2.0756
   14CHTO   O29 5755   6.221   6.042   2.718 -0.5312  1.0346 -0.2479
   14CHTO   C50 5756   6.235   6.036   2.865 -0.4319  0.4026  0.2512
   14CHTO   H92 5757   6.129   6.026   2.896 -0.3852 -0.9531  0.0041
   14CHTO   C54 5758   6.299   5.901   2.907  0.2691  0.9913  0.3125
   14CHTO   O36 5759   6.294   5.869   3.043 -0.1323  0.4247 -0.5101
   14CHTO   H72 5760   6.213   5.826   3.064  0.9489 -0.8429  1.1523
   14CHTO   O27 5761   6.124   6.155   2.537  0.3845 -0.0753  0.4677
   14CHTO   C37 5762   5.994   6.179   2.488  0.4847 -0.3386 -0.3109
   14CHTO   H79 5763   5.990   6.183   2.378 -1.4903  1.3288 -0.2204
   14CHTO   C38 5764   5.893   6.061   2.526  0.2962 -0.6709  0.4343
   14CHTO   H80 5765   5.914   6.031   2.630 -0.5130  0.7091  1.0078
   14CHTO   O31 5766   5.931   5.958   2.434  0.0282  0.2157  0.5152
   14CHTO   H68 5767   5.867   5.890   2.428  1.2536 -0.8556 -0.6043
   14CHTO   C39 5768   5.736   6.091   2.512  0.7240  0.4834 -0.7049
   14CHTO   H81 5769   5.711   6.081   2.407 -2.0751  0.5600 -0.0966
   14CHTO    N7 5770   5.645   6.012   2.605 -0.0228 -0.0867  0.0368
   14CHTO   H73 5771   5.578   5.950   2.547 -0.6752  0.5362  0.1130
   14CHTO   H74 5772   5.715   5.945   2.653  1.4473  0.2954 -1.5399
   14CHTO   C40 5773   5.705   6.245   2.549  0.0041  1.0021 -0.6445
   14CHTO   H82 5774   5.715   6.252   2.657 -0.3804  0.5072 -0.5731
   14CHTO   O26 5775   5.798   6.332   2.481 -0.6052 -0.9063 -0.3722
   14CHTO   C41 5776   5.932   6.314   2.537  0.1359  0.1204 -0.2169
   14CHTO   H83 5777   5.922   6.322   2.646 -0.6206 -2.0409 -0.0909
   14CHTO   C52 5778   6.013   6.429   2.465 -0.2285 -0.6883  0.2816
   14CHTO   O35 5779   6.152   6.441   2.463 -0.0656 -0.5419  0.1452
   14CHTO   H71 5780   6.186   6.389   2.392  0.7154 -0.7748  0.6865
   14CHTO   O28 5781   5.570   6.290   2.511  0.1368 -0.0597  0.0861
   14CHTO   C42 5782   5.505   6.384   2.606  0.3678 -0.2649  1.0438
   14CHTO   H84 5783   5.430   6.427   2.540 -1.8920 -2.6606  1.9734
   14CHTO   C44 5784   5.591   6.504   2.661  0.1382  0.2728  0.0628
   14CHTO   H86 5785   5.682   6.470   2.710  0.7043  0.8800 -0.5490
   14CHTO   O32 5786   5.636   6.580   2.546 -0.7761 -0.3158  0.7239
   14CHTO   H69 5787   5.704   6.543   2.493 -1.7744 -0.0433 -0.7900
   14CHTO   C48 5788   5.497   6.590   2.753  0.0480  0.3957 -0.0788
   14CHTO   H90 5789   5.426   6.639   2.686 -1.0134 -1.4660 -0.3661
   14CHTO    N9 5790   5.569   6.715   2.810  0.0288 -0.3893 -0.4611
   14CHTO   H77 5791   5.652   6.681   2.869 -0.4986  0.7127  0.9291
   14CHTO   H78 5792   5.601   6.786   2.735  0.8449  1.0425  1.2080
   14CHTO   C51 5793   5.428   6.518   2.866 -0.3045 -0.0829 -0.2591
   14CHTO   H93 5794   5.494   6.493   2.949 -1.8119 -0.0548  0.9671
   14CHTO   O30 5795   5.360   6.400   2.816 -0.4919  0.3293  0.9121
   14CHTO   C46 5796   5.432   6.305   2.713 -0.5473  0.2602 -0.0907
   14CHTO   H88 5797   5.507   6.239   2.756  1.6624  1.4818 -1.9145
   14CHTO   C53 5798   5.318   6.223   2.658  0.2880  0.3047 -0.6753
   14CHTO   O72 5799   5.265   6.122   2.747 -0.3786 -0.0861 -0.2297
   14CHTO  H199 5800   5.314   6.134   2.826  1.8718  0.9961 -1.7349
   14CHTO   O22 5801   5.310   6.594   2.915  0.7316 -0.0903  0.6200
   14CHTO   C31 5802   5.286   6.629   3.051  0.9826  0.1273  0.2463
   14CHTO   H59 5803   5.371   6.583   3.106 -0.0221 -0.1123  1.6142
   14CHTO   C29 5804   5.285   6.779   3.091  0.2077  0.8636  1.5803
   14CHTO   H57 5805   5.203   6.817   3.028 -1.3567 -0.6107  2.6896
   14CHTO   O21 5806   5.409   6.837   3.050 -0.1147 -0.0802  0.1181
   14CHTO   H37 5807   5.466   6.868   3.118  0.8196  1.4519 -1.3117
   14CHTO   C27 5808   5.250   6.799   3.241  0.1623  0.0156  0.2930
   14CHTO   H55 5809   5.343   6.775   3.294  1.4211  3.2790 -0.2820
   14CHTO    N5 5810   5.223   6.948   3.269  0.1611  0.4606 -0.2350
   14CHTO   H43 5811   5.158   6.965   3.354  1.5099 -0.0887  0.9178
   14CHTO   H44 5812   5.186   6.994   3.178 -1.6869  1.9287  1.2185
   14CHTO   C25 5813   5.143   6.699   3.292  0.6845 -0.0035 -0.1772
   14CHTO   H53 5814   5.048   6.732   3.248  0.9320 -0.6503 -1.1990
   14CHTO   O17 5815   5.172   6.565   3.246 -0.2063  0.4080 -0.1740
   14CHTO   C32 5816   5.156   6.561   3.103  0.0104 -0.3169 -0.8956
   14CHTO   H60 5817   5.072   6.615   3.060 -1.0384 -1.2453 -0.0324
   14CHTO   C36 5818   5.144   6.408   3.056  0.8306  0.3179  0.4707
   14CHTO   O25 5819   5.045   6.332   3.126  0.6907  0.3026 -0.7970
   14CHTO   H40 5820   5.034   6.353   3.217 -0.1486 -1.2062 -0.5324
   14CHTO   O15 5821   5.137   6.708   3.439  0.0511 -0.5360  0.0347
   14CHTO   C19 5822   5.184   6.691   3.577 -0.7021  0.4045 -0.2975
   14CHTO   H47 5823   5.225   6.589   3.578  0.0040  0.6616 -1.8160
   14CHTO   C20 5824   5.287   6.795   3.632  0.9548 -0.8734  0.1378
   14CHTO   H48 5825   5.245   6.897   3.627 -1.3057 -1.8466 -2.1459
   14CHTO   O19 5826   5.399   6.777   3.545  0.1874 -0.2009 -0.2258
   14CHTO   H35 5827   5.443   6.860   3.549  0.4924 -0.2309 -2.6576
   14CHTO   C21 5828   5.321   6.781   3.787 -0.2591  0.3742  0.2131
   14CHTO   H49 5829   5.370   6.684   3.797 -1.4595 -0.1296  1.4172
   14CHTO    N4 5830   5.419   6.883   3.834  0.5529 -0.3929 -0.4531
   14CHTO   H41 5831   5.512   6.868   3.781  1.1621  1.8753 -0.0578
   14CHTO   H42 5832   5.439   6.875   3.939 -1.1079 -0.7566 -0.1419
   14CHTO   C22 5833   5.191   6.759   3.867 -0.9140 -0.3781 -0.5741
   14CHTO   H50 5834   5.144   6.858   3.868  2.6039  1.4571 -3.4657
   14CHTO   O14 5835   5.110   6.656   3.819  0.6451  0.7307  0.9946
   14CHTO   C23 5836   5.069   6.687   3.687 -0.3005  0.4146 -0.1405
   14CHTO   H51 5837   5.016   6.783   3.700 -1.4948 -0.3103  0.5186
   14CHTO   C34 5838   4.961   6.582   3.662 -0.0232  0.0865 -0.6675
   14CHTO   O23 5839   4.919   6.572   3.528  0.2914 -0.2260  0.2856
   14CHTO   H38 5840   4.866   6.495   3.522 -1.5733  1.0164  0.1798
   14CHTO   O16 5841   5.214   6.718   4.007  0.1298 -0.1152  0.4498
   14CHTO   C24 5842   5.084   6.782   4.113 -1.0312  0.0774 -0.3729
   14CHTO   H52 5843   5.005   6.831   4.057  0.2226  1.7235 -0.7412
   14CHTO   C26 5844   5.146   6.878   4.213 -0.2162  0.0436 -0.2875
   14CHTO   H54 5845   5.218   6.827   4.281 -1.0910  0.3471  0.8891
   14CHTO   O20 5846   5.217   6.984   4.149  0.1385  0.5205 -0.0184
   14CHTO   H36 5847   5.166   7.053   4.112  1.0613  0.5601 -1.2385
   14CHTO   C30 5848   5.034   6.927   4.315  0.3166 -0.0640 -0.1567
   14CHTO   H58 5849   4.962   6.998   4.273 -0.9319 -1.3766 -0.2696
   14CHTO    N6 5850   5.100   6.997   4.432 -0.5352 -0.4822  0.1855
   14CHTO   H45 5851   5.027   7.058   4.483  1.2860  1.6205  0.3302
   14CHTO   H46 5852   5.176   7.058   4.387  1.4759 -3.0185  0.0126
   14CHTO   C33 5853   4.950   6.807   4.365  0.4112  0.0308 -1.1492
   14CHTO   H61 5854   5.004   6.748   4.440 -0.3495  2.4213  1.3858
   14CHTO   O18 5855   4.906   6.727   4.259 -0.3402 -0.5398  0.3598
   14CHTO   C28 5856   5.014   6.658   4.184  0.4659 -0.9049  0.1839
   14CHTO   H56 5857   5.085   6.612   4.253  0.0335  0.6010  1.6537
   14CHTO   C35 5858   4.955   6.548   4.088  0.1971  0.2149 -0.5915
   14CHTO   O24 5859   4.868   6.596   3.987  0.0096 -0.9101 -0.1800
   14CHTO   H39 5860   4.904   6.668   3.940  0.9258 -0.5983  0.9853
   14CHTO    O9 5861   4.832   6.868   4.432  0.0357  1.1846  0.0458
   14CHTO   C13 5862   4.736   6.749   4.523 -0.4512  0.1546  0.2216
   14CHTO   H26 5863   4.742   6.657   4.462  3.2260 -0.2767  1.0989
   14CHTO   C11 5864   4.596   6.793   4.541  0.3583 -0.8231 -0.8216
   14CHTO   H24 5865   4.555   6.809   4.441  1.6723  2.4666 -0.8917
   14CHTO    O8 5866   4.581   6.924   4.592 -0.1486 -0.4612  0.6693
   14CHTO    H3 5867   4.498   6.948   4.555  0.7540 -0.4216 -1.3645
   14CHTO    C9 5868   4.520   6.684   4.611 -0.3530  0.4832 -0.0166
   14CHTO   H22 5869   4.556   6.590   4.566 -3.8755 -0.9614  0.0198
   14CHTO    N2 5870   4.370   6.686   4.601  0.1666 -0.6856  0.1999
   14CHTO   H10 5871   4.344   6.786   4.571  0.2150 -0.7674 -0.1143
   14CHTO   H11 5872   4.356   6.611   4.524  1.6141 -3.1758  2.3007
   14CHTO    C7 5873   4.575   6.679   4.757  0.1635  0.0398  0.6503
   14CHTO   H20 5874   4.522   6.591   4.799 -0.5153  0.0028 -0.2500
   14CHTO    O4 5875   4.718   6.657   4.754  0.4655  0.4098 -0.3110
   14CHTO   C14 5876   4.808   6.721   4.662 -0.0806 -0.5536  0.8045
   14CHTO   H27 5877   4.890   6.653   4.631 -0.3472 -0.7466  0.5091
   14CHTO   C18 5878   4.874   6.849   4.716 -0.2114 -0.5221 -0.1588
   14CHTO   O13 5879   4.947   6.810   4.835  0.1715 -0.0219  0.1565
   14CHTO    H7 5880   5.015   6.866   4.866  0.1954 -0.0633  0.1786
   14CHTO    O2 5881   4.537   6.824   4.850 -0.0956  0.2058 -0.1388
   14CHTO    C1 5882   4.498   6.779   4.980 -0.4335 -0.3878  0.2400
   14CHTO   H14 5883   4.494   6.669   4.992 -1.0465 -0.3417  0.4856
   14CHTO    C2 5884   4.348   6.833   5.010  0.4137 -0.7832 -0.4650
   14CHTO   H15 5885   4.349   6.941   4.988 -2.0371 -0.5853  0.3036
   14CHTO    O6 5886   4.268   6.759   4.914 -0.2749  0.3488  0.4526
   14CHTO    H1 5887   4.187   6.804   4.905 -0.1592  0.5179  0.2552
   14CHTO    C3 5888   4.327   6.804   5.164 -0.0706 -0.2551  0.0733
   14CHTO   H16 5889   4.325   6.696   5.187 -1.0906 -0.0385  1.0717
   14CHTO    N1 5890   4.189   6.857   5.203  0.5524  0.0037 -0.2275
   14CHTO    H8 5891   4.184   6.965   5.194 -0.5388 -0.1531 -1.6104
   14CHTO    H9 5892   4.120   6.805   5.139  0.3115  1.2296 -0.9701
   14CHTO    C4 5893   4.440   6.868   5.254 -0.5823  0.1773  0.4253
   14CHTO   H17 5894   4.441   6.975   5.239 -1.3512  0.1772  0.3359
   14CHTO    O1 5895   4.565   6.810   5.216  0.5314 -0.2192  0.1344
   14CHTO    C5 5896   4.603   6.835   5.080 -0.0863  0.4406  0.0795
   14CHTO   H18 5897   4.608   6.940   5.050 -1.0437  0.6121  0.5036
   14CHTO   C16 5898   4.741   6.778   5.067  0.5457 -0.4132  0.6334
   14CHTO   O11 5899   4.734   6.638   5.073  0.6384  0.4508 -0.0670
   14CHTO    H5 5900   4.699   6.604   4.993  0.8349  0.3734 -0.1210
   14CHTO    O3 5901   4.417   6.852   5.393 -0.0080  0.9705  1.0165
   14CHTO    C6 5902   4.529   6.831   5.484  0.8530 -0.2274  1.1463
   14CHTO   H19 5903   4.616   6.778   5.446  0.0516 -0.4225 -0.4351
   14CHTO    C8 5904   4.586   6.969   5.541  0.1621  0.0858 -0.4191
   14CHTO   H21 5905   4.501   7.029   5.573 -1.4923 -3.1063  1.4800
   14CHTO    O7 5906   4.650   7.035   5.428 -0.1117 -0.3260  0.1157
   14CHTO    H2 5907   4.623   7.001   5.345 -0.4115 -0.0895  0.1141
   14CHTO   C12 5908   4.686   6.942   5.660 -0.1442  0.1758 -0.2849
   14CHTO   H25 5909   4.780   6.908   5.611 -0.2277 -2.2198  1.1224
   14CHTO    N3 5910   4.717   7.067   5.728 -0.1204  0.4268  0.6626
   14CHTO   H12 5911   4.776   7.125   5.659  1.2762 -2.4814 -0.6502
   14CHTO   H13 5912   4.770   7.052   5.821  2.5821  0.9935 -0.7332
   14CHTO   C15 5913   4.635   6.835   5.758 -0.4966  0.1530  0.3077
   14CHTO   H28 5914   4.546   6.868   5.812 -0.6915 -0.0330  0.1039
   14CHTO   O10 5915   4.753   6.785   5.858  0.5742  0.3763  0.0139
   14CHTO    H4 5916   4.831   6.831   5.834  1.1209 -0.1265  0.7832
   14CHTO    O5 5917   4.588   6.718   5.686 -0.5001  0.3841  0.1671
   14CHTO   C10 5918   4.480   6.743   5.605 -0.3065 -0.3803  0.4924
   14CHTO   H23 5919   4.404   6.785   5.670 -0.7767 -1.0923  0.4092
   14CHTO   C17 5920   4.418   6.612   5.557  0.5977 -0.5984  0.1667
   14CHTO   O12 5921   4.342   6.536   5.654  0.9127  0.3646  0.2858
   14CHTO    H6 5922   4.327   6.451   5.617 -0.0238  0.4175  0.5350
   15CHTO  H203 5923   5.577   5.645   4.013  1.8544  0.9442  0.7262
   15CHTO   O82 5924   5.600   5.558   4.041  0.0218  0.1003 -0.3608
   15CHTO  C123 5925   5.483   5.481   4.034  0.6892  0.0934  0.0352
   15CHTO  H227 5926   5.397   5.547   4.051 -0.4521 -1.1293 -0.9115
   15CHTO   O77 5927   5.500   5.440   3.888  0.3216 -0.6106 -0.4835
   15CHTO  C118 5928   5.406   5.344   3.843  0.1952  0.1785 -0.5588
   15CHTO  H222 5929   5.308   5.389   3.864  1.0467  1.7608  0.1463
   15CHTO  C125 5930   5.428   5.310   3.685  0.0227 -0.5312  0.0841
   15CHTO   O84 5931   5.382   5.427   3.608  0.8871  0.1140  0.3486
   15CHTO  H205 5932   5.432   5.429   3.529  0.3288  1.3372  0.0136
   15CHTO  C114 5933   5.416   5.212   3.926 -0.1151  0.1567  0.4148
   15CHTO  H218 5934   5.514   5.167   3.915 -1.0686 -1.7678 -0.4857
   15CHTO  C116 5935   5.392   5.248   4.081 -0.6001  0.0195  0.1505
   15CHTO  H220 5936   5.287   5.281   4.095 -0.7704 -0.1334 -0.7781
   15CHTO   O79 5937   5.413   5.119   4.149 -0.2876 -0.3278 -0.4209
   15CHTO  H201 5938   5.503   5.094   4.148  0.5613  2.5694 -0.6289
   15CHTO  C120 5939   5.493   5.358   4.126 -0.0736  0.0641  0.1558
   15CHTO  H224 5940   5.593   5.313   4.141  0.1765  1.5362  3.2219
   15CHTO   N21 5941   5.461   5.388   4.265 -0.9021  0.1360  0.6727
   15CHTO  H211 5942   5.427   5.299   4.317 -3.7763  2.1929  2.5177
   15CHTO  H212 5943   5.391   5.470   4.255 -0.8924  0.1278  0.5528
   15CHTO   O75 5944   5.320   5.113   3.872 -0.5146 -0.2660 -0.6918
   15CHTO  C112 5945   5.389   4.967   3.886 -0.4309 -0.8936  0.8970
   15CHTO  H216 5946   5.464   4.978   3.965  0.5544  1.7707 -0.3547
   15CHTO   O73 5947   5.445   4.928   3.763  0.0491  0.4706  0.1184
   15CHTO  C113 5948   5.554   4.839   3.777 -0.6908 -0.5356 -0.0965
   15CHTO  H217 5949   5.631   4.889   3.840 -1.4653  0.6679 -0.0965
   15CHTO  C124 5950   5.618   4.815   3.646  0.3534  0.1052  0.4090
   15CHTO   O83 5951   5.700   4.928   3.597  0.5986  0.4546  0.0590
   15CHTO  H204 5952   5.745   4.907   3.518  2.5100  2.2289  0.6412
   15CHTO  C109 5953   5.495   4.709   3.840  1.3847 -0.3847 -0.1418
   15CHTO  H213 5954   5.424   4.668   3.767  1.4000 -3.0811  1.3203
   15CHTO  C110 5955   5.411   4.732   3.967 -0.7750 -0.2020  0.1547
   15CHTO  H214 5956   5.487   4.765   4.037 -0.5225 -1.0926  0.3037
   15CHTO   O78 5957   5.345   4.614   4.011 -0.1966 -0.7374  0.5386
   15CHTO  H200 5958   5.333   4.548   3.946  0.7055 -0.3085 -0.0717
   15CHTO  C111 5959   5.309   4.849   3.942 -0.0056  0.0971 -0.0142
   15CHTO  H215 5960   5.247   4.827   3.854  1.1852  0.4599 -0.9585
   15CHTO   N19 5961   5.215   4.879   4.051  0.4090  0.0402 -0.5913
   15CHTO  H207 5962   5.259   4.834   4.138 -0.3638  0.9884  0.2952
   15CHTO  H208 5963   5.112   4.861   4.022  0.1050  1.5091 -0.4801
   15CHTO   O74 5964   5.613   4.619   3.851 -0.5534 -0.2344  0.4026
   15CHTO  C115 5965   5.568   4.472   3.821  0.3708  0.5206  0.4761
   15CHTO  H219 5966   5.462   4.457   3.846  0.1004  0.9681 -0.3902
   15CHTO   O76 5967   5.580   4.441   3.670  0.2262 -0.4769 -0.2279
   15CHTO  C122 5968   5.716   4.402   3.635  0.5666  0.2364  0.3335
   15CHTO  H226 5969   5.783   4.483   3.663 -1.3077  2.6208 -1.7903
   15CHTO  C126 5970   5.730   4.391   3.480  1.0276  0.2984 -0.4084
   15CHTO   O85 5971   5.861   4.341   3.450  0.1326  0.0377  0.4583
   15CHTO  H206 5972   5.918   4.416   3.447 -0.1073  0.2137  0.2825
   15CHTO  C121 5973   5.759   4.268   3.709 -0.1705 -0.4478  0.4978
   15CHTO  H225 5974   5.746   4.177   3.646 -0.4420 -1.1918  1.6237
   15CHTO   O81 5975   5.897   4.281   3.748  0.4383 -0.1109 -0.4403
   15CHTO  H202 5976   5.929   4.215   3.806  0.2036 -0.0056 -0.1889
   15CHTO  C119 5977   5.683   4.243   3.841  0.0622 -0.3322 -0.1764
   15CHTO  H223 5978   5.589   4.196   3.813 -0.1748  0.8209 -1.3723
   15CHTO  C117 5979   5.658   4.379   3.909 -1.2413 -0.3250 -0.4493
   15CHTO  H221 5980   5.750   4.431   3.935 -1.3520 -1.5075  2.4125
   15CHTO   N20 5981   5.598   4.364   4.043  0.4482 -0.3595 -0.1740
   15CHTO  H209 5982   5.510   4.302   4.045  0.3926 -0.2603  0.3481
   15CHTO  H210 5983   5.577   4.460   4.088 -0.7787  0.4082 -2.3008
   15CHTO   O80 5984   5.752   4.124   3.940 -0.3708  0.1969  0.2680
   15CHTO  C103 5985   5.663   3.979   3.975 -0.6667  0.5789 -0.1131
   15CHTO  H190 5986   5.721   3.924   4.049  0.9603 -2.9270 -3.7704
   15CHTO  C101 5987   5.510   3.995   4.020 -0.7954 -0.0074 -0.0381
   15CHTO  H188 5988   5.474   4.077   3.958  0.3490  1.0551  0.6842
   15CHTO   O68 5989   5.517   4.044   4.158 -0.0376  0.2633 -0.5277
   15CHTO  H168 5990   5.582   4.112   4.162  0.6158 -0.4530  1.6252
   15CHTO   C99 5991   5.418   3.874   3.997  0.4106 -0.2741  0.2588
   15CHTO  H186 5992   5.454   3.791   4.061  1.5066  0.3951  0.5160
   15CHTO   N17 5993   5.271   3.888   4.033  0.6296 -0.0308 -0.5085
   15CHTO  H174 5994   5.236   3.957   3.959 -0.1003  0.4882  0.3064
   15CHTO  H175 5995   5.236   3.786   4.029 -0.1399  0.2345 -0.6033
   15CHTO   C97 5996   5.447   3.818   3.850 -0.8957 -0.5220  0.7035
   15CHTO  H184 5997   5.431   3.907   3.788  1.1763  0.1804  1.1216
   15CHTO   O64 5998   5.581   3.782   3.844 -0.2050  0.2635 -0.4812
   15CHTO  C104 5999   5.673   3.894   3.840  0.0636  0.7713 -0.8650
   15CHTO  H191 6000   5.650   3.955   3.752 -2.7170  0.6601 -0.2686
   15CHTO  C108 6001   5.815   3.839   3.819  0.6212 -0.8258 -0.4739
   15CHTO   O71 6002   5.912   3.937   3.796  0.1371 -0.4041 -0.4626
   15CHTO  H171 6003   5.961   3.911   3.720 -1.3324  0.3479 -1.7178
   15CHTO   O62 6004   5.385   3.697   3.805 -0.0312  0.5158  0.2636
   15CHTO   C91 6005   5.265   3.718   3.724 -0.2595 -0.7173 -0.6765
   15CHTO  H178 6006   5.239   3.824   3.728  0.6418 -0.3681 -2.9999
   15CHTO   C92 6007   5.138   3.640   3.781 -0.4371 -0.0462  0.2610
   15CHTO  H179 6008   5.124   3.659   3.889 -0.3119  0.7717  0.1380
   15CHTO   O66 6009   5.021   3.710   3.736  0.0179 -0.0783 -0.0932
   15CHTO  H166 6010   4.947   3.662   3.768 -1.5297  2.5237  0.3873
   15CHTO   C93 6011   5.128   3.490   3.732  0.9472 -0.0855 -0.0484
   15CHTO  H180 6012   5.033   3.446   3.767  1.9623 -1.9128  0.4233
   15CHTO   N16 6013   5.224   3.405   3.797 -0.2748  0.5657  0.8414
   15CHTO  H172 6014   5.218   3.304   3.760 -1.1693  0.7003  0.6214
   15CHTO  H173 6015   5.323   3.448   3.783 -0.7270  1.1203 -0.7923
   15CHTO   C94 6016   5.129   3.493   3.576 -0.0805  0.0855  0.5324
   15CHTO  H181 6017   5.201   3.420   3.538  0.0768 -1.1977  3.1613
   15CHTO   O61 6018   5.172   3.619   3.515  0.1315  0.6868  0.2095
   15CHTO   C95 6019   5.294   3.668   3.574 -0.4123  0.2634  0.4532
   15CHTO  H182 6020   5.366   3.586   3.576 -0.1975  0.2554 -3.4485
   15CHTO  C106 6021   5.354   3.781   3.478  0.1027 -0.3646  0.0238
   15CHTO   O69 6022   5.473   3.832   3.524  0.2078 -0.6483  0.0446
   15CHTO  H169 6023   5.469   3.890   3.597  2.0467 -0.5615  0.1028
   15CHTO   O63 6024   4.984   3.458   3.526  0.2892 -0.3698  0.3602
   15CHTO   C96 6025   4.979   3.428   3.373 -0.7978  0.1574  0.0772
   15CHTO  H183 6026   5.077   3.457   3.336  0.0387 -0.6505  1.6187
   15CHTO   C98 6027   4.877   3.519   3.306  0.2755 -0.3732  0.3850
   15CHTO  H185 6028   4.784   3.518   3.366 -0.1426  0.6983 -0.2326
   15CHTO   O67 6029   4.920   3.654   3.303 -0.1678 -0.4008 -0.2326
   15CHTO  H167 6030   4.881   3.701   3.374  2.1261  0.0923  0.7567
   15CHTO  C102 6031   4.856   3.463   3.159  0.2645 -0.3263 -0.4916
   15CHTO  H189 6032   4.935   3.509   3.099 -0.6372 -2.6554 -3.5527
   15CHTO   N18 6033   4.724   3.521   3.106  0.4675  0.2437 -0.5252
   15CHTO  H176 6034   4.741   3.626   3.087 -2.8038  0.4763 -2.4085
   15CHTO  H177 6035   4.685   3.466   3.022  0.8833 -2.0124  0.7186
   15CHTO  C105 6036   4.859   3.306   3.146  0.0095  0.1655 -0.6726
   15CHTO  H192 6037   4.772   3.255   3.187  0.5417 -0.3244 -0.1317
   15CHTO   O65 6038   4.962   3.232   3.210 -0.1306  0.2051  0.1953
   15CHTO  C100 6039   4.960   3.267   3.350 -0.1249  0.3957 -0.1289
   15CHTO  H187 6040   4.867   3.222   3.388  0.2412  1.4931  2.1933
   15CHTO  C107 6041   5.079   3.182   3.405 -0.3944  0.2679 -0.2852
   15CHTO   O70 6042   5.050   3.042   3.405  0.3168  0.0697  0.4107
   15CHTO  H170 6043   4.986   3.027   3.472 -0.3305  0.6703 -0.0643
   15CHTO   O57 6044   4.865   3.269   2.997 -0.2748  0.0133 -0.0506
   15CHTO   C85 6045   4.784   3.168   2.939 -0.3638  0.0216  0.2589
   15CHTO  H157 6046   4.696   3.176   3.007 -0.1027  0.7690  0.5025
   15CHTO   C83 6047   4.850   3.026   2.965 -0.1089 -0.3828 -0.6066
   15CHTO  H155 6048   4.854   3.012   3.073  0.1938  0.2972 -0.5298
   15CHTO   O56 6049   4.982   3.031   2.914 -0.1571  0.5665  0.5434
   15CHTO  H135 6050   5.022   3.113   2.935  0.8261  0.2034  0.1057
   15CHTO   C81 6051   4.762   2.909   2.900 -0.6226  0.3651  0.3700
   15CHTO  H153 6052   4.664   2.910   2.948 -0.9583 -2.3171 -0.2254
   15CHTO   N14 6053   4.812   2.781   2.937 -0.2622 -0.1697 -0.8104
   15CHTO  H141 6054   4.911   2.773   2.899 -0.6039 -1.1801 -1.5020
   15CHTO  H142 6055   4.752   2.703   2.895  0.6940 -1.7440  0.6792
   15CHTO   C79 6056   4.745   2.931   2.750 -0.1756 -0.1130  0.2089
   15CHTO  H151 6057   4.680   2.854   2.708 -0.8116  0.0258  0.9313
   15CHTO   O52 6058   4.692   3.062   2.720  0.0506  0.1565 -0.4916
   15CHTO   C86 6059   4.737   3.181   2.795 -0.1211  0.2332 -0.2166
   15CHTO  H158 6060   4.821   3.219   2.734 -0.1168  0.3725 -0.1273
   15CHTO   C90 6061   4.635   3.299   2.790 -0.4768  0.5363  0.3447
   15CHTO   O60 6062   4.648   3.368   2.665 -0.0413 -0.6658 -0.3433
   15CHTO  H138 6063   4.607   3.453   2.668  1.2714 -0.0735  2.5624
   15CHTO   O50 6064   4.867   2.911   2.679 -0.5970 -0.3524  0.3155
   15CHTO   C73 6065   4.867   2.912   2.533 -0.6188 -0.3192  0.3889
   15CHTO  H145 6066   4.776   2.958   2.493 -1.5799 -0.6671  2.1610
   15CHTO   C74 6067   4.869   2.769   2.478  0.1052 -0.0115  0.3529
   15CHTO  H146 6068   4.783   2.711   2.515 -0.0040 -0.0068  0.1071
   15CHTO   O54 6069   4.851   2.784   2.338 -0.3121 -0.2279 -0.1850
   15CHTO  H133 6070   4.828   2.699   2.306  2.2163 -0.3352 -1.8710
   15CHTO   C75 6071   5.007   2.707   2.522  0.0366 -0.4031 -0.4150
   15CHTO  H147 6072   5.005   2.696   2.632  1.6494  0.9079 -0.2472
   15CHTO   N13 6073   5.036   2.567   2.481 -0.1846 -0.0463  0.0466
   15CHTO  H139 6074   5.127   2.538   2.531  0.6858  0.8001 -1.0482
   15CHTO  H140 6075   4.952   2.509   2.517 -0.3437  0.2077  0.0875
   15CHTO   C76 6076   5.126   2.804   2.467  0.3571  0.3467  0.3838
   15CHTO  H148 6077   5.130   2.805   2.358  2.6338  2.9155  0.4264
   15CHTO   O49 6078   5.114   2.937   2.514  0.8502 -0.2292  0.0915
   15CHTO   C77 6079   4.985   2.993   2.464  0.3769  0.3341  0.1738
   15CHTO  H149 6080   4.970   2.993   2.356  0.1485 -3.1452  0.1611
   15CHTO   C88 6081   4.989   3.136   2.507 -0.2364 -0.5360  0.1637
   15CHTO   O58 6082   4.851   3.223   2.456 -0.0398  0.3733 -0.5504
   15CHTO  H136 6083   4.877   3.284   2.389 -0.4814  1.5375  0.3123
   15CHTO   O51 6084   5.289   2.760   2.533 -0.1996 -0.1879  0.1859
   15CHTO   C78 6085   5.391   2.777   2.413  0.1288 -0.2797  0.6102
   15CHTO  H150 6086   5.343   2.821   2.324  1.5474 -1.1168 -0.5852
   15CHTO   C80 6087   5.448   2.641   2.367  0.2574 -0.4511 -0.6675
   15CHTO  H152 6088   5.492   2.587   2.453 -1.8195 -0.3394  0.4836
   15CHTO   O55 6089   5.340   2.559   2.329 -0.7891 -0.1508  0.0396
   15CHTO  H134 6090   5.351   2.469   2.354  0.6699  0.3340  1.2108
   15CHTO   C84 6091   5.562   2.659   2.247 -0.4555 -0.5287  0.0210
   15CHTO  H156 6092   5.509   2.715   2.169  0.8319 -0.6038 -0.9196
   15CHTO   N15 6093   5.619   2.527   2.201 -0.4947 -0.3849 -0.3522
   15CHTO  H143 6094   5.567   2.486   2.117 -1.7866  0.6885 -0.0791
   15CHTO  H144 6095   5.723   2.536   2.179 -0.2279  0.7486  1.2888
   15CHTO   C87 6096   5.668   2.765   2.295 -0.9608 -0.4497 -0.0562
   15CHTO  H159 6097   5.728   2.707   2.365 -0.1473 -1.0205 -1.2021
   15CHTO   O53 6098   5.589   2.895   2.340  0.2189  0.0145 -0.4825
   15CHTO   C82 6099   5.504   2.870   2.452  0.1634  0.5817  0.1235
   15CHTO  H154 6100   5.554   2.831   2.541 -0.2164  0.6359  0.3608
   15CHTO   C89 6101   5.448   3.013   2.489  0.6636 -0.2560 -0.2141
   15CHTO   O59 6102   5.387   3.019   2.619 -0.3509 -0.1024 -0.0115
   15CHTO  H137 6103   5.353   3.104   2.639  1.0916  0.1910  1.3976
   15CHTO   O45 6104   5.767   2.809   2.194 -0.1096 -0.6872  0.2088
   15CHTO   C67 6105   5.876   2.886   2.249  0.3332 -0.3294 -0.3191
   15CHTO  H124 6106   5.847   2.913   2.351  0.6411 -1.6348  0.1264
   15CHTO   C65 6107   6.009   2.802   2.257 -0.2538  0.1463 -0.1680
   15CHTO  H122 6108   6.001   2.715   2.193  0.6391 -0.4115  0.4758
   15CHTO   O44 6109   6.009   2.755   2.391 -0.0029 -0.3591 -0.2695
   15CHTO  H102 6110   6.090   2.709   2.403  0.6310  0.7553 -0.1472
   15CHTO   C63 6111   6.142   2.877   2.205  0.3208 -0.1014 -0.7812
   15CHTO  H120 6112   6.145   2.885   2.096 -0.0779 -0.2477 -0.8034
   15CHTO   N11 6113   6.271   2.810   2.238  0.3573  0.3135 -0.6542
   15CHTO  H108 6114   6.289   2.724   2.176  0.9148 -0.0041 -0.0581
   15CHTO  H109 6115   6.274   2.788   2.343  1.5404  2.6752 -0.1708
   15CHTO   C61 6116   6.137   3.024   2.268  0.2496  0.4556  0.2703
   15CHTO  H118 6117   6.221   3.086   2.232  0.8338  0.0518  0.9225
   15CHTO   O40 6118   6.019   3.087   2.221  0.0411 -0.2380 -0.2319
   15CHTO   C68 6119   5.908   3.019   2.163  0.2132  0.1674  0.1016
   15CHTO  H125 6120   5.932   2.997   2.057 -0.9291  1.4328 -0.4406
   15CHTO   C72 6121   5.791   3.115   2.153  0.3687 -0.4531  0.0893
   15CHTO   O48 6122   5.684   3.054   2.079  0.1957  0.0456 -0.3067
   15CHTO  H105 6123   5.636   2.991   2.130 -1.1585  0.9070 -0.4955
   15CHTO   O38 6124   6.139   3.029   2.409  0.0854 -0.0647 -0.3760
   15CHTO   C55 6125   6.135   3.164   2.470  0.1309 -0.2545 -0.6654
   15CHTO  H112 6126   6.082   3.243   2.416  0.3197  0.1272 -0.2991
   15CHTO   C56 6127   6.285   3.210   2.519 -0.0159  0.0547  0.9006
   15CHTO  H113 6128   6.341   3.142   2.584  0.6670 -0.5744 -0.3321
   15CHTO   O42 6129   6.366   3.220   2.399  0.1346  0.5479  0.1041
   15CHTO  H100 6130   6.439   3.162   2.398 -0.1528  0.1935 -0.2033
   15CHTO   C57 6131   6.280   3.353   2.586  0.5237  0.2227 -0.5258
   15CHTO  H114 6132   6.241   3.418   2.507 -3.2594 -1.3330 -0.0588
   15CHTO   N10 6133   6.415   3.387   2.645 -0.6545 -0.8676 -0.5315
   15CHTO  H106 6134   6.409   3.459   2.725 -0.1933 -1.9239  0.4765
   15CHTO  H107 6135   6.474   3.426   2.563  0.2467  0.3003  0.6699
   15CHTO   C58 6136   6.167   3.351   2.699  0.1163  0.2349 -0.2887
   15CHTO  H115 6137   6.206   3.289   2.783  0.8899 -0.8102 -1.4049
   15CHTO   O37 6138   6.038   3.294   2.656  0.2063  0.3264 -0.1251
   15CHTO   C59 6139   6.049   3.160   2.597  0.2986 -0.3345  0.1217
   15CHTO  H116 6140   6.091   3.091   2.670  1.4483 -1.4503 -1.5457
   15CHTO   C70 6141   5.910   3.116   2.553  0.0983  0.2461 -0.1973
   15CHTO   O46 6142   5.830   3.099   2.666 -0.2010 -0.5321  0.2321
   15CHTO  H103 6143   5.745   3.088   2.628  0.9619 -0.9242 -2.3661
   15CHTO   O39 6144   6.126   3.514   2.750 -0.8037 -0.9858  0.2679
   15CHTO   C60 6145   6.080   3.520   2.887 -1.0599 -0.5515  0.6427
   15CHTO  H117 6146   6.027   3.430   2.919 -1.6400 -0.4205  0.0690
   15CHTO   C62 6147   6.193   3.529   2.994  0.0088  0.1002  0.3049
   15CHTO  H119 6148   6.257   3.439   2.989 -0.5683 -0.2513 -1.1276
   15CHTO   O43 6149   6.277   3.637   2.960 -0.0424 -0.0245  1.0143
   15CHTO  H101 6150   6.298   3.646   2.869 -0.9984 -1.9491  0.5859
   15CHTO   C66 6151   6.126   3.535   3.146 -0.1369  0.4858 -0.7546
   15CHTO  H123 6152   6.064   3.446   3.159  2.6216 -1.5040 -0.8238
   15CHTO   N12 6153   6.231   3.537   3.254  0.1079 -0.4447  0.4947
   15CHTO  H110 6154   6.298   3.454   3.238 -0.2794 -0.6121 -0.2962
   15CHTO  H111 6155   6.285   3.630   3.251  0.8231 -0.8918 -0.7504
   15CHTO   C69 6156   6.037   3.657   3.153  0.1430 -0.1305 -0.1210
   15CHTO  H126 6157   6.108   3.742   3.148  1.2044 -1.0677 -1.2575
   15CHTO   O41 6158   5.940   3.659   3.053 -0.0804  0.0726  0.4385
   15CHTO   C64 6159   5.981   3.643   2.901  0.6894 -0.6274  0.0307
   15CHTO  H121 6160   6.035   3.731   2.861  1.7278 -1.2418  0.0773
   15CHTO   C71 6161   5.857   3.624   2.815  0.9996  0.5215  0.2852
   15CHTO   O47 6162   5.745   3.720   2.839 -0.9602  0.3190  0.0154
   15CHTO  H104 6163   5.767   3.804   2.802 -2.0763  0.7175  0.2123
   15CHTO   O34 6164   5.962   3.652   3.299  0.4181  0.2541  0.0942
   15CHTO   C49 6165   5.898   3.717   3.393 -0.1111 -1.0704  0.0793
   15CHTO   H91 6166   5.976   3.766   3.452 -1.1457 -0.0200  0.5960
   15CHTO   C47 6167   5.837   3.615   3.488  0.6812  0.1332 -0.5053
   15CHTO   H89 6168   5.792   3.674   3.572 -0.6213  0.9679 -1.7618
   15CHTO   O33 6169   5.940   3.535   3.546 -0.2288  0.4791 -0.4174
   15CHTO   H70 6170   5.943   3.538   3.639  3.0479  0.6148 -0.4556
   15CHTO   C45 6171   5.717   3.528   3.417 -0.8367  0.1704  0.8384
   15CHTO   H87 6172   5.762   3.438   3.372  2.3106  2.4613 -0.7816
   15CHTO    N8 6173   5.619   3.484   3.525 -0.0384  0.3313  0.1198
   15CHTO   H75 6174   5.685   3.441   3.600 -0.5366 -0.5274  0.0730
   15CHTO   H76 6175   5.540   3.416   3.496  0.5154 -0.2967  0.0695
   15CHTO   C43 6176   5.655   3.615   3.299 -0.0466  0.0801  0.1650
   15CHTO   H85 6177   5.724   3.601   3.216  2.2838 -1.4813  2.2911
   15CHTO   O29 6178   5.646   3.749   3.342 -0.7802 -0.0226 -0.2751
   15CHTO   C50 6179   5.782   3.815   3.351  0.1935  0.3084  0.4723
   15CHTO   H92 6180   5.803   3.869   3.257  1.1780  1.9377  1.5949
   15CHTO   C54 6181   5.771   3.936   3.451  0.2945 -0.9293 -0.1056
   15CHTO   O36 6182   5.908   3.991   3.465  0.3002 -0.0940 -0.2253
   15CHTO   H72 6183   5.900   4.076   3.504 -1.6885 -0.2499 -0.2219
   15CHTO   O27 6184   5.529   3.563   3.250 -0.2905 -0.3637  0.0253
   15CHTO   C37 6185   5.474   3.487   3.141  0.0296 -0.3534  0.2141
   15CHTO   H79 6186   5.524   3.492   3.043 -1.8716  1.7473 -0.7062
   15CHTO   C38 6187   5.461   3.337   3.187  0.2200  0.3692  0.2789
   15CHTO   H80 6188   5.414   3.338   3.287 -0.7886 -1.3796 -0.1506
   15CHTO   O31 6189   5.587   3.281   3.199  0.4342  0.2523 -0.1054
   15CHTO   H68 6190   5.640   3.335   3.255  1.9084 -0.5665 -0.6756
   15CHTO   C39 6191   5.373   3.244   3.094  0.4197  0.4099  0.5709
   15CHTO   H81 6192   5.437   3.226   3.008  0.5003  0.6311  0.5828
   15CHTO    N7 6193   5.335   3.111   3.157  0.9287 -0.5247 -0.5257
   15CHTO   H73 6194   5.418   3.053   3.195  0.2147 -0.8096  0.5917
   15CHTO   H74 6195   5.267   3.119   3.240 -1.3290 -1.3758 -2.2234
   15CHTO   C40 6196   5.245   3.319   3.038 -0.4493 -0.3872 -0.3663
   15CHTO   H82 6197   5.167   3.298   3.112  1.0291  1.1522  1.6639
   15CHTO   O26 6198   5.261   3.463   3.021 -0.0744  0.0088 -0.2404
   15CHTO   C41 6199   5.327   3.540   3.120  0.0134  0.2891  0.0607
   15CHTO   H83 6200   5.274   3.530   3.215  0.8202 -1.7637  0.3199
   15CHTO   C52 6201   5.330   3.690   3.067  0.3278  0.0951  1.0563
   15CHTO   O35 6202   5.344   3.801   3.155 -0.0401 -0.5187  0.2246
   15CHTO   H71 6203   5.426   3.801   3.200  0.9809  1.9199 -1.5225
   15CHTO   O28 6204   5.203   3.266   2.910 -0.2774  0.0286 -0.3717
   15CHTO   C42 6205   5.221   3.312   2.768 -0.5233 -0.0479 -0.2100
   15CHTO   H84 6206   5.186   3.232   2.703  0.4929 -0.4531 -0.2646
   15CHTO   C44 6207   5.372   3.348   2.729  0.1770 -0.0378 -0.0168
   15CHTO   H86 6208   5.404   3.426   2.798 -2.4124 -0.0116  1.1919
   15CHTO   O32 6209   5.453   3.237   2.771 -0.1056  0.1630 -0.4608
   15CHTO   H69 6210   5.413   3.178   2.832  1.3044  0.4047  0.7504
   15CHTO   C48 6211   5.392   3.372   2.576 -0.4641  0.1730  0.3789
   15CHTO   H90 6212   5.371   3.276   2.529  0.2123  0.3267 -0.2491
   15CHTO    N9 6213   5.529   3.403   2.535  0.2407 -0.3677 -0.2588
   15CHTO   H77 6214   5.560   3.504   2.554  2.0174 -1.1687  1.3061
   15CHTO   H78 6215   5.544   3.358   2.438 -2.6709  0.8881 -1.3212
   15CHTO   C51 6216   5.282   3.477   2.524  0.0060 -0.2145  0.2684
   15CHTO   H93 6217   5.318   3.578   2.547 -0.9216  0.2582 -0.3399
   15CHTO   O30 6218   5.150   3.447   2.583 -0.3381  0.4194  0.5948
   15CHTO   C46 6219   5.145   3.439   2.719 -0.2490 -0.0457  0.2092
   15CHTO   H88 6220   5.194   3.528   2.759 -1.7976  0.7899  0.2918
   15CHTO   C53 6221   4.998   3.452   2.772  0.9780  0.8073  0.1919
   15CHTO   O72 6222   4.960   3.583   2.807 -0.4994 -0.0118  0.4444
   15CHTO  H199 6223   4.975   3.656   2.749 -0.8851  1.5138  2.2063
   15CHTO   O22 6224   5.264   3.469   2.381  0.1200 -0.2076 -0.4004
   15CHTO   C31 6225   5.196   3.593   2.314  0.1117  0.4825 -0.3666
   15CHTO   H59 6226   5.171   3.557   2.212  2.0864  1.3792 -1.1744
   15CHTO   C29 6227   5.062   3.644   2.378 -0.7170  0.1837 -0.1414
   15CHTO   H57 6228   5.085   3.658   2.485  0.2399  1.1046 -0.4488
   15CHTO   O21 6229   4.965   3.538   2.359  0.3952  0.4063 -0.0329
   15CHTO   H37 6230   4.936   3.530   2.270 -0.5828  2.1501  0.1110
   15CHTO   C27 6231   5.015   3.783   2.311 -0.0619  0.6742  0.1958
   15CHTO   H55 6232   5.003   3.768   2.203  0.0451  1.3681  0.0909
   15CHTO    N5 6233   4.885   3.830   2.367 -0.8124 -0.4414  0.0092
   15CHTO   H43 6234   4.892   3.853   2.472  0.8281 -1.6624  0.1929
   15CHTO   H44 6235   4.838   3.901   2.300  0.6577 -0.4851 -1.1166
   15CHTO   C25 6236   5.134   3.886   2.320  0.4683  0.3752 -0.4313
   15CHTO   H53 6237   5.152   3.908   2.426  0.0203 -1.2640  0.0006
   15CHTO   O17 6238   5.249   3.831   2.249  0.5667 -0.3348 -0.2762
   15CHTO   C32 6239   5.300   3.706   2.295  0.0291 -0.2536 -0.8383
   15CHTO   H60 6240   5.363   3.716   2.384  1.2698 -1.8878 -1.5199
   15CHTO   C36 6241   5.395   3.676   2.180 -0.1224 -0.6413  0.4765
   15CHTO   O25 6242   5.453   3.546   2.185 -0.4219 -0.4860 -0.2814
   15CHTO   H40 6243   5.530   3.547   2.131 -0.5557 -0.6639 -0.4741
   15CHTO   O15 6244   5.107   4.015   2.240  0.4122  0.2668 -0.1860
   15CHTO   C19 6245   5.159   4.143   2.284 -0.0059  0.1108 -0.2790
   15CHTO   H47 6246   5.133   4.198   2.192 -1.7279  0.4072  0.3669
   15CHTO   C20 6247   5.082   4.198   2.406  0.5305  0.0131 -0.0941
   15CHTO   H48 6248   5.095   4.130   2.492 -2.0868 -1.3394 -0.7016
   15CHTO   O19 6249   4.945   4.222   2.365 -0.1648  0.2747 -0.2772
   15CHTO   H35 6250   4.903   4.141   2.348  1.5370 -0.8907  0.8943
   15CHTO   C21 6251   5.153   4.330   2.453 -1.1198 -0.1231 -0.0693
   15CHTO   H49 6252   5.158   4.397   2.367 -1.6993 -0.6851 -0.5421
   15CHTO    N4 6253   5.076   4.396   2.565  0.0627  0.5959  0.2206
   15CHTO   H41 6254   4.985   4.440   2.525  0.3386  0.1166 -0.9450
   15CHTO   H42 6255   5.141   4.468   2.611  0.5846  0.4705 -0.3252
   15CHTO   C22 6256   5.302   4.301   2.489 -0.6605  0.0702  0.0303
   15CHTO   H50 6257   5.311   4.216   2.557 -1.3186  0.0669  0.1186
   15CHTO   O14 6258   5.373   4.266   2.364 -0.1316 -0.3898 -0.2660
   15CHTO   C23 6259   5.316   4.154   2.301  0.6849  0.5823 -0.3754
   15CHTO   H51 6260   5.356   4.066   2.354  0.1065  0.3269 -0.3700
   15CHTO   C34 6261   5.378   4.146   2.163 -0.5936 -0.2018  0.1085
   15CHTO   O23 6262   5.508   4.089   2.168  0.0538 -0.2037 -0.5558
   15CHTO   H38 6263   5.520   4.018   2.228 -0.9236  0.8934  0.9757
   15CHTO   O16 6264   5.371   4.419   2.546 -0.2260  0.1233  0.1737
   15CHTO   C24 6265   5.489   4.388   2.656 -0.9006  0.2959  0.8437
   15CHTO   H52 6266   5.489   4.283   2.687 -2.8959  0.0740  0.1565
   15CHTO   C26 6267   5.451   4.472   2.780  0.1596 -0.7946 -0.1957
   15CHTO   H54 6268   5.449   4.580   2.755 -0.7162 -0.3623  1.6650
   15CHTO   O20 6269   5.327   4.425   2.825  0.4784 -0.4938 -0.6739
   15CHTO   H36 6270   5.275   4.482   2.878  0.3348 -1.4981  0.2708
   15CHTO   C30 6271   5.559   4.467   2.897  0.1011 -0.2847 -0.5934
   15CHTO   H58 6272   5.569   4.366   2.938  0.5458  0.6965  1.7778
   15CHTO    N6 6273   5.530   4.545   3.017 -0.3470  0.1454  0.6706
   15CHTO   H45 6274   5.430   4.586   3.017 -0.5784 -0.3541  2.1924
   15CHTO   H46 6275   5.541   4.491   3.110 -0.0403  0.6924  0.9527
   15CHTO   C33 6276   5.700   4.498   2.833  0.7077 -0.4287  0.1781
   15CHTO   H61 6277   5.708   4.605   2.807  0.9091 -0.2350  1.0045
   15CHTO   O18 6278   5.725   4.427   2.719  0.2350 -0.5855 -0.2105
   15CHTO   C28 6279   5.628   4.432   2.614 -0.9635  0.2285  0.1344
   15CHTO   H56 6280   5.615   4.537   2.590  1.4779  0.6232  0.4151
   15CHTO   C35 6281   5.672   4.352   2.479 -0.5481 -0.2453  0.4888
   15CHTO   O24 6282   5.783   4.417   2.414 -0.0071 -0.7381 -0.4398
   15CHTO   H39 6283   5.854   4.355   2.408  3.2838  2.7184  0.5192
   15CHTO    O9 6284   5.805   4.472   2.930  0.1997  0.6170  0.1315
   15CHTO   C13 6285   5.940   4.573   2.900 -0.0170 -0.0991  0.0391
   15CHTO   H26 6286   5.900   4.676   2.892  1.4214  0.6590  2.2395
   15CHTO   C11 6287   6.018   4.528   2.766 -0.1986 -0.3001 -0.1261
   15CHTO   H24 6288   5.952   4.535   2.678 -0.3781 -0.0081  0.0316
   15CHTO    O8 6289   6.061   4.385   2.776  0.4952  0.1181 -0.7100
   15CHTO    H3 6290   6.138   4.377   2.829 -0.4689  0.8263  0.8285
   15CHTO    C9 6291   6.150   4.618   2.755 -0.4229  0.5088 -0.2353
   15CHTO   H22 6292   6.113   4.722   2.758 -2.6329 -0.2781  0.5203
   15CHTO    N2 6293   6.227   4.604   2.633  0.4155  0.1353 -0.3325
   15CHTO   H10 6294   6.204   4.508   2.589  1.9925 -0.5768  0.3663
   15CHTO   H11 6295   6.195   4.684   2.568  1.0820  0.9444  0.3375
   15CHTO    C7 6296   6.242   4.606   2.883 -0.1962  0.2522  0.1022
   15CHTO   H20 6297   6.317   4.686   2.867  1.6104 -1.7471 -1.8247
   15CHTO    O4 6298   6.169   4.628   3.008 -0.2453  0.4963 -0.1221
   15CHTO   C14 6299   6.037   4.581   3.029  0.1606  0.7272 -0.3149
   15CHTO   H27 6300   5.993   4.666   3.086  0.1708  0.7373 -0.3220
   15CHTO   C18 6301   6.035   4.455   3.119  0.1449  0.1698 -0.2885
   15CHTO   O13 6302   6.088   4.482   3.248  0.2264  0.0163 -0.3121
   15CHTO    H7 6303   6.059   4.423   3.315  2.4130  0.5723  1.1705
   15CHTO    O2 6304   6.315   4.463   2.898  0.0982 -0.1355 -0.5497
   15CHTO    C1 6305   6.453   4.463   2.941  0.3825 -0.7333 -1.0669
   15CHTO   H14 6306   6.483   4.558   2.989 -0.8232 -0.8840  0.0206
   15CHTO    C2 6307   6.547   4.427   2.814 -0.2568  0.4684 -1.2014
   15CHTO   H15 6308   6.516   4.339   2.756  0.6829 -2.7888  3.0126
   15CHTO    O6 6309   6.530   4.529   2.714 -0.0853  0.1614  0.2128
   15CHTO    H1 6310   6.575   4.607   2.740  0.4305  0.2348 -0.8484
   15CHTO    C3 6311   6.705   4.416   2.860  0.2084 -0.8725 -0.9199
   15CHTO   H16 6312   6.742   4.505   2.912 -1.9180 -1.4322  1.7054
   15CHTO    N1 6313   6.795   4.379   2.744  0.8643 -0.1706  0.4466
   15CHTO    H8 6314   6.747   4.309   2.678  2.2997  0.2923 -1.1237
   15CHTO    H9 6315   6.833   4.460   2.684 -1.7887 -0.3288 -1.5233
   15CHTO    C4 6316   6.705   4.300   2.978  0.6607  0.4316  0.1837
   15CHTO   H17 6317   6.656   4.209   2.942  2.1655 -0.6356  0.7763
   15CHTO    O1 6318   6.618   4.346   3.078  0.8885 -0.5614  0.0214
   15CHTO    C5 6319   6.479   4.353   3.039  0.7338  0.3004 -0.0591
   15CHTO   H18 6320   6.449   4.262   2.988 -2.4779  1.8084 -1.0395
   15CHTO   C16 6321   6.392   4.357   3.169 -0.4047  0.1986 -0.2499
   15CHTO   O11 6322   6.444   4.453   3.264 -0.1083 -0.1027 -0.2606
   15CHTO    H5 6323   6.411   4.449   3.351 -0.2546  0.1743 -0.3010
   15CHTO    O3 6324   6.830   4.282   3.049  0.2538 -0.8067 -0.1881
   15CHTO    C6 6325   6.842   4.149   3.116 -0.2436  0.4877  0.0367
   15CHTO   H19 6326   6.747   4.101   3.140 -1.4550  3.6557  1.7784
   15CHTO    C8 6327   6.926   4.048   3.031 -0.8207  0.8105  0.0614
   15CHTO   H21 6328   7.014   4.102   2.996  1.2094 -2.4594 -0.1908
   15CHTO    O7 6329   6.846   4.010   2.921  0.5329 -0.1838  0.0739
   15CHTO    H2 6330   6.854   4.078   2.857  0.4141  0.1647  0.4326
   15CHTO   C12 6331   6.969   3.920   3.122 -0.5167  0.6520  0.3171
   15CHTO   H25 6332   6.877   3.862   3.147  0.3195 -0.6556  0.3643
   15CHTO    N3 6333   7.060   3.827   3.043  0.0917  0.1130 -0.7472
   15CHTO   H12 6334   7.058   3.728   3.086  1.5682  0.2219 -0.3853
   15CHTO   H13 6335   7.161   3.864   3.036 -0.0298  1.2676  2.4335
   15CHTO   C15 6336   7.032   3.967   3.252 -0.2643 -0.5419 -0.1872
   15CHTO   H28 6337   7.128   4.019   3.243 -0.3613 -0.6139 -1.9699
   15CHTO   O10 6338   7.043   3.840   3.356  0.4019  0.2341  0.1684
   15CHTO    H4 6339   7.034   3.868   3.445 -1.8153 -1.4070  0.5019
   15CHTO    O5 6340   6.950   4.053   3.327  0.3261  0.0215 -0.2038
   15CHTO   C10 6341   6.919   4.172   3.251  0.2887  0.4539 -0.4365
   15CHTO   H23 6342   7.014   4.226   3.240  0.0323  0.8437 -0.7196
   15CHTO   C17 6343   6.842   4.261   3.349  0.6726  0.5174 -0.9365
   15CHTO   O12 6344   6.853   4.406   3.320 -0.0552  0.2988 -0.4825
   15CHTO    H6 6345   6.806   4.420   3.240  2.9367 -1.9047 -2.7334
   16CHTO  H203 6346   4.850   4.025   2.684  0.1946 -0.0986  2.0457
   16CHTO   O82 6347   4.940   4.019   2.657 -0.4239  0.1194 -0.1832
   16CHTO  C123 6348   5.029   3.991   2.761  0.1065  0.1800 -0.2482
   16CHTO  H227 6349   4.980   3.920   2.830 -0.1678  0.4986 -0.1103
   16CHTO   O77 6350   5.131   3.921   2.691 -0.3603 -0.0264 -0.5540
   16CHTO  C118 6351   5.254   3.888   2.762 -0.5681 -0.6216 -0.1183
   16CHTO  H222 6352   5.233   3.804   2.829 -1.4988 -0.6626 -0.4503
   16CHTO  C125 6353   5.352   3.839   2.648  0.1713 -0.1890 -0.2948
   16CHTO   O84 6354   5.393   3.953   2.578  0.4493  0.2560 -0.4605
   16CHTO  H205 6355   5.450   3.930   2.507  0.7350 -0.3040 -0.0456
   16CHTO  C114 6356   5.305   4.013   2.837  0.2136 -0.3088  0.3804
   16CHTO  H218 6357   5.330   4.088   2.762 -1.1766 -2.6363 -2.4888
   16CHTO  C116 6358   5.198   4.075   2.924  0.1125  0.5894  0.3640
   16CHTO  H220 6359   5.167   4.001   3.001  1.0977  0.2745  0.4775
   16CHTO   O79 6360   5.272   4.183   2.988  0.4800 -0.0319  0.1496
   16CHTO  H201 6361   5.213   4.255   3.001  0.3321 -0.1886  0.3584
   16CHTO  C120 6362   5.083   4.116   2.826  0.3319 -0.0373  0.4986
   16CHTO  H224 6363   5.131   4.191   2.758 -0.4174  0.4141  0.4591
   16CHTO   N21 6364   4.973   4.188   2.895  0.4203 -0.1706  0.4174
   16CHTO  H211 6365   5.005   4.246   2.980 -0.6924  0.5764  0.3489
   16CHTO  H212 6366   4.930   4.246   2.814  1.6275 -2.6178 -2.0659
   16CHTO   O75 6367   5.421   3.964   2.895  0.1793 -0.0204 -0.2099
   16CHTO  C112 6368   5.562   4.055   2.888  0.0140  0.8326  0.3818
   16CHTO  H216 6369   5.535   4.161   2.876  0.9057  1.3900  3.1672
   16CHTO   O73 6370   5.635   4.000   2.772  0.0820 -1.0373 -0.2417
   16CHTO  C113 6371   5.762   4.063   2.746 -0.4412 -0.2660  0.4295
   16CHTO  H217 6372   5.737   4.166   2.714  0.7367  0.0245  0.4342
   16CHTO  C124 6373   5.835   3.995   2.628  0.1981 -0.3088  0.2251
   16CHTO   O83 6374   5.765   4.019   2.507 -0.1569  0.4129 -0.0924
   16CHTO  H204 6375   5.682   3.977   2.493 -0.2601  0.3064  0.8576
   16CHTO  C109 6376   5.849   4.057   2.879 -0.1780 -0.4954  0.2107
   16CHTO  H213 6377   5.874   3.950   2.890 -0.3386 -0.5503  0.0471
   16CHTO  C110 6378   5.784   4.111   3.011 -0.2347  0.2122  0.0518
   16CHTO  H214 6379   5.764   4.218   3.007 -0.4464  0.1710 -0.0134
   16CHTO   O78 6380   5.864   4.091   3.123 -0.1238  0.0189 -0.0836
   16CHTO  H200 6381   5.827   4.130   3.201  1.1378 -1.0203  1.0521
   16CHTO  C111 6382   5.646   4.044   3.023 -0.3191  0.5647 -0.8063
   16CHTO  H215 6383   5.659   3.936   3.040 -2.8718  0.3962  0.3693
   16CHTO   N19 6384   5.568   4.095   3.142  0.2974  0.1482  0.2763
   16CHTO  H207 6385   5.570   4.039   3.234  1.0525 -1.3531 -0.6296
   16CHTO  H208 6386   5.589   4.198   3.165 -0.2388  0.6569 -1.4690
   16CHTO   O74 6387   5.965   4.136   2.858  0.0620 -0.6863  0.5670
   16CHTO  C115 6388   6.106   4.030   2.844 -0.7692  0.7617 -0.0347
   16CHTO  H219 6389   6.080   3.925   2.853  1.0282  0.0632 -2.6541
   16CHTO   O76 6390   6.171   4.039   2.699  0.1187 -0.0841 -0.2242
   16CHTO  C122 6391   6.280   3.958   2.659  0.3450 -0.1385  0.2239
   16CHTO  H226 6392   6.311   3.998   2.563  1.1064  0.1661  0.5835
   16CHTO  C126 6393   6.224   3.818   2.631  0.0371  0.1591  0.5860
   16CHTO   O85 6394   6.314   3.716   2.591 -0.3742 -0.1255 -0.5728
   16CHTO  H206 6395   6.264   3.637   2.587 -2.9117  1.4485 -1.0432
   16CHTO  C121 6396   6.395   3.963   2.767  0.0162  0.0087  0.0121
   16CHTO  H225 6397   6.461   3.874   2.758  0.5131  0.2422  1.2981
   16CHTO   O81 6398   6.474   4.077   2.754 -0.3649  0.1676 -0.3051
   16CHTO  H202 6399   6.474   4.127   2.675 -3.1315 -2.3961 -1.9994
   16CHTO  C119 6400   6.340   3.965   2.914  0.2178  0.4548 -0.1322
   16CHTO  H223 6401   6.301   3.864   2.927  1.4518  0.2382  2.1773
   16CHTO  C117 6402   6.221   4.065   2.939 -0.4197 -0.3052  0.1612
   16CHTO  H221 6403   6.243   4.169   2.916 -0.2567 -0.6573 -1.3670
   16CHTO   N20 6404   6.168   4.056   3.077 -0.0192  0.0034 -0.2816
   16CHTO  H209 6405   6.200   3.960   3.113 -0.3140  0.0557  0.1302
   16CHTO  H210 6406   6.212   4.126   3.147  1.2045 -2.2353  1.2173
   16CHTO   O80 6407   6.465   3.969   3.021  0.2770 -0.2901  0.3913
   16CHTO  C103 6408   6.500   3.837   3.092  0.2698  0.5857  0.0630
   16CHTO  H190 6409   6.405   3.783   3.098 -1.6609  3.8892  0.8886
   16CHTO  C101 6410   6.608   3.753   3.025  0.5209 -0.3456  0.0989
   16CHTO  H188 6411   6.701   3.808   3.013  1.2831 -1.3650  1.2703
   16CHTO   O68 6412   6.554   3.711   2.875 -0.4341  0.2171  0.3911
   16CHTO  H168 6413   6.536   3.619   2.879  0.5984  0.0053  0.3913
   16CHTO   C99 6414   6.634   3.627   3.115 -0.2653 -0.6181 -0.3053
   16CHTO  H186 6415   6.543   3.565   3.107  0.8369 -2.3251  0.0768
   16CHTO   N17 6416   6.756   3.551   3.077  0.0602  0.2590 -0.7013
   16CHTO  H174 6417   6.724   3.515   2.980  0.2070  0.0744 -0.6824
   16CHTO  H175 6418   6.780   3.475   3.150 -1.3585  1.6954  1.3181
   16CHTO   C97 6419   6.644   3.664   3.269  0.2503  0.0742 -0.8557
   16CHTO  H184 6420   6.739   3.713   3.294 -0.6626  1.4851 -0.0968
   16CHTO   O64 6421   6.539   3.745   3.308  0.0691  0.2161 -0.0326
   16CHTO  C104 6422   6.538   3.869   3.237  0.8292  0.4903  0.6781
   16CHTO  H191 6423   6.640   3.908   3.238  1.6116 -1.4347 -0.5930
   16CHTO  C108 6424   6.447   3.970   3.306  0.2608  0.2096  0.4909
   16CHTO   O71 6425   6.518   4.034   3.411 -0.3952 -0.3072 -0.1029
   16CHTO  H171 6426   6.511   4.127   3.403  1.2774 -0.0987  0.7750
   16CHTO   O62 6427   6.629   3.548   3.354  0.0939 -0.1665  0.5792
   16CHTO   C91 6428   6.692   3.569   3.488 -0.2020 -0.1591  0.4767
   16CHTO  H178 6429   6.796   3.587   3.459 -0.4345 -0.6679 -0.7146
   16CHTO   C92 6430   6.701   3.433   3.566  0.4230 -0.6164  0.1806
   16CHTO  H179 6431   6.740   3.357   3.497 -1.6336 -1.4390 -0.0885
   16CHTO   O66 6432   6.796   3.442   3.674 -0.3678 -0.2227  0.3297
   16CHTO  H166 6433   6.887   3.441   3.652 -1.0097  1.6016 -2.7771
   16CHTO   C93 6434   6.568   3.396   3.643 -0.2120  0.1388  0.4533
   16CHTO  H180 6435   6.602   3.332   3.725 -0.0051  0.5132  0.6648
   16CHTO   N16 6436   6.474   3.315   3.565 -0.0425 -0.1758  0.3744
   16CHTO  H172 6437   6.448   3.222   3.613  1.1496 -0.1441  1.0870
   16CHTO  H173 6438   6.382   3.371   3.560 -0.0182 -0.0677  1.0918
   16CHTO   C94 6439   6.502   3.523   3.711  0.0450 -0.1141 -0.6177
   16CHTO  H181 6440   6.423   3.564   3.648  0.0650 -0.4021 -0.8292
   16CHTO   O61 6441   6.593   3.633   3.718  0.3231  0.0196 -0.4842
   16CHTO   C95 6442   6.632   3.683   3.585 -0.1619 -0.0737  1.0678
   16CHTO  H182 6443   6.546   3.734   3.541  0.1531  0.0578  0.5988
   16CHTO  C106 6444   6.743   3.786   3.621 -0.2213  0.2245 -0.0202
   16CHTO   O69 6445   6.786   3.865   3.512 -0.1199  0.3665 -0.0700
   16CHTO  H169 6446   6.824   3.801   3.455 -2.1021 -2.0503  1.2721
   16CHTO   O63 6447   6.442   3.473   3.874  0.3668 -0.5530  0.0502
   16CHTO   C96 6448   6.307   3.397   3.884  0.4693 -0.3578 -0.1017
   16CHTO  H183 6449   6.323   3.301   3.835 -0.9735  0.6533 -2.6700
   16CHTO   C98 6450   6.179   3.457   3.824  0.6036 -0.6207  0.3045
   16CHTO  H185 6451   6.188   3.485   3.718 -2.6767  1.3498  0.4529
   16CHTO   O67 6452   6.080   3.353   3.830  0.3330  0.2293  0.1281
   16CHTO  H167 6453   6.068   3.321   3.743 -1.9041 -0.4954  0.6645
   16CHTO  C102 6454   6.125   3.579   3.920  0.3617 -0.1575  0.4733
   16CHTO  H189 6455   6.016   3.589   3.912  0.1300 -0.1852  3.0043
   16CHTO   N18 6456   6.178   3.714   3.892  0.0533  0.5956  0.3410
   16CHTO  H176 6457   6.266   3.732   3.951  0.6887 -2.4749  0.4369
   16CHTO  H177 6458   6.198   3.729   3.787 -1.8102  2.0183  0.1497
   16CHTO  C105 6459   6.145   3.546   4.070  0.1635  0.1457  0.4725
   16CHTO  H192 6460   6.230   3.601   4.111  0.8659 -1.1857  0.8395
   16CHTO   O65 6461   6.164   3.406   4.095  0.2631  0.0139  0.1460
   16CHTO  C100 6462   6.283   3.359   4.036 -0.0657  0.9851 -0.6194
   16CHTO  H187 6463   6.361   3.413   4.091 -0.8220  1.1244  0.3207
   16CHTO  C107 6464   6.310   3.213   4.062  0.8578  0.1818 -0.0480
   16CHTO   O70 6465   6.294   3.190   4.198 -0.1840  0.7560  0.2373
   16CHTO  H170 6466   6.222   3.130   4.201  1.7118 -1.6333 -0.5693
   16CHTO   O57 6467   6.001   3.594   4.151 -0.4549 -0.1110 -0.6796
   16CHTO   C85 6468   5.942   3.721   4.166  0.1837  0.6970 -0.6658
   16CHTO  H157 6469   5.929   3.765   4.065  0.8997  0.1700 -0.9938
   16CHTO   C83 6470   6.045   3.818   4.233 -0.1908 -0.8318  0.6174
   16CHTO  H155 6471   6.124   3.829   4.159 -1.3343  0.9048 -0.3896
   16CHTO   O56 6472   6.090   3.764   4.357 -0.0814 -0.2468 -0.0468
   16CHTO  H135 6473   6.021   3.759   4.420 -1.7355 -0.3104 -1.8218
   16CHTO   C81 6474   5.970   3.956   4.239 -0.4704  0.6096  0.8648
   16CHTO  H153 6475   5.935   3.967   4.137  0.6373  0.4336  0.4594
   16CHTO   N14 6476   6.066   4.068   4.273  0.4281  0.3595  0.5874
   16CHTO  H141 6477   6.128   4.083   4.188  1.0350  1.0976  1.1562
   16CHTO  H142 6478   6.021   4.163   4.294 -1.7908 -0.5257  0.0183
   16CHTO   C79 6479   5.844   3.947   4.327 -0.1257 -0.3911 -0.0678
   16CHTO  H151 6480   5.789   4.040   4.318 -1.5079 -0.9317  2.3061
   16CHTO   O52 6481   5.743   3.844   4.281 -0.0640 -0.0672  0.0755
   16CHTO   C86 6482   5.808   3.715   4.247  0.3988 -0.9140  0.8351
   16CHTO  H158 6483   5.817   3.661   4.344 -1.9982 -0.7686  1.1725
   16CHTO   C90 6484   5.708   3.629   4.170 -0.6230 -0.4516 -0.7088
   16CHTO   O60 6485   5.613   3.554   4.240  0.5417 -0.1414 -0.0183
   16CHTO  H138 6486   5.644   3.471   4.270 -1.5872 -1.9440 -2.6143
   16CHTO   O50 6487   5.868   3.930   4.467 -0.8952 -0.3704  0.3173
   16CHTO   C73 6488   5.835   3.925   4.606  0.5292 -0.2403  0.6399
   16CHTO  H145 6489   5.925   3.896   4.663 -1.1918  0.0899  3.6665
   16CHTO   C74 6490   5.727   3.814   4.632  0.2268 -0.5893  0.3736
   16CHTO  H146 6491   5.762   3.719   4.589 -1.1815 -0.7469 -0.4692
   16CHTO   O54 6492   5.718   3.785   4.773  0.1188  0.4368  0.4822
   16CHTO  H133 6493   5.642   3.819   4.815 -2.7342  1.1644 -4.8252
   16CHTO   C75 6494   5.588   3.852   4.569  0.5784  0.2186 -0.0453
   16CHTO  H147 6495   5.598   3.874   4.462  0.9871 -1.3032 -0.3307
   16CHTO   N13 6496   5.485   3.746   4.575 -0.3878 -0.5897 -0.4468
   16CHTO  H139 6497   5.420   3.756   4.661  1.2394 -0.1334  0.7557
   16CHTO  H140 6498   5.421   3.735   4.489 -2.1905 -0.3026  0.8208
   16CHTO   C76 6499   5.547   3.990   4.643  0.4948  0.1139  0.1492
   16CHTO  H148 6500   5.543   3.972   4.750 -1.7021 -0.1809  0.0352
   16CHTO   O49 6501   5.649   4.094   4.615  0.4470  0.3122 -0.0379
   16CHTO   C77 6502   5.782   4.060   4.669  0.7131 -0.4911 -0.1222
   16CHTO  H149 6503   5.782   4.054   4.778  1.8630 -0.4034 -0.1166
   16CHTO   C88 6504   5.867   4.174   4.631  0.4525 -0.2077  0.1707
   16CHTO   O58 6505   6.027   4.134   4.661  0.5598 -0.3480  0.0373
   16CHTO  H136 6506   6.070   4.217   4.665  2.2993 -1.2094 -0.2829
   16CHTO   O51 6507   5.396   4.049   4.589 -0.0632  0.0320 -0.0378
   16CHTO   C78 6508   5.378   4.222   4.634  0.2359 -0.0709 -0.3810
   16CHTO  H150 6509   5.468   4.281   4.611 -0.2249  1.1404  0.8334
   16CHTO   C80 6510   5.342   4.248   4.783  0.4313  0.3417  0.1177
   16CHTO  H152 6511   5.255   4.181   4.799  1.4119 -1.0501 -0.3736
   16CHTO   O55 6512   5.463   4.201   4.848 -0.1519  0.0823 -0.2698
   16CHTO  H134 6513   5.484   4.110   4.840  0.9172  0.4452 -1.6870
   16CHTO   C84 6514   5.305   4.398   4.820 -0.4458  0.0260 -0.1564
   16CHTO  H156 6515   5.398   4.450   4.799 -0.3834 -0.6324 -1.5227
   16CHTO   N15 6516   5.277   4.424   4.962 -0.1393 -0.1653  0.4403
   16CHTO  H143 6517   5.292   4.330   5.009 -0.0555 -1.1244 -1.4464
   16CHTO  H144 6518   5.173   4.449   4.963 -0.0655  0.5740 -2.7130
   16CHTO   C87 6519   5.202   4.454   4.720  0.0174 -0.2681 -0.1379
   16CHTO  H159 6520   5.105   4.409   4.741  0.1922 -1.8628 -2.5053
   16CHTO   O53 6521   5.252   4.418   4.567 -0.1161 -0.5608 -0.3702
   16CHTO   C82 6522   5.266   4.276   4.547 -0.4737 -0.3300  0.6026
   16CHTO  H154 6523   5.172   4.223   4.559 -0.3165 -1.5154 -2.8618
   16CHTO   C89 6524   5.303   4.254   4.400  0.0330 -0.4018  0.8376
   16CHTO   O59 6525   5.188   4.289   4.319  0.3357 -0.4152  0.7245
   16CHTO  H137 6526   5.200   4.379   4.296  0.8683 -0.6960 -0.1425
   16CHTO   O45 6527   5.180   4.615   4.734 -0.1646  0.3008  0.1850
   16CHTO   C67 6528   5.273   4.694   4.660  0.5235  0.2759  0.2227
   16CHTO  H124 6529   5.349   4.635   4.610  0.7597 -0.1078  1.0257
   16CHTO   C65 6530   5.193   4.779   4.554 -0.1175  0.3421 -0.4576
   16CHTO  H122 6531   5.090   4.787   4.589 -0.8474  2.1457 -2.9012
   16CHTO   O44 6532   5.198   4.701   4.437  0.2384  0.6661  0.1651
   16CHTO  H102 6533   5.161   4.754   4.369  3.2632  1.6764 -0.8020
   16CHTO   C63 6534   5.242   4.929   4.527 -0.1629  0.1923 -0.1823
   16CHTO  H120 6535   5.203   4.986   4.611  0.6229  0.8386 -0.2583
   16CHTO   N11 6536   5.179   5.009   4.418 -0.6017 -0.0861 -0.7370
   16CHTO  H108 6537   5.108   5.071   4.468 -0.5143 -0.1141 -0.5806
   16CHTO  H109 6538   5.246   5.071   4.363  2.1496 -1.1764  1.3229
   16CHTO   C61 6539   5.405   4.930   4.524  0.3212 -0.1318 -0.0955
   16CHTO  H118 6540   5.440   5.034   4.529  0.5826 -0.2389  0.3005
   16CHTO   O40 6541   5.454   4.872   4.641  1.0000 -0.3721  0.4843
   16CHTO   C68 6542   5.354   4.810   4.732 -0.1272 -0.5606 -0.9867
   16CHTO  H125 6543   5.293   4.892   4.773  1.1858 -0.0205 -0.0855
   16CHTO   C72 6544   5.425   4.751   4.852  0.2914  0.6310  0.1172
   16CHTO   O48 6545   5.510   4.834   4.923 -0.2265 -0.1558 -0.7344
   16CHTO  H105 6546   5.463   4.899   4.971 -0.3529  0.8362 -2.1812
   16CHTO   O38 6547   5.453   4.864   4.402 -0.4190 -0.3348  0.2415
   16CHTO   C55 6548   5.591   4.843   4.383  0.0341  0.8677 -0.0630
   16CHTO  H112 6549   5.648   4.841   4.477  1.4867  0.8820 -0.9219
   16CHTO   C56 6550   5.653   4.956   4.283  0.5740  0.1641 -0.0143
   16CHTO  H113 6551   5.590   4.964   4.193  0.5632  0.9672  0.0620
   16CHTO   O42 6552   5.640   5.088   4.345  0.0770  0.4749  0.3345
   16CHTO  H100 6553   5.650   5.145   4.270 -1.1383 -0.6711 -0.7182
   16CHTO   C57 6554   5.797   4.919   4.243  0.0165  0.0048  0.0026
   16CHTO  H114 6555   5.865   4.928   4.328 -0.7372  0.9324  0.5221
   16CHTO   N10 6556   5.851   5.009   4.138 -0.4728  0.3039  0.0358
   16CHTO  H106 6557   5.770   5.050   4.080 -1.7205  1.2477  2.3871
   16CHTO  H107 6558   5.918   4.947   4.080 -0.5256 -0.3240  0.6328
   16CHTO   C58 6559   5.802   4.774   4.189  0.6944  0.6411  0.0726
   16CHTO  H115 6560   5.730   4.764   4.105 -0.0060  1.8098  0.5217
   16CHTO   O37 6561   5.758   4.680   4.294  0.2392 -1.1396 -0.0890
   16CHTO   C59 6562   5.618   4.695   4.323 -0.9737 -0.0276  0.6642
   16CHTO  H116 6563   5.563   4.685   4.229  0.8886  1.5457 -0.6512
   16CHTO   C70 6564   5.573   4.586   4.424 -0.1426 -0.1911 -0.2389
   16CHTO   O46 6565   5.648   4.596   4.548 -0.1502  0.7287  0.1447
   16CHTO  H103 6566   5.623   4.681   4.578 -0.3535  0.3811  0.9765
   16CHTO   O39 6567   5.955   4.732   4.142  0.1946 -0.0753  0.1318
   16CHTO   C60 6568   5.973   4.667   4.016 -0.3277  0.3007  0.2920
   16CHTO  H117 6569   5.887   4.616   3.974 -0.4169 -0.4238  1.3325
   16CHTO   C62 6570   6.030   4.770   3.910  0.3746 -0.4670  0.4307
   16CHTO  H119 6571   5.965   4.860   3.911  0.8798 -0.0976  0.4232
   16CHTO   O43 6572   6.158   4.827   3.953 -0.3405 -0.5724 -0.4925
   16CHTO  H101 6573   6.200   4.875   3.885 -1.0915 -0.3996 -0.8403
   16CHTO   C66 6574   6.028   4.691   3.772  0.0587 -0.6319 -0.1544
   16CHTO  H123 6575   5.934   4.637   3.758  0.2537 -0.5061 -2.1791
   16CHTO   N12 6576   6.040   4.789   3.664  0.1135 -0.0571  0.0725
   16CHTO  H110 6577   5.974   4.870   3.693 -1.1645 -1.5968  1.5616
   16CHTO  H111 6578   6.143   4.819   3.648  0.1399 -0.5799 -0.7308
   16CHTO   C69 6579   6.148   4.597   3.769 -0.6171  0.1080  0.1020
   16CHTO  H126 6580   6.239   4.660   3.777  1.0321 -2.0115 -1.5295
   16CHTO   O41 6581   6.143   4.506   3.900 -0.1899 -0.8828  0.1108
   16CHTO   C64 6582   6.082   4.560   4.045 -0.1125 -0.5651  0.0877
   16CHTO  H121 6583   6.161   4.619   4.095  3.1435 -3.4810 -1.3384
   16CHTO   C71 6584   6.039   4.434   4.129 -0.4607 -0.0622 -0.0512
   16CHTO   O47 6585   6.009   4.465   4.267  0.0641 -0.1240 -0.5918
   16CHTO  H104 6586   5.917   4.466   4.287  0.2012 -0.2681  0.0556
   16CHTO   O34 6587   6.147   4.510   3.631  0.1110  0.9344  0.3852
   16CHTO   C49 6588   6.291   4.430   3.566 -0.2215 -0.0627  0.1116
   16CHTO   H91 6589   6.301   4.463   3.463 -1.5510  3.0063  0.8953
   16CHTO   C47 6590   6.266   4.281   3.567 -0.0647 -0.4348  0.6510
   16CHTO   H89 6591   6.359   4.243   3.521  0.9937  0.9161  1.6247
   16CHTO   O33 6592   6.158   4.250   3.476  0.3002 -0.4641 -0.9380
   16CHTO   H70 6593   6.166   4.163   3.442 -1.1277 -1.4517  1.1082
   16CHTO   C45 6594   6.242   4.227   3.718  0.5605  0.0563 -0.0873
   16CHTO   H87 6595   6.155   4.288   3.749  1.5368  0.3821  2.1080
   16CHTO    N8 6596   6.198   4.084   3.720  0.0661 -0.0037 -0.3599
   16CHTO   H75 6597   6.097   4.069   3.684  0.7307 -1.6636 -1.5474
   16CHTO   H76 6598   6.270   4.025   3.666  0.3790  0.0796 -0.0379
   16CHTO   C43 6599   6.365   4.272   3.815 -0.2980 -0.6335  0.1175
   16CHTO   H85 6600   6.336   4.259   3.920  2.3891  1.6120  1.1890
   16CHTO   O29 6601   6.415   4.410   3.791 -0.3140 -0.6634  0.3723
   16CHTO   C50 6602   6.416   4.466   3.650  0.9333  0.5039 -0.0415
   16CHTO   H92 6603   6.434   4.574   3.659 -1.0739  0.7331  1.5062
   16CHTO   C54 6604   6.549   4.424   3.577 -0.1472  0.0648 -0.4520
   16CHTO   O36 6605   6.662   4.476   3.648 -0.2893  0.2332  0.6617
   16CHTO   H72 6606   6.679   4.412   3.714 -1.3213  1.1011  1.7936
   16CHTO   O27 6607   6.476   4.185   3.812 -0.6430  0.2404 -0.5049
   16CHTO   C37 6608   6.557   4.138   3.925 -0.2404  0.3615  0.7578
   16CHTO   H79 6609   6.577   4.218   3.998  0.0939  0.7081  0.2895
   16CHTO   C38 6610   6.480   4.019   3.990 -0.5575  0.5890  0.4458
   16CHTO   H80 6611   6.441   3.955   3.909 -0.7992 -1.1981  1.9550
   16CHTO   O31 6612   6.373   4.071   4.071  0.0142 -0.6204  0.5667
   16CHTO   H68 6613   6.409   4.119   4.143  0.9973  0.5509 -0.6816
   16CHTO   C39 6614   6.567   3.926   4.084 -0.0350  0.1311 -0.4778
   16CHTO   H81 6615   6.576   3.980   4.178 -1.2285 -0.2572 -0.1392
   16CHTO    N7 6616   6.497   3.796   4.118 -0.1804  0.3272  0.6553
   16CHTO   H73 6617   6.460   3.748   4.029 -0.2236 -1.2171  1.5003
   16CHTO   H74 6618   6.568   3.727   4.161 -1.0011 -0.9624 -0.0519
   16CHTO   C40 6619   6.703   3.893   4.011 -0.0618 -0.8923  0.0018
   16CHTO   H82 6620   6.697   3.813   3.937 -1.9870 -1.2865  0.5764
   16CHTO   O26 6621   6.770   4.010   3.965  0.2310 -0.0957 -0.4421
   16CHTO   C41 6622   6.691   4.093   3.866  0.3095  0.2683  0.0900
   16CHTO   H83 6623   6.672   4.034   3.775 -0.5946  0.1950  0.3203
   16CHTO   C52 6624   6.793   4.206   3.831  0.4184  0.2148 -0.2230
   16CHTO   O35 6625   6.925   4.150   3.779  0.3308  0.3860 -0.3180
   16CHTO   H71 6626   6.991   4.208   3.813 -0.3194  0.9430  0.0265
   16CHTO   O28 6627   6.808   3.853   4.100  0.2107 -0.0162  0.0871
   16CHTO   C42 6628   6.850   3.720   4.149 -0.2630  0.3036 -0.2061
   16CHTO   H84 6629   6.959   3.727   4.158 -0.2747 -1.0962  1.3978
   16CHTO   C44 6630   6.829   3.596   4.064 -0.2541  0.5209 -0.2491
   16CHTO   H86 6631   6.723   3.586   4.041  0.0851 -0.2236 -1.5394
   16CHTO   O32 6632   6.903   3.629   3.945  0.3535 -0.1745  0.1365
   16CHTO   H69 6633   6.914   3.554   3.889  0.9300 -1.0694  1.4093
   16CHTO   C48 6634   6.886   3.465   4.133 -0.5463 -0.7655  0.4715
   16CHTO   H90 6635   6.993   3.480   4.133 -0.6426 -0.0727 -0.1410
   16CHTO    N9 6636   6.869   3.340   4.047 -0.4089 -0.6429 -0.4932
   16CHTO   H77 6637   6.762   3.347   4.037 -0.4300  3.2544  1.3652
   16CHTO   H78 6638   6.906   3.352   3.946 -0.4527  0.5228 -0.3781
   16CHTO   C51 6639   6.841   3.462   4.282  1.0257 -0.0148  0.3003
   16CHTO   H93 6640   6.734   3.441   4.286  1.2199 -1.2351 -0.6949
   16CHTO   O30 6641   6.874   3.587   4.350 -0.4674 -0.5307  0.3029
   16CHTO   C46 6642   6.798   3.694   4.297  0.4740 -0.0324 -0.2839
   16CHTO   H88 6643   6.694   3.659   4.296  0.4524  0.0193 -1.6503
   16CHTO   C53 6644   6.813   3.821   4.385 -0.6101  0.1777  0.1316
   16CHTO   O72 6645   6.710   3.912   4.352  0.1373  0.5551  0.0629
   16CHTO  H199 6646   6.735   3.941   4.266 -1.6153 -2.0168 -1.3787
   16CHTO   O22 6647   6.914   3.354   4.352  0.4291 -0.8231 -0.0607
   16CHTO   C31 6648   6.868   3.285   4.471  0.1381 -0.4273  0.2805
   16CHTO   H59 6649   6.941   3.203   4.494  2.0530  1.1862  0.0939
   16CHTO   C29 6650   6.862   3.383   4.594 -0.3217  0.5457  0.4131
   16CHTO   H57 6651   6.793   3.466   4.575  0.3538  0.8816 -0.5916
   16CHTO   O21 6652   6.995   3.445   4.601  0.0530 -0.2080  0.0172
   16CHTO   H37 6653   7.012   3.481   4.686  1.7654  0.6143 -0.6498
   16CHTO   C27 6654   6.812   3.305   4.720 -0.0400  0.0522 -0.6123
   16CHTO   H55 6655   6.882   3.224   4.745 -0.9851 -0.7044 -0.4283
   16CHTO    N5 6656   6.805   3.392   4.838  0.1246  0.1246 -0.1365
   16CHTO   H43 6657   6.760   3.487   4.812  2.3226  1.8526  2.2034
   16CHTO   H44 6658   6.907   3.398   4.873  0.6605 -1.6279 -1.3598
   16CHTO   C25 6659   6.667   3.242   4.691 -0.1395  0.0184 -0.3144
   16CHTO   H53 6660   6.590   3.312   4.656  0.9198  1.1762 -0.3347
   16CHTO   O17 6661   6.688   3.149   4.578 -0.0490  0.2518  0.4533
   16CHTO   C32 6662   6.730   3.212   4.461  0.1490  0.0621  0.1968
   16CHTO   H60 6663   6.656   3.285   4.429 -0.6203 -1.7535 -2.3256
   16CHTO   C36 6664   6.739   3.107   4.346  0.1632  0.1611 -0.9035
   16CHTO   O25 6665   6.609   3.056   4.306 -0.4511  0.9365  0.1130
   16CHTO   H40 6666   6.573   3.002   4.374 -1.0936  2.0784  0.6831
   16CHTO   O15 6667   6.603   3.157   4.826 -0.1708  0.4261  0.7773
   16CHTO   C19 6668   6.540   3.166   4.954  0.3424 -0.2947  0.1433
   16CHTO   H47 6669   6.613   3.219   5.018  1.2765 -0.0471 -1.1102
   16CHTO   C20 6670   6.411   3.260   4.944  0.2730 -0.7309 -0.2982
   16CHTO   H48 6671   6.341   3.221   4.869  0.8328  0.2261 -1.3311
   16CHTO   O19 6672   6.458   3.389   4.893  0.5162  0.2772 -0.0668
   16CHTO   H35 6673   6.545   3.405   4.921  0.1887 -1.2212  1.9767
   16CHTO   C21 6674   6.338   3.272   5.091  0.0910 -0.0370  0.5524
   16CHTO   H49 6675   6.409   3.314   5.162 -0.1097 -2.1740  2.0781
   16CHTO    N4 6676   6.218   3.359   5.092  0.4136  0.1760 -0.2791
   16CHTO   H41 6677   6.127   3.302   5.106  1.0190 -0.8366 -0.3900
   16CHTO   H42 6678   6.214   3.418   5.002  2.6912  1.4979  0.4448
   16CHTO   C22 6679   6.313   3.131   5.141  0.1854  0.3830 -0.4135
   16CHTO   H50 6680   6.250   3.088   5.063 -1.8025  0.9065  0.8794
   16CHTO   O14 6681   6.437   3.056   5.146 -0.5775 -0.7646  0.5229
   16CHTO   C23 6682   6.502   3.032   5.021 -0.3073  0.5190 -0.2906
   16CHTO   H51 6683   6.431   2.972   4.963  0.1841 -0.9695  0.6273
   16CHTO   C34 6684   6.640   2.954   5.026  0.7774  0.2479 -0.1887
   16CHTO   O23 6685   6.679   2.930   5.160 -0.2793 -0.1422 -0.4880
   16CHTO   H38 6686   6.715   2.843   5.166  1.6880  0.7475  1.2749
   16CHTO   O16 6687   6.249   3.119   5.268  0.2616  0.3894 -0.0754
   16CHTO   C24 6688   6.205   2.976   5.321  0.1787 -0.3238  0.0822
   16CHTO   H52 6689   6.230   2.895   5.252 -2.8191 -1.1778 -0.0570
   16CHTO   C26 6690   6.056   2.981   5.348 -0.8687 -0.6569  0.0653
   16CHTO   H54 6691   6.040   3.067   5.417  1.3305  0.3155 -0.5932
   16CHTO   O20 6692   5.984   3.002   5.225 -0.4089 -0.0330 -0.2714
   16CHTO   H36 6693   5.968   3.092   5.204  0.9965  0.4796  0.7517
   16CHTO   C30 6694   5.999   2.856   5.430  0.3382 -0.5655 -0.2077
   16CHTO   H58 6695   6.008   2.769   5.363  1.0303  0.4337 -1.4463
   16CHTO    N6 6696   5.856   2.849   5.467 -0.2584  0.7817  0.2126
   16CHTO   H45 6697   5.794   2.836   5.379  0.0584 -2.1557  0.3674
   16CHTO   H46 6698   5.837   2.948   5.507 -0.2866  0.6626  0.4924
   16CHTO   C33 6699   6.093   2.830   5.551  0.4613 -0.1206 -0.5800
   16CHTO   H61 6700   6.094   2.915   5.621  1.3007 -1.1418  0.6810
   16CHTO   O18 6701   6.234   2.812   5.500  0.2793  0.0377  0.3190
   16CHTO   C28 6702   6.283   2.939   5.458 -0.2775  0.1959  0.1127
   16CHTO   H56 6703   6.266   3.012   5.537  0.8071  0.5803 -0.0046
   16CHTO   C35 6704   6.436   2.926   5.440 -0.0021  0.0712  0.0151
   16CHTO   O24 6705   6.488   2.888   5.564  0.4346 -0.3178  0.2486
   16CHTO   H39 6706   6.581   2.886   5.569  0.4413 -0.5455  0.0549
   16CHTO    O9 6707   6.053   2.717   5.633  0.0705 -0.1908  0.0799
   16CHTO   C13 6708   6.037   2.764   5.809  0.8252 -0.5969 -0.3047
   16CHTO   H26 6709   5.959   2.843   5.818  0.0935 -1.2590 -0.7258
   16CHTO   C11 6710   6.169   2.810   5.871  0.4255 -0.2616 -0.3654
   16CHTO   H24 6711   6.203   2.900   5.817  0.2403  0.2224  0.3244
   16CHTO    O8 6712   6.271   2.707   5.859 -0.0855 -0.1551 -0.1871
   16CHTO    H3 6713   6.351   2.748   5.886 -1.1068  0.3718  2.1069
   16CHTO    C9 6714   6.141   2.838   6.022  0.9265 -0.0702 -0.9876
   16CHTO   H22 6715   6.064   2.917   6.033  2.5846  1.2509  1.9832
   16CHTO    N2 6716   6.248   2.916   6.090  0.1822 -0.2933  0.5227
   16CHTO   H10 6717   6.236   3.024   6.093 -0.7761 -0.3486 -0.7249
   16CHTO   H11 6718   6.250   2.896   6.196 -0.2916  0.8549  0.7592
   16CHTO    C7 6719   6.091   2.709   6.102 -0.5176 -0.7538  0.0556
   16CHTO   H20 6720   6.043   2.737   6.199  0.4594 -0.2222  0.3937
   16CHTO    O4 6721   5.980   2.651   6.033  0.1202 -0.0063 -0.4666
   16CHTO   C14 6722   5.971   2.646   5.885 -1.0333  0.2390  0.2308
   16CHTO   H27 6723   5.863   2.645   5.859 -1.1892 -1.4731  0.8307
   16CHTO   C18 6724   6.030   2.499   5.855 -0.3081 -0.0464  0.3939
   16CHTO   O13 6725   5.932   2.398   5.865 -0.3429  0.0445  0.1578
   16CHTO    H7 6726   5.967   2.313   5.885  2.0248  1.3452  1.6550
   16CHTO    O2 6727   6.212   2.598   6.130  0.5315  0.1862  0.3771
   16CHTO    C1 6728   6.205   2.529   6.260 -0.1521 -0.1908  0.8853
   16CHTO   H14 6729   6.107   2.554   6.306 -0.7410 -0.7838 -0.0469
   16CHTO    C2 6730   6.320   2.584   6.356 -0.3186 -0.5382  0.3631
   16CHTO   H15 6731   6.410   2.589   6.293 -1.1134  0.7089 -0.7208
   16CHTO    O6 6732   6.289   2.718   6.395 -0.2503  0.2432  0.3591
   16CHTO    H1 6733   6.205   2.714   6.437 -0.1333 -0.1562  0.5534
   16CHTO    C3 6734   6.333   2.486   6.479  0.3380 -0.2532  0.8484
   16CHTO   H16 6735   6.240   2.497   6.536 -0.3068 -0.6722 -0.1096
   16CHTO    N1 6736   6.455   2.514   6.555 -0.3955  0.0531  0.1183
   16CHTO    H8 6737   6.456   2.451   6.643 -0.3522 -1.0113 -0.6219
   16CHTO    H9 6738   6.461   2.611   6.601  3.8514 -0.7325  1.4803
   16CHTO    C4 6739   6.335   2.336   6.449 -0.2161  0.2745 -0.0678
   16CHTO   H17 6740   6.426   2.308   6.395 -0.1031 -0.3688  0.4520
   16CHTO    O1 6741   6.220   2.308   6.373 -0.4628 -0.8684  0.1129
   16CHTO    C5 6742   6.213   2.371   6.246 -0.1896  0.3447  0.1238
   16CHTO   H18 6743   6.292   2.336   6.179 -2.0022  1.3378 -2.6252
   16CHTO   C16 6744   6.083   2.322   6.184  0.3382  0.2211  0.1991
   16CHTO   O11 6745   6.073   2.190   6.141 -0.2561  0.4369  0.6036
   16CHTO    H5 6746   5.984   2.165   6.124 -0.5745  2.8880 -1.5747
   16CHTO    O3 6747   6.335   2.262   6.570 -0.0987 -0.1345 -0.4105
   16CHTO    C6 6748   6.377   2.124   6.561 -0.1979 -0.2031  0.1572
   16CHTO   H19 6749   6.390   2.081   6.462 -1.9057 -2.2065  0.7722
   16CHTO    C8 6750   6.514   2.099   6.639 -0.0636 -0.0189  0.0617
   16CHTO   H21 6751   6.505   2.146   6.737  1.7340 -0.9122  0.6773
   16CHTO    O7 6752   6.610   2.173   6.560  0.0964  0.5235  0.1100
   16CHTO    H2 6753   6.628   2.138   6.475 -0.2354  0.8388 -0.0924
   16CHTO   C12 6754   6.542   1.939   6.663 -0.6358 -0.2882 -0.2609
   16CHTO   H25 6755   6.558   1.884   6.569 -0.1443 -1.4120  0.4732
   16CHTO    N3 6756   6.652   1.915   6.760 -0.3105 -0.7610 -0.2266
   16CHTO   H12 6757   6.715   2.001   6.774  0.6808 -1.3335 -1.0883
   16CHTO   H13 6758   6.718   1.838   6.721 -1.5420 -1.3708 -1.1669
   16CHTO   C15 6759   6.410   1.879   6.718  0.7209  0.2831  0.1115
   16CHTO   H28 6760   6.380   1.901   6.820  2.6149 -1.2189  1.0281
   16CHTO   O10 6761   6.426   1.713   6.698 -0.1980 -0.2467  0.5937
   16CHTO    H4 6762   6.347   1.681   6.738  0.9474 -1.3971  2.0136
   16CHTO    O5 6763   6.293   1.901   6.639 -0.2852  0.1182  0.2110
   16CHTO   C10 6764   6.266   2.038   6.633  0.3875 -0.7313 -0.1382
   16CHTO   H23 6765   6.250   2.069   6.737  0.4111 -0.7508 -0.1293
   16CHTO   C17 6766   6.121   2.057   6.570 -0.1851  0.4035 -0.2905
   16CHTO   O12 6767   6.114   2.012   6.437 -0.7398  0.1870 -0.3242
   16CHTO    H6 6768   6.033   1.965   6.428 -0.0270 -1.2267  0.4357
   17CHTO  H203 6769   6.351   5.654   6.363 -1.8068  3.2977 -0.6665
   17CHTO   O82 6770   6.280   5.634   6.421 -0.1820 -0.3349  0.2510
   17CHTO  C123 6771   6.271   5.714   6.531 -0.0244 -0.2481 -0.3320
   17CHTO  H227 6772   6.362   5.776   6.529  1.8421 -2.9121 -1.6125
   17CHTO   O77 6773   6.155   5.787   6.504  0.0561 -0.0843 -0.1806
   17CHTO  C118 6774   6.126   5.902   6.573  1.0429  0.0442  0.3488
   17CHTO  H222 6775   6.209   5.974   6.572 -0.9918  2.4548  0.5143
   17CHTO  C125 6776   5.995   5.978   6.519  0.2870 -0.1187 -0.4859
   17CHTO   O84 6777   6.006   5.980   6.376 -0.7241  0.0811  0.2220
   17CHTO  H205 6778   5.926   5.952   6.338  1.1118 -1.9455 -2.3269
   17CHTO  C114 6779   6.099   5.855   6.719 -0.1839 -0.0697 -0.4857
   17CHTO  H218 6780   6.003   5.803   6.718  0.0015 -0.5687  2.1666
   17CHTO  C116 6781   6.206   5.748   6.772  0.0474 -0.7018  0.2549
   17CHTO  H220 6782   6.302   5.799   6.795  0.8884 -1.5825 -1.1801
   17CHTO   O79 6783   6.150   5.689   6.889  0.5836 -0.0942 -0.3451
   17CHTO  H201 6784   6.220   5.669   6.948 -0.9924  1.4565  2.1283
   17CHTO  C120 6785   6.248   5.638   6.668  0.1236  0.1325  0.5408
   17CHTO  H224 6786   6.160   5.571   6.656 -0.1280  0.4910  0.3699
   17CHTO   N21 6787   6.376   5.565   6.703  0.5515  0.3116  0.5808
   17CHTO  H211 6788   6.391   5.555   6.810  0.5096  0.9169  0.6476
   17CHTO  H212 6789   6.375   5.468   6.657 -2.4248  0.6652 -0.2013
   17CHTO   O75 6790   6.074   5.968   6.807 -0.4020 -0.2847  0.1858
   17CHTO  C112 6791   6.205   6.076   6.837  0.2740  0.1395 -0.4702
   17CHTO  H216 6792   6.252   6.097   6.740 -0.7471  2.7190 -0.4283
   17CHTO   O73 6793   6.291   6.011   6.930 -0.1781 -0.7083 -0.4937
   17CHTO  C113 6794   6.403   6.092   6.969 -0.2957  0.3077 -0.7398
   17CHTO  H217 6795   6.477   6.105   6.888 -2.2690  1.3562 -2.4182
   17CHTO  C124 6796   6.473   6.005   7.078 -0.0384 -0.2739  0.2817
   17CHTO   O83 6797   6.592   6.080   7.122 -0.1243  0.1964 -0.3724
   17CHTO  H204 6798   6.611   6.061   7.212 -0.5594 -2.5737 -0.8399
   17CHTO  C109 6799   6.354   6.230   7.038  0.6547  0.4877  0.7654
   17CHTO  H213 6800   6.296   6.204   7.128 -2.0241  0.7867 -0.7950
   17CHTO  C110 6801   6.259   6.302   6.944  0.6647 -0.3102 -0.3450
   17CHTO  H214 6802   6.318   6.351   6.866 -0.3517 -0.5730 -1.2941
   17CHTO   O78 6803   6.203   6.413   7.021 -1.0519  0.1459 -0.0949
   17CHTO  H200 6804   6.194   6.402   7.113 -0.6410 -0.5310 -0.1396
   17CHTO  C111 6805   6.141   6.212   6.886  0.0038  0.1157 -0.5209
   17CHTO  H215 6806   6.077   6.188   6.972 -1.8859  2.1323 -1.2875
   17CHTO   N19 6807   6.043   6.262   6.784  0.1852  0.6572  0.0792
   17CHTO  H207 6808   6.002   6.355   6.822 -1.8121 -0.7454  1.4810
   17CHTO  H208 6809   5.955   6.204   6.760 -0.0079  0.8431  0.3215
   17CHTO   O74 6810   6.465   6.324   7.077  0.0678 -0.3783 -0.1241
   17CHTO  C115 6811   6.478   6.368   7.215 -0.5907  0.3689 -0.5109
   17CHTO  H219 6812   6.396   6.335   7.279 -0.9109 -0.3951 -1.3054
   17CHTO   O76 6813   6.611   6.295   7.286  0.0532  0.5336  0.4312
   17CHTO  C122 6814   6.734   6.341   7.232  0.6674  0.9800  0.0997
   17CHTO  H226 6815   6.744   6.328   7.124 -1.4305 -0.2143  0.0247
   17CHTO  C126 6816   6.855   6.256   7.298  0.3818  0.7034 -0.0613
   17CHTO   O85 6817   6.989   6.295   7.261 -0.2390 -0.1074  0.0183
   17CHTO  H206 6818   7.017   6.259   7.179 -2.3048 -0.5413 -0.5237
   17CHTO  C121 6819   6.749   6.494   7.262 -0.6265  0.2066  0.1580
   17CHTO  H225 6820   6.829   6.508   7.337  0.7513  2.6733 -1.7034
   17CHTO   O81 6821   6.792   6.556   7.136 -0.5350 -0.1874 -0.1274
   17CHTO  H202 6822   6.865   6.509   7.101  0.5153  0.9979  0.3977
   17CHTO  C119 6823   6.617   6.565   7.314  0.8112 -0.0905  0.4802
   17CHTO  H223 6824   6.600   6.532   7.416  1.4132  0.0002  0.6107
   17CHTO  C117 6825   6.499   6.523   7.217  0.2255 -0.3897  0.1056
   17CHTO  H221 6826   6.522   6.544   7.113 -1.8152  1.6209  0.0066
   17CHTO   N20 6827   6.366   6.594   7.245 -0.3881  0.2066 -0.1390
   17CHTO  H209 6828   6.384   6.689   7.293  0.8373  0.6173 -1.3835
   17CHTO  H210 6829   6.304   6.535   7.310 -0.2528 -1.3489 -1.4051
   17CHTO   O80 6830   6.645   6.722   7.337 -0.4035 -0.2072 -0.4323
   17CHTO  C103 6831   6.650   6.774   7.476  0.0913 -0.5454 -0.1605
   17CHTO  H190 6832   6.567   6.735   7.535 -0.9101  0.7703 -0.6860
   17CHTO  C101 6833   6.776   6.742   7.555 -0.8306  0.2479  0.3373
   17CHTO  H188 6834   6.857   6.771   7.488 -1.1365 -1.5525 -0.8632
   17CHTO   O68 6835   6.789   6.595   7.584  0.1768 -0.1025 -0.3684
   17CHTO  H168 6836   6.881   6.574   7.587  0.1703 -0.0152  0.5765
   17CHTO   C99 6837   6.794   6.830   7.688 -0.9171  0.4212  0.1395
   17CHTO  H186 6838   6.719   6.803   7.764 -1.4402 -4.0409 -1.8021
   17CHTO   N17 6839   6.931   6.813   7.753  0.6387 -0.3595 -0.2451
   17CHTO  H174 6840   7.000   6.887   7.716  2.1598 -1.2048  0.8271
   17CHTO  H175 6841   6.928   6.833   7.859  0.2389  2.7034 -0.7945
   17CHTO   C97 6842   6.760   6.975   7.653 -0.7201 -0.2116  0.6178
   17CHTO  H184 6843   6.835   7.017   7.584 -0.9378  1.9505  1.6605
   17CHTO   O64 6844   6.630   6.987   7.597 -0.3134  0.1604 -0.2029
   17CHTO  C104 6845   6.631   6.933   7.469 -0.2814  0.2572 -0.1937
   17CHTO  H191 6846   6.710   6.976   7.407  0.2585  0.5543  0.6747
   17CHTO  C108 6847   6.497   6.974   7.410 -0.2730 -0.2450  0.7987
   17CHTO   O71 6848   6.394   6.951   7.504  0.4360 -0.1478 -0.1219
   17CHTO  H171 6849   6.313   6.942   7.459  0.0352  1.1219  0.3156
   17CHTO   O62 6850   6.753   7.050   7.778  0.4669 -0.2152  0.2791
   17CHTO   C91 6851   6.829   7.171   7.785  0.3382  0.4891  0.2876
   17CHTO  H178 6852   6.926   7.150   7.738  0.1040  1.5287 -0.6675
   17CHTO   C92 6853   6.862   7.204   7.934 -0.0690  0.5637 -0.5650
   17CHTO  H179 6854   6.888   7.110   7.986  0.4191 -0.4732 -2.6250
   17CHTO   O66 6855   6.990   7.274   7.926  1.3045  0.2942  0.5551
   17CHTO  H166 6856   7.037   7.279   8.007 -1.2482 -1.5668  2.2460
   17CHTO   C93 6857   6.753   7.290   8.017  0.4465 -0.1716  0.5576
   17CHTO  H180 6858   6.812   7.335   8.099  3.7502  0.0853 -1.8455
   17CHTO   N16 6859   6.642   7.205   8.075  0.3717 -0.3473 -0.5539
   17CHTO  H172 6860   6.656   7.110   8.124 -0.0210  0.0135  0.2566
   17CHTO  H173 6861   6.585   7.271   8.139 -1.8521 -2.3307 -0.4318
   17CHTO   C94 6862   6.688   7.404   7.927 -0.2908  0.3631  0.4229
   17CHTO  H181 6863   6.586   7.380   7.896  0.5332  0.1475 -2.2453
   17CHTO   O61 6864   6.762   7.413   7.800 -0.2044 -0.1493  0.6588
   17CHTO   C95 6865   6.754   7.294   7.720  0.0927  0.6448  0.5657
   17CHTO  H182 6866   6.649   7.274   7.699  0.4071 -0.3505 -0.1186
   17CHTO  C106 6867   6.816   7.321   7.585  0.2777  0.0947 -0.9404
   17CHTO   O69 6868   6.949   7.370   7.604 -0.1815  0.0777 -0.1311
   17CHTO  H169 6869   6.978   7.373   7.515  0.7596  3.3196  0.2391
   17CHTO   O63 6870   6.679   7.532   7.986 -0.2117 -0.6879  0.4271
   17CHTO   C96 6871   6.554   7.556   8.055  0.1795 -0.3242 -0.1662
   17CHTO  H183 6872   6.507   7.461   8.078 -0.5622 -0.0982 -0.7238
   17CHTO   C98 6873   6.452   7.640   7.971 -1.1380  0.1122 -0.3767
   17CHTO  H185 6874   6.494   7.741   7.957  1.0192 -0.7569 -0.3950
   17CHTO   O67 6875   6.440   7.586   7.837 -0.0803 -0.4332  0.3722
   17CHTO  H167 6876   6.521   7.599   7.791  0.1414 -1.1674  0.5515
   17CHTO  C102 6877   6.304   7.653   8.040  0.8797  0.3088 -0.0912
   17CHTO  H189 6878   6.262   7.551   8.040  0.2705  0.5588 -0.7121
   17CHTO   N18 6879   6.200   7.730   7.968 -0.2797  0.3343 -0.4926
   17CHTO  H176 6880   6.216   7.709   7.863  0.9164 -0.5412 -0.1520
   17CHTO  H177 6881   6.103   7.693   7.996  0.2411 -0.0389  0.8348
   17CHTO  C105 6882   6.333   7.698   8.189 -0.5920 -0.4675  1.2315
   17CHTO  H192 6883   6.337   7.807   8.192  0.1224 -0.5241  2.6524
   17CHTO   O65 6884   6.454   7.644   8.255 -0.5032 -0.3316 -0.2243
   17CHTO  C100 6885   6.576   7.644   8.183 -0.7068  0.3076  0.3287
   17CHTO  H187 6886   6.615   7.739   8.146 -0.8369 -0.1567 -0.9989
   17CHTO  C107 6887   6.688   7.589   8.276 -0.1079  0.1415  0.1717
   17CHTO   O70 6888   6.727   7.678   8.381  0.0449  0.0184 -0.2496
   17CHTO  H170 6889   6.723   7.768   8.357 -2.4086  0.0492  0.1607
   17CHTO   O57 6890   6.198   7.637   8.259 -0.3079 -0.0297  0.2651
   17CHTO   C85 6891   6.123   7.713   8.359 -0.9583  0.8857 -0.1430
   17CHTO  H157 6892   6.122   7.817   8.322  1.4898  0.3755 -1.7414
   17CHTO   C83 6893   6.216   7.734   8.491  0.6457 -0.4812  0.3000
   17CHTO  H155 6894   6.305   7.793   8.469 -0.1468  1.1826  1.4203
   17CHTO   O56 6895   6.271   7.611   8.527  0.0292 -0.0020  0.6165
   17CHTO  H135 6896   6.311   7.622   8.612 -0.3961  1.0599  0.6887
   17CHTO   C81 6897   6.133   7.811   8.595  0.9079  0.0886  0.5825
   17CHTO  H153 6898   6.108   7.909   8.554  1.8782 -0.1022 -0.4930
   17CHTO   N14 6899   6.215   7.848   8.713  0.1274  0.2605 -0.0050
   17CHTO  H141 6900   6.181   7.941   8.754 -1.5637 -0.6051  0.5964
   17CHTO  H142 6901   6.205   7.773   8.789  0.6342  0.3556  0.1575
   17CHTO   C79 6902   5.999   7.741   8.633 -0.5408  0.3724 -0.5596
   17CHTO  H151 6903   5.944   7.806   8.703  0.8409  0.1085  0.8003
   17CHTO   O52 6904   5.914   7.728   8.516 -0.4171  0.1402  0.1357
   17CHTO   C86 6905   5.972   7.665   8.397  0.4579  0.1463 -1.2185
   17CHTO  H158 6906   5.966   7.555   8.409  0.8332  0.2978  0.4470
   17CHTO   C90 6907   5.873   7.704   8.286  0.5529  0.6416  0.4999
   17CHTO   O60 6908   5.883   7.609   8.175  0.2525  0.4889  0.1567
   17CHTO  H138 6909   5.819   7.543   8.189 -0.5387  0.9013 -1.4081
   17CHTO   O50 6910   6.016   7.613   8.697  0.1851  0.4275  0.5020
   17CHTO   C73 6911   5.941   7.548   8.797 -0.2995 -0.0676  0.5690
   17CHTO  H145 6912   5.895   7.623   8.863 -0.1168  0.2810  0.3026
   17CHTO   C74 6913   6.034   7.466   8.889 -1.0853 -0.2876  0.1468
   17CHTO  H146 6914   6.118   7.527   8.927  0.8056 -2.9931  0.4968
   17CHTO   O54 6915   5.951   7.429   9.006  0.0999 -0.5301 -0.0488
   17CHTO  H133 6916   5.979   7.344   9.035  0.9759 -0.4546 -0.6461
   17CHTO   C75 6917   6.091   7.349   8.804 -0.0893 -0.0881 -0.1439
   17CHTO  H147 6918   6.170   7.391   8.740  0.0440  0.8033  0.5935
   17CHTO   N13 6919   6.163   7.245   8.887 -0.0896 -0.0877 -0.1743
   17CHTO  H139 6920   6.201   7.288   8.978 -0.9794  1.6958 -0.6170
   17CHTO  H140 6921   6.088   7.173   8.917  1.5501 -0.4007  3.4679
   17CHTO   C76 6922   5.975   7.276   8.713 -0.3370  0.3721  0.2800
   17CHTO  H148 6923   5.916   7.212   8.779 -1.5455  1.9602  0.7667
   17CHTO   O49 6924   5.888   7.364   8.635 -0.1746  0.3480 -0.0097
   17CHTO   C77 6925   5.834   7.454   8.732  0.1866 -0.1592  0.2863
   17CHTO  H149 6926   5.789   7.401   8.816 -0.7010 -0.0826 -0.1446
   17CHTO   C88 6927   5.724   7.546   8.669  0.0127  0.4982 -0.4100
   17CHTO   O58 6928   5.583   7.484   8.676  0.1378  0.5255 -0.5370
   17CHTO  H136 6929   5.522   7.528   8.732  0.8186  1.4605 -0.5218
   17CHTO   O51 6930   6.045   7.198   8.589 -0.1248 -0.5271  0.2763
   17CHTO   C78 6931   5.943   7.096   8.509  0.0899 -0.6639  0.0657
   17CHTO  H150 6932   5.837   7.126   8.517 -0.4978 -2.9185  1.2754
   17CHTO   C80 6933   5.948   6.953   8.572 -0.0259  0.3423 -0.1053
   17CHTO  H152 6934   6.054   6.921   8.570  0.8309  3.0682 -0.4900
   17CHTO   O55 6935   5.909   6.960   8.712 -0.0068  0.9651  0.3748
   17CHTO  H134 6936   5.852   7.034   8.722 -0.8002  0.7418 -2.2245
   17CHTO   C84 6937   5.851   6.862   8.495 -0.2571  0.5098 -0.4412
   17CHTO  H156 6938   5.750   6.901   8.502 -0.3713  0.5117 -1.8493
   17CHTO   N15 6939   5.849   6.723   8.553  0.2108 -0.6234  0.1852
   17CHTO  H143 6940   5.948   6.684   8.568  0.8552  0.9699  0.1923
   17CHTO  H144 6941   5.802   6.733   8.649  1.0208  0.2573  0.4960
   17CHTO   C87 6942   5.878   6.850   8.343 -0.1960 -0.1326 -0.6057
   17CHTO  H159 6943   5.972   6.800   8.319  0.4475  0.5479  0.4613
   17CHTO   O53 6944   5.900   7.011   8.285  0.3664  0.0164 -0.0273
   17CHTO   C82 6945   5.991   7.084   8.363  0.6930  0.3520  0.5282
   17CHTO  H154 6946   6.088   7.036   8.364  0.4314 -0.2017 -0.8116
   17CHTO   C89 6947   6.017   7.220   8.304  0.1280 -0.4788  0.7814
   17CHTO   O59 6948   5.905   7.289   8.264 -0.1662 -0.1293 -0.1098
   17CHTO  H137 6949   5.932   7.372   8.229 -0.5418 -0.2824 -0.7575
   17CHTO   O45 6950   5.761   6.776   8.271  0.6208  0.0777 -0.3509
   17CHTO   C67 6951   5.802   6.667   8.202 -0.6534  0.1979 -0.4404
   17CHTO  H124 6952   5.893   6.625   8.246 -1.3166  0.1346  0.8816
   17CHTO   C65 6953   5.704   6.553   8.201  0.1125  0.1646 -0.4751
   17CHTO  H122 6954   5.670   6.549   8.304  2.2574 -1.9180  0.1770
   17CHTO   O44 6955   5.769   6.434   8.156  0.1448 -0.9375 -0.1499
   17CHTO  H102 6956   5.747   6.412   8.067  2.5863 -1.0652 -0.7413
   17CHTO   C63 6957   5.565   6.584   8.127  0.0053 -0.3275  0.4337
   17CHTO  H120 6958   5.524   6.679   8.161 -0.0781  0.1259 -0.8889
   17CHTO   N11 6959   5.454   6.484   8.139  0.8935 -0.1121 -0.3301
   17CHTO  H108 6960   5.487   6.387   8.168  3.5612  0.4939 -1.2272
   17CHTO  H109 6961   5.399   6.510   8.227  1.1750  2.3947 -0.8647
   17CHTO   C61 6962   5.614   6.624   7.978 -0.3967 -0.1218  0.2133
   17CHTO  H118 6963   5.524   6.669   7.934 -0.0316  0.0691 -0.3329
   17CHTO   O40 6964   5.721   6.728   7.968 -0.3918  0.2189  0.2354
   17CHTO   C68 6965   5.840   6.716   8.056  0.5239  0.5651 -0.7474
   17CHTO  H125 6966   5.882   6.818   8.050  1.8238  0.1089  0.3498
   17CHTO   C72 6967   5.939   6.621   7.977  0.1366 -0.9294 -0.1989
   17CHTO   O48 6968   6.054   6.599   8.058  0.2908 -0.0522  0.3028
   17CHTO  H105 6969   6.099   6.680   8.071 -2.6433  1.7230 -0.2591
   17CHTO   O38 6970   5.647   6.523   7.889  0.0851  1.1711  0.2168
   17CHTO   C55 6971   5.609   6.509   7.749 -0.3286 -0.0265  0.4960
   17CHTO  H112 6972   5.662   6.427   7.699  0.4308 -0.2887  1.7168
   17CHTO   C56 6973   5.633   6.647   7.671 -0.1773 -0.6094 -0.2930
   17CHTO  H113 6974   5.568   6.722   7.719  1.2929  0.7262 -0.3352
   17CHTO   O42 6975   5.766   6.691   7.681  0.4196  0.3856  0.1479
   17CHTO  H100 6976   5.797   6.722   7.598  1.3083 -0.0094  0.3282
   17CHTO   C57 6977   5.580   6.629   7.518  0.1387 -0.7245 -0.0035
   17CHTO  H114 6978   5.649   6.561   7.468 -0.2012 -0.3958 -0.9376
   17CHTO   N10 6979   5.584   6.754   7.438  0.0646 -0.2620  0.2859
   17CHTO  H106 6980   5.594   6.737   7.332  0.9139  0.2595  0.2769
   17CHTO  H107 6981   5.647   6.834   7.474  0.4742 -0.6394  0.4181
   17CHTO   C58 6982   5.437   6.571   7.518  0.6104  0.1464 -0.4226
   17CHTO  H115 6983   5.367   6.645   7.564  0.3736 -0.1907 -0.2426
   17CHTO   O37 6984   5.420   6.453   7.595 -0.1028 -0.4405  0.7969
   17CHTO   C59 6985   5.459   6.469   7.734 -1.0140  0.5148 -0.5098
   17CHTO  H116 6986   5.403   6.546   7.788 -0.0355 -0.7589  2.4125
   17CHTO   C70 6987   5.443   6.337   7.808  0.6030  0.6235 -0.3612
   17CHTO   O46 6988   5.313   6.285   7.825  0.0097  0.0078  0.2246
   17CHTO  H103 6989   5.276   6.276   7.739  0.8974  1.4309 -0.3347
   17CHTO   O39 6990   5.384   6.537   7.373 -0.4454  0.0574  0.2754
   17CHTO   C60 6991   5.245   6.562   7.341  0.7869  1.0544 -0.6161
   17CHTO  H117 6992   5.200   6.611   7.427  1.6410  0.7959 -0.0097
   17CHTO   C62 6993   5.233   6.668   7.225  0.2346 -0.1443 -0.0399
   17CHTO  H119 6994   5.291   6.759   7.250  3.2084 -2.1287  0.5974
   17CHTO   O43 6995   5.289   6.620   7.100  0.2250  0.4081  0.8528
   17CHTO  H101 6996   5.383   6.624   7.099  0.2339  0.5474 -1.3912
   17CHTO   C66 6997   5.080   6.723   7.210  0.3757 -0.2907  0.1163
   17CHTO  H123 6998   5.056   6.767   7.307 -0.4044 -0.5776  0.0584
   17CHTO   N12 6999   5.066   6.833   7.104 -0.2828  0.0609  0.1950
   17CHTO  H110 7000   5.035   6.918   7.163  1.1713 -0.4121  1.6615
   17CHTO  H111 7001   5.155   6.853   7.047 -0.5614  0.2096 -0.1848
   17CHTO   C69 7002   4.987   6.596   7.181 -0.4608  0.2855 -0.1725
   17CHTO  H126 7003   5.018   6.553   7.084  2.6133  0.5433  0.6407
   17CHTO   O41 7004   5.002   6.490   7.286 -0.4949  0.0870 -0.0489
   17CHTO   C64 7005   5.155   6.443   7.311 -1.1153  0.1674 -0.4734
   17CHTO  H121 7006   5.179   6.385   7.219 -0.9304  0.2540 -0.4806
   17CHTO   C71 7007   5.157   6.346   7.432 -0.1899  0.0038 -0.5903
   17CHTO   O47 7008   5.106   6.215   7.398  0.4536 -0.2191  0.3205
   17CHTO  H104 7009   5.012   6.219   7.391  0.4975 -0.4948 -0.4963
   17CHTO   O34 7010   4.826   6.638   7.185  0.1674 -0.1886  0.0350
   17CHTO   C49 7011   4.683   6.682   7.264 -0.7170  0.2254 -0.0617
   17CHTO   H91 7012   4.677   6.790   7.247 -1.0556  0.3232  0.6742
   17CHTO   C47 7013   4.707   6.645   7.411 -0.7794  0.2729 -0.6732
   17CHTO   H89 7014   4.617   6.691   7.457 -0.2087 -1.3982  2.2501
   17CHTO   O33 7015   4.818   6.706   7.469 -0.3045 -0.1302  0.6194
   17CHTO   H70 7016   4.865   6.639   7.515  0.3179  0.1374  0.3797
   17CHTO   C45 7017   4.707   6.486   7.433  0.9875  0.4190  0.5391
   17CHTO   H87 7018   4.811   6.454   7.442  0.5620 -1.1608  0.0385
   17CHTO    N8 7019   4.628   6.447   7.554  0.1879 -0.3816  0.7369
   17CHTO   H75 7020   4.649   6.517   7.634 -0.5672 -0.3282  0.8941
   17CHTO   H76 7021   4.524   6.429   7.532  0.5400 -1.0577 -0.3873
   17CHTO   C43 7022   4.669   6.403   7.298 -0.2140 -0.2469  0.1030
   17CHTO   H85 7023   4.760   6.402   7.238  0.1041 -2.5182  0.5764
   17CHTO   O29 7024   4.560   6.461   7.230 -0.0925 -0.0827  0.0109
   17CHTO   C50 7025   4.567   6.602   7.205  0.8183 -0.3665  0.1154
   17CHTO   H92 7026   4.570   6.634   7.100  0.6661  0.9982  0.5151
   17CHTO   C54 7027   4.426   6.660   7.244  0.4827 -0.1455 -0.3199
   17CHTO   O36 7028   4.340   6.642   7.135 -0.0658 -0.5911 -0.6038
   17CHTO   H72 7029   4.354   6.705   7.067 -0.3640  1.2014  0.9593
   17CHTO   O27 7030   4.641   6.261   7.307 -0.4835  0.4380  0.1620
   17CHTO   C37 7031   4.732   6.151   7.328 -0.4154 -0.4114  0.1737
   17CHTO   H79 7032   4.827   6.183   7.373  0.2796 -0.7391 -1.0526
   17CHTO   C38 7033   4.670   6.054   7.431  0.4066  0.0925  0.4034
   17CHTO   H80 7034   4.570   6.032   7.393  0.6229  1.9927 -1.3799
   17CHTO   O31 7035   4.656   6.118   7.557 -0.4146  0.1964  0.2441
   17CHTO   H68 7036   4.631   6.062   7.628 -0.1241  2.0248  1.8029
   17CHTO   C39 7037   4.756   5.924   7.456  0.2256 -0.1786  0.5705
   17CHTO   H81 7038   4.848   5.958   7.505  0.4600 -0.5994  0.4236
   17CHTO    N7 7039   4.690   5.829   7.551 -0.9874  0.6731  0.1117
   17CHTO   H73 7040   4.742   5.735   7.558 -3.1490 -0.7263 -1.7691
   17CHTO   H74 7041   4.649   5.865   7.644 -0.9220 -2.1310  1.2670
   17CHTO   C40 7042   4.793   5.854   7.315 -0.4496 -0.6417  0.2836
   17CHTO   H82 7043   4.707   5.805   7.269 -0.9211 -0.0528  0.5173
   17CHTO   O26 7044   4.846   5.960   7.230 -0.4079 -0.0027 -0.1992
   17CHTO   C41 7045   4.768   6.078   7.195  0.2158  0.6452 -0.4934
   17CHTO   H83 7046   4.674   6.042   7.151  0.7547 -1.8414  0.3259
   17CHTO   C52 7047   4.848   6.170   7.096  0.4250  0.6279 -0.2188
   17CHTO   O35 7048   4.996   6.192   7.113  0.2880 -0.3958 -0.1986
   17CHTO   H71 7049   5.042   6.153   7.041 -0.9068  1.6292 -2.1131
   17CHTO   O28 7050   4.897   5.753   7.315 -0.5115 -0.0396 -0.2274
   17CHTO   C42 7051   5.042   5.781   7.320 -0.0152 -0.3669 -0.4151
   17CHTO   H84 7052   5.075   5.678   7.334  0.8894 -0.1621 -0.9910
   17CHTO   C44 7053   5.094   5.861   7.444 -0.8770 -0.8904  0.6730
   17CHTO   H86 7054   5.049   5.959   7.429  1.2308 -0.4693 -3.9095
   17CHTO   O32 7055   5.052   5.798   7.555 -0.5490  0.0964  0.6458
   17CHTO   H69 7056   4.959   5.790   7.567 -0.6877 -1.0030 -1.0844
   17CHTO   C48 7057   5.250   5.889   7.446 -0.0356  0.4035  0.2768
   17CHTO   H90 7058   5.303   5.796   7.468  1.6805  0.8141 -2.0299
   17CHTO    N9 7059   5.289   5.980   7.564  0.2202 -0.5970 -0.1333
   17CHTO   H77 7060   5.231   6.069   7.547  0.6334 -0.3430 -0.2016
   17CHTO   H78 7061   5.394   6.003   7.557 -0.4653  2.5441 -0.8550
   17CHTO   C51 7062   5.295   5.945   7.305 -0.1447  0.1128 -0.2485
   17CHTO   H93 7063   5.254   6.046   7.299  0.1361  0.3873  2.0972
   17CHTO   O30 7064   5.256   5.859   7.199 -0.1745  0.7258 -0.1402
   17CHTO   C46 7065   5.106   5.831   7.192 -0.3583 -0.2677  0.3199
   17CHTO   H88 7066   5.061   5.926   7.162  1.1872  0.0575 -1.0678
   17CHTO   C53 7067   5.074   5.736   7.070  0.0424  0.1314 -0.5385
   17CHTO   O72 7068   5.143   5.796   6.957 -0.5174  0.4973  0.3000
   17CHTO  H199 7069   5.108   5.880   6.935 -2.0574 -0.2260 -0.0450
   17CHTO   O22 7070   5.438   5.940   7.293 -0.0074  0.8421  0.1905
   17CHTO   C31 7071   5.529   6.036   7.220 -0.5536  0.0864 -0.3276
   17CHTO   H59 7072   5.629   5.986   7.219  0.4164  1.9750 -1.5379
   17CHTO   C29 7073   5.488   6.068   7.075  0.3454 -0.7713  0.3058
   17CHTO   H57 7074   5.380   6.087   7.082  0.1158 -0.7977 -2.4086
   17CHTO   O21 7075   5.487   5.951   6.989 -0.0786 -0.0176  0.6622
   17CHTO   H37 7076   5.458   5.974   6.903  1.8228 -1.2219 -0.3496
   17CHTO   C27 7077   5.562   6.191   7.010 -0.0546 -0.4263 -0.2332
   17CHTO   H55 7078   5.659   6.154   6.974 -1.4324 -1.0847 -3.5197
   17CHTO    N5 7079   5.494   6.237   6.892  0.5163  0.1233 -0.5484
   17CHTO   H43 7080   5.494   6.152   6.826  1.5967  1.7830 -2.7347
   17CHTO   H44 7081   5.393   6.260   6.921  0.7354  0.5570 -0.1196
   17CHTO   C25 7082   5.596   6.310   7.110  0.3723  0.1850 -0.1244
   17CHTO   H53 7083   5.506   6.373   7.122  0.0095 -0.2655 -0.4713
   17CHTO   O17 7084   5.642   6.242   7.234  0.0459 -0.0894 -0.3900
   17CHTO   C32 7085   5.550   6.166   7.298 -0.3275 -0.9094  0.0487
   17CHTO   H60 7086   5.452   6.215   7.297  0.5457  0.8879 -2.2986
   17CHTO   C36 7087   5.601   6.141   7.440  0.4308 -0.1826  0.1128
   17CHTO   O25 7088   5.638   6.254   7.516 -0.0156 -0.1622 -0.2235
   17CHTO   H40 7089   5.715   6.288   7.477  0.3240 -1.4053 -0.6464
   17CHTO   O15 7090   5.696   6.401   7.051 -0.0283 -0.5095  0.2226
   17CHTO   C19 7091   5.742   6.533   7.040  0.4102  0.1596  0.1180
   17CHTO   H47 7092   5.807   6.527   6.951  0.0477 -1.5927 -0.0379
   17CHTO   C20 7093   5.632   6.633   7.025 -0.2778  0.8994 -0.1660
   17CHTO   H48 7094   5.569   6.636   7.115  0.8454  0.9653  0.6247
   17CHTO   O19 7095   5.560   6.602   6.902  0.3398  0.0854 -0.6150
   17CHTO   H35 7096   5.473   6.637   6.905  0.2426  0.0961 -2.7446
   17CHTO   C21 7097   5.669   6.786   7.009 -0.2325  0.0955 -0.7696
   17CHTO   H49 7098   5.710   6.804   6.909  0.9786 -0.0378 -0.3014
   17CHTO    N4 7099   5.557   6.880   7.024 -0.4867  0.1943 -0.1852
   17CHTO   H41 7100   5.467   6.825   7.049 -0.2427 -1.7608 -3.3774
   17CHTO   H42 7101   5.543   6.930   6.930  1.9006  1.1278 -0.0757
   17CHTO   C22 7102   5.781   6.812   7.115 -0.3360 -0.4856 -0.7476
   17CHTO   H50 7103   5.744   6.807   7.217  0.5691  1.7480 -0.2678
   17CHTO   O14 7104   5.885   6.714   7.107  0.2523  0.1116  0.0687
   17CHTO   C23 7105   5.836   6.582   7.153  0.9849 -0.1075 -0.3854
   17CHTO   H51 7106   5.781   6.597   7.247  0.7598  1.0037 -0.6765
   17CHTO   C34 7107   5.951   6.481   7.178 -0.2994  0.2731 -0.5875
   17CHTO   O23 7108   6.050   6.535   7.266 -0.2964  0.3578  0.8104
   17CHTO   H38 7109   6.112   6.469   7.292 -1.4988 -0.6414  1.1769
   17CHTO   O16 7110   5.856   6.939   7.095 -0.0728  0.5523  0.4235
   17CHTO   C24 7111   5.906   7.001   7.233 -0.3564 -0.6233 -0.2243
   17CHTO   H52 7112   5.905   6.928   7.314  3.4125  0.4109  0.9019
   17CHTO   C26 7113   5.824   7.132   7.256 -0.0124 -0.4406 -0.1223
   17CHTO   H54 7114   5.830   7.196   7.165  0.5373  2.2273  1.7224
   17CHTO   O20 7115   5.685   7.088   7.266  0.7903  0.3217 -0.1974
   17CHTO   H36 7116   5.661   7.018   7.208 -0.3367  1.0037 -0.5814
   17CHTO   C30 7117   5.879   7.208   7.379  1.0923  0.4745  0.0494
   17CHTO   H58 7118   5.845   7.162   7.473 -1.4361  0.2587 -0.9524
   17CHTO    N6 7119   5.828   7.349   7.381  0.2689 -0.3544  0.1430
   17CHTO   H45 7120   5.725   7.345   7.413 -0.1347  2.4073 -0.7099
   17CHTO   H46 7121   5.834   7.398   7.285  0.2555  0.6140  0.6354
   17CHTO   C33 7122   6.037   7.213   7.383  0.4788  0.0626  0.0446
   17CHTO   H61 7123   6.065   7.293   7.313  0.6479 -0.1311 -0.1097
   17CHTO   O18 7124   6.104   7.088   7.351  0.8124 -0.8559  0.5233
   17CHTO   C28 7125   6.063   7.041   7.224 -0.0366 -0.1045 -0.4868
   17CHTO   H56 7126   6.084   7.125   7.158  0.7632  3.2284  3.7906
   17CHTO   C35 7127   6.146   6.910   7.189  0.0459 -0.1387 -0.2366
   17CHTO   O24 7128   6.285   6.914   7.172  0.0250  0.3908  0.0687
   17CHTO   H39 7129   6.325   6.838   7.209  0.7884  0.7288 -0.0452
   17CHTO    O9 7130   6.068   7.257   7.515  0.0448  0.2414  0.0903
   17CHTO   C13 7131   6.214   7.284   7.548 -0.0651  1.1274 -0.7824
   17CHTO   H26 7132   6.278   7.262   7.460 -0.3952 -2.7119 -0.1553
   17CHTO   C11 7133   6.258   7.187   7.670 -0.3787 -0.2430  0.4441
   17CHTO   H24 7134   6.363   7.159   7.650 -0.6543 -1.1033  0.1824
   17CHTO    O8 7135   6.167   7.075   7.670  0.6496  0.2769  0.4652
   17CHTO    H3 7136   6.156   7.032   7.752  0.4748 -0.8298 -0.1265
   17CHTO    C9 7137   6.265   7.255   7.808 -0.1570 -0.4343 -0.2336
   17CHTO   H22 7138   6.365   7.301   7.806 -1.0431  1.5300 -0.5785
   17CHTO    N2 7139   6.281   7.167   7.930  0.3623 -0.1320 -0.0691
   17CHTO   H10 7140   6.343   7.082   7.906  0.7823  0.0803  0.2482
   17CHTO   H11 7141   6.187   7.131   7.967 -1.7992  1.5571 -3.5804
   17CHTO    C7 7142   6.163   7.370   7.814 -0.4253 -0.1266  0.4473
   17CHTO   H20 7143   6.180   7.413   7.914 -1.0601 -1.6281  1.2094
   17CHTO    O4 7144   6.185   7.476   7.719 -0.3939  0.0225  0.4217
   17CHTO   C14 7145   6.232   7.432   7.591 -0.1516 -0.2295  0.0019
   17CHTO   H27 7146   6.342   7.446   7.597 -0.0975 -1.2242  1.5416
   17CHTO   C18 7147   6.175   7.522   7.479 -0.0094  0.2313  0.1658
   17CHTO   O13 7148   6.242   7.650   7.475 -0.1624 -0.0614 -0.0793
   17CHTO    H7 7149   6.222   7.699   7.398  1.4717 -1.1621 -1.2463
   17CHTO    O2 7150   6.021   7.320   7.787 -0.4293  0.5348 -0.0098
   17CHTO    C1 7151   5.924   7.323   7.893  0.8623  0.1334 -0.1781
   17CHTO   H14 7152   5.968   7.340   7.994  1.6426  1.6647 -0.7617
   17CHTO    C2 7153   5.861   7.176   7.895  0.0472 -0.2900  0.2602
   17CHTO   H15 7154   5.835   7.150   7.792  0.7148 -0.1933  0.0632
   17CHTO    O6 7155   5.959   7.078   7.928 -0.1626  0.1573 -0.4833
   17CHTO    H1 7156   6.020   7.071   7.856 -0.1675 -2.3366 -0.2684
   17CHTO    C3 7157   5.733   7.166   7.991  0.2994 -0.2851 -1.1826
   17CHTO   H16 7158   5.763   7.159   8.097 -0.0622  0.9514 -0.9905
   17CHTO    N1 7159   5.650   7.046   7.967 -0.4001  0.1086 -0.5073
   17CHTO    H8 7160   5.604   7.052   7.870  0.2969  1.8236 -0.7571
   17CHTO    H9 7161   5.583   7.035   8.051  0.3701 -2.0520 -0.1329
   17CHTO    C4 7162   5.639   7.289   7.981 -0.3951  0.2076  0.2954
   17CHTO   H17 7163   5.577   7.282   7.892 -2.3342 -0.2651  1.6352
   17CHTO    O1 7164   5.714   7.417   7.978  0.3456  0.3141 -0.1076
   17CHTO    C5 7165   5.813   7.424   7.865 -0.7016  0.0553  0.2093
   17CHTO   H18 7166   5.770   7.401   7.767  2.1245 -1.1695 -0.7751
   17CHTO   C16 7167   5.872   7.570   7.867  0.1664  0.8251  0.2748
   17CHTO   O11 7168   5.775   7.668   7.843 -0.5999 -0.1298  0.4027
   17CHTO    H5 7169   5.797   7.744   7.793  4.1788 -1.4591  0.2219
   17CHTO    O3 7170   5.547   7.290   8.095 -0.0337  1.3214 -0.4042
   17CHTO    C6 7171   5.474   7.415   8.135  0.0627 -0.1100  0.4146
   17CHTO   H19 7172   5.525   7.505   8.099 -0.0193  0.6962  2.2403
   17CHTO    C8 7173   5.338   7.425   8.075 -0.5043  0.6505  1.0687
   17CHTO   H21 7174   5.276   7.344   8.113 -0.0461  0.7686  2.0748
   17CHTO    O7 7175   5.349   7.411   7.933 -0.2586 -1.0381  0.2664
   17CHTO    H2 7176   5.401   7.485   7.905  0.5653 -1.4434  0.7013
   17CHTO   C12 7177   5.262   7.553   8.121 -0.5432  0.0646  0.3645
   17CHTO   H25 7178   5.320   7.639   8.082 -1.3057  0.8877  1.0192
   17CHTO    N3 7179   5.119   7.564   8.074 -0.0902 -1.0595 -0.3111
   17CHTO   H12 7180   5.118   7.640   7.998 -0.5173 -1.7894 -1.0428
   17CHTO   H13 7181   5.049   7.596   8.149 -2.0744 -1.0419 -2.1301
   17CHTO   C15 7182   5.270   7.560   8.280  0.4048  0.5687  0.7445
   17CHTO   H28 7183   5.213   7.483   8.332 -1.7083  0.5712 -1.5028
   17CHTO   O10 7184   5.232   7.700   8.341  0.1057 -0.2649 -0.7029
   17CHTO    H4 7185   5.183   7.750   8.278  0.0211  0.7782  0.1690
   17CHTO    O5 7186   5.408   7.561   8.327 -0.0141 -0.2119 -0.0756
   17CHTO   C10 7187   5.466   7.426   8.293 -0.2364 -0.9441  0.3637
   17CHTO   H23 7188   5.395   7.355   8.334 -0.8249 -0.3846  0.3319
   17CHTO   C17 7189   5.601   7.406   8.358 -0.4017 -0.1434 -0.0022
   17CHTO   O12 7190   5.647   7.272   8.352  0.0093  0.1463 -0.6711
   17CHTO    H6 7191   5.739   7.279   8.371 -0.0351  2.1044 -1.1457
   18CHTO  H203 7192   6.126   8.564   0.975  0.0029 -0.3236  0.2400
   18CHTO   O82 7193   6.151   8.517   0.898  0.1285  0.1897 -0.0394
   18CHTO  C123 7194   6.269   8.445   0.945  0.5228  0.1141  0.3385
   18CHTO  H227 7195   6.246   8.396   1.040  1.7792 -1.3764 -0.1053
   18CHTO   O77 7196   6.277   8.340   0.837  0.2876  0.1875 -0.4408
   18CHTO  C118 7197   6.385   8.242   0.861  0.5353  0.6099  0.5820
   18CHTO  H222 7198   6.381   8.196   0.961  3.0694 -0.4381  0.2493
   18CHTO  C125 7199   6.367   8.123   0.767 -0.0966 -0.1613  0.1504
   18CHTO   O84 7200   6.383   8.156   0.629 -0.4882 -0.1359 -0.4613
   18CHTO  H205 7201   6.462   8.204   0.619 -1.5784  1.5909 -1.0077
   18CHTO  C114 7202   6.517   8.320   0.843 -0.7370  0.3813  0.3433
   18CHTO  H218 7203   6.532   8.345   0.738 -1.2168  0.9903  0.4167
   18CHTO  C116 7204   6.535   8.437   0.939  0.1786 -0.5170 -0.0576
   18CHTO  H220 7205   6.567   8.411   1.042  1.0817 -0.3689 -0.2939
   18CHTO   O79 7206   6.652   8.515   0.889  0.6989  0.2509 -0.1925
   18CHTO  H201 7207   6.688   8.581   0.944 -0.7500  0.7235  0.2274
   18CHTO  C120 7208   6.400   8.527   0.947  0.1500  0.0874  0.0736
   18CHTO  H224 7209   6.403   8.585   0.852 -2.3171 -0.0133 -0.0829
   18CHTO   N21 7210   6.391   8.624   1.058  0.3984  0.9709  0.3447
   18CHTO  H211 7211   6.491   8.659   1.081  0.4082 -0.3127  2.4378
   18CHTO  H212 7212   6.325   8.707   1.037  0.8416  1.1765 -0.2302
   18CHTO   O75 7213   6.630   8.228   0.865  0.5069  0.2031 -0.5020
   18CHTO  C112 7214   6.786   8.259   0.812  0.2880 -0.0866  0.2899
   18CHTO  H216 7215   6.838   8.334   0.874  1.2395 -0.0404 -0.5547
   18CHTO   O73 7216   6.776   8.303   0.673 -0.1082  0.2859 -0.3622
   18CHTO  C113 7217   6.910   8.348   0.631  0.0510  0.2215  0.0729
   18CHTO  H217 7218   6.946   8.428   0.698  2.9568 -1.0376  0.0743
   18CHTO  C124 7219   6.910   8.417   0.494  0.0745  0.3644  0.5036
   18CHTO   O83 7220   6.863   8.551   0.504 -0.3226  1.0011 -0.3235
   18CHTO  H204 7221   6.913   8.601   0.442 -0.0750  1.6537  0.4051
   18CHTO  C109 7222   7.006   8.229   0.621 -0.7612  0.2180  0.1735
   18CHTO  H213 7223   6.958   8.154   0.557 -1.6601 -1.5653  2.8547
   18CHTO  C110 7224   7.022   8.167   0.764 -0.6166 -0.2295  0.4826
   18CHTO  H214 7225   7.081   8.238   0.822 -2.2197  2.1138 -0.6710
   18CHTO   O78 7226   7.099   8.046   0.755 -0.3759 -0.5409 -0.1452
   18CHTO  H200 7227   7.153   8.038   0.832 -0.2033  1.1563 -0.0708
   18CHTO  C111 7228   6.881   8.129   0.827  0.5263  0.0380  0.0508
   18CHTO  H215 7229   6.837   8.050   0.763 -0.7357  0.4660  0.3735
   18CHTO   N19 7230   6.887   8.083   0.964 -0.3013  0.8190  0.2315
   18CHTO  H207 7231   6.967   8.011   0.976 -0.3803  0.2504 -2.3670
   18CHTO  H208 7232   6.912   8.170   1.023  1.2595  1.8253 -1.8391
   18CHTO   O74 7233   7.143   8.265   0.568 -0.3303  0.1272  0.7804
   18CHTO  C115 7234   7.187   8.200   0.425  0.2172  0.3985 -0.3391
   18CHTO  H219 7235   7.139   8.104   0.404  1.9502 -0.9881  1.8937
   18CHTO   O76 7236   7.141   8.285   0.309  1.0388  0.0843  0.0047
   18CHTO  C122 7237   7.230   8.388   0.270  0.5061 -0.2746 -0.1430
   18CHTO  H226 7238   7.251   8.447   0.359  0.6878 -0.6852  0.0866
   18CHTO  C126 7239   7.167   8.496   0.166 -0.5253 -0.1173  0.7518
   18CHTO   O85 7240   7.053   8.553   0.234 -0.3218 -0.2503 -0.2971
   18CHTO  H206 7241   7.089   8.603   0.304 -0.4493 -1.3820  0.6020
   18CHTO  C121 7242   7.376   8.322   0.222  0.6904  0.1990 -0.1982
   18CHTO  H225 7243   7.373   8.312   0.112  2.0517  3.3023 -0.5795
   18CHTO   O81 7244   7.487   8.406   0.247 -0.1436 -0.0240 -0.1614
   18CHTO  H202 7245   7.547   8.405   0.175  1.1276 -1.0279  0.9026
   18CHTO  C119 7246   7.413   8.181   0.291 -0.3152 -0.0619  0.6744
   18CHTO  H223 7247   7.361   8.108   0.230 -0.5715  1.2357 -0.7123
   18CHTO  C117 7248   7.350   8.178   0.432 -0.1837 -0.2086 -0.8233
   18CHTO  H221 7249   7.390   8.258   0.493  1.9212 -0.8931 -1.2785
   18CHTO   N20 7250   7.375   8.053   0.502 -0.8394 -0.7781  0.6534
   18CHTO  H209 7251   7.478   8.025   0.485 -1.5165 -2.7685 -0.2761
   18CHTO  H210 7252   7.316   7.976   0.455 -0.1004 -0.8186 -0.2150
   18CHTO   O80 7253   7.575   8.132   0.275 -1.0290 -0.3736  0.0127
   18CHTO  C103 7254   7.622   8.044   0.146 -0.4620 -0.4872  0.5985
   18CHTO  H190 7255   7.729   8.027   0.152 -0.2974  0.3573  0.1011
   18CHTO  C101 7256   7.543   7.907   0.142 -0.5262 -0.2204 -0.3001
   18CHTO  H188 7257   7.436   7.916   0.158 -0.6528 -0.2859 -1.0855
   18CHTO   O68 7258   7.594   7.812   0.255 -0.0496 -0.5564  0.2776
   18CHTO  H168 7259   7.556   7.728   0.237 -0.4846 -0.3045  0.0181
   18CHTO   C99 7260   7.558   7.829  -0.001  0.0625  0.1396  0.0216
   18CHTO  H186 7261   7.662   7.801  -0.027 -0.2911 -1.4122  0.2542
   18CHTO   N17 7262   7.489   7.700  -0.020  0.3072  0.7512  0.9540
   18CHTO  H174 7263   7.512   7.649   0.073 -0.5080  1.5472  1.5915
   18CHTO  H175 7264   7.543   7.658  -0.104  1.4731  2.8775  0.6145
   18CHTO   C97 7265   7.516   7.919  -0.117 -0.1270 -0.5127 -0.3427
   18CHTO  H184 7266   7.412   7.945  -0.094 -0.9133 -3.7686 -0.0438
   18CHTO   O64 7267   7.606   8.035  -0.107 -0.3080 -0.1525  0.7073
   18CHTO  C104 7268   7.591   8.115   0.012 -0.0948  0.0348 -0.0202
   18CHTO  H191 7269   7.492   8.160   0.020  0.0938  0.3333  0.6188
   18CHTO  C108 7270   7.686   8.236   0.001 -0.0291  0.1907  0.7796
   18CHTO   O71 7271   7.654   8.324  -0.104  0.2736  0.2924  0.6514
   18CHTO  H171 7272   7.677   8.410  -0.075 -0.6593  1.8221 -3.0064
   18CHTO   O62 7273   7.536   7.870  -0.247  0.1314 -0.0493 -0.4552
   18CHTO   C91 7274   7.431   7.885  -0.339 -0.0337  0.3353  0.5281
   18CHTO  H178 7275   7.350   7.830  -0.290  1.6157 -2.5661  0.1075
   18CHTO   C92 7276   7.466   7.805  -0.469  0.4059 -0.8228  0.3841
   18CHTO  H179 7277   7.564   7.845  -0.499  0.3681 -0.7985  0.2973
   18CHTO   O66 7278   7.493   7.666  -0.435  0.3352 -0.4057 -0.0980
   18CHTO  H166 7279   7.521   7.616  -0.510 -0.0901 -1.0520  0.1657
   18CHTO   C93 7280   7.351   7.825  -0.575  0.3259  0.3338 -0.2850
   18CHTO  H180 7281   7.251   7.804  -0.532  0.7189  0.4635  0.7163
   18CHTO   N16 7282   7.366   7.742  -0.696 -0.3007  0.4542  0.2058
   18CHTO  H172 7283   7.453   7.681  -0.679 -0.4760  0.2320  0.3138
   18CHTO  H173 7284   7.280   7.686  -0.730  0.8956 -0.7959 -0.8169
   18CHTO   C94 7285   7.341   7.973  -0.615 -0.4661  0.0144  0.3063
   18CHTO  H181 7286   7.386   7.994  -0.712  2.8756 -0.3769  1.7224
   18CHTO   O61 7287   7.404   8.062  -0.517 -0.7502 -0.0421  0.6231
   18CHTO   C95 7288   7.410   8.037  -0.377  0.2251  0.5856  0.0822
   18CHTO  H182 7289   7.491   8.096  -0.333 -2.3602  2.1597  2.9105
   18CHTO  C106 7290   7.281   8.106  -0.309 -0.6098  0.4155  0.3402
   18CHTO   O69 7291   7.163   8.035  -0.351  0.3632 -0.0183 -0.2092
   18CHTO  H169 7292   7.083   8.065  -0.311  0.1695 -0.4136 -0.3033
   18CHTO   O63 7293   7.183   8.005  -0.619  0.4419 -0.4497  0.4446
   18CHTO   C96 7294   7.130   8.082  -0.761 -0.0174  0.2423 -0.2669
   18CHTO  H183 7295   7.021   8.074  -0.764 -0.0288  0.8104 -1.9964
   18CHTO   C98 7296   7.178   8.031  -0.892  0.3833 -0.2306  0.2659
   18CHTO  H185 7297   7.288   8.029  -0.892  0.4612  2.1174  0.7390
   18CHTO   O67 7298   7.138   7.893  -0.913 -0.4773 -0.4846 -0.4328
   18CHTO  H167 7299   7.146   7.865  -1.002  0.7654 -0.3505 -0.3740
   18CHTO  C102 7300   7.124   8.116  -1.017  0.2083 -1.2378  0.5042
   18CHTO  H189 7301   7.025   8.073  -1.035  0.6400 -2.4052  0.8762
   18CHTO   N18 7302   7.196   8.093  -1.144 -0.0077 -0.1804 -0.6141
   18CHTO  H176 7303   7.240   8.184  -1.184 -1.4090  1.6129  1.7797
   18CHTO  H177 7304   7.270   8.015  -1.130  0.7239  0.7613  0.9132
   18CHTO  C105 7305   7.121   8.264  -0.986 -0.3921 -0.9456  0.3564
   18CHTO  H192 7306   7.221   8.307  -0.995 -1.3588  0.9465 -1.8238
   18CHTO   O65 7307   7.071   8.295  -0.851 -0.0458  0.5959  0.3199
   18CHTO  C100 7308   7.152   8.234  -0.749 -0.1616 -0.9166 -0.4369
   18CHTO  H187 7309   7.259   8.254  -0.765 -0.5675  1.5456 -0.3488
   18CHTO  C107 7310   7.120   8.298  -0.609 -0.0391 -0.4010  0.9820
   18CHTO   O70 7311   7.138   8.438  -0.619 -0.2641  0.0785 -0.1035
   18CHTO  H170 7312   7.074   8.475  -0.677 -1.5138 -0.2948  1.0097
   18CHTO   O57 7313   7.032   8.337  -1.089  0.6488 -0.4620  0.0243
   18CHTO   C85 7314   7.042   8.481  -1.105  0.1376  0.0307 -0.4376
   18CHTO  H157 7315   7.152   8.495  -1.104  0.1653 -0.2022 -0.0976
   18CHTO   C83 7316   6.976   8.555  -0.981  0.0567  0.7245  0.1801
   18CHTO  H155 7317   7.042   8.546  -0.896 -0.3700  0.7703  0.5177
   18CHTO   O56 7318   6.854   8.493  -0.956  0.2158  0.4901 -0.3938
   18CHTO  H135 7319   6.869   8.427  -0.891  1.2933  3.1457  2.1166
   18CHTO   C81 7320   6.973   8.704  -1.019 -0.0905  0.5657 -0.6028
   18CHTO  H153 7321   7.073   8.741  -1.042 -0.7205  1.7286 -1.5322
   18CHTO   N14 7322   6.943   8.808  -0.916  0.7792 -0.0427 -0.1058
   18CHTO  H141 7323   6.955   8.781  -0.814  3.1248  2.0422  0.1926
   18CHTO  H142 7324   6.989   8.902  -0.934 -1.2026  0.9590 -0.1099
   18CHTO   C79 7325   6.885   8.731  -1.145  1.0123 -0.0105  0.0098
   18CHTO  H151 7326   6.897   8.837  -1.169  1.0200 -0.3448 -1.4861
   18CHTO   O52 7327   6.951   8.668  -1.261 -0.5037 -0.2794  0.0634
   18CHTO   C86 7328   6.978   8.527  -1.241 -0.0486 -0.5558 -1.0236
   18CHTO  H158 7329   6.878   8.480  -1.253  1.0381 -2.5447 -2.5517
   18CHTO   C90 7330   7.062   8.475  -1.356 -0.3048 -0.2734  0.0838
   18CHTO   O60 7331   7.194   8.529  -1.360 -0.2433  0.9042 -0.1914
   18CHTO  H138 7332   7.234   8.485  -1.432  0.0440  3.5353 -1.7311
   18CHTO   O50 7333   6.746   8.682  -1.127 -0.5551  0.3108  0.8549
   18CHTO   C73 7334   6.616   8.674  -1.173  0.1244 -0.5320  0.2769
   18CHTO  H145 7335   6.618   8.669  -1.283  3.5911 -1.5826  0.3448
   18CHTO   C74 7336   6.539   8.802  -1.150 -0.6056  0.3982 -1.1484
   18CHTO  H146 7337   6.598   8.888  -1.184  0.1896  0.1551 -0.4222
   18CHTO   O54 7338   6.425   8.804  -1.238  0.3968  0.2375  0.4497
   18CHTO  H133 7339   6.448   8.792  -1.328 -0.6646  2.4062 -0.1312
   18CHTO   C75 7340   6.503   8.816  -0.992 -0.4288  0.4600 -0.5259
   18CHTO  H147 7341   6.595   8.838  -0.935 -1.0290  1.6152  0.0172
   18CHTO   N13 7342   6.420   8.930  -0.959  0.3604  0.4454  0.0416
   18CHTO  H139 7343   6.444   9.016  -1.020  0.9362 -0.4160 -0.9532
   18CHTO  H140 7344   6.441   8.949  -0.855  0.1472  0.7041  0.0378
   18CHTO   C76 7345   6.436   8.683  -0.936  0.5232  0.1766 -0.4328
   18CHTO  H148 7346   6.338   8.682  -0.983 -0.9691  0.2853  2.5545
   18CHTO   O49 7347   6.524   8.572  -0.981  0.3422  0.0471 -0.0463
   18CHTO   C77 7348   6.546   8.544  -1.120 -0.5393  0.2220 -0.5706
   18CHTO  H149 7349   6.449   8.536  -1.169 -1.7238  1.1861  1.5622
   18CHTO   C88 7350   6.617   8.407  -1.128  0.2043  0.3161 -0.4904
   18CHTO   O58 7351   6.639   8.362  -1.258 -0.2951  0.0999 -0.1798
   18CHTO  H136 7352   6.728   8.382  -1.282  0.1486 -0.1315  1.2638
   18CHTO   O51 7353   6.418   8.688  -0.778 -0.1327  0.5818  0.5816
   18CHTO   C78 7354   6.286   8.600  -0.730 -0.3329  0.1938  0.3163
   18CHTO  H150 7355   6.278   8.500  -0.777 -0.1250  0.8684 -1.1712
   18CHTO   C80 7356   6.150   8.670  -0.753  0.6660 -0.6273  0.0098
   18CHTO  H152 7357   6.158   8.778  -0.733  2.9978 -0.6185 -0.8462
   18CHTO   O55 7358   6.134   8.662  -0.895 -0.0029  0.1145 -0.9076
   18CHTO  H134 7359   6.070   8.720  -0.932  1.5145  2.4694  0.0144
   18CHTO   C84 7360   6.030   8.602  -0.675  0.7496  0.0627  0.2353
   18CHTO  H156 7361   6.003   8.505  -0.718  2.0431 -0.4985  0.6765
   18CHTO   N15 7362   5.898   8.678  -0.692 -0.6228 -0.9964  0.4940
   18CHTO  H143 7363   5.916   8.761  -0.758  1.0563 -1.2128  0.6435
   18CHTO  H144 7364   5.867   8.717  -0.598 -1.3840  0.9818 -0.5453
   18CHTO   C87 7365   6.065   8.582  -0.532 -0.4929  0.2830  0.2877
   18CHTO  H159 7366   6.075   8.673  -0.474 -0.2459 -1.4679  3.0654
   18CHTO   O53 7367   6.187   8.498  -0.533  0.0815  0.4585 -0.0607
   18CHTO   C82 7368   6.304   8.565  -0.578 -0.6963 -0.9064 -0.3601
   18CHTO  H154 7369   6.310   8.658  -0.522  0.4181 -1.4206  0.3904
   18CHTO   C89 7370   6.424   8.481  -0.538 -0.1644 -0.7356 -0.3137
   18CHTO   O59 7371   6.462   8.507  -0.398 -0.0419  0.0088  0.0494
   18CHTO  H137 7372   6.519   8.580  -0.383 -0.1985  0.0043  0.6705
   18CHTO   O45 7373   5.953   8.493  -0.448  0.1404  0.4032 -0.5250
   18CHTO   C67 7374   5.947   8.531  -0.309 -0.2838 -0.2981  0.5834
   18CHTO  H124 7375   6.033   8.594  -0.288  0.5587 -0.9177 -0.9370
   18CHTO   C65 7376   5.814   8.610  -0.276 -0.2456  0.3582 -0.0130
   18CHTO  H122 7377   5.734   8.573  -0.340 -0.3517  0.8030 -0.1383
   18CHTO   O44 7378   5.834   8.752  -0.310  0.8749 -0.4901  0.1774
   18CHTO  H102 7379   5.755   8.778  -0.354 -0.1364  1.3928  3.0158
   18CHTO   C63 7380   5.760   8.577  -0.129 -0.0949 -0.8365  0.1092
   18CHTO  H120 7381   5.708   8.481  -0.129  1.0623 -1.4717  0.4203
   18CHTO   N11 7382   5.654   8.668  -0.073 -0.2122  0.1829  0.3969
   18CHTO  H108 7383   5.596   8.734  -0.134  0.4892 -1.1391 -1.7595
   18CHTO  H109 7384   5.587   8.605  -0.018 -0.6982 -0.8129 -1.2858
   18CHTO   C61 7385   5.886   8.556  -0.041  0.4375  0.0982  0.2575
   18CHTO  H118 7386   5.845   8.535   0.059  1.0518  0.8638  0.6776
   18CHTO   O40 7387   5.957   8.428  -0.083 -0.0667 -0.2085 -0.0447
   18CHTO   C68 7388   5.972   8.406  -0.224  0.1424  0.3148 -0.1856
   18CHTO  H125 7389   5.900   8.326  -0.251 -0.5565  0.9703 -0.2817
   18CHTO   C72 7390   6.108   8.346  -0.254 -0.2666 -0.6341 -0.1068
   18CHTO   O48 7391   6.144   8.225  -0.188  0.2842  0.4490 -0.2036
   18CHTO  H105 7392   6.176   8.240  -0.101 -0.6672  0.6436  0.1270
   18CHTO   O38 7393   5.967   8.673  -0.046 -0.4651 -0.0880 -0.7048
   18CHTO   C55 7394   6.074   8.693   0.048  0.2868  0.2263 -0.2166
   18CHTO  H112 7395   6.132   8.600   0.057  0.7650  0.5537  0.0897
   18CHTO   C56 7396   6.023   8.747   0.190 -0.7620 -0.1293  0.3469
   18CHTO  H113 7397   5.974   8.845   0.179 -1.7916 -0.7383 -0.5194
   18CHTO   O42 7398   5.923   8.655   0.246  0.1469  0.1040  0.0738
   18CHTO  H100 7399   5.955   8.567   0.246 -0.8241 -0.2538 -0.0724
   18CHTO   C57 7400   6.150   8.765   0.294 -0.4173 -0.0628 -0.4465
   18CHTO  H114 7401   6.188   8.663   0.301  1.5456  0.5831 -1.2589
   18CHTO   N10 7402   6.108   8.829   0.422 -0.0134 -0.9990 -0.4624
   18CHTO  H106 7403   6.171   8.791   0.501 -0.7958  0.1393  0.7063
   18CHTO  H107 7404   6.005   8.821   0.453 -0.3038 -0.3338 -1.2304
   18CHTO   C58 7405   6.272   8.846   0.227 -0.0127 -0.0021  0.1857
   18CHTO  H115 7406   6.247   8.954   0.226  0.2628  0.1036  2.5059
   18CHTO   O37 7407   6.288   8.800   0.092 -0.2135 -0.3527 -0.1178
   18CHTO   C59 7408   6.183   8.794  -0.001 -0.6142  0.9299  0.0335
   18CHTO  H116 7409   6.156   8.899  -0.013 -2.6943  0.3852 -0.3335
   18CHTO   C70 7410   6.236   8.752  -0.141  0.1985  0.9672 -1.2937
   18CHTO   O46 7411   6.144   8.798  -0.244 -0.0479  0.2477 -0.2523
   18CHTO  H103 7412   6.077   8.738  -0.271 -0.9247  1.0507  0.1056
   18CHTO   O39 7413   6.412   8.826   0.305 -0.6038  0.3592 -0.4157
   18CHTO   C60 7414   6.473   8.693   0.290 -0.0034 -0.0830  0.0595
   18CHTO  H117 7415   6.387   8.628   0.280 -1.6309  2.1395 -0.9052
   18CHTO   C62 7416   6.565   8.687   0.165 -0.0524 -0.1464  0.4837
   18CHTO  H119 7417   6.508   8.729   0.079  1.5905  1.0486 -0.0541
   18CHTO   O43 7418   6.681   8.771   0.179 -0.0469  0.2064  0.0963
   18CHTO  H101 7419   6.657   8.861   0.192  1.3344  0.4614  0.8998
   18CHTO   C66 7420   6.590   8.527   0.135  0.2320 -0.6302  0.2784
   18CHTO  H123 7421   6.493   8.479   0.120  0.2416 -0.7936  0.7221
   18CHTO   N12 7422   6.654   8.509   0.003  0.2896 -0.3106  0.3600
   18CHTO  H110 7423   6.744   8.569   0.002  0.8566 -1.1483  0.4977
   18CHTO  H111 7424   6.674   8.403  -0.002 -0.2521 -0.3245 -2.5012
   18CHTO   C69 7425   6.664   8.473   0.254 -0.2663 -0.7695 -0.3536
   18CHTO  H126 7426   6.761   8.526   0.264 -2.6255  3.7287 -0.0796
   18CHTO   O41 7427   6.595   8.492   0.389  0.1500  0.0863  0.7647
   18CHTO   C64 7428   6.551   8.645   0.413 -1.1652 -0.0410 -0.2003
   18CHTO  H121 7429   6.650   8.694   0.429 -1.5072  0.1226  1.5096
   18CHTO   C71 7430   6.457   8.650   0.532  0.6369 -0.2655  0.0566
   18CHTO   O47 7431   6.439   8.786   0.577 -0.0683  0.1843 -0.4316
   18CHTO  H104 7432   6.363   8.783   0.631  1.1263  1.2272  1.3591
   18CHTO   O34 7433   6.674   8.328   0.219  0.3480 -0.4965  0.7918
   18CHTO   C49 7434   6.698   8.158   0.220  0.2948  0.5471 -0.4927
   18CHTO   H91 7435   6.805   8.145   0.237 -0.0933 -0.8034  0.9410
   18CHTO   C47 7436   6.654   8.103   0.083  0.1448  0.0173 -0.1500
   18CHTO   H89 7437   6.687   7.997   0.094  0.4271  0.1903  0.7627
   18CHTO   O33 7438   6.735   8.180  -0.008 -0.1555 -0.1441  0.3295
   18CHTO   H70 7439   6.725   8.150  -0.096  3.7149  4.4115 -1.8495
   18CHTO   C45 7440   6.499   8.138   0.057 -0.7080  0.1288  0.5809
   18CHTO   H87 7441   6.490   8.239   0.013  0.0025 -0.9028 -1.9911
   18CHTO    N8 7442   6.452   8.044  -0.047 -0.5496 -0.7541  0.2274
   18CHTO   H75 7443   6.530   7.984  -0.091 -0.3515 -1.2537  1.2511
   18CHTO   H76 7444   6.386   8.081  -0.125 -0.3843 -0.7319  0.0984
   18CHTO   C43 7445   6.419   8.159   0.196 -0.2130  0.8923 -1.0293
   18CHTO   H85 7446   6.450   8.260   0.222  1.5326 -0.1405  1.1244
   18CHTO   O29 7447   6.471   8.063   0.293 -0.4126 -0.0840 -0.4999
   18CHTO   C50 7448   6.605   8.092   0.336 -0.0487 -0.2494  0.5974
   18CHTO   H92 7449   6.588   8.169   0.412 -1.3266  1.0460 -0.9653
   18CHTO   C54 7450   6.684   7.977   0.400 -0.5892 -1.0017  0.0196
   18CHTO   O36 7451   6.613   7.900   0.498 -0.0960  0.3792 -0.4176
   18CHTO   H72 7452   6.665   7.849   0.558 -0.9938 -1.6716 -1.3321
   18CHTO   O27 7453   6.277   8.180   0.171  0.0111  0.4198 -0.2916
   18CHTO   C37 7454   6.170   8.193   0.267  0.4656  0.6420  0.2774
   18CHTO   H79 7455   6.172   8.107   0.336 -2.0404 -0.0446 -0.4462
   18CHTO   C38 7456   6.174   8.322   0.350  0.2017  0.0729 -0.2615
   18CHTO   H80 7457   6.160   8.403   0.277  2.4926 -0.4014 -1.2972
   18CHTO   O31 7458   6.296   8.321   0.418  0.0577  0.0747 -0.0247
   18CHTO   H68 7459   6.329   8.408   0.413 -0.1248  0.1761  0.4397
   18CHTO   C39 7460   6.058   8.340   0.459 -0.7037 -0.2227 -0.1730
   18CHTO   H81 7461   6.074   8.276   0.546  0.6384  2.7861  1.8805
   18CHTO    N7 7462   6.055   8.470   0.522 -0.3683  0.0422 -0.1300
   18CHTO   H73 7463   6.012   8.546   0.457 -0.8964  1.2513  1.5958
   18CHTO   H74 7464   6.149   8.497   0.566 -2.0936  1.0169  3.1504
   18CHTO   C40 7465   5.915   8.296   0.395 -0.4026  0.1315  0.7327
   18CHTO   H82 7466   5.875   8.382   0.341  0.6384 -0.6644 -1.3502
   18CHTO   O26 7467   5.930   8.182   0.308  0.0023  0.0413  0.6248
   18CHTO   C41 7468   6.030   8.189   0.196 -0.3609 -0.2827  0.4523
   18CHTO   H83 7469   6.008   8.284   0.145 -0.8175 -0.8913 -0.4982
   18CHTO   C52 7470   6.009   8.071   0.094  0.1111 -0.0088  0.3346
   18CHTO   O35 7471   5.882   8.073   0.010 -0.4421  0.0107  0.1722
   18CHTO   H71 7472   5.815   8.091   0.073  0.7726  1.4637  1.1102
   18CHTO   O28 7473   5.820   8.263   0.494 -0.6390  0.6135 -0.0632
   18CHTO   C42 7474   5.686   8.209   0.460  0.6904  0.0214 -0.5773
   18CHTO   H84 7475   5.630   8.217   0.553 -0.9756 -0.1578 -1.5628
   18CHTO   C44 7476   5.682   8.057   0.431 -0.8878 -0.6254  0.4955
   18CHTO   H86 7477   5.752   8.036   0.350  2.2025 -0.7100  3.0604
   18CHTO   O32 7478   5.724   7.985   0.548 -0.0855  0.3457  0.5219
   18CHTO   H69 7479   5.817   7.976   0.561 -0.0516 -0.9386 -0.4469
   18CHTO   C48 7480   5.546   8.006   0.378  0.2748 -0.2445  0.1565
   18CHTO   H90 7481   5.482   8.014   0.465 -0.5667 -0.6689 -0.4171
   18CHTO    N9 7482   5.548   7.867   0.333 -0.0655  0.4762 -0.7948
   18CHTO   H77 7483   5.455   7.813   0.328 -0.2404  0.6621  0.3552
   18CHTO   H78 7484   5.628   7.816   0.386 -0.4020  1.1824  0.4195
   18CHTO   C51 7485   5.494   8.102   0.264 -0.8822 -0.2483  0.5140
   18CHTO   H93 7486   5.583   8.097   0.200 -0.3779  1.4469  1.0570
   18CHTO   O30 7487   5.473   8.235   0.320  0.1719  0.3995 -1.2076
   18CHTO   C46 7488   5.609   8.300   0.353 -0.5791 -0.3856  0.0701
   18CHTO   H88 7489   5.673   8.302   0.264 -0.7658  0.4821 -0.0547
   18CHTO   C53 7490   5.590   8.444   0.408  0.0159 -0.0228  0.2048
   18CHTO   O72 7491   5.492   8.451   0.512  0.7056  0.2261  0.2976
   18CHTO  H199 7492   5.402   8.459   0.488  0.9264  0.0846 -0.5679
   18CHTO   O22 7493   5.372   8.065   0.194 -0.3777  0.1788  0.1299
   18CHTO   C31 7494   5.353   8.101   0.053 -0.4857  0.0512  0.2542
   18CHTO   H59 7495   5.257   8.054   0.021 -0.1050 -1.2208  0.9641
   18CHTO   C29 7496   5.345   8.249   0.023  0.1516 -0.0336  0.1495
   18CHTO   H57 7497   5.430   8.298   0.072  0.6205 -0.8315  0.1352
   18CHTO   O21 7498   5.231   8.312   0.084 -0.3708 -0.2033  0.0934
   18CHTO   H37 7499   5.241   8.325   0.176  0.2295  1.2737 -0.1646
   18CHTO   C27 7500   5.351   8.284  -0.129  0.0750  0.2362 -0.4225
   18CHTO   H55 7501   5.259   8.248  -0.179  1.0305  0.2027 -2.1822
   18CHTO    N5 7502   5.357   8.431  -0.156  0.0037 -0.7365  0.1867
   18CHTO   H43 7503   5.286   8.487  -0.098  3.1432  2.8108  0.8438
   18CHTO   H44 7504   5.459   8.467  -0.148 -0.4672  1.3756 -2.4479
   18CHTO   C25 7505   5.471   8.205  -0.193 -0.6884 -0.3102  0.5623
   18CHTO   H53 7506   5.557   8.243  -0.136  1.0870 -2.4284 -0.6396
   18CHTO   O17 7507   5.449   8.062  -0.173  0.3129 -0.1312  0.1449
   18CHTO   C32 7508   5.466   8.029  -0.040 -0.9959 -0.5049 -0.7835
   18CHTO   H60 7509   5.567   8.047  -0.003 -1.5447  1.5822 -0.2068
   18CHTO   C36 7510   5.466   7.879  -0.036 -0.2453  0.2720  0.3156
   18CHTO   O25 7511   5.556   7.810  -0.126  1.0465 -0.0300 -0.5855
   18CHTO   H40 7512   5.637   7.795  -0.081  0.7916 -2.1214 -0.7626
   18CHTO   O15 7513   5.489   8.232  -0.332  0.2297 -0.4432 -0.2005
   18CHTO   C19 7514   5.568   8.205  -0.449  0.5328 -0.3927 -0.0636
   18CHTO   H47 7515   5.525   8.111  -0.487  2.1078 -0.8491 -0.7614
   18CHTO   C20 7516   5.568   8.307  -0.562  0.0900  0.9737 -0.3678
   18CHTO   H48 7517   5.621   8.400  -0.536 -1.9635  2.3389 -0.9575
   18CHTO   O19 7518   5.431   8.331  -0.597  0.4500  0.0112  0.4974
   18CHTO   H35 7519   5.428   8.417  -0.635 -0.5783 -0.0155  0.4893
   18CHTO   C21 7520   5.652   8.254  -0.693  1.1324 -0.1455  0.0635
   18CHTO   H49 7521   5.596   8.174  -0.741  1.2256 -0.3758  0.3330
   18CHTO    N4 7522   5.662   8.366  -0.790  0.3594 -0.2387 -0.5893
   18CHTO   H41 7523   5.710   8.448  -0.740 -0.9584 -1.2022  2.3635
   18CHTO   H42 7524   5.566   8.395  -0.830  0.7376  0.3102 -1.1186
   18CHTO   C22 7525   5.792   8.210  -0.642 -0.6773  0.3602 -0.0583
   18CHTO   H50 7526   5.855   8.294  -0.611  2.0814 -0.7460 -2.4889
   18CHTO   O14 7527   5.774   8.122  -0.530 -0.9145  0.1079  0.2287
   18CHTO   C23 7528   5.713   8.174  -0.421 -0.2099  0.3518  0.0382
   18CHTO   H51 7529   5.771   8.263  -0.390  1.7863 -0.8694 -0.0909
   18CHTO   C34 7530   5.758   8.072  -0.313  0.1590 -0.5196 -0.4415
   18CHTO   O23 7531   5.695   7.945  -0.331  0.1335 -0.4096  0.3280
   18CHTO   H38 7532   5.761   7.880  -0.316 -0.1720 -1.3554 -2.1173
   18CHTO   O16 7533   5.860   8.133  -0.746  0.0215 -0.4435 -0.3336
   18CHTO   C24 7534   6.020   8.147  -0.735 -0.1756  0.3725 -0.4322
   18CHTO   H52 7535   6.051   8.209  -0.651  1.7948 -0.8731 -0.2168
   18CHTO   C26 7536   6.081   8.206  -0.865  0.0825  0.1153 -0.1970
   18CHTO   H54 7537   6.071   8.134  -0.949  1.6787  0.0669 -0.3657
   18CHTO   O20 7538   6.010   8.333  -0.881 -0.0050  0.2217 -0.1806
   18CHTO   H36 7539   6.070   8.394  -0.920  1.4971 -1.3592 -0.3860
   18CHTO   C30 7540   6.235   8.224  -0.849 -0.4011 -0.2826  0.2195
   18CHTO   H58 7541   6.246   8.298  -0.769 -0.5124  0.3576 -0.3564
   18CHTO    N6 7542   6.290   8.273  -0.974  0.3257 -0.4484  0.3377
   18CHTO   H45 7543   6.244   8.210  -1.049  0.4838  0.8254 -0.8437
   18CHTO   H46 7544   6.397   8.260  -0.976  0.5654  1.3707  0.3063
   18CHTO   C33 7545   6.303   8.093  -0.802 -0.5600  0.1396  0.0537
   18CHTO   H61 7546   6.310   8.028  -0.890 -0.6393  0.1861  0.0127
   18CHTO   O18 7547   6.237   8.031  -0.695 -0.0762  0.2341 -0.1843
   18CHTO   C28 7548   6.096   8.017  -0.715  0.6822 -0.6370  0.6398
   18CHTO   H56 7549   6.075   7.959  -0.805 -1.7138 -0.8481  1.2814
   18CHTO   C35 7550   6.043   7.932  -0.593  0.1394 -0.2314 -0.2181
   18CHTO   O24 7551   6.061   7.995  -0.469  0.1285  0.3853 -0.4536
   18CHTO   H39 7552   6.007   7.959  -0.401  1.0356  0.4362  0.2951
   18CHTO    O9 7553   6.438   8.125  -0.769 -0.1251  0.0154  0.2964
   18CHTO   C13 7554   6.549   8.014  -0.810  0.0352 -0.1995  0.1007
   18CHTO   H26 7555   6.560   8.014  -0.921 -0.7943 -1.3199  0.0068
   18CHTO   C11 7556   6.519   7.866  -0.761 -0.0904 -0.1728 -0.1424
   18CHTO   H24 7557   6.439   7.825  -0.825  0.9771 -2.2967 -0.1797
   18CHTO    O8 7558   6.461   7.873  -0.632 -0.6566 -0.0335 -0.0891
   18CHTO    H3 7559   6.369   7.889  -0.642 -0.0837  2.7602 -1.5281
   18CHTO    C9 7560   6.640   7.772  -0.773  0.3310  0.0391 -0.2290
   18CHTO   H22 7561   6.674   7.778  -0.877  1.2746  2.1464  0.1711
   18CHTO    N2 7562   6.615   7.632  -0.742 -0.6659  0.4193 -0.1102
   18CHTO   H10 7563   6.582   7.582  -0.833  0.5590  0.9665 -0.8699
   18CHTO   H11 7564   6.533   7.633  -0.673 -1.6355 -0.7540 -1.2132
   18CHTO    C7 7565   6.752   7.827  -0.685 -0.3059 -0.2856  0.3013
   18CHTO   H20 7566   6.849   7.806  -0.734  0.1039  0.4754  0.7706
   18CHTO    O4 7567   6.745   7.969  -0.670 -0.2488  0.1434  0.0542
   18CHTO   C14 7568   6.692   8.058  -0.771 -0.0787  0.3489 -0.1996
   18CHTO   H27 7569   6.762   8.040  -0.856 -0.4935  2.1933 -0.9526
   18CHTO   C18 7570   6.715   8.196  -0.720 -0.7009  0.2480  0.1067
   18CHTO   O13 7571   6.706   8.288  -0.822  0.0551 -0.1614 -0.0614
   18CHTO    H7 7572   6.687   8.378  -0.809  1.8242  0.1826  0.2146
   18CHTO    O2 7573   6.759   7.763  -0.531  0.6348  0.0207  0.5066
   18CHTO    C1 7574   6.882   7.794  -0.459  0.1365 -0.3027 -0.1060
   18CHTO   H14 7575   6.941   7.875  -0.506  0.2007  0.0076  0.5074
   18CHTO    C2 7576   6.974   7.663  -0.443 -0.1716  0.7699  0.6127
   18CHTO   H15 7577   6.903   7.585  -0.412 -1.5737  1.2995 -1.1856
   18CHTO    O6 7578   7.038   7.642  -0.565 -0.3588  0.6305  0.2730
   18CHTO    H1 7579   6.992   7.588  -0.626  1.8333 -1.1027  0.0698
   18CHTO    C3 7580   7.090   7.695  -0.339 -0.9234  0.3424 -0.2712
   18CHTO   H16 7581   7.153   7.775  -0.380 -1.0387  0.0931 -0.9364
   18CHTO    N1 7582   7.189   7.582  -0.315 -0.1854 -0.3366  0.0944
   18CHTO    H8 7583   7.282   7.636  -0.305 -1.7845  2.5293  0.1454
   18CHTO    H9 7584   7.164   7.523  -0.228  0.0908  0.8269  0.9721
   18CHTO    C4 7585   7.027   7.749  -0.208 -0.1429 -0.4032  0.3368
   18CHTO   H17 7586   6.963   7.674  -0.161  0.4755 -0.6259  0.8330
   18CHTO    O1 7587   6.951   7.868  -0.226  0.0691  0.4527  0.2987
   18CHTO    C5 7588   6.841   7.844  -0.321 -0.2932  0.4380  0.1555
   18CHTO   H18 7589   6.776   7.766  -0.281  1.2876 -0.7690  0.4332
   18CHTO   C16 7590   6.769   7.982  -0.320  0.5943 -0.2254  0.4777
   18CHTO   O11 7591   6.634   7.972  -0.364 -0.3793  0.0431 -0.3630
   18CHTO    H5 7592   6.619   8.050  -0.414  0.6237 -0.2400 -1.1272
   18CHTO    O3 7593   7.132   7.785  -0.110 -0.3155 -0.2017 -0.3664
   18CHTO    C6 7594   7.087   7.792   0.023 -0.9782 -0.0825  0.2960
   18CHTO   H19 7595   6.978   7.782   0.018 -1.0029 -0.3208  1.0978
   18CHTO    C8 7596   7.148   7.676   0.112  0.5408 -0.3042 -0.7749
   18CHTO   H21 7597   7.256   7.681   0.112  0.5188  0.4245  1.3616
   18CHTO    O7 7598   7.094   7.559   0.051 -0.0765  1.0271 -0.0332
   18CHTO    H2 7599   7.110   7.485   0.107 -0.6254  0.8439 -0.1198
   18CHTO   C12 7600   7.094   7.697   0.263  0.2932 -0.0149 -0.2080
   18CHTO   H25 7601   6.985   7.676   0.267  0.5016 -1.0885  0.0140
   18CHTO    N3 7602   7.150   7.582   0.356 -0.3268  0.0903  0.4434
   18CHTO   H12 7603   7.195   7.500   0.301  0.7524  1.0535 -0.1204
   18CHTO   H13 7604   7.228   7.616   0.422  1.0911 -4.1906  1.1429
   18CHTO   C15 7605   7.120   7.844   0.311  0.3033 -0.6096 -0.1842
   18CHTO   H28 7606   7.224   7.858   0.341 -0.1989 -0.1121  1.3922
   18CHTO   O10 7607   7.029   7.881   0.438  0.5341  0.4678 -0.3802
   18CHTO    H4 7608   6.943   7.845   0.428  0.4839  0.1286  1.0667
   18CHTO    O5 7609   7.084   7.954   0.222 -0.1967  0.0348  0.2704
   18CHTO   C10 7610   7.120   7.935   0.082 -0.1343 -0.1208  0.5881
   18CHTO   H23 7611   7.229   7.935   0.073 -0.2172  1.9234 -0.7274
   18CHTO   C17 7612   7.044   8.042   0.005 -0.6051 -0.3057  0.2328
   18CHTO   O12 7613   7.076   8.178   0.041 -0.6133 -0.6052 -0.4598
   18CHTO    H6 7614   7.033   8.243  -0.011 -1.1189 -0.2531  0.3943
   19CHTO  H203 7615   6.129   9.382   1.065  0.4765  0.5734  2.1600
   19CHTO   O82 7616   6.154   9.292   1.056 -0.1091  0.6536 -0.7570
   19CHTO  C123 7617   6.052   9.218   0.989 -0.3484  0.2919  0.2176
   19CHTO  H227 7618   6.028   9.275   0.898 -1.9840  1.8841  1.6401
   19CHTO   O77 7619   6.106   9.089   0.955  0.2901  1.0111 -0.7602
   19CHTO  C118 7620   6.033   9.000   0.872  0.4171  0.4060  0.4026
   19CHTO  H222 7621   5.995   9.041   0.778  0.3242  0.8551  0.6340
   19CHTO  C125 7622   6.142   8.891   0.847  0.1222 -0.3308  0.0814
   19CHTO   O84 7623   6.092   8.787   0.768  0.3738  0.4533  0.2383
   19CHTO  H205 7624   6.143   8.711   0.790  0.2910  0.2830 -0.1599
   19CHTO  C114 7625   5.908   8.946   0.951 -0.1618 -0.0578  0.3091
   19CHTO  H218 7626   5.933   8.888   1.040  1.1505 -1.1585 -0.7469
   19CHTO  C116 7627   5.831   9.073   1.004  0.0973 -0.0206  0.3882
   19CHTO  H220 7628   5.771   9.114   0.920  1.8171  2.1257  0.1699
   19CHTO   O79 7629   5.724   9.025   1.080 -0.1417 -0.8320 -0.1716
   19CHTO  H201 7630   5.652   8.999   1.027 -0.5403 -0.6883  0.2979
   19CHTO  C120 7631   5.923   9.179   1.083 -0.1043 -0.2922 -0.0665
   19CHTO  H224 7632   5.958   9.127   1.174 -1.0612  1.2749  1.2221
   19CHTO   N21 7633   5.845   9.298   1.122 -0.0949 -0.7012 -0.7884
   19CHTO  H211 7634   5.793   9.273   1.213 -0.0194  1.2265 -0.1939
   19CHTO  H212 7635   5.918   9.375   1.144  0.1144 -0.6923 -1.4897
   19CHTO   O75 7636   5.831   8.871   0.857 -0.5649 -0.3394  0.1282
   19CHTO  C112 7637   5.756   8.737   0.914 -0.6534 -0.7216 -0.0332
   19CHTO  H216 7638   5.663   8.766   0.965  0.8155 -0.6542  2.6972
   19CHTO   O73 7639   5.848   8.672   1.002  0.8819 -0.2639 -0.2829
   19CHTO  C113 7640   5.794   8.556   1.060  0.0172 -0.0850  0.4348
   19CHTO  H217 7641   5.701   8.594   1.107 -0.2077  1.8996 -1.5306
   19CHTO  C124 7642   5.883   8.495   1.168 -0.4435  0.1972 -0.1500
   19CHTO   O83 7643   5.942   8.586   1.261 -0.2159 -0.7578 -0.6056
   19CHTO  H204 7644   5.877   8.617   1.321 -1.3962 -2.1933 -1.1234
   19CHTO  C109 7645   5.753   8.438   0.961  0.2185 -1.0381 -0.7729
   19CHTO  H213 7646   5.846   8.405   0.912  2.7081  2.3666  1.3850
   19CHTO  C110 7647   5.666   8.498   0.849 -0.6384 -0.5653  0.1131
   19CHTO  H214 7648   5.562   8.506   0.880 -0.3705  0.6487  0.7582
   19CHTO   O78 7649   5.656   8.407   0.740 -0.4080  0.9462  0.6482
   19CHTO  H200 7650   5.569   8.401   0.706 -0.6547 -0.2433  1.4864
   19CHTO  C111 7651   5.716   8.636   0.799  0.0943 -0.4983  0.0670
   19CHTO  H215 7652   5.812   8.618   0.749 -0.7589  0.4872 -2.0124
   19CHTO   N19 7653   5.629   8.708   0.701  0.1843  0.4030 -0.0583
   19CHTO  H207 7654   5.582   8.792   0.751  0.5308  1.0647 -0.8211
   19CHTO  H208 7655   5.569   8.635   0.650  0.1080  1.6575 -1.8462
   19CHTO   O74 7656   5.684   8.322   1.022  0.0069  0.5219 -0.3210
   19CHTO  C115 7657   5.716   8.200   0.973  0.4595  1.0122 -0.2354
   19CHTO  H219 7658   5.718   8.200   0.864 -0.7040 -2.2428 -0.2943
   19CHTO   O76 7659   5.857   8.162   1.011 -0.6355 -0.1085 -0.4556
   19CHTO  C122 7660   5.901   8.036   0.964 -0.0229  0.1091 -0.2720
   19CHTO  H226 7661   6.002   8.020   1.004  0.2272  2.7084  0.1845
   19CHTO  C126 7662   5.919   8.024   0.809  0.4071 -0.8275  0.0842
   19CHTO   O85 7663   6.000   8.131   0.766 -1.2734  0.2056 -0.0718
   19CHTO  H206 7664   6.049   8.113   0.688  0.5381 -0.4640  1.1778
   19CHTO  C121 7665   5.807   7.925   1.009 -0.3744 -0.1673 -0.5163
   19CHTO  H225 7666   5.839   7.824   0.979 -0.1331 -0.1075 -0.4594
   19CHTO   O81 7667   5.809   7.914   1.154 -0.0952 -0.3364 -0.1046
   19CHTO  H202 7668   5.899   7.896   1.174 -0.4281 -0.3872  1.4195
   19CHTO  C119 7669   5.666   7.955   0.959 -0.1503  0.2752  0.7690
   19CHTO  H223 7670   5.670   7.963   0.851  0.4012  2.5722  0.9227
   19CHTO  C117 7671   5.609   8.090   1.011 -0.0054  0.1485  0.2010
   19CHTO  H221 7672   5.598   8.100   1.119  1.2194 -2.1433  0.5650
   19CHTO   N20 7673   5.479   8.124   0.956  0.2876 -0.0071  0.3871
   19CHTO  H209 7674   5.403   8.057   0.994 -0.2665  0.6948  0.5317
   19CHTO  H210 7675   5.473   8.129   0.848 -1.6260  2.9098  0.5720
   19CHTO   O80 7676   5.562   7.828   0.980 -0.3104 -0.2583 -0.5488
   19CHTO  C103 7677   5.592   7.712   0.910 -0.1355 -0.0182 -0.0152
   19CHTO  H190 7678   5.680   7.726   0.849 -0.3894 -0.7835 -0.5753
   19CHTO  C101 7679   5.619   7.582   0.995  0.2970  0.1094 -0.3420
   19CHTO  H188 7680   5.536   7.574   1.065 -0.1764  0.8851 -0.8042
   19CHTO   O68 7681   5.744   7.588   1.087  0.1760 -0.8857 -0.0129
   19CHTO  H168 7682   5.731   7.529   1.160 -0.3925  0.2843  0.8540
   19CHTO   C99 7683   5.617   7.451   0.905 -0.8044 -0.3505 -0.4687
   19CHTO  H186 7684   5.700   7.461   0.832  0.7159  0.0748  1.2877
   19CHTO   N17 7685   5.646   7.320   0.974 -0.0852  0.4887  0.1718
   19CHTO  H174 7686   5.577   7.297   1.053 -0.6502 -0.5400 -0.6238
   19CHTO  H175 7687   5.750   7.303   0.997 -0.4060 -2.0042 -0.1367
   19CHTO   C97 7688   5.482   7.454   0.825  0.0214 -0.6184  0.3306
   19CHTO  H184 7689   5.395   7.457   0.892  1.0247 -2.4730  1.7646
   19CHTO   O64 7690   5.488   7.565   0.742 -0.0199  0.8769 -0.3101
   19CHTO  C104 7691   5.464   7.692   0.813 -1.2629 -0.4748 -0.3121
   19CHTO  H191 7692   5.375   7.691   0.875 -0.6704 -0.5605  0.5410
   19CHTO  C108 7693   5.459   7.812   0.708  0.0174  0.7089  0.1680
   19CHTO   O71 7694   5.355   7.774   0.611  0.0990  0.5393  0.2612
   19CHTO  H171 7695   5.320   7.845   0.560 -0.8618 -1.2013 -1.5673
   19CHTO   O62 7696   5.460   7.333   0.742  0.0190 -0.3763 -0.4220
   19CHTO   C91 7697   5.327   7.284   0.733 -0.3300 -0.2089  0.2975
   19CHTO  H178 7698   5.270   7.310   0.822 -1.7208 -0.3447 -0.5417
   19CHTO   C92 7699   5.336   7.123   0.747  0.5655  0.5324 -0.4542
   19CHTO  H179 7700   5.385   7.094   0.841 -0.4883  0.6976  0.1498
   19CHTO   O66 7701   5.200   7.076   0.764 -0.4389  0.2920 -0.1235
   19CHTO  H166 7702   5.147   7.061   0.688  0.1242  1.7535 -0.8249
   19CHTO   C93 7703   5.405   7.060   0.624  0.1061  0.7651 -0.3484
   19CHTO  H180 7704   5.378   6.954   0.618  4.0626 -0.4301  0.8118
   19CHTO   N16 7705   5.552   7.048   0.623  0.3272  0.0790 -0.1121
   19CHTO  H172 7706   5.601   7.133   0.668  0.1323 -0.7605  1.7026
   19CHTO  H173 7707   5.588   7.041   0.521 -2.0711  0.5561 -1.0339
   19CHTO   C94 7708   5.355   7.135   0.493  0.0489  0.0353 -0.2671
   19CHTO  H181 7709   5.433   7.198   0.448 -0.7780  0.4791 -1.0952
   19CHTO   O61 7710   5.241   7.219   0.506  0.4948  0.0852 -0.1617
   19CHTO   C95 7711   5.251   7.322   0.605 -0.0130  0.7415  0.0149
   19CHTO  H182 7712   5.309   7.399   0.554  2.1216 -2.5686 -2.8244
   19CHTO  C106 7713   5.108   7.369   0.642  0.0389 -0.3452 -0.2432
   19CHTO   O69 7714   5.104   7.488   0.718  0.3040 -0.0287 -0.5033
   19CHTO  H169 7715   5.165   7.551   0.686  0.6171  0.3764  0.8482
   19CHTO   O63 7716   5.302   7.016   0.402  0.0638  0.2745  0.3106
   19CHTO   C96 7717   5.396   6.952   0.302 -0.1006 -1.2049 -0.1473
   19CHTO  H183 7718   5.486   6.919   0.353 -0.9297 -2.2111  0.6888
   19CHTO   C98 7719   5.426   7.046   0.187  0.1684 -1.1172  0.8330
   19CHTO  H185 7720   5.454   7.145   0.226  0.8199 -0.8156 -0.3734
   19CHTO   O67 7721   5.544   6.992   0.119 -0.3499 -0.0184  0.0157
   19CHTO  H167 7722   5.628   7.005   0.158 -1.3776  3.5886  1.2024
   19CHTO  C102 7723   5.297   7.056   0.083 -0.5195  0.4870 -0.4078
   19CHTO  H189 7724   5.334   7.103  -0.010  1.8937 -3.2301 -1.4466
   19CHTO   N18 7725   5.185   7.136   0.130 -0.0487 -0.5112 -0.1350
   19CHTO  H176 7726   5.155   7.112   0.231 -0.9527  1.4321  0.0889
   19CHTO  H177 7727   5.103   7.145   0.061 -1.7535 -4.2351  1.2858
   19CHTO  C105 7728   5.245   6.915   0.038 -0.4106  0.4748 -0.0778
   19CHTO  H192 7729   5.143   6.894   0.071  0.4499  0.6203  2.8411
   19CHTO   O65 7730   5.318   6.813   0.106 -0.1640 -0.1185  0.1186
   19CHTO  C100 7731   5.323   6.824   0.250  0.6702  0.4384 -0.0165
   19CHTO  H187 7732   5.219   6.830   0.287 -0.2162  0.0831 -2.3795
   19CHTO  C107 7733   5.383   6.695   0.315  0.0533  0.0801 -0.4146
   19CHTO   O70 7734   5.509   6.673   0.258  0.6500  0.2520 -0.8993
   19CHTO  H170 7735   5.500   6.622   0.180 -2.1582  1.5001 -1.4537
   19CHTO   O57 7736   5.263   6.926  -0.136 -0.0955 -0.4878  0.7941
   19CHTO   C85 7737   5.144   6.902  -0.219 -0.5179 -0.0672 -0.0821
   19CHTO  H157 7738   5.063   6.873  -0.149 -0.0568  1.9271  1.3253
   19CHTO   C83 7739   5.172   6.779  -0.318 -0.2391 -0.1467  0.6652
   19CHTO  H155 7740   5.188   6.688  -0.260  1.1118  0.5963  1.5006
   19CHTO   O56 7741   5.301   6.811  -0.373  0.3628  0.3303 -0.4333
   19CHTO  H135 7742   5.368   6.787  -0.311 -0.1261  1.5568  0.5961
   19CHTO   C81 7743   5.063   6.760  -0.421  0.3570 -0.1428  0.0840
   19CHTO  H153 7744   4.965   6.746  -0.374  0.9165 -3.1521  0.4689
   19CHTO   N14 7745   5.083   6.638  -0.504 -0.8870  0.0046 -0.3990
   19CHTO  H141 7746   5.184   6.602  -0.499 -1.4647 -1.7029 -0.5829
   19CHTO  H142 7747   5.015   6.566  -0.463 -1.0036  1.0519  1.2857
   19CHTO   C79 7748   5.050   6.887  -0.515 -0.0596 -0.0106 -0.4008
   19CHTO  H151 7749   4.960   6.873  -0.574 -0.3533  0.1342  0.0181
   19CHTO   O52 7750   5.011   6.996  -0.428  0.0171  0.0236  0.1275
   19CHTO   C86 7751   5.097   7.026  -0.311  0.7143  0.2409 -0.2953
   19CHTO  H158 7752   5.188   7.075  -0.351 -0.2060 -0.5647 -3.5376
   19CHTO   C90 7753   5.028   7.141  -0.227 -0.0532  0.8162  0.2092
   19CHTO   O60 7754   5.008   7.258  -0.299  0.2302 -0.5349  0.2903
   19CHTO  H138 7755   4.928   7.255  -0.349 -0.3718  0.7830  1.1445
   19CHTO   O50 7756   5.162   6.937  -0.591 -0.4744  0.3307 -0.1616
   19CHTO   C73 7757   5.189   6.983  -0.725 -0.1861  0.5034  0.1164
   19CHTO  H145 7758   5.167   6.904  -0.798  1.7686  0.8265 -0.8464
   19CHTO   C74 7759   5.331   7.030  -0.738 -0.0028 -0.1751  0.0856
   19CHTO  H146 7760   5.384   6.937  -0.711 -1.3830 -0.9240  0.2528
   19CHTO   O54 7761   5.366   7.058  -0.878 -0.5148 -0.5011  0.0410
   19CHTO  H133 7762   5.320   7.134  -0.909 -1.0739 -0.4473  0.9647
   19CHTO   C75 7763   5.356   7.146  -0.633  0.1281 -0.4180 -0.4060
   19CHTO  H147 7764   5.321   7.108  -0.536  1.0954 -1.0570 -0.2984
   19CHTO   N13 7765   5.499   7.189  -0.621  0.0402  0.5378 -0.6393
   19CHTO  H139 7766   5.499   7.276  -0.557  1.5977 -0.4294  0.7392
   19CHTO  H140 7767   5.561   7.111  -0.578 -0.7809  0.7116  0.8860
   19CHTO   C76 7768   5.264   7.266  -0.677  0.4834  0.0034  0.1872
   19CHTO  H148 7769   5.300   7.300  -0.774  0.3301 -2.0122 -0.6025
   19CHTO   O49 7770   5.127   7.223  -0.686 -0.5454 -0.1534  0.3951
   19CHTO   C77 7771   5.097   7.109  -0.771  0.6849 -0.6249 -0.5421
   19CHTO  H149 7772   5.121   7.137  -0.874 -0.4764  1.6545 -0.2290
   19CHTO   C88 7773   4.949   7.087  -0.760 -0.3924 -0.6053 -0.2295
   19CHTO   O58 7774   4.895   6.984  -0.859 -0.1393 -0.2605  0.5827
   19CHTO  H136 7775   4.819   6.945  -0.822  0.4239 -0.1708  1.8574
   19CHTO   O51 7776   5.268   7.374  -0.566 -0.7287 -0.3694  0.1934
   19CHTO   C78 7777   5.271   7.516  -0.602  0.5038  0.4581 -0.0285
   19CHTO  H150 7778   5.244   7.523  -0.709 -2.0880  0.3174  0.5854
   19CHTO   C80 7779   5.410   7.583  -0.575 -0.2782  0.2157  0.1944
   19CHTO  H152 7780   5.435   7.582  -0.467  0.6679 -1.4282 -0.0116
   19CHTO   O55 7781   5.512   7.515  -0.652 -0.3979  0.1853 -0.8519
   19CHTO  H134 7782   5.589   7.568  -0.648 -0.8008  0.6784  0.5150
   19CHTO   C84 7783   5.406   7.739  -0.610  0.2983 -0.6073 -0.4871
   19CHTO  H156 7784   5.371   7.752  -0.713  1.0453 -2.4282 -0.9846
   19CHTO   N15 7785   5.544   7.804  -0.585  0.6290  0.3611  0.0922
   19CHTO  H143 7786   5.612   7.774  -0.662  2.6052  3.9319  0.3521
   19CHTO  H144 7787   5.538   7.911  -0.582 -1.4468  0.3144 -1.0902
   19CHTO   C87 7788   5.286   7.801  -0.535  0.1898 -0.6161 -0.2544
   19CHTO  H159 7789   5.303   7.787  -0.428 -2.4164  1.6490  0.5125
   19CHTO   O53 7790   5.157   7.725  -0.571  0.5927  0.0208  0.5371
   19CHTO   C82 7791   5.159   7.586  -0.524  0.2580 -0.1646 -0.0277
   19CHTO  H154 7792   5.189   7.585  -0.419 -1.9110  1.6325  0.6632
   19CHTO   C89 7793   5.023   7.525  -0.533 -0.1359 -0.3974 -0.4168
   19CHTO   O59 7794   4.986   7.507  -0.672  0.0625 -0.2573  0.2126
   19CHTO  H137 7795   4.903   7.463  -0.675  0.9096 -1.8810 -0.4965
   19CHTO   O45 7796   5.270   7.960  -0.551 -0.1357 -0.1443  0.0809
   19CHTO   C67 7797   5.142   8.013  -0.511 -0.0710 -0.1236 -0.0446
   19CHTO  H124 7798   5.065   7.939  -0.533 -0.3391 -0.2526  1.2854
   19CHTO   C65 7799   5.137   8.046  -0.361 -0.1163  0.1038  0.1684
   19CHTO  H122 7800   5.230   8.099  -0.341  0.5600 -0.6449 -0.9823
   19CHTO   O44 7801   5.123   7.926  -0.281  0.2588  0.7895 -0.2426
   19CHTO  H102 7802   5.120   7.849  -0.335 -0.9435 -0.6105  1.7518
   19CHTO   C63 7803   5.030   8.169  -0.337 -0.3393  0.4592  0.4965
   19CHTO  H120 7804   5.081   8.263  -0.357 -1.0857  1.7205  4.1131
   19CHTO   N11 7805   4.992   8.185  -0.187  1.0791  0.0945  0.9418
   19CHTO  H108 7806   5.062   8.253  -0.142  0.8554  1.6766 -0.9994
   19CHTO  H109 7807   4.987   8.096  -0.128 -0.9034 -1.0629 -0.9047
   19CHTO   C61 7808   4.911   8.149  -0.439 -0.2291 -0.5385 -0.1281
   19CHTO  H118 7809   4.837   8.227  -0.419  0.5125  0.8282 -2.4475
   19CHTO   O40 7810   4.965   8.185  -0.582  0.1272  0.2397 -0.1832
   19CHTO   C68 7811   5.104   8.143  -0.602 -0.7450 -0.7489 -0.2705
   19CHTO  H125 7812   5.167   8.228  -0.570 -2.9167  1.9531 -2.9324
   19CHTO   C72 7813   5.126   8.132  -0.758 -0.5626  0.3822  0.0049
   19CHTO   O48 7814   5.253   8.165  -0.815 -0.1475  0.2260 -0.0920
   19CHTO  H105 7815   5.274   8.255  -0.829  1.0348  0.1118  0.8776
   19CHTO   O38 7816   4.859   8.016  -0.443  0.2471 -0.8585 -0.2071
   19CHTO   C55 7817   4.723   7.994  -0.489 -0.0638  0.0349  0.1204
   19CHTO  H112 7818   4.683   8.082  -0.543  2.0886 -0.9483 -3.2092
   19CHTO   C56 7819   4.638   7.948  -0.367  0.1511  0.0751 -0.4127
   19CHTO  H113 7820   4.685   7.864  -0.314 -0.0104  1.1604  1.5047
   19CHTO   O42 7821   4.640   8.051  -0.270 -0.2189  0.2717 -0.0738
   19CHTO  H100 7822   4.559   8.096  -0.281 -0.2203  0.1727 -0.4747
   19CHTO   C57 7823   4.491   7.905  -0.404  0.1777 -0.4063 -0.5539
   19CHTO  H114 7824   4.453   8.002  -0.435  3.0601  1.2566  0.8596
   19CHTO   N10 7825   4.410   7.858  -0.289 -0.0749  0.2129  0.4316
   19CHTO  H106 7826   4.377   7.951  -0.244  3.0109  2.4939 -1.7587
   19CHTO  H107 7827   4.484   7.810  -0.228  0.7497  1.9971  0.8775
   19CHTO   C58 7828   4.492   7.814  -0.530  0.1987  0.0906  0.2211
   19CHTO  H115 7829   4.539   7.716  -0.508  0.2472  0.1371  0.3252
   19CHTO   O37 7830   4.576   7.872  -0.630  0.6096  0.3366  0.2865
   19CHTO   C59 7831   4.713   7.877  -0.597  0.0365 -0.3456  0.0474
   19CHTO  H116 7832   4.749   7.783  -0.556 -0.1141 -1.9448 -3.3280
   19CHTO   C70 7833   4.793   7.908  -0.726  0.7751 -0.7928 -0.2214
   19CHTO   O46 7834   4.800   7.799  -0.820  0.3603 -0.5942  0.0388
   19CHTO  H103 7835   4.854   7.734  -0.781  0.0013 -0.0203  1.5158
   19CHTO   O39 7836   4.333   7.796  -0.585 -0.8725 -0.1158  0.1698
   19CHTO   C60 7837   4.310   7.682  -0.673 -0.2074 -1.0168  0.5786
   19CHTO  H117 7838   4.376   7.694  -0.759 -1.8568  2.2969 -0.3055
   19CHTO   C62 7839   4.328   7.546  -0.595  0.1861  0.6942  1.1709
   19CHTO  H119 7840   4.436   7.531  -0.575 -0.0831 -0.2725  1.9209
   19CHTO   O43 7841   4.251   7.545  -0.472  0.0775  0.4104 -0.0618
   19CHTO  H101 7842   4.259   7.460  -0.433  2.3976 -0.3305 -2.0484
   19CHTO   C66 7843   4.288   7.434  -0.703  0.4431  0.4994  0.5614
   19CHTO  H123 7844   4.336   7.459  -0.797 -0.4063  1.9610  0.5101
   19CHTO   N12 7845   4.321   7.295  -0.673 -0.1056 -0.0341 -0.0130
   19CHTO  H110 7846   4.266   7.273  -0.583 -1.0206  2.6733  0.1496
   19CHTO  H111 7847   4.286   7.236  -0.757 -0.0185  1.8278 -1.3900
   19CHTO   C69 7848   4.138   7.453  -0.738  0.1473 -0.5585  0.0223
   19CHTO  H126 7849   4.074   7.434  -0.650 -0.6179 -1.3485 -0.7005
   19CHTO   O41 7850   4.109   7.593  -0.808 -0.2646  0.7576 -0.2181
   19CHTO   C64 7851   4.158   7.708  -0.724 -0.5399 -0.1928  0.1025
   19CHTO  H121 7852   4.096   7.739  -0.638  1.6964  1.6128  1.1162
   19CHTO   C71 7853   4.161   7.829  -0.822 -0.7285 -0.3524 -0.3087
   19CHTO   O47 7854   4.039   7.853  -0.893 -0.0784 -0.4161 -0.1195
   19CHTO  H104 7855   3.971   7.796  -0.863  0.6031 -0.9933  0.3477
   19CHTO   O34 7856   4.087   7.357  -0.831  0.1618 -0.4002 -0.0022
   19CHTO   C49 7857   3.983   7.312  -0.945 -1.0422  0.3491 -0.5271
   19CHTO   H91 7858   3.883   7.338  -0.910 -0.2960  1.9194  0.5229
   19CHTO   C47 7859   4.004   7.160  -0.962  0.4839 -0.1517 -0.0078
   19CHTO   H89 7860   3.927   7.121  -1.032  1.3346  2.2002 -2.3865
   19CHTO   O33 7861   3.982   7.092  -0.836  0.4805  0.2317 -0.3034
   19CHTO   H70 7862   3.898   7.051  -0.846  0.9990 -1.4001  1.7662
   19CHTO   C45 7863   4.151   7.118  -1.013  0.4833  0.2754 -0.2693
   19CHTO   H87 7864   4.211   7.107  -0.922  0.6522  1.9112 -0.1713
   19CHTO    N8 7865   4.149   6.989  -1.084 -0.8164  0.7362 -0.5620
   19CHTO   H75 7866   4.177   7.001  -1.188  0.4611 -0.8810 -0.4233
   19CHTO   H76 7867   4.183   6.903  -1.028 -0.6506  1.2207  0.0860
   19CHTO   C43 7868   4.221   7.239  -1.097 -0.1744  0.1688 -0.1415
   19CHTO   H85 7869   4.278   7.296  -1.024  0.7836  1.8925 -2.1692
   19CHTO   O29 7870   4.118   7.315  -1.166  0.4612 -0.3286  0.3445
   19CHTO   C50 7871   4.017   7.385  -1.078 -0.4780  0.2371 -0.2499
   19CHTO   H92 7872   4.054   7.487  -1.066 -0.4930  0.2300 -0.1426
   19CHTO   C54 7873   3.878   7.401  -1.162 -0.7066  0.1578 -0.0330
   19CHTO   O36 7874   3.780   7.479  -1.095  0.2317  0.3429  0.9117
   19CHTO   H72 7875   3.744   7.541  -1.156  0.4151 -0.2922  0.1582
   19CHTO   O27 7876   4.332   7.191  -1.182  0.1371 -0.0161  0.1599
   19CHTO   C37 7877   4.460   7.225  -1.235  0.3819 -0.3424 -0.3978
   19CHTO   H79 7878   4.486   7.144  -1.305 -1.6542 -1.6748  0.3548
   19CHTO   C38 7879   4.465   7.362  -1.308  0.3560  0.3301 -0.2812
   19CHTO   H80 7880   4.416   7.433  -1.241 -0.5778  1.6441 -2.2943
   19CHTO   O31 7881   4.383   7.346  -1.427 -0.0331 -0.2263 -0.1619
   19CHTO   H68 7882   4.424   7.284  -1.484 -0.8017 -1.4062  0.5604
   19CHTO   C39 7883   4.607   7.416  -1.332 -0.3829 -0.8552  0.3255
   19CHTO   H81 7884   4.658   7.356  -1.408 -2.0260  0.0917 -1.5849
   19CHTO    N7 7885   4.597   7.555  -1.384 -0.2108 -0.3819  0.4890
   19CHTO   H73 7886   4.696   7.593  -1.406  0.0248 -1.6120 -0.6596
   19CHTO   H74 7887   4.542   7.554  -1.477  2.6020  0.6657 -1.2832
   19CHTO   C40 7888   4.698   7.402  -1.207  0.4655  0.4770  0.0352
   19CHTO   H82 7889   4.667   7.477  -1.134 -0.7555 -2.2138  2.3726
   19CHTO   O26 7890   4.692   7.270  -1.152 -0.2357  0.1374 -0.0904
   19CHTO   C41 7891   4.565   7.228  -1.114 -0.0759  0.3747 -0.0519
   19CHTO   H83 7892   4.530   7.295  -1.034 -0.1659  1.2016 -0.7836
   19CHTO   C52 7893   4.578   7.078  -1.068 -0.4796  0.5025  0.0841
   19CHTO   O35 7894   4.467   7.046  -0.991  0.0802  0.1821 -0.7601
   19CHTO   H71 7895   4.450   7.118  -0.934 -1.1923  0.4788 -1.5098
   19CHTO   O28 7896   4.836   7.401  -1.231  0.1265  0.4647  0.5329
   19CHTO   C42 7897   4.936   7.447  -1.131  0.1483  0.5981 -0.0797
   19CHTO   H84 7898   4.894   7.400  -1.042 -1.5692 -0.8701 -1.6261
   19CHTO   C44 7899   4.954   7.597  -1.101 -0.0372  0.8707 -1.2386
   19CHTO   H86 7900   4.995   7.638  -1.194  2.4875 -0.5759 -0.8234
   19CHTO   O32 7901   4.826   7.653  -1.065  0.2323  0.3677  0.3083
   19CHTO   H69 7902   4.767   7.671  -1.136 -2.0946  1.7015  2.5134
   19CHTO   C48 7903   5.068   7.634  -1.002  0.4134 -0.1583 -0.2376
   19CHTO   H90 7904   5.044   7.613  -0.898  0.9720  1.7849  0.3048
   19CHTO    N9 7905   5.087   7.784  -0.999 -0.3247  0.4275 -0.2150
   19CHTO   H77 7906   5.005   7.829  -0.945 -1.3376  0.2821 -1.5941
   19CHTO   H78 7907   5.183   7.817  -0.962 -0.6121  1.8200 -0.6481
   19CHTO   C51 7908   5.206   7.573  -1.050 -0.3374  0.0730  0.5092
   19CHTO   H93 7909   5.220   7.616  -1.149  0.3169  0.7650  0.8947
   19CHTO   O30 7910   5.191   7.427  -1.052 -0.0946  0.3862 -0.2099
   19CHTO   C46 7911   5.079   7.387  -1.159 -0.2361 -0.9508  0.0098
   19CHTO   H88 7912   5.114   7.435  -1.250 -1.5756  1.7691  0.8913
   19CHTO   C53 7913   5.085   7.227  -1.172  0.0177 -0.0271 -0.3470
   19CHTO   O72 7914   4.988   7.195  -1.275  0.0992  0.0335 -0.5608
   19CHTO  H199 7915   5.005   7.107  -1.305  0.3388  0.2895 -1.1716
   19CHTO   O22 7916   5.321   7.596  -0.963  0.7227 -0.6087 -0.5546
   19CHTO   C31 7917   5.449   7.631  -1.019 -0.3618 -0.0991 -0.1997
   19CHTO   H59 7918   5.430   7.643  -1.127  0.1207  0.9576 -0.1780
   19CHTO   C29 7919   5.514   7.760  -0.962  0.2691 -0.2022  0.0735
   19CHTO   H57 7920   5.527   7.736  -0.855  0.9771  0.6978  0.1976
   19CHTO   O21 7921   5.423   7.870  -0.986  0.6343 -0.1696 -0.2336
   19CHTO   H37 7922   5.451   7.944  -0.935 -1.2223  0.3695  0.0445
   19CHTO   C27 7923   5.651   7.792  -1.030 -0.2117 -0.2988  0.0149
   19CHTO   H55 7924   5.637   7.814  -1.137  0.8389 -0.8645 -0.2521
   19CHTO    N5 7925   5.723   7.910  -0.971  0.0904  0.8439  0.0477
   19CHTO   H43 7926   5.690   8.003  -1.014  1.9403  2.6472  2.4539
   19CHTO   H44 7927   5.828   7.903  -0.995 -0.0786  3.5779 -1.7228
   19CHTO   C25 7928   5.745   7.666  -1.045 -0.3974 -0.2195  0.7301
   19CHTO   H53 7929   5.782   7.633  -0.947 -2.0383 -0.8379  1.1440
   19CHTO   O17 7930   5.666   7.549  -1.087 -0.0387 -0.2576  0.5820
   19CHTO   C32 7931   5.556   7.519  -1.006 -0.4719  0.0746 -0.6212
   19CHTO   H60 7932   5.587   7.517  -0.901 -1.7305  1.4751 -0.2103
   19CHTO   C36 7933   5.502   7.384  -1.044  0.4672  0.4128  0.0416
   19CHTO   O25 7934   5.482   7.374  -1.185 -0.0262 -0.4416  0.1330
   19CHTO   H40 7935   5.452   7.287  -1.200 -2.0920  0.3840 -0.7449
   19CHTO   O15 7936   5.848   7.685  -1.150  1.0770  0.2673 -0.5411
   19CHTO   C19 7937   5.985   7.656  -1.191  0.5347 -0.6671 -0.2890
   19CHTO   H47 7938   5.990   7.688  -1.296  1.2083  1.1038  0.2694
   19CHTO   C20 7939   6.108   7.724  -1.120 -0.5827  0.6168 -0.5446
   19CHTO   H48 7940   6.112   7.696  -1.014 -0.9258 -1.9655 -1.1806
   19CHTO   O19 7941   6.094   7.867  -1.119 -0.2773 -0.1253 -0.3758
   19CHTO   H35 7942   6.178   7.906  -1.101  0.9686 -1.7519 -2.4720
   19CHTO   C21 7943   6.244   7.684  -1.180 -0.7615  0.6216 -0.8226
   19CHTO   H49 7944   6.257   7.742  -1.271 -0.4940 -2.3115 -2.7439
   19CHTO    N4 7945   6.363   7.727  -1.107 -0.2348 -0.0582  0.9284
   19CHTO   H41 7946   6.356   7.825  -1.061 -1.4307 -0.0705  0.7798
   19CHTO   H42 7947   6.375   7.651  -1.031  1.9922 -1.0690 -0.3896
   19CHTO   C22 7948   6.250   7.532  -1.211 -0.1709 -0.1534  0.5397
   19CHTO   H50 7949   6.271   7.472  -1.123  1.6198  2.2113  1.7960
   19CHTO   O14 7950   6.128   7.488  -1.277 -0.1521  0.2804 -0.2994
   19CHTO   C23 7951   6.016   7.503  -1.187  0.2211  0.6123  0.3563
   19CHTO   H51 7952   6.037   7.468  -1.085 -1.7534 -0.4636  0.4167
   19CHTO   C34 7953   5.913   7.409  -1.246 -0.6778 -0.2694 -0.4073
   19CHTO   O23 7954   5.940   7.276  -1.290  0.0559 -0.4815  0.8004
   19CHTO   H38 7955   6.029   7.290  -1.318 -0.0234 -0.7055  0.4358
   19CHTO   O16 7956   6.361   7.502  -1.306 -0.2578 -0.3934  0.3952
   19CHTO   C24 7957   6.398   7.357  -1.373  0.4342  0.0586 -0.9418
   19CHTO   H52 7958   6.505   7.348  -1.393  0.7738 -0.4378  0.9789
   19CHTO   C26 7959   6.314   7.337  -1.510 -0.1542 -0.0430 -1.0551
   19CHTO   H54 7960   6.207   7.355  -1.490  0.4103  1.4800  0.7495
   19CHTO   O20 7961   6.362   7.436  -1.606  0.1623  0.4025  0.0704
   19CHTO   H36 7962   6.304   7.452  -1.678 -1.2994  1.6259  1.4598
   19CHTO   C30 7963   6.328   7.192  -1.565  0.8448 -0.6806 -0.2502
   19CHTO   H58 7964   6.426   7.177  -1.612  1.3774  0.6980  0.3777
   19CHTO    N6 7965   6.234   7.168  -1.678 -0.0663  0.6388  0.0989
   19CHTO   H45 7966   6.295   7.109  -1.745  1.0462  0.0548  1.5890
   19CHTO   H46 7967   6.146   7.112  -1.651 -0.4388  1.1041 -0.1621
   19CHTO   C33 7968   6.326   7.084  -1.453 -0.1311 -0.5674  0.2418
   19CHTO   H61 7969   6.226   7.071  -1.409 -0.6551 -0.5298 -0.9354
   19CHTO   O18 7970   6.417   7.125  -1.348  0.4704 -0.3553  0.3098
   19CHTO   C28 7971   6.366   7.235  -1.279  0.0680 -0.2450 -0.4963
   19CHTO   H56 7972   6.259   7.232  -1.258 -0.0855  0.0085 -1.2226
   19CHTO   C35 7973   6.457   7.246  -1.155 -0.8428  0.3418  0.0212
   19CHTO   O24 7974   6.390   7.284  -1.036 -0.1183  0.4173 -0.3386
   19CHTO   H39 7975   6.452   7.337  -0.989  0.2416  0.0330 -0.3746
   19CHTO    O9 7976   6.360   6.955  -1.510 -0.1701  0.3115 -0.1782
   19CHTO   C13 7977   6.412   6.860  -1.415 -0.2297 -0.3860  0.0160
   19CHTO   H26 7978   6.419   6.904  -1.314  2.3811  1.7165 -1.0152
   19CHTO   C11 7979   6.555   6.824  -1.468 -0.2607  0.2381  0.6096
   19CHTO   H24 7980   6.615   6.913  -1.443  1.1955 -0.8551  1.0658
   19CHTO    O8 7981   6.559   6.798  -1.608 -0.3254  0.7189  0.2202
   19CHTO    H3 7982   6.614   6.868  -1.640 -0.6360  1.1203  0.5533
   19CHTO    C9 7983   6.607   6.706  -1.388  0.3150 -0.2892  0.0511
   19CHTO   H22 7984   6.584   6.730  -1.284  0.2326 -2.9818  0.6919
   19CHTO    N2 7985   6.753   6.685  -1.385 -0.1265  0.2025  0.3419
   19CHTO   H10 7986   6.788   6.587  -1.354 -1.0963 -0.8492 -1.7640
   19CHTO   H11 7987   6.795   6.718  -1.479 -0.4255  0.7798  0.4120
   19CHTO    C7 7988   6.513   6.583  -1.422 -0.1023 -0.6113 -0.5685
   19CHTO   H20 7989   6.535   6.508  -1.344  0.4019  0.4961  0.3706
   19CHTO    O4 7990   6.373   6.615  -1.431 -0.0057 -0.2626 -0.7464
   19CHTO   C14 7991   6.315   6.742  -1.377  0.3973  0.9510  0.4227
   19CHTO   H27 7992   6.318   6.739  -1.266  1.0268  2.3196  0.4546
   19CHTO   C18 7993   6.171   6.755  -1.414  0.2412  0.4325  0.6892
   19CHTO   O13 7994   6.095   6.881  -1.383  0.3702  0.4311 -0.1937
   19CHTO    H7 7995   6.087   6.897  -1.291  3.5482 -1.7560  0.5589
   19CHTO    O2 7996   6.562   6.511  -1.574  0.0412  0.2157  0.2786
   19CHTO    C1 7997   6.513   6.378  -1.593 -0.5441 -0.0686 -0.0227
   19CHTO   H14 7998   6.424   6.364  -1.528 -1.0646  2.2721 -0.1654
   19CHTO    C2 7999   6.612   6.262  -1.558 -0.0947  0.0890 -0.3815
   19CHTO   H15 8000   6.704   6.269  -1.618 -1.7240  0.9129 -2.8594
   19CHTO    O6 8001   6.639   6.274  -1.418  0.1858 -0.2298 -0.5065
   19CHTO    H1 8002   6.672   6.361  -1.412  2.2900 -1.0450  0.4961
   19CHTO    C3 8003   6.551   6.124  -1.606 -0.1340 -0.2241  0.2012
   19CHTO   H16 8004   6.454   6.105  -1.557 -0.1485  1.0755  0.6841
   19CHTO    N1 8005   6.636   6.001  -1.584 -0.2987 -0.2109  1.0020
   19CHTO    H8 8006   6.676   6.004  -1.484 -0.7623 -1.2473  1.2166
   19CHTO    H9 8007   6.577   5.912  -1.596 -2.2190  1.1979 -0.4161
   19CHTO    C4 8008   6.510   6.135  -1.761  0.0602  0.7888  0.0993
   19CHTO   H17 8009   6.594   6.164  -1.825  1.9354 -3.4641  0.5065
   19CHTO    O1 8010   6.405   6.237  -1.766  0.2377  0.0074 -0.4626
   19CHTO    C5 8011   6.459   6.368  -1.739 -0.6145  0.1640 -0.2013
   19CHTO   H18 8012   6.532   6.393  -1.816 -1.1005  0.9693 -0.4087
   19CHTO   C16 8013   6.337   6.463  -1.749 -0.3773  0.7917 -0.1539
   19CHTO   O11 8014   6.321   6.504  -1.884 -0.3071  0.3207  0.4579
   19CHTO    H5 8015   6.282   6.437  -1.937 -0.7510  0.4911  0.5652
   19CHTO    O3 8016   6.444   6.018  -1.822  0.7200 -0.3996 -0.7503
   19CHTO    C6 8017   6.441   5.988  -1.963 -0.1266  0.0756 -0.5428
   19CHTO   H19 8018   6.503   6.052  -2.026  0.7455 -0.6456 -0.4300
   19CHTO    C8 8019   6.494   5.847  -1.983  0.5003 -0.0822  0.4028
   19CHTO   H21 8020   6.448   5.785  -1.906  1.8232  1.2894  2.3591
   19CHTO    O7 8021   6.635   5.855  -1.959  0.2528  0.1074 -0.1912
   19CHTO    H2 8022   6.682   5.871  -2.038  0.8338 -1.2963 -0.1474
   19CHTO   C12 8023   6.448   5.782  -2.130  0.1978 -0.0888  0.3770
   19CHTO   H25 8024   6.516   5.824  -2.206 -0.1221 -0.1062  0.0784
   19CHTO    N3 8025   6.480   5.634  -2.123  0.5732  0.7757 -0.1876
   19CHTO   H12 8026   6.438   5.587  -2.036  0.6865 -0.8880 -1.0245
   19CHTO   H13 8027   6.466   5.577  -2.214  0.5314 -0.1603  0.4067
   19CHTO   C15 8028   6.298   5.815  -2.159 -0.1658 -0.0229 -0.0171
   19CHTO   H28 8029   6.230   5.764  -2.091 -0.2989  1.3393  0.9046
   19CHTO   O10 8030   6.260   5.780  -2.301  0.0430  0.2275  0.3669
   19CHTO    H4 8031   6.173   5.749  -2.309 -0.1903  0.9513  0.0099
   19CHTO    O5 8032   6.275   5.953  -2.155  0.1319 -0.1035 -0.2169
   19CHTO   C10 8033   6.292   5.997  -2.018  0.7965 -0.2633  0.1401
   19CHTO   H23 8034   6.224   5.937  -1.957  0.9151 -0.3405  0.1954
   19CHTO   C17 8035   6.227   6.134  -2.022  0.6036 -0.2366  0.1269
   19CHTO   O12 8036   6.297   6.236  -2.101 -0.4402  0.2352  0.2973
   19CHTO    H6 8037   6.386   6.213  -2.118 -0.0480  1.5536  0.4813
   20CHTO  H203 8038   5.789   1.982   7.802 -0.8131  0.7366 -1.0274
   20CHTO   O82 8039   5.842   2.052   7.768  0.3795  0.1550 -0.3790
   20CHTO  C123 8040   5.787   2.176   7.825 -0.2118  0.3521  0.5036
   20CHTO  H227 8041   5.723   2.150   7.910  2.2518 -2.5855  1.5748
   20CHTO   O77 8042   5.904   2.247   7.880 -0.8180  0.0581 -0.0023
   20CHTO  C118 8043   5.885   2.365   7.954  0.8878  0.1429 -0.1209
   20CHTO  H222 8044   5.842   2.341   8.052  2.0420  1.8178  0.8294
   20CHTO  C125 8045   6.032   2.406   7.979  0.5160  0.0583  0.1116
   20CHTO   O84 8046   6.065   2.422   8.114  0.1057  1.1081 -0.0792
   20CHTO  H205 8047   6.076   2.337   8.153 -0.0280  1.7777  1.4421
   20CHTO  C114 8048   5.802   2.461   7.874 -0.1406 -0.7219 -0.3697
   20CHTO  H218 8049   5.867   2.510   7.802  0.1487 -1.0932 -0.3617
   20CHTO  C116 8050   5.675   2.405   7.804 -0.0613  0.0031 -0.2458
   20CHTO  H220 8051   5.593   2.384   7.876 -0.0830  1.0414  0.0436
   20CHTO   O79 8052   5.631   2.500   7.709 -0.0240  0.0346  0.6996
   20CHTO  H201 8053   5.634   2.587   7.745  0.0456 -0.7345  2.6076
   20CHTO  C120 8054   5.718   2.272   7.721 -0.3823 -0.1087 -0.4571
   20CHTO  H224 8055   5.787   2.302   7.639 -0.1384 -2.4072 -1.1282
   20CHTO   N21 8056   5.602   2.211   7.653  0.1184  0.0475  0.3869
   20CHTO  H211 8057   5.592   2.251   7.553  3.2262  2.0984  0.8164
   20CHTO  H212 8058   5.508   2.221   7.704 -0.7551 -0.5242 -1.0741
   20CHTO   O75 8059   5.777   2.569   7.974  0.3615  0.2936  0.6740
   20CHTO  C112 8060   5.782   2.711   7.906 -0.3585  0.0323  0.4407
   20CHTO  H216 8061   5.780   2.700   7.796 -0.1780  1.7635  0.2592
   20CHTO   O73 8062   5.907   2.764   7.951 -0.1382 -0.3847 -0.0388
   20CHTO  C113 8063   5.942   2.891   7.886 -0.1600 -0.3271  0.1857
   20CHTO  H217 8064   5.947   2.865   7.778  1.9641 -1.0362  0.4233
   20CHTO  C124 8065   6.092   2.924   7.925 -0.2073  0.0142 -0.0856
   20CHTO   O83 8066   6.155   3.040   7.863 -0.2132 -0.2194 -0.4994
   20CHTO  H204 8067   6.184   3.097   7.933  0.2371 -1.8470  0.6664
   20CHTO  C109 8068   5.840   3.000   7.904  0.1575 -0.0552  0.9586
   20CHTO  H213 8069   5.852   3.050   8.001 -0.5065  1.2668  0.3702
   20CHTO  C110 8070   5.700   2.945   7.881 -0.0246 -0.4929 -0.4546
   20CHTO  H214 8071   5.673   2.933   7.776 -1.4580  0.8183 -0.2554
   20CHTO   O78 8072   5.609   3.046   7.929  0.1718  0.2493  0.2680
   20CHTO  H200 8073   5.521   3.028   7.904  0.1795  1.9496 -1.0709
   20CHTO  C111 8074   5.674   2.809   7.951  0.5889 -0.1606 -0.5276
   20CHTO  H215 8075   5.690   2.829   8.058 -1.4551 -2.9445  0.3531
   20CHTO   N19 8076   5.536   2.759   7.943  0.5064 -0.2940  0.6572
   20CHTO  H207 8077   5.548   2.691   7.860 -0.0053  0.8231 -0.3585
   20CHTO  H208 8078   5.520   2.702   8.033  2.9273 -0.7098  0.8542
   20CHTO   O74 8079   5.851   3.100   7.801 -0.3864  0.1855 -0.1820
   20CHTO  C115 8080   5.814   3.261   7.836 -0.4203 -0.0993 -0.4073
   20CHTO  H219 8081   5.779   3.272   7.939 -0.6941 -1.9701 -0.2811
   20CHTO   O76 8082   5.951   3.352   7.830  0.0548 -0.4371 -0.8044
   20CHTO  C122 8083   6.022   3.344   7.705 -0.3836  0.0914  0.1830
   20CHTO  H226 8084   6.076   3.250   7.713  2.8418  1.8156 -0.7339
   20CHTO  C126 8085   6.119   3.455   7.705 -0.6328 -0.2138  0.6410
   20CHTO   O85 8086   6.217   3.447   7.598 -0.1871 -0.3838  0.5060
   20CHTO  H206 8087   6.285   3.390   7.629 -1.7043 -2.6711 -0.2690
   20CHTO  C121 8088   5.920   3.354   7.579 -0.5826 -0.2232  0.0644
   20CHTO  H225 8089   5.963   3.433   7.515  0.6944 -0.8416  0.1400
   20CHTO   O81 8090   5.914   3.231   7.509 -0.2714 -0.4500 -0.1691
   20CHTO  H202 8091   5.912   3.250   7.417  2.1477 -0.9301 -0.3361
   20CHTO  C119 8092   5.778   3.399   7.619  0.1066  0.4817  0.6616
   20CHTO  H223 8093   5.794   3.493   7.672  0.7230  0.2640  0.8654
   20CHTO  C117 8094   5.709   3.298   7.723  0.6226  0.1713 -0.6365
   20CHTO  H221 8095   5.676   3.207   7.674 -0.4701  0.1849  0.0755
   20CHTO   N20 8096   5.588   3.356   7.783  0.1439 -0.5668  0.0348
   20CHTO  H209 8097   5.502   3.361   7.718  0.8984 -0.2865 -0.9537
   20CHTO  H210 8098   5.605   3.461   7.806 -1.4451 -0.1071 -0.8253
   20CHTO   O80 8099   5.684   3.450   7.488 -0.6104  0.2129  0.3480
   20CHTO  C103 8100   5.717   3.584   7.412  0.3944 -0.2967 -0.6513
   20CHTO  H190 8101   5.625   3.627   7.372 -2.2714 -1.8239  3.5770
   20CHTO  C101 8102   5.796   3.702   7.484  0.4428 -0.0216 -0.0403
   20CHTO  H188 8103   5.892   3.670   7.524  1.1192  1.1254 -0.7435
   20CHTO   O68 8104   5.730   3.755   7.610  0.0104 -0.5482  0.0856
   20CHTO  H168 8105   5.647   3.797   7.608  1.1526  1.7626  0.3512
   20CHTO   C99 8106   5.828   3.820   7.378  0.9209  0.0968 -0.2180
   20CHTO  H186 8107   5.732   3.863   7.340  1.4473  1.8081  0.3166
   20CHTO   N17 8108   5.898   3.936   7.435  0.5876 -0.6711  0.0131
   20CHTO  H174 8109   5.878   4.021   7.371 -0.8298 -0.9700  0.0388
   20CHTO  H175 8110   5.859   3.962   7.532 -0.1091 -2.3242  0.1773
   20CHTO   C97 8111   5.906   3.771   7.253  0.3378  0.4320 -0.4005
   20CHTO  H184 8112   6.008   3.745   7.283  0.3284  0.9680  0.1014
   20CHTO   O64 8113   5.825   3.659   7.200  0.4425  0.7379  0.0970
   20CHTO  C104 8114   5.810   3.548   7.288 -0.3097  0.0277  1.1144
   20CHTO  H191 8115   5.908   3.515   7.319 -0.8013 -1.0000  1.5951
   20CHTO  C108 8116   5.738   3.433   7.215  0.3645  0.4722  0.4791
   20CHTO   O71 8117   5.787   3.406   7.081  0.0573 -0.1928  0.2137
   20CHTO  H171 8118   5.813   3.316   7.073  0.7232  0.2776 -4.2317
   20CHTO   O62 8119   5.900   3.864   7.145  0.0929 -0.1213  0.5400
   20CHTO   C91 8120   5.941   3.823   7.012  0.6668  0.0141 -0.4225
   20CHTO  H178 8121   5.990   3.725   7.009  0.1667 -0.2117 -1.6885
   20CHTO   C92 8122   6.070   3.900   6.969 -0.0409  0.1333 -0.1272
   20CHTO  H179 8123   6.055   4.009   6.967  1.9353  0.4421  1.0955
   20CHTO   O66 8124   6.173   3.883   7.064 -0.4113 -0.8786 -0.6492
   20CHTO  H166 8125   6.233   3.956   7.062 -2.1878  0.6190 -0.5315
   20CHTO   C93 8126   6.125   3.844   6.832  0.1986 -0.3750  0.5438
   20CHTO  H180 8127   6.162   3.741   6.848  1.7037 -0.2021 -1.6605
   20CHTO   N16 8128   6.237   3.933   6.778 -0.4553 -0.7076 -0.2542
   20CHTO  H172 8129   6.290   3.902   6.689 -0.1303 -1.6294  0.2583
   20CHTO  H173 8130   6.315   3.949   6.851 -0.4665 -0.3091 -0.3256
   20CHTO   C94 8131   6.010   3.848   6.728  0.6993  0.3749  0.1012
   20CHTO  H181 8132   5.979   3.951   6.709 -2.2754 -0.3442  0.7592
   20CHTO   O61 8133   5.892   3.787   6.770 -0.3547 -0.6289 -0.0112
   20CHTO   C95 8134   5.836   3.840   6.890 -0.3019 -0.4972  0.2240
   20CHTO  H182 8135   5.819   3.946   6.867  2.0827 -0.3309 -1.0117
   20CHTO  C106 8136   5.702   3.770   6.920 -0.0537  0.3413 -0.6464
   20CHTO   O69 8137   5.705   3.628   6.919  0.2211  0.2102  0.3146
   20CHTO  H169 8138   5.785   3.594   6.955  0.1816 -1.3931 -1.0493
   20CHTO   O63 8139   6.064   3.760   6.588  0.0929 -0.4976 -0.0801
   20CHTO   C96 8140   6.090   3.611   6.601 -0.4321  0.1772  1.1795
   20CHTO  H183 8141   6.111   3.591   6.706  0.6066 -0.2019  0.9059
   20CHTO   C98 8142   6.206   3.554   6.506 -0.1681 -0.3094 -0.6443
   20CHTO  H185 8143   6.300   3.603   6.536 -0.4630  0.3962 -0.8572
   20CHTO   O67 8144   6.232   3.416   6.531  0.3011 -0.2968 -0.1267
   20CHTO  H167 8145   6.309   3.416   6.584  0.9322 -0.3342 -1.0278
   20CHTO  C102 8146   6.169   3.587   6.347 -0.3526  0.3209  0.0497
   20CHTO  H189 8147   6.219   3.507   6.290 -1.6175 -1.2153  1.0536
   20CHTO   N18 8148   6.225   3.712   6.301 -0.0909  0.5564  0.4753
   20CHTO  H176 8149   6.279   3.699   6.208  1.4746  1.5024  1.2117
   20CHTO  H177 8150   6.293   3.748   6.377  0.9743  0.6678 -0.5061
   20CHTO  C105 8151   6.015   3.573   6.327  0.5015 -1.0808 -0.2041
   20CHTO  H192 8152   5.974   3.673   6.337 -0.8411 -1.6635  0.1855
   20CHTO   O65 8153   5.961   3.486   6.427 -0.0269 -0.6047 -0.2326
   20CHTO  C100 8154   5.949   3.546   6.560  0.4244  1.2369  0.1308
   20CHTO  H187 8155   5.883   3.634   6.549 -0.4310  0.6394  0.3899
   20CHTO  C107 8156   5.887   3.446   6.663 -0.3063 -0.3239  0.4795
   20CHTO   O70 8157   5.744   3.439   6.663  0.0714 -0.6439  0.7659
   20CHTO  H170 8158   5.709   3.387   6.593  2.5881 -2.6153  0.9130
   20CHTO   O57 8159   5.986   3.524   6.177  0.2929  0.0663 -0.0572
   20CHTO   C85 8160   5.856   3.542   6.118  0.2399  0.7757 -0.7744
   20CHTO  H157 8161   5.820   3.645   6.138  0.9904  0.8840  0.0258
   20CHTO   C83 8162   5.746   3.448   6.176  0.1462  0.8078 -0.1853
   20CHTO  H155 8163   5.733   3.493   6.274 -1.7462  0.5251 -0.3012
   20CHTO   O56 8164   5.812   3.316   6.186 -0.3783 -0.1435  0.3802
   20CHTO  H135 8165   5.876   3.320   6.254  1.9229  0.3596 -1.7401
   20CHTO   C81 8166   5.606   3.476   6.106 -0.9930 -0.2689  0.1066
   20CHTO  H153 8167   5.583   3.582   6.116  0.8999  0.1893 -0.2697
   20CHTO   N14 8168   5.494   3.404   6.171  0.2113 -0.3046 -0.2981
   20CHTO  H141 8169   5.393   3.415   6.136 -0.8712 -1.6575  2.2526
   20CHTO  H142 8170   5.516   3.299   6.180  0.7763 -0.3670 -2.2704
   20CHTO   C79 8171   5.611   3.430   5.960 -0.0343  0.0756  0.1379
   20CHTO  H151 8172   5.520   3.467   5.912  0.5781  0.3362 -0.8461
   20CHTO   O52 8173   5.725   3.502   5.895  0.6911 -0.1049  0.0502
   20CHTO   C86 8174   5.857   3.509   5.958 -0.2980  0.9058  0.0668
   20CHTO  H158 8175   5.903   3.412   5.928 -1.1934  0.4387  0.1782
   20CHTO   C90 8176   5.950   3.617   5.899  0.5321  0.0877 -0.2475
   20CHTO   O60 8177   5.974   3.607   5.756 -0.3264 -0.2905 -0.5585
   20CHTO  H138 8178   5.907   3.661   5.720 -0.4243 -0.7206 -1.0321
   20CHTO   O50 8179   5.634   3.289   5.938 -0.5040 -0.2438 -0.0397
   20CHTO   C73 8180   5.673   3.219   5.817  0.3638  0.5417  0.6938
   20CHTO  H145 8181   5.734   3.281   5.748  1.5944 -0.9382  0.4343
   20CHTO   C74 8182   5.542   3.170   5.742 -0.6306 -0.8037  0.6050
   20CHTO  H146 8183   5.485   3.263   5.723  0.8523  0.0417  0.2682
   20CHTO   O54 8184   5.588   3.120   5.613  0.7271 -0.2756 -0.4069
   20CHTO  H133 8185   5.680   3.123   5.596  0.6145 -0.2338 -1.0090
   20CHTO   C75 8186   5.457   3.064   5.828 -0.6368 -0.2802  0.4892
   20CHTO  H147 8187   5.431   3.119   5.920 -1.0724  0.2801  0.0323
   20CHTO   N13 8188   5.342   3.003   5.757 -0.7359 -0.0400  0.2028
   20CHTO  H139 8189   5.346   2.895   5.751  2.3588 -0.0361  1.0053
   20CHTO  H140 8190   5.249   3.034   5.802 -1.9134 -1.1431 -1.4592
   20CHTO   C76 8191   5.556   2.945   5.873  0.5302 -0.3470  0.1150
   20CHTO  H148 8192   5.593   2.887   5.789  2.1590 -0.4924  0.9173
   20CHTO   O49 8193   5.676   3.005   5.933 -0.1715  1.1686 -0.1868
   20CHTO   C77 8194   5.758   3.090   5.854  0.1037 -0.0169  0.0721
   20CHTO  H149 8195   5.797   3.045   5.762  1.9173  1.3579  0.1394
   20CHTO   C88 8196   5.886   3.120   5.932 -0.0178  0.4264  0.4253
   20CHTO   O58 8197   5.969   3.184   5.858  0.1994  0.1005  0.2490
   20CHTO  H136 8198   6.060   3.178   5.882  0.1952  1.8531  0.8294
   20CHTO   O51 8199   5.503   2.865   5.979  0.4759  0.1201  0.7210
   20CHTO   C78 8200   5.588   2.729   6.014 -0.0560  0.3140 -0.1572
   20CHTO  H150 8201   5.694   2.728   5.981  0.5280 -3.0471  1.6211
   20CHTO   C80 8202   5.517   2.600   5.964  0.1083 -0.5900  0.3146
   20CHTO  H152 8203   5.418   2.589   6.014 -0.9016 -1.5777 -1.8614
   20CHTO   O55 8204   5.504   2.606   5.820  0.1549  0.3403  0.1429
   20CHTO  H134 8205   5.454   2.543   5.773  1.2888  0.0354 -0.6864
   20CHTO   C84 8206   5.600   2.476   6.018 -0.6065  0.0788 -0.6046
   20CHTO  H156 8207   5.699   2.488   5.975 -0.4824  1.9593  0.1469
   20CHTO   N15 8208   5.554   2.341   5.975  0.3934 -0.6216 -0.1484
   20CHTO  H143 8209   5.629   2.286   5.922  2.4081  2.3076 -0.4371
   20CHTO  H144 8210   5.519   2.276   6.053 -0.5054 -1.4203 -1.2088
   20CHTO   C87 8211   5.621   2.482   6.174 -0.0542  0.5258  0.0269
   20CHTO  H159 8212   5.529   2.466   6.231  0.4214  1.6450  1.1146
   20CHTO   O53 8213   5.681   2.625   6.204  0.0122  0.1045  0.1719
   20CHTO   C82 8214   5.603   2.733   6.168  0.6978  0.4183  0.2943
   20CHTO  H154 8215   5.503   2.715   6.207 -0.4972  1.0019 -2.3763
   20CHTO   C89 8216   5.663   2.864   6.235 -0.1164  0.4009  0.5636
   20CHTO   O59 8217   5.617   2.877   6.368 -0.1723 -0.6477 -0.1775
   20CHTO  H137 8218   5.661   2.945   6.415 -1.4575  1.0469 -1.3471
   20CHTO   O45 8219   5.729   2.384   6.228 -0.1528  0.0339  0.1076
   20CHTO   C67 8220   5.721   2.353   6.369 -0.5340  0.3131 -0.2658
   20CHTO  H124 8221   5.641   2.415   6.409 -2.5017 -3.5450  1.9639
   20CHTO   C65 8222   5.681   2.204   6.391  0.5932 -0.4392 -0.2756
   20CHTO  H122 8223   5.719   2.149   6.305 -0.2000 -0.8810 -0.3528
   20CHTO   O44 8224   5.537   2.206   6.378  0.4481  0.4000 -0.7421
   20CHTO  H102 8225   5.499   2.121   6.367 -0.2320  0.5417  0.3840
   20CHTO   C63 8226   5.745   2.142   6.518  0.2496  0.1962 -0.6485
   20CHTO  H120 8227   5.844   2.104   6.492  0.9480  0.1686  1.8826
   20CHTO   N11 8228   5.698   2.007   6.567  0.3784 -0.1573 -0.3228
   20CHTO  H108 8229   5.752   1.986   6.657  0.2714  2.8443  0.4910
   20CHTO  H109 8230   5.711   1.935   6.489 -1.6273  1.2114 -1.9730
   20CHTO   C61 8231   5.752   2.248   6.631  0.2394  0.0615  0.4660
   20CHTO  H118 8232   5.793   2.205   6.724  0.9711 -1.1429 -0.4081
   20CHTO   O40 8233   5.840   2.355   6.594  0.1485  0.1994 -0.2102
   20CHTO   C68 8234   5.852   2.390   6.454  0.3235  0.2604 -0.8353
   20CHTO  H125 8235   5.941   2.334   6.419  0.9502  1.2084 -0.7686
   20CHTO   C72 8236   5.889   2.534   6.458  0.5266  0.5392 -0.0285
   20CHTO   O48 8237   5.786   2.624   6.494 -0.2874 -0.0793 -0.1832
   20CHTO  H105 8238   5.774   2.641   6.586 -1.6871  1.2645 -0.6025
   20CHTO   O38 8239   5.618   2.296   6.655 -0.7237  0.3426 -0.1642
   20CHTO   C55 8240   5.582   2.329   6.787 -0.0347  0.3179 -0.8282
   20CHTO  H112 8241   5.673   2.366   6.837 -0.1940 -0.1417 -0.1900
   20CHTO   C56 8242   5.513   2.206   6.865 -0.3654  0.2199  0.3441
   20CHTO  H113 8243   5.444   2.165   6.791  3.0134 -0.1931 -2.7401
   20CHTO   O42 8244   5.622   2.102   6.880 -0.7200 -0.3899 -0.0065
   20CHTO  H100 8245   5.700   2.138   6.917 -1.5893 -1.1416  2.6380
   20CHTO   C57 8246   5.443   2.234   6.996  0.1883 -0.1214  0.0238
   20CHTO  H114 8247   5.518   2.250   7.074  0.7583 -0.7100 -0.3891
   20CHTO   N10 8248   5.370   2.122   7.048  0.2882 -0.4743 -0.1996
   20CHTO  H106 8249   5.326   2.067   6.967 -1.8890  2.0436 -0.7867
   20CHTO  H107 8250   5.292   2.147   7.118  2.0154 -2.5228  2.5331
   20CHTO   C58 8251   5.357   2.361   6.983  0.2887  0.0514  0.2540
   20CHTO  H115 8252   5.269   2.334   6.922 -0.4610  1.6148  0.6055
   20CHTO   O37 8253   5.436   2.469   6.922 -0.2120 -0.2687 -0.8829
   20CHTO   C59 8254   5.487   2.444   6.787  0.1554  0.1537  0.3773
   20CHTO  H116 8255   5.396   2.412   6.737  1.6940 -3.2187 -0.4439
   20CHTO   C70 8256   5.547   2.574   6.727 -0.1457  0.2679  0.4903
   20CHTO   O46 8257   5.457   2.683   6.712  0.3342 -0.3868  0.6573
   20CHTO  H103 8258   5.424   2.676   6.624 -0.4737 -0.7672  0.9861
   20CHTO   O39 8259   5.313   2.398   7.139  0.1851 -0.0072 -0.3947
   20CHTO   C60 8260   5.304   2.538   7.171  0.2058  0.5651  0.4691
   20CHTO  H117 8261   5.385   2.595   7.125 -0.1965  1.0270  0.3192
   20CHTO   C62 8262   5.180   2.610   7.106  0.0026 -0.1821  0.2690
   20CHTO  H119 8263   5.178   2.579   6.999  0.4693  0.2816  0.1235
   20CHTO   O43 8264   5.059   2.566   7.167 -0.4790  0.0785 -0.6738
   20CHTO  H101 8265   5.008   2.506   7.115 -0.3752 -0.0392 -0.6397
   20CHTO   C66 8266   5.211   2.763   7.119  0.7790  0.6126  0.3621
   20CHTO  H123 8267   5.312   2.783   7.084  0.5492 -0.4662 -0.9751
   20CHTO   N12 8268   5.126   2.854   7.034 -0.1760 -0.1568 -0.3994
   20CHTO  H110 8269   5.148   2.959   7.018  0.4598 -0.4224 -1.3503
   20CHTO  H111 8270   5.023   2.828   7.049  0.0029 -1.0608 -0.7635
   20CHTO   C69 8271   5.196   2.800   7.269 -0.3712  0.8498  0.0617
   20CHTO  H126 8272   5.094   2.768   7.300 -0.7712  2.4773  0.4776
   20CHTO   O41 8273   5.306   2.718   7.349 -0.3403 -0.4014  0.9294
   20CHTO   C64 8274   5.307   2.560   7.322 -0.4511 -0.9035  0.5639
   20CHTO  H121 8275   5.221   2.515   7.377 -1.6415  0.5931 -0.0153
   20CHTO   C71 8276   5.437   2.521   7.378  0.3680  0.1008 -0.2087
   20CHTO   O47 8277   5.455   2.379   7.369 -0.1063 -0.0185  0.1678
   20CHTO  H104 8278   5.479   2.344   7.286  0.5461  0.9551 -0.0649
   20CHTO   O34 8279   5.217   2.945   7.313 -0.4976  0.0542 -0.2986
   20CHTO   C49 8280   5.315   3.056   7.369  0.0097 -0.1279 -0.0420
   20CHTO   H91 8281   5.303   3.049   7.477 -1.6184  0.1871 -0.1901
   20CHTO   C47 8282   5.281   3.196   7.314  0.3189  0.1509 -0.2907
   20CHTO   H89 8283   5.344   3.269   7.370  1.4263 -0.0898 -1.2151
   20CHTO   O33 8284   5.145   3.238   7.336 -0.3325 -0.2692  0.4312
   20CHTO   H70 8285   5.127   3.281   7.418 -4.3486 -1.1510  0.1017
   20CHTO   C45 8286   5.316   3.205   7.156  1.1097 -1.0077 -0.5769
   20CHTO   H87 8287   5.228   3.176   7.097 -0.2463  0.2330  0.7728
   20CHTO    N8 8288   5.347   3.350   7.122  0.3702 -0.1776  0.0430
   20CHTO   H75 8289   5.266   3.407   7.165  1.5322  0.7445  1.0226
   20CHTO   H76 8290   5.441   3.383   7.164 -0.8021  0.8067  1.9460
   20CHTO   C43 8291   5.431   3.101   7.108  1.1425  0.3769  0.3275
   20CHTO   H85 8292   5.391   3.003   7.084  0.2998  0.8226 -0.1231
   20CHTO   O29 8293   5.524   3.094   7.220 -0.0620 -0.0758  0.5593
   20CHTO   C50 8294   5.469   3.035   7.334  0.1411 -0.5486 -0.3310
   20CHTO   H92 8295   5.491   2.929   7.316  2.4422 -0.2977  0.7468
   20CHTO   C54 8296   5.561   3.079   7.448  0.4091  1.0264 -0.0612
   20CHTO   O36 8297   5.590   2.970   7.536  0.3213 -0.2050 -0.2334
   20CHTO   H72 8298   5.680   2.979   7.564  0.2705  0.2014 -0.2022
   20CHTO   O27 8299   5.502   3.133   6.987 -0.0411 -0.0309  0.4214
   20CHTO   C37 8300   5.541   3.058   6.872 -0.0358 -0.1074 -0.7267
   20CHTO   H79 8301   5.472   2.975   6.854 -0.1863 -0.4443  1.3242
   20CHTO   C38 8302   5.543   3.156   6.750 -0.6930  0.4343  0.0211
   20CHTO   H80 8303   5.601   3.241   6.788 -1.2385  1.6950 -1.8927
   20CHTO   O31 8304   5.408   3.197   6.718  0.1154  0.5571 -0.0970
   20CHTO   H68 8305   5.403   3.227   6.629 -0.6583  2.8804  0.7041
   20CHTO   C39 8306   5.617   3.092   6.621  0.4030 -0.6718  0.3539
   20CHTO   H81 8307   5.559   3.002   6.601  0.1266 -0.8456  1.8825
   20CHTO    N7 8308   5.628   3.186   6.507 -0.0915  0.0437 -0.2186
   20CHTO   H73 8309   5.695   3.146   6.432 -0.5579 -1.0364 -0.0653
   20CHTO   H74 8310   5.531   3.208   6.465  0.7440  1.7666 -1.3068
   20CHTO   C40 8311   5.762   3.041   6.660 -0.1405 -0.8480  0.1823
   20CHTO   H82 8312   5.832   3.123   6.679 -0.7921  0.1946 -1.8646
   20CHTO   O26 8313   5.750   2.953   6.770 -0.1931 -0.3458 -0.9602
   20CHTO   C41 8314   5.687   3.013   6.893  0.0490 -0.0412  0.2408
   20CHTO   H83 8315   5.749   3.093   6.935 -1.1868  1.2205 -0.3171
   20CHTO   C52 8316   5.693   2.906   7.005  0.2811 -0.6377 -0.5423
   20CHTO   O35 8317   5.822   2.892   7.058 -0.0817  0.0448 -0.2883
   20CHTO   H71 8318   5.819   2.865   7.148 -0.1887 -1.5689 -0.7685
   20CHTO   O28 8319   5.820   2.953   6.563 -0.5290  0.7375 -0.3896
   20CHTO   C42 8320   5.965   2.921   6.562 -0.1813  0.0648  0.2051
   20CHTO   H84 8321   5.974   2.842   6.488 -2.8117 -2.3215  2.3053
   20CHTO   C44 8322   6.030   2.863   6.693 -0.1023 -0.3384 -0.2938
   20CHTO   H86 8323   6.015   2.939   6.770 -0.4542 -1.9202  1.2155
   20CHTO   O32 8324   5.955   2.739   6.718 -0.1781 -0.3948  0.6724
   20CHTO   H69 8325   5.871   2.760   6.753 -0.2791  0.8767 -0.2661
   20CHTO   C48 8326   6.188   2.843   6.686  0.0151 -0.0724  0.0086
   20CHTO   H90 8327   6.205   2.760   6.617 -0.6792  1.6842 -2.3429
   20CHTO    N9 8328   6.248   2.794   6.816 -0.1590 -0.5757 -0.3458
   20CHTO   H77 8329   6.353   2.774   6.801  0.2454  2.2998 -1.6683
   20CHTO   H78 8330   6.228   2.867   6.894 -0.6030 -0.1844 -0.8268
   20CHTO   C51 8331   6.252   2.970   6.616 -0.4448  0.1817 -0.2658
   20CHTO   H93 8332   6.246   3.053   6.686 -0.0481  0.3674 -0.4549
   20CHTO   O30 8333   6.187   2.997   6.491 -0.1656  0.3592 -0.3800
   20CHTO   C46 8334   6.041   3.044   6.515 -0.1464 -1.3805  0.9234
   20CHTO   H88 8335   6.044   3.123   6.590 -0.1852 -1.5960  1.1525
   20CHTO   C53 8336   5.991   3.093   6.377 -0.2052 -1.2975  0.4316
   20CHTO   O72 8337   6.039   3.223   6.333  0.2048 -0.0762  0.4933
   20CHTO  H199 8338   6.080   3.222   6.248  0.9786 -1.2180  0.8680
   20CHTO   O22 8339   6.392   2.952   6.589 -0.2836 -0.3894 -0.8604
   20CHTO   C31 8340   6.494   3.053   6.562 -0.3443 -0.0512 -0.1323
   20CHTO   H59 8341   6.585   2.995   6.537 -0.1343 -0.2011  0.9520
   20CHTO   C29 8342   6.461   3.139   6.434  0.1531 -0.8842 -0.1155
   20CHTO   H57 8343   6.358   3.172   6.458  0.5651 -0.3485  0.9487
   20CHTO   O21 8344   6.448   3.045   6.323  0.0837 -0.0181  0.0961
   20CHTO   H37 8345   6.432   3.086   6.239 -3.3522 -0.0132  0.6845
   20CHTO   C27 8346   6.552   3.259   6.405 -0.8380  0.2665 -0.3828
   20CHTO   H55 8347   6.639   3.219   6.351  1.3979  2.7733  1.2455
   20CHTO    N5 8348   6.496   3.353   6.310  0.1023  0.0558 -0.1111
   20CHTO   H43 8349   6.581   3.396   6.259 -0.2435 -0.5818 -1.2418
   20CHTO   H44 8350   6.454   3.436   6.366 -0.1898 -1.3802  1.8366
   20CHTO   C25 8351   6.600   3.324   6.543  0.1560 -0.5996  0.1447
   20CHTO   H53 8352   6.524   3.392   6.585  1.2615  0.6740  0.1088
   20CHTO   O17 8353   6.635   3.226   6.653  0.5008 -0.3748 -0.3622
   20CHTO   C32 8354   6.527   3.134   6.689  0.0462  0.6252  0.5285
   20CHTO   H60 8355   6.444   3.202   6.709 -1.1188 -1.3463  2.6224
   20CHTO   C36 8356   6.556   3.033   6.807 -0.2526 -0.4614 -0.4179
   20CHTO   O25 8357   6.506   3.110   6.921  0.2509  0.1693  0.3092
   20CHTO   H40 8358   6.412   3.116   6.920  0.2038 -0.2796  1.0624
   20CHTO   O15 8359   6.733   3.403   6.527 -0.3318 -0.5427  0.5045
   20CHTO   C19 8360   6.812   3.511   6.575  0.0750  0.2156  0.7275
   20CHTO   H47 8361   6.874   3.542   6.490  0.0608  2.0022  1.3439
   20CHTO   C20 8362   6.729   3.635   6.625 -0.0592 -0.1326  0.4128
   20CHTO   H48 8363   6.650   3.605   6.696 -0.9649 -0.1292 -0.5664
   20CHTO   O19 8364   6.647   3.692   6.512 -0.3489 -0.6468  0.4085
   20CHTO   H35 8365   6.686   3.776   6.498  1.1078 -1.0765  1.7113
   20CHTO   C21 8366   6.815   3.747   6.698 -0.0199  0.0489 -0.1380
   20CHTO   H49 8367   6.882   3.793   6.625 -2.1119 -0.5232 -2.5088
   20CHTO    N4 8368   6.726   3.853   6.762  0.6391 -0.0622 -0.2002
   20CHTO   H41 8369   6.660   3.895   6.688 -1.0424 -2.2863 -0.0274
   20CHTO   H42 8370   6.665   3.797   6.831 -1.8662 -0.4062 -2.5959
   20CHTO   C22 8371   6.912   3.672   6.797 -0.2843 -0.0338 -1.0875
   20CHTO   H50 8372   6.849   3.626   6.873  1.1219  1.9209  1.3185
   20CHTO   O14 8373   6.986   3.580   6.723  0.3837 -0.1010  0.2632
   20CHTO   C23 8374   6.906   3.462   6.691  0.2767  0.1182 -0.1693
   20CHTO   H51 8375   6.848   3.419   6.774  1.8464 -0.2158  0.7595
   20CHTO   C34 8376   7.005   3.354   6.639 -0.0727 -0.3003  0.0483
   20CHTO   O23 8377   6.947   3.226   6.654 -0.3122  0.0202 -0.3377
   20CHTO   H38 8378   7.016   3.163   6.654  0.1031  0.4680 -0.1526
   20CHTO   O16 8379   7.007   3.757   6.856 -0.6035  0.2267  0.3267
   20CHTO   C24 8380   7.086   3.690   6.996  0.2876 -0.7571 -0.0905
   20CHTO   H52 8381   7.058   3.586   7.011  0.6675 -0.9378 -0.6228
   20CHTO   C26 8382   7.048   3.763   7.126  0.4667  0.2585  0.4650
   20CHTO   H54 8383   7.084   3.867   7.116  1.7528 -0.0895  1.4260
   20CHTO   O20 8384   6.907   3.780   7.136  0.1658  0.1932  0.1948
   20CHTO   H36 8385   6.877   3.822   7.057 -0.2208  0.0074  0.2422
   20CHTO   C30 8386   7.106   3.681   7.239  0.0156  0.0966 -0.3963
   20CHTO   H58 8387   7.059   3.582   7.229 -2.0877  1.1538 -1.2622
   20CHTO    N6 8388   7.076   3.735   7.373 -0.2359 -0.8038 -0.3523
   20CHTO   H45 8389   7.126   3.830   7.383 -1.6189 -0.2372  1.2916
   20CHTO   H46 8390   6.971   3.742   7.393 -0.1933 -1.0885 -0.0367
   20CHTO   C33 8391   7.258   3.644   7.228  0.3184 -0.7936  0.1655
   20CHTO   H61 8392   7.311   3.728   7.275 -1.2790  0.6645 -0.5988
   20CHTO   O18 8393   7.301   3.628   7.090 -0.1974  0.4172  0.3977
   20CHTO   C28 8394   7.247   3.696   6.983  0.6666  0.0864 -0.5226
   20CHTO   H56 8395   7.281   3.800   6.992  0.1874  0.1763  0.2718
   20CHTO   C35 8396   7.304   3.626   6.855  1.0954 -0.7305 -0.8301
   20CHTO   O24 8397   7.443   3.662   6.842  0.5493  0.0471  0.5461
   20CHTO   H39 8398   7.487   3.622   6.915 -1.9682 -2.4002  0.8515
   20CHTO    O9 8399   7.286   3.530   7.307 -0.0531  0.2328 -0.1068
   20CHTO   C13 8400   7.332   3.393   7.244  1.2141  0.3120  0.7889
   20CHTO   H26 8401   7.438   3.407   7.215  2.0173 -1.6760  2.6523
   20CHTO   C11 8402   7.241   3.338   7.122  0.0618 -0.6355  0.2345
   20CHTO   H24 8403   7.263   3.404   7.038  0.2231 -0.0307  0.7476
   20CHTO    O8 8404   7.107   3.354   7.162 -0.6051  0.5403  0.0174
   20CHTO    H3 8405   7.055   3.280   7.136 -0.5138  0.6002 -0.3283
   20CHTO    C9 8406   7.299   3.196   7.085  0.1329  0.4733  0.1721
   20CHTO   H22 8407   7.408   3.211   7.076  0.5208 -1.7604  0.8122
   20CHTO    N2 8408   7.250   3.142   6.955  0.2851 -0.6181  0.0633
   20CHTO   H10 8409   7.157   3.093   6.980  0.8886 -1.3323  0.9496
   20CHTO   H11 8410   7.242   3.221   6.883  0.5535 -0.9497 -0.3323
   20CHTO    C7 8411   7.275   3.094   7.209 -0.4084 -0.0841  0.6072
   20CHTO   H20 8412   7.322   2.998   7.178 -0.8232 -0.3027  0.6581
   20CHTO    O4 8413   7.356   3.143   7.322 -0.2901  0.2255 -0.0317
   20CHTO   C14 8414   7.342   3.282   7.362  1.0732 -0.2274 -1.0682
   20CHTO   H27 8415   7.434   3.309   7.418 -0.5554  0.0805  1.5969
   20CHTO   C18 8416   7.231   3.302   7.460  0.1310 -0.1901  0.0356
   20CHTO   O13 8417   7.254   3.234   7.588  0.6012  0.0576 -0.1369
   20CHTO    H7 8418   7.177   3.249   7.639 -0.2105 -1.1717 -0.9703
   20CHTO    O2 8419   7.115   3.076   7.251 -0.3248  0.5554  0.7414
   20CHTO    C1 8420   7.051   2.945   7.263  0.2039  0.5415  0.2110
   20CHTO   H14 8421   6.976   2.960   7.344 -1.6951 -0.8463 -1.2693
   20CHTO    C2 8422   7.156   2.835   7.310  0.2949  0.5457  0.5400
   20CHTO   H15 8423   7.221   2.815   7.224  0.0516 -2.5779  1.0300
   20CHTO    O6 8424   7.229   2.868   7.427 -0.0873 -0.4745  0.1190
   20CHTO    H1 8425   7.312   2.908   7.409  0.2707 -0.3154  2.0356
   20CHTO    C3 8426   7.083   2.692   7.336  0.2579  0.3137  0.5471
   20CHTO   H16 8427   7.021   2.691   7.427 -0.3649 -0.1242  0.1214
   20CHTO    N1 8428   7.175   2.575   7.359  0.1505  0.0155  0.0578
   20CHTO    H8 8429   7.216   2.541   7.265 -2.3015  0.1026 -1.0691
   20CHTO    H9 8430   7.128   2.491   7.407  1.8193 -0.5256  0.7667
   20CHTO    C4 8431   6.991   2.654   7.215 -1.1859 -0.0665  0.0965
   20CHTO   H17 8432   7.054   2.626   7.130  1.4980  0.6476  1.8059
   20CHTO    O1 8433   6.909   2.770   7.184  0.2782  0.9477 -0.4247
   20CHTO    C5 8434   6.982   2.887   7.137  0.1942 -0.2511  0.4519
   20CHTO   H18 8435   7.059   2.853   7.068 -1.7608 -2.1171 -0.8721
   20CHTO   C16 8436   6.891   2.987   7.073 -0.3121  0.3636  0.7138
   20CHTO   O11 8437   6.858   2.955   6.939  0.1515 -0.4151  0.0498
   20CHTO    H5 8438   6.924   2.973   6.874  0.4214 -1.4459  0.0397
   20CHTO    O3 8439   6.890   2.561   7.245 -0.0329 -0.0792  0.0978
   20CHTO    C6 8440   6.832   2.484   7.132 -0.2319  0.4434  0.3282
   20CHTO   H19 8441   6.854   2.534   7.038  0.9645 -0.9788 -0.1525
   20CHTO    C8 8442   6.894   2.341   7.130  0.7748  0.0484  0.1684
   20CHTO   H21 8443   6.880   2.296   7.229  2.6857  1.0347  0.9222
   20CHTO    O7 8444   7.028   2.339   7.100  0.3407 -0.2017 -0.0386
   20CHTO    H2 8445   7.064   2.256   7.075  2.5433  0.0155  2.2668
   20CHTO   C12 8446   6.815   2.253   7.025  0.0780 -0.3868 -0.1451
   20CHTO   H25 8447   6.824   2.298   6.924 -1.4776 -2.1058 -1.0983
   20CHTO    N3 8448   6.870   2.112   7.023 -0.4628 -0.3878 -0.2928
   20CHTO   H12 8449   6.960   2.102   7.083  0.5379  1.6497 -1.3919
   20CHTO   H13 8450   6.886   2.068   6.926  0.9686  2.1350 -1.2668
   20CHTO   C15 8451   6.663   2.258   7.055  0.0024  0.4295 -0.0893
   20CHTO   H28 8452   6.639   2.220   7.153 -1.0547  0.6612 -0.2571
   20CHTO   O10 8453   6.581   2.207   6.947 -0.2121  1.1264  0.1264
   20CHTO    H4 8454   6.592   2.114   6.937  0.4010  1.3965 -1.9379
   20CHTO    O5 8455   6.620   2.393   7.048 -0.8059  0.0313  0.6003
   20CHTO   C10 8456   6.679   2.481   7.149 -0.2211 -0.7893  0.3186
   20CHTO   H23 8457   6.649   2.444   7.247 -1.9053  2.2867  1.0039
   20CHTO   C17 8458   6.629   2.630   7.139 -0.7855  0.6661 -0.5417
   20CHTO   O12 8459   6.609   2.674   7.006  0.4031 -0.7994  1.2028
   20CHTO    H6 8460   6.586   2.604   6.947 -2.1342 -0.0022  1.2282
   21GLOH   H03 8461   8.020   6.921   4.421  0.7070 -1.3529  0.4543
   21GLOH    O1 8462   7.941   6.911   4.478  0.1632 -0.4527 -0.1244
   21GLOH    C1 8463   7.851   7.026   4.454  0.4200 -0.1965  0.3728
   21GLOH   H02 8464   7.903   7.119   4.429 -2.4477  2.1116  2.5034
   21GLOH   H08 8465   7.783   7.044   4.538 -1.1579 -0.8244 -0.7359
   21GLOH    C2 8466   7.761   6.989   4.338 -0.5258 -0.1203  0.6120
   21GLOH   H04 8467   7.711   6.895   4.366  1.2559 -1.1376  0.4871
   21GLOH    O2 8468   7.668   7.097   4.317  0.2042  0.1145 -0.3355
   21GLOH   H05 8469   7.594   7.082   4.256 -0.2769  2.3740 -0.3410
   21GLOH    C3 8470   7.845   6.968   4.210 -0.1473 -0.6960 -0.0478
   21GLOH   H06 8471   7.922   6.895   4.235  1.6558  1.1880  0.0488
   21GLOH   H07 8472   7.895   7.061   4.185 -1.2035  0.3841  1.6893
   21GLOH    O3 8473   7.770   6.925   4.095 -0.1075 -0.5227 -0.4374
   21GLOH   H01 8474   7.683   6.966   4.113 -0.1606 -0.4255 -0.9331
   22GLOH   H03 8475   0.787   0.482   3.324  0.8351  0.5040 -0.4876
   22GLOH    O1 8476   0.766   0.574   3.347 -0.2136  0.1746 -0.0942
   22GLOH    C1 8477   0.858   0.635   3.444  0.2123 -0.4086 -0.8802
   22GLOH   H02 8478   0.801   0.715   3.491  0.1797 -1.3814  0.7878
   22GLOH   H08 8479   0.948   0.676   3.397 -0.3172  1.5010 -0.3018
   22GLOH    C2 8480   0.896   0.539   3.556 -0.1509 -0.3780  0.2857
   22GLOH   H04 8481   0.803   0.504   3.602 -0.0513 -0.3567  0.5106
   22GLOH    O2 8482   0.976   0.442   3.492  0.0907  0.1446  0.1840
   22GLOH   H05 8483   0.919   0.381   3.443  0.7795 -0.7252  0.4435
   22GLOH    C3 8484   0.966   0.603   3.679 -0.1510 -0.1030 -0.3707
   22GLOH   H06 8485   1.048   0.663   3.640  0.2088 -1.3716 -1.6248
   22GLOH   H07 8486   1.009   0.525   3.742  0.1596  1.2892  1.1611
   22GLOH    O3 8487   0.888   0.697   3.762 -0.6689  0.4473 -0.0793
   22GLOH   H01 8488   0.899   0.781   3.714 -0.0736  0.4034 -0.0153
   23GLOH   H03 8489   0.855   5.714   0.131  0.1121  0.7164  0.3834
   23GLOH    O1 8490   0.772   5.755   0.160 -0.0271  0.7385 -0.0399
   23GLOH    C1 8491   0.658   5.722   0.090 -0.6306 -0.6295  0.2874
   23GLOH   H02 8492   0.676   5.641   0.020  1.1026 -2.3696  2.7012
   23GLOH   H08 8493   0.619   5.806   0.032  2.5080  1.1047  0.5680
   23GLOH    C2 8494   0.555   5.658   0.178 -0.3280  0.3826  0.2632
   23GLOH   H04 8495   0.461   5.640   0.125  0.5303 -2.0205 -0.4979
   23GLOH    O2 8496   0.599   5.521   0.218 -0.3763  0.3908 -0.3001
   23GLOH   H05 8497   0.680   5.532   0.271 -0.8305  1.5850  0.1624
   23GLOH    C3 8498   0.527   5.757   0.295  0.1835 -0.0740  0.3212
   23GLOH   H06 8499   0.607   5.743   0.368  1.0696  0.1790 -0.5796
   23GLOH   H07 8500   0.437   5.722   0.344 -0.3602  1.0534  0.1377
   23GLOH    O3 8501   0.500   5.894   0.255 -0.4467 -0.0359  0.4477
   23GLOH   H01 8502   0.403   5.898   0.245 -0.2867  1.8134 -0.5481
   24GLOH   H03 8503   8.454   1.341   4.923 -0.7949 -0.8211  2.9118
   24GLOH    O1 8504   8.539   1.374   4.959  0.0653  0.0677  0.1437
   24GLOH    C1 8505   8.567   1.326   5.095  0.0802  0.1356  0.5914
   24GLOH   H02 8506   8.489   1.366   5.159 -0.4757  0.6266 -0.3768
   24GLOH   H08 8507   8.669   1.358   5.118 -0.0318 -0.1998  1.5934
   24GLOH    C2 8508   8.580   1.168   5.110  0.4591 -0.7561 -0.4844
   24GLOH   H04 8509   8.624   1.143   5.208 -1.1020 -1.2825  0.0970
   24GLOH    O2 8510   8.462   1.094   5.089 -0.2816 -0.4956 -0.1461
   24GLOH   H05 8511   8.434   1.111   4.997  0.0970  2.2639  0.1903
   24GLOH    C3 8512   8.680   1.115   5.011 -0.1776 -0.4413 -0.1044
   24GLOH   H06 8513   8.643   1.148   4.914  0.3470  0.8349  0.1235
   24GLOH   H07 8514   8.696   1.007   5.019  2.2257 -0.0887  0.1627
   24GLOH    O3 8515   8.809   1.180   5.027 -0.1870  0.3730 -0.7022
   24GLOH   H01 8516   8.814   1.267   4.983  1.8517  0.8444  0.3594
   25GLOH   H03 8517   2.071   4.375   2.262  0.2996  2.0989 -1.3200
   25GLOH    O1 8518   2.066   4.314   2.186 -0.2629  0.5338 -0.0455
   25GLOH    C1 8519   2.180   4.334   2.102 -0.1607  0.3209 -0.0510
   25GLOH   H02 8520   2.268   4.288   2.147  0.2760 -1.3659 -2.4881
   25GLOH   H08 8521   2.209   4.439   2.098 -0.0379  0.2474 -1.7246
   25GLOH    C2 8522   2.172   4.289   1.950  0.7311 -0.0667 -0.1840
   25GLOH   H04 8523   2.081   4.333   1.908 -0.5026 -2.7808 -0.4355
   25GLOH    O2 8524   2.286   4.335   1.878  0.1738 -0.4013 -0.4128
   25GLOH   H05 8525   2.296   4.432   1.868 -1.3104 -0.4713 -3.0516
   25GLOH    C3 8526   2.165   4.135   1.937  0.2980  0.2611 -0.2378
   25GLOH   H06 8527   2.249   4.090   1.991  1.5602  0.7548 -1.7402
   25GLOH   H07 8528   2.173   4.112   1.831 -1.9785 -0.9333 -0.1648
   25GLOH    O3 8529   2.044   4.084   1.984  0.1211 -0.8323  0.5131
   25GLOH   H01 8530   1.970   4.139   1.951 -0.9558 -0.6396  3.1079
   26GLOH   H03 8531   7.728   4.379   5.460  1.0008  0.6183  0.8127
   26GLOH    O1 8532   7.663   4.451   5.451  0.0935 -0.2671  0.2713
   26GLOH    C1 8533   7.720   4.579   5.422 -0.0214 -0.3625 -0.3419
   26GLOH   H02 8534   7.699   4.618   5.322 -1.8589  0.2083  0.2598
   26GLOH   H08 8535   7.828   4.587   5.440  0.0476  0.4624 -1.0848
   26GLOH    C2 8536   7.649   4.685   5.511 -0.8084 -0.0566  0.0714
   26GLOH   H04 8537   7.637   4.649   5.614 -1.1766 -1.5400 -0.4692
   26GLOH    O2 8538   7.738   4.798   5.500 -0.6457 -0.2634  0.8201
   26GLOH   H05 8539   7.803   4.797   5.572 -0.6839  0.1500  0.8609
   26GLOH    C3 8540   7.516   4.720   5.453 -0.2551  0.9061  0.6511
   26GLOH   H06 8541   7.521   4.768   5.355 -2.4447  1.2343  0.6871
   26GLOH   H07 8542   7.466   4.791   5.518 -2.9450  1.5851 -2.0636
   26GLOH    O3 8543   7.436   4.606   5.430  0.6975  0.0995  0.1725
   26GLOH   H01 8544   7.468   4.570   5.345 -0.4427 -1.3655  0.3529
   27GLOH   H03 8545   2.367   1.913   6.109 -0.1045 -0.2262 -0.0123
   27GLOH    O1 8546   2.373   2.004   6.143 -0.2131 -0.0860 -0.3582
   27GLOH    C1 8547   2.304   2.021   6.266 -0.0072  0.9366  0.2589
   27GLOH   H02 8548   2.359   1.966   6.342  1.4094 -0.6063 -1.8340
   27GLOH   H08 8549   2.198   1.995   6.260  0.1479 -0.3624  2.6500
   27GLOH    C2 8550   2.306   2.169   6.307  0.2460 -0.1575 -0.5066
   27GLOH   H04 8551   2.409   2.207   6.302 -0.0693  1.1041  1.6248
   27GLOH    O2 8552   2.244   2.251   6.216 -0.0031  0.7693  0.5702
   27GLOH   H05 8553   2.154   2.230   6.185  1.3215 -1.6296 -1.8201
   27GLOH    C3 8554   2.261   2.185   6.457 -0.2487 -0.7564 -0.2125
   27GLOH   H06 8555   2.303   2.099   6.508  0.3965  0.2927  1.0430
   27GLOH   H07 8556   2.152   2.182   6.457 -0.5486  4.4474  1.6809
   27GLOH    O3 8557   2.298   2.314   6.515  0.5544 -0.2423 -0.0647
   27GLOH   H01 8558   2.275   2.368   6.438  1.9858 -0.6566 -0.8233
   28GLOH   H03 8559   7.323   0.197   6.603 -1.3281  0.4776  0.6892
   28GLOH    O1 8560   7.371   0.162   6.680  0.2425  0.2990 -0.3327
   28GLOH    C1 8561   7.394   0.021   6.666 -0.2354  0.4878  0.2679
   28GLOH   H02 8562   7.497  -0.001   6.637  0.2383 -0.2566  2.4116
   28GLOH   H08 8563   7.321  -0.020   6.595 -0.7852  1.7648  0.0865
   28GLOH    C2 8564   7.375  -0.054   6.801  0.1356 -0.4075 -0.3867
   28GLOH   H04 8565   7.279  -0.016   6.839  0.1490 -2.0739  1.3271
   28GLOH    O2 8566   7.367  -0.190   6.783  0.2870  0.0699  0.3985
   28GLOH   H05 8567   7.343  -0.212   6.691  1.2874 -0.3832  0.2321
   28GLOH    C3 8568   7.493  -0.027   6.903  1.1209 -0.0135 -0.0912
   28GLOH   H06 8569   7.578  -0.079   6.861  1.4948  0.7746 -0.3184
   28GLOH   H07 8570   7.481  -0.079   6.998 -0.2050 -0.2066 -0.3534
   28GLOH    O3 8571   7.519   0.114   6.928 -0.6527  0.4138  0.4872
   28GLOH   H01 8572   7.610   0.114   6.963 -0.1989 -1.3856 -0.6220
   29GLOH   H03 8573   3.145   5.199   4.406 -0.9327 -0.1003  1.8620
   29GLOH    O1 8574   3.195   5.283   4.411 -0.1053 -0.4505 -0.0001
   29GLOH    C1 8575   3.225   5.312   4.552 -0.3956  0.3958  0.2480
   29GLOH   H02 8576   3.325   5.275   4.571 -0.9691 -1.1653  0.3011
   29GLOH   H08 8577   3.149   5.274   4.620  0.1557  1.1208  1.2792
   29GLOH    C2 8578   3.223   5.462   4.577 -0.0878  0.0682  0.2536
   29GLOH   H04 8579   3.282   5.512   4.498  0.3968  2.2761  1.9519
   29GLOH    O2 8580   3.093   5.521   4.569  0.3886 -0.0358  0.2728
   29GLOH   H05 8581   3.042   5.466   4.508  0.3852 -0.5629  0.7485
   29GLOH    C3 8582   3.294   5.494   4.710 -0.1400  0.5048 -0.1603
   29GLOH   H06 8583   3.247   5.452   4.799  2.7549 -0.8108  0.7911
   29GLOH   H07 8584   3.278   5.601   4.716 -0.2069  0.4365  1.1092
   29GLOH    O3 8585   3.430   5.457   4.698 -0.3646  0.3460 -0.3470
   29GLOH   H01 8586   3.488   5.535   4.706  1.7901 -1.2588  0.1605
   30GLOH   H03 8587   7.890   0.036   7.313  2.1499  2.9466  1.4226
   30GLOH    O1 8588   7.959   0.005   7.252 -0.4833  0.1651 -0.2550
   30GLOH    C1 8589   8.020  -0.116   7.316 -0.0294  0.2714 -0.3522
   30GLOH   H02 8590   8.107  -0.088   7.376 -0.9622  0.8738  0.7248
   30GLOH   H08 8591   8.065  -0.181   7.241  3.4997  0.9838  1.0471
   30GLOH    C2 8592   7.920  -0.190   7.400 -0.2915 -0.6321 -0.5301
   30GLOH   H04 8593   7.863  -0.244   7.322 -2.1860  1.0704 -0.3559
   30GLOH    O2 8594   7.982  -0.293   7.487  0.3548  0.3582  0.4979
   30GLOH   H05 8595   8.026  -0.359   7.431  0.6613 -0.9078  2.2185
   30GLOH    C3 8596   7.821  -0.102   7.486  0.6561  0.5091 -0.2102
   30GLOH   H06 8597   7.883  -0.051   7.561 -0.3411 -0.8195  1.5474
   30GLOH   H07 8598   7.755  -0.174   7.533  0.3114  0.9599  0.0036
   30GLOH    O3 8599   7.747  -0.006   7.406  0.5008 -0.1246 -0.4282
   30GLOH   H01 8600   7.711   0.058   7.470 -0.1533  0.9617 -1.8602
   31GLOH   H03 8601   0.307   7.711   6.354  0.7156 -1.6893  0.8915
   31GLOH    O1 8602   0.357   7.783   6.396 -0.1486 -0.2483 -0.4683
   31GLOH    C1 8603   0.262   7.885   6.427  0.5646  0.4354  0.0458
   31GLOH   H02 8604   0.265   7.900   6.534  0.2886  2.2853 -0.1924
   31GLOH   H08 8605   0.159   7.854   6.408 -0.9320  3.3331  3.0826
   31GLOH    C2 8606   0.299   8.031   6.386 -0.5009 -0.7117 -0.1155
   31GLOH   H04 8607   0.321   8.028   6.279  0.7059  1.3679  0.0578
   31GLOH    O2 8608   0.188   8.119   6.416 -0.2521 -0.2052 -0.2484
   31GLOH   H05 8609   0.224   8.206   6.391  0.5073 -1.1313 -2.5779
   31GLOH    C3 8610   0.431   8.080   6.454 -0.2800  0.6777  0.2204
   31GLOH   H06 8611   0.409   8.113   6.555 -2.0224 -0.1940  0.1559
   31GLOH   H07 8612   0.452   8.167   6.392 -0.6357  0.9026  0.4155
   31GLOH    O3 8613   0.536   7.977   6.461  0.3575 -0.7135  0.5922
   31GLOH   H01 8614   0.494   7.889   6.448 -0.2278 -0.5600  1.3345
   32GLOH   H03 8615   7.015   6.093   0.552 -0.0899  4.0227  0.3163
   32GLOH    O1 8616   6.963   6.091   0.634 -0.3886  0.5310  0.0935
   32GLOH    C1 8617   7.037   6.012   0.728 -0.0365  0.3163  0.3074
   32GLOH   H02 8618   7.011   5.908   0.709  3.0591 -0.5738  0.6967
   32GLOH   H08 8619   6.997   6.037   0.826  0.2137  2.3552 -0.0805
   32GLOH    C2 8620   7.193   6.026   0.739  0.0795 -0.2234  0.1939
   32GLOH   H04 8621   7.240   5.952   0.805  0.7776  1.1118  1.2153
   32GLOH    O2 8622   7.252   5.998   0.609  0.1965 -0.5339  0.4120
   32GLOH   H05 8623   7.349   6.006   0.620  0.0435  1.2712  0.5505
   32GLOH    C3 8624   7.227   6.158   0.793 -0.1468 -0.1076  0.7104
   32GLOH   H06 8625   7.184   6.229   0.722 -1.5672 -2.3681 -0.7517
   32GLOH   H07 8626   7.333   6.181   0.801 -0.0715 -0.3580  0.4596
   32GLOH    O3 8627   7.174   6.185   0.923  0.0498 -0.3227 -0.4888
   32GLOH   H01 8628   7.217   6.120   0.982  0.2916 -0.0848 -0.4002
   33GLOH   H03 8629   3.684   3.464   4.872  0.6444 -0.2385  0.0931
   33GLOH    O1 8630   3.752   3.532   4.858  0.2405  0.1838  0.1818
   33GLOH    C1 8631   3.872   3.479   4.806  0.5547  0.4543 -0.3439
   33GLOH   H02 8632   3.920   3.414   4.879  2.7134 -1.5187 -3.4366
   33GLOH   H08 8633   3.934   3.561   4.769  1.1675  1.8054  3.4356
   33GLOH    C2 8634   3.855   3.386   4.686  0.2774 -0.7513  0.3414
   33GLOH   H04 8635   3.960   3.389   4.652  0.9973  0.3617  2.6110
   33GLOH    O2 8636   3.830   3.251   4.715 -0.5006 -0.0175  0.3271
   33GLOH   H05 8637   3.769   3.249   4.791  0.4848  0.9353  1.1782
   33GLOH    C3 8638   3.758   3.413   4.574 -0.4064 -0.5492  0.1426
   33GLOH   H06 8639   3.661   3.427   4.622 -1.0546 -2.2337 -0.6312
   33GLOH   H07 8640   3.752   3.327   4.508 -0.0617  0.0294 -0.6371
   33GLOH    O3 8641   3.806   3.530   4.509  0.6104 -0.1930  0.2270
   33GLOH   H01 8642   3.891   3.500   4.471  0.2954 -0.3545 -0.3630
   34GLOH   H03 8643   5.831   1.116   1.313 -0.0751  1.0311 -1.8364
   34GLOH    O1 8644   5.924   1.146   1.308  0.1938  0.6821  0.4964
   34GLOH    C1 8645   6.004   1.057   1.389  0.1870 -0.6728 -0.3953
   34GLOH   H02 8646   5.992   1.070   1.497  0.9611 -0.5955 -0.3108
   34GLOH   H08 8647   6.110   1.078   1.373  0.2756  0.0312  0.9903
   34GLOH    C2 8648   5.992   0.905   1.358 -0.0225  0.3900 -0.3923
   34GLOH   H04 8649   5.890   0.872   1.380  0.6430 -0.7919  0.9483
   34GLOH    O2 8650   6.016   0.881   1.219 -0.4341  0.2159 -0.1735
   34GLOH   H05 8651   6.106   0.907   1.190  0.6688  0.1772  2.9961
   34GLOH    C3 8652   6.100   0.832   1.431 -0.0344  0.0402  0.0456
   34GLOH   H06 8653   6.188   0.818   1.368  1.3577 -3.3797  2.5811
   34GLOH   H07 8654   6.071   0.730   1.455 -0.7759  0.1411 -0.4020
   34GLOH    O3 8655   6.130   0.893   1.560 -0.3720 -0.1257  0.2760
   34GLOH   H01 8656   6.209   0.951   1.558  0.8029 -1.6666  0.6039
   35GLOH   H03 8657   1.377   4.572   0.762  0.8981  0.3079 -1.0277
   35GLOH    O1 8658   1.334   4.508   0.702 -0.3764  0.1558  0.0223
   35GLOH    C1 8659   1.213   4.560   0.665  0.2584 -0.3895 -0.2920
   35GLOH   H02 8660   1.209   4.666   0.690  1.3108 -0.3347 -0.3320
   35GLOH   H08 8661   1.131   4.528   0.729  0.7467 -0.0946  0.4866
   35GLOH    C2 8662   1.186   4.522   0.513 -0.8145  0.4580 -0.3371
   35GLOH   H04 8663   1.204   4.414   0.503  0.0078  0.5567  0.0183
   35GLOH    O2 8664   1.043   4.533   0.479 -0.6983  0.5907 -0.2569
   35GLOH   H05 8665   1.014   4.626   0.471  0.9553  1.3019  1.4616
   35GLOH    C3 8666   1.282   4.589   0.413  0.7944 -0.4928 -0.4212
   35GLOH   H06 8667   1.256   4.576   0.308  0.7255 -2.1907 -0.2054
   35GLOH   H07 8668   1.376   4.536   0.431 -0.3900 -3.2585 -2.0916
   35GLOH    O3 8669   1.299   4.732   0.445  0.2463  0.1074  0.1187
   35GLOH   H01 8670   1.352   4.741   0.526 -1.9614  1.1497  1.4925
   36GLOH   H03 8671   4.270   8.904   7.986 -0.5931  1.0540 -1.7461
   36GLOH    O1 8672   4.253   8.815   7.950 -0.3667  0.2732  0.0331
   36GLOH    C1 8673   4.250   8.837   7.809  0.2829  0.1176  0.3572
   36GLOH   H02 8674   4.197   8.929   7.782  1.2697  0.5659 -0.0727
   36GLOH   H08 8675   4.194   8.755   7.764 -2.7082  1.8375  0.7787
   36GLOH    C2 8676   4.389   8.852   7.750  0.3907  0.1258 -0.3598
   36GLOH   H04 8677   4.449   8.769   7.790 -1.9218 -2.0782 -1.3629
   36GLOH    O2 8678   4.391   8.839   7.606  0.1539 -0.8992  0.6054
   36GLOH   H05 8679   4.350   8.754   7.582 -0.1530 -0.0169 -2.2798
   36GLOH    C3 8680   4.449   8.993   7.788  0.3950 -0.2788 -0.3826
   36GLOH   H06 8681   4.377   9.071   7.765 -0.4014 -0.8724  0.0761
   36GLOH   H07 8682   4.527   9.014   7.715 -0.3335  0.8980 -0.8264
   36GLOH    O3 8683   4.504   9.006   7.918 -0.3821 -0.2992 -0.3366
   36GLOH   H01 8684   4.428   9.028   7.976  0.6692  3.4048 -0.2292
   37GLOH   H03 8685   5.976   7.569   1.379 -0.5875  0.1208  1.1859
   37GLOH    O1 8686   5.966   7.655   1.335  0.0989 -0.3536  0.0805
   37GLOH    C1 8687   6.021   7.752   1.422 -0.3976 -0.0012  0.2623
   37GLOH   H02 8688   6.055   7.841   1.370 -0.3415  0.8105  1.6757
   37GLOH   H08 8689   6.110   7.708   1.468 -0.8673 -1.6910 -0.3923
   37GLOH    C2 8690   5.922   7.794   1.530  0.3105  0.3695 -0.6710
   37GLOH   H04 8691   5.894   7.702   1.584  1.4989  0.7019  0.5434
   37GLOH    O2 8692   5.982   7.892   1.617 -0.3689 -0.3691  0.5990
   37GLOH   H05 8693   5.999   7.864   1.708 -0.0368  0.5424  0.8302
   37GLOH    C3 8694   5.798   7.851   1.459  0.0476  0.3467 -0.0678
   37GLOH   H06 8695   5.844   7.929   1.398  2.2446 -0.3673  0.6162
   37GLOH   H07 8696   5.734   7.900   1.533 -0.1233  0.1111 -0.0608
   37GLOH    O3 8697   5.721   7.753   1.386 -0.1801 -0.2060 -0.4498
   37GLOH   H01 8698   5.790   7.698   1.345  0.9511  0.1088  0.9948
   38GLOH   H03 8699   9.308   9.206   6.625 -3.6922 -0.1887 -1.7661
   38GLOH    O1 8700   9.330   9.297   6.599  0.0619 -0.4686  0.1105
   38GLOH    C1 8701   9.266   9.385   6.696  0.3927  0.1375  0.2998
   38GLOH   H02 8702   9.293   9.487   6.669 -2.0091  0.8692  0.5176
   38GLOH   H08 8703   9.312   9.369   6.794  0.5869  2.6572  0.6465
   38GLOH    C2 8704   9.112   9.360   6.698  0.7126 -0.4040  0.3449
   38GLOH   H04 8705   9.075   9.372   6.595  1.8318  1.1458  0.1121
   38GLOH    O2 8706   9.083   9.229   6.746  0.5374 -0.1488 -0.2105
   38GLOH   H05 8707   9.068   9.231   6.842  1.0965  0.3536 -0.1318
   38GLOH    C3 8708   9.048   9.478   6.771  0.0940  0.7044 -0.3856
   38GLOH   H06 8709   9.100   9.486   6.867  0.5881  1.3160 -0.6940
   38GLOH   H07 8710   8.945   9.453   6.795 -0.5939  1.4316 -2.4867
   38GLOH    O3 8711   9.037   9.601   6.703 -0.6370 -0.4994 -0.3953
   38GLOH   H01 8712   8.991   9.581   6.620 -0.3028 -1.7472 -0.2990
   39GLOH   H03 8713   8.468   3.616   5.624  1.3245 -1.4217  0.2421
   39GLOH    O1 8714   8.449   3.602   5.719 -0.5641  0.7255  0.2301
   39GLOH    C1 8715   8.512   3.482   5.759 -0.3201 -0.5354  0.5340
   39GLOH   H02 8716   8.549   3.496   5.861  0.6154  0.3253  0.0933
   39GLOH   H08 8717   8.594   3.465   5.690  0.8258 -0.2394  1.7881
   39GLOH    C2 8718   8.417   3.362   5.738 -0.2046  0.5560  1.0722
   39GLOH   H04 8719   8.470   3.266   5.750 -0.7613  0.0883 -0.1809
   39GLOH    O2 8720   8.300   3.364   5.820  0.2884  0.4898  0.1285
   39GLOH   H05 8721   8.224   3.413   5.784 -0.8256 -0.6674  0.8488
   39GLOH    C3 8722   8.375   3.364   5.590 -0.0411  0.6415 -0.1094
   39GLOH   H06 8723   8.467   3.375   5.532 -0.4698  0.3714 -0.8512
   39GLOH   H07 8724   8.324   3.458   5.570 -0.1862  0.5564 -0.1466
   39GLOH    O3 8725   8.294   3.254   5.556  0.0509  0.1502  0.0933
   39GLOH   H01 8726   8.226   3.251   5.626  0.1017  1.4285  0.2131
   40GLOH   H03 8727   2.764   0.778   1.563 -0.3976 -1.3740 -2.0313
   40GLOH    O1 8728   2.808   0.699   1.598 -0.1270 -0.3891 -0.0860
   40GLOH    C1 8729   2.718   0.592   1.571  0.1604 -0.7319 -0.5941
   40GLOH   H02 8730   2.674   0.604   1.472 -0.5651  0.9144 -0.0796
   40GLOH   H08 8731   2.639   0.610   1.644  0.4081  0.6574 -0.6609
   40GLOH    C2 8732   2.768   0.450   1.594 -0.4285 -0.1546 -0.6871
   40GLOH   H04 8733   2.854   0.460   1.663 -0.3602 -0.9459 -0.6606
   40GLOH    O2 8734   2.667   0.359   1.644  0.2983  0.1737 -0.4970
   40GLOH   H05 8735   2.717   0.292   1.694  0.6321  0.8996  0.1538
   40GLOH    C3 8736   2.824   0.404   1.461  0.0624  0.3996 -0.3116
   40GLOH   H06 8737   2.885   0.315   1.478 -0.1456  0.4224  0.5981
   40GLOH   H07 8738   2.888   0.481   1.419  0.1187  0.7179  0.3533
   40GLOH    O3 8739   2.727   0.383   1.349  0.1705  0.3121  0.0239
   40GLOH   H01 8740   2.676   0.303   1.373  0.8074 -0.5365 -1.4302
   41GLOH   H03 8741   0.997   7.546   2.328 -0.1048 -0.4955  0.1664
   41GLOH    O1 8742   0.958   7.602   2.398 -0.8064 -0.1963 -0.4537
   41GLOH    C1 8743   1.071   7.624   2.487  0.7723 -0.6944 -0.3418
   41GLOH   H02 8744   1.043   7.697   2.562  4.0915 -1.0545  1.3440
   41GLOH   H08 8745   1.151   7.667   2.426  0.1370 -1.0260 -1.4227
   41GLOH    C2 8746   1.106   7.492   2.561 -0.3266  0.5602  0.5228
   41GLOH   H04 8747   1.029   7.461   2.633 -0.1738  0.3030  0.5763
   41GLOH    O2 8748   1.132   7.384   2.478 -0.0816 -0.4180  0.0064
   41GLOH   H05 8749   1.057   7.360   2.422 -0.2634 -0.7168  0.3775
   41GLOH    C3 8750   1.244   7.515   2.629  0.3774 -0.0714  0.3723
   41GLOH   H06 8751   1.296   7.579   2.558 -2.7283  1.4766 -0.5917
   41GLOH   H07 8752   1.305   7.425   2.637 -0.6674 -0.9304 -1.2001
   41GLOH    O3 8753   1.233   7.590   2.748  0.2844 -0.2155  0.6177
   41GLOH   H01 8754   1.236   7.684   2.724  0.5473 -0.5116 -0.5683
   42GLOH   H03 8755   3.319   8.414   1.088  2.9336  1.2291 -1.9959
   42GLOH    O1 8756   3.268   8.495   1.069  0.1671 -0.0223 -0.1419
   42GLOH    C1 8757   3.172   8.452   0.975 -0.2455  0.0258 -0.1939
   42GLOH   H02 8758   3.212   8.464   0.874 -1.4390 -0.3409 -0.7205
   42GLOH   H08 8759   3.086   8.520   0.974  0.1650  0.5391 -1.6173
   42GLOH    C2 8760   3.124   8.307   0.974  0.0769  0.1354  0.1643
   42GLOH   H04 8761   3.069   8.296   1.068 -0.7004  1.8833 -0.0684
   42GLOH    O2 8762   3.027   8.281   0.869  0.0879 -0.2066  0.5155
   42GLOH   H05 8763   3.011   8.185   0.864 -1.1747 -0.2098  3.7020
   42GLOH    C3 8764   3.244   8.213   0.969 -0.2180  0.8325  0.3843
   42GLOH   H06 8765   3.278   8.202   0.866  2.6223  3.9671  0.8682
   42GLOH   H07 8766   3.205   8.117   1.003 -2.1451  1.8225  1.0702
   42GLOH    O3 8767   3.355   8.245   1.054  0.3401  1.1634  0.3420
   42GLOH   H01 8768   3.411   8.165   1.046 -0.7632  0.1614  2.2289
   43GLOH   H03 8769   5.637   9.305   7.293  0.6517 -1.5028 -1.0972
   43GLOH    O1 8770   5.660   9.354   7.212  0.0303 -0.0128 -0.3872
   43GLOH    C1 8771   5.538   9.405   7.156 -0.3095 -0.1796  0.3414
   43GLOH   H02 8772   5.489   9.335   7.090  1.1677 -0.6509 -0.2825
   43GLOH   H08 8773   5.566   9.497   7.104  1.4043  0.7792  2.8106
   43GLOH    C2 8774   5.439   9.448   7.264  0.0307  0.0333 -0.8036
   43GLOH   H04 8775   5.500   9.520   7.321 -1.6751  0.8001  0.1003
   43GLOH    O2 8776   5.324   9.510   7.199  0.5617 -0.0941  0.3729
   43GLOH   H05 8777   5.261   9.446   7.161 -1.2923  2.2493 -0.5961
   43GLOH    C3 8778   5.410   9.332   7.361 -0.5143 -0.3803  0.7206
   43GLOH   H06 8779   5.374   9.243   7.310 -1.4501 -0.1764  1.0289
   43GLOH   H07 8780   5.334   9.359   7.433 -0.2798  0.9545  0.4847
   43GLOH    O3 8781   5.536   9.303   7.429  0.2874 -0.1523  0.4124
   43GLOH   H01 8782   5.507   9.241   7.498 -2.1459  0.6872  0.2147
   44GLOH   H03 8783   7.299   4.284   7.033  0.0897 -2.2628  4.0608
   44GLOH    O1 8784   7.294   4.367   7.084  0.5266  0.0779  0.4649
   44GLOH    C1 8785   7.362   4.464   7.005 -0.1295  0.2960  0.2430
   44GLOH   H02 8786   7.323   4.469   6.904  1.2333 -0.3582 -0.3220
   44GLOH   H08 8787   7.469   4.446   6.993 -0.3785 -0.2531 -1.1159
   44GLOH    C2 8788   7.344   4.601   7.065 -0.6722 -0.6500 -0.5861
   44GLOH   H04 8789   7.374   4.610   7.170  2.7998 -1.5983 -1.4530
   44GLOH    O2 8790   7.422   4.701   6.990  1.0378 -0.0945 -0.0580
   44GLOH   H05 8791   7.517   4.679   6.995  1.2420  0.3401 -1.7582
   44GLOH    C3 8792   7.195   4.633   7.069 -0.0575 -0.7165 -0.1536
   44GLOH   H06 8793   7.180   4.732   7.111  1.9260 -0.6649  0.4955
   44GLOH   H07 8794   7.150   4.579   7.153 -1.1315 -1.1492 -0.9965
   44GLOH    O3 8795   7.100   4.618   6.956 -0.0147 -0.5136  0.5929
   44GLOH   H01 8796   7.010   4.612   6.992  0.8601  1.2961  3.1659
   45GLOH   H03 8797   7.339   5.176   2.477 -0.5017 -0.6538 -0.3471
   45GLOH    O1 8798   7.367   5.110   2.410 -0.0166 -0.0519 -0.7443
   45GLOH    C1 8799   7.360   5.162   2.276  0.0231 -0.3851  0.5532
   45GLOH   H02 8800   7.452   5.143   2.220 -0.5018 -0.2125 -0.3802
   45GLOH   H08 8801   7.345   5.270   2.278 -1.7665 -0.5195 -2.2899
   45GLOH    C2 8802   7.233   5.109   2.206 -0.4637 -0.3486  0.1007
   45GLOH   H04 8803   7.153   5.120   2.281  0.0400  0.3130  0.5505
   45GLOH    O2 8804   7.200   5.192   2.090 -0.3382  0.2177  0.6502
   45GLOH   H05 8805   7.103   5.200   2.084 -0.3383  0.4605  0.9800
   45GLOH    C3 8806   7.253   4.963   2.159  0.1411 -0.4201  0.7241
   45GLOH   H06 8807   7.316   4.978   2.071 -2.6472  2.0758 -0.9421
   45GLOH   H07 8808   7.162   4.920   2.116  1.1170 -1.9526  0.1422
   45GLOH    O3 8809   7.313   4.871   2.250 -0.2655 -0.2938  0.1178
   45GLOH   H01 8810   7.299   4.907   2.340  2.5539  0.3636  0.3676
   46GLOH   H03 8811   2.018   4.934   5.710 -1.0021  0.4394  0.1756
   46GLOH    O1 8812   2.099   4.974   5.671 -0.6996 -0.3095  0.0288
   46GLOH    C1 8813   2.117   4.928   5.535  0.3603  0.2006 -0.7438
   46GLOH   H02 8814   2.035   4.951   5.467 -0.6405 -0.3871  0.2317
   46GLOH   H08 8815   2.124   4.819   5.536  0.0640  0.1800  0.6805
   46GLOH    C2 8816   2.252   4.977   5.485  0.8218 -0.2113 -0.9543
   46GLOH   H04 8817   2.330   4.935   5.551 -1.0782 -2.2948  0.0170
   46GLOH    O2 8818   2.276   4.927   5.359 -0.0395 -0.1959 -0.3250
   46GLOH   H05 8819   2.230   4.973   5.287  2.1901 -0.8052 -2.2058
   46GLOH    C3 8820   2.257   5.138   5.475 -0.4162  0.8173 -0.7224
   46GLOH   H06 8821   2.213   5.171   5.569 -0.9700 -0.8886 -0.3545
   46GLOH   H07 8822   2.190   5.173   5.397 -1.3553  2.5273  0.8403
   46GLOH    O3 8823   2.390   5.191   5.454  0.0306 -0.4163 -0.2180
   46GLOH   H01 8824   2.373   5.284   5.429 -0.3370 -0.1350  1.0537
   47GLOH   H03 8825   1.070   4.345   0.176  2.5291  2.3753 -0.5138
   47GLOH    O1 8826   1.129   4.269   0.159 -0.3214 -0.1185  0.4050
   47GLOH    C1 8827   1.220   4.298   0.046 -0.5146  0.0752 -0.4316
   47GLOH   H02 8828   1.260   4.203   0.011 -1.8474 -0.3809 -0.7447
   47GLOH   H08 8829   1.306   4.361   0.069  0.4940 -1.0700 -1.0217
   47GLOH    C2 8830   1.147   4.370  -0.069  0.3099  0.2286 -0.5999
   47GLOH   H04 8831   1.068   4.307  -0.113  1.5326 -2.2228  0.5979
   47GLOH    O2 8832   1.100   4.495  -0.024  0.2973  0.2666 -0.8977
   47GLOH   H05 8833   1.045   4.472   0.052 -1.0741  3.2809 -0.8863
   47GLOH    C3 8834   1.235   4.397  -0.192 -0.0683 -0.1648 -0.3267
   47GLOH   H06 8835   1.169   4.450  -0.261  4.4664  2.8183 -2.5914
   47GLOH   H07 8836   1.259   4.309  -0.252 -0.3414  0.3876 -1.2612
   47GLOH    O3 8837   1.353   4.481  -0.161  0.1517  0.5991  0.3128
   47GLOH   H01 8838   1.363   4.555  -0.224  0.5904 -1.0733 -1.6203
   48GLOH   H03 8839   4.187   6.720   0.847 -0.7456  0.3659 -1.5432
   48GLOH    O1 8840   4.110   6.699   0.903  0.6112  0.0467  0.2968
   48GLOH    C1 8841   4.144   6.578   0.982 -0.3871  0.7383  0.2814
   48GLOH   H02 8842   4.127   6.486   0.926 -1.9735  1.9713 -1.3211
   48GLOH   H08 8843   4.087   6.576   1.075 -1.0351 -2.5196 -0.1186
   48GLOH    C2 8844   4.298   6.582   1.033 -0.1077 -0.4690  0.5799
   48GLOH   H04 8845   4.308   6.667   1.102  0.5423  0.3533 -0.4995
   48GLOH    O2 8846   4.317   6.460   1.106 -0.5832 -0.3437 -0.2990
   48GLOH   H05 8847   4.345   6.485   1.195  0.0951 -0.4438 -0.4811
   48GLOH    C3 8848   4.404   6.610   0.924  0.2995 -0.1942 -0.3413
   48GLOH   H06 8849   4.408   6.514   0.871  1.2909 -0.9180  1.0169
   48GLOH   H07 8850   4.501   6.614   0.973  1.1777 -0.1890 -2.0258
   48GLOH    O3 8851   4.380   6.720   0.840 -0.1189 -0.2656 -0.1603
   48GLOH   H01 8852   4.442   6.712   0.766 -0.1087 -1.6268 -0.0169
   49GLOH   H03 8853   5.576   7.782   1.385  0.3203  1.9712  1.2269
   49GLOH    O1 8854   5.480   7.799   1.387 -0.1393 -0.1714 -0.0754
   49GLOH    C1 8855   5.400   7.680   1.383  0.0322  0.1821 -0.1007
   49GLOH   H02 8856   5.332   7.681   1.468 -3.7645 -2.2240 -2.9034
   49GLOH   H08 8857   5.457   7.588   1.393 -1.9512 -0.9408  1.2259
   49GLOH    C2 8858   5.317   7.666   1.251  0.0952 -1.5346 -0.1462
   49GLOH   H04 8859   5.386   7.690   1.169  0.9434 -0.2456  0.9152
   49GLOH    O2 8860   5.244   7.550   1.212  0.2135 -0.4364 -0.3196
   49GLOH   H05 8861   5.300   7.473   1.189 -2.1161 -2.3033  0.0388
   49GLOH    C3 8862   5.211   7.779   1.256  0.3326 -0.0643 -0.6564
   49GLOH   H06 8863   5.133   7.755   1.328  0.7016 -1.4632 -0.6965
   49GLOH   H07 8864   5.159   7.781   1.160 -0.9926  0.1239  0.0600
   49GLOH    O3 8865   5.270   7.910   1.267 -0.4153 -0.0431 -0.0606
   49GLOH   H01 8866   5.361   7.906   1.300 -1.1398 -0.0901  1.9687
   50GLOH   H03 8867   3.945   9.931   6.381 -0.0864 -0.5696 -1.0601
   50GLOH    O1 8868   3.856   9.897   6.405  0.1987 -0.4062  0.2933
   50GLOH    C1 8869   3.828   9.937   6.539  0.1538  0.7303  0.3745
   50GLOH   H02 8870   3.859   9.857   6.606 -0.4386  0.9581  0.9365
   50GLOH   H08 8871   3.719   9.946   6.548  0.0563  1.4698 -1.3815
   50GLOH    C2 8872   3.888  10.079   6.576  0.1781  0.2324  0.1449
   50GLOH   H04 8873   3.834  10.150   6.512  0.2707  0.2770  0.1164
   50GLOH    O2 8874   3.859  10.112   6.712  0.0508  0.5907 -0.2513
   50GLOH   H05 8875   3.917  10.058   6.768 -2.0690 -1.2379  0.2509
   50GLOH    C3 8876   4.038  10.082   6.554 -0.0112 -0.1922 -0.2591
   50GLOH   H06 8877   4.075   9.992   6.603  0.0934  0.6897  1.3162
   50GLOH   H07 8878   4.081  10.169   6.603 -0.4441 -0.6432  0.9226
   50GLOH    O3 8879   4.051  10.064   6.410 -0.0520  0.2658  0.0208
   50GLOH   H01 8880   4.124  10.118   6.373 -0.0947  0.3513  0.0631
   51GLOH   H03 8881   0.805   2.165   7.888 -0.2260  0.6039 -1.8153
   51GLOH    O1 8882   0.880   2.218   7.853  0.6036  0.3116 -0.4840
   51GLOH    C1 8883   0.950   2.271   7.965  0.7148 -0.0658 -0.3052
   51GLOH   H02 8884   0.881   2.316   8.036  0.1506  1.0176 -1.5182
   51GLOH   H08 8885   1.008   2.350   7.919  2.1978 -2.1066 -2.0459
   51GLOH    C2 8886   1.038   2.182   8.054  0.7867 -0.5407  0.3782
   51GLOH   H04 8887   1.119   2.245   8.094  0.9620  0.9359 -2.1740
   51GLOH    O2 8888   0.956   2.130   8.162  1.0362  0.2972 -0.2714
   51GLOH   H05 8889   0.942   2.203   8.225  2.7927  1.1006 -0.7930
   51GLOH    C3 8890   1.107   2.077   7.974 -0.1090  0.0549  0.1684
   51GLOH   H06 8891   1.165   2.129   7.898 -0.0145  0.3790  0.4560
   51GLOH   H07 8892   1.027   2.015   7.935 -1.4968  1.8593  0.0877
   51GLOH    O3 8893   1.202   2.007   8.059  0.4990  0.3218  0.2076
   51GLOH   H01 8894   1.169   1.916   8.061  0.5623  0.2787 -0.6397
   52GLOH   H03 8895   7.093   7.259   7.390 -0.3136  0.8147 -0.4325
   52GLOH    O1 8896   7.187   7.278   7.404 -0.2154 -0.2613  0.4683
   52GLOH    C1 8897   7.237   7.388   7.325 -0.8371 -0.4984  0.5356
   52GLOH   H02 8898   7.281   7.331   7.243 -0.8969 -1.6686  1.2975
   52GLOH   H08 8899   7.314   7.442   7.380 -0.5883 -0.1190 -0.1863
   52GLOH    C2 8900   7.127   7.484   7.277 -0.1713 -0.4648 -0.0692
   52GLOH   H04 8901   7.068   7.523   7.361  1.8875  0.8497  0.7937
   52GLOH    O2 8902   7.187   7.592   7.203  0.1809 -0.0861 -0.0839
   52GLOH   H05 8903   7.280   7.583   7.177  0.3106 -0.0118  0.3515
   52GLOH    C3 8904   7.025   7.420   7.185 -0.0866  0.1153 -0.7826
   52GLOH   H06 8905   7.063   7.393   7.086 -1.1872  2.2610 -1.8354
   52GLOH   H07 8906   6.947   7.492   7.161 -0.2064  0.7374  1.4090
   52GLOH    O3 8907   6.963   7.318   7.250 -0.1056  0.4196  0.3739
   52GLOH   H01 8908   6.904   7.270   7.188  3.2181 -2.0345 -1.0325
   53GLOH   H03 8909   6.027   1.151   2.484 -0.2000 -0.2189  0.5424
   53GLOH    O1 8910   5.942   1.103   2.481 -0.0289 -0.5026  0.1410
   53GLOH    C1 8911   5.893   1.098   2.616  0.1203 -0.8425  0.3848
   53GLOH   H02 8912   5.950   1.018   2.664  0.2694 -1.3061 -0.5388
   53GLOH   H08 8913   5.786   1.073   2.615  0.4977 -2.5063  0.4016
   53GLOH    C2 8914   5.906   1.228   2.688 -0.7124  0.0294 -0.0667
   53GLOH   H04 8915   5.837   1.302   2.644  1.7145  3.1375  1.1487
   53GLOH    O2 8916   5.866   1.212   2.822 -0.6179 -0.2892 -0.4676
   53GLOH   H05 8917   5.866   1.117   2.845 -5.6036 -0.2020  0.3457
   53GLOH    C3 8918   6.046   1.279   2.681 -0.5929  0.1611 -0.3601
   53GLOH   H06 8919   6.105   1.219   2.750 -0.3738  0.0091 -0.6776
   53GLOH   H07 8920   6.049   1.378   2.725 -0.9292 -0.1402  0.3430
   53GLOH    O3 8921   6.105   1.278   2.546  0.1023 -0.3714 -0.6588
   53GLOH   H01 8922   6.158   1.360   2.536 -0.2393 -0.3223 -2.2155
   54GLOH   H03 8923   6.387   3.450   8.190 -0.8944 -0.8215  0.0491
   54GLOH    O1 8924   6.345   3.527   8.147 -0.2092 -0.2883  0.3188
   54GLOH    C1 8925   6.290   3.475   8.023 -0.0994  0.6571 -0.2859
   54GLOH   H02 8926   6.371   3.443   7.957  0.3075  0.0018  0.5277
   54GLOH   H08 8927   6.238   3.549   7.963 -0.6240 -0.1604 -0.8606
   54GLOH    C2 8928   6.203   3.352   8.043  0.4217 -0.2238  0.2391
   54GLOH   H04 8929   6.163   3.314   7.948  3.2740 -2.5157 -0.1205
   54GLOH    O2 8930   6.268   3.237   8.105 -0.0566  0.3658 -0.0172
   54GLOH   H05 8931   6.358   3.220   8.072 -0.1618  1.5032 -0.9356
   54GLOH    C3 8932   6.077   3.402   8.131  0.0829  1.0363  0.2508
   54GLOH   H06 8933   6.103   3.427   8.234 -3.1353  0.5002  1.2320
   54GLOH   H07 8934   6.008   3.318   8.138  1.4082 -0.3168 -2.1326
   54GLOH    O3 8935   6.013   3.521   8.076 -0.4451 -0.2130 -0.1057
   54GLOH   H01 8936   6.007   3.594   8.140 -4.1357 -1.1918  0.7991
   55GLOH   H03 8937   5.551   5.411   2.148 -0.9282 -0.1433  0.8813
   55GLOH    O1 8938   5.518   5.365   2.069  0.1649 -0.3843  0.5456
   55GLOH    C1 8939   5.473   5.242   2.121  0.4520  0.2718 -0.5006
   55GLOH   H02 8940   5.561   5.192   2.163 -0.3330  0.7539  1.7821
   55GLOH   H08 8941   5.439   5.173   2.043  0.6696  1.0982 -1.3388
   55GLOH    C2 8942   5.364   5.272   2.229  0.1203 -0.0920 -0.6478
   55GLOH   H04 8943   5.288   5.338   2.184 -0.0438  0.9551  1.1212
   55GLOH    O2 8944   5.299   5.148   2.263  0.0831  0.2306  0.4905
   55GLOH   H05 8945   5.220   5.142   2.206  1.2193 -1.2196 -0.9711
   55GLOH    C3 8946   5.430   5.334   2.355  0.6500 -0.3211 -0.5364
   55GLOH   H06 8947   5.491   5.260   2.406  0.1859  0.2392  0.8732
   55GLOH   H07 8948   5.368   5.367   2.439  0.3254 -1.9168 -0.1314
   55GLOH    O3 8949   5.509   5.453   2.317 -0.1417 -0.1742  0.2505
   55GLOH   H01 8950   5.476   5.520   2.380 -1.9376 -0.5260 -0.3060
   56GLOH   H03 8951   0.472   7.663   1.506 -1.3878 -1.5320  0.2903
   56GLOH    O1 8952   0.527   7.600   1.454 -0.1200 -0.7237  0.6257
   56GLOH    C1 8953   0.615   7.533   1.545 -0.0695 -0.0395  0.6964
   56GLOH   H02 8954   0.558   7.510   1.635 -0.6188  0.2407  0.4208
   56GLOH   H08 8955   0.696   7.591   1.588  0.7477 -2.0496  1.9413
   56GLOH    C2 8956   0.683   7.411   1.481 -0.2507  0.3720 -0.6310
   56GLOH   H04 8957   0.774   7.435   1.424  1.8243 -0.0798  2.3431
   56GLOH    O2 8958   0.729   7.332   1.590 -0.3314 -0.1636  0.0691
   56GLOH   H05 8959   0.788   7.265   1.552  0.1966  0.6661 -0.5915
   56GLOH    C3 8960   0.586   7.323   1.392 -0.2886 -0.2757  0.1338
   56GLOH   H06 8961   0.532   7.389   1.325  0.6483 -0.2937 -0.6619
   56GLOH   H07 8962   0.514   7.271   1.454 -1.3029  0.1543 -0.6702
   56GLOH    O3 8963   0.654   7.220   1.309  0.5067 -0.1772  0.1121
   56GLOH   H01 8964   0.592   7.180   1.245  1.9798 -2.0353 -0.2161
   57GLOH   H03 8965   3.651   5.266   0.160  1.8103  1.0761 -0.2830
   57GLOH    O1 8966   3.609   5.326   0.096 -0.3548 -0.4501 -0.3443
   57GLOH    C1 8967   3.551   5.422   0.189 -0.3153 -0.4285 -0.0295
   57GLOH   H02 8968   3.629   5.494   0.214  0.0554 -1.1041  0.7837
   57GLOH   H08 8969   3.527   5.375   0.284  1.5590 -0.5856  0.3729
   57GLOH    C2 8970   3.448   5.511   0.125  0.6025  0.0653  0.5994
   57GLOH   H04 8971   3.368   5.450   0.080  0.1714  0.9143  0.1887
   57GLOH    O2 8972   3.369   5.578   0.226 -0.3565  0.0260  0.1526
   57GLOH   H05 8973   3.284   5.602   0.183 -1.0367 -0.3380  1.2796
   57GLOH    C3 8974   3.511   5.605   0.017  0.5172  0.5778  0.2993
   57GLOH   H06 8975   3.587   5.668   0.064  0.8146  0.9172 -0.6186
   57GLOH   H07 8976   3.429   5.664  -0.026  0.5856 -1.3506 -2.6388
   57GLOH    O3 8977   3.566   5.524  -0.088  0.1981  0.4489  0.1047
   57GLOH   H01 8978   3.611   5.447  -0.048  0.1221 -0.4941 -1.5578
   58GLOH   H03 8979   0.268   3.488   6.253  1.3190  0.7689 -1.3914
   58GLOH    O1 8980   0.318   3.476   6.336 -0.1429 -0.4646 -0.6668
   58GLOH    C1 8981   0.277   3.569   6.435 -0.8198 -0.7824 -0.2043
   58GLOH   H02 8982   0.188   3.526   6.481  0.4810 -1.7153  1.5036
   58GLOH   H08 8983   0.239   3.659   6.385 -0.1764 -0.8668 -0.8578
   58GLOH    C2 8984   0.391   3.613   6.528 -0.2059  0.1050  0.6642
   58GLOH   H04 8985   0.464   3.668   6.467  0.0523  1.3429  2.0555
   58GLOH    O2 8986   0.347   3.694   6.635 -0.3391  0.2257  0.0728
   58GLOH   H05 8987   0.263   3.736   6.612  0.2360  1.2704 -0.1543
   58GLOH    C3 8988   0.456   3.490   6.591  0.2890  0.2908 -0.0379
   58GLOH   H06 8989   0.376   3.432   6.636  0.1720  1.0729  0.7832
   58GLOH   H07 8990   0.522   3.520   6.672 -0.4047 -0.2966  0.7386
   58GLOH    O3 8991   0.521   3.414   6.490 -0.2690 -0.2474 -0.3166
   58GLOH   H01 8992   0.457   3.423   6.416 -2.2969  1.9276  1.6235
   59GLOH   H03 8993   3.566   1.460   3.107  0.1463  0.9837  1.9311
   59GLOH    O1 8994   3.627   1.402   3.155  0.1540 -0.5776  0.0550
   59GLOH    C1 8995   3.716   1.347   3.061  1.0209  0.0666  0.0110
   59GLOH   H02 8996   3.819   1.378   3.074  1.1169 -0.4776  0.5404
   59GLOH   H08 8997   3.693   1.383   2.960  0.1149  1.2304  0.6175
   59GLOH    C2 8998   3.732   1.191   3.065 -0.3063  0.2706 -0.8546
   59GLOH   H04 8999   3.776   1.167   3.163 -1.1479  0.4259 -0.4292
   59GLOH    O2 9000   3.600   1.129   3.053 -0.1732 -0.2798 -0.4694
   59GLOH   H05 9001   3.545   1.172   3.121 -2.6160 -2.4984 -0.9343
   59GLOH    C3 9002   3.812   1.159   2.938 -0.0991  0.4432 -0.6460
   59GLOH   H06 9003   3.748   1.146   2.851 -0.7549 -1.2254  0.0810
   59GLOH   H07 9004   3.856   1.061   2.953  0.8536  0.8300 -0.8277
   59GLOH    O3 9005   3.919   1.246   2.914 -0.0522 -0.0441 -0.1176
   59GLOH   H01 9006   3.893   1.290   2.831 -2.0788  0.3268  0.6982
   60GLOH   H03 9007   4.007   3.515   2.729 -1.5550 -1.7758 -0.1436
   60GLOH    O1 9008   4.071   3.500   2.657 -0.8582 -0.0844  0.1077
   60GLOH    C1 9009   4.081   3.625   2.586  0.0079 -0.8744  0.2597
   60GLOH   H02 9010   3.982   3.670   2.589  1.1086  1.6146  0.2295
   60GLOH   H08 9011   4.115   3.624   2.482 -0.1104  2.2076  0.1516
   60GLOH    C2 9012   4.168   3.733   2.653 -0.1018 -0.4375  0.1149
   60GLOH   H04 9013   4.273   3.698   2.658  0.3168  0.7500 -0.1984
   60GLOH    O2 9014   4.171   3.860   2.577  0.3192  0.0758  0.0597
   60GLOH   H05 9015   4.240   3.855   2.509  0.2400  1.0294 -0.1067
   60GLOH    C3 9016   4.134   3.763   2.803  0.3391  0.4827 -0.0348
   60GLOH   H06 9017   4.132   3.669   2.858 -3.7088 -0.1104 -1.0422
   60GLOH   H07 9018   4.035   3.808   2.805  0.5122  0.9268 -1.3233
   60GLOH    O3 9019   4.236   3.842   2.864  0.1796  0.4455 -0.3203
   60GLOH   H01 9020   4.195   3.872   2.948  0.7137 -0.4722  0.2740
   61GLOH   H03 9021   3.207   1.842   3.941 -0.1960  0.9001 -1.9251
   61GLOH    O1 9022   3.130   1.893   3.971  0.2542  0.2464  0.4349
   61GLOH    C1 9023   3.065   1.812   4.068 -0.3909  0.6293  0.0159
   61GLOH   H02 9024   3.011   1.867   4.144  0.4914  1.4842  0.0358
   61GLOH   H08 9025   3.143   1.761   4.125 -1.5076 -0.0964  0.9020
   61GLOH    C2 9026   2.961   1.717   4.004 -0.0371  0.0601  0.3120
   61GLOH   H04 9027   3.008   1.674   3.914 -1.1324 -2.0052  0.6951
   61GLOH    O2 9028   2.922   1.606   4.092  0.3698  0.6327  0.1790
   61GLOH   H05 9029   2.830   1.576   4.077  0.0524  1.4779  0.3957
   61GLOH    C3 9030   2.842   1.796   3.940 -0.5018 -0.3148  0.2480
   61GLOH   H06 9031   2.762   1.722   3.939 -1.7214  0.9380  2.0215
   61GLOH   H07 9032   2.848   1.812   3.833 -2.3227 -0.5782  0.0945
   61GLOH    O3 9033   2.806   1.911   4.017 -0.2299 -0.3366 -0.4052
   61GLOH   H01 9034   2.801   1.995   3.968  0.0162  0.2405  0.5507
   62GLOH   H03 9035   1.656   1.370   7.203 -1.5400  0.7788  1.7234
   62GLOH    O1 9036   1.675   1.463   7.183 -0.1546  0.1444 -0.0689
   62GLOH    C1 9037   1.674   1.540   7.306  0.4728 -0.3762  0.1894
   62GLOH   H02 9038   1.577   1.561   7.350  1.1357  2.3457  0.3985
   62GLOH   H08 9039   1.719   1.637   7.288 -1.6992  1.1152  2.4387
   62GLOH    C2 9040   1.770   1.484   7.413 -0.1631 -1.2692 -0.1160
   62GLOH   H04 9041   1.743   1.378   7.416  3.3978 -2.2519 -0.4045
   62GLOH    O2 9042   1.901   1.512   7.372  0.0276  0.2490  0.3485
   62GLOH   H05 9043   1.923   1.607   7.379 -0.8531  0.3155  2.7556
   62GLOH    C3 9044   1.734   1.542   7.550 -0.0083 -0.1853  0.6057
   62GLOH   H06 9045   1.770   1.644   7.542 -0.2763 -0.1722 -0.3990
   62GLOH   H07 9046   1.792   1.501   7.634  0.3418  0.1685  0.5353
   62GLOH    O3 9047   1.598   1.547   7.584  0.3948  0.2904  0.6956
   62GLOH   H01 9048   1.563   1.636   7.568 -0.4245 -0.2541 -0.6332
   63GLOH   H03 9049   6.471   0.735   1.486  0.8452 -0.9704 -2.4602
   63GLOH    O1 9050   6.523   0.815   1.468  0.7554 -0.4451 -0.4909
   63GLOH    C1 9051   6.654   0.794   1.526 -0.2657 -0.3993  0.2232
   63GLOH   H02 9052   6.661   0.700   1.581 -0.2816 -1.2583 -1.2123
   63GLOH   H08 9053   6.673   0.879   1.592 -0.2684  1.4314 -2.0711
   63GLOH    C2 9054   6.761   0.787   1.421 -0.1968  0.7191 -0.0643
   63GLOH   H04 9055   6.751   0.882   1.366 -1.3714  0.1809 -0.8097
   63GLOH    O2 9056   6.892   0.793   1.485  0.1241  0.3342  0.0613
   63GLOH   H05 9057   6.949   0.814   1.409  0.3760  0.4668  0.2880
   63GLOH    C3 9058   6.740   0.666   1.332  0.2013 -1.0083 -0.2506
   63GLOH   H06 9059   6.636   0.673   1.302  0.0301 -1.2358  0.2817
   63GLOH   H07 9060   6.742   0.578   1.397  0.4165 -0.9162 -0.1347
   63GLOH    O3 9061   6.832   0.660   1.226 -0.5502  0.0856  0.2556
   63GLOH   H01 9062   6.780   0.633   1.147  1.0453 -0.0734 -0.7481
   64GLOH   H03 9063   5.348   7.282   2.285  0.6807  0.3882 -1.4794
   64GLOH    O1 9064   5.428   7.327   2.319  0.2845 -0.0042  0.0027
   64GLOH    C1 9065   5.505   7.402   2.221  0.5519 -0.0880  0.1624
   64GLOH   H02 9066   5.450   7.425   2.130  3.3099  0.0302 -1.5529
   64GLOH   H08 9067   5.588   7.341   2.185  0.6322  0.3802 -0.4375
   64GLOH    C2 9068   5.571   7.539   2.267  0.7308 -0.4035  0.2742
   64GLOH   H04 9069   5.652   7.519   2.338  0.6555  1.6734  0.9954
   64GLOH    O2 9070   5.628   7.606   2.153 -0.0797  0.6486 -0.0437
   64GLOH   H05 9071   5.698   7.549   2.116  0.9266  0.5820  1.9117
   64GLOH    C3 9072   5.452   7.605   2.336 -0.6102 -0.2849  0.3191
   64GLOH   H06 9073   5.430   7.563   2.434 -0.9410  0.0099  0.3713
   64GLOH   H07 9074   5.361   7.602   2.276  0.2703  3.1656 -1.2809
   64GLOH    O3 9075   5.481   7.739   2.358 -0.5618 -0.1706  0.0652
   64GLOH   H01 9076   5.400   7.793   2.357 -0.8022 -0.5328 -2.0916
   65GLOH   H03 9077   3.064   9.065   8.053 -0.8187  1.2414  0.8049
   65GLOH    O1 9078   2.990   9.002   8.060 -0.0764  0.2315 -0.3220
   65GLOH    C1 9079   2.879   9.068   8.118 -0.7197  1.0150 -0.4117
   65GLOH   H02 9080   2.812   8.989   8.154 -0.3034  1.1943  0.7567
   65GLOH   H08 9081   2.834   9.125   8.037 -0.8853 -0.9274 -1.7221
   65GLOH    C2 9082   2.917   9.152   8.244 -0.4431  0.5072 -0.6600
   65GLOH   H04 9083   2.995   9.224   8.217 -0.0874  1.0103  1.6925
   65GLOH    O2 9084   2.805   9.224   8.283  0.0473 -0.0843 -0.0784
   65GLOH   H05 9085   2.837   9.315   8.298  1.3272 -0.4149 -0.6672
   65GLOH    C3 9086   2.980   9.060   8.345  0.3816  0.6278  0.9319
   65GLOH   H06 9087   3.074   9.023   8.305 -0.9139 -1.9133  0.1260
   65GLOH   H07 9088   2.908   8.979   8.334 -0.2424  1.1260  1.3150
   65GLOH    O3 9089   3.001   9.116   8.472 -0.1678  0.5228 -0.4265
   65GLOH   H01 9090   3.043   9.203   8.463  1.9521 -0.4251 -0.1278
   66GLOH   H03 9091   4.957   3.994   4.726  1.1335 -1.2321 -1.8361
   66GLOH    O1 9092   4.989   3.939   4.800 -0.7813 -0.2587 -0.2300
   66GLOH    C1 9093   4.999   4.000   4.928 -0.7911 -0.0658  0.6562
   66GLOH   H02 9094   5.040   4.100   4.921  0.1226 -0.4292  0.7509
   66GLOH   H08 9095   5.072   3.942   4.984  1.0511  1.9169  0.3622
   66GLOH    C2 9096   4.870   3.992   5.008 -0.0931 -0.4207  0.2005
   66GLOH   H04 9097   4.852   3.887   5.035  2.4382 -0.2480  2.7308
   66GLOH    O2 9098   4.884   4.066   5.130  0.1421 -0.0609  0.3098
   66GLOH   H05 9099   4.819   4.041   5.198 -1.1392 -0.4206 -1.0280
   66GLOH    C3 9100   4.756   4.036   4.916  0.2522  0.2827 -0.0901
   66GLOH   H06 9101   4.749   3.979   4.823 -0.4168 -1.5480  1.0756
   66GLOH   H07 9102   4.773   4.142   4.895 -1.6929  0.6016 -0.1791
   66GLOH    O3 9103   4.625   4.028   4.987  0.1294  0.2846 -0.0328
   66GLOH   H01 9104   4.581   4.108   4.954  1.6089  1.2434  0.2595
   67GLOH   H03 9105   8.549   4.094   0.093  0.3155 -0.2243 -1.0536
   67GLOH    O1 9106   8.603   4.013   0.086  0.2755 -0.3418 -0.1079
   67GLOH    C1 9107   8.514   3.902   0.076 -0.3644 -0.2572  0.4676
   67GLOH   H02 9108   8.543   3.835  -0.006 -1.0647  1.0508 -0.8717
   67GLOH   H08 9109   8.414   3.943   0.059  0.2601 -0.3441 -4.2627
   67GLOH    C2 9110   8.506   3.813   0.203 -0.1610  0.3804  0.6859
   67GLOH   H04 9111   8.481   3.880   0.287  0.1303  0.3159  0.8250
   67GLOH    O2 9112   8.402   3.703   0.202 -0.0223  0.2242 -0.3661
   67GLOH   H05 9113   8.317   3.739   0.236  0.3577  0.0728  0.7848
   67GLOH    C3 9114   8.643   3.746   0.229  0.2230  0.1189  0.1941
   67GLOH   H06 9115   8.648   3.660   0.162 -1.9750  0.7358 -0.8076
   67GLOH   H07 9116   8.644   3.700   0.328 -1.2839 -1.3301 -0.4263
   67GLOH    O3 9117   8.754   3.836   0.200  0.0851  0.1650 -0.0456
   67GLOH   H01 9118   8.709   3.918   0.170 -1.6625 -1.0055 -0.7275
   68GLOH   H03 9119   7.996   3.728   4.667 -0.3661 -3.0815 -0.2706
   68GLOH    O1 9120   8.070   3.725   4.603 -0.0649 -0.4722 -0.0749
   68GLOH    C1 9121   8.184   3.685   4.680  0.6283  0.1205  0.5794
   68GLOH   H02 9122   8.263   3.760   4.684 -1.2264  2.1461  0.1654
   68GLOH   H08 9123   8.236   3.598   4.639  0.3106 -0.2411  0.9408
   68GLOH    C2 9124   8.161   3.655   4.825 -0.5591 -0.1947  0.6332
   68GLOH   H04 9125   8.262   3.636   4.864 -0.4667 -0.2799  0.3485
   68GLOH    O2 9126   8.104   3.771   4.896  0.1354 -0.4304  0.0094
   68GLOH   H05 9127   8.093   3.756   4.991 -0.8104  2.3575  0.3772
   68GLOH    C3 9128   8.073   3.531   4.842  0.6723 -0.3619 -0.4952
   68GLOH   H06 9129   7.973   3.553   4.806  0.4398 -0.6141 -0.0024
   68GLOH   H07 9130   8.072   3.519   4.950  1.8289 -0.0788 -0.4403
   68GLOH    O3 9131   8.129   3.421   4.777  0.2056  0.0640  0.4632
   68GLOH   H01 9132   8.203   3.388   4.831  0.0541 -0.1821  0.5190
   69GLOH   H03 9133   2.465   4.028   4.407  0.9417 -1.0271 -0.9320
   69GLOH    O1 9134   2.518   4.014   4.488 -0.2844 -0.6285 -0.0493
   69GLOH    C1 9135   2.518   3.869   4.514  0.8403  0.3424  0.0684
   69GLOH   H02 9136   2.487   3.819   4.422 -0.6480 -1.5095  1.5270
   69GLOH   H08 9137   2.447   3.832   4.589  1.3432 -1.0903 -0.1453
   69GLOH    C2 9138   2.655   3.807   4.544 -0.1502  0.1461 -0.5718
   69GLOH   H04 9139   2.722   3.841   4.463 -0.4004  1.8784 -0.0557
   69GLOH    O2 9140   2.710   3.852   4.672 -0.5535 -0.2408 -0.2252
   69GLOH   H05 9141   2.716   3.949   4.666  1.0820 -0.1714  1.9832
   69GLOH    C3 9142   2.641   3.651   4.545  0.1586  0.2306 -1.0770
   69GLOH   H06 9143   2.570   3.622   4.623 -0.4443  2.0566 -0.9175
   69GLOH   H07 9144   2.735   3.600   4.565  0.8049  1.8113 -0.0129
   69GLOH    O3 9145   2.590   3.600   4.421  0.2952 -0.1704 -0.1817
   69GLOH   H01 9146   2.665   3.555   4.378  0.8628 -0.5638  1.1825
   70GLOH   H03 9147   7.355   5.928   1.047  1.6217  0.2726  0.0558
   70GLOH    O1 9148   7.320   6.016   1.068  0.1770 -0.1514 -0.5219
   70GLOH    C1 9149   7.309   6.022   1.214 -0.2681  0.2477  0.1239
   70GLOH   H02 9150   7.410   6.008   1.253 -0.8656 -0.7535  1.3527
   70GLOH   H08 9151   7.247   5.943   1.256 -1.3537  2.1147  2.1248
   70GLOH    C2 9152   7.244   6.158   1.258  0.6964 -0.1483  0.6626
   70GLOH   H04 9153   7.146   6.174   1.210  0.5658  1.3643  1.4058
   70GLOH    O2 9154   7.216   6.171   1.400  0.1943  0.2996 -0.1748
   70GLOH   H05 9155   7.125   6.203   1.403 -0.8814 -2.7315  2.1327
   70GLOH    C3 9156   7.323   6.278   1.219  0.6922 -0.3329  0.4818
   70GLOH   H06 9157   7.266   6.370   1.232 -0.3451 -0.9881  0.5845
   70GLOH   H07 9158   7.341   6.277   1.111 -1.2521  0.5782  0.1135
   70GLOH    O3 9159   7.445   6.287   1.293 -0.4464  0.3223  0.6343
   70GLOH   H01 9160   7.434   6.293   1.390 -0.7097  3.2967  0.4759
   71GLOH   H03 9161   0.895   0.732   5.195 -1.5726  0.9305 -0.1831
   71GLOH    O1 9162   0.827   0.662   5.185 -0.2910 -0.4832  0.6741
   71GLOH    C1 9163   0.874   0.543   5.231 -0.1419 -0.0571 -0.4009
   71GLOH   H02 9164   0.801   0.462   5.220  1.8891 -1.6251 -2.9000
   71GLOH   H08 9165   0.894   0.547   5.338 -0.0804 -0.5177 -0.3937
   71GLOH    C2 9166   1.007   0.507   5.161  0.0466  0.0485  0.1789
   71GLOH   H04 9167   1.080   0.589   5.164  0.0084  0.0532  2.8119
   71GLOH    O2 9168   1.052   0.387   5.235  0.7515  0.6857 -0.3905
   71GLOH   H05 9169   1.065   0.412   5.328 -1.7243 -2.8282  1.0257
   71GLOH    C3 9170   0.971   0.479   5.014  0.1915  0.9312  0.1642
   71GLOH   H06 9171   0.896   0.400   5.004  0.2397  1.3322 -4.3552
   71GLOH   H07 9172   1.054   0.442   4.954 -2.9313 -0.0167 -3.8374
   71GLOH    O3 9173   0.913   0.600   4.961  0.2008 -0.0886  1.1225
   71GLOH   H01 9174   0.880   0.647   5.040 -2.2978  1.3422 -0.6670
   72GLOH   H03 9175   5.263   9.189   5.293  1.2052  1.5908  1.4978
   72GLOH    O1 9176   5.211   9.157   5.369  0.0198 -0.4489 -0.1125
   72GLOH    C1 9177   5.106   9.066   5.329  0.0646 -1.1446 -0.2252
   72GLOH   H02 9178   5.133   9.012   5.238 -0.3843  1.6236 -2.0686
   72GLOH   H08 9179   5.017   9.124   5.306  1.0901  0.2299 -0.7626
   72GLOH    C2 9180   5.092   8.957   5.440  0.0923  0.0558 -0.1179
   72GLOH   H04 9181   5.048   9.017   5.521  0.1543  1.2067 -0.9312
   72GLOH    O2 9182   5.009   8.850   5.399 -0.8303  0.0856 -0.1119
   72GLOH   H05 9183   4.965   8.816   5.479  1.2189  1.7080  1.8056
   72GLOH    C3 9184   5.232   8.899   5.484 -0.4157  0.7247 -0.0216
   72GLOH   H06 9185   5.273   8.847   5.397 -2.2742 -0.0045 -0.4859
   72GLOH   H07 9186   5.213   8.827   5.563 -0.5908 -0.2032 -0.8919
   72GLOH    O3 9187   5.326   8.992   5.532  0.6222 -0.1999  1.1456
   72GLOH   H01 9188   5.302   9.075   5.487 -0.8917 -0.3663  1.6303
   73GLOH   H03 9189   7.664   0.169   5.472  0.6107  2.2052 -0.1279
   73GLOH    O1 9190   7.611   0.201   5.397 -0.1600  0.4139 -0.3608
   73GLOH    C1 9191   7.690   0.205   5.277 -0.9373 -0.4247  0.2033
   73GLOH   H02 9192   7.794   0.190   5.304 -0.8787 -1.5453 -0.5830
   73GLOH   H08 9193   7.677   0.297   5.220  1.1070  1.0275  2.0404
   73GLOH    C2 9194   7.662   0.085   5.187  0.3100  0.1121  0.1903
   73GLOH   H04 9195   7.555   0.086   5.162  0.1338 -1.5040  0.8532
   73GLOH    O2 9196   7.747   0.096   5.065  0.6792  0.0908 -0.3139
   73GLOH   H05 9197   7.694   0.062   4.991  0.2591 -1.5297  0.6832
   73GLOH    C3 9198   7.701  -0.048   5.260  0.7834 -0.3537 -0.5527
   73GLOH   H06 9199   7.672  -0.138   5.206 -1.3756 -1.3957  2.2380
   73GLOH   H07 9200   7.646  -0.054   5.354  0.4059 -2.2119 -0.8650
   73GLOH    O3 9201   7.840  -0.056   5.292  0.3420 -0.1132  0.0862
   73GLOH   H01 9202   7.887  -0.132   5.253  1.8655  1.0866 -0.5028
   74GLOH   H03 9203   7.431   5.677   6.077 -1.2851  1.6135 -2.0965
   74GLOH    O1 9204   7.507   5.640   6.028 -0.3388 -0.0428  0.5029
   74GLOH    C1 9205   7.487   5.498   6.007  0.4285  0.5528  0.2913
   74GLOH   H02 9206   7.389   5.480   5.963  0.0062 -1.3731  1.9616
   74GLOH   H08 9207   7.490   5.447   6.103  1.1270  0.3827  0.1810
   74GLOH    C2 9208   7.584   5.438   5.903 -0.1874  0.4021 -0.3187
   74GLOH   H04 9209   7.689   5.468   5.918  0.4227 -1.8743  0.2255
   74GLOH    O2 9210   7.586   5.294   5.918 -0.6359  0.7773  0.3199
   74GLOH   H05 9211   7.569   5.257   5.830  1.6910  0.0364  0.1540
   74GLOH    C3 9212   7.556   5.473   5.760  0.2978 -0.1511 -0.5074
   74GLOH   H06 9213   7.630   5.424   5.696 -0.5507 -1.3694 -0.5843
   74GLOH   H07 9214   7.570   5.580   5.748 -1.5096  0.0360 -1.1371
   74GLOH    O3 9215   7.425   5.440   5.717  0.4285 -0.6612 -0.4511
   74GLOH   H01 9216   7.370   5.519   5.732  0.8928 -1.0406  3.7832
   75GLOH   H03 9217   1.743   2.871   4.089 -2.1335 -1.2560 -1.5301
   75GLOH    O1 9218   1.773   2.924   4.013 -0.0992 -0.1364 -0.0195
   75GLOH    C1 9219   1.667   2.945   3.922  0.0032  0.2979 -0.0604
   75GLOH   H02 9220   1.623   2.849   3.895 -1.1410  0.5509  0.9244
   75GLOH   H08 9221   1.716   2.992   3.836  0.9811 -1.3809 -0.4468
   75GLOH    C2 9222   1.546   3.029   3.971 -0.6843  0.2524  0.1775
   75GLOH   H04 9223   1.501   2.968   4.051 -0.5706  1.8480  1.5060
   75GLOH    O2 9224   1.593   3.148   4.024 -0.0511 -0.3925 -0.3550
   75GLOH   H05 9225   1.658   3.133   4.095  0.7034  0.4099 -0.8577
   75GLOH    C3 9226   1.433   3.046   3.866  0.3122  0.0963 -0.4157
   75GLOH   H06 9227   1.465   3.103   3.779  1.8216 -1.0075 -0.5950
   75GLOH   H07 9228   1.349   3.092   3.919  1.1879  1.2917 -0.0586
   75GLOH    O3 9229   1.377   2.918   3.821  0.3527 -0.3697  0.1592
   75GLOH   H01 9230   1.320   2.952   3.751 -0.8560  0.6648  1.6068
   76GLOH   H03 9231   7.788   7.746   4.642  0.1969  1.0022  0.1409
   76GLOH    O1 9232   7.855   7.793   4.591  0.7631 -0.0842 -0.1421
   76GLOH    C1 9233   7.929   7.881   4.684 -0.2939  0.4707  0.1142
   76GLOH   H02 9234   7.958   7.819   4.769  0.6466  0.2379 -0.3719
   76GLOH   H08 9235   7.873   7.970   4.713 -0.0754 -0.1179  2.4415
   76GLOH    C2 9236   8.052   7.941   4.616 -0.0026  0.4055 -0.3500
   76GLOH   H04 9237   8.021   8.007   4.533  0.1250  0.1800 -0.5780
   76GLOH    O2 9238   8.124   8.025   4.712 -0.4127 -0.6792 -0.0660
   76GLOH   H05 9239   8.067   8.101   4.731  2.0098  1.1534  0.0873
   76GLOH    C3 9240   8.143   7.835   4.551  0.4076 -0.0103 -0.1417
   76GLOH   H06 9241   8.192   7.771   4.624  2.3005  1.0039 -0.4770
   76GLOH   H07 9242   8.217   7.898   4.501  0.7291  0.5797  1.0595
   76GLOH    O3 9243   8.075   7.753   4.451  0.0494 -0.5318 -0.8506
   76GLOH   H01 9244   7.984   7.735   4.480 -0.5810  3.0713 -0.3727
   77GLOH   H03 9245   5.793   0.598   6.093 -0.2881 -0.1725 -1.0507
   77GLOH    O1 9246   5.793   0.502   6.104  0.0869 -0.0593 -0.0529
   77GLOH    C1 9247   5.674   0.434   6.066  0.2339  0.2490  0.2980
   77GLOH   H02 9248   5.635   0.467   5.970 -1.7994 -0.3144  0.9015
   77GLOH   H08 9249   5.591   0.454   6.134 -2.1585 -1.0248 -2.1516
   77GLOH    C2 9250   5.693   0.283   6.065  0.5960  0.4135  0.2782
   77GLOH   H04 9251   5.802   0.269   6.053  0.2860 -2.2315  0.2940
   77GLOH    O2 9252   5.653   0.227   6.194  0.9943 -0.1804 -0.1057
   77GLOH   H05 9253   5.735   0.197   6.237  1.8294  0.9152 -0.9121
   77GLOH    C3 9254   5.619   0.211   5.952  0.0264 -0.0094 -0.1819
   77GLOH   H06 9255   5.512   0.203   5.969 -0.1492  0.3417 -1.0986
   77GLOH   H07 9256   5.661   0.110   5.953  0.7604  0.2937  0.6396
   77GLOH    O3 9257   5.646   0.270   5.826  0.3423 -0.0770  0.4170
   77GLOH   H01 9258   5.569   0.306   5.778  2.3590  0.6927 -2.3615
   78GLOH   H03 9259   8.966   0.560   3.190  0.0774  1.3531 -1.0583
   78GLOH    O1 9260   9.029   0.569   3.264 -0.0715 -0.3108 -0.7029
   78GLOH    C1 9261   9.142   0.483   3.248  0.4045  0.0380  0.8725
   78GLOH   H02 9262   9.114   0.385   3.209  0.3122  0.0524  0.9020
   78GLOH   H08 9263   9.181   0.464   3.348  0.4345  2.9034  1.4496
   78GLOH    C2 9264   9.256   0.541   3.162  0.0354 -0.6758  0.0062
   78GLOH   H04 9265   9.214   0.577   3.067  0.0793  0.3965  0.3854
   78GLOH    O2 9266   9.319   0.653   3.221 -0.2886 -0.4899  0.2555
   78GLOH   H05 9267   9.282   0.677   3.308 -0.3254  2.4049 -0.5009
   78GLOH    C3 9268   9.363   0.435   3.136 -0.2631 -0.0412 -0.1317
   78GLOH   H06 9269   9.425   0.426   3.225  1.1103  0.2923 -1.0349
   78GLOH   H07 9270   9.433   0.479   3.065  0.2721  0.1318  0.5023
   78GLOH    O3 9271   9.305   0.309   3.088  0.1248 -0.1354  0.2272
   78GLOH   H01 9272   9.313   0.297   2.991  0.0331 -0.9097  0.3108
   79GLOH   H03 9273   2.287   3.090   0.482 -1.0763 -0.3310 -0.4534
   79GLOH    O1 9274   2.242   3.176   0.474 -0.3245  0.0525 -0.5731
   79GLOH    C1 9275   2.125   3.163   0.560 -0.4220 -0.2136 -0.2740
   79GLOH   H02 9276   2.087   3.263   0.584  0.0917 -0.4889  1.7768
   79GLOH   H08 9277   2.157   3.126   0.657  1.7398  2.9950  0.3437
   79GLOH    C2 9278   2.020   3.071   0.502  0.4090  0.7173  0.5274
   79GLOH   H04 9279   2.048   2.966   0.519  1.0590  0.7293 -0.4112
   79GLOH    O2 9280   1.889   3.094   0.555  0.2754  0.4054 -0.3605
   79GLOH   H05 9281   1.895   3.117   0.649  1.3513  2.6451 -0.9330
   79GLOH    C3 9282   2.011   3.080   0.350  0.2895  0.3518 -0.4000
   79GLOH   H06 9283   1.993   3.182   0.317 -1.8808  0.4637  0.9890
   79GLOH   H07 9284   1.923   3.020   0.326  1.0411 -0.5612 -0.8755
   79GLOH    O3 9285   2.121   3.018   0.280 -0.0666  0.4455 -0.2121
   79GLOH   H01 9286   2.195   3.076   0.308 -1.4468  0.7192  3.1338
   80GLOH   H03 9287   6.791   1.678   3.665  0.7894  0.4950 -0.1739
   80GLOH    O1 9288   6.823   1.742   3.732 -0.0689  0.5400  0.2063
   80GLOH    C1 9289   6.731   1.755   3.841  0.3059 -0.3822 -0.2860
   80GLOH   H02 9290   6.789   1.763   3.933 -1.8174 -0.1001  1.0663
   80GLOH   H08 9291   6.665   1.669   3.849  0.1676 -0.4509 -1.9396
   80GLOH    C2 9292   6.636   1.879   3.824  0.5655 -0.4398 -0.8335
   80GLOH   H04 9293   6.563   1.866   3.743 -0.1225 -2.2616  0.0611
   80GLOH    O2 9294   6.566   1.890   3.950 -0.2445 -0.3233  0.6501
   80GLOH   H05 9295   6.521   1.975   3.962 -0.1006 -0.1300 -0.1408
   80GLOH    C3 9296   6.718   2.003   3.796 -0.0475 -1.0380 -0.3120
   80GLOH   H06 9297   6.648   2.084   3.777  1.6118  0.6523  0.6500
   80GLOH   H07 9298   6.769   1.985   3.702 -0.7929 -1.9111 -0.5534
   80GLOH    O3 9299   6.818   2.046   3.895 -0.0216 -0.2948 -0.1993
   80GLOH   H01 9300   6.783   2.134   3.919  0.0361 -0.8241  1.9144
   81GLOH   H03 9301   3.256   4.537   3.361  2.9640  1.5445 -4.0779
   81GLOH    O1 9302   3.183   4.599   3.343  0.1859 -0.3906 -0.2421
   81GLOH    C1 9303   3.196   4.615   3.200 -0.5573  0.1996 -0.1858
   81GLOH   H02 9304   3.234   4.522   3.158 -1.5218 -0.0483 -0.5115
   81GLOH   H08 9305   3.271   4.688   3.168 -0.5466  0.9127  1.3934
   81GLOH    C2 9306   3.060   4.659   3.145 -0.0195  0.3505  0.5809
   81GLOH   H04 9307   3.037   4.750   3.201  2.1213  1.0660  0.3413
   81GLOH    O2 9308   3.068   4.687   2.999 -0.0488 -0.0190 -0.5516
   81GLOH   H05 9309   3.149   4.740   2.989 -0.9467  1.3666 -0.7666
   81GLOH    C3 9310   2.960   4.538   3.165  0.0326  0.7315 -0.3210
   81GLOH   H06 9311   2.986   4.455   3.100 -0.0741 -0.8167  1.5491
   81GLOH   H07 9312   2.864   4.571   3.127  0.3157  0.9358 -0.8650
   81GLOH    O3 9313   2.927   4.486   3.298 -0.6251 -0.5622  0.4441
   81GLOH   H01 9314   3.004   4.518   3.348 -0.6329 -0.5279  0.4335
   82GLOH   H03 9315   4.882   4.555   2.105  0.4268  0.2703  1.1703
   82GLOH    O1 9316   4.793   4.515   2.110  0.3815  0.2474  0.3241
   82GLOH    C1 9317   4.721   4.581   2.215  0.9978 -0.0613  0.9993
   82GLOH   H02 9318   4.758   4.681   2.238  2.3163  0.4434 -2.8679
   82GLOH   H08 9319   4.714   4.529   2.310 -0.1781 -1.1053  0.3567
   82GLOH    C2 9320   4.575   4.608   2.171 -0.2214  0.3294 -1.8630
   82GLOH   H04 9321   4.511   4.519   2.172  0.7997 -0.4108 -1.0207
   82GLOH    O2 9322   4.517   4.696   2.267  0.2747 -0.2483 -0.3792
   82GLOH   H05 9323   4.570   4.776   2.280 -0.7501  0.6503 -1.6721
   82GLOH    C3 9324   4.564   4.661   2.029 -0.7866 -0.1432  0.1614
   82GLOH   H06 9325   4.623   4.601   1.959  0.8770  0.1395  1.2873
   82GLOH   H07 9326   4.607   4.762   2.029  0.5053 -0.6819  0.4954
   82GLOH    O3 9327   4.427   4.669   1.986 -0.7910  0.4903 -0.1248
   82GLOH   H01 9328   4.397   4.578   1.967  0.6372 -0.5567  2.3844
   83GLOH   H03 9329   2.751   9.142   2.446 -0.6216 -1.2725  0.7043
   83GLOH    O1 9330   2.808   9.068   2.418  0.7398  0.2464 -0.5947
   83GLOH    C1 9331   2.757   8.944   2.466 -0.4108 -0.2277 -0.0571
   83GLOH   H02 9332   2.712   8.950   2.565 -1.8407 -0.4936 -0.6818
   83GLOH   H08 9333   2.850   8.889   2.485 -0.5204 -0.2157  0.5333
   83GLOH    C2 9334   2.661   8.873   2.369 -0.0550  0.3845  0.1892
   83GLOH   H04 9335   2.723   8.840   2.284  0.8405  2.7271 -0.1170
   83GLOH    O2 9336   2.604   8.760   2.435 -0.5185 -0.1283 -0.0499
   83GLOH   H05 9337   2.529   8.720   2.389  0.5101 -1.6600 -0.4186
   83GLOH    C3 9338   2.562   8.970   2.303  0.1701  0.0128  0.0224
   83GLOH   H06 9339   2.483   8.928   2.241 -0.1667  0.6605  0.0071
   83GLOH   H07 9340   2.624   9.022   2.230 -1.1800 -1.7663 -2.4626
   83GLOH    O3 9341   2.492   9.052   2.400  0.1128  0.6122 -0.2985
   83GLOH   H01 9342   2.560   9.115   2.429 -1.6442  2.3494  0.0869
   84GLOH   H03 9343   1.277   8.351   3.973 -2.6377  0.8175  0.0145
   84GLOH    O1 9344   1.279   8.354   3.875  0.0699  0.2515  0.0327
   84GLOH    C1 9345   1.181   8.263   3.819  0.4685 -0.1233 -0.3071
   84GLOH   H02 9346   1.185   8.165   3.867 -1.3202 -0.9173 -1.7489
   84GLOH   H08 9347   1.216   8.252   3.716 -0.5033 -0.4523 -0.6059
   84GLOH    C2 9348   1.029   8.296   3.818 -0.8404  0.1141 -0.2380
   84GLOH   H04 9349   0.977   8.207   3.778 -0.9284  0.4932 -0.9663
   84GLOH    O2 9350   0.981   8.327   3.945 -0.2249 -0.0793 -0.4966
   84GLOH   H05 9351   0.996   8.421   3.966  0.8256 -0.2618 -0.3740
   84GLOH    C3 9352   0.991   8.413   3.723 -0.1077 -0.2814 -1.2870
   84GLOH   H06 9353   1.059   8.494   3.751 -0.0922  0.7593 -4.2028
   84GLOH   H07 9354   0.888   8.443   3.739  0.3455 -0.3351  2.1461
   84GLOH    O3 9355   1.010   8.388   3.584 -0.1224 -0.2117 -0.5277
   84GLOH   H01 9356   1.013   8.469   3.529 -0.8485 -0.7537 -1.3779
   85GLOH   H03 9357   8.791   8.341   0.025  0.8673 -0.7560 -1.2450
   85GLOH    O1 9358   8.737   8.261   0.017 -0.3485 -0.0454 -0.2623
   85GLOH    C1 9359   8.755   8.196   0.142  0.3487  0.1928  0.0625
   85GLOH   H02 9360   8.689   8.240   0.217  0.9464 -0.1931  0.8250
   85GLOH   H08 9361   8.856   8.200   0.182  0.4244  3.9597 -0.3248
   85GLOH    C2 9362   8.709   8.047   0.133 -0.3882  0.1749 -0.7284
   85GLOH   H04 9363   8.783   8.002   0.065  0.0311 -0.4222  0.1232
   85GLOH    O2 9364   8.728   7.988   0.264 -0.4655 -0.1696  0.4168
   85GLOH   H05 9365   8.782   7.907   0.256  0.6705  0.3568  2.4960
   85GLOH    C3 9366   8.567   8.022   0.089  0.0114 -0.3203 -0.3345
   85GLOH   H06 9367   8.506   8.036   0.178  0.9815  1.6812  0.0410
   85GLOH   H07 9368   8.554   7.919   0.054 -0.4188  1.0568 -4.4893
   85GLOH    O3 9369   8.530   8.121  -0.012 -0.3495 -0.6162 -0.1752
   85GLOH   H01 9370   8.607   8.180  -0.010 -0.2931 -0.7191  1.2445
   86GLOH   H03 9371   5.116   3.262   6.098  1.9054  2.2733  1.2944
   86GLOH    O1 9372   5.079   3.260   6.188 -0.0204 -0.0500  0.4812
   86GLOH    C1 9373   5.025   3.130   6.223 -0.7331  0.7689  0.2898
   86GLOH   H02 9374   4.921   3.114   6.195 -0.4765  1.6054 -1.1608
   86GLOH   H08 9375   5.034   3.121   6.332  1.1093  0.4492  0.1305
   86GLOH    C2 9376   5.105   3.007   6.166  0.1010 -0.4791 -0.1231
   86GLOH   H04 9377   5.054   2.924   6.217 -0.8925  0.4170  0.3399
   86GLOH    O2 9378   5.101   3.004   6.021 -0.6205  0.6389 -0.2735
   86GLOH   H05 9379   5.135   2.917   5.994  2.7164  2.1734 -1.2082
   86GLOH    C3 9380   5.250   3.025   6.198 -0.4159 -0.0604  0.1295
   86GLOH   H06 9381   5.284   3.119   6.153  0.3072  0.1583  1.1236
   86GLOH   H07 9382   5.314   2.950   6.153  1.3919  1.6452 -0.2123
   86GLOH    O3 9383   5.277   3.035   6.338 -0.5162 -0.2259 -0.2680
   86GLOH   H01 9384   5.311   3.115   6.381 -0.9757  0.3547 -0.9572
   87GLOH   H03 9385   1.177   0.727   1.205  0.1333 -0.4183  1.8800
   87GLOH    O1 9386   1.211   0.813   1.235 -0.0400  0.4141 -0.2946
   87GLOH    C1 9387   1.135   0.850   1.352 -0.1918  0.6076  0.4385
   87GLOH   H02 9388   1.060   0.775   1.377 -1.4872  1.1604 -1.6578
   87GLOH   H08 9389   1.080   0.939   1.321 -0.8052 -0.2346 -0.9493
   87GLOH    C2 9390   1.211   0.884   1.476  0.4780  0.4469  0.9202
   87GLOH   H04 9391   1.270   0.977   1.476  1.2081 -0.0168  1.7317
   87GLOH    O2 9392   1.110   0.899   1.580 -0.1454 -0.4465  0.2325
   87GLOH   H05 9393   1.071   0.988   1.575  0.0922 -0.4265 -1.3861
   87GLOH    C3 9394   1.299   0.761   1.514  0.1455  0.1309  0.1850
   87GLOH   H06 9395   1.222   0.690   1.544 -0.1919  0.7349  0.7636
   87GLOH   H07 9396   1.364   0.784   1.598  1.3099 -2.6360  0.0830
   87GLOH    O3 9397   1.373   0.711   1.402  0.2291 -0.0606  0.3350
   87GLOH   H01 9398   1.333   0.761   1.329 -1.8118  0.3657  1.7039
   88GLOH   H03 9399   0.773   7.400   1.715 -1.3881  1.5512 -0.3309
   88GLOH    O1 9400   0.820   7.440   1.790  0.0845  0.1356 -0.4628
   88GLOH    C1 9401   0.719   7.496   1.877  0.6005  0.1831  0.2185
   88GLOH   H02 9402   0.734   7.453   1.975  0.5140  2.5871  1.3325
   88GLOH   H08 9403   0.621   7.475   1.835  1.0950  0.3461 -1.0409
   88GLOH    C2 9404   0.745   7.649   1.902  0.1389 -0.4424  0.6724
   88GLOH   H04 9405   0.750   7.707   1.808  2.2709  0.6734  1.4490
   88GLOH    O2 9406   0.643   7.705   1.988  0.7257 -0.2810 -0.4014
   88GLOH   H05 9407   0.554   7.687   1.952 -0.0231 -2.6120  2.3368
   88GLOH    C3 9408   0.887   7.675   1.969  0.1919  0.0593  0.3647
   88GLOH   H06 9409   0.892   7.624   2.065 -0.2083 -2.6676 -0.9898
   88GLOH   H07 9410   0.886   7.782   1.989 -0.1424  0.8877 -3.5804
   88GLOH    O3 9411   0.988   7.631   1.874 -0.7418  0.0957  0.4966
   88GLOH   H01 9412   0.952   7.550   1.834 -0.7933 -0.1045  0.9494
   89GLOH   H03 9413   0.700   6.223   2.446 -1.3175  0.3560 -1.7139
   89GLOH    O1 9414   0.766   6.278   2.400 -0.3282  0.5850 -0.0458
   89GLOH    C1 9415   0.890   6.252   2.470 -0.0475  0.5025 -0.2681
   89GLOH   H02 9416   0.877   6.269   2.577  0.3365 -0.1393 -0.1150
   89GLOH   H08 9417   0.959   6.329   2.437  1.4859 -1.8908 -2.8921
   89GLOH    C2 9418   0.941   6.110   2.439 -0.3460  0.0962 -0.3012
   89GLOH   H04 9419   0.858   6.039   2.447  0.0131 -0.3396 -0.4243
   89GLOH    O2 9420   0.996   6.095   2.305  1.0223  0.3063 -0.3129
   89GLOH   H05 9421   0.992   6.000   2.288  0.4245  0.7799 -3.1196
   89GLOH    C3 9422   1.056   6.080   2.536 -0.0974 -0.5550 -0.2942
   89GLOH   H06 9423   1.144   6.141   2.517  1.4956 -1.9540  2.2147
   89GLOH   H07 9424   1.085   5.978   2.510  0.6493 -1.2212  2.9341
   89GLOH    O3 9425   1.019   6.093   2.674  0.6874  0.9412 -0.0182
   89GLOH   H01 9426   1.094   6.122   2.729  0.6111  2.1459 -0.5445
   90GLOH   H03 9427   8.017   2.341   0.876 -0.4172  0.0965  0.6602
   90GLOH    O1 9428   8.110   2.366   0.890 -0.3152 -0.2972  0.7003
   90GLOH    C1 9429   8.171   2.255   0.957  0.2650 -0.2020 -0.8707
   90GLOH   H02 9430   8.170   2.164   0.897 -1.5215  0.1172 -1.3508
   90GLOH   H08 9431   8.114   2.230   1.047  1.6099  0.4157  0.1795
   90GLOH    C2 9432   8.325   2.276   0.994 -0.0497  0.3018 -0.0785
   90GLOH   H04 9433   8.371   2.269   0.894  1.5757 -0.5178  0.7224
   90GLOH    O2 9434   8.357   2.401   1.056 -0.4407 -1.2612 -0.2626
   90GLOH   H05 9435   8.454   2.404   1.054 -0.4662 -0.0297  0.1699
   90GLOH    C3 9436   8.383   2.164   1.081  0.4587 -0.0390  0.6603
   90GLOH   H06 9437   8.481   2.198   1.115  0.1491  0.0415  1.4615
   90GLOH   H07 9438   8.405   2.078   1.018  0.3738 -1.0507  1.9960
   90GLOH    O3 9439   8.300   2.133   1.193  0.0431  0.0876 -0.3092
   90GLOH   H01 9440   8.247   2.055   1.171 -0.6691  0.8571 -1.3644
   91GLOH   H03 9441   1.608   1.168   0.718  1.4171  0.2118  0.3166
   91GLOH    O1 9442   1.631   1.119   0.637 -0.1563 -0.2062  0.1173
   91GLOH    C1 9443   1.516   1.038   0.582 -0.6575  0.0326 -0.5759
   91GLOH   H02 9444   1.480   0.959   0.647  1.6627 -0.1506  0.5577
   91GLOH   H08 9445   1.561   0.983   0.500 -0.3168 -0.1910 -0.2419
   91GLOH    C2 9446   1.399   1.126   0.534  1.1133  0.3465 -0.1547
   91GLOH   H04 9447   1.447   1.199   0.467 -2.2124  1.0634 -1.8713
   91GLOH    O2 9448   1.312   1.046   0.450  0.1356  0.2620 -0.1920
   91GLOH   H05 9449   1.284   0.968   0.501  0.8301 -1.3780 -2.2381
   91GLOH    C3 9450   1.323   1.197   0.651  0.3825 -0.1766  0.0430
   91GLOH   H06 9451   1.247   1.270   0.623  0.6837  1.0091  2.2434
   91GLOH   H07 9452   1.382   1.269   0.707 -0.6053  0.8243 -0.1715
   91GLOH    O3 9453   1.263   1.105   0.742  0.4451 -0.4620 -0.0075
   91GLOH   H01 9454   1.188   1.153   0.783  0.3803  0.9297 -1.7011
   92GLOH   H03 9455   3.094   1.156   7.032 -0.3217  1.2305 -0.2089
   92GLOH    O1 9456   3.117   1.153   7.127  0.3521  0.3839 -0.3943
   92GLOH    C1 9457   3.247   1.096   7.149  0.1515 -0.9823 -0.1091
   92GLOH   H02 9458   3.320   1.162   7.101 -0.0783 -0.2270  0.5694
   92GLOH   H08 9459   3.249   0.996   7.106 -2.2582 -0.6317 -1.1082
   92GLOH    C2 9460   3.292   1.080   7.298  0.2936  0.3501  0.2995
   92GLOH   H04 9461   3.293   1.183   7.337 -0.3167 -0.1948  1.7838
   92GLOH    O2 9462   3.202   1.013   7.390  0.6717 -0.4456  0.1075
   92GLOH   H05 9463   3.139   1.079   7.425  0.8882 -0.4525  0.5092
   92GLOH    C3 9464   3.436   1.024   7.322  0.4374  0.5016  0.7445
   92GLOH   H06 9465   3.440   0.915   7.322  1.5998  0.5247 -1.3021
   92GLOH   H07 9466   3.467   1.053   7.423  1.2005  0.8505  0.4164
   92GLOH    O3 9467   3.528   1.088   7.232 -0.2180  0.2061  0.1015
   92GLOH   H01 9468   3.539   1.181   7.259  0.3219  0.2417 -0.2303
   93GLOH   H03 9469   0.360   0.526   6.714  1.4390  2.7520  0.2098
   93GLOH    O1 9470   0.277   0.562   6.676  0.2343 -0.2735 -0.1298
   93GLOH    C1 9471   0.192   0.454   6.624  0.0995 -0.0381  0.1253
   93GLOH   H02 9472   0.183   0.369   6.691 -0.6308  0.8931  1.2084
   93GLOH   H08 9473   0.238   0.412   6.534 -1.4375 -0.4854 -0.4729
   93GLOH    C2 9474   0.048   0.492   6.583 -0.2395 -0.4229  0.3604
   93GLOH   H04 9475   0.004   0.544   6.669 -0.9985  0.4847 -0.5811
   93GLOH    O2 9476   0.038   0.576   6.464  0.3833  0.1510  0.3690
   93GLOH   H05 9477  -0.054   0.573   6.434  0.3552  0.0253  0.4676
   93GLOH    C3 9478  -0.039   0.370   6.560  0.4208 -0.0159  0.1498
   93GLOH   H06 9479  -0.131   0.390   6.505 -0.2808 -1.1648  0.8678
   93GLOH   H07 9480  -0.063   0.330   6.659  1.8239 -2.8831 -0.5902
   93GLOH    O3 9481   0.037   0.265   6.491  0.4213  0.5064  0.2713
   93GLOH   H01 9482   0.062   0.296   6.403  0.3853  1.1284  0.4822
   94GLOH   H03 9483   5.916   0.943   1.134  1.8885  2.8723  0.5421
   94GLOH    O1 9484   5.865   0.968   1.055  0.6154 -0.0016  0.3665
   94GLOH    C1 9485   5.795   0.850   1.013  0.4430 -0.4075  0.5555
   94GLOH   H02 9486   5.795   0.779   1.096  1.1794 -3.1925 -1.7382
   94GLOH   H08 9487   5.846   0.804   0.929  2.3811  1.7859  0.5006
   94GLOH    C2 9488   5.650   0.876   0.971 -0.0308  0.4909 -0.0290
   94GLOH   H04 9489   5.608   0.787   0.923  1.3005 -0.1384 -0.0442
   94GLOH    O2 9490   5.556   0.903   1.078 -0.0936 -0.4714 -0.0399
   94GLOH   H05 9491   5.465   0.903   1.043 -0.2710  0.8287  0.4039
   94GLOH    C3 9492   5.649   0.986   0.865  0.2982  0.1086 -0.8312
   94GLOH   H06 9493   5.727   1.054   0.897 -0.7698  0.1700  1.7713
   94GLOH   H07 9494   5.553   1.034   0.882 -1.1781 -1.9313 -2.9225
   94GLOH    O3 9495   5.659   0.934   0.729 -0.6012  0.0125  0.3642
   94GLOH   H01 9496   5.753   0.944   0.705 -0.6869  0.1881  0.0983
   95GLOH   H03 9497   6.943   1.798   2.011  1.7452  1.2123  0.6040
   95GLOH    O1 9498   6.892   1.874   1.976  0.3176 -0.0632 -0.0993
   95GLOH    C1 9499   6.758   1.824   1.956  0.1673  0.2883 -0.3718
   95GLOH   H02 9500   6.682   1.899   1.979  1.3996  0.9783  1.5592
   95GLOH   H08 9501   6.744   1.739   2.023 -0.0009  0.8998  0.3739
   95GLOH    C2 9502   6.734   1.773   1.811  1.0155 -0.8763  0.8168
   95GLOH   H04 9503   6.626   1.765   1.796  1.0825  2.4747 -2.4590
   95GLOH    O2 9504   6.782   1.874   1.719  0.4425  0.4760 -0.1581
   95GLOH   H05 9505   6.877   1.888   1.738  0.0681  0.1195  2.1904
   95GLOH    C3 9506   6.802   1.637   1.775  0.4396  0.4709 -0.7017
   95GLOH   H06 9507   6.907   1.649   1.748 -0.1609  1.8707 -2.5110
   95GLOH   H07 9508   6.752   1.611   1.682 -0.6462 -2.7820  0.7158
   95GLOH    O3 9509   6.787   1.540   1.879 -0.6298  0.8729 -0.2984
   95GLOH   H01 9510   6.813   1.459   1.830  0.3152  1.3393 -0.5702
   96GLOH   H03 9511   2.134   0.902   1.906 -1.0437 -0.3297 -1.4742
   96GLOH    O1 9512   2.057   0.874   1.958  0.1032 -0.1629  0.3775
   96GLOH    C1 9513   2.046   0.947   2.079  0.2045 -0.8066 -0.6450
   96GLOH   H02 9514   1.986   1.035   2.058  0.4862 -0.1633  1.1592
   96GLOH   H08 9515   2.139   0.980   2.124 -1.0449 -0.2910  1.6534
   96GLOH    C2 9516   1.968   0.870   2.191  0.6887 -0.3686 -0.1711
   96GLOH   H04 9517   2.011   0.768   2.191 -2.9913 -2.0289 -3.3522
   96GLOH    O2 9518   1.980   0.927   2.325  0.4321 -0.6883  0.3293
   96GLOH   H05 9519   1.975   1.022   2.309  0.6908 -1.1196 -2.6523
   96GLOH    C3 9520   1.820   0.856   2.155 -0.5980 -0.4318 -0.3798
   96GLOH   H06 9521   1.807   0.831   2.050  1.1353 -1.0474 -0.4706
   96GLOH   H07 9522   1.765   0.948   2.172 -1.2158 -0.6253 -1.3444
   96GLOH    O3 9523   1.766   0.753   2.241  0.2668  0.3386  0.0570
   96GLOH   H01 9524   1.816   0.671   2.223  0.3346  0.6446 -1.2438
   97GLOH   H03 9525   7.449   5.729   4.020  1.0701 -0.6048 -1.3935
   97GLOH    O1 9526   7.414   5.640   4.041  0.0457  0.2577  0.6488
   97GLOH    C1 9527   7.439   5.568   3.921 -0.4500 -0.0843  0.0381
   97GLOH   H02 9528   7.361   5.601   3.852  0.4360  0.0238 -0.9339
   97GLOH   H08 9529   7.421   5.462   3.936  0.1535 -0.2052 -0.0472
   97GLOH    C2 9530   7.580   5.583   3.864  0.4496 -0.0996  0.1599
   97GLOH   H04 9531   7.657   5.552   3.936  0.0429 -0.8546  0.2733
   97GLOH    O2 9532   7.589   5.500   3.743  0.0553  0.1206 -0.1311
   97GLOH   H05 9533   7.603   5.412   3.781 -0.8222  0.8245  1.8582
   97GLOH    C3 9534   7.607   5.732   3.823  0.0646 -0.2867  0.0846
   97GLOH   H06 9535   7.530   5.759   3.751 -1.8814 -2.8787  1.0933
   97GLOH   H07 9536   7.704   5.757   3.780 -0.4553  0.9306 -0.3989
   97GLOH    O3 9537   7.595   5.813   3.944  0.4101  0.1294 -0.7035
   97GLOH   H01 9538   7.588   5.902   3.905 -2.1064  1.4590  2.5044
   98GLOH   H03 9539   6.307   0.578   0.209 -0.8128  0.3661 -0.4005
   98GLOH    O1 9540   6.305   0.651   0.145  0.2454  0.2806 -0.5355
   98GLOH    C1 9541   6.368   0.619   0.019  0.2567  0.0936  0.3213
   98GLOH   H02 9542   6.309   0.569  -0.057 -2.2076  0.5876  1.8528
   98GLOH   H08 9543   6.452   0.551   0.036  0.1462 -0.4871 -1.4238
   98GLOH    C2 9544   6.435   0.737  -0.045  0.4089  0.3069 -0.4033
   98GLOH   H04 9545   6.513   0.759   0.029 -1.6660 -1.4093  2.4131
   98GLOH    O2 9546   6.485   0.689  -0.171  0.5120  0.2273 -0.3744
   98GLOH   H05 9547   6.433   0.731  -0.242  0.4480  0.9317  0.0881
   98GLOH    C3 9548   6.351   0.870  -0.062 -1.2483  0.3697 -0.2298
   98GLOH   H06 9549   6.427   0.946  -0.075 -1.4311  0.5816 -0.0764
   98GLOH   H07 9550   6.297   0.887   0.031 -0.3866 -0.1947  0.3724
   98GLOH    O3 9551   6.266   0.882  -0.177  0.3750  0.5308 -0.7648
   98GLOH   H01 9552   6.182   0.924  -0.153 -0.0772 -1.1428  0.6298
   99GLOH   H03 9553   4.746   9.804   0.126  1.0592 -0.5055  0.4135
   99GLOH    O1 9554   4.757   9.799   0.030 -0.5950 -0.0271  0.1759
   99GLOH    C1 9555   4.643   9.849  -0.044 -0.5062 -0.1859  0.0782
   99GLOH   H02 9556   4.664   9.916  -0.128 -0.8220  0.5779  0.6015
   99GLOH   H08 9557   4.581   9.901   0.028 -0.4757  1.3865 -0.9980
   99GLOH    C2 9558   4.549   9.743  -0.105 -0.4042  0.6816 -0.1127
   99GLOH   H04 9559   4.501   9.683  -0.026 -0.7189 -0.2900 -1.0302
   99GLOH    O2 9560   4.440   9.796  -0.189  0.2261  0.5535  0.3048
   99GLOH   H05 9561   4.425   9.888  -0.160 -0.4903  1.0484 -1.5281
   99GLOH    C3 9562   4.636   9.643  -0.192 -0.6243  0.5355  0.5546
   99GLOH   H06 9563   4.672   9.709  -0.271  1.3038 -1.0499  0.0314
   99GLOH   H07 9564   4.571   9.568  -0.238 -0.9357  2.6497 -2.5466
   99GLOH    O3 9565   4.741   9.581  -0.118  0.1246  0.0469  0.2302
   99GLOH   H01 9566   4.774   9.647  -0.055 -0.4156 -0.1535  0.7273
  100GLOH   H03 9567   1.574   6.660   3.382  0.2214  1.3837  3.6985
  100GLOH    O1 9568   1.670   6.641   3.379 -0.0779  0.0343  0.5902
  100GLOH    C1 9569   1.696   6.507   3.328  0.6139 -0.1725 -0.4736
  100GLOH   H02 9570   1.754   6.521   3.237 -0.4997 -1.3766 -1.3822
  100GLOH   H08 9571   1.604   6.459   3.295  1.1034 -1.2310 -0.3239
  100GLOH    C2 9572   1.779   6.421   3.425 -0.5820  0.3097  0.1522
  100GLOH   H04 9573   1.731   6.434   3.523 -0.2884  0.8452  0.2331
  100GLOH    O2 9574   1.791   6.285   3.389 -0.2056 -0.4000 -0.2568
  100GLOH   H05 9575   1.730   6.274   3.314 -2.0304 -1.0670  1.2978
  100GLOH    C3 9576   1.921   6.483   3.440 -0.3119 -0.1766  0.5051
  100GLOH   H06 9577   1.916   6.587   3.470 -1.5968  0.1484 -0.7761
  100GLOH   H07 9578   1.961   6.484   3.339 -0.9255 -2.4948  0.1908
  100GLOH    O3 9579   2.005   6.409   3.532 -0.1814 -0.2472 -0.0719
  100GLOH   H01 9580   1.991   6.451   3.619  0.5995 -0.9262  0.3820
  101GLOH   H03 9581   3.860   6.727   2.223  0.3676 -0.6283  0.8983
  101GLOH    O1 9582   3.885   6.813   2.260  0.0847 -0.2064  0.1212
  101GLOH    C1 9583   3.767   6.876   2.325 -0.0124  0.0712  0.8103
  101GLOH   H02 9584   3.690   6.805   2.354 -0.3037  0.0414 -0.0108
  101GLOH   H08 9585   3.719   6.947   2.257  0.6579 -1.0500 -0.8493
  101GLOH    C2 9586   3.809   6.954   2.452  0.2149  0.0776  0.3185
  101GLOH   H04 9587   3.890   7.023   2.427  2.3735 -2.6776 -0.5572
  101GLOH    O2 9588   3.714   7.033   2.518 -0.2890 -0.0638 -0.0512
  101GLOH   H05 9589   3.757   7.076   2.594 -2.2320  1.9676 -0.0410
  101GLOH    C3 9590   3.857   6.851   2.559  0.3587  0.6301  0.0724
  101GLOH   H06 9591   3.878   6.910   2.648  0.3840  1.7018 -0.6327
  101GLOH   H07 9592   3.948   6.801   2.524  0.5609 -0.4534  2.0472
  101GLOH    O3 9593   3.760   6.742   2.587  0.0394  0.2080  0.5920
  101GLOH   H01 9594   3.669   6.776   2.572 -0.6077 -2.2104 -1.2637
  102GLOH   H03 9595   9.279   7.288   1.623  0.4526 -2.0489  1.9498
  102GLOH    O1 9596   9.184   7.277   1.639 -0.2411  0.1422 -0.3706
  102GLOH    C1 9597   9.149   7.249   1.777 -0.7857 -0.6245 -0.2230
  102GLOH   H02 9598   9.239   7.210   1.824 -1.1721  0.6205  1.6142
  102GLOH   H08 9599   9.077   7.167   1.773  1.9918 -3.1544  0.3081
  102GLOH    C2 9600   9.099   7.366   1.855 -0.1792 -0.4499  1.0922
  102GLOH   H04 9601   9.005   7.397   1.807 -0.9098  0.8000  3.2562
  102GLOH    O2 9602   9.075   7.329   1.988  0.4682 -0.0039 -0.1158
  102GLOH   H05 9603   9.006   7.384   2.029  0.5058 -0.3502  0.4176
  102GLOH    C3 9604   9.195   7.484   1.849  0.1408  0.5857 -0.3979
  102GLOH   H06 9605   9.156   7.553   1.924 -0.7496  0.3876 -0.6762
  102GLOH   H07 9606   9.191   7.530   1.750  0.9784 -1.9658 -1.6458
  102GLOH    O3 9607   9.329   7.451   1.881 -0.2259 -0.0431  0.3304
  102GLOH   H01 9608   9.381   7.531   1.899 -0.2767  0.1249 -0.2752
  103GLOH   H03 9609   6.698   6.269   5.616  1.7661  0.5380  0.1467
  103GLOH    O1 9610   6.694   6.314   5.530 -0.1439 -0.2381 -0.2027
  103GLOH    C1 9611   6.825   6.300   5.467  0.4485 -0.2860  0.1873
  103GLOH   H02 9612   6.838   6.212   5.404 -1.1264  0.0417 -0.6038
  103GLOH   H08 9613   6.903   6.289   5.543  0.2930  1.0145  0.5341
  103GLOH    C2 9614   6.863   6.429   5.392 -0.3231 -0.2640  0.5682
  103GLOH   H04 9615   6.876   6.506   5.470 -1.6975 -0.7712  1.3165
  103GLOH    O2 9616   6.992   6.418   5.325  0.1810  0.5757 -0.2254
  103GLOH   H05 9617   6.981   6.448   5.234 -0.8176 -1.9432 -0.9781
  103GLOH    C3 9618   6.749   6.463   5.287 -0.2058  0.0616  0.2474
  103GLOH   H06 9619   6.745   6.375   5.223 -2.0254  1.6790 -1.9616
  103GLOH   H07 9620   6.775   6.546   5.221  0.9318 -1.6358 -1.4891
  103GLOH    O3 9621   6.626   6.483   5.355  0.0867  0.0499 -0.1575
  103GLOH   H01 9622   6.640   6.431   5.437  0.0273  1.2740  0.6531
  104GLOH   H03 9623   6.458   0.521   6.044 -4.1796  2.7721 -0.9696
  104GLOH    O1 9624   6.425   0.449   5.986  0.1626 -0.2175  0.0310
  104GLOH    C1 9625   6.537   0.369   5.952 -0.0816  0.4692  0.9181
  104GLOH   H02 9626   6.620   0.424   5.909  0.7375  0.5157  2.5361
  104GLOH   H08 9627   6.503   0.308   5.869 -0.8419  2.7484 -0.4838
  104GLOH    C2 9628   6.585   0.263   6.056  0.9438  0.2287  0.9146
  104GLOH   H04 9629   6.605   0.312   6.152 -0.2564  0.3848  1.0915
  104GLOH    O2 9630   6.486   0.155   6.071 -0.8789 -0.2932 -0.1256
  104GLOH   H05 9631   6.474   0.107   5.987 -0.4759 -1.6396  0.5687
  104GLOH    C3 9632   6.720   0.203   6.006 -0.1572 -0.4306 -0.0800
  104GLOH   H06 9633   6.711   0.158   5.907 -0.1605 -0.0288 -0.2650
  104GLOH   H07 9634   6.745   0.113   6.062 -5.4101 -0.9262  1.8263
  104GLOH    O3 9635   6.828   0.296   6.012 -0.4982 -0.2090 -0.3480
  104GLOH   H01 9636   6.813   0.362   5.942  2.0319  0.2996 -0.4809
  105GLOH   H03 9637   9.681   0.597   0.256  2.5917  0.6869 -0.6804
  105GLOH    O1 9638   9.639   0.681   0.230  0.1119 -0.2592  0.1350
  105GLOH    C1 9639   9.727   0.751   0.137 -0.2113 -0.9792  0.9376
  105GLOH   H02 9640   9.826   0.770   0.180  1.1501  0.0332 -2.4461
  105GLOH   H08 9641   9.686   0.851   0.123 -2.5800 -2.5440 -4.6109
  105GLOH    C2 9642   9.739   0.676   0.001 -0.1543 -0.0831  0.7375
  105GLOH   H04 9643   9.795   0.736  -0.072  2.5439 -1.4649  1.6286
  105GLOH    O2 9644   9.816   0.552   0.001 -0.0034  0.1802 -0.1187
  105GLOH   H05 9645   9.903   0.572   0.038  0.9529 -0.4166 -1.9768
  105GLOH    C3 9646   9.596   0.644  -0.053  0.4622 -0.9433  0.4783
  105GLOH   H06 9647   9.534   0.723  -0.009 -0.9598 -1.9542  0.3283
  105GLOH   H07 9648   9.556   0.549  -0.017 -0.3097 -0.0393  2.0824
  105GLOH    O3 9649   9.593   0.651  -0.198 -0.2038  0.5594  0.4437
  105GLOH   H01 9650   9.499   0.652  -0.225 -0.4005 -1.8327  0.9627
  106GLOH   H03 9651   4.755   3.654   7.264  0.2263  0.2140  1.1661
  106GLOH    O1 9652   4.666   3.662   7.227  0.7287  0.5854  0.0073
  106GLOH    C1 9653   4.573   3.670   7.333 -0.3173 -0.0118 -0.1910
  106GLOH   H02 9654   4.575   3.572   7.381 -1.0561  0.6761  1.2796
  106GLOH   H08 9655   4.473   3.693   7.299 -1.5344 -1.9843  1.8925
  106GLOH    C2 9656   4.611   3.770   7.447 -0.1063 -0.0766 -0.0084
  106GLOH   H04 9657   4.598   3.869   7.399  2.4574  0.1360 -0.3106
  106GLOH    O2 9658   4.519   3.761   7.549 -0.0518 -0.0699 -0.5066
  106GLOH   H05 9659   4.434   3.804   7.526 -0.9886 -0.7448  1.5439
  106GLOH    C3 9660   4.752   3.764   7.501  0.4247 -0.7189 -0.1382
  106GLOH   H06 9661   4.776   3.664   7.537  1.5709  0.7618  3.4611
  106GLOH   H07 9662   4.757   3.834   7.585 -1.5786  0.2008 -0.7640
  106GLOH    O3 9663   4.838   3.803   7.391 -0.2068 -0.0607 -0.6071
  106GLOH   H01 9664   4.828   3.896   7.364 -0.5739  1.1059  3.2269
  107GLOH   H03 9665   0.744   1.557   7.392  0.3212  0.4904 -0.2088
  107GLOH    O1 9666   0.839   1.545   7.374  0.5209  0.0242  1.0595
  107GLOH    C1 9667   0.861   1.476   7.245 -0.0613  0.3036 -0.4617
  107GLOH   H02 9668   0.787   1.398   7.228  2.1794 -1.9245 -0.1903
  107GLOH   H08 9669   0.953   1.418   7.254 -1.4341 -1.8068  0.4466
  107GLOH    C2 9670   0.881   1.577   7.129  0.4827  0.2725  0.3534
  107GLOH   H04 9671   0.952   1.658   7.147  0.0629  0.6741  0.2005
  107GLOH    O2 9672   0.918   1.505   7.010  0.3347  0.4234  0.1841
  107GLOH   H05 9673   1.009   1.528   6.984  0.1362 -0.5639 -1.4238
  107GLOH    C3 9674   0.738   1.636   7.114  0.2454  0.1529  0.8585
  107GLOH   H06 9675   0.697   1.681   7.204 -0.4349  0.1971  0.5323
  107GLOH   H07 9676   0.674   1.555   7.078  0.1415  0.5763  0.0801
  107GLOH    O3 9677   0.720   1.736   7.013  0.0058  0.1206 -0.1846
  107GLOH   H01 9678   0.626   1.751   6.993 -0.3373  1.0525  2.0503
  108GLOH   H03 9679   2.865   0.754   4.968  1.0019  1.7028  0.6349
  108GLOH    O1 9680   2.902   0.670   5.002 -0.5436  0.5685 -0.4114
  108GLOH    C1 9681   2.994   0.614   4.909  0.0398  0.4551 -0.0800
  108GLOH   H02 9682   3.083   0.576   4.959 -0.2884  0.2990  0.3923
  108GLOH   H08 9683   3.035   0.682   4.834 -0.9238  1.1603  0.0240
  108GLOH    C2 9684   2.930   0.506   4.821 -0.2548  0.4127 -0.0490
  108GLOH   H04 9685   2.997   0.487   4.736  0.7523 -0.6660  0.9873
  108GLOH    O2 9686   2.891   0.383   4.893 -0.2555 -0.1715  0.1397
  108GLOH   H05 9687   2.822   0.399   4.960  0.6763 -1.5894  1.4675
  108GLOH    C3 9688   2.807   0.571   4.740  0.8149 -0.3185 -0.4596
  108GLOH   H06 9689   2.739   0.604   4.818  2.2084 -2.0442  1.5282
  108GLOH   H07 9690   2.750   0.497   4.683  1.8616 -1.4645 -0.0455
  108GLOH    O3 9691   2.846   0.683   4.658 -0.6659 -0.2981 -0.1423
  108GLOH   H01 9692   2.784   0.757   4.671 -0.2239  0.3890 -1.7372
  109GLOH   H03 9693   3.549   3.146   0.842 -2.2662 -0.8030 -0.5743
  109GLOH    O1 9694   3.565   3.052   0.862 -0.0744 -0.2718  0.2825
  109GLOH    C1 9695   3.641   2.990   0.763  0.3759 -0.4951 -0.4613
  109GLOH   H02 9696   3.730   3.052   0.754 -0.9350  1.4951 -0.0711
  109GLOH   H08 9697   3.588   2.990   0.667  1.0443  0.7196 -0.8491
  109GLOH    C2 9698   3.666   2.841   0.782 -0.1325  0.3554  0.0099
  109GLOH   H04 9699   3.567   2.795   0.775  0.4399 -1.1646  1.5999
  109GLOH    O2 9700   3.752   2.793   0.681 -0.2001 -0.1955 -0.5918
  109GLOH   H05 9701   3.712   2.819   0.596 -0.2640 -1.6185 -1.0088
  109GLOH    C3 9702   3.725   2.823   0.916 -0.1013  0.1669 -0.3024
  109GLOH   H06 9703   3.820   2.875   0.927  0.5350 -1.1404  0.4552
  109GLOH   H07 9704   3.740   2.716   0.932  0.9051  0.3962  0.3349
  109GLOH    O3 9705   3.637   2.872   1.014 -0.1515 -0.9335  0.2280
  109GLOH   H01 9706   3.595   2.950   0.974 -0.0479 -0.6721  0.6276
  110GLOH   H03 9707   6.596   7.717   6.520 -2.5965 -0.8608 -0.0793
  110GLOH    O1 9708   6.635   7.630   6.541 -0.5390  0.1006  0.2016
  110GLOH    C1 9709   6.752   7.630   6.462 -0.0270  0.6704  0.0219
  110GLOH   H02 9710   6.829   7.615   6.537 -0.8627 -1.5474  0.4884
  110GLOH   H08 9711   6.770   7.728   6.418  0.3291  0.6756  0.1787
  110GLOH    C2 9712   6.770   7.519   6.357  0.4434 -0.3645  0.8340
  110GLOH   H04 9713   6.678   7.518   6.297  0.7677 -0.1677  0.3268
  110GLOH    O2 9714   6.889   7.546   6.279  0.3043  0.1248 -0.5056
  110GLOH   H05 9715   6.969   7.515   6.325  1.3038  0.6490 -1.8600
  110GLOH    C3 9716   6.783   7.385   6.430 -0.3705  0.5859  0.3821
  110GLOH   H06 9717   6.705   7.379   6.506 -0.9107 -0.3318 -0.2329
  110GLOH   H07 9718   6.874   7.394   6.490 -0.8359 -2.9225  1.7191
  110GLOH    O3 9719   6.782   7.273   6.337 -0.4318  0.2458  0.2017
  110GLOH   H01 9720   6.687   7.263   6.316 -0.6563 -1.1268  1.7480
  111GLOH   H03 9721   7.104   5.152   0.525 -0.8140 -1.7200  0.1904
  111GLOH    O1 9722   7.024   5.202   0.501  0.1231  0.0066  0.5149
  111GLOH    C1 9723   7.052   5.341   0.490 -0.7260  1.0429  1.0286
  111GLOH   H02 9724   7.142   5.360   0.549  0.6438  0.5618 -0.8546
  111GLOH   H08 9725   6.964   5.397   0.520 -0.8093  1.2976  0.3260
  111GLOH    C2 9726   7.086   5.384   0.342  0.5696  0.4096 -0.2390
  111GLOH   H04 9727   7.017   5.338   0.270  0.4271 -2.3110  1.5776
  111GLOH    O2 9728   7.089   5.529   0.332 -0.0486  0.1688 -0.0651
  111GLOH   H05 9729   7.036   5.561   0.256  1.3604  0.9756 -0.7196
  111GLOH    C3 9730   7.222   5.319   0.299 -0.2222 -0.1066 -0.1248
  111GLOH   H06 9731   7.239   5.354   0.197  1.5856  1.0505  0.5435
  111GLOH   H07 9732   7.213   5.211   0.288 -1.1621  0.0141 -0.6751
  111GLOH    O3 9733   7.326   5.345   0.392 -0.2307 -0.1197 -0.0828
  111GLOH   H01 9734   7.392   5.404   0.353 -0.1759 -1.1025 -1.5040
  112GLOH   H03 9735   2.918   0.318   2.961  0.0212 -0.3230  1.0849
  112GLOH    O1 9736   2.898   0.246   2.898 -0.1386  0.3607  0.3355
  112GLOH    C1 9737   2.788   0.174   2.952  0.3815 -0.2241  0.0537
  112GLOH   H02 9738   2.777   0.082   2.895  0.9780 -1.0405  1.2460
  112GLOH   H08 9739   2.694   0.228   2.934  1.3586  1.6289  0.3678
  112GLOH    C2 9740   2.794   0.123   3.105  0.1345 -0.5473  0.6686
  112GLOH   H04 9741   2.746   0.190   3.178 -2.7678 -0.5199 -1.1507
  112GLOH    O2 9742   2.717   0.007   3.127  0.4186  0.0076  0.0412
  112GLOH   H05 9743   2.633   0.023   3.173 -0.2002 -2.3369 -0.2376
  112GLOH    C3 9744   2.940   0.099   3.146 -0.4245 -0.2028  0.2372
  112GLOH   H06 9745   2.984   0.031   3.074 -0.3496 -1.4380  1.4306
  112GLOH   H07 9746   2.941   0.046   3.241  1.6780  2.2190  1.6392
  112GLOH    O3 9747   3.012   0.223   3.163 -0.3951 -0.5624 -0.0830
  112GLOH   H01 9748   2.997   0.246   3.256  0.3235 -0.2928 -0.0280
  113GLOH   H03 9749   4.529   8.860   6.376  0.1681  1.2721  1.2421
  113GLOH    O1 9750   4.451   8.893   6.327  0.2464 -0.4385 -0.0658
  113GLOH    C1 9751   4.459   8.830   6.197 -0.5264  0.6619  0.2214
  113GLOH   H02 9752   4.374   8.861   6.136 -0.9420  0.6294  0.7749
  113GLOH   H08 9753   4.454   8.721   6.204  0.6722  0.6430  0.8278
  113GLOH    C2 9754   4.585   8.881   6.131  0.5243 -0.1019  0.2329
  113GLOH   H04 9755   4.668   8.881   6.202 -0.1984  1.2546  1.0796
  113GLOH    O2 9756   4.608   8.797   6.021 -0.3375 -0.2954 -0.5504
  113GLOH   H05 9757   4.584   8.842   5.938 -1.3906  1.7189  0.7958
  113GLOH    C3 9758   4.575   9.024   6.085  0.4398 -0.1915  0.7907
  113GLOH   H06 9759   4.557   9.093   6.167  2.0371  1.3042 -0.0666
  113GLOH   H07 9760   4.485   9.034   6.025 -0.9295 -0.1868  2.8033
  113GLOH    O3 9761   4.688   9.078   6.017  0.5437 -0.0565 -0.0767
  113GLOH   H01 9762   4.718   9.020   5.945  1.5904 -1.2167  1.2631
  114GLOH   H03 9763   9.404   1.386   7.500 -0.6216 -0.0395 -1.2671
  114GLOH    O1 9764   9.401   1.484   7.503  0.6848 -0.0233  0.1744
  114GLOH    C1 9765   9.517   1.544   7.440 -0.2182  0.2932  0.2951
  114GLOH   H02 9766   9.500   1.539   7.333 -0.1148 -1.5502  0.3449
  114GLOH   H08 9767   9.603   1.478   7.453 -0.0834  0.1693 -1.1329
  114GLOH    C2 9768   9.543   1.693   7.485 -0.1114 -0.3799 -1.0139
  114GLOH   H04 9769   9.459   1.751   7.445 -1.8378 -1.1632  1.3267
  114GLOH    O2 9770   9.541   1.700   7.628  0.0129  0.0618  0.5066
  114GLOH   H05 9771   9.469   1.645   7.662  0.2394  0.4685  1.6658
  114GLOH    C3 9772   9.665   1.756   7.419  0.0707  0.0400 -0.2204
  114GLOH   H06 9773   9.755   1.702   7.448 -0.9824 -0.6925  1.7562
  114GLOH   H07 9774   9.673   1.858   7.458  0.8839 -0.8997  2.1964
  114GLOH    O3 9775   9.658   1.765   7.278 -0.0192  0.2171  0.2855
  114GLOH   H01 9776   9.592   1.835   7.264 -0.6993 -0.6274 -0.8593
  115GLOH   H03 9777   5.278   3.542   1.486  1.9129 -1.3532  0.2951
  115GLOH    O1 9778   5.221   3.477   1.443  0.7215 -0.1091 -0.0454
  115GLOH    C1 9779   5.251   3.447   1.302  0.0723 -0.2846  0.8199
  115GLOH   H02 9780   5.202   3.520   1.238  1.4314 -0.2837 -0.2241
  115GLOH   H08 9781   5.194   3.358   1.275 -0.8763  1.0154 -1.5890
  115GLOH    C2 9782   5.400   3.425   1.273  0.3658  0.6603  0.2683
  115GLOH   H04 9783   5.445   3.354   1.343  1.8050  0.0954 -1.2009
  115GLOH    O2 9784   5.404   3.380   1.136  0.0966  0.4758  0.2954
  115GLOH   H05 9785   5.488   3.332   1.127 -0.0486  0.3270 -0.3261
  115GLOH    C3 9786   5.477   3.557   1.286 -0.2317 -0.0081 -0.5887
  115GLOH   H06 9787   5.467   3.619   1.198  0.0460  1.7180  0.5736
  115GLOH   H07 9788   5.583   3.535   1.300 -1.1380 -3.7031  1.2973
  115GLOH    O3 9789   5.429   3.643   1.399 -0.0687 -0.9007  0.1403
  115GLOH   H01 9790   5.380   3.720   1.366  2.7044  0.5945 -0.6213
  116GLOH   H03 9791   7.541   7.360   6.542  0.1975  0.3059 -1.7806
  116GLOH    O1 9792   7.448   7.354   6.511 -0.2995 -0.3879 -0.1936
  116GLOH    C1 9793   7.357   7.305   6.612  0.2468 -0.6353  0.2761
  116GLOH   H02 9794   7.385   7.213   6.662 -1.4305 -1.4333 -0.2122
  116GLOH   H08 9795   7.265   7.294   6.554  0.2502  1.7778 -0.2571
  116GLOH    C2 9796   7.328   7.401   6.725  0.7698  0.1307 -0.1940
  116GLOH   H04 9797   7.292   7.495   6.682  3.1482  1.7529  1.2823
  116GLOH    O2 9798   7.235   7.345   6.815 -0.0142  0.0968  0.4972
  116GLOH   H05 9799   7.260   7.253   6.832 -0.5249 -0.0979  0.2269
  116GLOH    C3 9800   7.457   7.428   6.801 -0.1009 -0.1057  0.3044
  116GLOH   H06 9801   7.432   7.498   6.881  1.4303  0.4908  0.2768
  116GLOH   H07 9802   7.530   7.482   6.741 -0.1586  1.2100  1.3803
  116GLOH    O3 9803   7.526   7.311   6.849 -0.1638 -0.6602 -0.0035
  116GLOH   H01 9804   7.612   7.350   6.873 -1.8734  1.8106  2.3976
  117GLOH   H03 9805   3.674   6.302   2.226 -3.4558  1.5503 -0.5468
  117GLOH    O1 9806   3.720   6.367   2.171  0.0349 -0.0058  0.4020
  117GLOH    C1 9807   3.619   6.407   2.082  0.4559 -0.1563  0.9539
  117GLOH   H02 9808   3.526   6.437   2.131 -0.9008 -3.2581  0.3866
  117GLOH   H08 9809   3.597   6.324   2.016 -1.0385  1.7227 -0.9604
  117GLOH    C2 9810   3.671   6.519   1.990 -0.1922 -0.2150  0.1558
  117GLOH   H04 9811   3.772   6.491   1.954 -0.8799  1.9761 -3.8259
  117GLOH    O2 9812   3.582   6.530   1.880  1.4564 -0.1199  0.6518
  117GLOH   H05 9813   3.495   6.561   1.908  1.6106  0.4296  0.5176
  117GLOH    C3 9814   3.673   6.655   2.058  0.3092  0.0480 -0.0591
  117GLOH   H06 9815   3.719   6.729   1.993  0.5131  0.4260  0.5131
  117GLOH   H07 9816   3.731   6.648   2.150 -1.3328 -2.2460  0.8547
  117GLOH    O3 9817   3.541   6.709   2.100  0.9680  0.3534 -0.0677
  117GLOH   H01 9818   3.518   6.680   2.191  0.8234  3.6208  1.0023
  118GLOH   H03 9819   4.100   4.283   2.104  2.4449 -1.6673  0.0650
  118GLOH    O1 9820   4.110   4.300   2.009 -0.1172 -0.2487  0.0039
  118GLOH    C1 9821   4.020   4.406   1.961 -0.6938 -0.4132  0.3381
  118GLOH   H02 9822   4.058   4.498   2.006 -0.7111  0.8094 -2.0588
  118GLOH   H08 9823   3.919   4.381   1.991 -1.7307 -0.8334 -3.2517
  118GLOH    C2 9824   4.035   4.417   1.808 -0.5724  0.1970 -0.0449
  118GLOH   H04 9825   3.958   4.488   1.775  0.7389  1.9382  0.5733
  118GLOH    O2 9826   4.154   4.478   1.762  0.3035  0.5972  0.3119
  118GLOH   H05 9827   4.231   4.463   1.820  0.7593 -0.3984 -0.5369
  118GLOH    C3 9828   3.997   4.299   1.724  0.1512 -0.3269  0.0494
  118GLOH   H06 9829   4.084   4.234   1.733  0.5842 -0.0243 -1.8330
  118GLOH   H07 9830   4.003   4.335   1.622 -0.6795  0.8406  0.4028
  118GLOH    O3 9831   3.867   4.237   1.752 -0.3802  0.0457 -0.4350
  118GLOH   H01 9832   3.882   4.184   1.832 -0.9577  0.9284  0.2651
  119GLOH   H03 9833   7.150   0.524   5.872 -2.3958  2.3325 -0.4298
  119GLOH    O1 9834   7.103   0.464   5.811 -0.1790 -0.0759  0.1413
  119GLOH    C1 9835   7.208   0.386   5.742 -0.1269  0.2682 -0.8370
  119GLOH   H02 9836   7.277   0.336   5.810 -2.3411 -0.1628  1.1985
  119GLOH   H08 9837   7.273   0.452   5.686  1.3864 -2.7294 -2.7221
  119GLOH    C2 9838   7.159   0.278   5.649 -0.1361  0.1800 -0.0788
  119GLOH   H04 9839   7.244   0.216   5.616  0.0673  0.9112 -0.9335
  119GLOH    O2 9840   7.063   0.186   5.710 -0.0439 -0.2697  0.0927
  119GLOH   H05 9841   7.062   0.223   5.800  1.3355 -0.6102  0.2605
  119GLOH    C3 9842   7.096   0.345   5.531  0.1565 -0.4728  0.0755
  119GLOH   H06 9843   7.017   0.413   5.564  0.3801  0.4520 -1.2497
  119GLOH   H07 9844   7.038   0.272   5.474 -0.2119 -1.2950  1.4670
  119GLOH    O3 9845   7.181   0.426   5.446 -0.1776 -0.5448 -0.2338
  119GLOH   H01 9846   7.152   0.516   5.468 -1.3320 -1.0142  0.1970
  120GLOH   H03 9847   2.744   9.662   1.291  0.3436 -2.4995 -0.8987
  120GLOH    O1 9848   2.795   9.696   1.215  0.1954  0.0081  0.0783
  120GLOH    C1 9849   2.750   9.615   1.106 -0.2077  0.3452  0.5699
  120GLOH   H02 9850   2.837   9.550   1.095  1.1724  2.3377 -0.6956
  120GLOH   H08 9851   2.746   9.681   1.019 -0.6316  2.4136  2.1119
  120GLOH    C2 9852   2.606   9.556   1.107 -0.1148 -0.3548 -0.2251
  120GLOH   H04 9853   2.530   9.636   1.113 -0.1428 -0.4380  0.6472
  120GLOH    O2 9854   2.587   9.473   0.993  0.1775 -0.0198 -0.7132
  120GLOH   H05 9855   2.504   9.423   0.999 -0.2480  0.9559  3.0618
  120GLOH    C3 9856   2.596   9.459   1.228 -0.6302 -0.4035 -0.3823
  120GLOH   H06 9857   2.685   9.396   1.222  0.0002  0.6006 -1.5978
  120GLOH   H07 9858   2.503   9.405   1.208  0.3327 -1.8907 -0.8776
  120GLOH    O3 9859   2.590   9.537   1.350  0.0831 -0.0748 -0.1657
  120GLOH   H01 9860   2.604   9.479   1.427  1.1393 -0.0965 -0.3658
  121ACOH    H4 9861   4.933   3.227   1.761 -0.4686  0.3348 -2.9631
  121ACOH    O2 9862   4.863   3.164   1.784  0.0577  0.8000  0.1055
  121ACOH    C2 9863   4.917   3.042   1.790 -1.0198  0.4120 -0.2257
  121ACOH    O1 9864   5.036   3.024   1.762 -0.6319 -0.1648 -0.4354
  121ACOH    C1 9865   4.820   2.934   1.817 -0.6428 -0.7200 -0.2337
  121ACOH    H1 9866   4.720   2.964   1.850 -0.5021 -1.5186  0.9513
  121ACOH    H2 9867   4.872   2.875   1.892  0.7258  1.7174  0.8145
  121ACOH    H3 9868   4.799   2.881   1.725 -1.7968 -0.3837 -0.1752
  122ACOH    H4 9869   4.492   7.965   6.969 -0.3906  2.5383 -2.7548
  122ACOH    O2 9870   4.511   8.027   7.040 -0.0569 -0.4801 -0.0928
  122ACOH    C2 9871   4.509   7.963   7.160  0.3769  0.9712 -0.0361
  122ACOH    O1 9872   4.491   8.022   7.266 -0.3533 -0.1567  0.7634
  122ACOH    C1 9873   4.478   7.813   7.152 -0.4717  0.2824 -0.6292
  122ACOH    H1 9874   4.404   7.786   7.076 -0.0506 -0.8187 -0.6532
  122ACOH    H2 9875   4.436   7.783   7.248  0.5224  0.6502 -0.0678
  122ACOH    H3 9876   4.571   7.760   7.134  0.8297  2.2905 -0.0200
  123ACOH    H4 9877   6.318   9.894   4.194 -1.0112  2.1372  1.5975
  123ACOH    O2 9878   6.236   9.888   4.141  0.1304  0.5241 -0.0497
  123ACOH    C2 9879   6.152   9.807   4.204  0.2087  0.2957  0.0952
  123ACOH    O1 9880   6.151   9.795   4.328 -0.6605 -0.4123  0.0241
  123ACOH    C1 9881   6.028   9.791   4.114 -0.8834  0.0614 -0.0411
  123ACOH    H1 9882   6.035   9.857   4.028 -0.3799 -0.5280 -0.4609
  123ACOH    H2 9883   5.943   9.820   4.175 -0.8621 -0.2853  0.1515
  123ACOH    H3 9884   6.021   9.686   4.085 -2.9137 -0.4370  2.0991
  124ACOH    H4 9885   4.944   3.272   4.095  0.3032  0.7554 -0.0396
  124ACOH    O2 9886   4.899   3.351   4.060  0.0643  0.5610 -0.1614
  124ACOH    C2 9887   4.955   3.465   4.088 -0.3477 -0.0377 -0.3601
  124ACOH    O1 9888   5.053   3.475   4.167  0.1028 -0.1479 -0.4370
  124ACOH    C1 9889   4.879   3.586   4.042  0.1767  0.0889  0.1183
  124ACOH    H1 9890   4.833   3.586   3.943  0.3111 -1.2577  0.0512
  124ACOH    H2 9891   4.954   3.664   4.057 -0.0887  0.1096  1.3249
  124ACOH    H3 9892   4.800   3.612   4.113  1.8592  1.9074  1.3737
  125ACOH    H4 9893   7.049   5.455   6.388 -0.3834  1.2898 -0.5737
  125ACOH    O2 9894   6.956   5.446   6.415 -0.0845 -0.1344  0.0625
  125ACOH    C2 9895   6.906   5.570   6.415 -0.3364  0.3293  0.7261
  125ACOH    O1 9896   6.948   5.666   6.352  0.0503 -0.3560  0.7488
  125ACOH    C1 9897   6.780   5.575   6.493 -0.5106 -0.1042  0.5963
  125ACOH    H1 9898   6.694   5.536   6.438 -1.2919  3.3637 -0.7239
  125ACOH    H2 9899   6.760   5.678   6.520  0.0957  0.0318  0.5302
  125ACOH    H3 9900   6.792   5.533   6.593  1.7106  1.2053  0.8914
  126ACOH    H4 9901   5.448   8.778   7.404  1.9075 -0.5501  1.8282
  126ACOH    O2 9902   5.418   8.687   7.389  0.2708  0.1924  0.3713
  126ACOH    C2 9903   5.408   8.670   7.260  0.1583  0.5784  0.0846
  126ACOH    O1 9904   5.379   8.757   7.182  0.2782 -0.4081 -0.5435
  126ACOH    C1 9905   5.365   8.525   7.255 -0.3741 -0.8792 -0.3755
  126ACOH    H1 9906   5.409   8.477   7.168  1.2717  1.3907 -0.8293
  126ACOH    H2 9907   5.256   8.527   7.248 -0.4437 -1.5872  0.4514
  126ACOH    H3 9908   5.405   8.471   7.340  0.7339  0.1213 -0.2446
  127ACOH    H4 9909   6.601   8.704   2.372  1.5155 -2.5501 -0.7969
  127ACOH    O2 9910   6.641   8.744   2.293  0.0281  0.4013 -0.1055
  127ACOH    C2 9911   6.703   8.644   2.231  0.4435 -0.0428  0.6314
  127ACOH    O1 9912   6.692   8.524   2.251  0.0794  0.0646  0.0688
  127ACOH    C1 9913   6.762   8.676   2.101  0.2205 -0.1268  0.4277
  127ACOH    H1 9914   6.727   8.611   2.020 -1.3587  0.6067  0.4854
  127ACOH    H2 9915   6.869   8.655   2.099  1.0268  3.6091 -2.8852
  127ACOH    H3 9916   6.741   8.780   2.073 -0.3850 -0.3926 -0.1327
  128ACOH    H4 9917   2.212   7.202   8.080  0.2668  0.3805 -1.1828
  128ACOH    O2 9918   2.290   7.144   8.072  0.3850  0.3671  0.0142
  128ACOH    C2 9919   2.385   7.233   8.049  0.7122 -0.6460 -0.4092
  128ACOH    O1 9920   2.362   7.355   8.045 -0.4145 -0.3709  0.0179
  128ACOH    C1 9921   2.518   7.182   8.072  0.2103  0.0122 -0.7237
  128ACOH    H1 9922   2.518   7.101   8.144  1.4418  1.7968  1.3482
  128ACOH    H2 9923   2.584   7.260   8.109  0.5448  0.9683 -3.2281
  128ACOH    H3 9924   2.553   7.151   7.973 -1.2553  1.2717 -1.6623
  129ACOH    H4 9925   6.040   7.073   3.597 -4.3029 -0.4168 -1.6541
  129ACOH    O2 9926   6.045   7.158   3.549  0.0481  0.3985 -0.0059
  129ACOH    C2 9927   6.167   7.202   3.576  0.3470  0.3599  0.3008
  129ACOH    O1 9928   6.238   7.169   3.668 -0.1574  0.5651 -0.1348
  129ACOH    C1 9929   6.198   7.325   3.499 -0.6896 -0.3040 -0.0500
  129ACOH    H1 9930   6.185   7.412   3.563 -0.8026 -0.3327 -0.0343
  129ACOH    H2 9931   6.143   7.338   3.406  0.1852 -0.4014 -0.5859
  129ACOH    H3 9932   6.301   7.315   3.466 -0.8639  0.4239 -0.8380
  130ACOH    H4 9933   3.448   2.300   7.856  1.8757  1.2295 -0.1198
  130ACOH    O2 9934   3.415   2.354   7.930 -0.1360  0.3142 -0.3148
  130ACOH    C2 9935   3.365   2.472   7.880  0.3882  0.0437 -0.2735
  130ACOH    O1 9936   3.392   2.515   7.767  1.0512 -0.0186  0.0549
  130ACOH    C1 9937   3.305   2.556   7.980  0.2412  0.0645 -0.2621
  130ACOH    H1 9938   3.383   2.622   8.018  0.7119  1.5328 -3.6586
  130ACOH    H2 9939   3.269   2.497   8.065  1.3505 -0.3355 -0.0679
  130ACOH    H3 9940   3.228   2.618   7.935 -0.0058  1.5712  2.1173
  131ACOH    H4 9941   5.907   1.886   0.496 -1.3248  1.1697 -2.2305
  131ACOH    O2 9942   5.865   1.960   0.544  0.3223  0.4415  0.4248
  131ACOH    C2 9943   5.794   2.019   0.446  0.2368  0.3416 -0.0140
  131ACOH    O1 9944   5.814   2.012   0.324  0.1153  0.1942  0.3030
  131ACOH    C1 9945   5.717   2.132   0.497 -0.1126 -0.2319 -0.6460
  131ACOH    H1 9946   5.710   2.117   0.604  1.9557 -0.7147 -0.5575
  131ACOH    H2 9947   5.618   2.133   0.451 -0.4477 -0.7693  0.0662
  131ACOH    H3 9948   5.779   2.220   0.477 -0.0178 -0.2911 -0.6161
  132ACOH    H4 9949   7.804   5.537   8.043  1.6692  0.5095 -2.3480
  132ACOH    O2 9950   7.739   5.610   8.033  0.4933 -0.1289  0.2959
  132ACOH    C2 9951   7.677   5.585   7.920  0.4168  0.1184 -0.1056
  132ACOH    O1 9952   7.659   5.477   7.863 -0.1529  0.3806 -0.5159
  132ACOH    C1 9953   7.600   5.703   7.881 -0.4551  0.4326  0.2487
  132ACOH    H1 9954   7.585   5.765   7.969  0.0689 -1.3231  1.6131
  132ACOH    H2 9955   7.511   5.669   7.828 -0.1664  3.4070 -2.2403
  132ACOH    H3 9956   7.667   5.756   7.814 -0.8256  0.0576 -0.4251
  133ACOH    H4 9957   9.634   2.404   6.856 -1.7809  0.4510  1.2756
  133ACOH    O2 9958   9.606   2.444   6.771 -0.3831 -0.0328  0.5668
  133ACOH    C2 9959   9.473   2.448   6.788 -0.2049  0.7045 -0.4241
  133ACOH    O1 9960   9.405   2.393   6.876  0.4711 -0.4691  0.0357
  133ACOH    C1 9961   9.407   2.518   6.672 -0.5552  0.3463 -0.0194
  133ACOH    H1 9962   9.478   2.598   6.650  0.9696 -0.6836  1.0310
  133ACOH    H2 9963   9.312   2.566   6.695 -0.5565  0.6506 -0.6670
  133ACOH    H3 9964   9.390   2.455   6.586  0.3253 -1.6085  1.2102
  134ACOH    H4 9965   3.008   3.491   6.955  0.2520 -1.0724  0.6838
  134ACOH    O2 9966   2.913   3.509   6.957  0.3736 -0.2224 -0.2334
  134ACOH    C2 9967   2.853   3.419   7.030  0.1357  0.8329 -0.3128
  134ACOH    O1 9968   2.909   3.340   7.102  0.4983  0.0668  0.1764
  134ACOH    C1 9969   2.709   3.435   7.027  0.3235  0.2524  0.0370
  134ACOH    H1 9970   2.684   3.478   6.930  1.3498 -0.6492 -0.6385
  134ACOH    H2 9971   2.675   3.502   7.106 -3.2372 -1.6881  0.2535
  134ACOH    H3 9972   2.660   3.340   7.043 -0.3786  0.6914  0.5062
  135ACOH    H4 9973   1.206   2.470   0.359  0.4946  0.2052 -0.7409
  135ACOH    O2 9974   1.179   2.382   0.329  0.6466 -0.0366 -0.1732
  135ACOH    C2 9975   1.292   2.309   0.330  0.4787 -0.2844 -0.4133
  135ACOH    O1 9976   1.385   2.327   0.411  0.2905  0.3859 -0.4657
  135ACOH    C1 9977   1.262   2.191   0.247 -0.7767  0.0991 -0.3802
  135ACOH    H1 9978   1.249   2.232   0.147  0.2924  1.9990  0.2297
  135ACOH    H2 9979   1.173   2.138   0.281  0.5423 -1.8245  0.2035
  135ACOH    H3 9980   1.343   2.118   0.244 -0.0223  0.9935 -2.5392
  136ACOH    H4 9981   8.333   4.235   1.021 -1.3393  1.4660  4.3566
  136ACOH    O2 9982   8.398   4.173   1.058  0.3814  0.0471 -0.5944
  136ACOH    C2 9983   8.469   4.113   0.958 -0.7281  0.1834  0.5478
  136ACOH    O1 9984   8.458   4.138   0.842  0.0485 -0.0305  0.3491
  136ACOH    C1 9985   8.562   4.015   1.012  0.1647  0.1589  0.2468
  136ACOH    H1 9986   8.668   4.041   1.003  0.3757 -1.4773 -2.6520
  136ACOH    H2 9987   8.549   3.920   0.959  1.7691 -0.3915  0.7850
  136ACOH    H3 9988   8.533   3.990   1.114  3.3938  1.6991  1.6269
  137ACOH    H4 9989   7.790   0.932   3.513  0.7117  1.1398 -1.9308
  137ACOH    O2 9990   7.827   0.848   3.479  0.2704  0.0563  0.1795
  137ACOH    C2 9991   7.814   0.759   3.584  0.3186  0.1212 -0.2746
  137ACOH    O1 9992   7.751   0.778   3.687  0.3507  1.0808 -0.5712
  137ACOH    C1 9993   7.867   0.626   3.562 -0.0561  1.3142  0.1660
  137ACOH    H1 9994   7.916   0.591   3.653 -1.5332 -0.1479  0.4116
  137ACOH    H2 9995   7.938   0.618   3.479  1.8971 -0.5529  1.9412
  137ACOH    H3 9996   7.787   0.556   3.540 -0.0913  1.3227  0.2682
  138ACOH    H4 9997   1.129   8.201   4.594 -0.3442 -0.3518  0.7654
  138ACOH    O2 9998   1.224   8.187   4.608 -0.1069  0.1965 -0.2073
  138ACOH    C2 9999   1.244   8.233   4.731 -0.3027 -0.1601  0.2372
  138ACOH    O110000   1.157   8.268   4.806  0.4731  0.1135 -0.3520
  138ACOH    C110001   1.390   8.247   4.742 -0.1020  0.2350  0.1341
  138ACOH    H110002   1.422   8.344   4.706  1.9865 -0.1919  0.7859
  138ACOH    H210003   1.428   8.168   4.678 -1.9467  0.8565 -1.7819
  138ACOH    H310004   1.420   8.237   4.846  1.1731  0.5790 -0.1897
  139ACOH    H410005   1.511   5.188   7.222  0.7301  0.6844 -1.7097
  139ACOH    O210006   1.568   5.109   7.220  0.0374  0.0957  0.3226
  139ACOH    C210007   1.506   5.021   7.135  0.9410 -0.2579 -0.3158
  139ACOH    O110008   1.425   5.052   7.048 -0.2896 -0.2877  0.2878
  139ACOH    C110009   1.564   4.888   7.136  0.1776  0.5178  0.1891
  139ACOH    H110010   1.569   4.848   7.237 -1.1551  2.0038  0.8772
  139ACOH    H210011   1.667   4.896   7.103  0.7024  1.1824  1.9535
  139ACOH    H310012   1.505   4.832   7.063  1.7929  0.7804 -1.3273
  140ACOH    H410013   0.790   5.383   7.583 -3.0151  1.8379 -0.6325
  140ACOH    O210014   0.775   5.317   7.513  0.1835  0.3067  0.0377
  140ACOH    C210015   0.692   5.374   7.423 -0.5060 -0.4017  0.1973
  140ACOH    O110016   0.648   5.487   7.427  0.0282  0.5730 -0.1089
  140ACOH    C110017   0.675   5.278   7.309 -0.1653  0.1506 -0.4269
  140ACOH    H110018   0.613   5.338   7.242 -0.7362 -1.1690 -1.0887
  140ACOH    H210019   0.612   5.194   7.338  0.2270 -0.0232 -0.0780
  140ACOH    H310020   0.772   5.259   7.265 -0.3366 -1.6723 -0.0375
  141ACOH    H410021   4.455   3.993   4.272  1.3385 -0.2415  0.7717
  141ACOH    O210022   4.413   4.012   4.358 -0.2530  0.1402 -0.0819
  141ACOH    C210023   4.513   4.009   4.453  0.8664  0.0419 -0.2487
  141ACOH    O110024   4.631   4.010   4.440  0.1300 -0.1294 -0.1050
  141ACOH    C110025   4.461   3.995   4.587  0.3434 -0.1236  0.0752
  141ACOH    H110026   4.467   3.888   4.610  1.6848 -0.6527 -2.6201
  141ACOH    H210027   4.353   4.013   4.595  0.3761 -0.4462  1.4117
  141ACOH    H310028   4.516   4.050   4.664 -1.6952 -3.4155  4.1169
  142ACOH    H410029   7.045   6.261   0.870  2.6677  0.7143 -4.9308
  142ACOH    O210030   6.974   6.319   0.837 -0.1935  0.2047 -0.1152
  142ACOH    C210031   6.894   6.345   0.936  0.1027 -0.0791 -0.1881
  142ACOH    O110032   6.911   6.307   1.051  0.6394 -0.3835 -0.1850
  142ACOH    C110033   6.770   6.418   0.911 -0.4148 -0.2600  0.2335
  142ACOH    H110034   6.685   6.350   0.917 -0.9221 -0.0373 -3.4011
  142ACOH    H210035   6.777   6.449   0.807 -0.8586 -0.4117  0.1603
  142ACOH    H310036   6.748   6.495   0.984 -1.4233  0.4958 -0.8637
  143ACOH    H410037   7.722   3.607   4.524  1.0898  1.7514 -2.2932
  143ACOH    O210038   7.643   3.663   4.536  0.0161 -0.2565  0.5096
  143ACOH    C210039   7.666   3.743   4.643 -0.1508 -0.2719  0.2511
  143ACOH    O110040   7.776   3.760   4.688  0.1332  0.4121  0.3212
  143ACOH    C110041   7.542   3.823   4.680  0.1734 -0.1332 -0.3161
  143ACOH    H110042   7.501   3.874   4.593  0.1419  1.9521  0.8759
  143ACOH    H210043   7.562   3.890   4.764 -2.1378  1.3031 -0.8607
  143ACOH    H310044   7.468   3.755   4.721  0.4117  0.7314  1.6003
  144ACOH    H410045   3.586   7.868   7.519 -2.0083 -1.0753  0.2736
  144ACOH    O210046   3.587   7.859   7.615  0.0633 -0.5389  0.3295
  144ACOH    C210047   3.479   7.784   7.656 -0.3326  0.6584 -0.3871
  144ACOH    O110048   3.449   7.768   7.776  0.2091  0.6903  0.1389
  144ACOH    C110049   3.416   7.711   7.541 -0.2361 -0.4992  0.1923
  144ACOH    H110050   3.363   7.789   7.486  3.0040  0.4303 -1.7363
  144ACOH    H210051   3.350   7.632   7.576 -1.3813  0.2869 -0.1244
  144ACOH    H310052   3.493   7.666   7.478 -1.9775 -1.5307 -1.2674
  145ACOH    H410053   6.998   2.535   5.848 -0.4621  0.2971 -0.4981
  145ACOH    O210054   7.042   2.620   5.867  0.1308 -0.2147  0.4852
  145ACOH    C210055   7.068   2.622   5.997  0.1232  0.5583  0.7489
  145ACOH    O110056   7.058   2.539   6.082  0.4775  0.1931 -0.4651
  145ACOH    C110057   7.147   2.745   6.024 -0.6745 -0.3100 -0.2591
  145ACOH    H110058   7.069   2.817   6.052 -0.0637 -0.5442  2.1581
  145ACOH    H210059   7.190   2.772   5.927  0.6985 -2.1713 -0.1854
  145ACOH    H310060   7.221   2.725   6.101 -1.5285 -0.7994  0.4416
  146ACOH    H410061   7.238   9.425   4.371  0.4246 -0.5969  0.1189
  146ACOH    O210062   7.302   9.430   4.444 -0.3074 -0.1356  0.7341
  146ACOH    C210063   7.295   9.553   4.514  0.7263  0.3953  0.7170
  146ACOH    O110064   7.217   9.644   4.495  0.0073 -0.2587 -0.1145
  146ACOH    C110065   7.387   9.552   4.629  0.5832 -0.3388 -0.5685
  146ACOH    H110066   7.426   9.653   4.647  0.3704 -0.6196  1.5900
  146ACOH    H210067   7.471   9.486   4.606  0.2259 -0.4886 -1.4862
  146ACOH    H310068   7.327   9.507   4.708  1.8742 -0.3172  0.4389
  147ACOH    H410069   0.648   5.293   0.170  1.2740  0.1407 -0.0437
  147ACOH    O210070   0.706   5.226   0.210  0.2198 -0.6084  0.2511
  147ACOH    C210071   0.811   5.210   0.134 -0.5171  1.0045  0.4228
  147ACOH    O110072   0.836   5.272   0.032  0.1894 -0.9969 -0.4273
  147ACOH    C110073   0.896   5.095   0.172 -0.3044  0.0302 -0.5460
  147ACOH    H110074   0.983   5.120   0.233  1.1732 -1.9923 -1.7830
  147ACOH    H210075   0.944   5.044   0.089 -0.6774  0.7190 -1.1823
  147ACOH    H310076   0.834   5.020   0.222 -1.0238  1.0015  0.0295
  148ACOH    H410077   4.701   4.697   5.780  0.6089 -0.2680 -1.1028
  148ACOH    O210078   4.767   4.690   5.851 -0.5556 -0.2146 -0.0152
  148ACOH    C210079   4.795   4.564   5.885 -0.0097 -0.5325  0.3015
  148ACOH    O110080   4.743   4.469   5.831 -0.3589 -0.2322 -0.0449
  148ACOH    C110081   4.874   4.558   6.011  0.4859  0.0682 -0.1476
  148ACOH    H110082   4.859   4.456   6.044  1.2099  0.9892  3.1350
  148ACOH    H210083   4.841   4.631   6.085 -2.2028 -1.6412  0.4211
  148ACOH    H310084   4.980   4.572   5.990  0.2861 -1.8641 -2.6419
  149ACOH    H410085   3.944   5.839   3.912 -1.1277 -0.2987 -1.6410
  149ACOH    O210086   3.885   5.914   3.892 -0.6412  0.5961  0.1573
  149ACOH    C210087   3.954   5.984   3.792  0.0135 -0.2847 -0.2633
  149ACOH    O110088   4.074   5.973   3.762  0.6347 -0.4924 -0.4197
  149ACOH    C110089   3.865   6.105   3.767  0.4546  0.0630 -0.3003
  149ACOH    H110090   3.814   6.138   3.857  0.2311  2.4935 -1.2949
  149ACOH    H210091   3.792   6.070   3.694  0.9981 -1.9304  0.0850
  149ACOH    H310092   3.927   6.187   3.732 -0.1122  0.4370 -0.4313
  150ACOH    H410093   1.673   4.319   5.933 -0.3246 -1.5912 -0.6214
  150ACOH    O210094   1.633   4.347   5.849 -0.0948 -0.1852 -0.2755
  150ACOH    C210095   1.659   4.481   5.843 -0.4627  0.0841 -0.1916
  150ACOH    O110096   1.752   4.540   5.898 -0.2439  0.3324 -0.0302
  150ACOH    C110097   1.594   4.540   5.722  0.6271 -0.2418 -0.5097
  150ACOH    H110098   1.505   4.486   5.689  0.0524  0.7992 -0.6932
  150ACOH    H210099   1.670   4.544   5.644  0.2847  0.7219 -0.8018
  150ACOH    H310100   1.562   4.643   5.737 -1.6765 -0.9873 -0.0986
  151ACOH    H410101   5.180   3.963   5.893  0.5934 -0.6898 -0.3906
  151ACOH    O210102   5.172   4.005   5.805  0.1221  0.4991  0.2147
  151ACOH    C210103   5.071   3.946   5.748 -0.1277 -0.1386  0.1714
  151ACOH    O110104   4.993   3.870   5.800  0.4023  0.0835  0.2959
  151ACOH    C110105   5.046   3.992   5.608  0.0141 -0.9475 -0.3254
  151ACOH    H110106   4.948   4.040   5.613 -0.0271 -0.9648 -0.9045
  151ACOH    H210107   5.053   3.901   5.549 -1.0400  0.5113 -2.7834
  151ACOH    H310108   5.128   4.061   5.586 -0.6094 -0.2899 -0.6030
  152ACOH    H410109   6.419   3.529   2.253 -1.1582  3.6829  0.5860
  152ACOH    O210110   6.335   3.483   2.267  0.1843  0.8471 -0.1855
  152ACOH    C210111   6.253   3.541   2.174 -0.1442 -0.5934  0.3920
  152ACOH    O110112   6.287   3.626   2.094 -0.7460 -0.0753  0.7841
  152ACOH    C110113   6.118   3.481   2.189 -0.0950  0.4690 -0.4279
  152ACOH    H110114   6.058   3.535   2.116 -0.7754  1.9912  1.2143
  152ACOH    H210115   6.071   3.503   2.285 -2.6129  0.9500 -1.7290
  152ACOH    H310116   6.118   3.375   2.163 -1.7128  0.2980  0.2064
  153ACOH    H410117   6.157   6.679   4.692 -1.7615 -0.3257 -1.4040
  153ACOH    O210118   6.178   6.584   4.684 -0.7423 -0.1722 -0.7192
  153ACOH    C210119   6.299   6.581   4.618  0.0629 -0.7022 -0.4146
  153ACOH    O110120   6.320   6.662   4.533  0.2254  0.3011  0.1601
  153ACOH    C110121   6.370   6.457   4.634  0.4640  0.2584  0.1351
  153ACOH    H110122   6.434   6.462   4.722  1.9504 -0.5853 -0.8838
  153ACOH    H210123   6.441   6.431   4.557  0.5514 -0.1974  0.3651
  153ACOH    H310124   6.291   6.381   4.628  0.6104  0.1201 -0.0356
  154ACOH    H410125   5.591   4.682   2.256  0.7872 -2.9588 -1.4802
  154ACOH    O210126   5.662   4.678   2.322  0.3146 -0.1294 -0.7594
  154ACOH    C210127   5.785   4.698   2.266 -0.1226  0.5038 -0.4969
  154ACOH    O110128   5.808   4.673   2.150  0.0478 -0.5721  0.4256
  154ACOH    C110129   5.889   4.719   2.366  0.2311  0.4008  0.1820
  154ACOH    H110130   5.845   4.768   2.452  1.0230  1.8798 -0.2312
  154ACOH    H210131   5.967   4.782   2.323  1.1196  0.0918  1.3354
  154ACOH    H310132   5.938   4.625   2.390  0.9758  0.7412  0.0137
  155ACOH    H410133   1.915   0.986   7.018  1.9129 -0.0253  3.5676
  155ACOH    O210134   1.954   0.902   6.990 -0.1116  0.1299 -0.1371
  155ACOH    C210135   2.023   0.925   6.879 -0.2945 -0.6274  0.1876
  155ACOH    O110136   2.062   1.032   6.844  0.4116  0.1001  0.1821
  155ACOH    C110137   2.057   0.798   6.806  0.2348 -0.1664  0.6649
  155ACOH    H110138   2.137   0.749   6.862 -0.1672  0.1822  1.5528
  155ACOH    H210139   2.092   0.825   6.707  0.3014  2.1285  1.2803
  155ACOH    H310140   1.966   0.740   6.795  0.9400 -1.4360  1.4176
  156ACOH    H410141   6.207   2.620   1.664  0.6359  0.7652 -1.0305
  156ACOH    O210142   6.131   2.677   1.641 -0.0033  0.3185 -0.0529
  156ACOH    C210143   6.174   2.808   1.669  0.2351 -0.8325  0.7118
  156ACOH    O110144   6.286   2.858   1.669  0.4426  0.1381  0.3805
  156ACOH    C110145   6.065   2.905   1.655 -0.1335  0.1272  0.0687
  156ACOH    H110146   6.072   2.986   1.728  0.5009 -0.5566  0.7728
  156ACOH    H210147   5.970   2.856   1.675  0.0736  0.7179  2.7062
  156ACOH    H310148   6.071   2.950   1.556  1.6471  0.7407  0.4436
  157ACOH    H410149   4.778   3.038   2.165 -1.5602 -0.0133 -1.5587
  157ACOH    O210150   4.834   3.118   2.166 -0.4803 -0.7524  0.5391
  157ACOH    C210151   4.753   3.218   2.112 -0.7802  0.5109 -0.1431
  157ACOH    O110152   4.636   3.218   2.070 -0.5209 -0.0184  0.0311
  157ACOH    C110153   4.823   3.345   2.080 -0.5227 -0.4340 -0.2271
  157ACOH    H110154   4.759   3.432   2.068 -1.2685 -0.9850 -0.2389
  157ACOH    H210155   4.882   3.331   1.989  1.1993 -0.5556  0.8803
  157ACOH    H310156   4.892   3.365   2.162 -0.7570  2.6836 -0.7019
  158ACOH    H410157   4.219   9.324   2.323 -0.8175  1.4326  2.8419
  158ACOH    O210158   4.147   9.365   2.272  0.3375 -0.3867 -0.4089
  158ACOH    C210159   4.196   9.461   2.188 -0.2361  0.4682  0.2672
  158ACOH    O110160   4.311   9.495   2.179 -0.2976 -0.1279 -0.3888
  158ACOH    C110161   4.087   9.556   2.132 -0.5043  0.1067 -0.0736
  158ACOH    H110162   4.085   9.571   2.024 -2.4821 -1.5831 -0.3019
  158ACOH    H210163   4.087   9.647   2.191  1.3922 -0.3485  0.6841
  158ACOH    H310164   3.992   9.504   2.143 -0.3944 -0.9162 -3.3685
  159ACOH    H410165   1.674   6.736   2.825  0.5525  0.2679 -0.1268
  159ACOH    O210166   1.678   6.815   2.882 -0.4665  0.1072  0.1833
  159ACOH    C210167   1.720   6.788   3.006  0.1583 -0.0052  0.7124
  159ACOH    O110168   1.777   6.685   3.040 -0.0759  0.5908 -0.0741
  159ACOH    C110169   1.715   6.910   3.087 -0.1749 -0.7516  0.1424
  159ACOH    H110170   1.653   6.879   3.171  1.6517  0.5928  2.0558
  159ACOH    H210171   1.667   6.995   3.037  1.1171 -0.8951 -1.3558
  159ACOH    H310172   1.813   6.943   3.121  0.2800 -0.1085 -1.7610
  160ACOH    H410173   8.292   4.641   6.822 -1.4217 -2.0598 -1.6947
  160ACOH    O210174   8.217   4.668   6.879  0.5780 -0.0196  0.0619
  160ACOH    C210175   8.093   4.640   6.821  0.3035 -0.1190 -0.6042
  160ACOH    O110176   8.068   4.570   6.727 -0.4881 -0.1813 -0.0158
  160ACOH    C110177   7.981   4.700   6.902 -0.4236 -0.7782 -0.2274
  160ACOH    H110178   7.934   4.773   6.835  1.7029  0.0327 -0.8658
  160ACOH    H210179   8.013   4.757   6.989 -0.7238 -0.8411 -0.0737
  160ACOH    H310180   7.909   4.625   6.933  0.3441 -1.8208 -0.9366
  161ACOH    H410181   5.496   2.833   5.045  1.2376  0.9940  0.5091
  161ACOH    O210182   5.513   2.868   4.957 -0.2828  0.0128 -0.1914
  161ACOH    C210183   5.559   2.766   4.886 -0.1124  0.7142 -0.0017
  161ACOH    O110184   5.605   2.664   4.932 -0.7144  0.5753  0.2049
  161ACOH    C110185   5.568   2.796   4.743 -0.6994 -0.1960 -0.4297
  161ACOH    H110186   5.495   2.874   4.722 -0.6268  0.0419  0.1847
  161ACOH    H210187   5.551   2.712   4.676  0.9306 -0.8855 -0.0089
  161ACOH    H310188   5.673   2.821   4.726 -0.4539 -1.1356 -0.3325
  162ACOH    H410189   5.295   2.881   6.381  0.5980 -1.5123 -1.9517
  162ACOH    O210190   5.326   2.802   6.428  0.0204 -0.3626  0.4199
  162ACOH    C210191   5.293   2.694   6.350  0.3817  0.3139  0.5447
  162ACOH    O110192   5.263   2.684   6.232 -0.4150  0.7439  0.8888
  162ACOH    C110193   5.342   2.567   6.411 -0.0966 -0.6779  0.4753
  162ACOH    H110194   5.268   2.519   6.475 -1.8392 -0.0566 -1.0284
  162ACOH    H210195   5.430   2.587   6.472 -1.0965 -1.2693  2.1254
  162ACOH    H310196   5.373   2.486   6.344  1.7366  1.0542 -0.8321
  163ACOH    H410197   3.571   5.353   5.248 -0.7832 -0.1440 -0.5870
  163ACOH    O210198   3.576   5.450   5.246 -0.6915 -0.1265  0.4242
  163ACOH    C210199   3.474   5.512   5.186  0.4294 -0.0147 -0.0575
  163ACOH    O110200   3.401   5.465   5.102  0.3318 -0.8956  0.3368
  163ACOH    C110201   3.481   5.658   5.197 -0.4519 -0.6327  0.2935
  163ACOH    H110202   3.568   5.697   5.145 -0.1084 -0.5815  0.9046
  163ACOH    H210203   3.498   5.685   5.302  0.3290 -0.7078  0.1834
  163ACOH    H310204   3.391   5.712   5.167 -1.2050 -1.9802  0.0838
  164ACOH    H410205   2.090   8.796   4.532 -2.4886  0.9990 -2.1051
  164ACOH    O210206   2.169   8.833   4.489 -0.5466 -0.2406  0.2526
  164ACOH    C210207   2.260   8.738   4.513 -0.5108 -0.3033  0.2032
  164ACOH    O110208   2.252   8.669   4.616 -0.6353 -0.3438  0.0429
  164ACOH    C110209   2.392   8.753   4.433  0.3247  0.1597  0.2482
  164ACOH    H110210   2.386   8.684   4.349  0.3186 -1.2815  1.4182
  164ACOH    H210211   2.479   8.734   4.496  0.7643  2.8605  0.5123
  164ACOH    H310212   2.410   8.851   4.389 -0.3926  0.0323 -0.3365
  165ACOH    H410213   7.158   0.567   0.041 -0.2820 -0.2471  0.0649
  165ACOH    O210214   7.159   0.490  -0.018  0.4064  0.0019 -0.2608
  165ACOH    C210215   7.276   0.427  -0.007 -0.9210  0.7950 -0.4002
  165ACOH    O110216   7.357   0.450   0.080  0.3187 -0.0155 -0.6206
  165ACOH    C110217   7.287   0.306  -0.092  0.4474  0.5604  0.2232
  165ACOH    H110218   7.389   0.269  -0.096  0.4139  0.1557  2.3549
  165ACOH    H210219   7.259   0.331  -0.194  1.2509  1.5421  0.2346
  165ACOH    H310220   7.212   0.235  -0.056 -0.4610  2.6611  2.6405
  166ACOH    H410221   5.088   3.338   6.328 -1.4251 -1.3403  0.5794
  166ACOH    O210222   5.074   3.386   6.411 -0.2060 -0.1390  0.0986
  166ACOH    C210223   5.175   3.365   6.498  0.0367 -0.0620 -0.5240
  166ACOH    O110224   5.272   3.296   6.473  0.0887 -0.0996 -0.0144
  166ACOH    C110225   5.173   3.453   6.615  0.1215  0.2571  0.1638
  166ACOH    H110226   5.174   3.556   6.581 -4.1379  0.1503 -0.6774
  166ACOH    H210227   5.256   3.439   6.683  0.5518  1.0208 -0.1991
  166ACOH    H310228   5.085   3.435   6.677  0.5645  1.1661  1.0607
  167ACOH    H410229   6.811   0.435   0.200 -0.3692 -0.1303 -1.2682
  167ACOH    O210230   6.901   0.404   0.182 -0.3094 -0.6976 -0.0610
  167ACOH    C210231   6.934   0.303   0.260 -0.1497 -0.5363 -0.0721
  167ACOH    O110232   6.859   0.242   0.335  0.1152 -0.0217 -0.3110
  167ACOH    C110233   7.067   0.254   0.214 -0.1429 -0.6069 -0.2777
  167ACOH    H110234   7.157   0.311   0.238 -0.1373  0.1071 -1.9041
  167ACOH    H210235   7.064   0.249   0.105 -2.9585  1.7974 -0.3491
  167ACOH    H310236   7.066   0.153   0.254 -2.0183 -1.0178 -1.3238
  168ACOH    H410237   2.261   7.256   3.661  1.4773  1.3180 -0.0367
  168ACOH    O210238   2.307   7.184   3.708 -0.0584  0.0327 -0.4608
  168ACOH    C210239   2.203   7.093   3.726  0.4149 -0.7139  0.3790
  168ACOH    O110240   2.089   7.120   3.746 -0.1428 -0.5302 -0.4770
  168ACOH    C110241   2.246   6.955   3.757 -0.8036 -0.2594 -0.3504
  168ACOH    H110242   2.187   6.887   3.696 -1.5529  0.6419 -0.6463
  168ACOH    H210243   2.225   6.921   3.859  0.6698  0.5574  0.2310
  168ACOH    H310244   2.352   6.942   3.739 -0.2485  2.1841  0.9841
  169ACOH    H410245   6.170   4.606   8.110  0.0220  4.2666  3.2963
  169ACOH    O210246   6.267   4.610   8.105  0.1639 -0.2285 -0.6470
  169ACOH    C210247   6.316   4.552   8.217 -0.0185  0.1865  0.4281
  169ACOH    O110248   6.264   4.548   8.326 -0.2640 -0.3994  0.3953
  169ACOH    C110249   6.461   4.534   8.189  0.0067  0.7680 -0.2513
  169ACOH    H110250   6.523   4.507   8.274 -1.1500 -1.7854 -0.1859
  169ACOH    H210251   6.495   4.636   8.168  1.4638  1.3401  4.4125
  169ACOH    H310252   6.488   4.477   8.100 -0.5646  0.3002 -0.1254
  170ACOH    H410253   6.513   9.392   6.996  1.3292  0.6849 -1.3330
  170ACOH    O210254   6.447   9.458   6.966 -0.1419  0.0863  0.5081
  170ACOH    C210255   6.516   9.556   6.908  0.0083  0.0538  0.4051
  170ACOH    O110256   6.634   9.556   6.893  0.3150 -0.4682 -0.1282
  170ACOH    C110257   6.430   9.644   6.829 -0.2977 -0.3607 -0.1767
  170ACOH    H110258   6.483   9.715   6.766  0.3282  0.5798  1.3612
  170ACOH    H210259   6.366   9.709   6.889  1.4815  0.6392  0.6604
  170ACOH    H310260   6.358   9.583   6.774 -1.1940  1.0579 -0.5898
  171ACOH    H410261   5.208   0.200   0.476 -0.6190  2.6837 -0.0800
  171ACOH    O210262   5.287   0.214   0.421  0.3715  0.1186  0.6302
  171ACOH    C210263   5.361   0.099   0.426  0.0246 -0.9516  0.2741
  171ACOH    O110264   5.315  -0.013   0.420 -1.0956  0.0302  0.0805
  171ACOH    C110265   5.505   0.127   0.395  0.5052 -0.2379  0.5682
  171ACOH    H110266   5.511   0.216   0.332  0.2978 -0.7034 -0.1185
  171ACOH    H210267   5.551   0.037   0.353  0.5173  0.1450 -0.2494
  171ACOH    H310268   5.563   0.146   0.486 -0.4677  4.1524  0.3658
  172ACOH    H410269   3.412   6.405   6.111  0.2434 -0.5178  0.8412
  172ACOH    O210270   3.325   6.385   6.072  0.3558  0.0940  0.2712
  172ACOH    C210271   3.330   6.462   5.958  0.2576  0.5620  0.1807
  172ACOH    O110272   3.401   6.559   5.935 -1.0148 -0.2903  0.0976
  172ACOH    C110273   3.205   6.443   5.880 -0.1884  0.0357 -0.3763
  172ACOH    H110274   3.136   6.525   5.902  0.2036 -0.1002  1.4812
  172ACOH    H210275   3.151   6.354   5.911  1.7373 -0.5440  1.4529
  172ACOH    H310276   3.228   6.440   5.774  3.0642 -0.4037  0.2803
  173ACOH    H410277   9.033   0.683   3.699  1.0697 -0.6122 -0.2743
  173ACOH    O210278   8.975   0.676   3.622  0.0567 -0.5531  0.4771
  173ACOH    C210279   8.867   0.757   3.640 -0.2853 -0.4556 -0.3364
  173ACOH    O110280   8.852   0.815   3.747  0.2175 -0.2701 -0.1819
  173ACOH    C110281   8.771   0.768   3.531  0.0263 -0.1576 -0.2548
  173ACOH    H110282   8.814   0.755   3.432  0.7229 -0.4610  0.0836
  173ACOH    H210283   8.720   0.865   3.530 -1.3472 -0.8600  0.0079
  173ACOH    H310284   8.696   0.690   3.543  0.6000 -0.4584  1.4376
  174ACOH    H410285   4.810   7.808   6.650 -0.5210  0.7103  0.4488
  174ACOH    O210286   4.894   7.762   6.667 -0.3965  0.6637 -0.2764
  174ACOH    C210287   4.952   7.810   6.776  0.2641  0.6206 -0.5392
  174ACOH    O110288   4.899   7.888   6.855  0.8347 -0.3309 -0.4944
  174ACOH    C110289   5.083   7.741   6.791 -0.2395 -0.4359 -0.3078
  174ACOH    H110290   5.068   7.635   6.814 -1.3042 -0.2017  0.0986
  174ACOH    H210291   5.142   7.791   6.868  0.9996 -2.7304  0.2873
  174ACOH    H310292   5.148   7.736   6.704 -0.0120  1.2212 -0.2492
  175ACOH    H410293   7.343   9.938   0.458  1.1801  1.3308 -0.7762
  175ACOH    O210294   7.428   9.896   0.478  0.1970 -0.3812 -0.0074
  175ACOH    C210295   7.514   9.972   0.417  0.1366 -0.0200 -0.7658
  175ACOH    O110296   7.497  10.079   0.365  0.1518 -0.1988 -0.0462
  175ACOH    C110297   7.654   9.923   0.453 -0.2577  0.6663 -0.1161
  175ACOH    H110298   7.691   9.976   0.541  0.4797  1.6366 -1.0071
  175ACOH    H210299   7.724   9.940   0.371  0.2929  0.2584  0.2674
  175ACOH    H310300   7.650   9.815   0.468  0.0194  0.5903 -0.5914
  176ACOH    H410301   4.442   1.962   1.712  0.7689 -0.0946  0.2733
  176ACOH    O210302   4.499   1.905   1.766  0.5191 -0.5143  0.0907
  176ACOH    C210303   4.625   1.935   1.732 -0.3599 -0.1313  0.3389
  176ACOH    O110304   4.662   2.024   1.656  0.3179 -0.4475  0.1550
  176ACOH    C110305   4.725   1.845   1.797 -0.0478 -0.4785  0.1184
  176ACOH    H110306   4.774   1.774   1.730 -0.6910 -2.3213  1.5556
  176ACOH    H210307   4.675   1.798   1.882  1.3230  1.6458  2.1656
  176ACOH    H310308   4.801   1.909   1.841  2.3187 -0.4826 -3.7431
  177ACOH    H410309   8.381   7.514   0.851 -0.6773  1.8184  1.3379
  177ACOH    O210310   8.366   7.595   0.800 -0.3795  0.3442 -1.1683
  177ACOH    C210311   8.260   7.575   0.713 -0.0550 -0.0016 -0.1479
  177ACOH    O110312   8.218   7.466   0.678 -0.2957 -0.0832  0.5382
  177ACOH    C110313   8.220   7.699   0.646  0.4400  0.5214 -0.2749
  177ACOH    H110314   8.264   7.793   0.679  0.2005  1.4544 -2.5404
  177ACOH    H210315   8.113   7.706   0.668  0.6431 -2.3540  2.0257
  177ACOH    H310316   8.230   7.679   0.539  2.9827 -0.5019  0.1164
  178ACOH    H410317   5.981   3.820   2.314 -0.0657 -0.1890 -0.7028
  178ACOH    O210318   5.914   3.793   2.379  0.2615  0.0566 -0.2594
  178ACOH    C210319   5.828   3.710   2.318  0.4166 -0.1164  0.4675
  178ACOH    O110320   5.842   3.666   2.204  0.5208  0.0562 -0.7595
  178ACOH    C110321   5.728   3.651   2.409  0.1880 -0.0456 -0.0643
  178ACOH    H110322   5.652   3.606   2.346  0.0779 -1.5772  1.1355
  178ACOH    H210323   5.687   3.736   2.464 -1.1488 -0.8136  0.1511
  178ACOH    H310324   5.766   3.571   2.473 -0.9988 -0.0753  0.6178
  179ACOH    H410325   0.011   9.900   5.409  2.0222  0.3800 -1.9739
  179ACOH    O210326   0.038   9.811   5.436 -0.0628  0.1902 -0.3255
  179ACOH    C210327   0.055   9.810   5.569  0.6161 -0.3286  0.2850
  179ACOH    O110328   0.069   9.911   5.638  0.9809  0.6151  0.0129
  179ACOH    C110329   0.055   9.668   5.613 -0.2489 -0.5483  0.0328
  179ACOH    H110330  -0.005   9.604   5.548 -0.8583  0.1717 -0.1181
  179ACOH    H210331   0.020   9.653   5.715 -1.2714 -2.4978 -0.5780
  179ACOH    H310332   0.160   9.644   5.603  0.1637  1.2503 -0.1338
  180ACOH    H410333   5.353   4.464   5.590  0.7455 -0.4723 -0.7439
  180ACOH    O210334   5.402   4.385   5.616  0.4533 -0.3669  0.1314
  180ACOH    C210335   5.346   4.279   5.566  0.5276  0.3593 -0.0459
  180ACOH    O110336   5.272   4.274   5.468  0.2915  0.2894 -0.5498
  180ACOH    C110337   5.405   4.154   5.618  1.1301  0.8780 -0.8672
  180ACOH    H110338   5.374   4.133   5.721  1.2758  0.7647 -0.8462
  180ACOH    H210339   5.513   4.161   5.605  1.2971  0.3653  0.1643
  180ACOH    H310340   5.373   4.069   5.558  0.7477  0.1142  0.3974
  181ACOH    H410341   5.340   1.915   6.090 -0.2129  0.0155 -1.6509
  181ACOH    O210342   5.347   2.012   6.090  0.5390 -0.0263  0.1319
  181ACOH    C210343   5.272   2.057   6.200  0.3660  0.2179 -0.1784
  181ACOH    O110344   5.184   1.996   6.263  0.4072  0.4581  0.3876
  181ACOH    C110345   5.268   2.210   6.194 -0.1696  0.4291  0.2819
  181ACOH    H110346   5.344   2.253   6.130  0.3980  0.9461  1.2886
  181ACOH    H210347   5.272   2.237   6.300 -0.7213 -0.0563  0.4316
  181ACOH    H310348   5.175   2.243   6.148  0.3663  0.8844 -0.4805
  182ACOH    H410349   5.284   4.117   7.182  2.2331 -0.7123  1.3785
  182ACOH    O210350   5.308   4.023   7.167  0.9682 -0.7391 -0.7098
  182ACOH    C210351   5.436   3.999   7.218  0.8241 -0.6028  1.6815
  182ACOH    O110352   5.520   4.082   7.242  0.1222  0.0284  0.5829
  182ACOH    C110353   5.449   3.848   7.201  0.2030 -0.1505 -0.3576
  182ACOH    H110354   5.531   3.815   7.266  0.2217  1.2842  0.3684
  182ACOH    H210355   5.473   3.828   7.097 -1.0053 -1.2352 -0.4369
  182ACOH    H310356   5.354   3.805   7.233 -1.0010  0.4542 -3.0353
  183ACOH    H410357   3.014   2.465   4.229  1.0209  2.6022  0.8973
  183ACOH    O210358   3.063   2.479   4.146 -0.0033 -0.6411 -0.3420
  183ACOH    C210359   3.056   2.611   4.119  0.2677  0.5082 -0.9315
  183ACOH    O110360   3.033   2.695   4.207  0.3374  0.4809  0.0649
  183ACOH    C110361   3.133   2.644   3.997  0.5053  0.3054 -0.0823
  183ACOH    H110362   3.091   2.597   3.908 -1.2526  2.3275 -0.3420
  183ACOH    H210363   3.237   2.610   4.002  0.4695  0.4856  2.2252
  183ACOH    H310364   3.132   2.751   3.977  0.0401  0.4700  0.8098
  184ACOH    H410365   7.086   6.699   7.119 -0.9719  2.0800 -1.1012
  184ACOH    O210366   7.128   6.751   7.189  0.0824  0.0527 -0.1869
  184ACOH    C210367   7.138   6.674   7.296  0.0454 -0.4398 -0.0422
  184ACOH    O110368   7.137   6.552   7.303 -0.0235 -0.5496 -0.0177
  184ACOH    C110369   7.162   6.760   7.414 -0.0352  0.3439 -0.2441
  184ACOH    H110370   7.083   6.835   7.424 -0.9515 -0.7130  0.7189
  184ACOH    H210371   7.259   6.808   7.407  0.9831 -1.9999 -2.8832
  184ACOH    H310372   7.147   6.704   7.507  1.2929  1.6630  0.7676
  185ACOH    H410373   0.853   9.248   1.430 -0.7293  0.2937  0.9745
  185ACOH    O210374   0.842   9.302   1.350 -0.3347 -0.4814  0.3897
  185ACOH    C210375   0.910   9.248   1.246  0.3930 -0.0566 -0.3286
  185ACOH    O110376   0.945   9.133   1.251 -0.4923  0.3492  0.3105
  185ACOH    C110377   0.922   9.344   1.137 -0.1684 -0.0705 -0.0246
  185ACOH    H110378   0.942   9.296   1.041 -0.4285 -0.9964  0.3774
  185ACOH    H210379   1.003   9.406   1.173 -2.6911  2.4812  1.5059
  185ACOH    H310380   0.836   9.409   1.120 -0.4635 -0.2924  0.5932
  186ACOH    H410381   6.258   7.364   6.004  0.9905 -0.6575 -0.8011
  186ACOH    O210382   6.216   7.303   5.941  0.2773 -0.5137 -0.4659
  186ACOH    C210383   6.260   7.184   5.988 -0.8455 -0.9415 -0.2625
  186ACOH    O110384   6.364   7.165   6.048 -0.5361 -0.1580  1.1276
  186ACOH    C110385   6.184   7.068   5.947  0.0361 -0.1557 -0.1506
  186ACOH    H110386   6.207   7.049   5.842 -0.3835  0.4266 -0.3496
  186ACOH    H210387   6.076   7.081   5.959 -0.2786 -0.1519 -2.6774
  186ACOH    H310388   6.219   6.984   6.007  1.1367  0.0372 -0.5056
  187ACOH    H410389   3.880   0.282   3.739  1.2579  1.7055  1.7940
  187ACOH    O210390   3.944   0.210   3.729 -0.5466  0.3144 -0.0310
  187ACOH    C210391   3.898   0.118   3.816 -0.7102 -0.2872 -0.6018
  187ACOH    O110392   3.780   0.094   3.825 -0.4418 -0.9026 -0.0611
  187ACOH    C110393   4.005   0.030   3.860 -0.0197 -0.7080 -0.5796
  187ACOH    H110394   3.953  -0.062   3.888 -1.5716  0.0122 -0.9990
  187ACOH    H210395   4.063   0.068   3.944 -0.1472 -1.3396 -0.2001
  187ACOH    H310396   4.078   0.012   3.782  1.8673 -1.3162  1.2740
  188ACOH    H410397   7.997   3.226   5.641  0.1307  2.3095  2.2844
  188ACOH    O210398   8.075   3.172   5.661 -1.0471 -0.0540  0.6618
  188ACOH    C210399   8.063   3.112   5.780 -0.3584  0.4427  0.1974
  188ACOH    O110400   8.000   3.162   5.874 -0.2380 -0.2599  0.0589
  188ACOH    C110401   8.122   2.979   5.787 -0.0157  0.5308  0.0996
  188ACOH    H110402   8.171   2.953   5.693  0.6630 -0.0655  0.6127
  188ACOH    H210403   8.051   2.902   5.819  1.8544 -0.4127  2.0949
  188ACOH    H310404   8.198   2.981   5.865  0.7292  1.7815 -0.6490
  189ACOH    H410405   6.218   1.816   1.100  2.4865  1.3031 -1.5999
  189ACOH    O210406   6.182   1.900   1.133 -0.5154 -0.4199 -0.2982
  189ACOH    C210407   6.088   1.936   1.043 -0.4902  0.0363 -0.7505
  189ACOH    O110408   6.047   1.871   0.947  0.6576 -0.2099  0.8716
  189ACOH    C110409   6.014   2.053   1.097  0.0429 -0.4304  0.6091
  189ACOH    H110410   5.988   2.130   1.025 -2.6161 -0.2059  1.7664
  189ACOH    H210411   6.077   2.102   1.172 -0.6122 -0.1101  0.9492
  189ACOH    H310412   5.920   2.020   1.140  0.6248 -1.0101  1.4532
  190ACOH    H410413   7.493   3.945   7.092 -0.8460  0.5186 -0.0219
  190ACOH    O210414   7.512   3.936   6.998  0.5732 -0.1074  0.3236
  190ACOH    C210415   7.429   4.027   6.937  0.3856  0.3058 -0.0900
  190ACOH    O110416   7.360   4.107   6.996 -0.1452 -0.0589  0.5860
  190ACOH    C110417   7.457   4.031   6.794  0.8194 -0.0713  0.7053
  190ACOH    H110418   7.544   3.973   6.762  1.7689  1.6912 -0.0222
  190ACOH    H210419   7.471   4.135   6.763 -4.8431  0.6402  0.0713
  190ACOH    H310420   7.371   3.993   6.739 -0.4551  0.4035  2.3275
  191ACOH    H410421   5.058   0.632   7.381 -0.1087 -0.7802 -1.7565
  191ACOH    O210422   4.973   0.680   7.383 -0.1274 -0.8631  0.2151
  191ACOH    C210423   4.999   0.793   7.317  0.0860 -0.2196 -0.2859
  191ACOH    O110424   5.095   0.814   7.250 -0.1565 -0.7724  0.9563
  191ACOH    C110425   4.891   0.893   7.327  0.7261  0.2064  0.0344
  191ACOH    H110426   4.927   0.980   7.382 -0.1992 -0.2811  1.4601
  191ACOH    H210427   4.805   0.851   7.380 -0.0961  1.6565 -0.1301
  191ACOH    H310428   4.854   0.939   7.235  0.5028  0.0481  0.0429
  192ACOH    H410429   5.254   0.988   1.297  0.5197 -0.1699  3.0782
  192ACOH    O210430   5.318   1.060   1.287 -0.0837 -0.0930 -0.7324
  192ACOH    C210431   5.255   1.171   1.237  0.1958  0.1205  0.5438
  192ACOH    O110432   5.133   1.187   1.227 -0.1176  0.1714  0.2612
  192ACOH    C110433   5.345   1.281   1.207 -0.2677 -0.1390  0.3117
  192ACOH    H110434   5.294   1.376   1.193  3.8518  2.1835  0.0764
  192ACOH    H210435   5.379   1.250   1.108 -2.4500  1.9359 -1.1284
  192ACOH    H310436   5.428   1.292   1.277 -0.7234 -0.3781  0.8954
  193ACOH    H410437   0.911   0.050   1.021 -0.0222  0.3129 -0.0334
  193ACOH    O210438   0.952   0.073   0.936  0.2699 -0.0385  0.0130
  193ACOH    C210439   0.976   0.207   0.950 -0.3952 -0.2486 -0.4887
  193ACOH    O110440   0.999   0.270   1.057 -0.6378  0.1866  0.0386
  193ACOH    C110441   1.054   0.262   0.837 -0.1538 -0.1605  0.3503
  193ACOH    H110442   1.082   0.367   0.844  1.4292 -0.4168 -1.6763
  193ACOH    H210443   1.006   0.238   0.742 -0.8543  1.7010  0.2295
  193ACOH    H310444   1.144   0.200   0.839 -1.1599 -1.6428  0.8688
  194ACOH    H410445   2.343   1.740   7.604  0.0766 -1.1225  0.3318
  194ACOH    O210446   2.342   1.644   7.594 -0.3116 -1.0629 -0.2215
  194ACOH    C210447   2.469   1.611   7.569  0.7090  0.5894  0.7769
  194ACOH    O110448   2.564   1.688   7.560  0.5033 -0.0092 -0.1921
  194ACOH    C110449   2.478   1.461   7.585 -0.1858  0.2290 -0.2253
  194ACOH    H110450   2.525   1.419   7.496  1.2572  0.3385  0.4834
  194ACOH    H210451   2.380   1.413   7.592  0.1394 -0.6833 -1.7432
  194ACOH    H310452   2.535   1.428   7.672 -1.1897 -0.6324  0.1201
  195ACOH    H410453   6.958   3.154   5.071  1.8802 -0.6465  1.8997
  195ACOH    O210454   6.893   3.191   5.133  0.2530 -0.4110  0.1083
  195ACOH    C210455   6.958   3.295   5.184 -0.1822 -1.1973  0.4344
  195ACOH    O110456   7.046   3.358   5.131  0.0070  0.0373 -0.3350
  195ACOH    C110457   6.929   3.328   5.322  0.3022 -0.2435 -0.3175
  195ACOH    H110458   7.016   3.288   5.374  0.0158 -2.4598 -1.4781
  195ACOH    H210459   6.839   3.282   5.361  0.4847 -1.0433 -0.8322
  195ACOH    H310460   6.918   3.436   5.334 -0.3565 -0.5397  2.0290
  196ACOH    H410461   4.800   0.323   0.128 -1.5052 -1.0778 -4.9744
  196ACOH    O210462   4.829   0.231   0.139  0.1270 -0.1528 -0.2800
  196ACOH    C210463   4.953   0.226   0.198 -0.3008  0.2491 -0.0813
  196ACOH    O110464   5.034   0.315   0.204 -0.5605 -0.0395 -0.3816
  196ACOH    C110465   4.975   0.089   0.254 -0.5918 -0.3094 -0.0958
  196ACOH    H110466   4.895   0.024   0.219 -1.6257  0.5934  0.5317
  196ACOH    H210467   4.971   0.094   0.363  0.3043  0.3411 -0.0880
  196ACOH    H310468   5.071   0.056   0.217 -0.8932 -1.0399 -0.2268
  197ACOH    H410469   5.472   8.124   6.297 -0.7930 -0.1855 -0.0064
  197ACOH    O210470   5.407   8.059   6.330 -0.2609 -0.6030  0.2196
  197ACOH    C210471   5.457   7.938   6.327 -0.8023 -0.4236  0.0155
  197ACOH    O110472   5.575   7.910   6.310 -0.2837  0.2008  0.0565
  197ACOH    C110473   5.347   7.836   6.327 -0.3007 -0.1599  0.2920
  197ACOH    H110474   5.287   7.855   6.417 -1.6552 -0.9609 -0.4306
  197ACOH    H210475   5.393   7.739   6.339  1.3985  0.5587 -0.2957
  197ACOH    H310476   5.284   7.844   6.239  1.7019  2.4990 -0.9687
  198ACOH    H410477   7.161   0.230   0.590  0.5729 -0.4588  1.8741
  198ACOH    O210478   7.085   0.169   0.596  0.2310 -0.2706 -0.1449
  198ACOH    C210479   7.105   0.047   0.532  0.1219  0.2299 -0.3697
  198ACOH    O110480   7.185   0.007   0.459 -0.1165 -0.3712  0.7088
  198ACOH    C110481   6.990  -0.040   0.560  0.2744  0.1281  0.2468
  198ACOH    H110482   6.983  -0.054   0.668  2.1341 -1.7173  0.1598
  198ACOH    H210483   7.020  -0.134   0.514 -0.5174  1.2094 -2.6019
  198ACOH    H310484   6.899   0.002   0.517 -1.8676 -2.8072  1.6897
  199ACOH    H410485   1.173   3.388   4.123  1.0598  1.3180  2.9241
  199ACOH    O210486   1.261   3.400   4.083 -0.0116  0.2359  0.1256
  199ACOH    C210487   1.292   3.530   4.075 -0.1817 -0.1259  0.0350
  199ACOH    O110488   1.248   3.631   4.130  0.1169  0.3443 -0.3634
  199ACOH    C110489   1.427   3.542   4.015  0.0269 -0.8156 -0.0976
  199ACOH    H110490   1.488   3.539   4.105 -0.9812  1.6943  0.7116
  199ACOH    H210491   1.453   3.632   3.961 -1.3317 -0.7710 -0.7024
  199ACOH    H310492   1.440   3.456   3.949 -0.7434 -0.5330 -0.6195
  200ACOH    H410493   0.342   5.421   4.568  0.5405 -0.1952  0.7837
  200ACOH    O210494   0.338   5.518   4.569 -0.0170 -0.2070  0.2000
  200ACOH    C210495   0.465   5.556   4.612  0.0388  0.1873 -0.0869
  200ACOH    O110496   0.569   5.501   4.597 -0.2775  0.0648  0.1138
  200ACOH    C110497   0.466   5.702   4.653 -0.4481  0.0538 -0.2426
  200ACOH    H110498   0.478   5.717   4.760 -0.2743  0.3895 -0.3080
  200ACOH    H210499   0.373   5.750   4.619  0.3018  1.3162 -0.5581
  200ACOH    H310500   0.552   5.751   4.607 -0.2126  2.0542  2.2014
  201ACOH    H410501   7.788   4.858   5.358  0.7958 -1.5275  0.3823
  201ACOH    O210502   7.843   4.859   5.278  0.2505  0.5540  0.0045
  201ACOH    C210503   7.786   4.947   5.195  0.9868  0.4144  1.1254
  201ACOH    O110504   7.701   5.027   5.224  0.3786 -0.0010 -0.2395
  201ACOH    C110505   7.850   4.955   5.064  0.5117 -0.0826  0.7986
  201ACOH    H110506   7.907   4.865   5.041  1.0777  0.1111  1.4224
  201ACOH    H210507   7.921   5.037   5.064  2.0117 -1.3537  0.6601
  201ACOH    H310508   7.771   4.974   4.992  0.0345  1.1361  1.6245
  202ACOH    H410509   7.061   4.078   6.992 -0.9618  1.8065 -1.2388
  202ACOH    O210510   7.061   4.019   6.915 -0.4752 -0.1153  0.1968
  202ACOH    C210511   7.095   4.096   6.813 -0.1592  0.1161  0.3335
  202ACOH    O110512   7.098   4.215   6.817 -0.1463 -0.4073  0.1974
  202ACOH    C110513   7.108   4.021   6.690  0.5128  0.0922  0.0063
  202ACOH    H110514   7.145   4.087   6.612  3.0692 -1.4098 -0.1327
  202ACOH    H210515   7.009   3.978   6.675 -0.0385  0.4800  2.3166
  202ACOH    H310516   7.182   3.942   6.707 -0.0086 -0.5644 -0.7106
  203ACOH    H410517   8.364   3.087   3.713 -1.5546 -0.5509  1.5538
  203ACOH    O210518   8.359   2.998   3.676  0.4190 -0.2084  0.3388
  203ACOH    C210519   8.467   2.929   3.699  0.1233 -0.5846  0.7033
  203ACOH    O110520   8.572   2.972   3.741  0.3907  0.0078 -0.2830
  203ACOH    C110521   8.444   2.786   3.670  0.3538  0.0622  0.2929
  203ACOH    H110522   8.435   2.731   3.764  0.8265  0.2078  0.4238
  203ACOH    H210523   8.525   2.741   3.614 -0.6638  0.6163 -1.6506
  203ACOH    H310524   8.353   2.781   3.610  1.8938  0.7081 -2.1665
  204ACOH    H410525   6.859   2.039   1.967 -0.9663 -0.2034 -1.2842
  204ACOH    O210526   6.812   2.124   1.970 -0.1127  0.2462  0.5560
  204ACOH    C210527   6.856   2.181   2.080 -0.4666 -0.3889 -1.1453
  204ACOH    O110528   6.944   2.160   2.164 -0.3645  0.4793  0.2488
  204ACOH    C110529   6.773   2.304   2.095 -0.4360  0.1166  0.8451
  204ACOH    H110530   6.724   2.301   2.192 -1.5490 -1.8186  0.2588
  204ACOH    H210531   6.691   2.302   2.023 -1.0597  0.1382  1.5517
  204ACOH    H310532   6.836   2.391   2.079 -0.4950  0.3926  2.1206
  205ACOH    H410533   7.116   5.940   7.095  0.7214  0.0182  0.1896
  205ACOH    O210534   7.077   5.851   7.089  0.4525  0.1437  0.0082
  205ACOH    C210535   7.162   5.775   7.018  0.7550 -0.0368 -0.5682
  205ACOH    O110536   7.255   5.815   6.945  0.2397 -0.5642 -0.0761
  205ACOH    C110537   7.155   5.632   7.036 -0.3790  0.1035  0.7281
  205ACOH    H110538   7.053   5.593   7.029  0.1459 -1.0950 -0.4669
  205ACOH    H210539   7.186   5.628   7.141  1.5388  1.3429  0.2216
  205ACOH    H310540   7.233   5.586   6.976  2.3256  5.5418 -0.2031
  206ACOH    H410541   2.766   8.785   4.619  1.4928 -0.6068 -0.7908
  206ACOH    O210542   2.742   8.718   4.686 -0.4770  0.0024 -0.8428
  206ACOH    C210543   2.745   8.599   4.625 -0.2796  0.4674  0.7068
  206ACOH    O110544   2.692   8.594   4.511 -0.3793 -0.3689 -0.1188
  206ACOH    C110545   2.733   8.483   4.721  1.0117 -0.4128  0.3832
  206ACOH    H110546   2.657   8.507   4.795  1.3695  0.0488  0.6005
  206ACOH    H210547   2.833   8.480   4.763  0.9620  1.1464  0.6579
  206ACOH    H310548   2.717   8.386   4.674  1.3617 -1.2428  1.9541
  207ACOH    H410549   0.612   2.319   5.041 -0.0572 -0.4984  0.9096
  207ACOH    O210550   0.601   2.227   5.072 -0.6632 -0.5816  0.4455
  207ACOH    C210551   0.718   2.161   5.049 -0.7712  0.3792  0.4775
  207ACOH    O110552   0.793   2.172   4.954  0.1054 -0.1510 -0.7231
  207ACOH    C110553   0.723   2.039   5.132  0.3622  0.0951  0.0273
  207ACOH    H110554   0.677   2.049   5.231  0.9253  1.5971  0.1553
  207ACOH    H210555   0.826   2.008   5.152 -0.4936 -1.0788  2.8977
  207ACOH    H310556   0.672   1.966   5.070 -0.5651 -1.1736  2.1992
  208ACOH    H410557   4.477   6.200   1.010  3.2782  1.9195 -2.3257
  208ACOH    O210558   4.512   6.245   1.089  0.4098 -0.2729  0.3124
  208ACOH    C210559   4.590   6.344   1.039 -0.0754  0.3110  0.1438
  208ACOH    O110560   4.623   6.357   0.925  0.0912 -0.5436  0.1974
  208ACOH    C110561   4.650   6.434   1.144  0.3009 -0.1287 -0.3059
  208ACOH    H110562   4.752   6.399   1.160 -0.5640 -3.9178 -2.4185
  208ACOH    H210563   4.594   6.421   1.236 -0.1407  0.6866 -0.4563
  208ACOH    H310564   4.651   6.536   1.106  0.4897 -0.1565 -0.3761
  209ACOH    H410565   8.117   2.494   0.948  0.9483 -0.1445 -0.8388
  209ACOH    O210566   8.113   2.582   0.990  0.0584 -0.4605 -0.2519
  209ACOH    C210567   8.090   2.681   0.899 -1.1051  0.0041 -0.6324
  209ACOH    O110568   8.066   2.659   0.780 -0.4816  0.6139  0.0270
  209ACOH    C110569   8.093   2.811   0.959  0.5227 -1.0285 -0.5151
  209ACOH    H110570   8.154   2.821   1.048 -0.3221  0.1379 -0.0594
  209ACOH    H210571   7.998   2.859   0.980  1.9359  1.4742  0.3739
  209ACOH    H310572   8.137   2.869   0.878  0.4272 -2.1416 -1.3782
  210ACOH    H410573   6.924   7.091   6.864 -0.0901  0.7925  1.8905
  210ACOH    O210574   6.871   7.016   6.896 -0.0411  0.0553  0.2893
  210ACOH    C210575   6.837   7.065   7.019  0.4739 -0.1568  0.5160
  210ACOH    O110576   6.826   7.182   7.056 -0.3461  0.3691 -0.2505
  210ACOH    C110577   6.813   6.949   7.109 -0.7532 -0.0978 -0.0819
  210ACOH    H110578   6.861   6.860   7.069 -1.9360 -0.1537 -1.3969
  210ACOH    H210579   6.708   6.919   7.103 -1.2204  1.3922  0.4256
  210ACOH    H310580   6.841   6.974   7.212 -0.1768 -3.5716  0.6552
  211ACOH    H410581   8.434   7.064   7.990  0.3141  0.0037 -0.3313
  211ACOH    O210582   8.396   6.995   7.933 -0.2410 -0.2631  0.3428
  211ACOH    C210583   8.368   6.884   8.010  0.4418  0.2969  0.9211
  211ACOH    O110584   8.395   6.868   8.126 -0.0263 -0.2557 -0.6566
  211ACOH    C110585   8.296   6.793   7.920  0.1159  0.3252  1.0633
  211ACOH    H110586   8.266   6.700   7.970 -0.3679  0.8725  1.8086
  211ACOH    H210587   8.367   6.768   7.842 -0.0214  0.1152  1.0033
  211ACOH    H310588   8.205   6.831   7.874  0.1873 -0.3044  0.3985
  212ACOH    H410589   6.167   3.015   1.101 -0.4525  1.7434 -0.8690
  212ACOH    O210590   6.264   3.025   1.098 -0.1946 -0.3961 -0.2002
  212ACOH    C210591   6.330   2.946   1.179 -0.2758 -0.3392  0.8697
  212ACOH    O110592   6.291   2.876   1.272  0.3729  0.4820 -0.3758
  212ACOH    C110593   6.471   2.957   1.144 -0.0825  0.3260  1.1445
  212ACOH    H110594   6.535   2.891   1.202 -0.0773 -1.3363 -0.7119
  212ACOH    H210595   6.498   3.063   1.152  0.0955  0.8198 -4.4297
  212ACOH    H310596   6.487   2.944   1.037  1.3954  0.8645  1.2936
  213ACOH    H410597   6.727   5.936   5.335 -2.5885  1.4174 -0.6013
  213ACOH    O210598   6.665   5.889   5.394 -0.4906 -0.5766  0.0975
  213ACOH    C210599   6.714   5.880   5.515 -0.5834  1.0920 -0.0443
  213ACOH    O110600   6.832   5.888   5.543 -0.7408  0.1666  0.0904
  213ACOH    C110601   6.606   5.850   5.619  0.0468 -0.4474 -0.1209
  213ACOH    H110602   6.505   5.848   5.579  0.8217 -1.0115 -2.1326
  213ACOH    H210603   6.616   5.932   5.690 -0.5639  0.6276 -1.2532
  213ACOH    H310604   6.636   5.754   5.661  2.6433  1.4165  2.4696
  214ACOH    H410605   3.911   7.259   6.436 -1.5155  1.8766  1.7821
  214ACOH    O210606   3.971   7.266   6.512  0.7952  0.7943  0.1525
  214ACOH    C210607   3.914   7.367   6.564  0.0372 -0.4035 -0.0748
  214ACOH    O110608   3.794   7.400   6.576 -0.3382 -0.1300 -0.8108
  214ACOH    C110609   4.014   7.431   6.650  0.1214 -0.1191  0.4413
  214ACOH    H110610   3.997   7.387   6.748  0.5311 -0.5273  0.3306
  214ACOH    H210611   3.980   7.535   6.653  0.6636  0.3174 -4.2131
  214ACOH    H310612   4.118   7.425   6.620 -0.6988 -1.2274 -2.3378
  215ACOH    H410613   5.232   3.688   6.378  0.3093  1.3251 -0.9639
  215ACOH    O210614   5.323   3.679   6.411 -0.3330 -0.6559  0.3660
  215ACOH    C210615   5.395   3.778   6.348  0.5219  0.5319 -0.0911
  215ACOH    O110616   5.352   3.854   6.262  0.4612 -0.0386 -0.1212
  215ACOH    C110617   5.537   3.791   6.401  0.0149 -0.0357  0.2998
  215ACOH    H110618   5.597   3.790   6.310  0.3428 -2.5662  0.5222
  215ACOH    H210619   5.564   3.700   6.455 -0.1803  0.1283  0.6763
  215ACOH    H310620   5.552   3.876   6.468 -1.9489  0.1644  0.5135
  216ACOH    H410621   2.638   5.107   3.194 -0.7366 -0.4907 -1.5866
  216ACOH    O210622   2.554   5.156   3.186 -0.4189  0.3092 -0.2219
  216ACOH    C210623   2.588   5.281   3.180 -0.5962  0.6778 -0.1530
  216ACOH    O110624   2.693   5.332   3.212 -0.6786 -0.0437 -0.7410
  216ACOH    C110625   2.455   5.356   3.160 -0.0943  0.4441 -0.8617
  216ACOH    H110626   2.473   5.457   3.123  0.0696  0.9680  0.6044
  216ACOH    H210627   2.419   5.369   3.263  1.8753 -0.9231  0.0429
  216ACOH    H310628   2.376   5.299   3.113  1.5052 -2.4163 -0.2307
  217ACOH    H410629   5.237   7.020   5.807 -2.0531  1.5800 -0.1629
  217ACOH    O210630   5.174   6.949   5.826 -0.1719 -0.0654  0.0205
  217ACOH    C210631   5.192   6.851   5.740 -0.7923 -0.0925  0.1109
  217ACOH    O110632   5.267   6.850   5.645 -0.3884 -0.1451  0.4668
  217ACOH    C110633   5.086   6.745   5.757  0.5341 -0.4997 -0.2157
  217ACOH    H110634   4.990   6.795   5.760  0.2833 -1.0064  0.5133
  217ACOH    H210635   5.099   6.685   5.848 -0.3109 -0.4892 -0.0864
  217ACOH    H310636   5.078   6.677   5.672 -0.8004 -2.0032  1.0643
  218ACOH    H410637   6.140   0.663   0.141 -0.6838  1.5941  1.8024
  218ACOH    O210638   6.046   0.640   0.131 -0.1424 -0.2984  0.7572
  218ACOH    C210639   5.970   0.752   0.165 -0.0390  0.3410 -0.8430
  218ACOH    O110640   6.014   0.863   0.183  0.1281  0.2867 -0.1410
  218ACOH    C110641   5.824   0.733   0.131  0.4993  0.0454  0.2863
  218ACOH    H110642   5.790   0.663   0.206  2.5029 -0.6568  0.5710
  218ACOH    H210643   5.824   0.684   0.033 -0.3992 -1.0079  0.8060
  218ACOH    H310644   5.776   0.831   0.131 -0.1688 -0.2822  1.1352
  219ACOH    H410645   9.881   7.654   6.273 -1.4238 -0.8014 -0.9243
  219ACOH    O210646   9.829   7.716   6.327  0.3683 -0.2744  0.2240
  219ACOH    C210647   9.877   7.837   6.297  0.0524 -0.0972 -0.1433
  219ACOH    O110648   9.927   7.859   6.192 -0.1329  0.1590  0.1413
  219ACOH    C110649   9.799   7.939   6.372 -0.5148 -0.2212 -0.4958
  219ACOH    H110650   9.820   8.042   6.342  0.1698 -0.4017 -0.6292
  219ACOH    H210651   9.823   7.927   6.478 -1.1927 -1.0467 -0.4292
  219ACOH    H310652   9.692   7.919   6.366 -0.0862 -1.8724 -3.1550
  220ACOH    H410653   7.474   6.718   1.834  0.8410 -0.4580 -0.0443
  220ACOH    O210654   7.417   6.644   1.859 -0.0205  0.1283 -0.2569
  220ACOH    C210655   7.289   6.649   1.809 -0.1259  0.3535 -0.9012
  220ACOH    O110656   7.253   6.730   1.730  0.5586 -0.0432 -0.1330
  220ACOH    C110657   7.199   6.539   1.845  0.3402 -0.0874 -0.1210
  220ACOH    H110658   7.144   6.516   1.754 -0.3987  1.0013  0.0327
  220ACOH    H210659   7.136   6.568   1.930 -0.6898 -1.6632 -0.3244
  220ACOH    H310660   7.250   6.450   1.882 -0.6177 -0.2768  0.7832
  221ACOH    H410661   7.474   3.808   5.821 -1.2717  1.3907 -1.9749
  221ACOH    O210662   7.384   3.787   5.852 -0.1877  0.1901  0.5434
  221ACOH    C210663   7.392   3.677   5.927  0.1203  0.2365 -0.0069
  221ACOH    O110664   7.490   3.606   5.942 -0.5496  0.1002 -0.2548
  221ACOH    C110665   7.257   3.647   5.987  0.5306  0.3522 -0.2083
  221ACOH    H110666   7.270   3.573   6.065 -1.4433  0.8613  0.6363
  221ACOH    H210667   7.186   3.613   5.911 -1.0401  3.1343 -0.0674
  221ACOH    H310668   7.205   3.734   6.029  0.5962  0.6181 -0.6651
  222ACOH    H410669   8.641   3.058   3.161  2.2302 -1.3369 -1.7111
  222ACOH    O210670   8.601   3.130   3.108 -0.3495 -0.5934  1.1175
  222ACOH    C210671   8.702   3.176   3.029 -0.3643  0.0601 -0.3452
  222ACOH    O110672   8.816   3.129   3.030 -0.4767 -0.1834  0.1282
  222ACOH    C110673   8.650   3.278   2.936  0.6244 -0.7133 -0.1043
  222ACOH    H110674   8.609   3.224   2.850  2.7507 -0.4239 -1.3423
  222ACOH    H210675   8.729   3.347   2.907  0.3196 -0.9052 -1.4293
  222ACOH    H310676   8.560   3.327   2.974  0.9948  1.5562 -2.0273
  223ACOH    H410677   6.766   6.184   1.747 -0.7268 -0.2731 -0.7872
  223ACOH    O210678   6.809   6.180   1.834 -0.0869  0.3457 -1.0668
  223ACOH    C210679   6.906   6.273   1.836  0.5965  0.1454 -0.4067
  223ACOH    O110680   6.957   6.348   1.755 -0.1295  0.0084  0.3215
  223ACOH    C110681   6.948   6.284   1.979 -0.7563 -0.2830 -0.0133
  223ACOH    H110682   6.929   6.386   2.013  2.0152  0.1955  0.2113
  223ACOH    H210683   7.057   6.277   1.981 -0.6893 -0.0778 -2.2037
  223ACOH    H310684   6.910   6.206   2.046  0.8340  0.0464  1.3122
  224ACOH    H410685   8.763   0.420   6.471 -0.6378  0.3152 -0.2939
  224ACOH    O210686   8.730   0.329   6.485 -0.3525  0.3255  0.5078
  224ACOH    C210687   8.598   0.348   6.509 -0.3692 -0.7034  0.0725
  224ACOH    O110688   8.535   0.446   6.474 -0.0990  0.1379 -0.0461
  224ACOH    C110689   8.538   0.223   6.564  0.1704 -0.6689 -0.2253
  224ACOH    H110690   8.560   0.134   6.504  1.3733  0.1679 -1.0303
  224ACOH    H210691   8.429   0.236   6.567  0.2560 -0.2562  1.3060
  224ACOH    H310692   8.563   0.206   6.669 -0.1340 -1.2607 -0.2444
  225ACOH    H410693   6.885   1.353   6.543  3.5890  0.2111 -0.5726
  225ACOH    O210694   6.889   1.400   6.628 -0.1187 -0.1569 -0.1171
  225ACOH    C210695   7.022   1.421   6.647 -0.2350  0.4883  0.6458
  225ACOH    O110696   7.117   1.358   6.602  0.1236  0.7252 -0.5418
  225ACOH    C110697   7.041   1.543   6.725  0.4930 -0.3955 -0.1244
  225ACOH    H110698   7.123   1.516   6.792 -0.0702  2.9099  2.0024
  225ACOH    H210699   6.957   1.572   6.787  1.4804 -1.5195  1.7804
  225ACOH    H310700   7.055   1.618   6.648 -0.3254  0.4395  0.5343
  226ACOH    H410701   6.405   8.090   6.746 -1.6765 -1.8369 -0.6527
  226ACOH    O210702   6.400   8.082   6.842 -0.0954  0.9537 -0.2929
  226ACOH    C210703   6.523   8.048   6.890 -0.5676 -0.6108 -0.3909
  226ACOH    O110704   6.615   7.995   6.836  0.3075  0.5717 -0.3539
  226ACOH    C110705   6.528   8.060   7.037 -0.0121  0.1318  0.4186
  226ACOH    H110706   6.467   7.979   7.079 -0.4598  0.6003  0.6821
  226ACOH    H210707   6.481   8.155   7.060  2.4065  2.0659 -2.4104
  226ACOH    H310708   6.626   8.067   7.084 -0.2595  0.4274  0.8996
  227ACOH    H410709   5.902   6.577   1.836 -1.3000 -0.2681 -0.7664
  227ACOH    O210710   5.894   6.672   1.856 -0.3429 -0.2655 -0.3414
  227ACOH    C210711   6.011   6.727   1.832 -0.2864 -0.4000 -0.0263
  227ACOH    O110712   6.114   6.676   1.796 -0.3508  0.1290 -0.1673
  227ACOH    C110713   6.002   6.869   1.874  0.9683  0.3587 -0.6008
  227ACOH    H110714   6.027   6.933   1.789  1.0913  1.1646  0.0470
  227ACOH    H210715   6.076   6.886   1.953  0.1394 -0.5723  0.3871
  227ACOH    H310716   5.902   6.895   1.907  0.7034 -0.3120 -0.8492
  228ACOH    H410717   7.393   5.639   4.658 -0.0978 -1.4702  1.9776
  228ACOH    O210718   7.390   5.572   4.588  0.0488  0.2032  0.3396
  228ACOH    C210719   7.306   5.632   4.501 -0.5043  0.0475  0.4697
  228ACOH    O110720   7.228   5.716   4.528  0.5457 -0.0249 -0.1171
  228ACOH    C110721   7.312   5.558   4.372 -0.1364  0.4664 -0.0232
  228ACOH    H110722   7.412   5.578   4.335 -0.5514  1.4548 -0.6371
  228ACOH    H210723   7.238   5.597   4.302  0.0401 -2.1895 -1.7479
  228ACOH    H310724   7.294   5.450   4.371 -2.3992  0.8157 -1.7588
  229ACOH    H410725   3.603   5.974   4.974  0.2082  0.3625  1.8488
  229ACOH    O210726   3.656   5.893   4.981  0.3863  0.3699  0.6472
  229ACOH    C210727   3.605   5.794   4.909 -0.2411 -0.2566 -0.2241
  229ACOH    O110728   3.494   5.781   4.860  0.2046 -0.4314 -0.0822
  229ACOH    C110729   3.696   5.676   4.898 -0.5738  0.6499  0.2726
  229ACOH    H110730   3.720   5.658   4.794 -2.0972  0.7261 -0.1023
  229ACOH    H210731   3.636   5.590   4.931 -0.0659  1.0937  2.4527
  229ACOH    H310732   3.778   5.686   4.970 -0.5662  0.6107  0.2695
  230ACOH    H410733   6.634   9.222   6.911 -3.5336 -1.0446  1.1631
  230ACOH    O210734   6.650   9.247   7.004  0.8253 -0.3599  0.3268
  230ACOH    C210735   6.763   9.190   7.043 -0.0403  0.1558  0.2585
  230ACOH    O110736   6.835   9.124   6.967  0.1799  0.1441 -0.2813
  230ACOH    C110737   6.806   9.225   7.182  0.2906 -0.3054  1.1892
  230ACOH    H110738   6.736   9.286   7.240 -1.8853 -0.8677 -0.7925
  230ACOH    H210739   6.896   9.287   7.182 -0.3221  0.6126 -0.5725
  230ACOH    H310740   6.821   9.127   7.228 -0.6011 -2.1964 -2.4344
  231ACOH    H410741   6.979   6.447   6.743  0.8907  1.7757  2.0991
  231ACOH    O210742   6.958   6.394   6.822 -0.2370 -0.9213  0.0692
  231ACOH    C210743   6.979   6.265   6.801  0.0620 -0.1695 -0.6578
  231ACOH    O110744   7.027   6.214   6.699 -1.0207 -0.2355  0.3835
  231ACOH    C110745   6.952   6.189   6.931  0.1915  0.1309 -0.1538
  231ACOH    H110746   7.037   6.125   6.954 -0.0330  0.3580  1.3356
  231ACOH    H210747   6.863   6.129   6.911 -0.6205  1.3985 -0.4268
  231ACOH    H310748   6.928   6.253   7.016  1.7062 -2.4626  2.3356
  232ACOH    H410749   0.887   3.738   5.557  2.0790  0.1522 -0.6131
  232ACOH    O210750   0.874   3.641   5.558 -0.1515  0.4433  0.0255
  232ACOH    C210751   0.946   3.582   5.465 -0.1449  0.5966  0.2804
  232ACOH    O110752   1.040   3.627   5.404 -0.4678 -0.7199  0.4505
  232ACOH    C110753   0.902   3.438   5.450  0.6084 -0.1533 -0.4878
  232ACOH    H110754   0.889   3.381   5.542 -3.0202 -1.1050 -1.5194
  232ACOH    H210755   0.979   3.387   5.392  1.0324  0.5330 -0.5354
  232ACOH    H310756   0.803   3.430   5.406 -0.1998  0.4017  1.1979
  233ACOH    H410757   0.260   8.132   1.753  0.7954  1.6636 -0.0512
  233ACOH    O210758   0.256   8.130   1.851  0.5938  0.0910 -0.0839
  233ACOH    C210759   0.247   8.006   1.906  1.0555  0.1334 -0.8777
  233ACOH    O110760   0.239   7.901   1.844 -0.2052  0.1697 -0.1182
  233ACOH    C110761   0.235   8.016   2.052  0.3588 -0.4218 -0.1201
  233ACOH    H110762   0.172   7.935   2.088  0.3085 -1.4687 -2.4678
  233ACOH    H210763   0.179   8.106   2.078 -2.2587 -1.5316 -1.6682
  233ACOH    H310764   0.336   8.020   2.092  0.5353  1.1508 -0.6535
  234ACOH    H410765   5.975   7.141   5.681  2.0943 -0.2982  0.1201
  234ACOH    O210766   5.959   7.204   5.753  0.1446 -0.1313 -0.4187
  234ACOH    C210767   5.852   7.279   5.729  0.2051  0.3000 -0.2119
  234ACOH    O110768   5.796   7.286   5.620  0.1089  0.0593 -0.3376
  234ACOH    C110769   5.810   7.359   5.847 -0.7393  0.7572  0.9452
  234ACOH    H110770   5.870   7.321   5.930  0.9972 -0.3165 -0.7619
  234ACOH    H210771   5.705   7.353   5.875 -0.5172  1.8316  2.0525
  234ACOH    H310772   5.835   7.465   5.837 -0.5747  0.8013  1.7959
  235ACOH    H410773   7.508   5.884   5.325  0.3979  0.4141 -0.7161
  235ACOH    O210774   7.417   5.904   5.353  0.4285 -0.2279 -0.1580
  235ACOH    C210775   7.352   5.785   5.381 -0.8264 -0.1047  0.0701
  235ACOH    O110776   7.413   5.681   5.405  0.2499  0.3407 -0.4340
  235ACOH    C110777   7.211   5.806   5.417 -0.6556  0.3250  0.7291
  235ACOH    H110778   7.169   5.710   5.449  0.5254 -1.3013 -2.3681
  235ACOH    H210779   7.144   5.850   5.344 -0.4157  1.8162  1.3754
  235ACOH    H310780   7.216   5.873   5.503  0.9805  1.8783 -0.5435
  236ACOH    H410781   4.655   9.914   4.120 -2.5487  4.3215  4.1148
  236ACOH    O210782   4.587   9.849   4.146 -0.1374 -0.3252 -0.2021
  236ACOH    C210783   4.578   9.748   4.061 -0.2068 -0.0458  0.7058
  236ACOH    O110784   4.638   9.723   3.957 -0.2820 -0.0904  0.2352
  236ACOH    C110785   4.481   9.641   4.110 -0.1186 -0.9759 -0.5302
  236ACOH    H110786   4.492   9.641   4.219  1.2301  1.2582 -0.6272
  236ACOH    H210787   4.515   9.544   4.073  2.8262  0.2894 -1.3004
  236ACOH    H310788   4.379   9.668   4.083 -0.5098 -0.4224  1.3762
  237ACOH    H410789   8.103   3.124   4.643  0.2249 -0.0609 -0.7468
  237ACOH    O210790   8.006   3.132   4.638  0.2384 -0.0811 -1.0813
  237ACOH    C210791   7.975   3.041   4.542 -0.0914  0.0399 -0.3081
  237ACOH    O110792   8.002   2.928   4.572  0.3450  0.3578 -0.9851
  237ACOH    C110793   7.849   3.075   4.469 -0.3034 -0.3403 -0.1456
  237ACOH    H110794   7.864   3.170   4.418  0.9179 -0.4220  0.0343
  237ACOH    H210795   7.766   3.091   4.538 -0.8917 -0.0781 -0.9088
  237ACOH    H310796   7.824   3.008   4.386  0.8248  0.0336 -0.8053
  238ACOH    H410797   9.422   3.284   8.016  0.3615  0.7379  0.6490
  238ACOH    O210798   9.444   3.360   7.961  0.7174  0.0100 -0.2268
  238ACOH    C210799   9.572   3.410   7.986  0.1775 -0.9758 -0.3525
  238ACOH    O110800   9.642   3.360   8.068 -0.1396 -0.4906 -0.5094
  238ACOH    C110801   9.608   3.526   7.898  0.2298  0.2073  0.3259
  238ACOH    H110802   9.612   3.618   7.956 -1.7254  0.5140  0.0011
  238ACOH    H210803   9.532   3.545   7.823 -0.6026  1.4153  1.4672
  238ACOH    H310804   9.699   3.513   7.840 -1.1369 -0.2918 -1.7575
  239ACOH    H410805   9.666   3.254   4.477  3.0050 -0.0547 -0.7297
  239ACOH    O210806   9.662   3.336   4.529  0.1201 -0.5001 -0.1397
  239ACOH    C210807   9.630   3.290   4.647 -0.3095  0.0823 -0.0537
  239ACOH    O110808   9.570   3.185   4.670 -0.5069 -0.5609 -0.0619
  239ACOH    C110809   9.666   3.397   4.748 -0.0890 -0.1170 -0.6420
  239ACOH    H110810   9.753   3.363   4.805 -0.7166 -1.2819 -0.3604
  239ACOH    H210811   9.583   3.419   4.815 -0.7766 -0.9028 -1.2247
  239ACOH    H310812   9.686   3.492   4.699  0.4660  0.9597  1.5830
  240ACOH    H410813   4.619   5.200   3.830 -0.0042 -0.0990  0.3858
  240ACOH    O210814   4.556   5.212   3.903 -0.5239 -0.0020 -0.0701
  240ACOH    C210815   4.520   5.094   3.958 -0.9066  0.0861 -0.1146
  240ACOH    O110816   4.555   4.985   3.918 -0.3508  0.6035 -0.0348
  240ACOH    C110817   4.436   5.119   4.077 -0.1300  0.4230 -0.1721
  240ACOH    H110818   4.504   5.130   4.162 -0.3936 -1.2643  0.2695
  240ACOH    H210819   4.364   5.040   4.098 -2.3489  2.0921 -1.2972
  240ACOH    H310820   4.385   5.215   4.063 -1.9591 -0.5109  0.0296
  241ACOH    H410821   9.646   3.137   7.986  0.8951 -3.4395  2.5366
  241ACOH    O210822   9.617   3.084   7.910  0.3518  0.3697 -0.0646
  241ACOH    C210823   9.724   3.078   7.833 -0.8334  0.6258 -0.1822
  241ACOH    O110824   9.810   3.159   7.805 -0.5204  0.2938  0.2277
  241ACOH    C110825   9.705   2.964   7.732 -0.2750  0.0027  0.3846
  241ACOH    H110826   9.703   2.874   7.793 -0.7571 -0.4486 -0.3008
  241ACOH    H210827   9.782   2.958   7.655 -0.7445 -1.0400 -0.0065
  241ACOH    H310828   9.610   2.972   7.679  0.0540 -2.3389 -0.5863
  242ACOH    H410829   7.270   6.101   2.573  1.3608 -0.0834 -0.3531
  242ACOH    O210830   7.270   6.072   2.666  0.7394  0.4432 -0.1882
  242ACOH    C210831   7.188   6.156   2.736  0.5419 -0.5316  0.8870
  242ACOH    O110832   7.131   6.251   2.683  0.0356 -0.1994  0.7471
  242ACOH    C110833   7.185   6.119   2.880 -0.4851  0.7600  0.4327
  242ACOH    H110834   7.277   6.090   2.930 -1.7772 -0.3486  2.2447
  242ACOH    H210835   7.113   6.038   2.895  0.8707 -0.1527  2.2890
  242ACOH    H310836   7.151   6.206   2.936  0.1886  1.2198  0.1302
  243ACOH    H410837   2.066   6.794   3.399  0.0159  0.2967  0.8797
  243ACOH    O210838   2.080   6.757   3.488  0.0404  0.2565  0.8592
  243ACOH    C210839   2.210   6.723   3.500 -0.1422  0.7924 -0.5039
  243ACOH    O110840   2.299   6.783   3.438  0.0326  0.2795 -0.1032
  243ACOH    C110841   2.237   6.645   3.621 -0.1719  0.3388  0.3055
  243ACOH    H110842   2.346   6.640   3.628  0.0895 -1.3124 -3.4292
  243ACOH    H210843   2.203   6.544   3.598 -0.3630  0.0728  1.7042
  243ACOH    H310844   2.189   6.682   3.712 -2.3237 -1.6405  0.0160
  244ACOH    H410845   8.864   3.263   7.341 -0.0364 -0.1855  0.1170
  244ACOH    O210846   8.813   3.196   7.292 -0.3059 -0.1848  0.3956
  244ACOH    C210847   8.698   3.167   7.365 -0.3096  0.4418  0.0692
  244ACOH    O110848   8.648   3.253   7.438  0.7422  0.8344  0.0440
  244ACOH    C110849   8.636   3.037   7.331 -0.0383  0.0025 -0.5053
  244ACOH    H110850   8.618   2.989   7.428  1.7221 -0.6386 -0.4788
  244ACOH    H210851   8.678   2.979   7.249  0.3698  1.9820 -1.7259
  244ACOH    H310852   8.541   3.071   7.292  0.5137  0.3326 -1.5904
  245ACOH    H410853   6.965   9.560   1.038 -1.1508  1.6231  0.2922
  245ACOH    O210854   6.916   9.533   0.958  0.1293 -0.1579  0.0839
  245ACOH    C210855   6.963   9.598   0.849 -0.3043 -0.1867 -0.4538
  245ACOH    O110856   7.032   9.697   0.858 -0.2375  0.1084  0.3353
  245ACOH    C110857   6.869   9.581   0.737 -0.3816 -0.0043 -1.0849
  245ACOH    H110858   6.879   9.480   0.697  1.9176 -0.1564 -0.2338
  245ACOH    H210859   6.884   9.658   0.660 -0.3304  0.0856 -0.9860
  245ACOH    H310860   6.766   9.586   0.770  0.5156  0.4623  1.8108
  246ACOH    H410861   7.490   4.475   2.891  1.9349 -0.0601  1.6136
  246ACOH    O210862   7.497   4.386   2.851  0.0796  0.4859 -0.0099
  246ACOH    C210863   7.381   4.363   2.786  0.1913 -0.3737 -0.8235
  246ACOH    O110864   7.284   4.437   2.774  0.2737 -0.0765  0.2536
  246ACOH    C110865   7.381   4.225   2.734 -0.6778  0.1462 -0.4457
  246ACOH    H110866   7.436   4.219   2.640  0.3284 -0.7752  0.1925
  246ACOH    H210867   7.276   4.199   2.721 -0.3181 -2.4377  1.4915
  246ACOH    H310868   7.420   4.155   2.808 -1.9959  0.4636  0.5659
  247ACOH    H410869   8.991   3.710   7.176  1.5039 -0.5605 -0.2368
  247ACOH    O210870   9.025   3.737   7.263  0.8343 -0.2593 -0.0661
  247ACOH    C210871   9.148   3.680   7.262 -0.7173  0.1243  0.3802
  247ACOH    O110872   9.201   3.632   7.164  0.1402  0.0715 -0.2030
  247ACOH    C110873   9.221   3.677   7.392  0.3430  0.2079  0.1138
  247ACOH    H110874   9.147   3.686   7.471  0.4348 -0.0457  0.2262
  247ACOH    H210875   9.281   3.768   7.382 -0.6134  0.8888  0.4995
  247ACOH    H310876   9.283   3.588   7.402 -0.0376  0.0499  1.1590
  248ACOH    H410877   4.575   5.687   3.482 -2.3089  0.3538  0.9727
  248ACOH    O210878   4.599   5.756   3.545 -0.6389  0.5677  0.1340
  248ACOH    C210879   4.733   5.728   3.569  0.0597 -0.3614 -0.0967
  248ACOH    O110880   4.800   5.630   3.548  0.2635  0.0275  0.3345
  248ACOH    C110881   4.787   5.845   3.634 -0.4871  0.4753  0.0962
  248ACOH    H110882   4.728   5.863   3.724 -1.1063 -1.1986  0.0471
  248ACOH    H210883   4.788   5.934   3.571  1.9210 -0.5328 -1.3581
  248ACOH    H310884   4.888   5.823   3.671 -0.1982 -1.3528 -1.6745
  249ACOH    H410885   7.600   0.200   0.237 -0.7997 -0.3783 -0.9674
  249ACOH    O210886   7.669   0.257   0.199 -0.7010 -0.0655 -0.3176
  249ACOH    C210887   7.674   0.260   0.068  0.1998  0.4431  0.9652
  249ACOH    O110888   7.604   0.183   0.001 -0.1392 -0.2649 -0.3286
  249ACOH    C110889   7.784   0.340   0.019  0.4380 -0.5970  0.4124
  249ACOH    H110890   7.883   0.310   0.055 -0.2120 -0.1221  2.6661
  249ACOH    H210891   7.770   0.442   0.055  0.2919  0.0885 -1.5429
  249ACOH    H310892   7.791   0.344  -0.090 -1.6842  0.1876  0.2813
  250ACOH    H410893   8.002   4.059   1.590 -1.5341  1.1794 -1.1326
  250ACOH    O210894   8.074   4.099   1.538 -0.0709 -0.2020 -0.2264
  250ACOH    C210895   8.170   4.012   1.556 -0.0004  0.0742  0.3904
  250ACOH    O110896   8.165   3.896   1.593 -0.3087  0.4186  0.5309
  250ACOH    C110897   8.293   4.053   1.480  0.4857  0.2855 -0.5011
  250ACOH    H110898   8.347   3.963   1.448 -1.2595 -0.7675 -0.5203
  250ACOH    H210899   8.355   4.111   1.548  0.0707 -0.4846  0.5444
  250ACOH    H310900   8.263   4.109   1.391 -0.5439  1.4724  0.5945
  251ACOH    H410901   0.782   9.204   5.989  0.4160  1.3256 -2.5647
  251ACOH    O210902   0.729   9.167   5.917 -0.2757 -0.8250 -1.0219
  251ACOH    C210903   0.765   9.040   5.885  0.4320  0.2937  0.0550
  251ACOH    O110904   0.877   9.006   5.864 -0.4114  0.1870  0.4841
  251ACOH    C110905   0.658   8.984   5.798  0.1006  0.8118 -0.2697
  251ACOH    H110906   0.565   8.964   5.851  0.1952  1.2184  0.0578
  251ACOH    H210907   0.693   8.889   5.758  3.5517  0.6695  2.7923
  251ACOH    H310908   0.631   9.045   5.712 -1.8409  0.2585 -0.0767
  252ACOH    H410909   6.989   5.104   0.157 -0.3495  0.1138  0.2037
  252ACOH    O210910   6.945   5.055   0.229 -0.6678  0.0109 -0.0587
  252ACOH    C210911   6.822   5.102   0.238  0.6757  0.3092  0.1722
  252ACOH    O110912   6.772   5.198   0.183 -0.5298  0.0743 -0.2693
  252ACOH    C110913   6.751   5.020   0.344 -0.0118 -0.2006  0.8270
  252ACOH    H110914   6.652   4.997   0.306  0.5744  0.9306 -1.4352
  252ACOH    H210915   6.758   5.083   0.433 -1.3290  0.4762  0.4575
  252ACOH    H310916   6.800   4.923   0.353 -2.0157 -1.1861  1.3090
  253ACOH    H410917   7.304   0.515   7.264  2.2502  1.8183 -0.5926
  253ACOH    O210918   7.227   0.570   7.243  0.9338  0.3883  0.3334
  253ACOH    C210919   7.172   0.631   7.348  0.2851  1.0875 -0.2820
  253ACOH    O110920   7.218   0.616   7.460 -0.1627  0.0690  0.4433
  253ACOH    C110921   7.057   0.725   7.318  0.1468  0.6050 -0.3940
  253ACOH    H110922   6.981   0.707   7.394 -0.8881 -0.5933 -1.6838
  253ACOH    H210923   7.014   0.710   7.219  0.3174  2.6299 -0.7861
  253ACOH    H310924   7.098   0.826   7.321  2.2166 -0.2585  1.4582
  254ACOH    H410925   8.526   4.971   1.993 -0.7027 -0.6968  0.6996
  254ACOH    O210926   8.528   5.054   2.044 -0.1185 -0.0487 -0.3654
  254ACOH    C210927   8.450   5.149   1.989  0.9030  0.2840  0.8436
  254ACOH    O110928   8.364   5.133   1.902 -0.2721  0.4115 -0.0354
  254ACOH    C110929   8.458   5.276   2.067 -0.2852 -0.0703  0.3324
  254ACOH    H110930   8.379   5.271   2.142  0.6999 -1.3288  1.3168
  254ACOH    H210931   8.445   5.358   1.997 -2.1948 -0.7248 -0.1099
  254ACOH    H310932   8.558   5.290   2.108 -0.6360  0.1065  1.1386
  255ACOH    H410933   5.533   2.279   5.628 -0.8031 -0.0203 -2.0434
  255ACOH    O210934   5.541   2.371   5.597 -0.4092  0.4426 -0.6023
  255ACOH    C210935   5.674   2.398   5.590  0.1227 -0.5599 -0.7214
  255ACOH    O110936   5.766   2.320   5.609  0.5900  0.0222 -0.0328
  255ACOH    C110937   5.703   2.542   5.590 -0.3938 -0.3373  0.5959
  255ACOH    H110938   5.773   2.566   5.510  0.5763 -0.5058  1.3822
  255ACOH    H210939   5.756   2.573   5.681  0.1381  0.9960 -0.1562
  255ACOH    H310940   5.613   2.603   5.579  0.6748  0.5544 -4.0399
  256ACOH    H410941   3.236   5.216   7.217  2.6086  1.0575  1.4188
  256ACOH    O210942   3.272   5.193   7.130 -0.6649  0.1660  0.2262
  256ACOH    C210943   3.408   5.206   7.142  0.2080  0.7494  0.3234
  256ACOH    O110944   3.468   5.254   7.240  0.2065  0.0075  1.2883
  256ACOH    C110945   3.475   5.159   7.018  0.2702  0.2052  0.1768
  256ACOH    H110946   3.529   5.065   7.031 -1.4251 -0.5586  1.9267
  256ACOH    H210947   3.548   5.237   6.997 -0.2384  0.2629 -1.4510
  256ACOH    H310948   3.395   5.146   6.945 -0.4500  1.1216  0.7748
  257ACOH    H410949   2.677   7.807   6.683 -2.1709  0.8678  0.2312
  257ACOH    O210950   2.678   7.735   6.747 -0.1573  0.5964 -0.0479
  257ACOH    C210951   2.784   7.736   6.830  0.3632 -0.5084 -0.1301
  257ACOH    O110952   2.877   7.815   6.824 -0.5495 -0.1385 -0.3327
  257ACOH    C110953   2.780   7.638   6.942 -0.3387 -0.7149 -0.0585
  257ACOH    H110954   2.864   7.646   7.011  0.0486  0.2890 -0.6368
  257ACOH    H210955   2.778   7.536   6.903  1.2420 -0.6983 -0.2057
  257ACOH    H310956   2.687   7.652   6.997  0.3851  0.7978  0.7911
  258ACOH    H410957   6.287   2.282   5.687 -0.4312  1.5879  2.3289
  258ACOH    O210958   6.225   2.332   5.632  0.5228  0.3606  0.0379
  258ACOH    C210959   6.290   2.395   5.531  0.2440  0.1720  0.6027
  258ACOH    O110960   6.411   2.424   5.533  0.3187  0.0531  1.1194
  258ACOH    C110961   6.196   2.445   5.428 -0.3211 -0.1324  0.3215
  258ACOH    H110962   6.094   2.414   5.453 -0.5822 -0.0580 -0.6296
  258ACOH    H210963   6.224   2.405   5.331  0.2675  1.6690 -0.2805
  258ACOH    H310964   6.201   2.554   5.424  3.4840 -0.1986  1.4840
  259ACOH    H410965   9.729   0.917   4.186  3.4933  1.2876 -1.6668
  259ACOH    O210966   9.766   0.828   4.187  0.6908  0.0735 -0.5217
  259ACOH    C210967   9.824   0.811   4.064 -0.8086 -0.5616  0.2308
  259ACOH    O110968   9.762   0.853   3.968  0.5026 -0.2132 -0.3465
  259ACOH    C110969   9.892   0.684   4.056 -0.5528  1.2775  0.3104
  259ACOH    H110970   9.836   0.604   4.104 -1.7851 -0.2955 -3.5551
  259ACOH    H210971   9.990   0.699   4.102 -0.8085 -0.5957  1.4894
  259ACOH    H310972   9.898   0.656   3.950  1.6459 -1.2459  1.0472
  260ACOH    H410973   6.066   0.792   5.886  1.3145 -0.6189  0.5999
  260ACOH    O210974   6.042   0.732   5.959 -0.5276 -0.3609  0.2510
  260ACOH    C210975   6.153   0.728   6.034  0.0456 -0.0850  0.2163
  260ACOH    O110976   6.266   0.769   6.013  0.0296  0.1151  0.1107
  260ACOH    C110977   6.129   0.641   6.155  0.4762  0.2779  0.3872
  260ACOH    H110978   6.215   0.576   6.172 -0.4871 -1.4206 -1.0921
  260ACOH    H210979   6.037   0.586   6.138  1.8764 -2.0632  0.1999
  260ACOH    H310980   6.118   0.710   6.239  1.1708  1.6534 -0.6109
  261ACOH    H410981   4.636   2.192   3.571 -0.6653  0.6339 -0.0653
  261ACOH    O210982   4.570   2.213   3.639 -0.4737  0.1662  0.2716
  261ACOH    C210983   4.611   2.330   3.697  0.3397 -0.0953 -0.0559
  261ACOH    O110984   4.695   2.410   3.652  0.3564  0.6211 -0.5314
  261ACOH    C110985   4.523   2.375   3.809  0.3068 -0.3071 -0.2996
  261ACOH    H110986   4.590   2.411   3.887 -1.8722 -2.4857  2.7248
  261ACOH    H210987   4.457   2.297   3.847  1.5110 -1.0721  0.2464
  261ACOH    H310988   4.465   2.453   3.758  0.6983  0.8823  1.0401
  262ACOH    H410989   7.637   8.161   7.305 -1.0658 -3.4331 -0.0680
  262ACOH    O210990   7.633   8.179   7.400 -0.2382  0.0382 -0.6559
  262ACOH    C210991   7.674   8.063   7.456  0.4326  0.1896  0.0096
  262ACOH    O110992   7.660   7.951   7.411 -0.0294  0.1871 -0.4806
  262ACOH    C110993   7.725   8.076   7.592 -0.1164  0.2341  0.2517
  262ACOH    H110994   7.828   8.044   7.575 -0.0012 -0.1580  1.6424
  262ACOH    H210995   7.676   8.006   7.660 -1.0480  1.3506  0.7335
  262ACOH    H310996   7.725   8.179   7.626  1.6490 -0.2145  1.6983
  263ACOH    H410997   4.685   4.549   5.505 -0.8566  0.8367 -1.5820
  263ACOH    O210998   4.607   4.494   5.524 -0.1737  0.3672 -0.1025
  263ACOH    C210999   4.530   4.571   5.609 -0.5048 -0.1727 -0.4090
  263ACOH    O111000   4.572   4.673   5.662  0.3272 -0.6383  0.1461
  263ACOH    C111001   4.398   4.510   5.636  1.3318  0.4554  0.0181
  263ACOH    H111002   4.315   4.577   5.614  0.8312 -0.5536 -1.2896
  263ACOH    H211003   4.386   4.467   5.735  0.6007  1.5000  0.3898
  263ACOH    H311004   4.391   4.433   5.559 -0.3220  3.8508 -3.4237
  264ACOH    H411005   4.603   3.337   4.548  1.5904 -1.3231 -0.9003
  264ACOH    O211006   4.588   3.376   4.460 -0.3622  0.2349  0.0906
  264ACOH    C211007   4.653   3.306   4.362  0.0596  0.0241  0.6630
  264ACOH    O111008   4.733   3.215   4.374  0.1756  0.8243  0.2390
  264ACOH    C111009   4.615   3.364   4.232 -0.6465  0.0472  1.1428
  264ACOH    H111010   4.506   3.362   4.223 -0.6267 -0.8774  1.0792
  264ACOH    H211011   4.645   3.294   4.154  4.7350  0.4979  2.6238
  264ACOH    H311012   4.639   3.469   4.216 -1.5438 -0.0741 -1.1363
  265ACOH    H411013   7.686   5.279   4.475 -2.0552 -0.8010 -0.6027
  265ACOH    O211014   7.705   5.184   4.465  0.1175 -0.4799  0.1556
  265ACOH    C211015   7.765   5.153   4.586  0.0054 -0.4513  0.3487
  265ACOH    O111016   7.778   5.224   4.685 -0.0173  0.0925  0.3809
  265ACOH    C111017   7.795   5.007   4.587  0.5441 -0.5537 -0.6415
  265ACOH    H111018   7.818   4.980   4.691  0.6925  3.1856  0.3495
  265ACOH    H211019   7.879   4.978   4.525  3.0704  1.0007  1.9335
  265ACOH    H311020   7.710   4.944   4.558 -0.4819  0.2043  0.6292
  266ACOH    H411021   7.444   6.020   3.177 -1.5099  1.5791 -0.8859
  266ACOH    O211022   7.378   6.017   3.248 -0.1402 -0.1417  0.3730
  266ACOH    C211023   7.319   6.135   3.252  0.6487  0.3796  0.5939
  266ACOH    O111024   7.334   6.223   3.170  0.2839 -0.5440  0.2320
  266ACOH    C111025   7.246   6.147   3.379 -0.0615  0.1447  0.2129
  266ACOH    H111026   7.181   6.061   3.398  1.1777 -1.2851 -1.8219
  266ACOH    H211027   7.177   6.229   3.361 -0.7745 -0.7784 -1.3273
  266ACOH    H311028   7.304   6.172   3.468 -2.5320  3.0145  1.0880
  267ACOH    H411029   5.331   9.463   3.542 -1.5424 -0.2012 -0.1451
  267ACOH    O211030   5.309   9.460   3.636 -0.3200 -0.2343  0.1491
  267ACOH    C211031   5.403   9.514   3.710  0.0056 -0.1607 -0.5185
  267ACOH    O111032   5.480   9.603   3.667 -0.1082  0.3633 -0.1284
  267ACOH    C111033   5.385   9.502   3.855 -0.0625  0.5517 -0.5234
  267ACOH    H111034   5.464   9.563   3.899  1.0511 -0.6595 -0.8150
  267ACOH    H211035   5.390   9.396   3.882  1.6753  1.1067  1.5071
  267ACOH    H311036   5.292   9.554   3.879 -0.3782  0.2772 -1.1563
  268ACOH    H411037   4.399   4.439   3.566 -0.8291  0.9052  1.2336
  268ACOH    O211038   4.475   4.491   3.599  0.5062  0.1171 -0.5123
  268ACOH    C211039   4.518   4.431   3.711  0.2938 -0.0922 -0.2703
  268ACOH    O111040   4.468   4.334   3.769 -0.0879  0.3274  0.3215
  268ACOH    C111041   4.640   4.503   3.757  0.2130 -0.2832  0.5046
  268ACOH    H111042   4.725   4.487   3.691  0.3259 -0.1098  0.6069
  268ACOH    H211043   4.667   4.466   3.856 -1.0428  0.8048  1.2698
  268ACOH    H311044   4.626   4.611   3.761  2.2457 -0.0739  3.5425
  269ACOH    H411045   5.459   9.019   1.313  0.1034  0.3233  0.3845
  269ACOH    O211046   5.466   8.930   1.350 -0.2805  0.1446  0.0189
  269ACOH    C211047   5.600   8.919   1.359  0.4095 -1.0725  0.5172
  269ACOH    O111048   5.681   8.996   1.399 -0.4198  0.3651  0.1086
  269ACOH    C111049   5.632   8.773   1.341  0.8338 -0.3044 -0.0622
  269ACOH    H111050   5.731   8.767   1.297  1.1791  0.8310  0.5437
  269ACOH    H211051   5.562   8.718   1.279  1.5590 -0.9733 -0.2981
  269ACOH    H311052   5.633   8.721   1.437 -0.6378  3.8364  2.3532
  270ACOH    H411053   7.304   0.359   7.735  0.6838 -0.0094 -0.2142
  270ACOH    O211054   7.296   0.263   7.750 -0.7737  0.0390 -0.5776
  270ACOH    C211055   7.379   0.210   7.654 -0.5206 -0.2997 -0.7447
  270ACOH    O111056   7.416   0.265   7.551 -0.2988  0.0376 -0.1899
  270ACOH    C111057   7.398   0.066   7.671  0.2498 -0.0125  0.2493
  270ACOH    H111058   7.505   0.047   7.687  0.2986 -1.1468 -1.2504
  270ACOH    H211059   7.366   0.018   7.578 -1.4553  0.7665  0.4195
  270ACOH    H311060   7.344   0.031   7.759  1.0122 -0.5054  0.5300
  271ACOH    H411061   6.156   5.110   2.084  0.4586 -1.1254 -0.3342
  271ACOH    O211062   6.226   5.156   2.132 -0.3143 -0.7743  0.4807
  271ACOH    C211063   6.278   5.252   2.051  0.6476  0.4753 -0.5920
  271ACOH    O111064   6.267   5.264   1.931 -0.5394 -0.6123 -0.1950
  271ACOH    C111065   6.363   5.354   2.130  0.4498 -0.7079 -0.0875
  271ACOH    H111066   6.357   5.457   2.096 -1.9766  0.1217  2.6072
  271ACOH    H211067   6.468   5.324   2.137 -0.1633 -3.0426 -0.4028
  271ACOH    H311068   6.334   5.353   2.235 -1.4063  0.5336 -0.5678
  272ACOH    H411069   5.180   4.967   5.523 -0.9023 -1.0098 -0.0887
  272ACOH    O211070   5.117   5.022   5.572  0.4544  0.7950 -0.3345
  272ACOH    C211071   5.039   4.934   5.635 -0.5768  0.1372 -0.7389
  272ACOH    O111072   5.047   4.811   5.642 -0.1952 -0.5107 -0.2298
  272ACOH    C111073   4.934   5.007   5.708 -0.5287 -0.1053 -0.6309
  272ACOH    H111074   4.982   5.057   5.792  2.6449 -2.2464 -1.0968
  272ACOH    H211075   4.854   4.946   5.749 -0.0758  0.2097  0.7152
  272ACOH    H311076   4.890   5.079   5.637 -1.0700  2.2078  1.9750
  273ACOH    H411077   6.087   6.648   0.566 -0.2295  0.2295 -1.5234
  273ACOH    O211078   6.139   6.730   0.573  0.1111 -0.1557  0.7440
  273ACOH    C211079   6.234   6.735   0.673  0.2289  0.3382 -0.5789
  273ACOH    O111080   6.262   6.636   0.737 -0.3276  0.0455  0.3297
  273ACOH    C111081   6.260   6.880   0.702  0.1477 -0.3834  0.0936
  273ACOH    H111082   6.342   6.876   0.774  1.4792  0.1510 -1.3690
  273ACOH    H211083   6.174   6.926   0.749 -0.1799 -0.0624 -0.8139
  273ACOH    H311084   6.297   6.938   0.617 -0.2356  1.5508  1.2062
  274ACOH    H411085   5.654   2.263   1.416  0.7494  0.2401 -1.9577
  274ACOH    O211086   5.584   2.215   1.368 -0.8803  0.2122  0.3702
  274ACOH    C211087   5.533   2.302   1.278  0.0134 -0.2729  0.7765
  274ACOH    O111088   5.574   2.420   1.258  0.8012 -0.1521  0.7010
  274ACOH    C111089   5.438   2.233   1.187  0.0794 -0.4387 -0.0950
  274ACOH    H111090   5.429   2.294   1.097 -0.1516  0.1309  0.3099
  274ACOH    H211091   5.337   2.218   1.225  0.1635 -0.0968  0.2620
  274ACOH    H311092   5.470   2.136   1.148  0.3940 -0.4944  0.3041
  275ACOH    H411093   2.441   9.537   3.574 -0.7395  1.9420 -0.0416
  275ACOH    O211094   2.373   9.524   3.641 -0.4735 -0.3021 -0.1721
  275ACOH    C211095   2.342   9.639   3.701  0.3411  0.0860 -0.0768
  275ACOH    O111096   2.397   9.745   3.674  0.1180  0.0134 -0.3006
  275ACOH    C111097   2.248   9.627   3.812  0.6096  0.3791 -0.0549
  275ACOH    H111098   2.173   9.706   3.803 -1.1140 -1.1872  0.1746
  275ACOH    H211099   2.303   9.639   3.906  0.4295 -2.2352  0.4245
  275ACOH    H311100   2.195   9.532   3.812  2.3737 -0.6186  0.0297
  276ACOH    H411101   4.725   6.013   7.837 -2.0549  0.7394 -3.7733
  276ACOH    O211102   4.805   6.053   7.800 -0.2007  0.3249 -0.4460
  276ACOH    C211103   4.820   6.175   7.840  0.3557 -0.2782  0.6102
  276ACOH    O111104   4.742   6.237   7.906  0.2282 -0.2791  0.5491
  276ACOH    C111105   4.929   6.245   7.767  0.4893  0.0229  0.2055
  276ACOH    H111106   4.963   6.335   7.816  0.6702 -0.1470  0.3889
  276ACOH    H211107   4.886   6.262   7.668  0.8852  1.6073  0.2992
  276ACOH    H311108   5.011   6.173   7.767  0.9998  0.6000  0.6209
  277ACOH    H411109   5.500   3.026   4.211  3.3746  1.9825  0.4533
  277ACOH    O211110   5.541   2.966   4.147 -0.1450 -0.3128  0.1579
  277ACOH    C211111   5.451   2.889   4.096 -0.5929  0.4846  0.0046
  277ACOH    O111112   5.352   2.845   4.152 -0.0051  0.2157  0.2634
  277ACOH    C111113   5.495   2.838   3.964 -0.5352 -0.3503 -0.2524
  277ACOH    H111114   5.419   2.767   3.933  0.4258 -1.6063  0.2316
  277ACOH    H211115   5.588   2.781   3.978  1.2979  2.6787  0.3623
  277ACOH    H311116   5.503   2.911   3.884  0.4613 -1.3593 -1.0954
  278ACOH    H411117   4.487   5.861   3.898 -0.2835 -0.1492  0.9275
  278ACOH    O211118   4.546   5.785   3.884 -0.1624  0.1595 -0.3042
  278ACOH    C211119   4.477   5.664   3.898 -0.3082  0.1252  0.2761
  278ACOH    O111120   4.361   5.664   3.931  0.0297 -0.2787 -0.2312
  278ACOH    C111121   4.534   5.547   3.825 -1.0299 -0.6226  0.2456
  278ACOH    H111122   4.535   5.451   3.876  0.1502 -2.1045 -2.4591
  278ACOH    H211123   4.632   5.579   3.790 -0.8615 -0.6477  0.6828
  278ACOH    H311124   4.479   5.536   3.731 -0.1315  1.5965 -0.5711
  279ACOH    H411125   8.909   7.218   0.639 -1.1637  0.4696 -0.5032
  279ACOH    O211126   8.931   7.193   0.548  0.2865  0.0600 -0.0557
  279ACOH    C211127   8.905   7.298   0.462  0.5047  0.3356 -0.2211
  279ACOH    O111128   8.883   7.416   0.476  0.2250 -0.2838 -0.1857
  279ACOH    C111129   8.942   7.241   0.328 -0.2774 -0.0815  0.4529
  279ACOH    H111130   8.888   7.149   0.307 -0.0353  0.0638 -0.8438
  279ACOH    H211131   9.046   7.208   0.332  0.2973  1.6822  0.5641
  279ACOH    H311132   8.933   7.315   0.248  0.7624 -0.4234  0.0109
  280ACOH    H411133   4.700   5.816   3.181 -0.5645 -1.6109  1.7840
  280ACOH    O211134   4.796   5.826   3.186 -0.4552 -0.7632 -0.9072
  280ACOH    C211135   4.821   5.695   3.209  0.0483 -0.2341  0.3787
  280ACOH    O111136   4.754   5.597   3.186  0.5580 -0.2938 -0.1187
  280ACOH    C111137   4.958   5.682   3.261  0.4536 -0.1842 -0.1116
  280ACOH    H111138   5.010   5.778   3.255 -0.4449  0.2902 -0.3514
  280ACOH    H211139   5.015   5.599   3.220  0.9860 -0.4730  1.1903
  280ACOH    H311140   4.942   5.657   3.366  2.3750  1.6524  0.6643
  281ACOH    H411141   5.349   3.213   4.282 -0.3964  0.6113  1.8404
  281ACOH    O211142   5.391   3.136   4.324  0.2392  0.1023  0.2820
  281ACOH    C211143   5.305   3.097   4.422  0.7675 -0.5936 -0.4564
  281ACOH    O111144   5.189   3.079   4.398 -0.1428  0.7485 -0.5653
  281ACOH    C111145   5.369   3.016   4.529  0.5108  0.6945  0.3360
  281ACOH    H111146   5.356   3.067   4.625  0.4126  0.7712  0.2825
  281ACOH    H211147   5.477   3.005   4.536  0.3111 -0.7802  1.0749
  281ACOH    H311148   5.332   2.914   4.529  3.4549 -0.4007  0.6032
  282ACOH    H411149   3.030   2.137   5.286 -1.0332 -0.2798 -0.7586
  282ACOH    O211150   3.083   2.154   5.206  0.4151 -0.3766  0.1617
  282ACOH    C211151   3.007   2.243   5.138 -0.1882  0.0393  0.4597
  282ACOH    O111152   2.885   2.255   5.148 -0.5009  0.1115  0.4824
  282ACOH    C111153   3.079   2.297   5.017 -0.0319  0.4088 -1.3218
  282ACOH    H111154   3.149   2.219   4.986 -0.1128 -0.0005 -0.4901
  282ACOH    H211155   3.140   2.385   5.038 -0.1141 -0.1069  1.3127
  282ACOH    H311156   3.002   2.313   4.942  0.1411  1.8050 -1.2101
  283ACOH    H411157   5.472   1.149   2.769 -2.2023  1.7566 -0.0850
  283ACOH    O211158   5.533   1.195   2.829 -0.5666 -0.4622  0.0317
  283ACOH    C211159   5.483   1.324   2.849  0.9255  0.3964 -0.3442
  283ACOH    O111160   5.364   1.349   2.815  0.4567  0.0262 -0.3550
  283ACOH    C111161   5.572   1.413   2.928 -0.2916  0.2748  0.7489
  283ACOH    H111162   5.661   1.437   2.870 -0.3394 -2.4777 -0.5157
  283ACOH    H211163   5.606   1.359   3.016 -0.9796 -0.7549  0.3819
  283ACOH    H311164   5.517   1.501   2.962  2.6310  1.8255  1.6310
  284ACOH    H411165   7.120   8.145   2.437  1.0765  1.6393 -1.1976
  284ACOH    O211166   7.084   8.114   2.352  0.5970  0.2275 -0.4974
  284ACOH    C211167   7.051   8.226   2.282 -0.7309 -1.0384 -0.3965
  284ACOH    O111168   7.039   8.342   2.315  0.2020 -0.1406 -0.0288
  284ACOH    C111169   7.029   8.196   2.140  0.4907 -0.2674 -0.2044
  284ACOH    H111170   6.943   8.254   2.109  0.8187 -0.5080 -1.5969
  284ACOH    H211171   7.003   8.090   2.135  0.2484 -0.1971 -0.4240
  284ACOH    H311172   7.118   8.212   2.079 -0.2794  0.7645 -1.0617
  285ACOH    H411173   6.586   8.165   4.239  1.8702 -0.3488  0.3891
  285ACOH    O211174   6.621   8.229   4.175  0.1480  0.1898 -0.0364
  285ACOH    C211175   6.584   8.194   4.050  0.0268 -0.7418  0.0348
  285ACOH    O111176   6.527   8.091   4.024 -0.1998 -0.2722  0.1409
  285ACOH    C111177   6.611   8.300   3.952  0.5403 -0.3702  0.7625
  285ACOH    H111178   6.569   8.267   3.857 -1.2731  1.6436  0.8424
  285ACOH    H211179   6.720   8.305   3.940  0.3004  0.5764 -1.1570
  285ACOH    H311180   6.568   8.395   3.982  1.3577 -0.4739  2.3344
  286ACOH    H411181   7.207   7.153   2.638  1.9847  0.2773  1.7992
  286ACOH    O211182   7.204   7.062   2.673 -0.5823 -0.3290  0.1140
  286ACOH    C211183   7.080   7.061   2.726 -0.3243 -0.0404 -0.4957
  286ACOH    O111184   6.990   7.143   2.694 -0.1933  0.4401  0.3360
  286ACOH    C111185   7.055   6.931   2.790 -0.0981 -0.7267  0.2170
  286ACOH    H111186   6.952   6.917   2.825 -0.2384  0.9765  0.5652
  286ACOH    H211187   7.120   6.925   2.877 -0.0120 -0.1297  0.1995
  286ACOH    H311188   7.082   6.841   2.737 -0.6056 -0.7409 -0.0184
  287ACOH    H411189   9.589   2.359   0.052 -0.7330  1.7101 -0.8230
  287ACOH    O211190   9.515   2.302   0.027  0.0410  0.1861  0.2796
  287ACOH    C211191   9.428   2.387  -0.026 -0.0543 -0.0096 -0.2258
  287ACOH    O111192   9.427   2.503  -0.017  0.1700 -0.0794 -0.8889
  287ACOH    C111193   9.299   2.324  -0.073 -0.0026  0.0288 -0.1912
  287ACOH    H111194   9.291   2.304  -0.180  0.2467 -0.5602 -0.1010
  287ACOH    H211195   9.215   2.387  -0.045 -1.9597 -2.4827 -0.2572
  287ACOH    H311196   9.294   2.231  -0.018  0.5138 -0.2246 -0.5674
  288ACOH    H411197   0.751   8.181   5.065 -1.8471  1.3132  3.0025
  288ACOH    O211198   0.685   8.226   5.011 -0.0596  0.4160 -0.0701
  288ACOH    C211199   0.571   8.195   5.079  0.1802  0.2459 -0.0666
  288ACOH    O111200   0.558   8.108   5.161 -0.2228 -0.5771 -0.0612
  288ACOH    C111201   0.449   8.232   5.002  1.1409  0.1931 -0.2808
  288ACOH    H111202   0.354   8.183   5.020  1.3193 -0.7452 -1.8575
  288ACOH    H211203   0.473   8.224   4.896  0.4131 -1.7265 -0.3118
  288ACOH    H311204   0.444   8.338   5.028 -0.7649 -0.4609  2.1476
  289ACOH    H411205   0.340   5.684   1.627  0.5644 -0.7177  1.7519
  289ACOH    O211206   0.336   5.609   1.566  0.1576  0.8948 -0.2383
  289ACOH    C211207   0.370   5.652   1.446 -0.2443 -0.0249 -0.4288
  289ACOH    O111208   0.401   5.762   1.411 -0.2185  0.2144 -0.0522
  289ACOH    C111209   0.368   5.536   1.353 -0.2221  0.6452 -0.5047
  289ACOH    H111210   0.427   5.460   1.405 -0.2077  0.9027 -0.1401
  289ACOH    H211211   0.409   5.564   1.256  0.7707  3.1710  0.5815
  289ACOH    H311212   0.266   5.501   1.335 -0.1657  1.4310 -2.4248
  290ACOH    H411213   3.782   3.779   3.979 -0.5480 -0.9824 -0.3762
  290ACOH    O211214   3.825   3.719   4.042  0.0700  0.0616  0.1990
  290ACOH    C211215   3.718   3.645   4.077 -1.3098  0.3468 -0.1874
  290ACOH    O111216   3.602   3.667   4.047 -0.5660 -0.0755 -0.4146
  290ACOH    C111217   3.748   3.569   4.200 -0.2501  0.5273 -0.2091
  290ACOH    H111218   3.737   3.462   4.185  1.5049  0.4402 -1.0545
  290ACOH    H211219   3.671   3.589   4.274 -0.2140 -2.1994  0.6174
  290ACOH    H311220   3.848   3.588   4.240  0.2810 -2.1840 -0.1675
  291ACOH    H411221   3.430   7.229   6.795 -0.7087 -1.1788  0.7667
  291ACOH    O211222   3.456   7.163   6.728 -0.6754 -0.1462 -0.2532
  291ACOH    C211223   3.408   7.192   6.608 -0.2048 -0.2434 -0.2295
  291ACOH    O111224   3.372   7.299   6.572  0.0749  0.2386  0.2430
  291ACOH    C111225   3.461   7.092   6.508 -0.5100  0.1943 -0.5011
  291ACOH    H111226   3.570   7.095   6.502 -0.5963 -0.3995 -2.6945
  291ACOH    H211227   3.414   7.111   6.412  2.9037  1.6779 -1.9537
  291ACOH    H311228   3.433   6.996   6.550 -0.7834  0.8184  0.7882
  292ACOH    H411229   8.591   8.703   7.789  1.5050  1.0879 -1.2286
  292ACOH    O211230   8.579   8.778   7.850 -0.1272 -0.2789  0.1681
  292ACOH    C211231   8.520   8.874   7.774  0.0654  0.3397 -0.1076
  292ACOH    O111232   8.496   8.874   7.655  0.2392  0.1140  0.8728
  292ACOH    C111233   8.486   8.992   7.859  0.0925 -0.3138 -0.2643
  292ACOH    H111234   8.563   9.068   7.850  1.5542 -1.8693 -1.3671
  292ACOH    H211235   8.493   8.967   7.965  1.2364  2.3613  0.3275
  292ACOH    H311236   8.387   9.034   7.839  0.9403  1.8579  0.0241
  293ACOH    H411237   1.969   5.951   3.474 -2.0268  2.2247  3.1658
  293ACOH    O211238   1.958   5.872   3.529  0.3695 -0.0096  0.6087
  293ACOH    C211239   1.859   5.910   3.615  0.3215 -0.0100 -0.1256
  293ACOH    O111240   1.821   6.023   3.628  0.2861  0.4642  0.4172
  293ACOH    C111241   1.834   5.813   3.723  0.3148  0.2067 -0.5670
  293ACOH    H111242   1.916   5.746   3.747 -2.8191 -3.2962  0.9293
  293ACOH    H211243   1.742   5.755   3.709  0.2342 -0.0278  0.8406
  293ACOH    H311244   1.812   5.871   3.812  0.0179 -0.0802 -0.4505
  294ACOH    H411245   7.279   3.618   3.238 -0.1992 -1.7009 -1.0857
  294ACOH    O211246   7.226   3.614   3.319  0.3056 -0.3922 -0.6686
  294ACOH    C211247   7.157   3.497   3.322 -0.5218 -0.2235 -0.5778
  294ACOH    O111248   7.136   3.423   3.228  0.2422 -0.1575  0.1638
  294ACOH    C111249   7.091   3.479   3.457  0.4149 -0.1509 -0.1990
  294ACOH    H111250   7.155   3.525   3.533  0.7304 -0.3873 -0.3190
  294ACOH    H211251   7.076   3.375   3.488 -2.5396  0.9580  2.3798
  294ACOH    H311252   6.996   3.531   3.462  1.1308  1.0820  0.7012
  295ACOH    H411253   4.883   4.452   4.687 -0.2608 -1.1822 -1.4828
  295ACOH    O211254   4.925   4.511   4.622  0.4782 -0.0347 -0.0108
  295ACOH    C211255   4.899   4.453   4.506 -0.3436  0.1180 -0.2968
  295ACOH    O111256   4.852   4.340   4.480 -0.5509 -0.0204  0.3340
  295ACOH    C111257   4.951   4.536   4.396  0.0027  0.1088  0.3339
  295ACOH    H111258   5.059   4.523   4.401  0.0208  1.0336  3.0222
  295ACOH    H211259   4.922   4.640   4.414  2.2006  0.8395 -0.2224
  295ACOH    H311260   4.919   4.504   4.297  0.0845 -1.0197  0.6726
  296ACOH    H411261   4.599   7.192   6.220  0.2152 -0.9010  0.2302
  296ACOH    O211262   4.690   7.160   6.207  0.4902 -0.0095 -0.0529
  296ACOH    C211263   4.777   7.226   6.284 -0.3090 -0.7616  1.0708
  296ACOH    O111264   4.747   7.324   6.349 -1.0403 -0.5302  0.0894
  296ACOH    C111265   4.901   7.148   6.286 -0.3600  0.6971 -0.4949
  296ACOH    H111266   4.976   7.222   6.313  1.5807 -0.9645 -1.1673
  296ACOH    H211267   4.926   7.107   6.188 -2.0722 -0.4582 -0.4846
  296ACOH    H311268   4.889   7.064   6.355  0.8998  1.5965  0.8528
  297ACOH    H411269   8.844   2.591   5.042 -0.5523 -2.4853  0.9545
  297ACOH    O211270   8.757   2.611   5.080 -0.4876 -0.2437 -0.0547
  297ACOH    C211271   8.781   2.617   5.212  0.1994  0.2769 -0.4423
  297ACOH    O111272   8.879   2.600   5.274 -0.3136  0.0778 -0.4485
  297ACOH    C111273   8.661   2.670   5.277 -0.3987 -0.4042  0.1660
  297ACOH    H111274   8.577   2.618   5.232 -0.0436 -0.3987 -0.5055
  297ACOH    H211275   8.645   2.776   5.259  2.4549 -0.2544 -1.9338
  297ACOH    H311276   8.669   2.652   5.385 -0.8275  2.2035  0.6776
  298ACOH    H411277   7.186   2.374   6.316  0.2032  0.2608  0.5212
  298ACOH    O211278   7.122   2.317   6.363 -0.3589  0.3819 -0.0921
  298ACOH    C211279   7.200   2.237   6.437 -0.3338 -0.3580 -0.2810
  298ACOH    O111280   7.317   2.258   6.457  0.0314 -0.7932  0.6202
  298ACOH    C111281   7.121   2.122   6.478 -0.0821 -0.3208  0.0157
  298ACOH    H111282   7.062   2.145   6.567 -0.1783  2.8693 -0.7993
  298ACOH    H211283   7.182   2.035   6.504 -1.0651 -2.1546 -3.4837
  298ACOH    H311284   7.058   2.085   6.397 -0.4956  0.8901 -0.2185
  299ACOH    H411285   4.755   1.367   2.539 -0.4059  0.1413  0.1290
  299ACOH    O211286   4.820   1.416   2.592  0.2713 -0.1222 -0.4441
  299ACOH    C211287   4.933   1.340   2.600 -0.4013 -0.6994  0.5489
  299ACOH    O111288   4.951   1.227   2.551 -0.6518  0.2750 -0.8225
  299ACOH    C111289   5.036   1.393   2.693  0.0580 -0.1395  0.3739
  299ACOH    H111290   5.106   1.311   2.705 -0.7940 -0.9215  0.0379
  299ACOH    H211291   4.987   1.415   2.788  0.2381  0.2803  0.3727
  299ACOH    H311292   5.093   1.473   2.645  0.9742  0.7898  2.9106
  300ACOH    H411293   3.385   4.732   2.519 -1.5990  0.3806  2.0419
  300ACOH    O211294   3.353   4.809   2.470  0.4010 -0.0595 -0.0379
  300ACOH    C211295   3.278   4.767   2.362 -0.8981 -0.1284  0.1421
  300ACOH    O111296   3.264   4.653   2.323  0.0144  0.1599 -0.0919
  300ACOH    C111297   3.201   4.883   2.311 -0.4764  0.4308  0.1372
  300ACOH    H111298   3.161   4.868   2.210 -1.4617 -2.6856  0.9464
  300ACOH    H211299   3.263   4.973   2.313 -1.2626  0.9699  0.1618
  300ACOH    H311300   3.114   4.906   2.371 -1.1173 -0.4036 -0.4582
  301ACOH    H411301   3.909   4.737   5.769 -2.3633  0.8492  0.1065
  301ACOH    O211302   3.949   4.801   5.831  0.1635 -0.3420 -0.2373
  301ACOH    C211303   4.066   4.775   5.890 -0.2616 -0.0674  0.2627
  301ACOH    O111304   4.149   4.690   5.862 -0.2415 -0.1646  0.0195
  301ACOH    C111305   4.088   4.867   6.002  0.1637  0.2973 -0.8730
  301ACOH    H111306   4.106   4.966   5.961  1.4985  0.2265 -0.4720
  301ACOH    H211307   4.175   4.843   6.063  0.8115  1.0793 -1.4877
  301ACOH    H311308   4.000   4.854   6.065  0.1912 -0.5445 -0.9953
  302ACOH    H411309   9.657   2.980   6.223  1.1299 -1.6179  1.7630
  302ACOH    O211310   9.734   3.040   6.216  0.0318 -0.3841 -0.4779
  302ACOH    C211311   9.825   3.001   6.307 -0.1149  0.3252 -0.2452
  302ACOH    O111312   9.821   2.898   6.373 -0.5244  0.2976 -0.2127
  302ACOH    C111313   9.945   3.081   6.278 -0.5677 -0.3784  0.2829
  302ACOH    H111314   9.991   3.039   6.188 -1.3093 -1.2308  0.2862
  302ACOH    H211315  10.003   3.060   6.368 -0.9555  0.7923  0.8199
  302ACOH    H311316   9.936   3.189   6.269  1.3198 -0.1779  0.6670
  303ACOH    H411317   4.741   3.716   4.426  0.7365  0.5898  0.3337
  303ACOH    O211318   4.837   3.722   4.444  0.7281  0.1159  0.5350
  303ACOH    C211319   4.887   3.799   4.343  0.8700 -0.3465 -0.7335
  303ACOH    O111320   4.824   3.852   4.252  0.3378 -0.1766  0.6964
  303ACOH    C111321   5.031   3.805   4.365 -0.2404  0.2594  0.2943
  303ACOH    H111322   5.059   3.909   4.384 -1.8246  0.6854  0.3497
  303ACOH    H211323   5.079   3.764   4.276 -2.2900 -1.6059  0.0057
  303ACOH    H311324   5.058   3.741   4.449 -1.8715  1.7408  2.0070
  304ACOH    H411325   1.948   7.197   2.117  0.0886  0.2471  0.7464
  304ACOH    O211326   1.879   7.149   2.165 -0.1098 -0.0657  0.1459
  304ACOH    C211327   1.767   7.223   2.146 -0.2052 -0.2346  0.6746
  304ACOH    O111328   1.760   7.339   2.105 -0.6660  0.0959 -0.2376
  304ACOH    C111329   1.645   7.142   2.155 -0.2847  0.3141  0.3108
  304ACOH    H111330   1.657   7.061   2.083  2.0915 -0.1906  1.2336
  304ACOH    H211331   1.564   7.202   2.114 -0.3524  0.0037 -0.0109
  304ACOH    H311332   1.619   7.094   2.250 -1.7887 -0.6640 -0.5767
  305ACOH    H411333   4.361   3.951   3.613 -1.2173 -1.3055  0.6643
  305ACOH    O211334   4.400   3.898   3.542 -0.2067  0.0309  0.2010
  305ACOH    C211335   4.493   3.815   3.604 -0.2870 -0.4034 -0.4851
  305ACOH    O111336   4.496   3.788   3.723  0.0709  0.1011  0.0874
  305ACOH    C111337   4.569   3.743   3.498 -0.1818 -0.6018  0.0063
  305ACOH    H111338   4.675   3.759   3.522  0.0924 -1.2738 -0.7608
  305ACOH    H211339   4.549   3.781   3.398 -1.1293 -0.5380  0.2205
  305ACOH    H311340   4.553   3.636   3.489  0.4427 -0.5849 -1.3585
  306ACOH    H411341   5.595   9.255   0.722 -1.2821 -3.4049  2.1996
  306ACOH    O211342   5.621   9.204   0.644  0.1602 -0.8818  0.9734
  306ACOH    C211343   5.516   9.140   0.598 -0.1380 -0.3597 -0.1403
  306ACOH    O111344   5.403   9.151   0.628  0.1143 -0.1085  0.1196
  306ACOH    C111345   5.563   9.069   0.473 -0.5559  0.0947  0.4334
  306ACOH    H111346   5.648   9.121   0.430  0.2125 -0.3231  1.4497
  306ACOH    H211347   5.482   9.059   0.401 -1.3008 -0.5867  1.3571
  306ACOH    H311348   5.586   8.970   0.510 -1.0299 -0.5691 -1.0121
  307ACOH    H411349   3.787   5.191   6.016 -0.2756 -1.4030  1.3211
  307ACOH    O211350   3.849   5.233   6.078  0.0234 -0.4642  0.3972
  307ACOH    C211351   3.806   5.197   6.200  0.3722 -0.1735 -0.7951
  307ACOH    O111352   3.717   5.123   6.232  0.6536 -0.0698 -0.1559
  307ACOH    C111353   3.902   5.242   6.301 -0.5106 -0.4674 -0.1617
  307ACOH    H111354   3.932   5.344   6.275  1.7815 -1.2385 -0.6965
  307ACOH    H211355   3.986   5.174   6.284  0.9634  1.3231 -0.2230
  307ACOH    H311356   3.857   5.230   6.399  0.9795  1.9975  0.8801
  308ACOH    H411357   6.857   3.252   2.528  4.3653  0.9902 -1.0719
  308ACOH    O211358   6.853   3.349   2.525  0.1570  0.9122 -0.7438
  308ACOH    C211359   6.856   3.392   2.654 -0.1964 -0.2152  0.1378
  308ACOH    O111360   6.881   3.316   2.748 -0.0217 -0.3671  0.5748
  308ACOH    C111361   6.834   3.537   2.675 -0.1160  0.2793  0.0776
  308ACOH    H111362   6.931   3.573   2.710 -0.2156  0.3650  0.2675
  308ACOH    H211363   6.762   3.547   2.757 -1.4846  0.6727 -1.1516
  308ACOH    H311364   6.796   3.598   2.593 -0.4752 -1.3981 -1.0405
  309ACOH    H411365   4.533   2.751   3.771  0.4239  1.8181  1.2321
  309ACOH    O211366   4.589   2.767   3.693 -0.2403 -0.2498  0.2985
  309ACOH    C211367   4.569   2.896   3.654 -0.5804  0.5352  0.0313
  309ACOH    O111368   4.537   2.979   3.740  0.6706  0.1085  0.5020
  309ACOH    C111369   4.661   2.938   3.544 -0.6915  0.5604 -0.6923
  309ACOH    H111370   4.634   3.033   3.497  1.1190  0.9483 -0.9878
  309ACOH    H211371   4.661   2.859   3.468  1.5489 -0.2590  0.1436
  309ACOH    H311372   4.764   2.939   3.577 -0.5945 -0.0564 -0.9575
  310ACOH    H411373   2.870   2.390   2.670 -1.5661  4.2490  2.1811
  310ACOH    O211374   2.950   2.387   2.725  0.0642  0.3613 -0.1639
  310ACOH    C211375   2.903   2.365   2.849 -0.2344 -0.0617 -0.6104
  310ACOH    O111376   2.791   2.315   2.863 -1.0388  0.4882  0.4596
  310ACOH    C111377   3.019   2.351   2.932  0.0633 -0.2435  0.4552
  310ACOH    H111378   3.088   2.436   2.930  0.3346 -0.4892 -0.5876
  310ACOH    H211379   3.075   2.264   2.898  1.4179 -0.0622  2.1564
  310ACOH    H311380   2.997   2.334   3.038  3.0472  1.3115  1.3823
  311ACOH    H411381   4.461   2.321   2.166 -2.1260  0.2937 -1.8505
  311ACOH    O211382   4.552   2.329   2.131 -1.0700 -0.5552  0.5602
  311ACOH    C211383   4.644   2.322   2.232  0.1742 -0.1558 -0.4946
  311ACOH    O111384   4.614   2.349   2.345 -0.0619 -0.8465 -0.6159
  311ACOH    C111385   4.783   2.326   2.187  0.3500  0.4255  0.4096
  311ACOH    H111386   4.788   2.259   2.101 -1.9683 -1.5494  1.7228
  311ACOH    H211387   4.838   2.283   2.270  3.3959 -0.0232 -1.7607
  311ACOH    H311388   4.819   2.425   2.161  0.9828 -0.1661 -1.0207
  312ACOH    H411389   4.476   4.501   2.954  1.1066 -0.6440  1.7943
  312ACOH    O211390   4.403   4.523   3.015  0.1240  0.6291  0.2051
  312ACOH    C211391   4.351   4.634   2.977 -0.5004  0.1440  0.0188
  312ACOH    O111392   4.410   4.708   2.907  0.2788 -0.0407 -0.0750
  312ACOH    C111393   4.221   4.651   3.047  0.0389 -0.7638  0.4297
  312ACOH    H111394   4.156   4.729   3.007  1.4540 -0.4463 -1.3375
  312ACOH    H211395   4.240   4.679   3.151 -2.1932  0.5366  0.5284
  312ACOH    H311396   4.163   4.559   3.041  1.7401 -1.9019  1.1306
  313ACOH    H411397   5.899   7.294   3.011 -1.1101  1.5000 -1.0071
  313ACOH    O211398   5.865   7.235   2.941 -0.0445  0.0439 -0.3358
  313ACOH    C211399   5.790   7.136   3.004  0.2186  0.1214 -0.1844
  313ACOH    O111400   5.797   7.105   3.124 -0.2008 -0.8653 -0.3192
  313ACOH    C111401   5.721   7.039   2.915 -0.5905  0.2615 -0.3101
  313ACOH    H111402   5.783   6.952   2.893  1.3884  1.3446  0.8111
  313ACOH    H211403   5.687   7.100   2.831  1.9522  1.0407 -0.8199
  313ACOH    H311404   5.637   7.001   2.973 -0.7034 -0.1014 -0.7115
  314ACOH    H411405   7.008   4.827   2.273 -1.0163  0.3409  0.6734
  314ACOH    O211406   7.048   4.818   2.361  0.1638 -0.1442  0.0928
  314ACOH    C211407   7.104   4.698   2.359  0.1252  0.0953 -0.1948
  314ACOH    O111408   7.071   4.613   2.273  0.4782 -0.2223 -0.1772
  314ACOH    C111409   7.159   4.673   2.496 -0.0843  0.0547 -0.1847
  314ACOH    H111410   7.098   4.601   2.549 -0.6792  0.6121 -0.1066
  314ACOH    H211411   7.178   4.763   2.553  3.8567 -1.4018  0.9723
  314ACOH    H311412   7.261   4.642   2.471  0.2442  1.7878 -1.1105
  315ACOH    H411413   3.202   6.871   6.019 -0.4474 -0.3234  1.1340
  315ACOH    O211414   3.277   6.824   6.060  0.1897  0.2793  0.6907
  315ACOH    C211415   3.227   6.779   6.176  0.4525 -0.3180  0.1307
  315ACOH    O111416   3.117   6.732   6.199 -0.3021  0.1318  0.1632
  315ACOH    C111417   3.343   6.763   6.268 -0.0246 -0.0940 -0.0817
  315ACOH    H111418   3.319   6.693   6.348  0.8277 -1.0609 -0.6597
  315ACOH    H211419   3.363   6.861   6.312  0.0668  0.2453 -0.8849
  315ACOH    H311420   3.431   6.717   6.223  0.4728 -0.0065  0.7812
  316ACOH    H411421   4.015   8.089   7.913  0.7363 -0.8936  1.5344
  316ACOH    O211422   3.938   8.041   7.878  0.4331  0.8054 -0.2658
  316ACOH    C211423   3.851   8.137   7.835  0.0997  0.0021  0.4543
  316ACOH    O111424   3.841   8.246   7.882  0.6406 -0.3207  0.4485
  316ACOH    C111425   3.750   8.079   7.743 -0.4955 -0.2393  0.4132
  316ACOH    H111426   3.657   8.056   7.795 -2.2625  1.4291 -1.9145
  316ACOH    H211427   3.791   7.986   7.705  0.3461  0.8574 -1.4552
  316ACOH    H311428   3.724   8.135   7.654 -0.9559 -0.6510  0.2841
  317ACOH    H411429   7.021   9.219   2.625  0.2036  0.2009 -1.8341
  317ACOH    O211430   6.925   9.233   2.621  0.0833 -0.0209 -0.1197
  317ACOH    C211431   6.892   9.291   2.731 -0.0744  0.0029  0.0396
  317ACOH    O111432   6.930   9.249   2.840  0.2734 -0.2802  0.0927
  317ACOH    C111433   6.766   9.368   2.718  0.7916 -0.1282  0.4233
  317ACOH    H111434   6.720   9.401   2.812  2.5723  2.8865  0.2938
  317ACOH    H211435   6.691   9.314   2.660  1.3690  0.8974 -1.3255
  317ACOH    H311436   6.792   9.462   2.670 -0.3986  0.1712  0.3368
  318ACOH    H411437   9.931   8.795   7.088 -1.2731  0.6616  1.4224
  318ACOH    O211438   9.912   8.705   7.117  0.2219  0.1766  0.9502
  318ACOH    C211439  10.031   8.646   7.143  0.1457 -0.6341 -0.6029
  318ACOH    O111440  10.136   8.694   7.172 -0.1480 -0.0692  0.3851
  318ACOH    C111441  10.009   8.504   7.187 -0.0294 -0.1762  0.6317
  318ACOH    H111442  10.093   8.437   7.166  0.7248  0.4850  1.4750
  318ACOH    H211443   9.919   8.460   7.143  1.3496 -0.3764 -2.1488
  318ACOH    H311444  10.002   8.495   7.295 -1.3369 -0.6548  0.5125
  319ACOH    H411445   6.656   7.605   6.693  0.3344  0.1502  0.4700
  319ACOH    O211446   6.639   7.612   6.789  0.5759  0.5012  0.4896
  319ACOH    C211447   6.724   7.527   6.852 -0.4439  0.7048 -0.1428
  319ACOH    O111448   6.776   7.438   6.792 -0.4036  0.6396 -0.2286
  319ACOH    C111449   6.705   7.532   6.998  0.4551  0.0060 -0.2532
  319ACOH    H111450   6.608   7.575   7.021  0.2263 -0.5281 -0.2127
  319ACOH    H211451   6.778   7.594   7.051  0.4476  0.6635 -0.9936
  319ACOH    H311452   6.694   7.432   7.040 -1.2808  0.6226  0.8037
  320ACOH    H411453   7.986   3.314   6.570  1.8650  0.2136 -1.2024
  320ACOH    O211454   8.002   3.222   6.595 -0.3801  0.0384 -0.3247
  320ACOH    C211455   7.938   3.157   6.503  0.4143 -0.2240  0.3474
  320ACOH    O111456   7.893   3.204   6.399  0.4041 -0.3333 -0.0457
  320ACOH    C111457   7.945   3.016   6.532  0.0406  0.0746 -0.4231
  320ACOH    H111458   7.847   2.970   6.520  0.6940 -0.7105 -3.3184
  320ACOH    H211459   7.996   2.991   6.624  0.2382 -1.7653 -1.0104
  320ACOH    H311460   8.006   2.981   6.448 -2.0559  0.3847 -2.1264
  321ACOH    H411461   4.049   4.303   5.889  0.5451 -0.8448  1.6116
  321ACOH    O211462   4.073   4.261   5.804 -0.7375  0.1170  0.7588
  321ACOH    C211463   3.980   4.156   5.768  0.3617 -0.7372 -0.4566
  321ACOH    O111464   3.886   4.118   5.832  0.5900 -0.0728  0.0542
  321ACOH    C111465   4.012   4.104   5.634 -0.0204  0.8002 -0.5107
  321ACOH    H111466   3.920   4.103   5.575 -0.9075 -0.0502  0.8644
  321ACOH    H211467   4.047   4.000   5.634  1.7546  1.3600  1.2843
  321ACOH    H311468   4.087   4.169   5.589  0.2112  0.1981 -0.9924
  322ACOH    H411469   7.229   0.089   3.509 -1.3136  3.0084  1.7535
  322ACOH    O211470   7.143   0.043   3.507  0.4085 -0.3966  0.1274
  322ACOH    C211471   7.138  -0.055   3.413  0.4957 -0.3817 -0.3292
  322ACOH    O111472   7.216  -0.056   3.319 -0.0908 -0.0881  0.2187
  322ACOH    C111473   7.009  -0.121   3.408 -0.2234 -0.5739  0.0818
  322ACOH    H111474   6.963  -0.127   3.507  0.0087 -0.2274  0.2120
  322ACOH    H211475   7.032  -0.221   3.373 -0.3996 -0.7654  0.5021
  322ACOH    H311476   6.936  -0.071   3.344  0.1555  0.0532  0.1343
  323ACOH    H411477   9.280   2.241   7.527 -1.1044 -0.2178  1.1712
  323ACOH    O211478   9.256   2.150   7.554 -0.3835 -0.5695  0.6319
  323ACOH    C211479   9.243   2.077   7.442  0.7490 -0.4959  0.1389
  323ACOH    O111480   9.248   2.125   7.331 -0.3754  0.3257 -0.4313
  323ACOH    C111481   9.191   1.939   7.476  0.4876  0.2542 -0.0594
  323ACOH    H111482   9.267   1.880   7.527 -1.9513 -1.4259  1.7114
  323ACOH    H211483   9.170   1.893   7.379  2.0687 -0.0717 -0.2742
  323ACOH    H311484   9.098   1.946   7.531  0.5026  1.1707 -0.1313
  324ACOH    H411485   3.806   4.516   5.144  0.8272  0.7260  0.2659
  324ACOH    O211486   3.902   4.509   5.130  0.6971 -0.3476 -0.1389
  324ACOH    C211487   3.921   4.577   5.017  0.8950 -0.3444 -0.1336
  324ACOH    O111488   3.835   4.640   4.951 -0.1961 -0.2060 -0.5286
  324ACOH    C111489   4.057   4.559   4.952 -0.0217  0.7164  0.1205
  324ACOH    H111490   4.109   4.650   4.925  0.2041  0.5860  0.1109
  324ACOH    H211491   4.045   4.513   4.854  0.0689  1.4427 -0.2358
  324ACOH    H311492   4.122   4.500   5.017  1.1246  0.0122 -1.6089
  325ACOH    H411493   4.913   8.253   0.835  1.6222  1.1633 -1.7972
  325ACOH    O211494   4.940   8.160   0.831  0.0433  0.6197 -0.4212
  325ACOH    C211495   5.021   8.116   0.930  0.1342 -0.3513 -0.0782
  325ACOH    O111496   5.041   8.168   1.040  0.4511  0.1383 -0.1057
  325ACOH    C111497   5.070   7.980   0.893  0.5299  0.9707  0.5102
  325ACOH    H111498   4.984   7.923   0.857  1.7343 -0.0441 -0.8439
  325ACOH    H211499   5.124   7.934   0.976  1.5307 -0.3879 -0.8590
  325ACOH    H311500   5.136   7.987   0.806  0.5462 -0.4021  0.4047
  326ACOH    H411501   4.794   7.517   5.109 -0.4778 -0.1226 -0.2927
  326ACOH    O211502   4.835   7.497   5.195 -0.4763  0.0822 -0.2465
  326ACOH    C211503   4.752   7.418   5.265  0.1299 -0.5949  0.1701
  326ACOH    O111504   4.653   7.360   5.236  0.9536  0.1957  0.4135
  326ACOH    C111505   4.813   7.387   5.397  0.6535 -0.3186 -0.1542
  326ACOH    H111506   4.883   7.467   5.419  0.9285 -0.4514 -0.5451
  326ACOH    H211507   4.866   7.293   5.407 -2.5143 -2.2481 -0.6363
  326ACOH    H311508   4.736   7.386   5.474  3.3410 -1.9856  2.6274
  327ACOH    H411509   9.150   3.014   6.353 -1.6956 -1.3596  2.1988
  327ACOH    O211510   9.105   2.976   6.276  0.0901  0.4773  0.2263
  327ACOH    C211511   9.179   2.867   6.244  0.1352 -0.5252 -0.0601
  327ACOH    O111512   9.281   2.830   6.298 -0.3390  0.0293  0.0612
  327ACOH    C111513   9.132   2.780   6.132  0.4603  0.2232 -0.1532
  327ACOH    H111514   9.118   2.847   6.047  0.5282  3.3864  2.2265
  327ACOH    H211515   9.028   2.752   6.147  0.3196 -0.3170 -2.0191
  327ACOH    H311516   9.197   2.696   6.110  1.3923  0.8307  0.2514
  328ACOH    H411517   4.843   5.552   2.798  1.0699 -1.6887 -0.7675
  328ACOH    O211518   4.920   5.612   2.795 -0.2083  0.0080 -0.4512
  328ACOH    C211519   4.880   5.739   2.802  0.4012 -0.2187  0.2322
  328ACOH    O111520   4.762   5.766   2.789  0.2085 -0.2540 -0.3626
  328ACOH    C111521   4.986   5.837   2.834  0.0808  0.3197  0.0496
  328ACOH    H111522   5.042   5.809   2.923 -0.9948 -1.8820  0.0872
  328ACOH    H211523   4.948   5.936   2.855 -1.8575 -0.0482 -1.4944
  328ACOH    H311524   5.055   5.843   2.749  0.8324 -0.1198  0.6190
  329ACOH    H411525   5.438   6.928   2.329  0.1686  1.8548 -2.2578
  329ACOH    O211526   5.534   6.944   2.325  0.5659  0.1678 -0.4048
  329ACOH    C211527   5.583   6.946   2.198 -0.1280 -0.6747  0.0472
  329ACOH    O111528   5.512   6.930   2.100 -0.5193  0.0417 -0.5606
  329ACOH    C111529   5.728   6.965   2.181 -0.1436  0.0043 -0.5743
  329ACOH    H111530   5.759   6.915   2.090  1.1080 -0.5214  0.1280
  329ACOH    H211531   5.781   6.935   2.271 -0.1203 -1.0267 -0.9311
  329ACOH    H311532   5.730   7.070   2.151 -2.7435  0.6356  1.3079
  330ACOH    H411533   4.375   3.878   2.806 -0.0661 -1.3894 -2.1979
  330ACOH    O211534   4.461   3.903   2.770  0.3509  0.6138  0.1233
  330ACOH    C211535   4.544   3.791   2.790  1.1043 -0.0900  0.3267
  330ACOH    O111536   4.520   3.691   2.853  0.7229  0.1689  0.4490
  330ACOH    C111537   4.683   3.820   2.756 -0.0283 -0.1419  0.1554
  330ACOH    H111538   4.713   3.917   2.796  1.0348  0.1873 -1.4005
  330ACOH    H211539   4.706   3.817   2.649  0.3661  0.4367  0.2187
  330ACOH    H311540   4.752   3.748   2.799  0.2477  0.1398  0.1832
  331ACOH    H411541   1.231   8.520   0.344  0.9310 -0.6892  0.5752
  331ACOH    O211542   1.285   8.601   0.348 -0.3840  0.2072  0.4182
  331ACOH    C211543   1.195   8.699   0.362  0.5720 -0.3862 -0.5066
  331ACOH    O111544   1.075   8.692   0.374  0.4017  0.4643  0.1319
  331ACOH    C111545   1.267   8.828   0.372  0.4428 -0.1007  0.0559
  331ACOH    H111546   1.197   8.911   0.380 -1.0082 -1.3355  0.4372
  331ACOH    H211547   1.326   8.843   0.281  0.2358 -1.0271 -0.2389
  331ACOH    H311548   1.335   8.827   0.456  0.7737 -2.1022 -0.2030
  332ACOH    H411549   2.705   7.491   7.337  1.6947  1.2060 -0.9762
  332ACOH    O211550   2.675   7.447   7.256  0.6930  0.1415 -0.0378
  332ACOH    C211551   2.543   7.446   7.245 -0.9460 -0.1864 -0.2614
  332ACOH    O111552   2.473   7.492   7.334 -0.1962 -0.4651  0.3325
  332ACOH    C111553   2.508   7.390   7.118  0.0227  0.3961  0.3699
  332ACOH    H111554   2.492   7.283   7.125 -0.5266  0.4153 -0.6002
  332ACOH    H211555   2.587   7.411   7.046  0.1836 -1.4970 -0.0377
  332ACOH    H311556   2.426   7.448   7.077  0.4404  1.5002  1.0615
  333ACOH    H411557   7.369   6.254   4.095  0.8644  0.4815 -2.0332
  333ACOH    O211558   7.304   6.326   4.100  0.2457 -0.1512 -0.5358
  333ACOH    C211559   7.182   6.271   4.113  0.3547  0.4587  0.3565
  333ACOH    O111560   7.170   6.160   4.166 -0.1340 -0.1863  0.2244
  333ACOH    C111561   7.085   6.348   4.039 -0.0946 -0.3062 -0.3694
  333ACOH    H111562   7.119   6.374   3.938  2.5121 -1.2201  0.2434
  333ACOH    H211563   7.076   6.435   4.104  1.8491 -2.2425  2.5531
  333ACOH    H311564   6.990   6.295   4.028 -1.3899  2.2245 -2.1170
  334ACOH    H411565   5.445   9.836   0.386  2.3285  1.3238  1.3780
  334ACOH    O211566   5.511   9.801   0.324  0.5817  0.1931  0.1066
  334ACOH    C211567   5.568   9.696   0.383 -0.8904  0.1788 -0.2167
  334ACOH    O111568   5.546   9.662   0.499 -0.6517 -0.5679  0.9163
  334ACOH    C111569   5.686   9.648   0.309 -0.3451 -0.4060  0.3561
  334ACOH    H111570   5.686   9.669   0.201  2.6403  0.0520  0.3790
  334ACOH    H211571   5.701   9.541   0.324  0.7119  0.0503  2.7956
  334ACOH    H311572   5.767   9.711   0.346 -0.0551 -0.8718  0.5210
  335ACOH    H411573   3.546   4.889   5.848  0.0792 -1.2056  0.4484
  335ACOH    O211574   3.556   4.939   5.765 -0.1202 -0.2650  0.9821
  335ACOH    C211575   3.642   5.038   5.799 -0.3494 -0.1760  0.1066
  335ACOH    O111576   3.696   5.049   5.906  0.5367 -0.0874  0.0125
  335ACOH    C111577   3.641   5.133   5.683  0.0010 -0.0420 -0.5020
  335ACOH    H111578   3.546   5.187   5.680  0.8588  1.4870 -0.2673
  335ACOH    H211579   3.643   5.076   5.590  1.2031  1.0181 -1.1347
  335ACOH    H311580   3.722   5.206   5.683  1.0945 -1.2350  0.1003
  336ACOH    H411581   9.932   6.545   2.394  0.3233 -1.6448 -0.2195
  336ACOH    O211582   9.846   6.527   2.437  0.1183  0.3058  0.2271
  336ACOH    C211583   9.848   6.563   2.562 -0.2449  0.2993 -0.3640
  336ACOH    O111584   9.922   6.641   2.608 -0.0865  0.0381 -0.0689
  336ACOH    C111585   9.745   6.491   2.643 -0.0225  0.1010  0.3620
  336ACOH    H111586   9.777   6.392   2.673 -1.8180 -0.8933 -0.9114
  336ACOH    H211587   9.656   6.474   2.583  1.0826  0.0239 -1.3067
  336ACOH    H311588   9.717   6.547   2.732 -0.3756  1.1446 -0.3844
  337ACOH    H411589   3.981   2.277   7.481  1.1919 -0.3889  0.3709
  337ACOH    O211590   3.975   2.231   7.396 -0.7969 -0.1401  0.3649
  337ACOH    C211591   3.996   2.339   7.311 -1.1021 -0.1469  0.3520
  337ACOH    O111592   3.990   2.456   7.331 -0.3232 -0.5508  0.0402
  337ACOH    C111593   4.031   2.284   7.179  0.0054 -0.3635  0.2642
  337ACOH    H111594   4.054   2.362   7.106 -1.2219 -2.8184 -2.8453
  337ACOH    H211595   3.937   2.246   7.140 -1.4421  1.5636  1.8065
  337ACOH    H311596   4.115   2.215   7.190  0.8485  0.4890 -0.7056
  338ACOH    H411597   4.171   4.999   4.444  0.1384  0.5085 -0.7454
  338ACOH    O211598   4.231   5.035   4.512 -0.4404 -0.4739  0.3001
  338ACOH    C211599   4.272   5.154   4.478 -0.2145  0.1429 -0.5635
  338ACOH    O111600   4.236   5.228   4.389  0.0009 -0.1205 -0.9813
  338ACOH    C111601   4.385   5.202   4.564 -0.3131 -1.0316 -0.4718
  338ACOH    H111602   4.421   5.134   4.641 -0.1058  1.0583  1.3402
  338ACOH    H211603   4.366   5.301   4.606  3.7763 -0.4199  0.1303
  338ACOH    H311604   4.473   5.209   4.501  0.6401 -1.5714  0.7873
  339ACOH    H411605   5.160   6.842   2.718 -0.4806 -0.4577 -0.7383
  339ACOH    O211606   5.150   6.751   2.688 -0.1185 -0.7486  0.0026
  339ACOH    C211607   5.047   6.698   2.749  0.3188 -0.0388 -0.1308
  339ACOH    O111608   4.984   6.748   2.840 -0.1718 -0.1550 -0.2590
  339ACOH    C111609   5.016   6.563   2.693 -0.5778 -0.5835 -0.8267
  339ACOH    H111610   5.076   6.543   2.604 -0.8732  0.4726 -1.2713
  339ACOH    H211611   4.916   6.549   2.654 -0.6475  1.0305 -1.2453
  339ACOH    H311612   5.047   6.492   2.769 -1.6356 -1.9522 -1.6577
  340ACOH    H411613   5.077   2.904   4.780  0.3114  0.0038 -2.9006
  340ACOH    O211614   5.112   2.995   4.783 -0.1356  0.1142  0.0343
  340ACOH    C211615   5.025   3.064   4.710 -0.6148 -0.7117 -0.5755
  340ACOH    O111616   4.930   3.023   4.642  0.2478 -0.0645  0.0034
  340ACOH    C111617   5.063   3.203   4.718  1.2953  0.0144  0.7162
  340ACOH    H111618   4.991   3.258   4.657  2.9861  2.6974  1.0645
  340ACOH    H211619   5.159   3.219   4.669  0.6447  0.6986 -0.3416
  340ACOH    H311620   5.069   3.234   4.822 -0.5933  1.7957  0.3133
  341ACOH    H411621   4.377   5.002   6.982  0.9502  2.1503  0.4666
  341ACOH    O211622   4.424   4.985   6.899 -0.0193  0.2281  0.2755
  341ACOH    C211623   4.348   5.032   6.799  0.0157  0.7411  0.8542
  341ACOH    O111624   4.230   5.072   6.803 -0.3102  0.4101 -0.6864
  341ACOH    C111625   4.422   5.033   6.667  0.4174  0.0594  0.6624
  341ACOH    H111626   4.494   5.115   6.672  2.0584 -1.1619 -1.5735
  341ACOH    H211627   4.364   5.044   6.575  0.1412 -0.3694  0.7859
  341ACOH    H311628   4.486   4.945   6.657  0.7535  0.1416  1.9898
  342ACOH    H411629   6.122   1.638   6.543 -0.9878  1.0542 -0.4557
  342ACOH    O211630   6.042   1.602   6.584 -0.2640 -0.3451 -0.2486
  342ACOH    C211631   5.937   1.638   6.505  0.0072  0.2852 -0.1704
  342ACOH    O111632   5.940   1.694   6.396 -0.0765  0.3287 -0.4084
  342ACOH    C111633   5.811   1.600   6.561  0.2995 -0.3792 -0.3854
  342ACOH    H111634   5.813   1.621   6.668 -0.3491 -0.9252 -0.2592
  342ACOH    H211635   5.796   1.493   6.547  0.5970 -0.4282 -0.3254
  342ACOH    H311636   5.735   1.663   6.515  0.7559  0.3631 -0.1419
  343ACOH    H411637   4.247   4.848   3.302  0.6096 -1.1082 -0.2193
  343ACOH    O211638   4.343   4.838   3.290  0.8097 -0.1387  0.5080
  343ACOH    C211639   4.382   4.804   3.419  0.4383  0.6521  0.2658
  343ACOH    O111640   4.307   4.754   3.497  0.3207  0.0400  0.4500
  343ACOH    C111641   4.523   4.823   3.447  0.5898 -0.2388  0.5753
  343ACOH    H111642   4.584   4.814   3.358  1.4218  0.6315  1.0491
  343ACOH    H211643   4.562   4.757   3.525 -0.0915  0.5229  1.5686
  343ACOH    H311644   4.537   4.927   3.474  0.7818 -0.2526  0.5338
  344ACOH    H411645   3.535   6.359   6.439  0.8674  0.7519  0.1666
  344ACOH    O211646   3.576   6.278   6.406  0.7231  0.5812  0.4131
  344ACOH    C211647   3.620   6.312   6.283 -0.1500 -0.3430  0.7537
  344ACOH    O111648   3.561   6.392   6.206 -0.2838  0.3255  0.2922
  344ACOH    C111649   3.712   6.212   6.225 -0.0230  0.6548  0.5706
  344ACOH    H111650   3.660   6.168   6.141 -0.1159 -0.6451  1.2942
  344ACOH    H211651   3.747   6.135   6.294  0.3812 -0.4666 -0.8652
  344ACOH    H311652   3.800   6.266   6.188 -1.1529  2.4054  0.3969
  345ACOH    H411653   7.162   1.687   2.807 -0.0037 -0.5521  1.3685
  345ACOH    O211654   7.072   1.724   2.807  0.3014  0.2169  0.0498
  345ACOH    C211655   7.000   1.633   2.735  0.2234 -0.2722 -0.5444
  345ACOH    O111656   7.032   1.518   2.715 -0.2354 -0.2417 -0.2281
  345ACOH    C111657   6.876   1.689   2.695  0.0572 -0.3220 -0.3620
  345ACOH    H111658   6.875   1.684   2.586 -1.6983 -1.9698 -0.2945
  345ACOH    H211659   6.873   1.792   2.732  0.9766 -0.1750 -0.6940
  345ACOH    H311660   6.796   1.628   2.736  1.4217 -1.9033 -0.0383
  346ACOH    H411661   5.339   0.026   6.537  2.5373 -1.5662 -1.8677
  346ACOH    O211662   5.390   0.108   6.548 -0.4110  0.0153  0.3572
  346ACOH    C211663   5.491   0.090   6.637  0.8055 -0.0427  0.0899
  346ACOH    O111664   5.516  -0.013   6.698 -0.4350  0.6411 -0.9675
  346ACOH    C111665   5.567   0.219   6.664  0.9015 -0.0236 -0.5660
  346ACOH    H111666   5.531   0.267   6.755 -0.2100  0.5973 -1.3244
  346ACOH    H211667   5.538   0.289   6.585 -1.6598 -0.8611 -0.3970
  346ACOH    H311668   5.674   0.203   6.676  0.5440 -0.7761  1.8413
  347ACOH    H411669   6.547   3.759   2.323 -2.0020  0.7430 -2.4621
  347ACOH    O211670   6.524   3.842   2.368  0.0567 -0.1262  0.3357
  347ACOH    C211671   6.637   3.889   2.414  0.4808 -0.5511  0.3144
  347ACOH    O111672   6.742   3.829   2.437 -0.4452  0.4299  0.2507
  347ACOH    C111673   6.611   4.029   2.458  0.4030 -0.3233 -0.2182
  347ACOH    H111674   6.691   4.056   2.526  0.2664  0.9772 -0.5715
  347ACOH    H211675   6.520   4.036   2.517  0.0415 -0.6210 -0.7276
  347ACOH    H311676   6.609   4.095   2.371  0.3146  0.1377  0.1379
  348ACOH    H411677   2.661   4.610   2.829 -2.3278 -0.2598  0.0444
  348ACOH    O211678   2.667   4.528   2.777  0.0228  0.0836 -0.2666
  348ACOH    C211679   2.536   4.491   2.759 -0.1935  0.9151 -0.5161
  348ACOH    O111680   2.446   4.570   2.734  0.9760 -0.6940  0.1914
  348ACOH    C111681   2.532   4.350   2.714 -0.1979  0.2498  0.0508
  348ACOH    H111682   2.587   4.333   2.621  1.3676 -0.7678  1.1463
  348ACOH    H211683   2.429   4.326   2.686  0.2072 -1.7237  0.1988
  348ACOH    H311684   2.560   4.280   2.793 -0.9289 -0.6609 -0.4868
  349ACOH    H411685   3.491   4.911   2.447 -0.8532  0.1637 -1.4150
  349ACOH    O211686   3.561   4.976   2.430  0.4563 -0.5133  1.0341
  349ACOH    C211687   3.574   5.060   2.536  0.0658  0.0778 -0.0660
  349ACOH    O111688   3.553   5.032   2.652  0.4770 -0.3171 -0.0904
  349ACOH    C111689   3.658   5.176   2.501  0.3725 -0.2213 -0.2899
  349ACOH    H111690   3.702   5.219   2.591 -0.2734  0.8513 -0.4779
  349ACOH    H211691   3.592   5.249   2.454  1.9785  0.2417 -1.8636
  349ACOH    H311692   3.733   5.147   2.427 -1.8268  0.4249 -2.8619
  350ACOH    H411693   6.934   6.266   8.205  1.3761  1.3025  1.5629
  350ACOH    O211694   6.855   6.276   8.261 -0.0177  0.1713 -0.1352
  350ACOH    C211695   6.884   6.325   8.378  0.3458  0.2782 -0.4456
  350ACOH    O111696   7.000   6.349   8.405 -0.3215 -0.1150 -0.6234
  350ACOH    C111697   6.765   6.358   8.461  0.4504  0.5754 -0.5386
  350ACOH    H111698   6.676   6.366   8.398 -0.4032  1.5495  0.7807
  350ACOH    H211699   6.775   6.457   8.505 -0.5920  0.4308  0.0257
  350ACOH    H311700   6.747   6.279   8.533 -3.3000  1.8515  0.0035
  351ACOH    H411701   4.680   0.000   0.669  0.9332  0.0708  1.6002
  351ACOH    O211702   4.682   0.097   0.657  0.5951 -0.0608  0.4752
  351ACOH    C211703   4.689   0.132   0.526  0.6662 -0.4390 -0.3064
  351ACOH    O111704   4.668   0.061   0.431  0.3594 -0.0015 -0.1628
  351ACOH    C111705   4.701   0.278   0.496  0.0409  0.4105  0.8269
  351ACOH    H111706   4.672   0.343   0.579  0.9040 -1.0567  2.3222
  351ACOH    H211707   4.647   0.299   0.404 -0.8961  0.2576  1.3394
  351ACOH    H311708   4.808   0.288   0.476  0.0420  0.4951  0.8719
  352ACOH    H411709   2.216   5.454   7.621 -0.3290  1.4833  1.4716
  352ACOH    O211710   2.306   5.473   7.652  0.3748 -0.0490  0.4316
  352ACOH    C211711   2.333   5.599   7.629  0.5311  0.4059  1.0451
  352ACOH    O111712   2.256   5.675   7.569 -0.1787  0.0366 -0.4367
  352ACOH    C111713   2.471   5.638   7.670  0.5843  0.4498  0.2511
  352ACOH    H111714   2.537   5.571   7.616 -0.0350 -0.5139  0.6717
  352ACOH    H211715   2.473   5.628   7.779  0.0456  2.5145  0.4702
  352ACOH    H311716   2.501   5.742   7.655  0.2511  0.5439  0.2171
  353ACOH    H411717   8.747   4.109   2.612  0.3692 -1.4284 -0.3173
  353ACOH    O211718   8.810   4.099   2.685  0.3784 -0.3465 -0.1699
  353ACOH    C211719   8.882   4.212   2.700 -0.1569  0.2181 -0.1526
  353ACOH    O111720   8.839   4.325   2.683  0.4218  0.0647  0.5424
  353ACOH    C111721   8.979   4.182   2.803  0.5672 -0.0197  0.3878
  353ACOH    H111722   8.971   4.265   2.874 -0.1769 -0.2384  0.5514
  353ACOH    H211723   9.079   4.188   2.758 -0.3310  0.4018 -1.5873
  353ACOH    H311724   8.958   4.090   2.856  1.2085 -0.3645  0.0524
  354ACOH    H411725   4.841   2.854   6.477  0.1915 -0.1046 -0.6962
  354ACOH    O211726   4.893   2.936   6.484 -0.3962  0.2444 -0.4082
  354ACOH    C211727   5.002   2.899   6.553  0.2694  0.1758 -0.2418
  354ACOH    O111728   5.050   2.788   6.549  0.2032 -0.4403  0.3540
  354ACOH    C111729   5.060   3.025   6.609  0.4119  0.0874  0.5679
  354ACOH    H111730   5.117   2.990   6.696  2.9420 -1.0652 -1.4988
  354ACOH    H211731   4.979   3.092   6.637 -1.7486 -1.9532 -0.6657
  354ACOH    H311732   5.127   3.079   6.542  1.0929 -0.8221  0.4969
  355ACOH    H411733   6.229   1.894   2.880  0.4202 -1.6035 -0.9050
  355ACOH    O211734   6.194   1.900   2.789  0.6655 -0.5957 -0.9398
  355ACOH    C211735   6.290   1.857   2.703  0.9640  0.4733 -0.1216
  355ACOH    O111736   6.392   1.800   2.730  0.8248 -0.5111  0.0122
  355ACOH    C111737   6.244   1.880   2.565 -0.0858 -0.2474 -0.1094
  355ACOH    H111738   6.319   1.939   2.512  0.9763 -2.2385 -0.8828
  355ACOH    H211739   6.149   1.933   2.561  0.7442  1.2119 -1.4213
  355ACOH    H311740   6.228   1.786   2.513 -0.9656  0.1166 -0.5000
  356ACOH    H411741   3.269   5.282   5.799  1.4552 -0.0470 -1.2230
  356ACOH    O211742   3.236   5.359   5.750  0.1409  0.2347  0.0814
  356ACOH    C211743   3.197   5.455   5.837  0.5698 -0.1910 -0.0565
  356ACOH    O111744   3.187   5.450   5.959 -0.1518  0.0519  0.5005
  356ACOH    C111745   3.178   5.572   5.748  0.0201 -0.3638  0.5722
  356ACOH    H111746   3.081   5.616   5.769  0.8840  1.3653  1.0155
  356ACOH    H211747   3.180   5.547   5.642  1.7921  3.6368 -0.4470
  356ACOH    H311748   3.249   5.650   5.776 -0.0043  0.1807 -0.8077
  357ACOH    H411749   5.564   0.709   7.765  1.5053 -1.0132 -0.3722
  357ACOH    O211750   5.577   0.712   7.861  0.2658 -0.1850 -0.2224
  357ACOH    C211751   5.550   0.584   7.898 -0.2101  0.2722 -0.9539
  357ACOH    O111752   5.508   0.498   7.823 -0.1074 -0.3050 -0.5696
  357ACOH    C111753   5.541   0.568   8.050 -0.0711  0.2565  0.7471
  357ACOH    H111754   5.438   0.532   8.058 -0.1101  0.3240  0.5519
  357ACOH    H211755   5.549   0.657   8.111 -2.5320  1.7238 -0.9840
  357ACOH    H311756   5.614   0.498   8.090  0.2710 -0.4138 -1.0110
  358ACOH    H411757   4.351   4.153   4.822 -0.3522 -0.4088 -0.5653
  358ACOH    O211758   4.345   4.221   4.753  0.2302 -0.2589 -0.4688
  358ACOH    C211759   4.445   4.304   4.785 -0.0770 -0.9745 -0.0709
  358ACOH    O111760   4.546   4.289   4.858  0.0312  0.1369  0.5647
  358ACOH    C111761   4.423   4.426   4.706 -0.7144  0.3623  0.4666
  358ACOH    H111762   4.408   4.402   4.601 -0.7684  2.0213  0.0841
  358ACOH    H211763   4.519   4.478   4.711 -1.0517  0.9835  0.5142
  358ACOH    H311764   4.337   4.479   4.747 -0.5369  0.7892  0.2896
  359ACOH    H411765   5.080   7.071   5.307 -2.0507  1.2955  0.8128
  359ACOH    O211766   5.068   7.092   5.213  0.1615 -0.2298  0.1716
  359ACOH    C211767   5.138   7.201   5.181  0.4014  0.0592 -0.1375
  359ACOH    O111768   5.256   7.219   5.203 -0.4397  0.0939 -0.3138
  359ACOH    C111769   5.072   7.278   5.075  0.4841 -0.2689 -0.7508
  359ACOH    H111770   4.995   7.215   5.031 -0.1372  0.3640 -0.5622
  359ACOH    H211771   5.126   7.311   4.986 -0.6087  1.2099 -0.8667
  359ACOH    H311772   5.027   7.368   5.115 -1.0697 -1.7097  0.8200
  360ACOH    H411773   0.456   2.570   8.066 -0.0092  3.1101 -4.4911
  360ACOH    O211774   0.405   2.636   8.116  0.5471  0.1135  0.3535
  360ACOH    C211775   0.378   2.737   8.033 -0.1509  0.5719 -0.8966
  360ACOH    O111776   0.450   2.771   7.941  0.3386  0.2511 -0.9906
  360ACOH    C111777   0.288   2.840   8.097 -0.5400 -0.4689  0.2329
  360ACOH    H111778   0.209   2.798   8.159 -0.2490  0.0723  0.9893
  360ACOH    H211779   0.242   2.901   8.019  1.2620  0.6574  0.0264
  360ACOH    H311780   0.345   2.914   8.153  0.5949 -1.4068  0.3260
  361ACOH    H411781   9.624   4.370   7.159  0.5354 -3.9708 -2.5798
  361ACOH    O211782   9.556   4.322   7.210 -0.9787  0.8280  0.2521
  361ACOH    C211783   9.603   4.198   7.217 -0.8970  0.4021  0.4854
  361ACOH    O111784   9.702   4.156   7.164 -0.7505  0.2429 -0.0473
  361ACOH    C111785   9.510   4.117   7.293 -0.3087 -0.8866  0.1322
  361ACOH    H111786   9.551   4.105   7.393 -1.0732  3.2628  1.0560
  361ACOH    H211787   9.487   4.022   7.246 -0.2965 -1.1793  0.7215
  361ACOH    H311788   9.413   4.164   7.307  0.7877  2.0683 -1.5565
  362ACOH    H411789   6.589   2.346   1.523  1.0035 -0.7608  0.3751
  362ACOH    O211790   6.532   2.303   1.588 -0.3217  0.6397  0.1663
  362ACOH    C211791   6.616   2.228   1.662 -0.0825  0.1757 -0.2421
  362ACOH    O111792   6.735   2.259   1.676 -0.1854  0.3456  0.3010
  362ACOH    C111793   6.546   2.146   1.760 -0.2220  0.0667  0.3198
  362ACOH    H111794   6.443   2.130   1.730  0.6795 -0.1024 -2.8556
  362ACOH    H211795   6.550   2.189   1.860  0.9731  1.2776 -0.2326
  362ACOH    H311796   6.594   2.048   1.767  1.1321  0.5140 -2.3504
  363ACOH    H411797   6.103   0.744   7.655 -0.6719 -0.3288  0.0995
  363ACOH    O211798   6.118   0.712   7.564 -0.2833  0.1283 -0.0002
  363ACOH    C211799   6.131   0.805   7.470 -0.4685 -0.0046 -0.6218
  363ACOH    O111800   6.114   0.921   7.482 -0.1587 -0.1874  0.3712
  363ACOH    C111801   6.181   0.739   7.351 -0.8295  0.1370  0.9160
  363ACOH    H111802   6.261   0.801   7.309  0.2036 -1.0880  1.0446
  363ACOH    H211803   6.106   0.704   7.281  1.1486 -1.9417 -0.2299
  363ACOH    H311804   6.227   0.650   7.396  1.4043  1.3893  1.2228
  364ACOH    H411805   1.949   9.470   5.047  2.3788  0.3300 -1.8702
  364ACOH    O211806   1.912   9.542   4.992 -0.1847  0.9014  0.4821
  364ACOH    C211807   2.020   9.577   4.913 -0.6056 -0.1339 -0.1741
  364ACOH    O111808   2.131   9.538   4.922  0.3506  0.3012 -0.1673
  364ACOH    C111809   1.981   9.666   4.797  0.9005 -0.1479  0.2279
  364ACOH    H111810   1.919   9.744   4.841  0.8947  0.8484 -1.5110
  364ACOH    H211811   1.923   9.617   4.718 -1.1189  4.3692 -1.2833
  364ACOH    H311812   2.066   9.715   4.751  1.2522 -1.1799 -0.2342
  365ACOH    H411813   5.618   1.781   3.117 -0.1227  0.0093  0.0171
  365ACOH    O211814   5.601   1.798   3.023 -0.3405 -0.4515 -0.0284
  365ACOH    C211815   5.712   1.846   2.967 -0.1575  0.3313  0.0232
  365ACOH    O111816   5.823   1.820   3.011 -0.0135 -0.4007  0.3319
  365ACOH    C111817   5.689   1.902   2.832  0.0509  0.6973  0.2909
  365ACOH    H111818   5.653   2.004   2.849  1.3647  1.0683  0.9366
  365ACOH    H211819   5.619   1.833   2.785  2.6687 -1.7050 -0.1892
  365ACOH    H311820   5.779   1.902   2.771  1.1348  1.5681  1.8502
  366ACOH    H411821   4.947   2.633   3.404 -0.1104  0.8413  0.2472
  366ACOH    O211822   5.033   2.677   3.413 -0.0936  0.8742 -0.0801
  366ACOH    C211823   5.111   2.600   3.497  0.5485  0.0217 -1.2655
  366ACOH    O111824   5.108   2.482   3.514  0.6028 -0.0889  0.0856
  366ACOH    C111825   5.221   2.680   3.552 -0.4117 -0.5004  0.2905
  366ACOH    H111826   5.316   2.657   3.505 -0.6671  2.5273 -1.8800
  366ACOH    H211827   5.230   2.651   3.656  0.5324 -1.8115 -0.1464
  366ACOH    H311828   5.197   2.786   3.545  0.8047 -0.4257 -5.4102
  367ACOH    H411829   4.205   8.087   0.042 -1.4692 -0.6213  0.3108
  367ACOH    O211830   4.242   8.006   0.079  0.1449 -0.3290 -0.6232
  367ACOH    C211831   4.275   8.020   0.210  0.7786 -0.0897  0.8422
  367ACOH    O111832   4.245   8.111   0.284  0.4550  0.4356 -0.8139
  367ACOH    C111833   4.351   7.904   0.268 -0.5074 -0.4685  0.5865
  367ACOH    H111834   4.452   7.937   0.295 -0.6793  0.2469  0.3599
  367ACOH    H211835   4.354   7.825   0.194 -1.3972 -0.5320  0.6130
  367ACOH    H311836   4.304   7.868   0.359  2.1039 -0.8134  1.8491
  368ACOH    H411837   5.399   4.787   2.141  0.2899 -0.1616  0.7590
  368ACOH    O211838   5.437   4.707   2.181 -0.3061 -1.0648 -0.4450
  368ACOH    C211839   5.387   4.609   2.104 -0.6950  0.2614 -0.3074
  368ACOH    O111840   5.285   4.608   2.037 -0.3078 -0.3146 -0.0265
  368ACOH    C111841   5.472   4.492   2.132 -0.1247  0.2304  0.1642
  368ACOH    H111842   5.509   4.484   2.235 -1.9663 -0.4776  0.7841
  368ACOH    H211843   5.551   4.472   2.060 -0.8746 -1.6128 -0.1774
  368ACOH    H311844   5.415   4.399   2.123  1.2347 -0.5036 -1.0868
  369ACOH    H411845   8.540   5.082   6.665 -0.0633  1.4042  1.8632
  369ACOH    O211846   8.501   5.014   6.723 -0.2158 -0.5704 -0.4548
  369ACOH    C211847   8.427   5.084   6.813  0.2892  0.1032 -0.0720
  369ACOH    O111848   8.400   5.201   6.811 -0.2052  0.2613 -0.0057
  369ACOH    C111849   8.362   4.988   6.910  0.2215  0.3683 -0.2340
  369ACOH    H111850   8.420   4.897   6.894  2.5528  1.7268  0.1750
  369ACOH    H211851   8.254   4.974   6.905  0.6358 -2.9234 -0.7836
  369ACOH    H311852   8.394   5.022   7.009 -2.5309  1.6779  0.2395
  370ACOH    H411853   9.037   5.744   7.387  0.4978  0.7316  1.0449
  370ACOH    O211854   9.077   5.819   7.340 -0.3443  0.4439 -0.1257
  370ACOH    C211855   8.992   5.922   7.351  0.3603 -0.0519 -0.0344
  370ACOH    O111856   8.872   5.907   7.356 -0.1274 -0.1316 -0.4293
  370ACOH    C111857   9.059   6.048   7.307  0.0329 -0.5898 -0.4623
  370ACOH    H111858   9.024   6.082   7.209 -1.6359  1.1421  0.7111
  370ACOH    H211859   9.167   6.035   7.300  0.3756  1.1922  1.0886
  370ACOH    H311860   9.041   6.125   7.381  2.4155 -0.6160  0.1959
  371ACOH    H411861   7.155   4.630   6.822 -2.4398 -0.9867 -2.2334
  371ACOH    O211862   7.205   4.650   6.741  0.1105  0.1759 -0.4192
  371ACOH    C211863   7.146   4.766   6.702  0.1071  0.6317  0.4721
  371ACOH    O111864   7.070   4.830   6.769  0.0300  0.0726  0.2074
  371ACOH    C111865   7.210   4.809   6.577  0.3559  0.2766 -0.2793
  371ACOH    H111866   7.267   4.734   6.522 -2.0118  0.9365 -3.8549
  371ACOH    H211867   7.271   4.899   6.580  0.4935  0.1241  2.5723
  371ACOH    H311868   7.123   4.835   6.516  0.2351 -0.8898 -0.6068
  372ACOH    H411869   4.873   9.781   0.398  0.1909 -0.8712 -0.0891
  372ACOH    O211870   4.954   9.781   0.453  0.2436  0.3143 -0.1381
  372ACOH    C211871   4.929   9.695   0.553 -0.3758 -0.6474 -0.1571
  372ACOH    O111872   4.818   9.651   0.583  0.0880 -0.0761  0.0430
  372ACOH    C111873   5.047   9.683   0.642  0.1838 -0.3046 -0.6753
  372ACOH    H111874   5.091   9.780   0.665 -1.4422  0.7181 -1.7824
  372ACOH    H211875   5.126   9.633   0.586  2.5572  0.9380  1.4512
  372ACOH    H311876   5.022   9.630   0.734 -1.3462  0.6417 -0.5181
  373ACOH    H411877   7.083   6.363   7.607  0.3906 -0.1053  0.1476
  373ACOH    O211878   7.141   6.439   7.624  0.5351 -0.1508 -0.1487
  373ACOH    C211879   7.189   6.440   7.750 -1.2016 -0.7425 -0.0716
  373ACOH    O111880   7.146   6.376   7.845  0.4865 -0.2192  0.1352
  373ACOH    C111881   7.291   6.542   7.776 -0.3761 -0.2793  0.2784
  373ACOH    H111882   7.338   6.523   7.873  1.4713  0.5806 -0.4296
  373ACOH    H211883   7.242   6.639   7.788  0.1019  0.1494 -1.1427
  373ACOH    H311884   7.366   6.553   7.698  0.1672  0.4521  0.8894
  374ACOH    H411885   5.347   5.041   2.367 -1.7369 -1.1780 -1.2168
  374ACOH    O211886   5.405   4.975   2.407 -0.6622  0.3929 -0.1531
  374ACOH    C211887   5.334   4.865   2.440 -0.2495  0.3568  0.3176
  374ACOH    O111888   5.214   4.856   2.432  0.2021  0.0678  0.6810
  374ACOH    C111889   5.422   4.778   2.529 -0.7159 -0.3354 -0.6703
  374ACOH    H111890   5.381   4.678   2.546  1.0968 -0.7035  1.7897
  374ACOH    H211891   5.430   4.827   2.625 -0.5376 -2.2327  0.3004
  374ACOH    H311892   5.528   4.770   2.503 -0.2869  0.4883  0.7962
  375ACOH    H411893   4.216   4.640   3.658 -0.2458  1.0605 -0.3194
  375ACOH    O211894   4.135   4.628   3.711 -0.1867 -0.0993 -0.4792
  375ACOH    C211895   4.144   4.643   3.839  0.6283 -0.3742 -0.0092
  375ACOH    O111896   4.237   4.699   3.893 -0.2988 -0.5522 -0.3262
  375ACOH    C111897   4.018   4.609   3.914 -0.5765 -0.7593 -0.6973
  375ACOH    H111898   3.977   4.520   3.866 -1.6691 -0.5221 -0.2252
  375ACOH    H211899   3.945   4.690   3.926  1.6871  1.2965 -0.4556
  375ACOH    H311900   4.042   4.574   4.014 -0.5313 -0.6497 -0.6697
  376ACOH    H411901   2.642   6.426   5.564 -1.9719  0.6584  1.5215
  376ACOH    O211902   2.679   6.376   5.639  0.6218 -0.3398 -0.3658
  376ACOH    C211903   2.819   6.379   5.634  0.2220 -0.0384 -0.5077
  376ACOH    O111904   2.886   6.407   5.536  0.2798 -0.3925  0.1205
  376ACOH    C111905   2.876   6.337   5.767 -0.6052  0.1897  0.6166
  376ACOH    H111906   2.824   6.376   5.854 -1.2714 -0.9242  0.7258
  376ACOH    H211907   2.981   6.367   5.773 -0.3061 -1.0640  1.6888
  376ACOH    H311908   2.871   6.228   5.771 -0.4784  0.1559 -0.0546
  377ACOH    H411909   7.163   5.617   6.670  1.0677  0.4524 -2.2277
  377ACOH    O211910   7.076   5.661   6.664  0.7279  0.0189 -0.6407
  377ACOH    C211911   7.101   5.796   6.656 -0.6507  0.4716 -0.4616
  377ACOH    O111912   7.209   5.842   6.619  0.2376 -0.5991  0.2260
  377ACOH    C111913   6.979   5.874   6.676  0.2105  0.0365 -0.9987
  377ACOH    H111914   6.896   5.811   6.708 -0.3386  1.3756  0.3123
  377ACOH    H211915   6.942   5.927   6.588 -1.2417  2.7988  1.1770
  377ACOH    H311916   6.984   5.953   6.752 -1.2264 -1.0577  0.2611
  378ACOH    H411917   7.112   6.007   4.266 -0.2669 -0.4893 -0.2920
  378ACOH    O211918   7.088   5.918   4.298 -0.6396 -0.4291 -0.3924
  378ACOH    C211919   6.957   5.927   4.343  0.2208  0.2963  0.6263
  378ACOH    O111920   6.901   6.029   4.368  0.9651  0.1000  0.2197
  378ACOH    C111921   6.907   5.795   4.388  0.5689  0.5199 -0.1877
  378ACOH    H111922   6.969   5.739   4.458 -2.4433 -2.9156 -0.1638
  378ACOH    H211923   6.886   5.739   4.297 -2.0099 -0.2442  0.8523
  378ACOH    H311924   6.813   5.812   4.440  0.2400  0.6347 -0.8154
  379ACOH    H411925   5.161   1.842   4.816  2.1295 -0.8791 -1.8348
  379ACOH    O211926   5.227   1.895   4.866  0.1120 -0.2288  0.2164
  379ACOH    C211927   5.299   1.939   4.760 -0.7872 -0.0694  0.1573
  379ACOH    O111928   5.254   1.962   4.651  0.5963 -0.2142 -0.2089
  379ACOH    C111929   5.426   1.985   4.813 -0.3932 -0.6184  0.4644
  379ACOH    H111930   5.410   2.088   4.844 -0.1260 -0.9245  1.6393
  379ACOH    H211931   5.508   1.981   4.741 -0.5128  1.7184  0.1692
  379ACOH    H311932   5.456   1.928   4.901 -0.0586  1.6351  1.8583
  380ACOH    H411933   6.021   1.478   7.326  1.8401  2.1836 -1.5514
  380ACOH    O211934   5.943   1.528   7.295 -0.2534  0.0380  0.0477
  380ACOH    C211935   5.858   1.461   7.215 -0.2188  0.3753 -0.3583
  380ACOH    O111936   5.857   1.342   7.200  0.4266  0.3906  0.1392
  380ACOH    C111937   5.749   1.549   7.176  0.2247 -0.1918 -0.1594
  380ACOH    H111938   5.715   1.535   7.073  0.9781  1.3211 -0.6366
  380ACOH    H211939   5.775   1.655   7.181 -0.0248 -0.0014 -2.2181
  380ACOH    H311940   5.668   1.527   7.245  1.2022 -0.0788  1.0349
  381ACOH    H411941   5.643   9.202   5.610  0.7894  0.0355  2.2084
  381ACOH    O211942   5.582   9.277   5.613  0.2191 -0.3024 -0.0813
  381ACOH    C211943   5.540   9.306   5.491 -0.1933 -0.2817  0.4119
  381ACOH    O111944   5.566   9.238   5.395  0.2411  0.0039 -0.6404
  381ACOH    C111945   5.449   9.421   5.481 -0.4883 -0.1275  0.1710
  381ACOH    H111946   5.490   9.501   5.420 -1.5399  0.0486 -0.3173
  381ACOH    H211947   5.424   9.460   5.580  0.4287 -1.9429  1.1537
  381ACOH    H311948   5.353   9.393   5.440 -0.5851  0.1497  0.2111
  382ACOH    H411949   4.034   3.778   3.455  2.9920 -0.6173  2.7877
  382ACOH    O211950   3.973   3.749   3.526  0.0067  0.1769  0.6200
  382ACOH    C211951   4.044   3.674   3.610 -0.4231  0.0411  0.4397
  382ACOH    O111952   4.167   3.663   3.609 -0.6812 -0.4559  0.2786
  382ACOH    C111953   3.958   3.623   3.715  0.2190  0.2424  0.0923
  382ACOH    H111954   3.854   3.652   3.703  0.1514 -0.3007 -0.6153
  382ACOH    H211955   3.987   3.673   3.808 -1.8348  0.3878  0.6837
  382ACOH    H311956   3.975   3.516   3.727 -0.4183 -0.0594 -1.6077
  383ACOH    H411957   8.659   6.800   1.744  0.1631  0.3902 -0.2213
  383ACOH    O211958   8.627   6.860   1.675 -0.4778  0.1552 -0.1378
  383ACOH    C211959   8.677   6.985   1.702  0.0426 -0.3423 -1.0843
  383ACOH    O111960   8.786   7.002   1.757  0.2117  0.1064 -0.2619
  383ACOH    C111961   8.606   7.092   1.631 -0.7605 -0.0640  0.0611
  383ACOH    H111962   8.577   7.059   1.531  2.8003 -0.8770 -0.7655
  383ACOH    H211963   8.674   7.176   1.623 -0.8781  0.0349  0.0954
  383ACOH    H311964   8.515   7.128   1.680 -0.8422 -2.5413  1.8491
  384ACOH    H411965   4.393   2.575   6.354  0.5077  2.6196  0.4603
  384ACOH    O211966   4.451   2.584   6.276  0.3615  0.1475  0.0186
  384ACOH    C211967   4.539   2.480   6.278 -0.2374  0.5243  0.2799
  384ACOH    O111968   4.533   2.390   6.360 -0.0540  0.0247  0.2349
  384ACOH    C111969   4.662   2.520   6.206  0.0886 -0.3520 -0.3675
  384ACOH    H111970   4.695   2.622   6.225 -3.1188  1.1520 -2.3712
  384ACOH    H211971   4.629   2.519   6.102 -0.0751  1.5540 -0.3537
  384ACOH    H311972   4.747   2.454   6.218  0.2878 -0.0671 -0.1834
  385ACOH    H411973   6.537   2.523   5.500 -0.3204 -0.4220  0.1749
  385ACOH    O211974   6.608   2.587   5.486 -0.9125  0.1713 -0.1680
  385ACOH    C211975   6.717   2.548   5.559  0.3342  0.5529  0.1854
  385ACOH    O111976   6.720   2.483   5.662  0.2070 -0.2260 -0.4754
  385ACOH    C111977   6.839   2.605   5.506 -0.2090 -0.4680 -0.2547
  385ACOH    H111978   6.825   2.680   5.429 -2.7753  0.1405  0.7774
  385ACOH    H211979   6.891   2.523   5.457  2.6261  2.1985 -1.9061
  385ACOH    H311980   6.898   2.644   5.589 -1.7245  1.5108 -0.0891
  386ACOH    H411981   5.108   3.119   1.911  0.8054 -1.8100  0.2146
  386ACOH    O211982   5.111   3.147   2.004  0.0690 -0.2153 -0.2308
  386ACOH    C211983   5.236   3.151   2.054  0.4800  0.3975  0.3957
  386ACOH    O111984   5.329   3.122   1.986 -0.3073  0.2786 -0.2135
  386ACOH    C111985   5.235   3.147   2.197  0.0515 -0.0498 -1.0444
  386ACOH    H111986   5.325   3.197   2.233 -0.0041 -0.8045  0.1823
  386ACOH    H211987   5.237   3.041   2.222  1.4935 -0.2669 -1.9772
  386ACOH    H311988   5.146   3.202   2.226  1.4203  1.0491  1.1434
  387ACOH    H411989   4.749   4.995   3.588 -0.0301 -0.0878  0.6490
  387ACOH    O211990   4.712   5.042   3.512 -0.0395 -0.4323  0.4424
  387ACOH    C211991   4.679   5.164   3.550 -1.2513 -0.1026  0.2763
  387ACOH    O111992   4.677   5.208   3.663 -0.3793  0.3114 -0.2345
  387ACOH    C111993   4.613   5.227   3.431 -0.4516 -0.2027 -0.4450
  387ACOH    H111994   4.682   5.241   3.347  0.8268  0.2863  0.6538
  387ACOH    H211995   4.585   5.328   3.464  3.3740  0.5971  0.6798
  387ACOH    H311996   4.531   5.162   3.403  0.4733 -2.0352  1.0445
  388ACOH    H411997   9.355   0.166   7.094  2.4270 -0.5954 -1.1000
  388ACOH    O211998   9.315   0.201   7.013 -0.3932 -0.1832  0.3879
  388ACOH    C211999   9.371   0.311   6.975  0.3013 -0.0435  0.3748
  388ACOH    O112000   9.425   0.386   7.052 -0.0703  0.3507 -0.2668
  388ACOH    C112001   9.303   0.372   6.856 -0.6055  0.4549 -0.0599
  388ACOH    H112002   9.359   0.461   6.825 -1.6835  1.6318  1.2673
  388ACOH    H212003   9.205   0.397   6.895 -0.8591 -0.3080 -0.2191
  388ACOH    H312004   9.316   0.300   6.775  1.3937 -1.2858  1.7324
  389ACOH    H412005   0.556   0.887   4.536  0.8270 -2.5410 -4.3633
  389ACOH    O212006   0.518   0.963   4.488  0.0713  0.0435  0.0440
  389ACOH    C212007   0.537   1.069   4.574  0.2167 -0.3392  0.8373
  389ACOH    O112008   0.586   1.056   4.684  0.0984 -0.2517 -0.3405
  389ACOH    C112009   0.481   1.200   4.521  0.2496 -0.0973  0.5680
  389ACOH    H112010   0.482   1.278   4.597  0.4502  2.2263 -1.7542
  389ACOH    H212011   0.378   1.186   4.486  0.5843 -2.3812  0.4503
  389ACOH    H312012   0.529   1.242   4.432 -0.7642  0.7291  0.3832
  390ACOH    H412013   6.248   2.631   5.090 -2.9033  3.4404 -0.1687
  390ACOH    O212014   6.179   2.567   5.113  0.0633 -0.2711 -1.0526
  390ACOH    C212015   6.062   2.611   5.062  0.0807  0.4004  0.1293
  390ACOH    O112016   6.043   2.713   5.003 -0.2517 -0.4286  0.4055
  390ACOH    C112017   5.947   2.517   5.071  0.2343 -0.1584 -0.6987
  390ACOH    H112018   5.888   2.519   4.979 -0.3961 -0.7063 -0.3065
  390ACOH    H212019   5.876   2.550   5.146 -0.8612  0.2594 -1.9124
  390ACOH    H312020   5.979   2.414   5.090 -3.0693 -1.2416 -0.8039
  391ACOH    H412021   2.531   5.127   5.455 -0.4087  1.1076  2.7411
  391ACOH    O212022   2.611   5.075   5.473 -0.3920  0.2322  0.3376
  391ACOH    C212023   2.682   5.050   5.358  0.3569 -0.8475  0.1955
  391ACOH    O112024   2.673   5.110   5.249  0.3490  0.3957 -0.8206
  391ACOH    C112025   2.786   4.943   5.381  0.4035  0.4796  0.2543
  391ACOH    H112026   2.799   4.935   5.489 -2.2158 -0.9716  0.5140
  391ACOH    H212027   2.878   4.969   5.329 -0.2538  0.0642 -1.1465
  391ACOH    H312028   2.756   4.843   5.347  1.9606  0.2102 -0.3472
  392ACOH    H412029   6.918   6.926   6.328  2.2200 -1.3219 -2.7588
  392ACOH    O212030   6.870   6.842   6.319  0.2417 -0.5695  0.1763
  392ACOH    C212031   6.903   6.762   6.423  0.4109  0.4000  0.0204
  392ACOH    O112032   6.956   6.787   6.529  0.0033 -0.2750 -1.0477
  392ACOH    C112033   6.826   6.630   6.401 -0.7876 -0.4824 -0.0426
  392ACOH    H112034   6.843   6.595   6.299  1.8367 -0.3533  0.2979
  392ACOH    H212035   6.720   6.649   6.408 -1.4264 -3.1209 -1.6484
  392ACOH    H312036   6.850   6.551   6.473 -1.0728  1.3555  2.1119
  393ACOH    H412037   4.106   4.414   4.529 -0.3983  0.5346 -0.6124
  393ACOH    O212038   4.171   4.433   4.459  0.1606  1.2616  0.0983
  393ACOH    C212039   4.174   4.562   4.468 -0.6345 -0.6413 -0.2253
  393ACOH    O112040   4.173   4.626   4.572  0.0349 -0.4080  0.8472
  393ACOH    C112041   4.249   4.628   4.352  0.3764  0.2549  0.5398
  393ACOH    H112042   4.300   4.710   4.401  0.4294  0.5146  0.0544
  393ACOH    H212043   4.166   4.660   4.289  0.5799 -2.0450 -0.9626
  393ACOH    H312044   4.321   4.567   4.298  0.6733  1.4392 -0.4369
  394ACOH    H412045   3.083   7.250   5.383 -0.6097  2.6308 -1.3198
  394ACOH    O212046   3.055   7.210   5.299 -0.3029 -0.2491 -0.1213
  394ACOH    C212047   3.086   7.303   5.206  0.9090 -0.5703  0.1408
  394ACOH    O112048   3.135   7.413   5.232  0.0016 -0.3815  0.7983
  394ACOH    C112049   3.029   7.267   5.072 -0.2717 -1.4221  0.0551
  394ACOH    H112050   2.932   7.315   5.062  0.4186  0.0321  0.2070
  394ACOH    H212051   2.997   7.164   5.054 -0.4556 -2.2483  4.4564
  394ACOH    H312052   3.093   7.303   4.992  0.7779 -1.1948  0.9827
  395ACOH    H412053   9.131   3.052   7.312 -0.6983  0.1680 -0.2532
  395ACOH    O212054   9.125   3.071   7.407 -0.3216  0.5121 -0.3029
  395ACOH    C212055   9.030   2.996   7.466 -0.0339 -1.0312  0.8388
  395ACOH    O112056   8.936   2.942   7.408  0.2140  0.1528  0.4036
  395ACOH    C112057   9.030   3.038   7.606  0.7806  0.1081  0.0169
  395ACOH    H112058   8.986   3.137   7.619  0.4161 -0.1629  0.9119
  395ACOH    H212059   9.132   3.046   7.644  0.3927  2.7953  0.5886
  395ACOH    H312060   8.968   2.973   7.669 -0.2647  1.2777  0.2035
  396ACOH    H412061   6.568   2.759   4.566 -0.4843 -0.5880  1.2061
  396ACOH    O212062   6.534   2.827   4.625 -0.4538  0.0972  0.4436
  396ACOH    C212063   6.407   2.849   4.577 -0.1335  0.2587  0.1977
  396ACOH    O112064   6.370   2.842   4.459  0.5466 -0.1584 -0.0024
  396ACOH    C112065   6.324   2.928   4.683 -0.1915 -0.0856  0.0159
  396ACOH    H112066   6.231   2.964   4.639  0.3211 -1.2986 -2.1440
  396ACOH    H212067   6.383   3.015   4.711 -0.0679 -0.4862  1.0391
  396ACOH    H312068   6.310   2.869   4.774 -2.0976  0.2952 -0.0071
  397ACOH    H412069   6.715   6.485   4.171 -1.0215  1.6182  0.4824
  397ACOH    O212070   6.631   6.436   4.168 -0.1349  0.1306 -0.4105
  397ACOH    C212071   6.564   6.482   4.272 -0.4910  0.5578  0.0749
  397ACOH    O112072   6.599   6.561   4.361 -0.0946 -0.3858 -0.3896
  397ACOH    C112073   6.426   6.429   4.271  0.5711 -0.1124 -0.4873
  397ACOH    H112074   6.389   6.420   4.168 -0.1531 -0.3296 -0.2097
  397ACOH    H212075   6.355   6.496   4.319 -1.4768 -2.1792 -0.5223
  397ACOH    H312076   6.419   6.330   4.316 -0.1259  0.2203  0.1367
  398ACOH    H412077   1.365   8.844   2.300  1.7509  1.2757  0.1016
  398ACOH    O212078   1.330   8.930   2.326 -0.1905  0.4195  0.3641
  398ACOH    C212079   1.207   8.900   2.368 -0.5790 -0.4769  0.6675
  398ACOH    O112080   1.145   8.800   2.345 -0.2911  0.3957  0.2593
  398ACOH    C112081   1.145   9.015   2.438 -0.1653 -0.3448  1.1922
  398ACOH    H112082   1.108   8.989   2.537 -0.9543 -0.5663  0.8454
  398ACOH    H212083   1.071   9.071   2.381  1.3137 -1.6707 -2.1985
  398ACOH    H312084   1.217   9.093   2.461 -0.5029  0.2458  0.3093
  399ACOH    H412085   5.593   5.122   1.781 -0.6790  0.4514  0.8712
  399ACOH    O212086   5.668   5.072   1.818 -0.3204  0.1605 -0.2426
  399ACOH    C212087   5.616   4.950   1.839 -0.4001 -0.6499 -0.1857
  399ACOH    O112088   5.550   4.890   1.754  0.4079 -0.1436 -0.0225
  399ACOH    C112089   5.687   4.879   1.944 -0.2520  0.6437  0.4895
  399ACOH    H112090   5.704   4.774   1.922 -1.1943  0.4868  0.5328
  399ACOH    H212091   5.629   4.888   2.036 -0.8369 -0.6248  0.2511
  399ACOH    H312092   5.785   4.925   1.960  0.7097 -1.7697  1.8872
  400ACOH    H412093   4.755   4.894   6.468 -0.6044  0.4225 -0.6608
  400ACOH    O212094   4.730   4.958   6.537 -0.5499 -0.3921  0.1257
  400ACOH    C212095   4.831   4.958   6.625  0.6670  1.0385  0.0235
  400ACOH    O112096   4.940   4.912   6.619 -0.1257  0.1002  0.1547
  400ACOH    C112097   4.788   5.030   6.750  0.4071  0.3728  0.4954
  400ACOH    H112098   4.837   5.128   6.747  2.1932 -0.5320 -1.2078
  400ACOH    H212099   4.801   4.971   6.840 -0.5887  2.9411  2.3879
  400ACOH    H312100   4.682   5.052   6.751  0.8271  2.5530  0.2303
  401ACOH    H412101   4.716   9.616   2.433  0.9268  0.9175 -0.8616
  401ACOH    O212102   4.761   9.579   2.355  0.4479 -0.7717 -0.3586
  401ACOH    C212103   4.798   9.454   2.354  0.0920  0.0043 -0.2385
  401ACOH    O112104   4.757   9.364   2.423 -0.3332  0.1907 -0.2727
  401ACOH    C112105   4.910   9.435   2.265  0.4212  0.1523 -0.1085
  401ACOH    H112106   4.917   9.329   2.243 -1.6011 -0.1227  0.4667
  401ACOH    H212107   5.000   9.468   2.317  1.0471 -1.0186 -0.4355
  401ACOH    H312108   4.880   9.490   2.176  0.1279 -0.2643 -0.2692
  402ACOH    H412109   7.295   6.415   5.814  2.1261 -0.2328  1.2252
  402ACOH    O212110   7.258   6.334   5.853  0.1749  0.0084 -0.0416
  402ACOH    C212111   7.297   6.348   5.983 -0.1194 -0.1366  0.1114
  402ACOH    O112112   7.379   6.430   6.024  0.1333  0.1639  0.4682
  402ACOH    C112113   7.257   6.231   6.059  0.0116  0.4282  0.1122
  402ACOH    H112114   7.153   6.202   6.044  0.7454 -2.7527  0.7529
  402ACOH    H212115   7.274   6.244   6.166  1.8260  2.2846 -0.3668
  402ACOH    H312116   7.314   6.144   6.026 -1.4594 -1.2371  1.8862
  403ACOH    H412117   5.421   8.535   1.144  3.0773 -1.5447 -1.1956
  403ACOH    O212118   5.428   8.608   1.080  0.1538  0.0119  0.1567
  403ACOH    C212119   5.347   8.711   1.102 -0.0948  0.3110 -0.7649
  403ACOH    O112120   5.277   8.723   1.198  0.0919 -0.0478 -0.1111
  403ACOH    C112121   5.348   8.809   0.989  0.6030  0.9778  0.0700
  403ACOH    H112122   5.251   8.799   0.940  0.0551 -2.4277  1.7031
  403ACOH    H212123   5.411   8.777   0.905  1.7467  0.8448  0.9702
  403ACOH    H312124   5.363   8.910   1.025 -2.3771  1.2399  0.7094
  404ACOH    H412125   6.427   2.263   3.490 -0.4884  0.7201 -0.1968
  404ACOH    O212126   6.479   2.235   3.413  0.2401 -0.2802  0.6415
  404ACOH    C212127   6.488   2.103   3.409 -1.0250  0.8609 -0.2355
  404ACOH    O112128   6.512   2.024   3.497 -0.3505  0.3731 -0.3656
  404ACOH    C112129   6.521   2.082   3.268  0.5348 -0.4936 -0.1306
  404ACOH    H112130   6.626   2.054   3.259  0.2904 -1.7712  0.7568
  404ACOH    H212131   6.502   2.167   3.203 -1.3060  0.4703  1.6213
  404ACOH    H312132   6.457   2.002   3.232 -0.5768  0.9485 -1.4350
  405ACOH    H412133   7.428   5.350   5.592 -1.0447 -0.0549 -0.1607
  405ACOH    O212134   7.442   5.286   5.519 -0.4889 -0.2117  0.0800
  405ACOH    C212135   7.502   5.176   5.569 -0.0675 -0.5626  0.0131
  405ACOH    O112136   7.533   5.156   5.685 -0.0618  0.3424  0.0195
  405ACOH    C112137   7.507   5.079   5.459  0.2110  0.0944  0.1006
  405ACOH    H112138   7.499   5.121   5.358 -0.4732  0.1611  0.1819
  405ACOH    H212139   7.440   4.995   5.475 -1.2885  1.1839 -0.3595
  405ACOH    H312140   7.608   5.040   5.465 -0.2068 -1.6917 -3.2061
  406ACOH    H412141   6.063   6.955   1.243 -0.0409 -1.2521 -1.4067
  406ACOH    O212142   6.020   7.026   1.193  0.8303 -0.2924 -0.8036
  406ACOH    C212143   5.979   7.130   1.278  0.1836  0.5300  0.3370
  406ACOH    O112144   5.997   7.133   1.398  0.4650  0.5325 -0.1035
  406ACOH    C112145   5.873   7.216   1.219 -0.1375 -0.0445  0.5436
  406ACOH    H112146   5.776   7.190   1.262  0.3609  1.0248  2.3964
  406ACOH    H212147   5.881   7.188   1.115 -1.4061 -1.0988  0.7171
  406ACOH    H312148   5.888   7.324   1.228 -0.5142 -0.0266  1.0123
  407ACOH    H412149   3.454   4.915   7.619 -2.0086 -0.2554 -0.8066
  407ACOH    O212150   3.474   4.820   7.606  0.5301  0.1433 -0.1951
  407ACOH    C212151   3.424   4.778   7.491 -0.0961  0.0018  0.2923
  407ACOH    O112152   3.441   4.672   7.434  0.0757 -0.1381 -0.9469
  407ACOH    C112153   3.363   4.890   7.420 -0.5819 -0.3155 -0.4863
  407ACOH    H112154   3.322   4.858   7.324 -1.1551 -0.5118 -0.1851
  407ACOH    H212155   3.440   4.963   7.399 -0.6309  0.6644  2.5025
  407ACOH    H312156   3.284   4.942   7.474 -0.0725 -2.0111  1.9768
  408ACOH    H412157   7.893   9.753   7.832  0.8604 -0.3026  1.8078
  408ACOH    O212158   7.833   9.794   7.895 -0.5756  0.3908  0.0354
  408ACOH    C212159   7.907   9.861   7.982 -0.9387 -0.3330  0.3127
  408ACOH    O112160   8.029   9.866   7.969  0.2005  0.0743 -0.4952
  408ACOH    C112161   7.822   9.944   8.072 -0.0829 -0.1309 -0.1210
  408ACOH    H112162   7.762  10.013   8.012 -1.2826 -0.6031  0.5085
  408ACOH    H212163   7.890   9.993   8.141  0.5523 -2.7644  1.2160
  408ACOH    H312164   7.760   9.879   8.134  0.3139 -1.3612 -0.9797
  409ACOH    H412165   4.110   6.302   3.670 -1.0485  0.2638  0.6011
  409ACOH    O212166   4.145   6.284   3.759 -0.1634 -0.3341  0.1440
  409ACOH    C212167   4.133   6.390   3.838  1.0146 -0.3133  0.2482
  409ACOH    O112168   4.114   6.504   3.800  0.2398  0.0038 -0.2942
  409ACOH    C112169   4.179   6.363   3.972 -0.0258 -0.1451 -0.0083
  409ACOH    H112170   4.140   6.270   4.014  2.1805 -0.7956  0.6930
  409ACOH    H212171   4.158   6.447   4.037  1.5646  0.8447 -0.7383
  409ACOH    H312172   4.288   6.361   3.969 -0.0101  0.5833  0.0063
  410ACOH    H412173   7.677   4.157   4.141 -0.3881 -0.1140  0.2995
  410ACOH    O212174   7.640   4.081   4.191  0.2150 -0.2220  0.5885
  410ACOH    C212175   7.748   4.027   4.254 -0.3148  0.5999 -0.0332
  410ACOH    O112176   7.843   4.094   4.286 -0.9343  0.5137 -0.1626
  410ACOH    C112177   7.723   3.885   4.304 -0.5366  0.5024 -0.0447
  410ACOH    H112178   7.764   3.867   4.403  3.6043 -2.5004 -2.1811
  410ACOH    H212179   7.776   3.818   4.237 -0.8869  0.9050 -0.7345
  410ACOH    H312180   7.615   3.870   4.300 -0.2273 -1.4744 -1.2986
  411ACOH    H412181   6.696   4.067   7.305  0.5196 -0.9674 -0.4179
  411ACOH    O212182   6.622   4.038   7.248 -0.0461  0.2803 -0.3510
  411ACOH    C212183   6.526   4.131   7.236  0.2061 -0.5713 -0.2474
  411ACOH    O112184   6.534   4.240   7.300 -0.3123  0.1493  0.0611
  411ACOH    C112185   6.430   4.092   7.130  0.5302  0.4894  0.0482
  411ACOH    H112186   6.436   4.165   7.049 -0.7632  0.6798  0.1078
  411ACOH    H212187   6.326   4.091   7.163 -0.2410  0.4518 -2.2424
  411ACOH    H312188   6.457   3.995   7.087 -0.0813  0.0085  0.7346
  412ACOH    H412189   5.542   7.484   6.250  0.2318 -0.3053 -2.6741
  412ACOH    O212190   5.457   7.438   6.259  0.4190 -0.2216 -0.4015
  412ACOH    C212191   5.392   7.426   6.140  0.2491  0.2996 -0.2841
  412ACOH    O112192   5.409   7.501   6.047 -0.6463  0.1161 -0.2578
  412ACOH    C112193   5.263   7.353   6.145 -0.0967  1.0605 -0.0947
  412ACOH    H112194   5.262   7.294   6.236 -1.4958 -2.6840 -2.4210
  412ACOH    H212195   5.252   7.286   6.060 -0.4531  2.5634 -1.2576
  412ACOH    H312196   5.186   7.430   6.151 -1.6350 -0.4788  0.2766
  413ACOH    H412197   1.487   8.138   8.015 -2.0479  0.9782 -1.4498
  413ACOH    O212198   1.555   8.203   7.990  0.1259 -0.4509  0.5396
  413ACOH    C212199   1.675   8.167   8.038 -0.2865  0.3649 -0.6728
  413ACOH    O112200   1.692   8.084   8.127 -0.0924 -0.4399  0.8132
  413ACOH    C112201   1.790   8.243   7.985  0.0341 -0.2269  0.3474
  413ACOH    H112202   1.872   8.182   7.948  2.2177  3.4834 -1.1868
  413ACOH    H212203   1.825   8.296   8.073 -0.7224 -1.3475  1.3483
  413ACOH    H312204   1.750   8.315   7.913 -1.2256 -1.8382 -0.5972
  414ACOH    H412205   1.802   2.263   6.647  0.5425 -0.6894  0.3590
  414ACOH    O212206   1.711   2.234   6.666  0.1538  0.2526  0.0041
  414ACOH    C212207   1.646   2.344   6.689 -0.7878  0.1175 -0.1999
  414ACOH    O112208   1.696   2.444   6.735  0.3528 -0.5576  0.2330
  414ACOH    C112209   1.498   2.319   6.681 -0.0091 -0.6234 -0.5245
  414ACOH    H112210   1.453   2.305   6.583  1.3977  0.2264 -1.3094
  414ACOH    H212211   1.445   2.401   6.729 -2.3219 -1.3672 -1.7307
  414ACOH    H312212   1.475   2.228   6.737  0.7230 -0.4309  0.1066
  415ACOH    H412213   7.248   2.591   1.102  1.5981  2.3634  3.0188
  415ACOH    O212214   7.332   2.585   1.054 -0.2211  0.7077 -0.0787
  415ACOH    C212215   7.396   2.488   1.115 -0.1710  0.8149 -0.4565
  415ACOH    O112216   7.356   2.409   1.197  0.5558  0.9048 -0.3310
  415ACOH    C112217   7.510   2.444   1.038 -0.0364  0.0807  0.0025
  415ACOH    H112218   7.566   2.527   0.994  1.7931 -0.8411  0.5616
  415ACOH    H212219   7.467   2.380   0.961 -0.8444  1.6510 -0.8752
  415ACOH    H312220   7.582   2.389   1.098  0.5072  0.1092 -0.6273
  416ACOH    H412221   3.820   6.039   4.543  0.6783  0.4229 -0.4512
  416ACOH    O212222   3.882   6.006   4.609  0.2389  0.7821  0.1492
  416ACOH    C212223   3.894   6.097   4.705 -0.1736 -0.8679  0.0908
  416ACOH    O112224   3.848   6.208   4.701 -0.4316  0.1133 -0.1880
  416ACOH    C112225   3.987   6.057   4.815 -0.2590 -0.5346 -0.0418
  416ACOH    H112226   3.988   6.134   4.892  1.3343 -1.0856  0.5007
  416ACOH    H212227   4.083   6.032   4.770  1.5318  2.0480  2.2265
  416ACOH    H312228   3.952   5.964   4.859  0.2763 -0.4842  0.5020
  417ACOH    H412229   5.727   1.704   7.511  0.4689 -1.3118 -0.2945
  417ACOH    O212230   5.692   1.722   7.422  0.4795  0.4264  0.0204
  417ACOH    C212231   5.584   1.789   7.444  0.7569 -0.3074  0.2832
  417ACOH    O112232   5.546   1.862   7.534 -0.8930  0.1699  0.0799
  417ACOH    C112233   5.502   1.791   7.318 -0.2120 -0.3957  0.3533
  417ACOH    H112234   5.561   1.783   7.226 -1.7161 -0.6614 -0.6091
  417ACOH    H212235   5.440   1.880   7.312 -0.7336 -0.9124 -2.6513
  417ACOH    H312236   5.438   1.703   7.318  1.1998 -1.4584 -0.7047
  418ACOH    H412237   3.582   8.430   8.018 -3.3851  2.9833  0.6540
  418ACOH    O212238   3.532   8.351   7.991  0.6415  0.4343  0.1737
  418ACOH    C212239   3.546   8.251   8.080  0.8548 -0.6340  0.0865
  418ACOH    O112240   3.521   8.132   8.059  0.3822 -0.5395  0.2999
  418ACOH    C112241   3.578   8.300   8.219 -0.5539 -0.2403  0.6275
  418ACOH    H112242   3.545   8.227   8.292 -1.7858 -3.2341 -2.7481
  418ACOH    H212243   3.517   8.389   8.231  0.4397  0.5272  0.0835
  418ACOH    H312244   3.686   8.318   8.221 -0.6687  0.4797  0.5408
  419ACOH    H412245   0.505   9.464   7.047  1.1322  0.5555  1.7071
  419ACOH    O212246   0.556   9.534   7.005 -0.1527  0.2791 -0.3650
  419ACOH    C212247   0.485   9.645   7.038  0.3705 -0.2195  0.0055
  419ACOH    O112248   0.394   9.655   7.117 -0.4823 -0.1248 -0.2019
  419ACOH    C112249   0.579   9.755   7.000 -0.1064  0.0598  0.1609
  419ACOH    H112250   0.656   9.764   7.077 -1.1677  0.6864  1.1709
  419ACOH    H212251   0.527   9.850   6.989 -1.6180 -0.6890  0.6278
  419ACOH    H312252   0.637   9.737   6.910  1.3812  0.9639  0.9109
  420ACOH    H412253   7.010   9.494   4.697  1.8793  1.0228 -1.4830
  420ACOH    O212254   7.033   9.554   4.770 -0.2560  0.3913 -0.2600
  420ACOH    C212255   7.027   9.481   4.883  0.3524  0.3061  0.1471
  420ACOH    O112256   7.010   9.359   4.894 -0.3373 -0.3661  0.2004
  420ACOH    C112257   7.045   9.569   4.995 -0.5787  0.0909  0.1356
  420ACOH    H112258   6.952   9.618   5.022 -0.5298  0.0045  0.4597
  420ACOH    H212259   7.116   9.646   4.968  0.1881 -1.3833 -2.2871
  420ACOH    H312260   7.071   9.511   5.083 -0.5088  0.4275  0.3329
  421ACOH    H412261   6.884   5.069   6.478 -1.7076  1.6195  0.9086
  421ACOH    O212262   6.860   5.088   6.386  0.1393 -0.6398 -0.0819
  421ACOH    C212263   6.754   5.169   6.391 -0.7368  0.5038  0.6526
  421ACOH    O112264   6.688   5.200   6.484  0.5371  0.1311  0.2168
  421ACOH    C112265   6.737   5.226   6.255 -0.2549  0.2543  0.1763
  421ACOH    H112266   6.761   5.332   6.263 -0.7682  0.4237 -0.4324
  421ACOH    H212267   6.632   5.212   6.230  0.2015 -1.6129 -0.7441
  421ACOH    H312268   6.809   5.188   6.183  4.0408  4.2852  2.0795
  422ACOH    H412269   0.755   3.819   2.949 -0.0763 -0.3047 -1.2146
  422ACOH    O212270   0.842   3.781   2.972 -0.0678  0.5637  0.2408
  422ACOH    C212271   0.920   3.863   3.050  0.1736  0.0068 -0.4397
  422ACOH    O112272   0.887   3.962   3.106 -0.7823  0.0622 -0.3752
  422ACOH    C112273   1.052   3.792   3.082  0.1057 -0.5259  0.5296
  422ACOH    H112274   1.061   3.775   3.189 -2.9326 -0.6866  0.8117
  422ACOH    H212275   1.135   3.851   3.043  0.8079  0.3769  3.3162
  422ACOH    H312276   1.063   3.693   3.038  0.6772 -0.1621 -0.1548
  423ACOH    H412277   7.894   9.633   1.462  1.8320 -0.9466 -0.1164
  423ACOH    O212278   7.868   9.588   1.380  0.1207 -0.1832 -0.0031
  423ACOH    C212279   7.732   9.581   1.383  0.7311 -0.3213  0.3411
  423ACOH    O112280   7.661   9.620   1.476 -0.9628 -0.0645  0.1640
  423ACOH    C112281   7.674   9.490   1.282 -0.4522 -0.0630  1.2632
  423ACOH    H112282   7.566   9.498   1.282 -0.6293 -1.0386  5.3830
  423ACOH    H212283   7.694   9.386   1.306  2.3296 -0.5891 -2.7455
  423ACOH    H312284   7.711   9.512   1.182  0.5840  0.2603  1.7098
  424ACOH    H412285   0.156   0.406   3.065  2.3842  0.7824 -0.4144
  424ACOH    O212286   0.102   0.485   3.048  0.1592 -0.5543  0.2532
  424ACOH    C212287   0.189   0.585   3.064  0.2987 -1.0367 -0.1286
  424ACOH    O112288   0.306   0.582   3.045  0.2184 -0.4235 -0.3845
  424ACOH    C112289   0.123   0.716   3.046 -0.0477 -0.3763  0.2557
  424ACOH    H112290   0.180   0.791   3.101 -0.5669  0.7550 -0.7186
  424ACOH    H212291   0.020   0.717   3.081  0.2441 -1.9002  1.2135
  424ACOH    H312292   0.126   0.747   2.941  1.6138  0.9535  0.6764
  425ACOH    H412293   7.257   8.856   6.825 -0.6769  0.5496 -0.3607
  425ACOH    O212294   7.265   8.890   6.916  0.3636 -0.6672  0.0253
  425ACOH    C212295   7.192   9.007   6.918  1.3303 -0.0841 -0.8772
  425ACOH    O112296   7.153   9.062   6.815  0.2923  0.4392  0.0709
  425ACOH    C112297   7.182   9.052   7.060  0.4913 -0.3954  0.4081
  425ACOH    H112298   7.151   9.156   7.068 -0.0712 -0.2872 -2.5181
  425ACOH    H212299   7.281   9.032   7.100 -0.2071 -2.3500  1.2053
  425ACOH    H312300   7.103   8.987   7.098  0.0100 -1.1322 -1.7261
  426ACOH    H412301   0.172   8.745   8.113  0.2784  0.0968  0.4301
  426ACOH    O212302   0.105   8.704   8.058 -0.1402  0.5956  0.5621
  426ACOH    C212303   0.124   8.731   7.924 -0.3978  0.4955 -0.0293
  426ACOH    O112304   0.232   8.770   7.887  0.6042 -0.0546 -0.2076
  426ACOH    C112305   0.019   8.687   7.826 -0.1151 -0.3756  0.4968
  426ACOH    H112306  -0.042   8.765   7.780  1.2732 -0.1118 -0.9082
  426ACOH    H212307  -0.042   8.610   7.873 -0.2792  0.4767  1.7245
  426ACOH    H312308   0.072   8.642   7.743 -1.5269 -0.9594 -0.1026
  427ACOH    H412309   7.556   4.328   5.043 -0.7235 -0.4452 -0.6925
  427ACOH    O212310   7.484   4.380   5.002 -0.5857  0.1031 -0.2387
  427ACOH    C212311   7.456   4.485   5.075 -0.1729  0.2507 -0.0987
  427ACOH    O112312   7.501   4.501   5.185  0.5140  0.3568 -0.3592
  427ACOH    C112313   7.351   4.559   5.003  0.2915  0.0076  0.1209
  427ACOH    H112314   7.320   4.505   4.913  0.1120 -1.6551  1.1517
  427ACOH    H212315   7.392   4.656   4.975 -1.0518  0.8217  0.9213
  427ACOH    H312316   7.265   4.567   5.070 -1.3644  2.5277 -2.2276
  428ACOH    H412317   5.193   2.739   4.186  0.2130 -0.9844 -1.5797
  428ACOH    O212318   5.109   2.703   4.219  0.0635  0.5809 -0.1656
  428ACOH    C212319   5.119   2.687   4.349 -0.3509  0.5981 -0.0746
  428ACOH    O112320   5.223   2.693   4.413  0.2172 -0.5745  0.1301
  428ACOH    C112321   4.992   2.635   4.414  0.5863 -0.8641  0.0249
  428ACOH    H112322   4.919   2.625   4.335 -1.5815  0.0726  1.8417
  428ACOH    H212323   4.955   2.705   4.490  0.4635 -1.4355  0.4941
  428ACOH    H312324   5.007   2.533   4.448  1.4971 -1.5525 -2.3912
  429ACOH    H412325   4.047   7.106   0.599  0.4518  0.4673  2.3287
  429ACOH    O212326   4.031   7.019   0.638  0.1843 -0.4313  0.3009
  429ACOH    C212327   3.976   6.956   0.536  0.4446 -0.6505 -0.4017
  429ACOH    O112328   3.977   6.987   0.418  0.5983  0.0411  0.1750
  429ACOH    C112329   3.931   6.822   0.580 -0.0273  0.3995 -0.9061
  429ACOH    H112330   3.984   6.745   0.525 -1.7988 -0.1159 -1.9069
  429ACOH    H212331   3.826   6.810   0.553 -0.4880 -0.7496  1.2097
  429ACOH    H312332   3.946   6.801   0.686 -2.0046 -1.2515 -0.9205
  430ACOH    H412333   7.042   4.014   2.517  0.8975  0.1300 -2.3468
  430ACOH    O212334   7.075   4.102   2.542 -0.3784  0.0346 -0.1917
  430ACOH    C212335   7.008   4.195   2.471 -0.7576 -0.2590 -0.8422
  430ACOH    O112336   6.903   4.184   2.409 -0.0517  0.3010 -0.2362
  430ACOH    C112337   7.069   4.334   2.488 -0.1053 -0.0118 -0.0512
  430ACOH    H112338   7.161   4.328   2.430 -0.2060  1.1073 -0.3447
  430ACOH    H212339   7.086   4.357   2.593 -1.5794 -2.0568  0.6710
  430ACOH    H312340   7.006   4.415   2.451 -1.6483 -1.7019 -1.2438
  431ACOH    H412341   5.133   9.750   6.789 -0.2612  1.3295 -0.6549
  431ACOH    O212342   5.216   9.778   6.833  0.1585  0.0549 -0.6123
  431ACOH    C212343   5.299   9.675   6.817  0.1883 -0.4830 -0.4615
  431ACOH    O112344   5.292   9.599   6.722 -0.0726  0.0222  0.0056
  431ACOH    C112345   5.422   9.672   6.902  0.4871 -0.9834 -0.2870
  431ACOH    H112346   5.483   9.759   6.877 -0.1116 -0.4292  0.1453
  431ACOH    H212347   5.473   9.576   6.890  0.1335 -1.0979 -0.9287
  431ACOH    H312348   5.389   9.688   7.005  2.2732  0.4308  0.0777
  432ACOH    H412349   5.320   2.007   6.533  0.6788  0.2330 -1.3237
  432ACOH    O212350   5.314   2.104   6.535  0.4814  0.1972  0.0471
  432ACOH    C212351   5.195   2.131   6.590  0.5747 -0.1454  0.0821
  432ACOH    O112352   5.120   2.057   6.655 -0.6400  0.4032 -0.4926
  432ACOH    C112353   5.168   2.276   6.598  0.0488  0.0719  0.8860
  432ACOH    H112354   5.195   2.327   6.505  0.9112 -1.0759  0.4964
  432ACOH    H212355   5.221   2.331   6.676 -1.8023  3.8780 -0.3828
  432ACOH    H312356   5.061   2.289   6.612 -0.0736 -0.1260  0.1827
  433ACOH    H412357   9.728   8.396   5.821 -0.4827  1.6288  0.5052
  433ACOH    O212358   9.731   8.371   5.915 -0.2651 -0.1315  0.0480
  433ACOH    C212359   9.617   8.293   5.927  0.2438  0.4760 -0.2020
  433ACOH    O112360   9.516   8.293   5.860 -0.2515  0.4769  0.7768
  433ACOH    C112361   9.623   8.203   6.046  0.1050  0.4306  0.1988
  433ACOH    H112362   9.674   8.248   6.131  0.7021 -2.2954  1.3108
  433ACOH    H212363   9.682   8.115   6.020 -0.2602  0.1768  0.2249
  433ACOH    H312364   9.523   8.173   6.075 -1.1296 -1.6298 -5.4433
  434ACOH    H412365   6.298   4.945   7.057 -1.0640  0.5031  0.3190
  434ACOH    O212366   6.295   4.977   6.965  0.0513 -0.2728 -0.0024
  434ACOH    C212367   6.211   5.079   6.970 -0.1648  0.1151 -0.8160
  434ACOH    O112368   6.126   5.086   7.055  0.5294  0.0683 -0.1507
  434ACOH    C112369   6.227   5.177   6.858  0.1679  0.4845  0.1632
  434ACOH    H112370   6.200   5.274   6.900  0.6533 -0.2555  2.2692
  434ACOH    H212371   6.165   5.150   6.772 -0.1748  0.6511  0.3587
  434ACOH    H312372   6.332   5.186   6.830  0.3776  0.9138  1.0589
  435ACOH    H412373   6.275   0.291   1.295  2.0971  1.4602  2.0406
  435ACOH    O212374   6.266   0.202   1.335  0.1761  0.7102  0.0322
  435ACOH    C212375   6.196   0.127   1.252 -0.3237 -0.7062 -0.2227
  435ACOH    O112376   6.170   0.148   1.133 -0.2273  0.5592  0.0683
  435ACOH    C112377   6.135   0.010   1.317  0.1968  0.2162  0.0029
  435ACOH    H112378   6.181  -0.006   1.414  0.6668 -1.0877 -0.4157
  435ACOH    H212379   6.140  -0.086   1.265  0.1426  0.0802  0.2435
  435ACOH    H312380   6.031   0.039   1.334  0.1993  0.3727 -0.2573
  436ACOH    H412381   4.921   6.825   2.402  0.1068 -0.3783  0.7615
  436ACOH    O212382   4.879   6.745   2.437  0.1533 -0.6062  0.2903
  436ACOH    C212383   4.748   6.757   2.419  0.8114  0.2233 -0.1677
  436ACOH    O112384   4.701   6.839   2.344  0.4805  0.0121  0.0934
  436ACOH    C112385   4.671   6.653   2.490  0.2915 -0.4487 -0.4611
  436ACOH    H112386   4.567   6.643   2.459 -0.4793 -0.4952  1.9786
  436ACOH    H212387   4.687   6.664   2.598 -2.2847  0.2951 -0.1158
  436ACOH    H312388   4.722   6.562   2.461  1.0041  0.4078 -1.9172
  437ACOH    H412389   7.095   3.081   4.323  3.7894 -1.1935 -0.8781
  437ACOH    O212390   7.099   3.121   4.235  0.8348  0.3207 -0.3726
  437ACOH    C212391   7.220   3.162   4.198 -0.0895  0.0580 -0.2078
  437ACOH    O112392   7.315   3.141   4.269 -0.4490 -0.1116 -0.9152
  437ACOH    C112393   7.230   3.222   4.067 -0.2775  0.1010  0.3826
  437ACOH    H112394   7.152   3.192   3.997 -0.1900  1.3427 -0.2513
  437ACOH    H212395   7.321   3.189   4.015 -0.5610  0.6224 -0.4500
  437ACOH    H312396   7.236   3.330   4.075  1.2212 -0.1056  2.3935
  438ACOH    H412397   7.491   7.213   6.945  0.6937 -0.9917 -0.1906
  438ACOH    O212398   7.475   7.159   7.024  0.1153 -0.2308  0.2136
  438ACOH    C212399   7.359   7.088   7.008  0.3416  1.0222  0.7587
  438ACOH    O112400   7.285   7.104   6.916 -0.6789  0.7422  0.0575
  438ACOH    C112401   7.316   7.046   7.144 -0.2853 -0.5297  0.5798
  438ACOH    H112402   7.350   7.111   7.225  2.4469 -1.1262 -0.0344
  438ACOH    H212403   7.356   6.946   7.164 -0.5037 -1.0132 -1.2727
  438ACOH    H312404   7.208   7.036   7.153  0.0492 -3.8641  1.7539
  439ACOH    H412405   8.140   6.888   0.457  1.2032  0.0906 -0.8957
  439ACOH    O212406   8.076   6.960   0.443  0.8171 -0.0486  0.1125
  439ACOH    C212407   8.019   6.987   0.564  0.4170  0.2256 -0.1066
  439ACOH    O112408   8.029   6.908   0.659  0.0198 -0.0200  0.1305
  439ACOH    C112409   7.909   7.080   0.554  0.3977  0.2951  0.2116
  439ACOH    H112410   7.826   7.048   0.617 -2.8442  0.4673 -3.7046
  439ACOH    H212411   7.871   7.084   0.452 -1.6521  1.4581  0.9747
  439ACOH    H312412   7.932   7.182   0.583  0.4933  1.2922 -3.1043
  440ACOH    H412413   2.340   0.819   7.052 -1.6503 -0.1878 -2.1228
  440ACOH    O212414   2.257   0.814   7.103 -0.1920  0.7925  0.5002
  440ACOH    C212415   2.252   0.942   7.161  1.0634  1.7048 -0.3118
  440ACOH    O112416   2.313   1.042   7.130 -0.3143 -0.0681  0.1025
  440ACOH    C112417   2.158   0.942   7.277 -0.2209 -0.7612  0.6743
  440ACOH    H112418   2.224   0.961   7.362  1.1283  0.9540 -0.7439
  440ACOH    H212419   2.121   0.840   7.292  0.0743 -1.0432 -0.4704
  440ACOH    H312420   2.082   1.020   7.272  0.3208 -0.3238 -0.8586
  441ACOH    H412421   3.270   3.347   7.934 -0.4464  2.2030 -0.3318
  441ACOH    O212422   3.316   3.359   7.849  0.6673  0.3598 -0.0172
  441ACOH    C212423   3.439   3.330   7.889  0.2683  0.1831  1.2584
  441ACOH    O112424   3.472   3.270   7.989  0.0722  0.1632  0.4104
  441ACOH    C112425   3.539   3.365   7.784 -0.3792 -0.1039 -0.4325
  441ACOH    H112426   3.568   3.269   7.740 -0.0271  0.0576 -0.5590
  441ACOH    H212427   3.628   3.402   7.836 -1.7217  2.0043  0.4582
  441ACOH    H312428   3.500   3.435   7.710 -0.5479 -1.3495 -1.5481
  442ACOH    H412429   4.595   4.675   4.494  3.0164  1.8482 -0.3199
  442ACOH    O212430   4.567   4.694   4.585  0.2615 -0.0550 -0.7004
  442ACOH    C212431   4.514   4.817   4.582  0.2392 -0.2589 -0.6715
  442ACOH    O112432   4.522   4.896   4.493 -0.1007 -0.1995  0.3827
  442ACOH    C112433   4.445   4.847   4.708 -0.0906 -0.5721 -0.0757
  442ACOH    H112434   4.464   4.948   4.745  0.2082 -0.2546 -1.0822
  442ACOH    H212435   4.471   4.773   4.783  1.2930 -1.1044 -1.0753
  442ACOH    H312436   4.337   4.840   4.696  0.0272 -1.7658 -0.4826
  443ACOH    H412437   4.373   7.465   6.397 -1.3634  2.9524  1.4599
  443ACOH    O212438   4.305   7.463   6.326  0.0099  0.4058  0.1390
  443ACOH    C212439   4.340   7.363   6.252 -0.5628 -0.2915  0.0026
  443ACOH    O112440   4.438   7.297   6.264  0.0592 -0.1707 -0.9814
  443ACOH    C112441   4.256   7.350   6.127  0.1079 -0.0881 -0.2742
  443ACOH    H112442   4.167   7.291   6.149  1.2448 -2.1914 -1.2069
  443ACOH    H212443   4.319   7.303   6.051  1.2065  0.8273  0.0585
  443ACOH    H312444   4.234   7.451   6.091 -0.6029 -0.3683 -0.6231
  444ACOH    H412445   7.037   6.217   2.502  0.9296 -2.9692 -1.2287
  444ACOH    O212446   6.946   6.205   2.468  0.2628 -0.2430 -0.4805
  444ACOH    C212447   6.913   6.073   2.473  1.2123  0.7970  0.3474
  444ACOH    O112448   6.973   5.993   2.536 -0.3945  0.4523 -0.4832
  444ACOH    C112449   6.800   6.044   2.386 -0.1334  0.4396  0.2653
  444ACOH    H112450   6.811   5.938   2.361 -2.5909  0.2820 -0.2938
  444ACOH    H212451   6.781   6.104   2.296  0.4652 -3.1485 -2.3742
  444ACOH    H312452   6.713   6.047   2.451  0.7709  0.7416  1.4732
  445ACOH    H412453   5.619   2.701   1.628 -2.4982  1.7519  0.0181
  445ACOH    O212454   5.676   2.754   1.687 -0.4062 -0.2231 -0.1690
  445ACOH    C212455   5.719   2.669   1.779 -0.3948  0.8967  0.0150
  445ACOH    O112456   5.704   2.548   1.790  0.0630 -0.2220  0.1054
  445ACOH    C112457   5.801   2.730   1.879  0.6959 -0.1088  0.2992
  445ACOH    H112458   5.785   2.837   1.886  0.4850 -0.1660  0.7039
  445ACOH    H212459   5.907   2.712   1.861  0.2339 -1.9456 -0.7445
  445ACOH    H312460   5.776   2.685   1.976 -0.2694 -2.3865 -0.9573
  446ACOH    H412461   3.660   5.836   6.323 -0.3623  2.4970 -0.4437
  446ACOH    O212462   3.724   5.867   6.258  0.9974  0.4601 -0.0912
  446ACOH    C212463   3.818   5.768   6.253  0.0112 -0.1658 -0.0789
  446ACOH    O112464   3.791   5.647   6.270  0.3811  0.2020 -0.1979
  446ACOH    C112465   3.954   5.820   6.234  0.9481  0.4799  0.3627
  446ACOH    H112466   4.007   5.761   6.159  2.5778 -0.2960  2.0947
  446ACOH    H212467   4.015   5.817   6.324  1.6621 -2.1974 -0.1775
  446ACOH    H312468   3.956   5.921   6.192  3.1503 -0.3795 -1.7609
  447ACOH    H412469   7.140   3.259   5.781 -0.0969 -0.2773  0.5617
  447ACOH    O212470   7.129   3.174   5.826 -0.0947 -0.3474  0.4288
  447ACOH    C212471   7.186   3.162   5.946  0.5021 -0.0784  0.4103
  447ACOH    O112472   7.210   3.062   6.007 -0.3487  0.2430  0.1456
  447ACOH    C112473   7.255   3.287   5.988  0.4002  0.3823  0.8399
  447ACOH    H112474   7.279   3.354   5.905  2.7384 -1.8624 -0.3784
  447ACOH    H212475   7.349   3.253   6.032  1.3848 -0.9108 -2.0994
  447ACOH    H312476   7.192   3.338   6.060 -0.7629  0.1646 -0.0051
  448ACOH    H412477   5.855   8.765   1.722 -2.0796 -0.5472  0.2191
  448ACOH    O212478   5.880   8.694   1.783 -0.3118 -0.1105  0.0544
  448ACOH    C212479   5.781   8.611   1.781  0.1145 -0.5716  0.1529
  448ACOH    O112480   5.715   8.587   1.679  0.3180  0.1319  0.4112
  448ACOH    C112481   5.786   8.519   1.896 -0.1575  0.2296  0.2378
  448ACOH    H112482   5.874   8.525   1.958 -1.6236  0.6719  2.3279
  448ACOH    H212483   5.763   8.419   1.860 -1.7246  0.7013 -0.1472
  448ACOH    H312484   5.705   8.553   1.961  0.6454 -1.9006  2.3683
  449ACOH    H412485   5.277   0.572   5.021  0.4840  0.0138  1.0032
  449ACOH    O212486   5.323   0.657   5.030  0.4847  0.1586 -0.2222
  449ACOH    C212487   5.232   0.747   5.067 -0.3494  0.3975  0.2909
  449ACOH    O112488   5.115   0.722   5.089 -0.6629 -0.0047 -0.5304
  449ACOH    C112489   5.293   0.870   5.106 -0.0990 -0.1989 -0.5247
  449ACOH    H112490   5.283   0.879   5.214  0.7471 -1.1870 -0.3576
  449ACOH    H212491   5.247   0.949   5.046  0.9226  2.7863  2.4583
  449ACOH    H312492   5.401   0.864   5.095 -0.2204  1.1775 -2.7206
  450ACOH    H412493   5.962   7.571   2.444 -0.2145 -1.5418  0.5883
  450ACOH    O212494   5.932   7.513   2.372  0.0419 -0.0898 -0.7118
  450ACOH    C212495   5.891   7.398   2.433  0.6127  0.2109 -0.3110
  450ACOH    O112496   5.826   7.393   2.540  0.3470  0.0734 -0.5437
  450ACOH    C112497   5.895   7.291   2.330  0.0619 -0.2335 -0.4738
  450ACOH    H112498   5.824   7.322   2.254 -0.2648 -0.4493 -0.2555
  450ACOH    H212499   5.859   7.200   2.379 -0.7075  0.7327  0.7901
  450ACOH    H312500   5.996   7.284   2.288  0.3986  0.1676  0.2515
  451ACOH    H412501   5.829   1.075   2.372  0.6765  0.3945 -1.3390
  451ACOH    O212502   5.742   1.058   2.332 -0.0619  0.6323  0.1270
  451ACOH    C212503   5.749   0.946   2.264  0.9204 -0.5243  0.4468
  451ACOH    O112504   5.844   0.865   2.280 -0.0196  0.5718 -0.1569
  451ACOH    C112505   5.633   0.904   2.186 -0.1463 -0.5862  0.8809
  451ACOH    H112506   5.630   0.945   2.085 -1.2691  0.3258  1.2653
  451ACOH    H212507   5.551   0.940   2.248  1.1295  3.4064  0.3906
  451ACOH    H312508   5.634   0.795   2.179 -2.7106 -0.5398 -0.7457
  452ACOH    H412509   6.814   8.852   1.644  0.5977  0.2907  0.0051
  452ACOH    O212510   6.755   8.776   1.651  0.4867  0.3325 -0.5055
  452ACOH    C212511   6.667   8.803   1.750  0.2825  0.0061  0.5556
  452ACOH    O112512   6.658   8.903   1.815 -0.2622  0.0293  0.6791
  452ACOH    C112513   6.575   8.686   1.761 -0.6022 -0.0540 -0.2744
  452ACOH    H112514   6.478   8.698   1.712 -1.3670  0.2096  1.2857
  452ACOH    H212515   6.545   8.668   1.864 -1.1969 -1.2778 -0.6475
  452ACOH    H312516   6.619   8.595   1.720  1.3665  0.3155  0.9749
  453ACOH    H412517   3.425   6.238   5.690  0.7934  0.4365 -1.7077
  453ACOH    O212518   3.469   6.321   5.714  0.1593  0.4817 -0.6752
  453ACOH    C212519   3.538   6.292   5.829 -0.2481 -0.4046 -0.5334
  453ACOH    O112520   3.522   6.199   5.904  0.4841  0.2529  0.8389
  453ACOH    C112521   3.650   6.391   5.832 -0.4216 -0.5338 -0.0774
  453ACOH    H112522   3.714   6.366   5.916 -0.9973 -2.0594 -0.0648
  453ACOH    H212523   3.613   6.493   5.847 -2.6615 -1.6272  2.3106
  453ACOH    H312524   3.713   6.390   5.744 -0.2371  1.2973  0.0174
  454ACOH    H412525   1.995   0.424   1.029 -2.0244 -0.5518 -1.5743
  454ACOH    O212526   2.028   0.451   0.942  0.0673 -0.0136 -0.6432
  454ACOH    C212527   2.029   0.334   0.876 -0.3645  0.3324  0.2740
  454ACOH    O112528   1.986   0.226   0.915 -0.1393 -0.2160  0.5243
  454ACOH    C112529   2.088   0.353   0.739  0.0254  0.4064 -0.1193
  454ACOH    H112530   2.151   0.268   0.711  1.0131  1.2078 -0.3740
  454ACOH    H212531   2.147   0.445   0.741  0.5716  0.0590  0.2646
  454ACOH    H312532   2.001   0.371   0.676 -0.8489  3.5769  1.9040
  455ACOH    H412533   6.612   6.586   6.132  2.3725 -0.9722  0.9010
  455ACOH    O212534   6.620   6.666   6.186  0.5372 -0.2135  0.0719
  455ACOH    C212535   6.529   6.749   6.134  0.4250  0.2972 -0.1682
  455ACOH    O112536   6.462   6.748   6.031 -0.3521 -0.1506 -0.5279
  455ACOH    C112537   6.527   6.867   6.226 -0.3962  0.2964  0.5272
  455ACOH    H112538   6.534   6.962   6.173  2.5126 -0.2507 -0.1505
  455ACOH    H212539   6.612   6.865   6.294  0.6351 -0.4769 -0.7833
  455ACOH    H312540   6.433   6.856   6.281 -0.1637  0.7764  1.0286
  456ACOH    H412541   7.415   4.713   6.249  0.4168  0.8924  0.5840
  456ACOH    O212542   7.324   4.744   6.263  0.1122  0.2730 -0.0191
  456ACOH    C212543   7.237   4.693   6.174 -0.9323  0.2711 -0.4353
  456ACOH    O112544   7.265   4.608   6.093  0.3878 -0.1876  0.0262
  456ACOH    C112545   7.103   4.751   6.185  0.1945 -0.3469  0.4452
  456ACOH    H112546   7.107   4.860   6.183 -0.4746 -0.2945  1.3799
  456ACOH    H212547   7.069   4.725   6.285  0.6666 -1.7409  0.2503
  456ACOH    H312548   7.036   4.717   6.105 -0.6059  0.4829  0.7480
  457ACOH    H412549   6.390   4.258   2.415 -0.6178  0.1540  0.0904
  457ACOH    O212550   6.311   4.235   2.467 -0.5939  0.1956  0.1431
  457ACOH    C212551   6.202   4.273   2.392 -0.0037 -0.5087 -0.1841
  457ACOH    O112552   6.193   4.339   2.293 -0.4189  0.2143  0.0283
  457ACOH    C112553   6.082   4.211   2.452  0.3911 -0.5187  0.1923
  457ACOH    H112554   5.993   4.262   2.416  0.4390  0.2727  1.1895
  457ACOH    H212555   6.094   4.217   2.560 -2.2347  0.7163  0.4430
  457ACOH    H312556   6.063   4.106   2.429 -2.0803  0.6977 -3.7653
  458ACOH    H412557   3.011   3.774   2.071  0.1546 -0.5354  1.0727
  458ACOH    O212558   3.065   3.851   2.093 -0.7711  0.1820  0.8597
  458ACOH    C212559   2.982   3.943   2.148 -1.1459  0.2867  0.6126
  458ACOH    O112560   2.875   3.933   2.204 -0.4847 -0.1962  0.1583
  458ACOH    C112561   3.067   4.065   2.175  0.4210 -0.1055 -0.0124
  458ACOH    H112562   3.018   4.156   2.209  0.9835  0.0820  0.3120
  458ACOH    H212563   3.129   4.093   2.089  1.8158  0.2323  1.0692
  458ACOH    H312564   3.142   4.045   2.252 -2.8934 -1.8170  2.8947
  459ACOH    H412565   6.805   2.458   2.383  0.5705  0.3465  0.2063
  459ACOH    O212566   6.729   2.515   2.363  0.4076  0.1660  0.3054
  459ACOH    C212567   6.654   2.503   2.472  0.0703  0.2630 -0.8647
  459ACOH    O112568   6.687   2.475   2.585 -0.5092  0.2074  0.4837
  459ACOH    C112569   6.538   2.590   2.455 -0.0065 -0.2963 -0.5143
  459ACOH    H112570   6.468   2.544   2.386 -0.2146 -1.9447  0.7632
  459ACOH    H212571   6.568   2.685   2.409  0.1579 -0.6675 -1.1912
  459ACOH    H312572   6.495   2.593   2.555  2.9385 -3.4200  0.9514
  460ACOH    H412573   4.838   1.860   3.483 -0.1040 -0.5848  0.4623
  460ACOH    O212574   4.897   1.882   3.409  0.0505 -0.1419  0.7144
  460ACOH    C212575   4.821   1.960   3.332 -0.5697 -0.1641 -0.0739
  460ACOH    O112576   4.707   2.005   3.346  0.0524 -0.3888 -0.2724
  460ACOH    C112577   4.904   2.009   3.210  0.9864  0.5612 -0.3044
  460ACOH    H112578   4.910   1.925   3.141 -1.8796 -2.5540  3.0126
  460ACOH    H212579   5.003   2.045   3.237  1.2041 -0.5815  0.4697
  460ACOH    H312580   4.852   2.095   3.166  0.6420 -0.4787 -1.9909
  461ACOH    H412581   3.301   5.323   3.985  0.6540  0.3462 -0.0645
  461ACOH    O212582   3.318   5.247   4.043  0.0868  0.5145  0.3242
  461ACOH    C212583   3.232   5.151   4.020  0.7229  0.4983  0.6469
  461ACOH    O112584   3.131   5.162   3.951 -0.7269 -0.1692  0.1661
  461ACOH    C112585   3.265   5.039   4.107 -0.4773 -0.0919  0.4843
  461ACOH    H112586   3.263   5.075   4.210 -0.4804  0.2362  0.3713
  461ACOH    H212587   3.370   5.014   4.092  0.6703  4.6386 -0.3726
  461ACOH    H312588   3.194   4.961   4.082  1.7722 -1.9590 -0.2295
  462ACOH    H412589   8.299   7.601   0.320  2.0851 -1.3083 -1.7750
  462ACOH    O212590   8.275   7.511   0.349  0.3299 -0.3448 -0.1942
  462ACOH    C212591   8.368   7.431   0.406  0.4347 -0.0807 -0.5685
  462ACOH    O112592   8.468   7.469   0.463  0.4675 -0.2755 -0.0006
  462ACOH    C112593   8.336   7.286   0.387  0.3136 -0.3125  0.0495
  462ACOH    H112594   8.360   7.270   0.282 -2.6950  0.9114 -0.8832
  462ACOH    H212595   8.229   7.267   0.394  0.3109  0.3342  1.8881
  462ACOH    H312596   8.394   7.219   0.451  0.7469  0.6024  0.6162
  463ACOH    H412597   7.346   7.495   5.080  0.7560 -1.5245 -1.2583
  463ACOH    O212598   7.299   7.520   4.998 -0.2859  0.5435 -0.0653
  463ACOH    C212599   7.176   7.559   5.039  0.2157  1.0520 -0.3327
  463ACOH    O112600   7.123   7.535   5.150  0.3848 -0.0603 -0.4507
  463ACOH    C112601   7.125   7.638   4.931 -0.1579  0.0501 -0.4122
  463ACOH    H112602   7.186   7.727   4.916 -0.7734  0.4296 -0.6478
  463ACOH    H212603   7.021   7.668   4.945  0.1345  0.5217  0.7965
  463ACOH    H312604   7.125   7.571   4.845 -0.9149  0.4574 -0.7278
  464ACOH    H412605   1.069   5.494   4.129 -0.8332 -0.2562 -2.3966
  464ACOH    O212606   1.056   5.590   4.122  0.2050  0.1022  0.1111
  464ACOH    C212607   1.119   5.657   4.217  0.4100 -0.1639 -0.6440
  464ACOH    O112608   1.213   5.613   4.283 -0.2450 -0.8834 -0.1250
  464ACOH    C112609   1.104   5.805   4.198 -0.0377 -0.0137 -0.1471
  464ACOH    H112610   1.202   5.851   4.204 -0.5867  1.1828 -0.1436
  464ACOH    H212611   1.050   5.847   4.282  0.3630  0.3345 -0.0642
  464ACOH    H312612   1.061   5.829   4.100 -1.3712 -0.6910  0.2625
  465ACOH    H412613   7.014   6.954   3.205  0.6331  3.1020 -0.5024
  465ACOH    O212614   6.929   6.982   3.243 -0.1725 -0.4179  0.5103
  465ACOH    C212615   6.841   7.001   3.142  0.5650 -0.4349  0.4370
  465ACOH    O112616   6.871   7.034   3.031  0.1257 -0.3426  0.6074
  465ACOH    C112617   6.702   6.961   3.177  0.3098 -0.7626  0.0502
  465ACOH    H112618   6.712   6.855   3.202  0.0791 -1.0852 -1.2063
  465ACOH    H212619   6.626   6.973   3.100 -2.0586  1.2380  2.5991
  465ACOH    H312620   6.667   7.018   3.263  0.8491  0.7672 -0.7354
  466ACOH    H412621   8.032   7.776   0.888  1.1845 -0.1186 -1.4820
  466ACOH    O212622   7.963   7.708   0.877  0.5533  0.3424 -0.4796
  466ACOH    C212623   8.022   7.599   0.942  0.5008  0.1845  0.3075
  466ACOH    O112624   8.106   7.598   1.029  0.3251 -0.4675 -0.1733
  466ACOH    C112625   7.942   7.479   0.901 -0.3900 -0.1286 -0.4083
  466ACOH    H112626   8.000   7.387   0.888 -0.9714 -0.2863 -2.0428
  466ACOH    H212627   7.887   7.481   0.807  1.7717 -0.4362 -1.7096
  466ACOH    H312628   7.877   7.454   0.984  0.5599  1.0159  0.6992
  467ACOH    H412629   7.217   4.339   3.509 -0.6451  1.5464  0.6874
  467ACOH    O212630   7.202   4.319   3.603 -0.4392 -0.1591  0.3648
  467ACOH    C212631   7.315   4.325   3.678 -0.4147  0.2841  0.2029
  467ACOH    O112632   7.417   4.386   3.647 -0.2554  0.3221  0.5099
  467ACOH    C112633   7.294   4.257   3.806  0.1799  0.0462 -0.1959
  467ACOH    H112634   7.387   4.259   3.864  1.0358 -1.8916 -1.4367
  467ACOH    H212635   7.271   4.152   3.788  3.7073 -0.9468  0.6399
  467ACOH    H312636   7.213   4.312   3.854 -0.0222  2.4707 -3.1166
  468ACOH    H412637   4.272   4.987   1.469 -0.0732 -0.4522 -0.8374
  468ACOH    O212638   4.257   5.081   1.449  0.4195 -0.1443  0.1973
  468ACOH    C212639   4.159   5.089   1.353  0.7353  0.0814 -0.1272
  468ACOH    O112640   4.147   5.010   1.264  0.2381  0.5566 -0.3158
  468ACOH    C112641   4.095   5.217   1.346  0.0797  0.0205 -0.1789
  468ACOH    H112642   4.011   5.227   1.415  0.6697 -1.5358  0.7843
  468ACOH    H212643   4.060   5.253   1.250  0.1383  1.5795  0.3635
  468ACOH    H312644   4.169   5.292   1.376  0.3975 -0.1433 -0.5433
  469ACOH    H412645   2.957   3.306   2.936 -0.2178  0.5061 -1.5076
  469ACOH    O212646   2.991   3.361   3.009 -0.2809 -0.5989 -0.6313
  469ACOH    C212647   3.023   3.480   2.972  0.0093 -0.5546 -0.2027
  469ACOH    O112648   3.092   3.501   2.871  0.0847  0.2502 -0.8584
  469ACOH    C112649   3.011   3.561   3.090 -0.4661  0.2245  0.0672
  469ACOH    H112650   3.038   3.502   3.177 -1.1125 -0.2346 -0.0435
  469ACOH    H212651   2.913   3.606   3.101 -0.1507  0.7484  0.7335
  469ACOH    H312652   3.083   3.643   3.082 -1.3842  1.0235 -0.1522
  470ACOH    H412653   5.133   8.949   7.773  0.5090  1.1322 -1.2297
  470ACOH    O212654   5.194   8.880   7.804  0.0290  1.0068 -0.5400
  470ACOH    C212655   5.270   8.935   7.899 -0.0062  0.0862 -0.1454
  470ACOH    O112656   5.295   9.055   7.913 -0.0861 -0.0762  0.1829
  470ACOH    C112657   5.362   8.828   7.946 -0.3181  0.2390 -0.1940
  470ACOH    H112658   5.297   8.748   7.981  1.0489 -0.2003  1.3969
  470ACOH    H212659   5.428   8.859   8.028 -1.0066  0.0616  0.4251
  470ACOH    H312660   5.425   8.782   7.870  0.7169 -0.2951  0.9756
  471ACOH    H412661   4.870   7.242   4.076  0.1167  0.1282  1.8373
  471ACOH    O212662   4.953   7.292   4.081  0.3534 -0.0363 -0.2707
  471ACOH    C212663   5.040   7.264   3.985  0.4957  0.2165  0.3731
  471ACOH    O112664   5.019   7.206   3.877 -0.1771  0.2065 -0.3127
  471ACOH    C112665   5.165   7.322   4.016  0.1239  0.8502 -0.0122
  471ACOH    H112666   5.177   7.410   3.952  0.2199 -0.4173 -1.7727
  471ACOH    H212667   5.244   7.248   4.000 -1.3713 -0.8813  0.4151
  471ACOH    H312668   5.169   7.337   4.124  1.7998 -0.2451  0.1013
  472ACOH    H412669   4.505   2.713   1.179 -0.3783  0.3851  1.9304
  472ACOH    O212670   4.421   2.665   1.174 -0.1057  0.0425  0.5124
  472ACOH    C212671   4.336   2.708   1.084  0.3333  1.0637  0.0078
  472ACOH    O112672   4.361   2.790   1.004  0.2174 -0.1571  0.5430
  472ACOH    C112673   4.212   2.628   1.089  0.9804  0.1938 -0.5334
  472ACOH    H112674   4.164   2.624   1.187  0.5687 -0.7716 -0.7612
  472ACOH    H212675   4.229   2.523   1.064  2.0713  0.1483  0.3508
  472ACOH    H312676   4.131   2.672   1.031  1.0163  0.4287 -0.4072
  473ACOH    H412677   5.604   6.560   2.289  0.0422 -3.0419  1.1827
  473ACOH    O212678   5.688   6.558   2.241 -0.0326  0.5162  0.7689
  473ACOH    C212679   5.702   6.447   2.162  0.2055  0.0114 -0.0042
  473ACOH    O112680   5.612   6.365   2.140  0.3896  0.3661 -0.4623
  473ACOH    C112681   5.839   6.422   2.113 -0.1186  0.0936  0.4137
  473ACOH    H112682   5.882   6.326   2.141 -0.0682 -0.6411 -2.0270
  473ACOH    H212683   5.906   6.496   2.156  0.1961 -0.5531  1.0265
  473ACOH    H312684   5.831   6.438   2.005 -1.5220  0.5559  0.5641
  474ACOH    H412685   6.355   5.767   1.931  0.6822 -1.5759 -1.3253
  474ACOH    O212686   6.381   5.701   1.998 -0.1245 -0.2146  0.3647
  474ACOH    C212687   6.492   5.749   2.064  0.7176  0.4944  0.9713
  474ACOH    O112688   6.529   5.862   2.046 -0.2091 -0.1514  0.0826
  474ACOH    C112689   6.534   5.650   2.163 -0.1464 -0.5114 -0.6512
  474ACOH    H112690   6.616   5.691   2.222 -0.2211  0.8351 -1.4692
  474ACOH    H212691   6.565   5.560   2.109 -0.2988 -0.0064 -1.5872
  474ACOH    H312692   6.454   5.627   2.235  1.2389 -0.9443  0.7849
  475ACOH    H412693   6.646   3.051   8.121 -1.7448  2.0976  0.5873
  475ACOH    O212694   6.600   3.040   8.036  0.9467  0.3534 -0.6750
  475ACOH    C212695   6.587   2.909   8.009  0.6164  0.7128  0.1594
  475ACOH    O112696   6.638   2.823   8.074 -0.2030 -0.5563 -0.2569
  475ACOH    C112697   6.524   2.876   7.877 -0.7240  0.3897 -0.4459
  475ACOH    H112698   6.453   2.794   7.889 -0.6785  0.5816  1.4201
  475ACOH    H212699   6.608   2.842   7.818  0.4335  1.1775  0.7120
  475ACOH    H312700   6.486   2.956   7.813  0.9127  1.0613 -0.6099
  476ACOH    H412701   6.896   3.037   2.489  0.1394 -0.1540 -0.0679
  476ACOH    O212702   6.817   3.089   2.509  0.0941 -0.2998  0.1305
  476ACOH    C212703   6.718   3.005   2.540 -0.2060  0.0699 -0.2592
  476ACOH    O112704   6.726   2.887   2.568  0.1129 -0.1910 -0.2354
  476ACOH    C112705   6.600   3.081   2.586  0.3896 -0.0082  0.4705
  476ACOH    H112706   6.509   3.036   2.545  0.1788  2.2273 -1.6058
  476ACOH    H212707   6.607   3.186   2.557 -0.8993 -0.3754 -1.3094
  476ACOH    H312708   6.596   3.075   2.694  4.2678  0.2401  0.6918
  477ACOH    H412709   5.457   5.804   2.353  0.2818  2.2187 -2.2884
  477ACOH    O212710   5.371   5.836   2.385 -0.1268 -0.6746 -0.2296
  477ACOH    C212711   5.326   5.738   2.465 -0.0179  0.6045 -0.6242
  477ACOH    O112712   5.366   5.622   2.482  0.4475  0.3232 -0.2529
  477ACOH    C112713   5.196   5.777   2.527  0.1297 -0.2861  0.1116
  477ACOH    H112714   5.141   5.699   2.580 -1.6515  1.2244  0.5740
  477ACOH    H212715   5.125   5.814   2.453 -0.3733 -0.0662  0.6919
  477ACOH    H312716   5.218   5.859   2.596  0.6750  0.1334 -0.5599
  478ACOH    H412717   7.091   7.701   7.118 -0.3977 -0.0913  0.6049
  478ACOH    O212718   7.004   7.733   7.088  0.2401  0.5379 -0.5661
  478ACOH    C212719   7.002   7.741   6.958  0.0221 -0.5720 -0.4854
  478ACOH    O112720   7.070   7.675   6.884 -0.4379 -0.2255  0.1550
  478ACOH    C112721   6.912   7.848   6.915  0.8125 -0.3054  0.3836
  478ACOH    H112722   6.955   7.930   6.858 -0.7739 -0.7882 -1.5695
  478ACOH    H212723   6.855   7.884   7.001 -2.2577 -1.9415 -0.8897
  478ACOH    H312724   6.844   7.801   6.843  0.9014  2.9392 -1.9099
  479ACOH    H412725   3.728   7.947   4.918 -0.5265 -0.4901 -0.6052
  479ACOH    O212726   3.686   7.994   4.992 -0.0559 -0.8081 -0.1338
  479ACOH    C212727   3.769   8.095   5.018  0.0958  0.3541 -0.7136
  479ACOH    O112728   3.889   8.083   5.038 -0.0858  0.0423 -0.1329
  479ACOH    C112729   3.689   8.192   5.096 -0.2159  0.3482  0.1064
  479ACOH    H112730   3.647   8.264   5.026 -1.8698 -0.0678  0.6531
  479ACOH    H212731   3.743   8.253   5.168 -0.4726  0.8870 -0.1618
  479ACOH    H312732   3.609   8.139   5.148 -0.5510  1.1176  0.3814
  480ACOH    H412733   5.813   1.838   4.103  0.1598 -0.4017 -0.1047
  480ACOH    O212734   5.906   1.825   4.076  0.1602  0.7200 -0.6565
  480ACOH    C212735   5.975   1.883   4.176  0.5775  0.5011 -0.0262
  480ACOH    O112736   5.936   1.947   4.270  0.3806  0.6107  0.1248
  480ACOH    C112737   6.117   1.873   4.136  0.0185  0.9485  0.0529
  480ACOH    H112738   6.173   1.880   4.229  1.2411  1.2021 -0.6937
  480ACOH    H212739   6.146   1.954   4.069 -0.9972 -0.2516 -1.8943
  480ACOH    H312740   6.147   1.777   4.093  0.1798  1.4427 -0.9539
  481ACOH    H412741   7.832   5.311   4.035 -1.4084  1.1104 -0.4913
  481ACOH    O212742   7.762   5.279   4.094 -0.0136 -0.3795  0.3848
  481ACOH    C212743   7.648   5.283   4.021 -0.0399 -0.4275  0.3419
  481ACOH    O112744   7.646   5.257   3.905 -0.1534 -0.5853  0.4457
  481ACOH    C112745   7.532   5.286   4.114 -0.0103  1.3732  0.2772
  481ACOH    H112746   7.439   5.296   4.059 -0.0118 -1.8269 -0.4332
  481ACOH    H212747   7.543   5.361   4.192 -0.5014  1.6334  0.0940
  481ACOH    H312748   7.526   5.186   4.158  0.5251  0.0537 -2.5637
  482ACOH    H412749   4.411   4.127   3.145  0.8516  0.5835  1.8794
  482ACOH    O212750   4.455   4.040   3.144  0.1752  0.2153 -0.1720
  482ACOH    C212751   4.577   4.066   3.090  0.2979  0.3436 -0.3257
  482ACOH    O112752   4.620   4.162   3.029 -0.1422  0.2071  0.0073
  482ACOH    C112753   4.653   3.938   3.101 -0.2357 -0.1371 -0.6578
  482ACOH    H112754   4.586   3.860   3.063 -1.3558 -0.7258  2.3659
  482ACOH    H212755   4.670   3.918   3.207  0.3538  0.4200 -0.6530
  482ACOH    H312756   4.754   3.938   3.062  0.9707  0.1944  2.3299
  483ACOH    H412757   7.129   4.538   2.839 -1.4941  0.3350 -1.6191
  483ACOH    O212758   7.088   4.615   2.884  0.2217  0.6478 -0.5676
  483ACOH    C212759   7.082   4.569   3.011 -0.2141 -0.0966 -0.2373
  483ACOH    O112760   7.088   4.454   3.056  1.0063  0.1172  0.1133
  483ACOH    C112761   7.044   4.689   3.091 -0.6087 -0.3774  0.2710
  483ACOH    H112762   6.990   4.751   3.019  1.6891 -0.5083 -1.6108
  483ACOH    H212763   7.138   4.731   3.125 -0.4791 -0.2441 -0.2487
  483ACOH    H312764   6.984   4.658   3.177 -1.5604 -0.7512 -0.5131
  484ACOH    H412765   7.972   7.624   6.520  0.7597  1.3350  0.0427
  484ACOH    O212766   7.916   7.679   6.463 -0.2136  0.1825 -0.1385
  484ACOH    C212767   8.012   7.730   6.383 -0.4250 -0.2291 -0.2766
  484ACOH    O112768   8.136   7.710   6.384  0.7360  0.4586  0.3040
  484ACOH    C112769   7.957   7.812   6.276  0.2594  0.0603 -0.4019
  484ACOH    H112770   7.849   7.819   6.272  0.2457 -0.3313 -0.8456
  484ACOH    H212771   7.988   7.757   6.187  3.1387 -0.9892  1.1770
  484ACOH    H312772   7.998   7.913   6.275 -1.4682  0.7697 -0.2106
  485ACOH    H412773   5.133   7.228   4.603  0.9397  1.1119  0.8680
  485ACOH    O212774   5.145   7.167   4.678  0.0502 -0.2765 -0.0891
  485ACOH    C212775   5.274   7.149   4.706  0.1366 -0.2476 -1.0606
  485ACOH    O112776   5.371   7.210   4.663  0.6470  0.7582  0.1600
  485ACOH    C112777   5.282   7.060   4.822  0.7244  0.1221  0.6967
  485ACOH    H112778   5.231   6.967   4.797  0.9421  0.5032 -1.2143
  485ACOH    H212779   5.244   7.100   4.916 -1.3290  1.0041 -0.4843
  485ACOH    H312780   5.384   7.028   4.841 -0.7140 -2.8211  4.0641
  486ACOH    H412781   7.805   4.327   6.781 -1.5424  0.7300 -1.1133
  486ACOH    O212782   7.789   4.350   6.875  0.4933 -0.2289 -0.5077
  486ACOH    C212783   7.780   4.233   6.938 -0.0297 -0.3340 -0.0374
  486ACOH    O112784   7.817   4.126   6.887  0.0683 -0.2339 -0.0492
  486ACOH    C112785   7.717   4.243   7.075  0.4089 -0.1736 -0.0553
  486ACOH    H112786   7.791   4.235   7.154  1.8749 -0.9398 -1.4673
  486ACOH    H212787   7.654   4.156   7.094  0.2891  0.0081  0.3788
  486ACOH    H312788   7.656   4.333   7.083  1.7388  0.7673 -0.3818
  487ACOH    H412789   5.893   6.951   3.260 -1.7538  0.6927  1.8914
  487ACOH    O212790   5.919   6.868   3.304  0.0785  0.3877  0.3080
  487ACOH    C212791   5.802   6.819   3.360  0.1646  1.1123  0.2057
  487ACOH    O112792   5.703   6.882   3.385  0.6012  0.0729  0.5747
  487ACOH    C112793   5.806   6.677   3.388  0.4567  0.3127 -0.2241
  487ACOH    H112794   5.756   6.664   3.484 -4.0223  1.3526 -2.2937
  487ACOH    H212795   5.908   6.638   3.386 -0.0476 -1.0248 -0.6257
  487ACOH    H312796   5.747   6.621   3.316  1.2935 -0.7765 -0.0831
  488ACOH    H412797   8.728   4.963   3.345  0.0300 -1.9196 -1.6353
  488ACOH    O212798   8.747   5.033   3.280  0.7164 -0.4252  0.1665
  488ACOH    C212799   8.639   5.112   3.268 -0.0752 -0.8995 -0.2826
  488ACOH    O112800   8.541   5.119   3.340  0.5641 -0.2175  0.2278
  488ACOH    C112801   8.639   5.200   3.155  0.3307 -0.7190  0.1103
  488ACOH    H112802   8.734   5.183   3.104  1.4999 -0.4098  2.1144
  488ACOH    H212803   8.633   5.303   3.188 -1.3311 -0.1064 -2.0250
  488ACOH    H312804   8.557   5.175   3.088  1.1548 -0.3072 -1.0760
  489ACOH    H412805   8.567   1.576   1.843 -0.0604 -0.6925 -1.2985
  489ACOH    O212806   8.493   1.628   1.806  0.2342 -0.0977 -1.0541
  489ACOH    C212807   8.394   1.605   1.890  0.5724 -0.5119 -0.4697
  489ACOH    O112808   8.379   1.508   1.963 -0.3111 -0.3454  0.3567
  489ACOH    C112809   8.294   1.716   1.864  0.0602  0.2998 -0.6166
  489ACOH    H112810   8.282   1.782   1.949  2.5879 -2.8505  2.3677
  489ACOH    H212811   8.202   1.660   1.846 -1.7307  3.1682 -0.6321
  489ACOH    H312812   8.318   1.765   1.770 -0.4638 -0.0876 -0.9553
  490ACOH    H412813   4.493   4.748   6.248  0.1273  0.6449 -1.7094
  490ACOH    O212814   4.512   4.657   6.219  0.4304 -0.1614  0.8798
  490ACOH    C212815   4.408   4.580   6.274 -0.1302 -0.2740  0.1634
  490ACOH    O112816   4.343   4.614   6.372  0.8410  0.5633  0.7340
  490ACOH    C112817   4.385   4.450   6.203  0.0464  0.2230  0.1625
  490ACOH    H112818   4.367   4.480   6.100  3.2421  0.4387 -0.3823
  490ACOH    H212819   4.293   4.405   6.241  0.8674 -1.5683  0.0589
  490ACOH    H312820   4.470   4.382   6.211 -0.0574  0.0218 -0.4488
  491ACOH    H412821   3.436   6.596   7.373 -3.1142 -0.0688 -0.6523
  491ACOH    O212822   3.451   6.543   7.293  0.1509 -0.0710 -0.1197
  491ACOH    C212823   3.463   6.415   7.332  0.7388  0.3572  0.6335
  491ACOH    O112824   3.462   6.376   7.451  0.6139  0.3201 -0.8095
  491ACOH    C112825   3.510   6.332   7.217  1.0412  0.5884  0.1088
  491ACOH    H112826   3.603   6.370   7.174  1.2383  0.3769  0.3459
  491ACOH    H212827   3.438   6.345   7.137 -0.4105 -0.3060  1.2567
  491ACOH    H312828   3.527   6.228   7.245  0.3575  0.6356  0.7066
  492ACOH    H412829   2.331   1.523   1.669  1.0664  0.0147  0.7832
  492ACOH    O212830   2.287   1.522   1.756 -0.4164 -0.0672  0.0292
  492ACOH    C212831   2.352   1.613   1.831 -0.5519 -0.6533 -0.0811
  492ACOH    O112832   2.456   1.677   1.806  0.2715  0.0772 -0.3008
  492ACOH    C112833   2.298   1.634   1.965  0.0642  0.0791  0.8900
  492ACOH    H112834   2.205   1.579   1.976 -1.8736  2.8023 -1.0687
  492ACOH    H212835   2.284   1.741   1.981  0.8497  0.4440 -0.7110
  492ACOH    H312836   2.374   1.593   2.032  2.4337  0.4260 -1.4587
  493ACOH    H412837   3.856   9.105   3.439 -2.2360  1.3315  2.4897
  493ACOH    O212838   3.833   9.171   3.371 -0.2218 -0.6130 -0.1860
  493ACOH    C212839   3.918   9.175   3.268 -0.8562  0.3833  0.4224
  493ACOH    O112840   4.019   9.110   3.250 -0.0288 -0.1125  0.6123
  493ACOH    C112841   3.880   9.294   3.181 -0.1465 -0.1402  0.3949
  493ACOH    H112842   3.959   9.304   3.107  2.1633 -0.4614  2.7318
  493ACOH    H212843   3.870   9.390   3.232  1.8946 -1.0671  2.6563
  493ACOH    H312844   3.783   9.274   3.134 -0.4473  0.3721  0.7932
  494ACOH    H412845   6.501   5.329   0.979  2.3736  0.6960 -1.7831
  494ACOH    O212846   6.550   5.247   1.000  0.2386 -0.1003  0.3399
  494ACOH    C212847   6.572   5.182   0.881  0.4663  0.6232  0.2340
  494ACOH    O112848   6.540   5.232   0.777  0.0263 -0.1091 -0.1350
  494ACOH    C112849   6.650   5.056   0.901 -0.6116 -0.2521 -0.5431
  494ACOH    H112850   6.670   5.040   1.007 -0.1023  1.7293 -0.3074
  494ACOH    H212851   6.744   5.068   0.846 -0.3945 -2.9066 -0.8195
  494ACOH    H312852   6.592   4.978   0.852 -0.9597 -0.5133  0.2843
  495ACOH    H412853   0.021   0.712   1.352 -0.9217  2.8402 -4.3236
  495ACOH    O212854  -0.001   0.790   1.406 -0.8590  0.0803 -0.0149
  495ACOH    C212855  -0.082   0.871   1.343 -0.0236 -0.3538 -0.4939
  495ACOH    O112856  -0.104   0.864   1.223 -0.0378 -0.4671  0.2808
  495ACOH    C112857  -0.106   0.990   1.435 -0.6407 -0.1810  0.1189
  495ACOH    H112858  -0.011   1.044   1.437 -0.9269  0.3138  1.6691
  495ACOH    H212859  -0.133   0.954   1.535 -1.1923 -0.0943  0.0062
  495ACOH    H312860  -0.170   1.069   1.395 -0.4680 -0.0092  0.1819
  496ACOH    H412861   4.842   8.898   7.982 -1.7782  1.3475  1.6859
  496ACOH    O212862   4.927   8.906   8.028 -0.5935  0.0533 -0.2264
  496ACOH    C212863   4.890   8.896   8.156  0.8284  0.0631  0.4257
  496ACOH    O112864   4.779   8.895   8.208 -0.3259  0.6997 -0.1095
  496ACOH    C112865   5.012   8.889   8.235  0.1926  0.4813  0.1269
  496ACOH    H112866   4.996   8.865   8.340  0.0759 -2.0047 -0.4397
  496ACOH    H212867   5.062   8.986   8.234  0.5003  0.3256  0.6994
  496ACOH    H312868   5.074   8.812   8.190 -0.4082  0.0858 -0.0268
  497ACOH    H412869   8.325   0.188   3.712  0.4121  0.7426 -1.7520
  497ACOH    O212870   8.244   0.238   3.734 -0.0591 -0.7232 -0.0161
  497ACOH    C212871   8.289   0.358   3.781  0.3516 -0.1349  0.8389
  497ACOH    O112872   8.393   0.415   3.753  0.0588  0.3683 -0.1639
  497ACOH    C112873   8.178   0.427   3.840  0.0669 -0.7317 -0.6460
  497ACOH    H112874   8.106   0.357   3.883  0.0992 -0.6299 -0.4283
  497ACOH    H212875   8.127   0.495   3.772 -0.3583 -0.4481 -0.0449
  497ACOH    H312876   8.216   0.489   3.921  1.3119 -3.5174  0.9787
  498ACOH    H412877   1.607   6.935   0.051  0.2545 -0.6794  0.0385
  498ACOH    O212878   1.653   6.941  -0.034  0.3206  0.7900  0.1622
  498ACOH    C212879   1.678   6.807  -0.075 -0.7621 -0.8317 -0.0462
  498ACOH    O112880   1.689   6.710  -0.001 -0.3972  0.0561  0.2978
  498ACOH    C112881   1.742   6.800  -0.212 -0.7515  0.0529  0.1455
  498ACOH    H112882   1.710   6.884  -0.273  1.1021  0.3838 -0.3976
  498ACOH    H212883   1.704   6.712  -0.263 -2.0888  1.8148 -2.0013
  498ACOH    H312884   1.849   6.789  -0.201 -0.6436  0.1745 -0.7487
  499ACOH    H412885   6.624   6.832   1.582  1.7305  1.3623  0.0941
  499ACOH    O212886   6.564   6.903   1.610 -0.2884 -0.2627 -0.0132
  499ACOH    C212887   6.446   6.890   1.545  0.4180  0.4828 -0.5501
  499ACOH    O112888   6.415   6.793   1.484 -0.0339 -0.2284  0.3451
  499ACOH    C112889   6.355   6.998   1.602  0.2250  0.4397 -0.4313
  499ACOH    H112890   6.389   7.030   1.701 -0.3439  0.0875 -0.1203
  499ACOH    H212891   6.253   6.960   1.605 -0.9931  3.2482 -3.0685
  499ACOH    H312892   6.353   7.084   1.534 -2.4699 -0.2155 -1.2432
  500ACOH    H412893   6.567   9.215   1.402 -1.5595 -0.1564 -0.5801
  500ACOH    O212894   6.593   9.251   1.315  0.2507 -0.1573 -0.0556
  500ACOH    C212895   6.503   9.347   1.276 -0.1142  0.3910 -0.5101
  500ACOH    O112896   6.407   9.382   1.343  0.2729  0.2038  0.0364
  500ACOH    C112897   6.517   9.402   1.137 -0.3287  0.2045 -0.2882
  500ACOH    H112898   6.438   9.366   1.072 -0.9965  0.0376  0.5993
  500ACOH    H212899   6.613   9.380   1.090 -0.7355  1.3661 -1.7009
  500ACOH    H312900   6.510   9.511   1.143  1.0455  0.3198 -0.7764
  501ACOH    H412901   9.808   7.837   5.375  1.5767 -1.4484 -0.8364
  501ACOH    O212902   9.778   7.752   5.411 -0.3950 -0.0136  0.9920
  501ACOH    C212903   9.644   7.751   5.388 -0.1152 -0.1770  0.1555
  501ACOH    O112904   9.577   7.833   5.331 -0.1767 -0.0052 -0.0651
  501ACOH    C112905   9.587   7.631   5.455 -1.0745 -0.0195 -0.4686
  501ACOH    H112906   9.615   7.624   5.560  2.0517  0.9383 -1.1853
  501ACOH    H212907   9.606   7.544   5.393  3.0084 -0.4082  1.1582
  501ACOH    H312908   9.479   7.644   5.465 -0.7486  3.5910 -1.1334
  502ACOH    H412909   6.791   3.139   3.336  1.7347 -2.1642  1.8379
  502ACOH    O212910   6.701   3.102   3.331  0.6991  0.3227  0.7448
  502ACOH    C212911   6.706   2.992   3.411 -0.4412  0.7064  0.1774
  502ACOH    O112912   6.807   2.956   3.472  0.1449  0.3112 -0.2451
  502ACOH    C112913   6.570   2.935   3.430  0.5528  0.2109 -0.2729
  502ACOH    H112914   6.500   3.015   3.454 -0.2781 -0.0866 -1.5941
  502ACOH    H212915   6.570   2.857   3.506  1.6104  0.2004 -0.2881
  502ACOH    H312916   6.530   2.889   3.338  0.8133  1.6167 -1.0979
  503ACOH    H412917   7.932   0.143   0.501  0.2367  2.3549 -0.2998
  503ACOH    O212918   7.897   0.108   0.418  0.1030  0.1732  0.6616
  503ACOH    C212919   7.992   0.046   0.346  0.2922 -0.0996 -0.7896
  503ACOH    O112920   8.109   0.032   0.373  0.1602  0.3012 -0.0457
  503ACOH    C112921   7.938   0.009   0.215  0.2621 -0.1895  0.4791
  503ACOH    H112922   8.003   0.033   0.131  0.4203 -1.3841  0.2568
  503ACOH    H212923   7.848   0.067   0.198 -0.0305 -1.1176 -1.2443
  503ACOH    H312924   7.896  -0.091   0.206  0.7978 -0.3199 -0.5832
  504ACOH    H412925   0.781   5.656   6.159  1.1230  1.5369  0.4102
  504ACOH    O212926   0.766   5.602   6.239  0.0344 -0.3257 -0.9953
  504ACOH    C212927   0.864   5.597   6.328 -0.4519  0.1594  0.2602
  504ACOH    O112928   0.970   5.663   6.325 -0.1632  0.2652  0.0416
  504ACOH    C112929   0.832   5.504   6.441 -0.0292 -0.2049  0.3811
  504ACOH    H112930   0.802   5.405   6.408 -0.7778 -0.1429  0.8721
  504ACOH    H212931   0.749   5.547   6.498  1.2139  2.7826  0.0563
  504ACOH    H312932   0.921   5.498   6.504 -0.0008  0.3912  0.4049
  505ACOH    H412933   6.813   5.913   7.542 -2.0051 -2.0501  0.3638
  505ACOH    O212934   6.756   5.984   7.508  0.1557 -0.4019  0.1168
  505ACOH    C212935   6.637   5.978   7.572  0.2508  0.2109  0.1676
  505ACOH    O112936   6.630   5.914   7.676  0.0031 -0.0589  0.4790
  505ACOH    C112937   6.524   6.038   7.497  0.0678  0.3499 -0.5302
  505ACOH    H112938   6.441   5.967   7.486 -1.8035  2.0909  1.7320
  505ACOH    H212939   6.551   6.067   7.396  0.5157 -0.2917 -0.5925
  505ACOH    H312940   6.480   6.127   7.543 -1.0875 -0.1734 -0.5891
  506ACOH    H412941   2.977   1.615   4.669  0.6567  0.3169  1.4839
  506ACOH    O212942   3.030   1.697   4.663  1.0538 -0.0258 -0.0135
  506ACOH    C212943   2.962   1.777   4.747 -0.1953 -0.4537 -0.1891
  506ACOH    O112944   2.891   1.737   4.838 -0.1299 -0.0338  0.3189
  506ACOH    C112945   3.021   1.915   4.745  1.1935  0.5654 -0.1180
  506ACOH    H112946   3.105   1.916   4.814  0.8807  0.9455  0.2587
  506ACOH    H212947   2.947   1.990   4.773 -2.2708 -2.1615 -1.6886
  506ACOH    H312948   3.054   1.934   4.643 -2.0740 -0.9557 -1.5480
  507ACOH    H412949   9.751   5.700   0.494 -0.1064  3.1252 -0.5389
  507ACOH    O212950   9.811   5.702   0.418  0.1967  0.0700 -0.4228
  507ACOH    C212951   9.751   5.789   0.332 -0.2196  0.9675 -0.1464
  507ACOH    O112952   9.640   5.834   0.346 -0.1189 -0.4618  0.1590
  507ACOH    C112953   9.839   5.815   0.217  0.1291  0.2339  0.1707
  507ACOH    H112954   9.784   5.861   0.135 -1.8407 -1.9958  0.1805
  507ACOH    H212955   9.876   5.719   0.179 -2.7089 -0.4954 -0.8604
  507ACOH    H312956   9.920   5.883   0.239  1.0798 -1.4703  2.0857
  508ACOH    H412957   7.224   7.293   7.549  2.7162  2.0328 -1.5677
  508ACOH    O212958   7.272   7.281   7.633  0.2303 -0.0320 -0.3623
  508ACOH    C212959   7.228   7.171   7.689  0.1047 -0.9265  0.2445
  508ACOH    O112960   7.197   7.067   7.628 -0.2558 -0.0660 -0.0995
  508ACOH    C112961   7.277   7.167   7.832  0.3463 -0.3637  0.0712
  508ACOH    H112962   7.361   7.097   7.839 -0.9207 -1.7412  1.8899
  508ACOH    H212963   7.199   7.120   7.892 -1.1297  0.0819 -1.4714
  508ACOH    H312964   7.296   7.265   7.875 -1.9391  0.4923 -0.8061
  509ACOH    H412965   7.333   0.210   4.787 -0.0467 -0.4603 -0.0767
  509ACOH    O212966   7.320   0.253   4.701 -0.5009  0.1671  0.3036
  509ACOH    C212967   7.359   0.164   4.608 -0.5522 -0.0293  0.1080
  509ACOH    O112968   7.349   0.046   4.623 -0.1031  0.0596 -0.2654
  509ACOH    C112969   7.359   0.229   4.478  0.3847 -0.9230 -0.8036
  509ACOH    H112970   7.463   0.218   4.447  0.5667  0.5769 -0.7655
  509ACOH    H212971   7.335   0.335   4.488 -1.2406 -1.3166 -0.4006
  509ACOH    H312972   7.290   0.187   4.405  0.4133  1.1779 -2.0656
  510ACOH    H412973   7.053   2.769   5.347  0.5851  0.4726 -0.3485
  510ACOH    O212974   7.080   2.810   5.431 -0.1372  0.2196  0.0165
  510ACOH    C212975   7.120   2.940   5.403 -0.4702  0.0538  0.0575
  510ACOH    O112976   7.152   2.988   5.296 -0.4868  0.0039  0.0843
  510ACOH    C112977   7.093   3.022   5.522  0.2005 -0.2047  0.3982
  510ACOH    H112978   7.081   2.962   5.613 -0.8666  2.2116  1.9033
  510ACOH    H212979   6.992   3.057   5.503 -0.0183 -1.9139 -1.7321
  510ACOH    H312980   7.165   3.102   5.540  0.8384 -0.6393 -0.2031
  511ACOH    H412981   5.067   3.825   6.768 -0.6902 -3.4010 -1.0093
  511ACOH    O212982   5.160   3.816   6.741  0.2257  0.1332  0.5871
  511ACOH    C212983   5.219   3.756   6.841  0.4217 -0.3803  0.2610
  511ACOH    O112984   5.163   3.685   6.923 -0.1953 -0.1116 -0.0307
  511ACOH    C112985   5.363   3.751   6.823  0.0460 -0.1314  0.2196
  511ACOH    H112986   5.401   3.706   6.915 -1.1369  1.8149  1.7053
  511ACOH    H212987   5.396   3.855   6.833  1.1438 -0.4757  0.2193
  511ACOH    H312988   5.409   3.711   6.733  1.2704 -0.1400  0.8442
  512ACOH    H412989   8.430   4.592   7.290 -0.6915 -0.8928  2.1530
  512ACOH    O212990   8.446   4.498   7.270 -0.0194 -0.3606  0.1238
  512ACOH    C212991   8.474   4.433   7.387 -0.1407  0.3938 -0.4691
  512ACOH    O112992   8.456   4.456   7.503 -0.3798 -0.6803  0.1109
  512ACOH    C112993   8.534   4.302   7.342 -0.2980  0.3955 -0.3950
  512ACOH    H112994   8.620   4.327   7.279  0.3011 -1.5043 -0.3370
  512ACOH    H212995   8.463   4.244   7.283 -0.9020 -1.1085  1.7558
  512ACOH    H312996   8.563   4.239   7.425 -1.3232  0.4822  0.0395
  513ACOH    H412997   6.685   1.909   1.585  0.3720  0.1055 -1.4783
  513ACOH    O212998   6.623   1.958   1.528 -0.7168 -0.6557 -0.9522
  513ACOH    C212999   6.494   1.901   1.536  0.4682  0.0612 -0.3783
  513ACOH    O113000   6.479   1.786   1.577  0.2926 -0.1075  0.2756
  513ACOH    C113001   6.389   1.972   1.467  0.4747 -0.5549  0.4320
  513ACOH    H113002   6.301   1.979   1.532 -1.3549  1.1661 -2.1072
  513ACOH    H213003   6.362   1.916   1.377  0.7102 -1.7415  1.1007
  513ACOH    H313004   6.424   2.070   1.434 -2.2952  0.1236 -0.6289
  514ACOH    H413005   5.118   5.205   6.656 -2.3084 -0.9428 -0.3362
  514ACOH    O213006   5.063   5.280   6.683 -0.0481  0.2382  1.1159
  514ACOH    C213007   5.024   5.256   6.810  0.5642 -0.2041 -0.0402
  514ACOH    O113008   5.066   5.163   6.880 -0.6838  0.0639  0.5159
  514ACOH    C113009   4.927   5.359   6.865 -0.5988  0.1681  0.0926
  514ACOH    H113010   4.831   5.348   6.815 -0.2226  0.7332 -0.7710
  514ACOH    H213011   4.965   5.459   6.843  0.1919 -0.3841 -1.1538
  514ACOH    H313012   4.921   5.333   6.970  2.3887  1.2043  0.5745
  515ACOH    H413013   7.503   0.263   1.841  0.2687  0.2798  0.9329
  515ACOH    O213014   7.470   0.353   1.854  0.0574  0.2352  0.7096
  515ACOH    C213015   7.582   0.418   1.893  0.7479  0.0429  0.4607
  515ACOH    O113016   7.653   0.370   1.981 -0.1509  0.4931 -0.1559
  515ACOH    C113017   7.580   0.561   1.854 -0.3266 -0.0189 -0.0672
  515ACOH    H113018   7.563   0.571   1.746  0.0632 -0.5495 -0.1770
  515ACOH    H213019   7.674   0.609   1.880  0.6694 -1.7878 -0.3768
  515ACOH    H313020   7.497   0.622   1.891  0.1777  1.2299 -0.9575
  516ACOH    H413021   8.341   4.910   6.288 -1.3012 -0.7204  0.7034
  516ACOH    O213022   8.313   4.994   6.328 -0.1559  0.1375 -0.2694
  516ACOH    C213023   8.277   4.968   6.455 -0.6544  0.3759 -0.5653
  516ACOH    O113024   8.327   4.882   6.523  0.2684  0.1191  0.6536
  516ACOH    C113025   8.199   5.082   6.509 -0.0761  0.1476 -0.3690
  516ACOH    H113026   8.270   5.143   6.565  0.2485 -0.7596  0.2309
  516ACOH    H213027   8.121   5.061   6.583  0.3153  1.9454  0.5884
  516ACOH    H313028   8.167   5.146   6.427  2.7395 -0.2064 -1.8168
  517ACOH    H413029   2.905   0.907   4.409  0.8973  1.1441  2.3398
  517ACOH    O213030   2.872   0.998   4.400 -0.6405  0.3896 -0.2535
  517ACOH    C213031   2.930   1.044   4.287 -0.2580  0.2103 -0.5095
  517ACOH    O113032   2.997   0.972   4.213 -0.2107 -0.3696 -0.0358
  517ACOH    C113033   2.891   1.179   4.248 -0.0047 -0.1072 -0.2655
  517ACOH    H113034   2.901   1.247   4.332  0.7453 -0.3150 -0.1796
  517ACOH    H213035   2.786   1.177   4.218 -0.0813 -0.4003  0.0163
  517ACOH    H313036   2.950   1.212   4.163  0.0981 -0.1591 -0.2149
  518ACOH    H413037   3.041   2.782   5.786  0.1957  1.1673  1.8221
  518ACOH    O213038   3.122   2.729   5.778 -0.5633  0.2684 -0.2650
  518ACOH    C213039   3.176   2.721   5.656 -0.5164 -0.0248  0.4352
  518ACOH    O113040   3.132   2.769   5.554 -0.1572  0.4389 -0.8155
  518ACOH    C113041   3.310   2.650   5.664 -0.4142  0.0586  0.3594
  518ACOH    H113042   3.327   2.626   5.769  0.7968  0.3991  0.2410
  518ACOH    H213043   3.387   2.718   5.628  0.0650 -1.5525 -1.7709
  518ACOH    H313044   3.305   2.559   5.603  0.1309 -0.8779  1.6724
  519ACOH    H413045   4.591   3.461   2.363  1.8008  0.6579  2.5502
  519ACOH    O213046   4.613   3.367   2.376  0.2473 -0.0563  0.2685
  519ACOH    C213047   4.496   3.298   2.378 -0.8229  0.4893 -0.1495
  519ACOH    O113048   4.383   3.342   2.357 -0.4957  0.1543 -0.0269
  519ACOH    C113049   4.519   3.154   2.402  0.6446 -0.0067  0.3571
  519ACOH    H113050   4.436   3.119   2.463  0.0892  1.3876  0.4205
  519ACOH    H213051   4.616   3.133   2.448  0.2567 -1.4204  0.5644
  519ACOH    H313052   4.514   3.102   2.307  0.1001 -0.4195  0.6091
  520ACOH    H413053   7.607   6.770   2.424 -1.0476 -1.0274 -0.3499
  520ACOH    O213054   7.535   6.836   2.423  0.3482  0.5317 -0.1728
  520ACOH    C213055   7.438   6.756   2.388  0.3166  0.4201  0.3898
  520ACOH    O113056   7.425   6.638   2.422 -0.2050 -0.2546 -0.1973
  520ACOH    C113057   7.321   6.823   2.329 -0.1404  0.1709  0.3981
  520ACOH    H113058   7.262   6.767   2.257 -1.1346  1.0581  0.5094
  520ACOH    H213059   7.353   6.912   2.274  0.3666 -1.0055 -1.2409
  520ACOH    H313060   7.251   6.857   2.406 -0.6077 -3.4447  1.6632
  521ACOH    H413061   7.595   5.192   6.023  2.2255 -0.9045 -0.4057
  521ACOH    O213062   7.577   5.115   6.080  0.1276  0.3627  0.6791
  521ACOH    C213063   7.554   5.157   6.202 -0.4012 -0.4079  0.0729
  521ACOH    O113064   7.563   5.267   6.259 -0.2055 -0.3401 -0.2081
  521ACOH    C113065   7.494   5.045   6.274 -0.0582  0.1980  0.1677
  521ACOH    H113066   7.448   5.088   6.363  1.2197  0.9481  0.4861
  521ACOH    H213067   7.562   4.966   6.305  0.4321 -0.7085 -3.0440
  521ACOH    H313068   7.412   5.007   6.212  0.3872 -2.3218  1.0691
  522ACOH    H413069   7.508   6.439   1.624 -0.4724 -0.0622 -0.2761
  522ACOH    O213070   7.452   6.444   1.545 -0.1604 -0.7472 -0.5537
  522ACOH    C213071   7.437   6.574   1.504 -0.4629 -0.0293 -0.9205
  522ACOH    O113072   7.518   6.661   1.528  0.1113 -0.1428  0.1870
  522ACOH    C113073   7.311   6.596   1.419 -0.1750  0.0331  0.5468
  522ACOH    H113074   7.293   6.702   1.399  1.3775  0.3959  0.9985
  522ACOH    H213075   7.230   6.563   1.484 -0.1279 -0.8712  0.1527
  522ACOH    H313076   7.324   6.528   1.335  1.3514 -0.1424  0.9093
  523ACOH    H413077   6.887   6.523   1.397  0.6271 -0.8472  0.2298
  523ACOH    O213078   6.932   6.579   1.462 -0.8254 -0.0213  0.5445
  523ACOH    C213079   6.846   6.676   1.513 -0.3673  0.1179  0.2597
  523ACOH    O113080   6.728   6.690   1.496 -0.2541 -0.8199  0.1253
  523ACOH    C113081   6.909   6.738   1.629  0.0754  0.6779  0.2949
  523ACOH    H113082   6.992   6.805   1.605  1.5354 -2.1749 -3.0714
  523ACOH    H213083   6.944   6.652   1.686 -3.0205  0.4955  2.0359
  523ACOH    H313084   6.833   6.790   1.687  1.3319  0.1929  2.4339
  524ACOH    H413085   3.953   6.776   5.602 -0.1219  0.5571  2.2367
  524ACOH    O213086   4.036   6.819   5.576 -0.2061 -0.2884  0.4675
  524ACOH    C213087   4.033   6.941   5.637 -0.0397 -0.3067  0.0028
  524ACOH    O113088   3.948   6.984   5.710  0.1569  0.4537 -0.0287
  524ACOH    C113089   4.161   7.007   5.609  0.6537  0.3050 -1.0872
  524ACOH    H113090   4.211   7.018   5.705 -0.4134 -2.4823 -0.1529
  524ACOH    H213091   4.135   7.109   5.582 -0.4414  0.5070  0.6695
  524ACOH    H313092   4.218   6.954   5.532  0.8229 -1.7583  0.4127
  525ACOH    H413093   7.588   7.573   2.284 -0.3853  0.7719 -0.4061
  525ACOH    O213094   7.575   7.491   2.234  0.3412  0.1782  0.3679
  525ACOH    C213095   7.658   7.497   2.135 -1.0062  0.1157  0.3205
  525ACOH    O113096   7.726   7.592   2.104  0.6315  0.1841  0.0310
  525ACOH    C113097   7.637   7.375   2.058 -0.1142  0.7207  0.1928
  525ACOH    H113098   7.596   7.398   1.960  0.7300  1.5949  0.0386
  525ACOH    H213099   7.565   7.305   2.101  0.6714 -1.4311 -1.8984
  525ACOH    H313100   7.730   7.320   2.045 -2.1277 -2.7253 -0.1951
  526ACOH    H413101   7.278   3.613   3.739  1.1702  1.5066 -0.0668
  526ACOH    O213102   7.198   3.668   3.741 -0.1203 -0.3046 -0.3222
  526ACOH    C213103   7.240   3.794   3.761 -0.0947 -0.0626 -1.0999
  526ACOH    O113104   7.352   3.834   3.793  0.0716  0.0709  0.2157
  526ACOH    C113105   7.125   3.888   3.754 -0.2733 -0.4663 -0.6877
  526ACOH    H113106   7.138   3.974   3.820 -2.2370 -1.8181  1.5188
  526ACOH    H213107   7.036   3.833   3.783  1.8042 -1.6830  3.9195
  526ACOH    H313108   7.112   3.918   3.650  0.4866  2.5783  0.0201
  527ACOH    H413109   8.584   8.621   0.567 -2.9920  0.8067  0.4707
  527ACOH    O213110   8.552   8.534   0.593 -0.5852 -0.2741 -0.0812
  527ACOH    C213111   8.566   8.453   0.488  0.2377  0.1325 -0.4842
  527ACOH    O113112   8.632   8.474   0.392 -0.0669 -0.1327  0.3826
  527ACOH    C113113   8.510   8.317   0.520 -0.6693 -0.5267 -0.6683
  527ACOH    H113114   8.491   8.254   0.433  0.1158 -1.3532 -0.2493
  527ACOH    H213115   8.414   8.327   0.572 -0.6836 -2.7297 -0.2060
  527ACOH    H313116   8.586   8.275   0.586 -1.6230 -1.9014 -0.4001
  528ACOH    H413117   0.565   6.903   2.758  0.7266 -0.2748 -1.2013
  528ACOH    O213118   0.639   6.926   2.817 -0.2658 -0.3266  0.0980
  528ACOH    C213119   0.704   6.813   2.857 -0.1185  0.3525  0.0115
  528ACOH    O113120   0.688   6.706   2.805  0.3919  0.0189  0.4295
  528ACOH    C113121   0.823   6.826   2.940 -0.0435  0.0530  0.5773
  528ACOH    H113122   0.880   6.735   2.957  2.5581  1.4233 -0.5500
  528ACOH    H213123   0.800   6.884   3.029  3.0753 -1.7212  2.6248
  528ACOH    H313124   0.889   6.891   2.883 -1.2356 -0.5162 -1.5056
  529ACOH    H413125   5.126   2.053   3.669 -0.4559  0.9761  0.0581
  529ACOH    O213126   5.207   2.106   3.670 -0.0949  0.4254 -0.1207
  529ACOH    C213127   5.232   2.149   3.544 -0.3449 -0.1540  0.4439
  529ACOH    O113128   5.186   2.108   3.442 -0.3338  0.4213 -0.0727
  529ACOH    C113129   5.347   2.239   3.549  0.2934 -0.4816  0.2201
  529ACOH    H113130   5.392   2.250   3.450  2.2780 -1.7709  0.9402
  529ACOH    H213131   5.424   2.186   3.605  0.2182 -2.6341 -1.6487
  529ACOH    H313132   5.332   2.338   3.590  0.1675  0.3022 -1.6453
  530ACOH    H413133   6.715   6.391   6.167 -0.1478 -2.7907 -1.6721
  530ACOH    O213134   6.749   6.335   6.240 -0.5524 -0.2961  0.5196
  530ACOH    C213135   6.765   6.213   6.188  0.5659 -0.3687  0.1856
  530ACOH    O113136   6.727   6.181   6.077  0.3659  0.4737  0.1608
  530ACOH    C113137   6.846   6.133   6.280  0.2929 -0.5485 -0.3274
  530ACOH    H113138   6.951   6.164   6.287 -0.1360  0.3672  2.5362
  530ACOH    H213139   6.849   6.029   6.250  0.1198 -0.6345 -0.0456
  530ACOH    H313140   6.812   6.137   6.383 -0.7894 -0.5060 -0.6821
  531ACOH    H413141   0.161   3.240   6.556 -1.5689  0.0438 -0.5172
  531ACOH    O213142   0.149   3.288   6.639  0.0453 -0.3719 -0.0215
  531ACOH    C213143   0.011   3.279   6.663  0.2968 -0.8452 -0.5517
  531ACOH    O113144  -0.077   3.223   6.591  0.5958  0.2173  0.3281
  531ACOH    C113145  -0.017   3.321   6.798 -0.0534 -0.1103  0.6750
  531ACOH    H113146  -0.103   3.388   6.790 -0.4966 -0.9197 -1.6632
  531ACOH    H213147   0.070   3.365   6.848 -0.8974 -0.1217  2.1835
  531ACOH    H313148  -0.049   3.231   6.850  1.8285  0.0076  2.0890
  532ACOH    H413149   6.327   2.417   4.597  0.8969 -0.4707  0.1622
  532ACOH    O213150   6.338   2.340   4.538 -0.2178 -0.4820 -0.0471
  532ACOH    C213151   6.218   2.288   4.522  0.4200 -0.0599  0.8190
  532ACOH    O113152   6.114   2.317   4.573  0.2278 -0.4489  0.0522
  532ACOH    C113153   6.234   2.168   4.434 -0.4515 -0.2452  0.3852
  532ACOH    H113154   6.291   2.091   4.487 -1.7616 -1.6418 -0.2093
  532ACOH    H213155   6.292   2.197   4.346  0.6125  0.3321  1.2639
  532ACOH    H313156   6.135   2.136   4.403 -0.7325  1.2427 -0.3435
  533ACOH    H413157   4.984   2.786   3.724  1.7628 -0.2036 -1.3281
  533ACOH    O213158   5.055   2.847   3.750  0.9300  0.3889 -0.4070
  533ACOH    C213159   5.004   2.924   3.844  0.5917 -0.2844  0.4509
  533ACOH    O113160   4.894   2.909   3.900 -0.7161  0.5758  0.4111
  533ACOH    C113161   5.107   3.017   3.902  0.1780 -0.1152 -0.5986
  533ACOH    H113162   5.147   2.978   3.996  2.1205  2.3394 -0.3414
  533ACOH    H213163   5.068   3.115   3.927 -1.5498 -1.4219  2.1200
  533ACOH    H313164   5.189   3.026   3.831  1.1046  0.7943  0.5613
  534ACOH    H413165   9.899   2.874   6.797 -1.1222  1.3906 -1.5999
  534ACOH    O213166   9.980   2.916   6.764  0.1498  0.0721 -0.1970
  534ACOH    C213167  10.043   2.815   6.695  0.0054 -0.0637 -0.4510
  534ACOH    O113168  10.039   2.693   6.721  0.3600 -0.2704 -0.4514
  534ACOH    C113169  10.130   2.865   6.584 -0.4623  0.1847 -0.3960
  534ACOH    H113170  10.129   2.787   6.508  0.8148 -1.8579  1.6242
  534ACOH    H213171  10.230   2.883   6.623  0.9599 -1.7933 -3.0177
  534ACOH    H313172  10.091   2.959   6.544  1.7562  1.0851 -0.5161
  535ACOH    H413173   4.474   2.378   3.347  2.0979 -0.0197  0.9722
  535ACOH    O213174   4.481   2.294   3.299 -0.5061  0.2084  0.1223
  535ACOH    C213175   4.576   2.302   3.205  0.6105 -0.4076 -0.2964
  535ACOH    O113176   4.656   2.392   3.186  0.1891  0.2237 -0.1293
  535ACOH    C113177   4.550   2.198   3.100  0.4643 -0.0749  0.5108
  535ACOH    H113178   4.447   2.171   3.076  0.6183  1.2428 -1.7443
  535ACOH    H213179   4.590   2.103   3.136 -1.1471 -0.8195  0.3850
  535ACOH    H313180   4.604   2.220   3.008 -0.0340 -2.6680 -0.4472
  536ACOH    H413181   8.965   4.456   7.153  0.8700 -1.8969  3.1247
  536ACOH    O213182   9.011   4.396   7.092 -0.1309 -0.1345  0.5933
  536ACOH    C213183   8.916   4.320   7.032 -0.4335 -0.0735  0.1916
  536ACOH    O113184   8.795   4.322   7.053 -0.0802  0.2191  0.5247
  536ACOH    C113185   8.977   4.221   6.950  0.1552 -0.4572 -0.4361
  536ACOH    H113186   8.983   4.254   6.846 -4.2618 -0.0066 -0.6448
  536ACOH    H213187   8.919   4.129   6.958  0.2112 -0.5737 -1.3154
  536ACOH    H313188   9.077   4.214   6.993  0.1043  0.1907 -0.2063
  537ACOH    H413189   9.700   3.163   7.419  2.7533 -2.3517  1.7029
  537ACOH    O213190   9.732   3.236   7.473 -0.5479  0.2784  0.2602
  537ACOH    C213191   9.647   3.328   7.440  0.6925 -0.4174 -0.0993
  537ACOH    O113192   9.611   3.346   7.325  0.0795  0.6419  0.1988
  537ACOH    C113193   9.648   3.422   7.560 -0.6291  0.9940  0.2728
  537ACOH    H113194   9.727   3.498   7.552 -1.0056  1.2926 -0.7773
  537ACOH    H213195   9.653   3.363   7.651 -1.2610  0.3828 -0.0858
  537ACOH    H313196   9.555   3.479   7.561 -1.0973  0.2449 -0.2014
  538ACOH    H413197   1.205   7.399   2.921  0.1586  0.4276  1.4536
  538ACOH    O213198   1.129   7.339   2.923  0.7602 -0.3957  0.2731
  538ACOH    C213199   1.159   7.220   2.871 -0.8408 -0.4690  0.0982
  538ACOH    O113200   1.273   7.185   2.846  0.1651  0.3277 -0.2197
  538ACOH    C113201   1.040   7.129   2.882  0.2565 -0.0077  0.1493
  538ACOH    H113202   0.996   7.103   2.786  0.3264  0.7218 -0.0853
  538ACOH    H213203   0.960   7.170   2.945 -0.3534  0.5812 -0.9819
  538ACOH    H313204   1.063   7.033   2.927 -0.1271 -0.3870 -0.4624
  539ACOH    H413205   4.622   5.001   4.380 -3.1489  0.6565 -3.4884
  539ACOH    O213206   4.693   5.061   4.349  0.1501 -0.9777  0.5192
  539ACOH    C213207   4.784   4.990   4.292  0.0695 -0.0864 -0.2083
  539ACOH    O113208   4.798   4.871   4.282 -0.3250  0.0730 -0.3682
  539ACOH    C113209   4.877   5.078   4.219 -0.6540 -0.4169  0.5094
  539ACOH    H113210   4.934   5.014   4.152  2.5181  0.9666  1.7936
  539ACOH    H213211   4.942   5.135   4.285 -1.3402  1.5469 -0.4829
  539ACOH    H313212   4.818   5.143   4.155  0.2236  0.6442  0.7746
  540ACOH    H413213   5.003   6.877   0.282  0.2633  0.3706 -0.2975
  540ACOH    O213214   5.012   6.920   0.369  0.3976 -0.0593 -0.0974
  540ACOH    C213215   4.991   6.827   0.465 -1.1207 -0.2560 -0.6475
  540ACOH    O113216   4.940   6.715   0.453 -0.2515  0.1038  0.8128
  540ACOH    C113217   4.999   6.879   0.605  0.7311  0.1911 -0.5069
  540ACOH    H113218   5.104   6.901   0.626  0.1523  2.9157 -0.3242
  540ACOH    H213219   4.967   6.803   0.677  0.0119  1.0344  0.0619
  540ACOH    H313220   4.936   6.967   0.611 -1.6303 -1.4462 -0.4291
  541ACOH    H413221   6.253   7.005   3.760  1.6013  0.1431  0.4513
  541ACOH    O213222   6.250   6.914   3.794 -0.3610 -0.0431 -0.1244
  541ACOH    C213223   6.148   6.854   3.730 -0.3351 -0.2047 -1.1924
  541ACOH    O113224   6.086   6.896   3.639  0.0863 -0.5554  0.6935
  541ACOH    C113225   6.147   6.716   3.783 -0.0616  0.2125  0.0608
  541ACOH    H113226   6.075   6.649   3.737 -0.8211 -0.4672  2.1790
  541ACOH    H213227   6.131   6.712   3.891 -3.4203  0.6677 -0.3767
  541ACOH    H313228   6.246   6.674   3.765 -1.1254 -1.3621 -2.3479
  542ACOH    H413229   3.557   6.036   4.213  0.4409  0.6251  0.6303
  542ACOH    O213230   3.641   5.998   4.182 -0.0760  0.0807 -0.1113
  542ACOH    C213231   3.733   6.015   4.275 -0.0384  0.2462  0.1067
  542ACOH    O113232   3.716   6.056   4.384 -1.3154  0.0836 -0.1610
  542ACOH    C113233   3.866   5.953   4.239  0.6329  0.0779  0.4711
  542ACOH    H113234   3.908   6.022   4.165  2.9518 -0.9623  0.7529
  542ACOH    H213235   3.853   5.860   4.183 -1.0771 -0.2349  1.3577
  542ACOH    H313236   3.928   5.941   4.328  0.7960 -1.4950  0.1620
  543ACOH    H413237   8.074   3.158   7.244 -1.1047  0.0522  0.8415
  543ACOH    O213238   8.032   3.169   7.157 -0.2657  0.6405  0.5093
  543ACOH    C213239   8.133   3.160   7.067 -0.2831  0.3340 -0.4357
  543ACOH    O113240   8.249   3.146   7.092  0.1480  0.2127  0.7513
  543ACOH    C113241   8.080   3.173   6.926  0.3478 -0.3784  0.6589
  543ACOH    H113242   8.091   3.075   6.879 -0.4272  0.5135 -1.4071
  543ACOH    H213243   8.137   3.252   6.877 -0.5270 -0.4631 -0.5013
  543ACOH    H313244   7.974   3.197   6.935 -0.0346 -1.7375 -0.0071
  544ACOH    H413245   2.443   5.692   0.658  2.5619 -1.8012 -0.7782
  544ACOH    O213246   2.427   5.622   0.723 -0.1690 -0.2648  0.2572
  544ACOH    C213247   2.337   5.539   0.668 -0.0213  0.2777  0.0756
  544ACOH    O113248   2.316   5.526   0.551 -0.6169 -0.1280  0.0477
  544ACOH    C113249   2.265   5.464   0.774  0.3044 -0.5830 -0.6577
  544ACOH    H113250   2.161   5.449   0.745 -0.1721 -2.8205  1.9544
  544ACOH    H213251   2.273   5.525   0.864  0.2459  0.8565 -1.6029
  544ACOH    H313252   2.311   5.366   0.787 -0.5049 -0.8762  0.0013
  545ACOH    H413253   6.146   7.064   4.019 -1.6333 -0.0599  1.4379
  545ACOH    O213254   6.174   6.976   4.051 -0.1565 -0.0965  0.0930
  545ACOH    C213255   6.310   6.983   4.060  0.3737  0.4985 -0.1927
  545ACOH    O113256   6.379   7.083   4.043 -0.6172  0.8521  0.2244
  545ACOH    C113257   6.364   6.854   4.109  0.3707 -0.2227 -0.3977
  545ACOH    H113258   6.473   6.850   4.117  0.5231  1.3538 -1.4453
  545ACOH    H213259   6.330   6.775   4.041 -0.5398 -0.4448  0.3145
  545ACOH    H313260   6.319   6.828   4.205  0.4521  2.2602  0.3376
  546ACOH    H413261   5.919   6.619   3.978  1.3400 -2.4318 -0.3064
  546ACOH    O213262   5.867   6.592   3.900 -0.0941  0.1643 -0.3148
  546ACOH    C213263   5.787   6.691   3.850  0.5739  0.8498 -0.0467
  546ACOH    O113264   5.787   6.805   3.887 -0.0760 -0.0797  0.4051
  546ACOH    C113265   5.692   6.642   3.749  0.0955  0.3115 -0.8476
  546ACOH    H113266   5.738   6.582   3.670 -0.4257  0.4097 -1.2296
  546ACOH    H213267   5.657   6.729   3.694 -0.7233  1.1202  0.9100
  546ACOH    H313268   5.607   6.598   3.800  0.1309  2.3888  1.0704
  547ACOH    H413269   7.616   9.630   0.827  0.9701  0.4146 -1.4222
  547ACOH    O213270   7.661   9.557   0.782  0.2014 -0.3799 -0.9119
  547ACOH    C213271   7.766   9.520   0.853  0.5349 -0.2676 -0.5920
  547ACOH    O113272   7.810   9.577   0.951  0.0742  0.5213  0.2220
  547ACOH    C113273   7.842   9.405   0.781 -0.7259 -0.5855  0.0886
  547ACOH    H113274   7.849   9.435   0.677 -1.2549  0.2152  0.2868
  547ACOH    H213275   7.777   9.317   0.789 -0.0755 -1.2162 -1.3555
  547ACOH    H313276   7.935   9.405   0.838 -1.4116 -0.1803  1.2352
  548ACOH    H413277   5.308   4.630   5.425 -0.4531  0.1277 -0.4164
  548ACOH    O213278   5.350   4.675   5.349  0.3295  0.3107  0.1162
  548ACOH    C213279   5.358   4.807   5.372  0.0574  0.1882  0.1671
  548ACOH    O113280   5.288   4.877   5.447 -0.4595  0.5455 -0.2907
  548ACOH    C113281   5.441   4.871   5.269 -0.4226  0.3787 -0.9197
  548ACOH    H113282   5.542   4.832   5.260 -0.1522  1.1565 -1.3035
  548ACOH    H213283   5.455   4.973   5.303 -0.7835  0.3166 -0.5772
  548ACOH    H313284   5.399   4.865   5.168  1.0970  0.7894 -1.5873
  549ACOH    H413285   1.559   3.402   7.750  0.2331  0.7967  0.1851
  549ACOH    O213286   1.509   3.473   7.705 -0.1513  0.5416  0.2110
  549ACOH    C213287   1.445   3.427   7.598 -0.2545 -0.0532  0.5142
  549ACOH    O113288   1.435   3.307   7.574  0.2433 -0.0714 -0.1877
  549ACOH    C113289   1.385   3.536   7.517  0.5456  0.1624 -0.5800
  549ACOH    H113290   1.461   3.604   7.480  0.7950  0.0820 -0.2083
  549ACOH    H213291   1.335   3.593   7.595  2.0941 -0.3813  0.8153
  549ACOH    H313292   1.312   3.502   7.442  1.3168 -1.3835 -0.6610
  550ACOH    H413293   7.806   5.139   6.965  0.9640  0.2212  0.6075
  550ACOH    O213294   7.858   5.221   6.964  0.6320  0.4294 -0.5588
  550ACOH    C213295   7.956   5.193   6.882 -0.3072  0.3840  0.0731
  550ACOH    O113296   7.968   5.096   6.813 -0.0239  0.5228 -0.3473
  550ACOH    C113297   8.049   5.310   6.876  0.4138 -0.9796 -0.9104
  550ACOH    H113298   7.993   5.402   6.856  2.5686  0.4137 -0.6986
  550ACOH    H213299   8.129   5.285   6.807  0.0811  0.2339 -1.7614
  550ACOH    H313300   8.094   5.331   6.973  0.2100  1.8838 -1.3895
  551ACOH    H413301   6.070   1.895   7.857 -1.9007  1.2065 -0.5794
  551ACOH    O213302   6.057   1.845   7.775 -0.1253  0.1070 -0.2146
  551ACOH    C213303   6.170   1.766   7.771  0.1716 -0.7184  0.1413
  551ACOH    O113304   6.265   1.754   7.846  0.4402  0.0738 -0.0051
  551ACOH    C113305   6.160   1.699   7.635  0.7117 -0.3016  0.3110
  551ACOH    H113306   6.069   1.640   7.627 -0.0695  0.8175  0.7193
  551ACOH    H213307   6.246   1.634   7.614  1.8890  0.7215  1.8680
  551ACOH    H313308   6.154   1.776   7.558 -1.2500  0.8909  1.6060
  552SOL     OW13309   4.188   2.779   6.895  0.0197 -0.2040  0.0368
  552SOL    HW113310   4.186   2.876   6.920 -1.5226 -0.0931 -0.4649
  552SOL    HW213311   4.202   2.771   6.796 -0.0873 -0.4868  0.0446
  553SOL     OW13312   3.954   3.127   1.313  0.2405  0.7001 -0.0891
  553SOL    HW113313   3.896   3.047   1.297 -0.5277  1.0601  0.8768
  553SOL    HW213314   4.017   3.138   1.236 -0.0989 -0.4411 -0.5429
  554SOL     OW13315   3.829   4.542   7.543 -0.4146  0.0215  0.6737
  554SOL    HW113316   3.869   4.593   7.467 -0.4453 -0.4825  0.3158
  554SOL    HW213317   3.862   4.580   7.630 -0.1455  0.4077  0.4053
  555SOL     OW13318   9.722   7.916   3.426 -0.2865  0.0907 -0.2780
  555SOL    HW113319   9.687   8.007   3.401 -0.1651  0.1101 -0.3839
  555SOL    HW213320   9.729   7.909   3.525 -2.2912 -0.5519 -0.1600
  556SOL     OW13321   8.511   5.263   7.073  0.3709 -0.2780 -0.1826
  556SOL    HW113322   8.498   5.273   7.172  1.3817  0.3603 -0.1023
  556SOL    HW213323   8.505   5.353   7.029  1.2646 -0.3735 -0.5201
  557SOL     OW13324   4.513   3.574   0.454  0.4664  0.5880 -0.0068
  557SOL    HW113325   4.483   3.667   0.475 -0.2382 -0.0934  2.1019
  557SOL    HW213326   4.474   3.546   0.366 -1.0970  1.4856  0.3855
  558SOL     OW13327   9.322   3.200   7.559  0.1379  0.4399  0.0548
  558SOL    HW113328   9.312   3.219   7.462  1.8526 -0.9653 -0.4132
  558SOL    HW213329   9.311   3.285   7.611  1.2020  1.5650 -1.5064
  559SOL     OW13330   1.870   9.198   2.058 -0.5467  0.2963  0.3773
  559SOL    HW113331   1.904   9.110   2.091 -3.2898 -1.2483 -0.7352
  559SOL    HW213332   1.870   9.264   2.134  0.4262 -0.9941  1.5300
  560SOL     OW13333   4.646   1.164   7.369  0.2008 -0.1003 -0.1062
  560SOL    HW113334   4.730   1.214   7.348  0.5655 -0.3904  0.6689
  560SOL    HW213335   4.605   1.131   7.284  0.8763  0.0312 -0.4835
  561SOL     OW13336   2.275   3.740   1.831  0.1495  0.6356 -0.4973
  561SOL    HW113337   2.321   3.826   1.813 -1.2993  1.5747  0.1898
  561SOL    HW213338   2.289   3.678   1.754  2.0027  1.1185 -0.5684
  562SOL     OW13339   9.469   8.042   5.618  0.3697 -0.2894  0.0189
  562SOL    HW113340   9.409   8.059   5.696  0.2805 -0.2779 -0.0528
  562SOL    HW213341   9.446   7.953   5.577 -0.2699  0.1731 -0.6331
  563SOL     OW13342   1.793   3.333   2.464 -0.1265 -0.2579  0.4167
  563SOL    HW113343   1.881   3.372   2.490  0.5958 -1.2315 -0.5674
  563SOL    HW213344   1.771   3.358   2.370 -1.0080  0.1566  0.7238
  564SOL     OW13345   1.337   7.033   8.116  0.1260 -0.2212  0.1173
  564SOL    HW113346   1.275   7.097   8.070  1.1339  2.0433  1.8145
  564SOL    HW213347   1.291   6.994   8.195  0.5455  0.7811  0.8635
  565SOL     OW13348   6.631   5.617   1.033  0.1567 -0.0337 -0.4881
  565SOL    HW113349   6.623   5.659   1.124  0.4803 -1.1711  0.0725
  565SOL    HW213350   6.545   5.570   1.012  0.2235 -0.0997 -0.6075
  566SOL     OW13351   3.812   4.067   1.521  0.4188 -0.1226 -0.4310
  566SOL    HW113352   3.883   4.000   1.542  0.5573  0.2866  0.4077
  566SOL    HW213353   3.813   4.140   1.589  0.1264  0.6277 -1.2231
  567SOL     OW13354   2.867   1.615   2.245  0.2250  0.5276 -0.0905
  567SOL    HW113355   2.935   1.687   2.233 -1.0148  1.5643 -1.1185
  567SOL    HW213356   2.782   1.655   2.280 -0.8095 -0.2382 -1.6542
  568SOL     OW13357   9.600   0.219   2.941  0.3542  0.3737 -0.1122
  568SOL    HW113358   9.559   0.165   3.014  0.6961  2.4171  1.6445
  568SOL    HW213359   9.669   0.165   2.893 -1.3072 -1.6479 -0.2608
  569SOL     OW13360   0.795   3.066   5.630 -0.2907  0.0958  0.4500
  569SOL    HW113361   0.738   2.987   5.606  0.2441 -0.5869  1.3635
  569SOL    HW213362   0.738   3.137   5.671 -1.1754  1.1902 -2.5478
  570SOL     OW13363   4.075   2.423   3.142  0.1550 -0.1794 -0.2597
  570SOL    HW113364   4.135   2.373   3.204  0.2627 -0.9757 -0.9892
  570SOL    HW213365   4.046   2.362   3.067  0.2980  0.8469 -1.1629
  571SOL     OW13366   8.885   6.927   7.648 -0.2219 -0.2096 -0.3795
  571SOL    HW113367   8.959   6.861   7.663 -0.8253 -1.0317 -0.9847
  571SOL    HW213368   8.842   6.950   7.735 -0.4028 -1.0743 -0.2394
  572SOL     OW13369   7.861   2.325   0.838 -0.8619  0.1324  0.1794
  572SOL    HW113370   7.809   2.240   0.851  1.7454 -1.7004 -0.8892
  572SOL    HW213371   7.825   2.373   0.758 -2.0652 -0.1721  0.5149
  573SOL     OW13372   0.237   7.183   3.247  0.2248  0.5040  0.0651
  573SOL    HW113373   0.174   7.115   3.285  0.9963 -0.7282 -0.8130
  573SOL    HW213374   0.188   7.243   3.184 -0.0993 -0.4554 -0.6206
  574SOL     OW13375   2.326   2.750   3.921  0.1691 -0.4822  0.1594
  574SOL    HW113376   2.420   2.734   3.950  0.2211  0.0067  0.2578
  574SOL    HW213377   2.288   2.665   3.884  0.4577 -0.8260  0.6456
  575SOL     OW13378   4.883   9.847   5.137 -0.1513  0.0879 -0.3175
  575SOL    HW113379   4.903   9.945   5.147  1.3651 -0.1205 -1.1811
  575SOL    HW213380   4.954   9.804   5.082 -1.8261 -1.1572 -1.5377
  576SOL     OW13381   9.629   5.933   3.642  0.0318 -0.0592 -1.0961
  576SOL    HW113382   9.706   5.869   3.650 -0.1718 -0.4517 -2.1201
  576SOL    HW213383   9.545   5.881   3.622 -0.1369  0.5279 -1.9316
  577SOL     OW13384   9.819   7.118   0.764 -0.3572  0.4263 -0.0860
  577SOL    HW113385   9.754   7.075   0.826 -2.5321 -0.5358 -2.9252
  577SOL    HW213386   9.819   7.217   0.779 -1.2717  0.2688  1.0227
  578SOL     OW13387   1.584   7.504   0.669  0.9747  0.1016  0.1707
  578SOL    HW113388   1.680   7.531   0.673  0.7282  1.1623 -0.9475
  578SOL    HW213389   1.574   7.411   0.705  2.6811 -0.6677 -1.2447
  579SOL     OW13390   4.371   3.605   7.090  0.7283  0.2951  0.0951
  579SOL    HW113391   4.313   3.664   7.033 -1.2821 -0.6915  1.0673
  579SOL    HW213392   4.437   3.662   7.139 -1.5030  1.8464  1.4218
  580SOL     OW13393   7.942   4.737   2.625 -0.2622 -0.0962 -0.0185
  580SOL    HW113394   7.924   4.832   2.597 -2.2141 -0.3593  0.3029
  580SOL    HW213395   7.862   4.681   2.606  1.7976 -2.2786 -2.6619
  581SOL     OW13396   1.611   8.639   7.210  0.1199  0.3318 -0.3061
  581SOL    HW113397   1.581   8.600   7.298 -1.1939  1.7168 -0.1238
  581SOL    HW213398   1.625   8.565   7.144  0.0662 -0.6417  0.7512
  582SOL     OW13399   4.557   3.176   0.757  0.3026  0.4533 -0.1323
  582SOL    HW113400   4.461   3.195   0.781  0.3849  0.7072 -0.0024
  582SOL    HW213401   4.616   3.237   0.809  0.4779  1.1021 -1.0860
  583SOL     OW13402   8.555   7.338   1.208 -0.5364 -0.3237 -0.1284
  583SOL    HW113403   8.526   7.350   1.113 -2.4033  0.5104  0.5153
  583SOL    HW213404   8.528   7.419   1.261  0.5376 -0.7584  1.1000
  584SOL     OW13405   6.984   1.385   4.338  0.3798  0.3189 -0.2925
  584SOL    HW113406   6.949   1.351   4.250 -1.0291  2.4132 -0.5583
  584SOL    HW213407   6.933   1.466   4.366  2.6128  1.2870  1.1394
  585SOL     OW13408   3.822   7.159   3.016  0.2242 -0.1150 -0.1984
  585SOL    HW113409   3.914   7.137   3.047  1.0489  2.5678 -0.6268
  585SOL    HW213410   3.763   7.175   3.096  0.2396 -1.3377  0.0665
  586SOL     OW13411   0.087   7.670   2.008 -0.0410  0.1725  0.2629
  586SOL    HW113412   0.077   7.721   1.923  2.4840  1.3966  0.6478
  586SOL    HW213413   0.117   7.577   1.988 -1.0468 -0.0403 -0.2635
  587SOL     OW13414   8.386   8.313   5.942 -0.0960  0.3131  0.4681
  587SOL    HW113415   8.288   8.295   5.931 -0.1814 -0.2380  2.0069
  587SOL    HW213416   8.436   8.226   5.944  0.2074  0.5040  1.5847
  588SOL     OW13417   5.825   4.551   7.911 -0.0198 -0.6052  0.4596
  588SOL    HW113418   5.729   4.523   7.916 -0.0579 -0.3520  1.2207
  588SOL    HW213419   5.838   4.611   7.832 -0.5109 -0.5519  0.4181
  589SOL     OW13420   9.260   2.323   7.799  0.4974  0.3920 -0.8967
  589SOL    HW113421   9.318   2.404   7.808  2.4493 -1.1729  1.2891
  589SOL    HW213422   9.179   2.333   7.857  1.7800 -0.0689  1.0169
  590SOL     OW13423   3.299   3.198   3.939  0.4225  0.0175  0.1712
  590SOL    HW113424   3.248   3.284   3.945 -0.4049 -0.5366  1.4242
  590SOL    HW213425   3.384   3.207   3.991  0.6543  0.3015 -0.2603
  591SOL     OW13426   8.615   0.539   3.890 -0.7451 -0.1557 -0.0744
  591SOL    HW113427   8.554   0.460   3.880  1.0325 -1.9188  2.3304
  591SOL    HW213428   8.704   0.518   3.849 -0.3615  0.7180  0.3001
  592SOL     OW13429   1.232   4.776   4.370  0.0496  0.1899 -0.1675
  592SOL    HW113430   1.235   4.867   4.411  1.1950  0.6114 -1.1504
  592SOL    HW213431   1.324   4.737   4.367 -0.3486 -0.7464 -0.3014
  593SOL     OW13432   2.789   0.684   3.540  0.3456  0.2973  0.3539
  593SOL    HW113433   2.864   0.741   3.572  0.5062  0.5228 -0.4132
  593SOL    HW213434   2.737   0.732   3.470 -0.0204 -0.1728  0.2948
  594SOL     OW13435   1.941   7.835   3.791  0.3020  0.1352  0.8212
  594SOL    HW113436   1.989   7.857   3.876  2.0382 -0.0774 -0.0903
  594SOL    HW213437   1.975   7.748   3.755 -0.6946  0.0384  0.1084
  595SOL     OW13438   7.307   0.515   7.730  0.1265  0.2619  0.0858
  595SOL    HW113439   7.255   0.564   7.800  1.9408  1.3195  0.7535
  595SOL    HW213440   7.284   0.552   7.640 -0.2559  0.7390  0.3764
  596SOL     OW13441   2.588   9.757   7.029 -0.2567 -0.0095 -0.0528
  596SOL    HW113442   2.573   9.659   7.015  1.9403 -0.2246 -1.2618
  596SOL    HW213443   2.612   9.774   7.124 -2.4974 -0.3626  0.6078
  597SOL     OW13444   1.874   5.450   0.221 -0.3824 -0.1587 -0.0484
  597SOL    HW113445   1.856   5.442   0.123  1.8468 -0.8798 -0.4085
  597SOL    HW213446   1.946   5.386   0.248  1.4016  2.3962  1.4204
  598SOL     OW13447   2.167   5.657   4.353 -0.1589 -0.1881  0.8244
  598SOL    HW113448   2.103   5.676   4.428  0.3547  1.2678  0.9143
  598SOL    HW213449   2.116   5.651   4.267 -0.3626  1.7220  0.7857
  599SOL     OW13450   1.918   3.192   3.199 -0.3464  0.2290 -0.1706
  599SOL    HW113451   1.992   3.144   3.151  1.9891  1.4368  2.1262
  599SOL    HW213452   1.955   3.244   3.275 -3.7157  0.0945  1.6735
  600SOL     OW13453   1.381   8.028   0.550  0.3004  0.5673  0.0590
  600SOL    HW113454   1.385   8.074   0.462  3.6331  0.2119 -0.0422
  600SOL    HW213455   1.393   7.929   0.537 -1.3500  0.2531  0.7475
  601SOL     OW13456   0.872   8.698   2.907 -0.3314  0.2314 -0.0950
  601SOL    HW113457   0.814   8.669   2.831 -0.9469 -1.6351  1.0341
  601SOL    HW213458   0.964   8.659   2.895  0.3206  2.0234 -1.1535
  602SOL     OW13459   9.363   4.219   6.850  0.3670 -0.5363 -0.0458
  602SOL    HW113460   9.459   4.219   6.822  0.7469 -1.6389  1.1942
  602SOL    HW213461   9.320   4.133   6.821  0.4207 -1.1227  1.5408
  603SOL     OW13462   3.039   0.083   4.283 -0.4710  0.1189 -0.1162
  603SOL    HW113463   3.077   0.004   4.331 -0.2115  0.7882  0.7911
  603SOL    HW213464   3.060   0.167   4.334 -3.9616  0.4325  0.9172
  604SOL     OW13465   2.930   0.224   3.432  0.0176  0.5243 -0.2814
  604SOL    HW113466   2.849   0.189   3.480  1.8343 -1.8777  1.1456
  604SOL    HW213467   2.929   0.323   3.434 -1.6249  0.5118  1.9337
  605SOL     OW13468   4.051   3.385   0.867 -0.0130 -0.6711 -0.6457
  605SOL    HW113469   3.963   3.370   0.822 -0.4048  1.6770 -0.7425
  605SOL    HW213470   4.041   3.370   0.965 -0.6472  0.0139 -0.5963
  606SOL     OW13471   2.591   1.581   2.892  0.0267  0.1266  0.4957
  606SOL    HW113472   2.586   1.673   2.854  0.6179  0.0316  0.1689
  606SOL    HW213473   2.500   1.550   2.921 -0.4162  0.2197 -0.7989
  607SOL     OW13474   9.646   8.312   4.526  0.0923 -0.5265 -0.3760
  607SOL    HW113475   9.625   8.371   4.449  1.4282 -1.3935 -1.4232
  607SOL    HW213476   9.609   8.221   4.510 -2.3398  0.1032  1.4291
  608SOL     OW13477   9.256   2.314   5.925  0.5938 -0.4633 -0.4291
  608SOL    HW113478   9.327   2.352   5.984  0.2247  1.0194 -0.9190
  608SOL    HW213479   9.171   2.365   5.938  0.4694 -0.2156 -2.1471
  609SOL     OW13480   8.090   7.979   6.854 -0.4076 -0.2588  0.2396
  609SOL    HW113481   8.121   8.036   6.930  1.5906  2.2876 -2.4022
  609SOL    HW213482   8.168   7.956   6.795 -2.3026 -0.1154 -2.4118
  610SOL     OW13483   1.657   5.704   5.992 -0.4032  0.0961  0.2496
  610SOL    HW113484   1.714   5.779   5.960 -0.6999 -0.5336 -1.8528
  610SOL    HW213485   1.707   5.652   6.062 -0.0027  1.9077  1.3432
  611SOL     OW13486   2.873   1.108   1.457  0.1676 -0.2830 -0.0514
  611SOL    HW113487   2.952   1.100   1.518 -0.3902 -1.0525  0.5741
  611SOL    HW213488   2.798   1.051   1.491 -0.8540  0.8608 -0.3450
  612SOL     OW13489   2.137   5.492   6.435  0.1831 -0.0690 -0.0745
  612SOL    HW113490   2.045   5.465   6.409  0.0500 -1.1608  1.4443
  612SOL    HW213491   2.136   5.587   6.466 -0.8865 -0.6961  1.9594
  613SOL     OW13492   7.101   3.184   0.805  0.5702  0.0317  0.6700
  613SOL    HW113493   7.150   3.110   0.850  0.9551 -0.9401 -1.2685
  613SOL    HW213494   7.027   3.145   0.750  1.0839  1.0156 -0.7495
  614SOL     OW13495   3.293   8.191   7.870 -0.0707 -0.0125 -0.9313
  614SOL    HW113496   3.386   8.172   7.902 -0.4374 -0.5302 -0.1446
  614SOL    HW213497   3.227   8.146   7.931 -0.9831  3.5138  0.7991
  615SOL     OW13498   9.502   3.539   5.155 -0.6169 -0.3317  0.1815
  615SOL    HW113499   9.484   3.537   5.057  0.6370  1.1280 -0.0984
  615SOL    HW213500   9.571   3.470   5.177  0.6232  0.7297 -0.3104
  616SOL     OW13501   8.337   2.755   7.087 -0.6552 -0.2700  0.3985
  616SOL    HW113502   8.259   2.756   7.025  0.3347  0.6921 -0.8429
  616SOL    HW213503   8.398   2.831   7.066  0.1460 -0.4394  1.9866
  617SOL     OW13504   2.861   5.610   2.209  0.3530  0.4013 -0.0478
  617SOL    HW113505   2.772   5.600   2.164  0.9283 -1.3476 -0.7987
  617SOL    HW213506   2.847   5.652   2.299 -0.9386  2.6492 -1.2533
  618SOL     OW13507   5.834   9.313   2.839  0.2226 -0.2479  0.3772
  618SOL    HW113508   5.912   9.348   2.788 -1.2537  1.3610 -0.8266
  618SOL    HW213509   5.867   9.258   2.916  2.5045 -1.0029 -1.0815
  619SOL     OW13510   3.274   8.590   6.629  0.2061  0.3617  0.0340
  619SOL    HW113511   3.310   8.546   6.547 -2.4446  0.7338 -1.3888
  619SOL    HW213512   3.241   8.521   6.693  0.6857  0.1387  0.0447
  620SOL     OW13513   9.882   9.106   0.118  0.0680 -0.0879 -0.3982
  620SOL    HW113514   9.833   9.192   0.113  1.2764  0.6024 -0.6151
  620SOL    HW213515   9.817   9.031   0.127 -1.0034  0.8181 -0.4613
  621SOL     OW13516   9.869   5.185   5.916  0.5501  0.2087  0.2809
  621SOL    HW113517   9.772   5.208   5.910  0.1498 -1.4184  0.2364
  621SOL    HW213518   9.895   5.175   6.012  0.4657 -0.1860  0.2636
  622SOL     OW13519   0.562   6.991   1.506 -0.1412 -0.4538 -0.3865
  622SOL    HW113520   0.499   6.959   1.436 -0.2565  0.5966 -0.7809
  622SOL    HW213521   0.635   7.044   1.462  0.1449 -0.3442  0.2216
  623SOL     OW13522   1.554   1.007   1.609 -0.2341 -0.3353 -0.1327
  623SOL    HW113523   1.522   1.056   1.528  0.3608  1.3768  0.6585
  623SOL    HW213524   1.578   0.913   1.583  0.5357  0.3680 -2.0737
  624SOL     OW13525   8.916   5.702   5.721 -0.0394  0.0002 -0.3370
  624SOL    HW113526   8.944   5.723   5.815  0.0342  0.0676 -0.3741
  624SOL    HW213527   8.904   5.787   5.670 -1.0283 -0.0081 -0.1176
  625SOL     OW13528   2.265   0.674   5.300 -0.4162  0.3267 -0.3372
  625SOL    HW113529   2.311   0.621   5.230 -0.2750  1.5452 -1.1825
  625SOL    HW213530   2.213   0.749   5.258 -2.3547 -0.4058  0.6726
  626SOL     OW13531   4.463   7.029   4.296  0.2022 -0.5576 -0.0236
  626SOL    HW113532   4.489   7.053   4.203 -0.2106 -1.0152 -0.2555
  626SOL    HW213533   4.364   7.033   4.305  0.2852  0.2005  0.5919
  627SOL     OW13534   2.940   6.972   3.479 -0.1792 -0.3024 -0.0035
  627SOL    HW113535   2.963   7.054   3.426 -0.7149  1.4796  2.4110
  627SOL    HW213536   3.024   6.924   3.503  0.2381  0.2629 -0.3088
  628SOL     OW13537   1.020   3.948   0.070  0.3305 -0.0717  0.1559
  628SOL    HW113538   1.085   3.991   0.132 -0.3861 -0.0267  0.8826
  628SOL    HW213539   1.045   3.852   0.056 -0.5757 -0.6107  2.0332
  629SOL     OW13540   6.443   3.739   7.991  0.0185  0.3938  0.5219
  629SOL    HW113541   6.408   3.661   8.044  0.2336  0.3769  0.6369
  629SOL    HW213542   6.372   3.810   7.986 -0.1934  0.1738  0.3799
  630SOL     OW13543   0.679   4.115   2.537  0.2473 -0.0619  0.3463
  630SOL    HW113544   0.611   4.180   2.503  1.9780  2.0100  0.7916
  630SOL    HW213545   0.702   4.137   2.632  2.7052  0.2505 -0.2965
  631SOL     OW13546   3.708   4.431   5.834 -0.0545 -0.3494 -0.6205
  631SOL    HW113547   3.636   4.412   5.900  0.2520  0.1368 -0.1404
  631SOL    HW213548   3.744   4.345   5.798 -1.2077 -0.5799 -1.2391
  632SOL     OW13549   7.924   4.037   4.791 -0.7494  0.6634 -0.0396
  632SOL    HW113550   7.876   4.110   4.742  1.4448  0.9052 -1.8812
  632SOL    HW213551   7.901   3.949   4.749 -1.6828  0.4945  0.8031
  633SOL     OW13552   4.361   1.009   0.532  0.3158  0.0352 -0.0979
  633SOL    HW113553   4.289   1.066   0.494  1.0839  0.2820 -1.1912
  633SOL    HW213554   4.354   0.916   0.495 -0.7926 -0.5545  1.5035
  634SOL     OW13555   1.287   3.278   0.904 -0.1733  0.9209 -0.2034
  634SOL    HW113556   1.363   3.323   0.950 -0.1444  1.8828 -1.1776
  634SOL    HW213557   1.260   3.197   0.956  0.4343  1.4920  1.0213
  635SOL     OW13558   9.674   9.147   6.493 -0.4558  0.0564  0.5506
  635SOL    HW113559   9.638   9.215   6.557 -1.6736 -1.0294  1.0433
  635SOL    HW213560   9.771   9.133   6.510 -0.2739  1.3820  0.6982
  636SOL     OW13561   5.641   3.315   1.577  0.2769  0.0487 -0.3675
  636SOL    HW113562   5.651   3.278   1.669 -2.5820  0.6379  0.2192
  636SOL    HW213563   5.614   3.411   1.582 -0.6578 -0.1226 -1.7948
  637SOL     OW13564   2.261   8.125   5.223 -0.3594  0.6842 -0.0995
  637SOL    HW113565   2.322   8.068   5.167 -0.1705  1.1465 -0.3738
  637SOL    HW213566   2.280   8.221   5.204 -0.2812  0.8450  0.7888
  638SOL     OW13567   5.773   0.478   4.318  0.0378  1.5387 -0.3905
  638SOL    HW113568   5.758   0.514   4.226  0.0063 -0.2155 -1.0837
  638SOL    HW213569   5.868   0.446   4.326 -0.9058 -1.5238 -0.9649
  639SOL     OW13570   3.343   2.032   5.315 -0.7525 -0.5018 -0.6583
  639SOL    HW113571   3.280   1.999   5.386 -0.1910 -1.8691 -0.7696
  639SOL    HW213572   3.318   1.990   5.228  0.1834 -0.8987 -0.7437
  640SOL     OW13573   1.313   7.573   4.426 -0.5681 -0.0294  0.0792
  640SOL    HW113574   1.312   7.575   4.526 -0.4450  1.7511  0.0621
  640SOL    HW213575   1.374   7.644   4.392  0.7378 -1.7683 -1.2504
  641SOL     OW13576   8.851   0.868   7.339  0.0776 -0.0145  0.2517
  641SOL    HW113577   8.809   0.780   7.361  1.5172 -0.7198  0.2616
  641SOL    HW213578   8.789   0.942   7.365  0.1600 -0.9280  3.2178
  642SOL     OW13579   6.260   8.616   1.900  0.0618 -0.4380 -0.1210
  642SOL    HW113580   6.202   8.575   1.830  0.4165  1.6981 -1.7153
  642SOL    HW213581   6.247   8.716   1.900  0.1584 -0.3787  2.7744
  643SOL     OW13582   8.546   0.857   4.585 -0.1947  0.2617  0.3196
  643SOL    HW113583   8.639   0.891   4.572  0.4164 -1.4912 -0.0560
  643SOL    HW213584   8.490   0.879   4.505  1.0094 -2.2102 -1.2736
  644SOL     OW13585   1.831   7.864   3.332  0.8387  0.2780 -0.4739
  644SOL    HW113586   1.791   7.892   3.419 -0.3939 -1.4827 -0.4551
  644SOL    HW213587   1.931   7.873   3.337  0.6813  1.5762  0.6005
  645SOL     OW13588   4.035   0.790   7.977  0.3584 -0.6914 -0.3164
  645SOL    HW113589   4.074   0.702   7.950 -0.9862 -1.2412 -0.5345
  645SOL    HW213590   4.091   0.831   8.049  1.2684 -1.4907 -0.5546
  646SOL     OW13591   7.701   2.265   7.662 -0.1530 -0.0441  0.3897
  646SOL    HW113592   7.713   2.191   7.729  0.8322 -0.5540 -0.3328
  646SOL    HW213593   7.744   2.349   7.696  1.5677 -0.6631 -0.1813
  647SOL     OW13594   8.899   8.824   4.407  0.2589  0.5598 -0.4022
  647SOL    HW113595   8.961   8.746   4.406 -0.1495  0.2220  0.4807
  647SOL    HW213596   8.931   8.890   4.476  1.4750  1.8867 -2.1955
  648SOL     OW13597   1.466   1.880   6.887 -0.9145 -0.0336  0.2204
  648SOL    HW113598   1.418   1.849   6.804 -1.0627  0.2474  0.2015
  648SOL    HW213599   1.426   1.834   6.967  0.4068 -1.6693 -0.0233
  649SOL     OW13600   1.208   2.000   3.933  0.2333  0.1151 -0.2783
  649SOL    HW113601   1.162   2.085   3.958  0.9337  0.9586 -1.7765
  649SOL    HW213602   1.190   1.979   3.837  1.1984 -0.6882 -0.2958
  650SOL     OW13603   1.296   2.090   3.000 -0.4251 -0.8263  0.4951
  650SOL    HW113604   1.218   2.143   2.967 -0.3697  0.1175  1.8335
  650SOL    HW213605   1.263   2.012   3.052 -0.4953 -1.6388 -0.7528
  651SOL     OW13606   2.398   1.918   4.922 -0.2113 -0.0023 -0.3112
  651SOL    HW113607   2.426   2.010   4.947 -0.0734 -0.1106 -0.0728
  651SOL    HW213608   2.478   1.860   4.912 -0.2517  0.0819 -1.1640
  652SOL     OW13609   4.637   9.674   4.908  0.4158 -0.2231 -0.1174
  652SOL    HW113610   4.564   9.638   4.966 -0.9465 -0.7757 -2.1079
  652SOL    HW213611   4.646   9.773   4.923 -0.7903 -0.1382  0.1198
  653SOL     OW13612   1.561   9.723   2.320 -0.2160  0.1075  0.3686
  653SOL    HW113613   1.573   9.730   2.419 -1.3305 -1.8653  0.6607
  653SOL    HW213614   1.596   9.635   2.288 -2.4577 -0.4960 -0.5442
  654SOL     OW13615   2.462   4.575   3.652  0.2501 -0.1067 -0.1326
  654SOL    HW113616   2.557   4.543   3.663 -0.0624 -0.4929  1.6320
  654SOL    HW213617   2.445   4.649   3.717 -0.8647 -0.5082  0.0319
  655SOL     OW13618   7.311   0.657   3.920 -0.4580  0.7730 -0.0333
  655SOL    HW113619   7.254   0.739   3.919 -1.1648  0.2887  0.3455
  655SOL    HW213620   7.356   0.649   4.009 -0.4836  0.6807 -0.0293
  656SOL     OW13621   3.906   0.692   3.419  0.0860 -0.7978  0.6869
  656SOL    HW113622   3.930   0.661   3.327 -1.3532  2.2994 -0.8464
  656SOL    HW213623   3.825   0.644   3.451  0.0933 -1.2879 -0.0301
  657SOL     OW13624   7.685   8.491   5.482  0.0461  0.6745  0.2950
  657SOL    HW113625   7.692   8.391   5.471 -2.9835  0.4193  0.3441
  657SOL    HW213626   7.670   8.512   5.579  1.4934  1.2657  0.4048
  658SOL     OW13627   4.007   1.774   5.639  0.7606 -0.2014  0.1589
  658SOL    HW113628   3.996   1.794   5.736 -3.0887  0.1222 -0.2621
  658SOL    HW213629   3.943   1.831   5.586  1.4960 -1.6940 -2.4179
  659SOL     OW13630   0.497   0.460   6.746 -0.4887 -0.1263  0.5239
  659SOL    HW113631   0.534   0.368   6.733 -0.3168  0.3700 -2.8782
  659SOL    HW213632   0.572   0.527   6.739 -0.9505  0.4244  0.8052
  660SOL     OW13633   5.009   9.039   7.721  0.4313  0.0819  0.0472
  660SOL    HW113634   5.006   9.104   7.645  0.4613 -0.9673 -0.8515
  660SOL    HW213635   4.924   9.046   7.774  0.1215  0.3310 -0.4736
  661SOL     OW13636   9.402   5.670   7.276  0.3836  0.3232  0.0786
  661SOL    HW113637   9.478   5.727   7.247  1.3207 -1.1887 -0.4765
  661SOL    HW213638   9.319   5.696   7.225  0.8123  1.1114 -0.2232
  662SOL     OW13639   4.526   5.682   2.104 -0.3231 -0.2508  0.0345
  662SOL    HW113640   4.492   5.745   2.173 -0.9464 -0.8291  0.2602
  662SOL    HW213641   4.450   5.652   2.046 -0.3275 -1.9867  0.8907
  663SOL     OW13642   7.388   9.677   3.420  0.3365  0.2100 -0.0964
  663SOL    HW113643   7.409   9.587   3.382 -2.0586 -0.2397 -0.4516
  663SOL    HW213644   7.354   9.737   3.348 -0.7736  0.5025  0.6611
  664SOL     OW13645   3.188   1.984   0.936 -0.3821 -0.4396  0.4435
  664SOL    HW113646   3.202   2.000   0.838 -0.2019 -2.3644  0.1321
  664SOL    HW213647   3.161   1.889   0.951 -1.5183  0.1219  2.1711
  665SOL     OW13648   2.590   2.391   0.738 -0.1313 -0.2931  0.2158
  665SOL    HW113649   2.643   2.406   0.820  0.9301 -0.2929 -0.4661
  665SOL    HW213650   2.522   2.319   0.754  0.0448 -0.2600  1.0883
  666SOL     OW13651   3.195   3.444   6.916 -0.3351  0.2558  0.2221
  666SOL    HW113652   3.232   3.509   6.984  0.5843 -0.9093  0.8642
  666SOL    HW213653   3.263   3.372   6.900 -0.9239  0.0251 -1.2756
  667SOL     OW13654   8.097   2.159   6.132 -0.2939 -0.1521 -0.1196
  667SOL    HW113655   8.155   2.166   6.214 -1.1617  0.1300  0.4758
  667SOL    HW213656   8.155   2.162   6.051  0.4719  0.9424  0.4441
  668SOL     OW13657   6.512   3.828   1.411  0.3134  0.3191 -0.0064
  668SOL    HW113658   6.427   3.777   1.425 -0.7780  1.7932 -1.0045
  668SOL    HW213659   6.539   3.873   1.496 -0.1834  0.2262  0.2040
  669SOL     OW13660   3.347   4.747   1.960  0.2993 -0.1435 -0.1260
  669SOL    HW113661   3.388   4.829   2.000  0.8769  0.5051 -2.0181
  669SOL    HW213662   3.419   4.678   1.946  0.1365 -0.2751 -0.3012
  670SOL     OW13663   8.083   9.657   5.596 -0.1764  0.3491  0.2851
  670SOL    HW113664   8.133   9.597   5.533  0.6686 -1.0179  2.2117
  670SOL    HW213665   8.039   9.602   5.667 -3.1615  1.6629 -0.4677
  671SOL     OW13666   2.732   6.198   6.013  0.1677  0.1504 -0.1121
  671SOL    HW113667   2.795   6.122   6.027  2.4584  1.7168 -1.6875
  671SOL    HW213668   2.711   6.241   6.101  0.4702 -0.9950  0.5322
  672SOL     OW13669   2.556   6.297   4.495 -0.4714  0.2466  0.0355
  672SOL    HW113670   2.495   6.290   4.416 -0.7771 -1.8458  0.4371
  672SOL    HW213671   2.559   6.392   4.526 -1.5160  0.8220 -1.5703
  673SOL     OW13672   1.524   5.756   7.516  0.5098 -0.3570  0.1232
  673SOL    HW113673   1.577   5.704   7.449  0.7842 -0.1287  0.1628
  673SOL    HW213674   1.461   5.817   7.467 -0.3242 -1.2407  0.0776
  674SOL     OW13675   9.565   9.848   7.452  0.2027  0.1185  0.0522
  674SOL    HW113676   9.647   9.885   7.497  0.3500  0.0094 -0.1247
  674SOL    HW213677   9.588   9.820   7.359 -0.0374  0.0849  0.0034
  675SOL     OW13678   1.123   7.040   6.385  0.0007 -0.3737 -0.0001
  675SOL    HW113679   1.119   6.976   6.462  1.9496  0.5847  0.9284
  675SOL    HW213680   1.185   7.004   6.316  0.4856  0.1249  0.1732
  676SOL     OW13681   0.675   2.618   6.845 -0.1653  0.0203 -0.4178
  676SOL    HW113682   0.648   2.714   6.855  0.3461 -0.0328  1.7313
  676SOL    HW213683   0.597   2.565   6.811 -0.8187  0.9775 -0.4391
  677SOL     OW13684   0.674   7.445   4.526  0.0444  0.0021  0.1871
  677SOL    HW113685   0.635   7.354   4.540 -0.1156  0.1716  0.8552
  677SOL    HW213686   0.737   7.467   4.601  1.4806 -0.2931 -0.9176
  678SOL     OW13687   9.848   7.020   7.671  0.2862  0.2155 -0.1271
  678SOL    HW113688   9.758   7.003   7.632 -0.6945 -0.2160  2.2216
  678SOL    HW213689   9.856   7.116   7.699  0.2686  0.0834  0.3412
  679SOL     OW13690   8.620   6.710   7.752  0.2885  0.1837 -0.4637
  679SOL    HW113691   8.640   6.621   7.713  1.8361  0.5458 -0.5198
  679SOL    HW213692   8.687   6.732   7.822 -1.6509  0.1498  1.4766
  680SOL     OW13693   9.814   7.114   4.342  0.1044 -0.6081 -0.4161
  680SOL    HW113694   9.777   7.200   4.377 -0.5458 -0.4752 -1.4476
  680SOL    HW213695   9.794   7.041   4.407 -0.5737 -0.2488 -0.2220
  681SOL     OW13696   3.516   0.887   4.410 -0.0539  0.0894 -0.5600
  681SOL    HW113697   3.493   0.803   4.360  0.6650 -0.3179 -0.2187
  681SOL    HW213698   3.436   0.917   4.463 -0.7834  0.4664 -1.8510
  682SOL     OW13699   4.525   8.670   0.332 -0.0244  0.5097 -0.0821
  682SOL    HW113700   4.464   8.706   0.403 -1.3779  1.2172 -1.5690
  682SOL    HW213701   4.501   8.576   0.311  1.1066 -0.0743  1.1728
  683SOL     OW13702   1.493   9.844   6.101 -0.3561  0.2142 -0.3485
  683SOL    HW113703   1.494   9.943   6.087 -1.5458  0.2968  0.0554
  683SOL    HW213704   1.503   9.797   6.013  1.9277  0.6748 -0.3568
  684SOL     OW13705   4.627   2.189   7.923 -0.0784  0.4037 -0.5323
  684SOL    HW113706   4.712   2.137   7.929 -0.6714 -0.8178 -2.1444
  684SOL    HW213707   4.556   2.142   7.975  0.8313  2.8089  3.0212
  685SOL     OW13708   9.371   7.061   6.194 -0.2392  0.0567  0.2344
  685SOL    HW113709   9.412   7.017   6.115 -1.4539  1.1542 -1.0402
  685SOL    HW213710   9.420   7.034   6.277  2.3370  0.4920 -1.0966
  686SOL     OW13711   1.072   3.422   0.876 -0.0356  0.2609 -0.2187
  686SOL    HW113712   1.157   3.370   0.889  0.1825  0.7995  0.5340
  686SOL    HW213713   1.048   3.422   0.779 -0.7863 -2.4050 -0.0827
  687SOL     OW13714   1.967   6.794   5.162  0.2262 -0.1009 -0.1820
  687SOL    HW113715   1.915   6.746   5.232 -0.1874  0.3051 -0.2129
  687SOL    HW213716   2.057   6.751   5.153 -0.9430 -2.3220 -1.8012
  688SOL     OW13717   6.494   8.163   6.590 -0.3524 -0.2742  0.2240
  688SOL    HW113718   6.588   8.130   6.586 -1.4481 -4.1043  3.4803
  688SOL    HW213719   6.480   8.231   6.517  3.5536 -3.1127 -3.4241
  689SOL     OW13720   7.844   6.796   2.599 -0.9598  0.0602  0.5032
  689SOL    HW113721   7.807   6.717   2.551  2.3840 -0.5931 -1.1829
  689SOL    HW213722   7.836   6.877   2.541  0.6014 -0.1816 -0.0764
  690SOL     OW13723   0.810   2.148   5.712 -0.5896  0.4840  0.5567
  690SOL    HW113724   0.799   2.100   5.625 -0.6085  1.4167  0.0335
  690SOL    HW213725   0.730   2.132   5.769 -1.1555  0.8989 -0.1112
  691SOL     OW13726   1.103   6.795   6.998  0.2878  0.2762 -0.5067
  691SOL    HW113727   1.057   6.867   6.946 -0.6886 -0.0892 -0.1503
  691SOL    HW213728   1.175   6.754   6.942  0.8057  1.4759 -0.7418
  692SOL     OW13729   6.094   8.800   5.570 -0.4427 -0.1307 -0.0424
  692SOL    HW113730   6.129   8.755   5.652 -0.8655  0.0875  0.2632
  692SOL    HW213731   5.999   8.770   5.554 -0.6239  0.4137 -0.0097
  693SOL     OW13732   3.261   8.765   0.244  0.2551 -0.6470 -0.3216
  693SOL    HW113733   3.255   8.679   0.294  0.9481  0.3853  1.6254
  693SOL    HW213734   3.319   8.753   0.163  0.3080 -2.0106 -0.0921
  694SOL     OW13735   3.834   1.211   3.988 -0.1130 -0.1504 -0.1130
  694SOL    HW113736   3.812   1.135   3.927 -0.6982 -1.0788  1.2154
  694SOL    HW213737   3.765   1.216   4.060 -0.0422  1.6150 -0.1412
  695SOL     OW13738   2.910   8.158   2.931  0.0922  0.2651  0.8932
  695SOL    HW113739   2.861   8.082   2.974  1.4559 -0.2768  1.5133
  695SOL    HW213740   2.879   8.245   2.971 -2.6105  0.2096 -0.9029
  696SOL     OW13741   4.577   1.825   3.157  0.2485 -0.3544  0.3185
  696SOL    HW113742   4.500   1.809   3.219  0.5612 -1.7874  0.3474
  696SOL    HW213743   4.658   1.777   3.191  0.4154 -1.2096 -1.2246
  697SOL     OW13744   1.001   5.653   0.107  0.4934 -0.1405 -0.4198
  697SOL    HW113745   1.058   5.728   0.070  0.3054 -0.1676 -0.7695
  697SOL    HW213746   1.047   5.566   0.090  0.0896 -0.2084 -1.2098
  698SOL     OW13747   0.721   8.348   4.671  0.1504 -0.8433 -0.1242
  698SOL    HW113748   0.736   8.250   4.661 -0.8114 -0.8150 -2.0181
  698SOL    HW213749   0.747   8.376   4.764  0.8296 -2.7928  0.3042
  699SOL     OW13750   9.783   3.880   0.150 -0.0053 -0.2465 -0.5244
  699SOL    HW113751   9.709   3.857   0.212 -0.5487  1.9860 -0.2890
  699SOL    HW213752   9.852   3.934   0.198  1.4295 -1.7125 -0.9157
  700SOL     OW13753   9.305   4.876   0.334  0.2527 -0.2042 -0.0167
  700SOL    HW113754   9.207   4.856   0.336  0.6384 -2.1158  1.8842
  700SOL    HW213755   9.347   4.828   0.257  0.0797 -1.5264  0.6808
  701SOL     OW13756   4.098   1.837   5.263  0.2786  0.5378  0.1405
  701SOL    HW113757   4.035   1.912   5.283 -2.0816 -1.3243 -0.1209
  701SOL    HW213758   4.118   1.835   5.165  1.5905  1.7324  0.3569
  702SOL     OW13759   1.169   1.773   5.295 -0.0387 -0.1383 -0.0443
  702SOL    HW113760   1.175   1.861   5.342 -1.4552 -0.3145  0.4912
  702SOL    HW213761   1.105   1.780   5.219 -0.4752 -0.8241  0.2581
  703SOL     OW13762   7.648   5.438   0.560  0.2954  0.0355 -0.0754
  703SOL    HW113763   7.673   5.404   0.469 -0.7401  1.4343 -0.9004
  703SOL    HW213764   7.702   5.520   0.580 -2.6667  2.3919 -1.3744
  704SOL     OW13765   2.762   4.087   1.597  0.4516  0.4167  0.4182
  704SOL    HW113766   2.708   4.020   1.647  1.3016  0.5016  1.4905
  704SOL    HW213767   2.847   4.045   1.565 -0.5771  0.0704 -1.9421
  705SOL     OW13768   1.883   8.614   3.777  0.6216 -0.1201  0.1915
  705SOL    HW113769   1.839   8.625   3.688  0.8489 -0.0411  0.0907
  705SOL    HW213770   1.914   8.702   3.811 -0.2394 -0.0207  0.7464
  706SOL     OW13771   2.946   5.856   3.888 -0.5167  0.1143  0.1294
  706SOL    HW113772   2.936   5.921   3.813 -2.6030  1.6239  1.6720
  706SOL    HW213773   3.014   5.891   3.953 -0.5584  0.0401  0.2124
  707SOL     OW13774   6.598   9.797   4.522 -0.3716  0.3562  0.3943
  707SOL    HW113775   6.669   9.866   4.539  0.0428 -0.7119  3.3605
  707SOL    HW213776   6.641   9.708   4.504 -0.9143 -0.1732  1.6424
  708SOL     OW13777   4.250   2.030   4.806  0.3555 -0.3700 -0.1744
  708SOL    HW113778   4.217   2.074   4.890  1.6529 -0.6533  0.4896
  708SOL    HW213779   4.272   1.935   4.824  0.6106 -0.4427 -0.8563
  709SOL     OW13780   3.661   9.601   1.999 -0.2168  0.4326 -0.2210
  709SOL    HW113781   3.595   9.676   1.992 -0.6915  0.3599  2.6178
  709SOL    HW213782   3.753   9.637   1.983 -0.6330  1.1844 -1.0043
  710SOL     OW13783   2.926   0.825   6.707  0.0590  0.3708  0.0759
  710SOL    HW113784   3.013   0.776   6.701 -0.0523 -0.0937  1.8693
  710SOL    HW213785   2.851   0.764   6.681  0.1014  0.1656  0.4266
  711SOL     OW13786   3.316   8.902   3.851  0.0894  0.0075  0.4501
  711SOL    HW113787   3.379   8.965   3.896  0.5765 -0.6873  0.7580
  711SOL    HW213788   3.262   8.854   3.920 -0.3290  0.1397  0.2160
  712SOL     OW13789   0.581   8.138   1.665  0.6374 -0.4363 -0.3009
  712SOL    HW113790   0.499   8.082   1.667  1.4117 -1.5844  0.2034
  712SOL    HW213791   0.568   8.217   1.605 -0.4112 -1.2416 -1.1202
  713SOL     OW13792   0.732   4.129   7.315  0.0719  0.8920  0.1754
  713SOL    HW113793   0.637   4.136   7.346 -0.3224 -1.0977 -0.4922
  713SOL    HW213794   0.779   4.215   7.333 -1.7348  1.7641  0.9155
  714SOL     OW13795   8.439   2.366   4.780  0.3605 -0.1303  0.3553
  714SOL    HW113796   8.424   2.448   4.724 -2.2049  1.4430  3.2407
  714SOL    HW213797   8.412   2.285   4.728  0.7973  1.0342 -1.7330
  715SOL     OW13798   5.302   2.879   1.170  0.1740 -0.2191 -0.3983
  715SOL    HW113799   5.370   2.857   1.240  0.4988 -0.0391 -0.6598
  715SOL    HW213800   5.297   2.804   1.104 -0.0208 -0.3182 -0.2718
  716SOL     OW13801   1.046   8.131   7.297 -0.3538  0.4308  0.3182
  716SOL    HW113802   1.072   8.056   7.236  0.7237  0.4335  0.7742
  716SOL    HW213803   0.954   8.114   7.333 -0.8016  0.1848 -0.9193
  717SOL     OW13804   4.777   7.777   5.402 -0.4940 -0.2538  0.2117
  717SOL    HW113805   4.791   7.870   5.367  1.4662 -0.2430  0.9393
  717SOL    HW213806   4.694   7.738   5.363 -2.4184  2.5266  1.3936
  718SOL     OW13807   1.540   9.671   4.202  0.2372 -0.0196  0.4831
  718SOL    HW113808   1.496   9.591   4.162  1.8124 -0.2787 -0.8252
  718SOL    HW213809   1.583   9.646   4.289  1.5889 -0.8822 -0.4082
  719SOL     OW13810   3.268   4.785   1.675 -0.1343  0.4162  0.1966
  719SOL    HW113811   3.266   4.778   1.775 -0.2164 -1.2063  0.1000
  719SOL    HW213812   3.244   4.696   1.635 -0.6796  1.2048 -1.2690
  720SOL     OW13813   3.719   3.441   2.473 -0.2104  0.1770  0.4530
  720SOL    HW113814   3.752   3.399   2.558 -0.2106  1.4926  1.1217
  720SOL    HW213815   3.772   3.406   2.396  1.5306  0.8689  1.2954
  721SOL     OW13816   6.454   0.488   3.897  0.4946  0.4073 -0.0327
  721SOL    HW113817   6.410   0.514   3.811  0.8357 -0.3161 -0.4252
  721SOL    HW213818   6.550   0.513   3.895  0.6776 -0.2997 -0.1610
  722SOL     OW13819   1.040   7.619   0.097  0.1495  0.3559  0.2892
  722SOL    HW113820   1.041   7.574   0.008 -0.2726 -0.0936  0.5073
  722SOL    HW213821   1.002   7.557   0.166  1.8313  0.1769  1.0800
  723SOL     OW13822   8.708   7.872   2.129  0.0995  0.2086  0.2353
  723SOL    HW113823   8.746   7.851   2.218  0.1675  0.8366  0.3592
  723SOL    HW213824   8.662   7.961   2.133 -1.0206 -0.3516 -0.0145
  724SOL     OW13825   7.803   1.625   1.476  0.3415  0.2495  0.4048
  724SOL    HW113826   7.818   1.696   1.407 -2.5960 -1.2732 -1.9299
  724SOL    HW213827   7.706   1.622   1.501  1.0192 -0.6133  3.1305
  725SOL     OW13828   4.165   2.421   8.075 -0.3586  0.1430 -0.0418
  725SOL    HW113829   4.136   2.415   8.171  1.3716 -0.7705  0.4421
  725SOL    HW213830   4.255   2.378   8.064 -0.1405  1.0137 -1.9174
  726SOL     OW13831   3.982   9.425   2.541  0.1762 -0.6120  0.0911
  726SOL    HW113832   3.950   9.396   2.632 -0.2364 -1.9096 -0.4563
  726SOL    HW213833   4.077   9.397   2.529  0.2743 -0.3152  0.1778
  727SOL     OW13834   0.197   4.804   0.215  0.3385 -0.0333  0.1044
  727SOL    HW113835   0.194   4.708   0.187  0.3835  0.9054 -3.3876
  727SOL    HW213836   0.113   4.849   0.186  0.4502  1.0789  1.4696
  728SOL     OW13837   2.334   7.727   6.788  0.4201  0.1943  0.0399
  728SOL    HW113838   2.355   7.658   6.719  0.8056 -0.2969  0.6454
  728SOL    HW213839   2.241   7.760   6.775  0.6981  0.5828 -1.1242
  729SOL     OW13840   6.371   6.141   1.727 -0.3514 -0.3546 -0.4165
  729SOL    HW113841   6.458   6.174   1.693 -0.6619 -0.5113 -1.3779
  729SOL    HW213842   6.370   6.146   1.827  0.8322 -0.5519 -0.3909
  730SOL     OW13843   5.117   1.263   7.741  0.1209  0.5051  0.2009
  730SOL    HW113844   5.214   1.282   7.724 -0.0068  1.0517  0.0815
  730SOL    HW213845   5.096   1.281   7.837 -0.2024  1.8724 -0.1076
  731SOL     OW13846   7.180   2.727   5.034  0.2439  0.5137 -0.1922
  731SOL    HW113847   7.276   2.701   5.043 -0.4866 -2.6541 -1.0176
  731SOL    HW213848   7.171   2.795   4.961  1.7834  0.2923 -0.6145
  732SOL     OW13849   2.778   9.495   8.072 -0.1761  0.5220  0.1205
  732SOL    HW113850   2.802   9.506   8.169  1.0022  0.1122 -0.1242
  732SOL    HW213851   2.731   9.577   8.040 -1.7973  0.1222  1.3981
  733SOL     OW13852   1.201   6.364   4.822  0.4437 -0.0894  1.1052
  733SOL    HW113853   1.290   6.319   4.812 -0.3677 -1.6152  0.7021
  733SOL    HW213854   1.174   6.404   4.735 -1.8672 -4.5611 -0.4070
  734SOL     OW13855   7.406   0.545   1.280  0.1562  0.3374  0.2728
  734SOL    HW113856   7.411   0.446   1.265  1.6987  0.2689  1.0723
  734SOL    HW213857   7.345   0.564   1.356  1.4872 -0.1638  1.4822
  735SOL     OW13858   8.367   8.659   7.089 -0.2807  0.2102  0.3848
  735SOL    HW113859   8.399   8.746   7.126  0.5192 -0.3099  0.9334
  735SOL    HW213860   8.318   8.675   7.003  0.0405  1.1781  0.3794
  736SOL     OW13861   6.397   4.930   1.803 -0.1782  0.2258 -0.3595
  736SOL    HW113862   6.461   5.006   1.814 -1.1708  0.7725  1.8632
  736SOL    HW213863   6.367   4.925   1.708 -0.0853  2.6004 -0.5452
  737SOL     OW13864   8.958   2.584   2.514 -0.4176  0.4350 -0.0458
  737SOL    HW113865   8.953   2.589   2.415 -0.3298  1.1094 -0.0187
  737SOL    HW213866   9.039   2.532   2.541 -1.4040 -1.3016 -0.3435
  738SOL     OW13867   5.663   4.806   8.110 -0.2949  0.4250  0.7863
  738SOL    HW113868   5.700   4.867   8.039  0.5271 -0.4898  0.4194
  738SOL    HW213869   5.567   4.786   8.089  0.0750 -0.2337 -0.3590
  739SOL     OW13870   8.177   7.084   2.049  0.2398  0.2823  0.0166
  739SOL    HW113871   8.230   7.020   1.993  0.2015 -0.3316  0.6730
  739SOL    HW213872   8.221   7.095   2.138 -0.1294  0.6384  0.1608
  740SOL     OW13873   6.587   0.086   4.100  0.1353 -0.1872  0.2974
  740SOL    HW113874   6.534   0.128   4.027 -0.5033 -0.6734  0.4723
  740SOL    HW213875   6.626   0.157   4.158  4.0885  0.3330 -2.8645
  741SOL     OW13876   8.235   7.943   6.128 -0.0594 -0.0416 -0.0480
  741SOL    HW113877   8.186   8.028   6.148  0.6772  0.2466  0.5445
  741SOL    HW213878   8.293   7.956   6.047  1.6946  0.6994  1.2832
  742SOL     OW13879   4.576   8.983   4.625  0.4991 -0.4213 -0.2941
  742SOL    HW113880   4.537   8.912   4.684 -1.7779  1.3031  0.3159
  742SOL    HW213881   4.584   9.069   4.675 -0.2735  0.7352 -2.0964
  743SOL     OW13882   3.590   8.458   1.623 -0.1707 -0.5145  0.8709
  743SOL    HW113883   3.600   8.548   1.665 -0.6920  0.7376 -1.6565
  743SOL    HW213884   3.680   8.416   1.613  0.2663  0.5408  0.3045
  744SOL     OW13885   9.685   4.466   3.831  0.3156 -0.3355 -0.2973
  744SOL    HW113886   9.744   4.447   3.910  1.4077  0.1254 -0.9887
  744SOL    HW213887   9.620   4.391   3.818 -1.9795  0.9767  2.9221
  745SOL     OW13888   6.699   5.058   7.646  0.2344 -0.5912 -0.1397
  745SOL    HW113889   6.790   5.071   7.686  0.1225  0.2949 -0.1544
  745SOL    HW213890   6.681   5.132   7.581 -0.7417 -0.4286  0.3167
  746SOL     OW13891   9.507   3.115   1.133 -0.1513 -0.5752 -0.2740
  746SOL    HW113892   9.439   3.128   1.205 -1.0685 -0.4992 -1.1436
  746SOL    HW213893   9.530   3.018   1.126 -0.3545 -0.6327 -0.1425
  747SOL     OW13894   3.370   2.817   1.312  0.2970  0.1712  0.0606
  747SOL    HW113895   3.277   2.799   1.345  0.5037 -0.4815  0.3078
  747SOL    HW213896   3.373   2.905   1.267 -0.8127 -0.4981 -1.3587
  748SOL     OW13897   9.752   9.352   7.239 -0.2784  0.1633  0.1706
  748SOL    HW113898   9.809   9.425   7.201  0.5661 -0.3528  0.4360
  748SOL    HW213899   9.662   9.355   7.195 -0.1283  1.1159 -0.1030
  749SOL     OW13900   4.683   2.329   1.673  0.2668 -0.2903 -0.7300
  749SOL    HW113901   4.678   2.232   1.699 -0.1702 -0.2051 -0.4907
  749SOL    HW213902   4.679   2.337   1.573 -1.8360 -0.3941 -0.6658
  750SOL     OW13903   8.896   6.474   4.901  0.4360  0.3060 -0.3615
  750SOL    HW113904   8.878   6.442   4.808 -1.4429  1.9788 -0.6008
  750SOL    HW213905   8.829   6.434   4.963  2.2221 -1.5102  0.4593
  751SOL     OW13906   1.681   5.450   2.357  0.2267  0.3108 -0.2039
  751SOL    HW113907   1.645   5.357   2.357  1.0965 -0.0220  0.0284
  751SOL    HW213908   1.655   5.495   2.271 -0.3109 -0.0959 -0.2564
  752SOL     OW13909   2.708   9.445   5.542  0.4599 -0.1922 -0.6779
  752SOL    HW113910   2.704   9.368   5.605  1.4225 -1.3329 -1.9931
  752SOL    HW213911   2.796   9.444   5.494 -0.4018  0.4699 -2.2809
  753SOL     OW13912   3.375   7.447   3.361 -0.2334 -0.0499 -0.4150
  753SOL    HW113913   3.444   7.499   3.311 -1.0293  1.2234 -0.2310
  753SOL    HW213914   3.290   7.447   3.308 -0.6739  0.1244  0.2905
  754SOL     OW13915   5.384   0.498   1.933  0.3078  0.1439  0.9449
  754SOL    HW113916   5.335   0.413   1.951 -0.3452 -0.5288 -3.4741
  754SOL    HW213917   5.478   0.490   1.969 -0.4824 -1.4536  2.7469
  755SOL     OW13918   8.030   2.769   6.294 -0.0587 -0.2201  0.1385
  755SOL    HW113919   7.940   2.807   6.275  1.3663  2.1036 -2.2125
  755SOL    HW213920   8.037   2.678   6.254 -1.1562 -0.1704 -0.1751
  756SOL     OW13921   4.100   0.369   2.989  0.0455  0.3264 -0.1456
  756SOL    HW113922   4.117   0.278   2.951  1.0081  0.5406 -0.2302
  756SOL    HW213923   4.001   0.385   2.993 -0.0950 -0.1722 -1.4254
  757SOL     OW13924   8.058   1.863   7.387  0.0993  0.5735 -0.3630
  757SOL    HW113925   8.121   1.892   7.314  0.0619  1.3049 -0.1031
  757SOL    HW213926   8.004   1.941   7.417  1.5653  0.7609  1.9029
  758SOL     OW13927   4.870   3.611   5.766  0.1000 -0.1971  0.1710
  758SOL    HW113928   4.848   3.612   5.668 -0.9458 -0.0704  0.4040
  758SOL    HW213929   4.907   3.700   5.792 -1.2632  0.3517  0.2531
  759SOL     OW13930   5.003   9.233   5.692 -0.5243 -0.2682 -0.0739
  759SOL    HW113931   4.976   9.323   5.660 -0.9680 -1.0373 -1.9561
  759SOL    HW213932   5.088   9.240   5.744  0.1726  1.0626 -1.3512
  760SOL     OW13933   2.538   3.210   4.985  0.1554 -0.0474  0.1168
  760SOL    HW113934   2.447   3.169   4.995  0.0835 -0.0941 -0.7059
  760SOL    HW213935   2.592   3.191   5.067 -0.6255  0.1133  0.6821
  761SOL     OW13936   3.701   7.480   0.450 -0.2841  0.1433  0.4727
  761SOL    HW113937   3.730   7.575   0.437 -0.4519  0.1721  0.3109
  761SOL    HW213938   3.613   7.477   0.496 -0.3332  0.0670  0.3731
  762SOL     OW13939   2.013   1.815   8.148  0.5590 -0.2184 -0.1396
  762SOL    HW113940   2.080   1.741   8.155  1.6246  0.8655  1.6794
  762SOL    HW213941   2.055   1.894   8.103  1.2865  1.2378  2.9176
  763SOL     OW13942   3.585   8.865   6.249  0.3578 -0.4214 -0.0986
  763SOL    HW113943   3.622   8.889   6.339  0.7663  0.8636 -0.5935
  763SOL    HW213944   3.608   8.770   6.227  0.5436 -0.6359  1.0122
  764SOL     OW13945   2.803   0.163   1.783  0.0926 -0.0584  0.4729
  764SOL    HW113946   2.781   0.216   1.866 -0.2437 -0.9829  0.9787
  764SOL    HW213947   2.784   0.067   1.799 -0.9610 -0.1206 -1.0327
  765SOL     OW13948   8.860   5.301   0.902  0.8370  0.0420  0.3402
  765SOL    HW113949   8.867   5.281   0.804  0.3637  1.3497  0.0160
  765SOL    HW213950   8.942   5.351   0.931 -0.3871  2.4379 -0.1375
  766SOL     OW13951   6.736   8.200   4.958  0.2296 -0.9516 -0.1039
  766SOL    HW113952   6.802   8.149   5.014 -0.9929 -0.0834  2.1799
  766SOL    HW213953   6.645   8.189   4.996 -0.4666  0.6152 -1.2828
  767SOL     OW13954   3.245   1.635   7.349  0.0951 -0.3041 -0.7623
  767SOL    HW113955   3.182   1.689   7.293  0.9631 -0.7788 -2.1939
  767SOL    HW213956   3.195   1.598   7.428 -0.8497  1.3311 -0.5645
  768SOL     OW13957   1.326   1.086   7.034 -0.6806  0.0719  0.2193
  768SOL    HW113958   1.380   1.128   6.961 -3.5295 -1.3440 -2.9035
  768SOL    HW213959   1.340   0.987   7.032 -0.3191  0.0832  2.0251
  769SOL     OW13960   1.396   1.243   4.191  0.3972 -0.1601 -0.2649
  769SOL    HW113961   1.301   1.214   4.204  0.4382 -0.2504 -0.1618
  769SOL    HW213962   1.416   1.319   4.253  0.7026 -0.8367  0.4795
  770SOL     OW13963   2.304   1.622   5.305  0.2014  0.5301 -0.7422
  770SOL    HW113964   2.328   1.659   5.215  1.2949  0.8920 -0.3108
  770SOL    HW213965   2.263   1.531   5.294 -0.9827  1.1664 -1.6974
  771SOL     OW13966   1.274   5.879   0.573  0.2130  0.0432  0.2754
  771SOL    HW113967   1.263   5.793   0.623  2.6055 -0.8898 -0.7354
  771SOL    HW213968   1.186   5.908   0.537 -0.0773 -4.0405 -2.7010
  772SOL     OW13969   7.429   3.338   3.411 -0.1117 -0.1203 -0.6039
  772SOL    HW113970   7.343   3.294   3.388 -0.6534  1.1768 -1.1476
  772SOL    HW213971   7.505   3.275   3.395 -0.8828 -0.9503 -1.0168
  773SOL     OW13972   9.205   0.760   1.588  0.1383  0.1646  0.6373
  773SOL    HW113973   9.126   0.702   1.564 -0.1970  0.6994  0.4448
  773SOL    HW213974   9.185   0.811   1.671  0.3859  0.0985  0.7374
  774SOL     OW13975   9.631   5.219   6.085  0.5283  0.4680 -0.2069
  774SOL    HW113976   9.569   5.254   6.014  0.3817 -1.2875 -0.9579
  774SOL    HW213977   9.604   5.258   6.173 -1.7496 -0.3696 -0.4974
  775SOL     OW13978   7.799   6.028   1.371 -0.2175 -0.0988 -0.4959
  775SOL    HW113979   7.883   5.974   1.372 -1.2615 -1.7434 -0.3862
  775SOL    HW213980   7.816   6.116   1.326  0.8659 -1.5524 -2.9882
  776SOL     OW13981   6.979   0.822   2.429 -0.4507 -0.1456 -0.4801
  776SOL    HW113982   6.960   0.842   2.333  0.0055 -0.1997 -0.5842
  776SOL    HW213983   6.924   0.881   2.487 -0.3269  0.2688 -0.7798
  777SOL     OW13984   8.330   2.073   1.900 -0.0904  0.5739 -0.7515
  777SOL    HW113985   8.419   2.077   1.945  0.0880 -0.1348 -1.0245
  777SOL    HW213986   8.338   2.021   1.815 -0.7154  0.7001 -0.8941
  778SOL     OW13987   0.864   7.344   4.351  0.6210 -0.0862  0.2787
  778SOL    HW113988   0.804   7.406   4.401  0.9027  1.9112 -1.7144
  778SOL    HW213989   0.956   7.383   4.348  1.0073 -1.0184 -0.2858
  779SOL     OW13990   9.715   5.714   0.642  0.5485 -0.1305 -0.1426
  779SOL    HW113991   9.633   5.771   0.635  0.3700 -0.7019 -3.5383
  779SOL    HW213992   9.795   5.774   0.654  0.1314  0.7394 -1.5543
  780SOL     OW13993   0.795   7.106   5.414 -0.1984  0.1335 -0.5316
  780SOL    HW113994   0.888   7.103   5.377  0.5542 -2.3338  1.4649
  780SOL    HW213995   0.741   7.032   5.374 -0.5516 -0.0592  0.3035
  781SOL     OW13996   7.564   3.544   2.209  0.3621  0.2972  0.4225
  781SOL    HW113997   7.613   3.464   2.175  3.4157  2.2675  0.0172
  781SOL    HW213998   7.535   3.601   2.132 -0.4434  0.3630  0.7697
  782SOL     OW13999   1.047   1.068   1.787 -0.1259 -0.6716 -0.5098
  782SOL    HW114000   0.957   1.036   1.758  0.2983 -0.7579 -1.7847
  782SOL    HW214001   1.082   1.132   1.718  1.0081 -1.0462 -0.2794
  783SOL     OW14002   2.579   5.967   5.418  0.3838  0.1411  0.3340
  783SOL    HW114003   2.676   5.991   5.417  0.2972  0.6885  2.4699
  783SOL    HW214004   2.542   5.983   5.509 -1.9602  0.9081 -0.7153
  784SOL     OW14005   5.899   7.518   2.807  0.0244  0.1198 -0.0636
  784SOL    HW114006   5.859   7.437   2.763  0.2478  0.0813 -0.1963
  784SOL    HW214007   5.911   7.590   2.739  0.3502  0.0673 -0.0617
  785SOL     OW14008   5.756   8.222   2.240  0.1179 -0.1459  0.2305
  785SOL    HW114009   5.782   8.188   2.330 -1.0590  0.7829  0.9415
  785SOL    HW214010   5.672   8.276   2.248  1.8374  2.8169 -0.8445
  786SOL     OW14011   4.658   8.285   1.367  0.0747 -0.4049 -0.2042
  786SOL    HW114012   4.574   8.249   1.408  0.9702 -1.4022  0.7795
  786SOL    HW214013   4.671   8.246   1.276 -0.8469  0.2321 -0.6141
  787SOL     OW14014   4.328   0.735   0.491 -0.4338  0.0816 -0.0713
  787SOL    HW114015   4.318   0.655   0.432 -1.9117 -0.8898  1.4656
  787SOL    HW214016   4.364   0.707   0.580 -0.3355  1.2328  0.2644
  788SOL     OW14017   7.379   7.705   4.308 -0.6294  0.4081  0.0792
  788SOL    HW114018   7.448   7.754   4.255 -0.7221 -0.1756 -0.6024
  788SOL    HW214019   7.419   7.623   4.348 -0.2697  1.4527  1.8923
  789SOL     OW14020   2.579   4.806   6.544  0.4879  0.2055 -0.4859
  789SOL    HW114021   2.572   4.739   6.470  0.7904  0.2584 -0.5607
  789SOL    HW214022   2.503   4.871   6.536 -0.7678 -1.0954  0.5608
  790SOL     OW14023   2.347   3.410   1.336 -0.0819  0.4490  0.0300
  790SOL    HW114024   2.362   3.501   1.297  1.0742  0.4943  0.5402
  790SOL    HW214025   2.254   3.403   1.371 -0.4477  1.1406 -0.7961
  791SOL     OW14026   2.083   7.852   4.492 -0.2423 -0.3406 -0.0918
  791SOL    HW114027   2.055   7.788   4.421 -0.5384 -2.7944  2.1489
  791SOL    HW214028   2.018   7.849   4.568  0.4614  1.6668  0.6499
  792SOL     OW14029   1.702   6.801   7.147  0.5201  0.0475 -0.7954
  792SOL    HW114030   1.689   6.899   7.135  0.3171  0.0857 -0.2687
  792SOL    HW214031   1.684   6.776   7.242 -0.1377 -0.6182 -1.0897
  793SOL     OW14032   6.943   4.571   7.675  0.3910  0.7516  0.8517
  793SOL    HW114033   6.986   4.580   7.585  1.0641  2.8202  1.3505
  793SOL    HW214034   7.007   4.601   7.746 -1.0488  1.6900  1.7950
  794SOL     OW14035   3.506   9.755   3.102 -0.0782 -0.7924 -0.7196
  794SOL    HW114036   3.414   9.792   3.089  0.2824 -0.1548 -1.5587
  794SOL    HW214037   3.561   9.777   3.021  0.9841 -0.6455  0.0487
  795SOL     OW14038   9.900   3.674   2.052  0.7458  0.4829  0.0609
  795SOL    HW114039   9.996   3.683   2.076  1.0361  0.7838 -1.1819
  795SOL    HW214040   9.844   3.722   2.120  1.5601  1.4912  0.0268
  796SOL     OW14041   1.705   2.036   2.243 -0.8480  0.4957  0.3643
  796SOL    HW114042   1.778   2.092   2.284  1.3856 -0.6548 -1.9006
  796SOL    HW214043   1.657   1.986   2.316  0.1149  1.8411  1.9755
  797SOL     OW14044   4.726   2.432   7.823  0.1503 -0.5332  0.4404
  797SOL    HW114045   4.686   2.346   7.852 -0.7902  0.0068  0.7629
  797SOL    HW214046   4.706   2.448   7.726  0.5968 -0.8189  0.2965
  798SOL     OW14047   2.757   2.609   0.951 -0.5968  0.0162 -0.3757
  798SOL    HW114048   2.832   2.543   0.946  0.4577  1.2283 -1.2386
  798SOL    HW214049   2.784   2.684   1.011 -2.0420 -0.6448  1.1207
  799SOL     OW14050   5.905   5.939   1.655 -0.2935  0.0789  0.0348
  799SOL    HW114051   5.927   5.967   1.562 -1.6347 -1.0816 -0.6589
  799SOL    HW214052   5.965   5.865   1.683 -0.9679 -0.6956 -0.5374
  800SOL     OW14053   4.302   0.022   2.485  0.0135  0.3830 -0.6212
  800SOL    HW114054   4.208   0.006   2.513 -0.2918 -2.6337 -3.1362
  800SOL    HW214055   4.304   0.094   2.415 -0.4683  0.3134 -0.7097
  801SOL     OW14056   9.243   9.900   8.140 -0.0994  0.5755  0.4413
  801SOL    HW114057   9.260   9.873   8.235 -1.8667 -2.0914  0.0683
  801SOL    HW214058   9.208   9.993   8.138 -0.2674  0.5896  2.4197
  802SOL     OW14059   2.132   1.543   6.248  0.0905 -0.3476  0.1726
  802SOL    HW114060   2.125   1.463   6.307  0.3044 -1.0337 -0.7173
  802SOL    HW214061   2.152   1.513   6.154  1.8081  0.8184  0.1348
  803SOL     OW14062   3.528   2.718   1.867  0.0136  0.1944  0.0021
  803SOL    HW114063   3.527   2.675   1.777 -0.4901  2.4054 -1.0844
  803SOL    HW214064   3.464   2.671   1.927 -0.6416 -0.4611 -1.1926
  804SOL     OW14065   4.608   0.086   7.885 -0.2122  0.2689 -0.4080
  804SOL    HW114066   4.622   0.183   7.908 -0.9133  0.5687 -1.2170
  804SOL    HW214067   4.542   0.046   7.949  1.2287 -0.0845  0.8816
  805SOL     OW14068   2.247   8.124   5.696  0.2621  0.0040  0.1480
  805SOL    HW114069   2.347   8.121   5.691  0.1969 -0.5702 -0.7848
  805SOL    HW214070   2.208   8.130   5.604 -0.5585  0.5701  0.5224
  806SOL     OW14071   8.802   0.420   3.707  0.5836  0.2228  0.2157
  806SOL    HW114072   8.782   0.423   3.610  0.1315 -1.6451  0.2336
  806SOL    HW214073   8.874   0.486   3.729 -2.0862  3.4917 -0.6740
  807SOL     OW14074   7.936   7.842   3.062 -0.0421 -0.7149 -0.0432
  807SOL    HW114075   7.837   7.853   3.056 -0.3186 -1.8499  1.9227
  807SOL    HW214076   7.979   7.932   3.069 -0.8364 -0.1684 -1.8802
  808SOL     OW14077   5.077   2.956   1.302  0.0750 -0.1075  0.6195
  808SOL    HW114078   5.138   2.905   1.241  0.6425  1.4680 -0.1417
  808SOL    HW214079   5.118   2.962   1.393  0.5970  0.1065  0.3687
  809SOL     OW14080   5.601   3.720   0.593 -0.3806 -0.0740 -0.2421
  809SOL    HW114081   5.680   3.661   0.608  0.2017 -0.1429 -3.4128
  809SOL    HW214082   5.602   3.794   0.661  1.6354 -0.8624  0.6260
  810SOL     OW14083   3.576   4.775   5.278 -0.4177 -0.1763  0.1418
  810SOL    HW114084   3.540   4.784   5.371 -0.3910  0.2564  0.1149
  810SOL    HW214085   3.594   4.679   5.258  1.8740 -0.0722  1.4595
  811SOL     OW14086   6.264   9.524   4.193  0.3514 -0.1635 -0.1632
  811SOL    HW114087   6.246   9.515   4.291  0.4823  1.7041  0.0578
  811SOL    HW214088   6.352   9.569   4.180 -0.5528  1.3835 -1.0933
  812SOL     OW14089   3.717   9.492   3.473 -0.1228 -0.1166  0.0959
  812SOL    HW114090   3.707   9.500   3.374  1.2008  0.5499 -0.0067
  812SOL    HW214091   3.640   9.536   3.519 -0.3348  0.2768 -0.6327
  813SOL     OW14092   0.319   8.106   6.888  0.6144 -0.0909  0.6669
  813SOL    HW114093   0.256   8.110   6.810  1.8547 -0.0739 -0.3393
  813SOL    HW214094   0.401   8.159   6.867  1.0534 -0.2755  1.9079
  814SOL     OW14095   5.300   4.259   0.399 -0.2824  0.2414 -0.3751
  814SOL    HW114096   5.368   4.270   0.472  0.8586 -2.0070 -1.0425
  814SOL    HW214097   5.322   4.320   0.323 -0.7765  1.7161  0.6442
  815SOL     OW14098   7.610   3.278   0.633  0.4800 -0.1237 -0.2937
  815SOL    HW114099   7.594   3.375   0.612 -0.4816 -0.2891 -0.3355
  815SOL    HW214100   7.649   3.233   0.553  0.0041  0.0044 -0.5963
  816SOL     OW14101   7.997   3.256   2.985 -0.1424 -0.4261 -0.3314
  816SOL    HW114102   7.915   3.240   2.930  0.7947 -0.6084 -1.7103
  816SOL    HW214103   8.065   3.305   2.930 -0.1767  1.7708  1.5201
  817SOL     OW14104   0.227   6.634   2.627  0.0767  0.1131 -1.2453
  817SOL    HW114105   0.266   6.552   2.584  0.8704  0.2179 -0.7187
  817SOL    HW214106   0.129   6.638   2.606 -0.1199 -1.3557 -0.6813
  818SOL     OW14107   8.436   3.922   3.769 -0.4412 -0.5820  0.0408
  818SOL    HW114108   8.455   3.920   3.867  0.3016 -1.3337 -0.1103
  818SOL    HW214109   8.377   4.000   3.748  0.8490  0.6351  0.8332
  819SOL     OW14110   9.333   4.477   1.535  0.0835 -0.0502  0.4162
  819SOL    HW114111   9.378   4.450   1.620 -0.1209  0.4800  0.6947
  819SOL    HW214112   9.237   4.500   1.553 -0.7525 -2.7493 -0.4439
  820SOL     OW14113   5.437   0.952   7.303  0.1224 -0.1480  0.8315
  820SOL    HW114114   5.408   0.923   7.212  3.0329 -1.3895  0.2587
  820SOL    HW214115   5.492   1.035   7.296  1.1192 -0.7518  1.3346
  821SOL     OW14116   3.081   3.552   4.809  0.3227  0.1681 -0.2855
  821SOL    HW114117   3.055   3.550   4.905 -0.2224 -1.1133 -0.4397
  821SOL    HW214118   3.024   3.619   4.761  1.0519  1.2910  0.3929
  822SOL     OW14119   9.845   3.908   1.174 -0.0311 -0.3573  0.2298
  822SOL    HW114120   9.865   3.816   1.141 -0.6693  0.1720 -1.7015
  822SOL    HW214121   9.917   3.937   1.237  1.0652 -1.5329 -0.4486
  823SOL     OW14122   4.489   2.361   0.499  0.3918 -0.7713  0.7392
  823SOL    HW114123   4.513   2.455   0.473 -0.9728 -0.2148  1.4748
  823SOL    HW214124   4.542   2.297   0.443  1.6490  0.4311  0.5268
  824SOL     OW14125   2.565   1.249   1.079 -0.5382 -0.3502 -0.3127
  824SOL    HW114126   2.602   1.328   1.128  0.0153 -1.2111  0.6799
  824SOL    HW214127   2.539   1.276   0.987 -2.1278  1.4434  0.6332
  825SOL     OW14128   5.127   0.115   4.834 -0.0561 -0.0588  0.2414
  825SOL    HW114129   5.110   0.208   4.802  1.2167  0.4191  0.8692
  825SOL    HW214130   5.096   0.106   4.929  0.1576 -0.1639  0.3022
  826SOL     OW14131   0.807   1.279   1.650  0.0692  0.2033 -0.4490
  826SOL    HW114132   0.742   1.269   1.726  1.4014 -1.4814  0.5064
  826SOL    HW214133   0.847   1.371   1.652 -0.4074  0.4015  0.4894
  827SOL     OW14134   9.757   7.906   2.401 -0.4589  0.3131 -0.2041
  827SOL    HW114135   9.663   7.874   2.413 -0.4080  0.0267 -0.5667
  827SOL    HW214136   9.821   7.840   2.441 -0.4193  0.6049  0.2238
  828SOL     OW14137   6.490   6.459   1.218 -0.4730 -0.0278 -0.2848
  828SOL    HW114138   6.458   6.377   1.266 -0.5258  0.2756  0.1966
  828SOL    HW214139   6.520   6.527   1.285 -0.4073  0.3393 -0.6889
  829SOL     OW14140   9.398   5.108   4.600  0.0327 -0.4053  0.5128
  829SOL    HW114141   9.434   5.200   4.614  0.9027 -1.0113  2.5545
  829SOL    HW214142   9.340   5.083   4.678 -0.0956 -1.6039  0.0463
  830SOL     OW14143   8.947   7.948   5.922 -0.1781 -0.0491  0.1635
  830SOL    HW114144   9.013   7.892   5.871  1.1471  1.7333 -0.1412
  830SOL    HW214145   8.876   7.981   5.860 -1.0671 -1.5257  0.3809
  831SOL     OW14146   1.488   7.708   5.810 -0.2626  0.6721  0.0948
  831SOL    HW114147   1.541   7.688   5.727  0.2440  1.4878  0.2098
  831SOL    HW214148   1.422   7.780   5.790 -0.2688  0.7369  0.3505
  832SOL     OW14149   5.590   8.108   2.919  0.1891  0.0610 -0.0864
  832SOL    HW114150   5.615   8.029   2.863  0.9200 -0.8219  1.4476
  832SOL    HW214151   5.491   8.121   2.916 -0.0431 -1.5370  0.4462
  833SOL     OW14152   6.544   7.102   4.371 -0.6176 -0.3105 -0.0043
  833SOL    HW114153   6.553   7.016   4.422 -1.0301 -1.2968 -1.5614
  833SOL    HW214154   6.448   7.125   4.361 -0.5170  0.1801  0.1365
  834SOL     OW14155   2.279   1.796   2.944  0.4558  0.4617 -0.5946
  834SOL    HW114156   2.359   1.834   2.991 -0.5029  1.1542  0.5020
  834SOL    HW214157   2.197   1.814   2.997 -0.6451  1.0785 -2.4392
  835SOL     OW14158   7.579   0.138   6.422 -0.4000  0.3571 -0.2126
  835SOL    HW114159   7.570   0.236   6.440  0.6105  0.5336 -0.6469
  835SOL    HW214160   7.550   0.118   6.328 -0.7819  0.2018 -0.0664
  836SOL     OW14161   0.613   7.671   5.433 -0.6458  0.1609  0.4584
  836SOL    HW114162   0.696   7.649   5.484 -0.3527  1.5739  0.6113
  836SOL    HW214163   0.578   7.760   5.462 -1.1474  0.4415 -0.9412
  837SOL     OW14164   6.999   5.571   2.004  0.2348 -0.4802  0.0878
  837SOL    HW114165   6.991   5.667   1.977  2.0057 -0.3477  0.0061
  837SOL    HW214166   6.984   5.513   1.924  0.3456 -0.2302 -0.1162
  838SOL     OW14167   3.463   5.022   0.255  0.4229 -0.4096  0.1960
  838SOL    HW114168   3.466   4.922   0.249 -0.2519 -0.4305  0.1873
  838SOL    HW214169   3.381   5.055   0.209  1.7425  0.2948 -1.7397
  839SOL     OW14170   0.972   2.329   0.483 -0.0460 -0.0354 -0.3166
  839SOL    HW114171   1.026   2.335   0.567  0.0482 -0.5973 -0.3344
  839SOL    HW214172   1.030   2.349   0.405 -0.4784  1.9558 -0.1402
  840SOL     OW14173   7.807   2.176   3.135 -0.1457  0.2185  0.6396
  840SOL    HW114174   7.764   2.220   3.056  0.6034  0.0047  0.1142
  840SOL    HW214175   7.874   2.238   3.175 -1.3040  0.7636  1.7876
  841SOL     OW14176   0.616   9.112   0.665 -0.3484 -0.2763  0.7966
  841SOL    HW114177   0.670   9.036   0.629  0.0622  0.1441  0.5120
  841SOL    HW214178   0.519   9.092   0.655 -0.2452 -0.1514 -0.5990
  842SOL     OW14179   3.108   9.038   6.584 -0.2435 -0.2897 -0.8573
  842SOL    HW114180   3.037   9.012   6.649  0.8485 -0.1398  0.4273
  842SOL    HW214181   3.148   8.956   6.543  0.1196 -0.4588 -0.1754
  843SOL     OW14182   3.657   7.589   6.386 -0.1944  0.2579 -0.3834
  843SOL    HW114183   3.620   7.527   6.316 -0.1543  1.0480 -1.1133
  843SOL    HW214184   3.699   7.535   6.459 -0.5757 -0.5884 -0.7734
  844SOL     OW14185   6.193   8.925   1.958  0.0919 -0.2113  0.3285
  844SOL    HW114186   6.101   8.902   1.989  0.2328 -3.8619 -1.7944
  844SOL    HW214187   6.260   8.894   2.026 -0.0534 -0.6412  0.2749
  845SOL     OW14188   3.011   4.354   6.970  0.6451 -0.1013 -0.1434
  845SOL    HW114189   2.955   4.271   6.963  1.8881 -0.7932 -2.7319
  845SOL    HW214190   2.965   4.430   6.925  0.7618 -0.1046 -0.2695
  846SOL     OW14191   8.912   1.615   2.085 -0.4029 -0.0524 -0.2042
  846SOL    HW114192   8.867   1.605   2.174 -0.8115 -0.5486 -0.4658
  846SOL    HW214193   9.006   1.648   2.099  0.0460 -1.5496  0.5164
  847SOL     OW14194   3.590   3.765   1.636 -0.1058 -0.1578  0.5291
  847SOL    HW114195   3.569   3.760   1.539  1.4638  1.7730  0.0629
  847SOL    HW214196   3.641   3.684   1.664  0.4094 -0.1946 -0.4990
  848SOL     OW14197   9.555   2.197   7.215 -0.1928 -0.3949  0.6712
  848SOL    HW114198   9.616   2.192   7.295  0.1949  0.6292  0.4535
  848SOL    HW214199   9.610   2.192   7.132 -0.5257 -0.6861  0.4685
  849SOL     OW14200   8.016   9.650   7.735  0.2051  0.1932  0.4483
  849SOL    HW114201   8.001   9.676   7.639  0.4766 -0.3246  0.2666
  849SOL    HW214202   8.109   9.676   7.762 -0.7838  2.9144  1.4197
  850SOL     OW14203   1.921   8.344   7.710  0.3999  0.0325  0.4331
  850SOL    HW114204   1.996   8.299   7.759  1.4925 -0.4067 -1.5874
  850SOL    HW214205   1.943   8.441   7.699 -0.5024  0.4421  2.0057
  851SOL     OW14206   8.719   1.796   4.645 -0.5961 -0.3992  0.2658
  851SOL    HW114207   8.768   1.862   4.702  1.1036  0.6258 -2.2732
  851SOL    HW214208   8.781   1.761   4.574 -2.9224 -0.8217 -1.6007
  852SOL     OW14209   2.229   9.368   1.679  0.0919 -0.0768  0.0451
  852SOL    HW114210   2.293   9.359   1.602  2.1908 -0.7507  1.8061
  852SOL    HW214211   2.143   9.322   1.656  0.6963 -0.3133 -1.8823
  853SOL     OW14212   9.274   9.776   6.495  0.5489  0.2726 -0.3295
  853SOL    HW114213   9.198   9.840   6.484  1.3290  1.1902 -0.3850
  853SOL    HW214214   9.342   9.815   6.557 -0.0785 -1.4930  1.5725
  854SOL     OW14215   6.795   9.750   3.849 -0.1327  0.7085  0.1374
  854SOL    HW114216   6.895   9.753   3.846 -0.0869 -0.0545  0.7870
  854SOL    HW214217   6.763   9.663   3.812 -0.5736  1.1060 -0.4182
  855SOL     OW14218   8.717   5.791   8.198 -0.0388  0.2950 -0.4041
  855SOL    HW114219   8.620   5.791   8.176 -0.2117 -0.4705  0.3666
  855SOL    HW214220   8.765   5.853   8.135 -1.0998  1.1331 -0.4051
  856SOL     OW14221   9.597   0.110   5.508 -0.0088 -0.2903 -0.1227
  856SOL    HW114222   9.498   0.098   5.507 -0.2202  1.2864  1.4499
  856SOL    HW214223   9.619   0.207   5.500  1.4053 -0.5983 -0.0390
  857SOL     OW14224   3.037   6.359   1.077  0.0274  0.7706 -0.3938
  857SOL    HW114225   3.063   6.388   0.985 -0.1587 -2.0728 -1.3961
  857SOL    HW214226   2.938   6.371   1.088 -0.0562  0.4802 -0.8123
  858SOL     OW14227   0.205   9.625   0.596  0.3913 -0.6868 -0.3604
  858SOL    HW114228   0.281   9.588   0.650  1.1777  0.2624 -0.7994
  858SOL    HW214229   0.240   9.694   0.532 -0.6551 -1.1999 -1.4963
  859SOL     OW14230   2.885   5.267   4.742  0.7222 -0.3279 -0.1188
  859SOL    HW114231   2.823   5.263   4.821  1.2147 -3.5221  0.1467
  859SOL    HW214232   2.971   5.310   4.771  1.0171 -1.7459  1.2113
  860SOL     OW14233   2.695   1.129   8.047 -0.2716  0.3727  0.0339
  860SOL    HW114234   2.716   1.047   8.101 -1.7719 -0.2413 -0.3053
  860SOL    HW214235   2.714   1.112   7.951 -1.5212  0.0806 -0.1703
  861SOL     OW14236   8.671   9.339   5.847 -0.1337  0.2645  0.2294
  861SOL    HW114237   8.613   9.269   5.887  0.1822 -0.5109 -0.6537
  861SOL    HW214238   8.615   9.412   5.809 -0.5551 -0.7162 -1.0523
  862SOL     OW14239   5.725   8.881   2.817  0.1958 -0.1769  0.7903
  862SOL    HW114240   5.738   8.850   2.723  2.9567  1.1405  0.6713
  862SOL    HW214241   5.684   8.973   2.817  0.7912  0.0948  0.8243
  863SOL     OW14242   3.684   4.449   7.186  0.3377  1.0395  0.3021
  863SOL    HW114243   3.639   4.416   7.269  1.3301 -1.4614 -0.1136
  863SOL    HW214244   3.784   4.442   7.197  0.4586 -2.4869 -2.2875
  864SOL     OW14245   6.642   9.141   4.827  0.2327  0.0201 -0.0700
  864SOL    HW114246   6.578   9.088   4.882  1.5538 -0.7467  0.7451
  864SOL    HW214247   6.684   9.082   4.758  2.0800 -0.1489  1.1594
  865SOL     OW14248   3.208   0.677   7.697  0.2368 -0.0774 -0.1270
  865SOL    HW114249   3.181   0.730   7.777  1.1957  0.3477 -0.0738
  865SOL    HW214250   3.291   0.717   7.657  0.7260 -1.2651 -0.3446
  866SOL     OW14251   5.293   5.110   1.342 -0.4049  0.0217 -0.0146
  866SOL    HW114252   5.379   5.066   1.367 -0.8433 -0.4243  0.7190
  866SOL    HW214253   5.216   5.054   1.374 -0.9852 -0.2648 -1.8136
  867SOL     OW14254   0.737   1.132   3.516  0.5447 -0.4202 -0.1669
  867SOL    HW114255   0.760   1.108   3.422  1.1316  1.6462 -0.5897
  867SOL    HW214256   0.638   1.126   3.529  0.2914  0.8574 -1.4065
  868SOL     OW14257   5.631   6.940   5.360 -0.2382  0.0974 -0.8447
  868SOL    HW114258   5.731   6.940   5.354 -0.1268  0.7195  0.6924
  868SOL    HW214259   5.604   6.889   5.442 -1.1627  0.2877 -1.0365
  869SOL     OW14260   4.592   5.074   8.103 -0.3594 -0.2219 -0.2116
  869SOL    HW114261   4.648   5.047   8.182  1.7253 -0.8296 -1.8645
  869SOL    HW214262   4.561   5.168   8.116  0.9207  0.0779  0.8172
  870SOL     OW14263   4.821   0.262   1.519 -0.2404 -0.6997 -0.2326
  870SOL    HW114264   4.748   0.265   1.587 -1.2025  0.0144 -1.2697
  870SOL    HW214265   4.853   0.355   1.501  0.2831 -0.9245 -0.4625
  871SOL     OW14266   3.920   0.583   7.537 -0.3081  0.2866 -0.3382
  871SOL    HW114267   3.870   0.563   7.452  0.5128 -1.5929 -0.3933
  871SOL    HW214268   3.977   0.505   7.561  0.8244  1.5052  1.0027
  872SOL     OW14269   9.079   5.623   0.658  0.5146  0.1061  0.4622
  872SOL    HW114270   9.056   5.549   0.594  0.2516  0.9811 -0.4734
  872SOL    HW214271   8.995   5.660   0.698  0.4274  1.6396 -1.0698
  873SOL     OW14272   2.580   7.608   1.403  0.3860 -0.0222  0.3611
  873SOL    HW114273   2.642   7.669   1.452 -0.4560  0.0717  1.3300
  873SOL    HW214274   2.508   7.577   1.465 -0.1485 -0.6716 -0.5695
  874SOL     OW14275   0.528   6.945   6.504 -0.4153 -0.1734  0.1612
  874SOL    HW114276   0.621   6.971   6.477 -0.5316  0.9838  0.8182
  874SOL    HW214277   0.463   6.990   6.443 -0.5795  0.1537  0.5701
  875SOL     OW14278   2.510   8.209   1.913  0.0670 -0.2552 -0.2004
  875SOL    HW114279   2.579   8.245   1.850  2.4657  0.9639  3.0135
  875SOL    HW214280   2.444   8.280   1.936 -0.3856 -0.4949 -0.7403
  876SOL     OW14281   6.881   5.064   8.060  0.1634 -0.3401  0.2394
  876SOL    HW114282   6.790   5.073   8.101 -0.5159  0.8281 -1.4507
  876SOL    HW214283   6.920   4.975   8.082 -1.8938 -1.3081  0.0039
  877SOL     OW14284   1.364   9.437   4.557  0.2360 -0.4695  0.0413
  877SOL    HW114285   1.356   9.342   4.587 -0.0692 -0.9449 -1.5028
  877SOL    HW214286   1.447   9.447   4.502  1.2194  0.5721  1.6587
  878SOL     OW14287   4.610   7.085   3.341 -0.2652 -0.3845 -0.0055
  878SOL    HW114288   4.520   7.093   3.384  0.2909 -1.2901  1.3773
  878SOL    HW214289   4.670   7.158   3.374  0.6433 -1.9896  2.0519
  879SOL     OW14290   3.098   7.043   3.744  0.4509  0.0833 -0.0022
  879SOL    HW114291   3.069   6.948   3.753  0.5264  0.0441 -0.1542
  879SOL    HW214292   3.020   7.100   3.716 -0.1283  0.4585  2.3191
  880SOL     OW14293   5.458   2.658   0.662  0.5542  0.3714  0.0976
  880SOL    HW114294   5.460   2.639   0.760 -0.0058  2.5766  0.5605
  880SOL    HW214295   5.367   2.692   0.637  0.2053 -1.6210 -1.5006
  881SOL     OW14296   9.773   8.693   5.930  0.8013 -0.6318  0.1200
  881SOL    HW114297   9.847   8.626   5.930  1.0038 -0.4104  0.3090
  881SOL    HW214298   9.688   8.649   5.958  0.7474 -1.0090 -0.6407
  882SOL     OW14299   8.235   6.520   5.523  0.1946 -0.3171 -0.2635
  882SOL    HW114300   8.176   6.506   5.444  2.0880 -1.0615 -1.5637
  882SOL    HW214301   8.249   6.433   5.570 -1.2221  0.1799  1.1481
  883SOL     OW14302   0.547   1.369   4.923  0.4656 -0.1284 -0.6739
  883SOL    HW114303   0.467   1.316   4.895  1.4785 -1.8634 -0.4102
  883SOL    HW214304   0.527   1.467   4.919 -2.3855 -0.5817  1.5405
  884SOL     OW14305   5.789   8.891   4.234 -0.4123 -0.0949 -0.3664
  884SOL    HW114306   5.832   8.939   4.158 -1.8916  0.7292 -0.6990
  884SOL    HW214307   5.779   8.953   4.312  0.6480 -0.7981  0.3514
  885SOL     OW14308   4.262   6.685   0.543  0.2666  0.1666 -0.1907
  885SOL    HW114309   4.329   6.616   0.570  0.5107  1.0798  1.6370
  885SOL    HW214310   4.249   6.682   0.444 -0.9026 -3.5151  0.0123
  886SOL     OW14311   3.773   5.551   2.189  0.2782 -0.3808 -0.0886
  886SOL    HW114312   3.826   5.481   2.238 -0.2532 -0.6993  0.0406
  886SOL    HW214313   3.808   5.560   2.095  0.3108 -0.8594 -0.1223
  887SOL     OW14314   2.716   0.423   5.052 -0.5541  0.2418  0.3172
  887SOL    HW114315   2.665   0.338   5.043 -0.6678  0.3496 -0.0485
  887SOL    HW214316   2.702   0.460   5.144 -1.2265  0.3303  0.1842
  888SOL     OW14317   2.364   8.759   6.944  0.4862  0.8838 -0.1583
  888SOL    HW114318   2.394   8.844   6.987  0.0798  1.2555 -0.6071
  888SOL    HW214319   2.288   8.720   6.996  0.3496  1.0495 -0.2375
  889SOL     OW14320   6.622   5.418   0.040  0.2877  0.7145  0.4210
  889SOL    HW114321   6.681   5.350   0.084 -0.7321 -1.2427 -1.1493
  889SOL    HW214322   6.668   5.454  -0.041  0.0333  0.4884  0.1781
  890SOL     OW14323   1.909   9.657   3.599  0.3834  0.8516  0.5794
  890SOL    HW114324   1.903   9.606   3.685 -1.8692 -0.6723 -0.4386
  890SOL    HW214325   1.953   9.601   3.529  0.0867  1.2023  0.1058
  891SOL     OW14326   6.788   8.127   5.391 -0.1543  0.0105 -0.2823
  891SOL    HW114327   6.812   8.093   5.483 -1.6277 -2.2579 -0.6812
  891SOL    HW214328   6.712   8.191   5.398 -1.6045 -1.6948 -0.0588
  892SOL     OW14329   7.960   2.717   0.219  0.0484 -0.3843  0.2909
  892SOL    HW114330   7.964   2.719   0.319  1.6405  1.6492  0.2283
  892SOL    HW214331   7.936   2.808   0.186 -3.6880 -1.7593 -1.1229
  893SOL     OW14332   4.639   3.164   6.275  0.3377  0.1022  0.9490
  893SOL    HW114333   4.552   3.119   6.294  0.2770 -0.2369 -0.0623
  893SOL    HW214334   4.684   3.188   6.361 -0.5719 -0.0651  1.4816
  894SOL     OW14335   7.795   3.906   3.501  0.0950 -0.6211  0.6420
  894SOL    HW114336   7.810   3.944   3.410 -1.2736 -0.2885  0.5434
  894SOL    HW214337   7.803   3.807   3.498 -0.5973 -0.6583  0.0293
  895SOL     OW14338   3.287   0.894   2.392  0.1257  0.1257 -0.3298
  895SOL    HW114339   3.356   0.831   2.358 -0.2277 -0.1245 -0.5918
  895SOL    HW214340   3.272   0.878   2.490  1.2392  0.9364 -0.0275
  896SOL     OW14341   7.182   4.961   1.376 -0.0334 -0.2495  0.1161
  896SOL    HW114342   7.205   5.051   1.414 -0.4255  0.0477 -0.3389
  896SOL    HW214343   7.089   4.963   1.341 -0.4531 -1.1874  1.1479
  897SOL     OW14344   0.063   6.945   7.829  0.3161  0.0007  0.2510
  897SOL    HW114345   0.091   6.862   7.780  1.4725  1.1418 -1.0776
  897SOL    HW214346  -0.016   6.986   7.783  1.4679  1.1318 -0.7722
  898SOL     OW14347   0.581   3.636   6.903  0.1758 -0.0979 -0.0392
  898SOL    HW114348   0.612   3.681   6.820 -0.3625 -0.6421 -0.5471
  898SOL    HW214349   0.502   3.684   6.940  1.2554  0.9506  0.9341
  899SOL     OW14350   4.029   3.309   1.884 -0.1657 -0.1596 -0.9321
  899SOL    HW114351   3.950   3.264   1.927 -0.3337  0.8308 -0.1985
  899SOL    HW214352   4.112   3.284   1.934 -0.0497 -0.9160 -1.4891
  900SOL     OW14353   0.735   6.123   7.482  0.7900  0.2753  0.0223
  900SOL    HW114354   0.752   6.095   7.387 -0.2120  1.2629 -0.4573
  900SOL    HW214355   0.787   6.064   7.544 -0.4827 -1.9860 -1.0057
  901SOL     OW14356   3.442   0.226   8.067 -0.3004  0.3371 -0.3665
  901SOL    HW114357   3.462   0.244   8.163 -1.8839  1.1064 -0.1648
  901SOL    HW214358   3.426   0.313   8.020  0.2494 -0.0479 -1.2769
  902SOL     OW14359   1.242   0.399   6.068  0.3527  0.0375 -0.2758
  902SOL    HW114360   1.202   0.463   6.133 -1.2295 -1.7288  0.5545
  902SOL    HW214361   1.173   0.374   6.000  1.2027 -0.1311 -1.0842
  903SOL     OW14362   1.333   6.120   1.333  0.3468  0.1414 -0.4467
  903SOL    HW114363   1.341   6.028   1.294  0.4356 -0.1349  0.2137
  903SOL    HW214364   1.370   6.120   1.426  0.2357  0.8194 -0.3997
  904SOL     OW14365   2.363   7.533   3.469 -0.1037 -0.2032 -0.0116
  904SOL    HW114366   2.438   7.520   3.405 -0.1891 -0.3608 -0.0791
  904SOL    HW214367   2.373   7.622   3.514  0.2252 -0.3050  0.1176
  905SOL     OW14368   2.201   8.032   3.104 -0.8726  0.4782 -0.3246
  905SOL    HW114369   2.204   8.111   3.165  1.1293  0.7088 -0.6894
  905SOL    HW214370   2.188   8.064   3.010  0.4858  0.4214 -0.5381
  906SOL     OW14371   6.420   2.465   0.001  0.0794  0.3452 -0.0757
  906SOL    HW114372   6.459   2.389  -0.052 -0.6327  0.3408 -0.5975
  906SOL    HW214373   6.486   2.495   0.070  0.3197 -0.8214  0.2037
  907SOL     OW14374   7.063   1.727   0.193  0.3610 -0.2223  0.1346
  907SOL    HW114375   7.048   1.789   0.116 -0.3170 -1.3726 -0.6893
  907SOL    HW214376   7.030   1.769   0.277  3.3329  2.0672  0.2454
  908SOL     OW14377   3.287   2.140   4.643  0.1999 -0.0463 -0.1076
  908SOL    HW114378   3.309   2.076   4.569  0.6527 -0.8847  0.7528
  908SOL    HW214379   3.354   2.214   4.643 -0.2569  0.3805 -1.0279
  909SOL     OW14380   1.772   1.252   0.261 -0.1718  0.4088 -0.1575
  909SOL    HW114381   1.793   1.288   0.170  0.5136 -2.8409 -1.3420
  909SOL    HW214382   1.678   1.217   0.262 -0.1439  0.3455  0.3742
  910SOL     OW14383   7.286   7.189   5.889  0.7060  0.8934  0.5988
  910SOL    HW114384   7.193   7.225   5.875  0.5274  0.9175  1.7689
  910SOL    HW214385   7.323   7.158   5.802 -0.7851 -0.0196  0.2634
  911SOL     OW14386   9.127   7.861   7.137  0.5557 -0.6444  0.2682
  911SOL    HW114387   9.131   7.951   7.181  1.9638  0.0956 -1.2651
  911SOL    HW214388   9.191   7.799   7.182 -0.5045 -0.9154  1.4061
  912SOL     OW14389   2.238   4.361   0.201  0.4877  0.1322  0.2854
  912SOL    HW114390   2.307   4.314   0.147 -1.0106 -0.1324 -1.4296
  912SOL    HW214391   2.169   4.401   0.141  0.2501  2.1748  1.8619
  913SOL     OW14392   9.195   8.529   7.437  0.0211 -0.3693 -0.3233
  913SOL    HW114393   9.282   8.566   7.403 -0.1755 -0.1036 -0.5376
  913SOL    HW214394   9.203   8.430   7.448 -0.2115 -0.5834 -2.0269
  914SOL     OW14395   9.416   1.680   0.438 -0.1958 -0.1848 -0.3704
  914SOL    HW114396   9.376   1.674   0.347 -2.8526 -0.0147  0.7159
  914SOL    HW214397   9.498   1.737   0.435  0.3453 -1.0386 -2.8099
  915SOL     OW14398   1.360   7.870   4.505  0.0429  0.7730  0.2723
  915SOL    HW114399   1.400   7.829   4.423 -1.6351 -0.6919  0.1600
  915SOL    HW214400   1.387   7.818   4.586 -1.6159 -0.2848  0.1870
  916SOL     OW14401   1.620   9.552   6.589 -0.0105 -0.0595 -0.4772
  916SOL    HW114402   1.666   9.641   6.584  1.2034 -0.6699 -0.2392
  916SOL    HW214403   1.682   9.484   6.626 -1.2255 -0.8310  0.1896
  917SOL     OW14404   8.135   1.225   3.334  0.1641  0.2600 -0.8257
  917SOL    HW114405   8.078   1.188   3.260  1.5722 -0.1769 -1.7190
  917SOL    HW214406   8.130   1.325   3.332 -0.3799  0.2338 -1.0392
  918SOL     OW14407   7.751   3.636   0.373 -0.1999 -0.4767  0.2937
  918SOL    HW114408   7.714   3.712   0.319 -1.2668 -0.7028  0.6910
  918SOL    HW214409   7.805   3.576   0.313  1.0729  0.8565  0.0851
  919SOL     OW14410   7.136   9.528   2.803  0.3819 -0.1082 -0.3640
  919SOL    HW114411   7.160   9.444   2.850 -0.6216  0.0560  0.4716
  919SOL    HW214412   7.154   9.606   2.862 -0.9019  0.1016 -0.2238
  920SOL     OW14413   1.517   0.902   7.260  0.5053  0.3201 -0.7806
  920SOL    HW114414   1.597   0.842   7.255  1.0857  1.1941 -2.2631
  920SOL    HW214415   1.490   0.913   7.356  0.7157 -1.8569 -0.4306
  921SOL     OW14416   0.626   6.550   7.947 -0.5920  0.1075  0.0269
  921SOL    HW114417   0.676   6.559   8.033  0.8563  0.3919 -0.8365
  921SOL    HW214418   0.646   6.627   7.887 -3.1824  0.9835  0.2067
  922SOL     OW14419   2.755   6.053   1.989 -0.2701 -0.4409 -0.9938
  922SOL    HW114420   2.779   5.959   1.965 -0.8381 -0.8476  0.0015
  922SOL    HW214421   2.833   6.095   2.036 -0.0033 -0.4023 -1.4684
  923SOL     OW14422   4.469   3.280   7.636  0.5007 -0.0597  0.4234
  923SOL    HW114423   4.505   3.373   7.643  1.0212 -0.1378 -0.9962
  923SOL    HW214424   4.523   3.219   7.694  1.1800  0.2406  0.1134
  924SOL     OW14425   9.477   9.304   1.299 -0.2174  0.4686 -0.4331
  924SOL    HW114426   9.385   9.335   1.326  0.4494  1.3448  0.9001
  924SOL    HW214427   9.519   9.257   1.376  1.1826  1.7586 -0.3927
  925SOL     OW14428   9.582   3.619   1.482  0.0037 -0.0869  0.1247
  925SOL    HW114429   9.567   3.687   1.409  1.5870  0.7251  0.5523
  925SOL    HW214430   9.534   3.648   1.565 -0.4054 -0.1637 -0.0818
  926SOL     OW14431   6.441   4.809   0.896  0.0658 -0.3910  0.2191
  926SOL    HW114432   6.539   4.791   0.899 -0.1500 -1.5976  0.0704
  926SOL    HW214433   6.396   4.742   0.836 -0.4183  2.0223 -2.2085
  927SOL     OW14434   8.619   8.421   1.930  0.0377 -0.6501  0.1023
  927SOL    HW114435   8.521   8.407   1.942 -0.0089 -0.3860  0.0287
  927SOL    HW214436   8.635   8.506   1.881  0.3078 -0.6124  0.2538
  928SOL     OW14437   4.091   3.791   6.265 -0.6700  0.2880 -0.1807
  928SOL    HW114438   4.005   3.842   6.263 -0.1639  1.2294  1.5677
  928SOL    HW214439   4.100   3.745   6.354  1.0074  0.8192 -0.0742
  929SOL     OW14440   0.288   4.359   4.102 -0.3911 -0.0572 -0.1915
  929SOL    HW114441   0.310   4.266   4.132 -1.0027 -0.0105  0.4030
  929SOL    HW214442   0.285   4.419   4.182 -0.2250  0.4302 -0.5542
  930SOL     OW14443   2.506   9.104   2.879 -0.3539  0.2234  0.1323
  930SOL    HW114444   2.489   9.022   2.824  2.0932 -0.0315 -0.3082
  930SOL    HW214445   2.557   9.170   2.824  0.5520  0.7059  1.5399
  931SOL     OW14446   4.780   9.642   7.538  0.3845 -0.1815  0.2203
  931SOL    HW114447   4.729   9.705   7.479 -1.0766  1.7186  3.3529
  931SOL    HW214448   4.730   9.555   7.544 -1.2055  0.7702  1.2329
  932SOL     OW14449   0.475   9.708   3.052 -0.1500  0.0775 -0.5333
  932SOL    HW114450   0.414   9.630   3.045 -0.9139  0.5479  0.7684
  932SOL    HW214451   0.438   9.774   3.118  0.4862  1.5233 -1.5842
  933SOL     OW14452   7.169   7.234   3.373  0.2447 -0.4646  0.1814
  933SOL    HW114453   7.248   7.207   3.428  1.1915 -0.5261 -1.1961
  933SOL    HW214454   7.163   7.177   3.292 -1.9752 -1.3183  0.8880
  934SOL     OW14455   2.421   7.140   5.425 -0.0599  0.2297  0.5072
  934SOL    HW114456   2.481   7.136   5.505 -0.4112  0.7647  0.8001
  934SOL    HW214457   2.334   7.182   5.451  0.0524  0.9710 -0.2962
  935SOL     OW14458   8.360   1.447   4.456 -0.1525 -0.0358 -0.4975
  935SOL    HW114459   8.407   1.463   4.543  0.5099 -2.6098 -0.3434
  935SOL    HW214460   8.268   1.411   4.474  0.0359 -0.7028 -0.8316
  936SOL     OW14461   9.695   3.856   7.925 -0.7152  0.4720  0.4581
  936SOL    HW114462   9.604   3.898   7.921 -1.5252 -1.3402 -0.7886
  936SOL    HW214463   9.701   3.799   8.007  0.1031  2.3164  1.7210
  937SOL     OW14464   2.484   0.015   6.926  0.7505 -0.3669 -0.2163
  937SOL    HW114465   2.467   0.084   6.996 -0.0826 -0.4526 -0.3278
  937SOL    HW214466   2.531  -0.063   6.966  1.3757  0.1101 -0.0129
  938SOL     OW14467   1.594   0.270   7.139  0.6095 -0.5272  0.2908
  938SOL    HW114468   1.595   0.315   7.229 -0.8762 -0.8282  0.4719
  938SOL    HW214469   1.576   0.173   7.151  2.1673 -0.8882 -0.2212
  939SOL     OW14470   5.578   4.432   7.856 -0.4039 -0.3348  0.2968
  939SOL    HW114471   5.548   4.361   7.920 -2.6644 -0.8967 -1.3075
  939SOL    HW214472   5.548   4.408   7.764 -0.5354  2.3388 -0.3973
  940SOL     OW14473   6.197   1.103   7.816  0.1965 -0.2732 -0.1829
  940SOL    HW114474   6.247   1.100   7.903 -1.9927 -0.5211  1.1194
  940SOL    HW214475   6.146   1.017   7.805  2.3406 -1.2464 -2.8934
  941SOL     OW14476   8.273   5.780   6.772 -0.1214  0.2052 -0.0130
  941SOL    HW114477   8.349   5.840   6.749 -1.2577  0.8248 -2.2981
  941SOL    HW214478   8.301   5.685   6.763 -0.3874  0.4145 -3.7430
  942SOL     OW14479   1.731   9.750   3.397 -0.5050  0.2275  0.1270
  942SOL    HW114480   1.633   9.753   3.420 -0.3678  1.1809  0.6002
  942SOL    HW214481   1.785   9.757   3.480 -0.0223  1.3478 -0.2752
  943SOL     OW14482   3.212   8.433   1.351 -0.5372  0.1250  0.1438
  943SOL    HW114483   3.199   8.520   1.398 -2.3402 -0.3101  0.4689
  943SOL    HW214484   3.143   8.423   1.279 -0.0343 -0.8098 -0.2214
  944SOL     OW14485   0.599   4.261   5.962 -0.1794  0.4302 -0.1852
  944SOL    HW114486   0.658   4.287   5.886 -0.5092  0.8344 -0.3058
  944SOL    HW214487   0.510   4.307   5.953 -0.8169 -0.8196 -0.4648
  945SOL     OW14488   1.950   4.414   1.619 -0.0764 -0.0144  0.6927
  945SOL    HW114489   1.910   4.477   1.686 -1.8112  0.0349 -0.3667
  945SOL    HW214490   2.004   4.466   1.553 -0.9365  0.3047  0.2294
  946SOL     OW14491   8.161   4.197   2.914  0.1691 -0.0592 -0.1165
  946SOL    HW114492   8.074   4.191   2.864 -0.4834 -0.5031  1.0658
  946SOL    HW214493   8.211   4.110   2.903 -1.1009 -1.0809  2.0451
  947SOL     OW14494   7.407   3.859   3.410  0.1938  0.2705 -0.7454
  947SOL    HW114495   7.459   3.895   3.488 -1.8706 -0.4946  1.0232
  947SOL    HW214496   7.394   3.761   3.421 -0.3747  0.2028 -1.9411
  948SOL     OW14497   4.322   7.919   3.012 -0.0285 -0.5594 -0.4153
  948SOL    HW114498   4.422   7.917   3.004  0.0166  0.6033 -0.2222
  948SOL    HW214499   4.287   8.006   2.978 -0.9399 -0.7742 -0.0549
  949SOL     OW14500   5.823   4.230   0.055  0.2600  0.4491  0.4919
  949SOL    HW114501   5.867   4.260  -0.030 -2.1261 -0.9353 -1.2735
  949SOL    HW214502   5.848   4.293   0.129  1.5018  2.3092 -1.4461
  950SOL     OW14503   1.989   5.098   2.652  0.0843 -0.2668 -0.3755
  950SOL    HW114504   1.922   5.170   2.669  0.8576  0.5739 -0.8056
  950SOL    HW214505   1.946   5.008   2.661 -0.4905  0.1976  1.9443
  951SOL     OW14506   3.952   7.436   1.467  0.2313 -0.0269  0.0721
  951SOL    HW114507   3.968   7.341   1.493 -0.0063  0.0137  0.3853
  951SOL    HW214508   3.954   7.493   1.550 -0.2816  0.1450 -0.0321
  952SOL     OW14509   3.431   9.831   4.723 -0.3672  0.7832  0.1370
  952SOL    HW114510   3.515   9.783   4.697  0.0655  1.9837 -0.7867
  952SOL    HW214511   3.358   9.807   4.659 -0.2577  1.0425 -0.0878
  953SOL     OW14512   2.902   0.224   0.538  0.4747  0.1246  0.5838
  953SOL    HW114513   2.983   0.172   0.565  0.3923 -0.2218  0.1774
  953SOL    HW214514   2.820   0.182   0.577  0.5897  1.1845  2.0124
  954SOL     OW14515   4.736   1.144   1.110  0.1768 -0.5229  0.0638
  954SOL    HW114516   4.670   1.216   1.133  0.8191  0.1111 -0.0754
  954SOL    HW214517   4.758   1.091   1.192 -1.2444 -1.3633 -0.0768
  955SOL     OW14518   1.198   3.310   1.754  0.0116  0.3472  0.0057
  955SOL    HW114519   1.118   3.251   1.766  0.3378 -0.3615 -1.1536
  955SOL    HW214520   1.228   3.344   1.843 -1.4737  0.4946  0.4675
  956SOL     OW14521   6.473   3.113   0.769  0.0395 -0.5845 -0.6677
  956SOL    HW114522   6.423   3.071   0.693 -3.7173 -0.1139  1.4684
  956SOL    HW214523   6.476   3.212   0.756 -1.7939 -0.3635  0.4183
  957SOL     OW14524   7.159   9.401   5.765 -0.0425 -0.4964  0.6836
  957SOL    HW114525   7.063   9.389   5.791 -0.0207 -1.2943  0.4281
  957SOL    HW214526   7.180   9.498   5.757 -1.2183 -0.3345 -0.6892
  958SOL     OW14527   8.456   2.837   0.679  0.3306  0.3059 -0.0602
  958SOL    HW114528   8.401   2.757   0.703  1.1866 -0.3285 -0.1931
  958SOL    HW214529   8.441   2.909   0.748  1.5713 -0.9400  1.5586
  959SOL     OW14530   9.075   0.455   2.691  0.1231 -0.2983  0.2230
  959SOL    HW114531   9.055   0.491   2.782  0.2311 -0.9727  0.5140
  959SOL    HW214532   9.167   0.485   2.663 -0.0506  0.2083  0.1793
  960SOL     OW14533   9.400   3.788   2.549 -0.4089  0.1389 -0.0871
  960SOL    HW114534   9.358   3.879   2.547 -0.6791  0.0454  0.9155
  960SOL    HW214535   9.347   3.726   2.491 -0.8966  0.3430  0.1379
  961SOL     OW14536   2.602   0.601   6.002  0.5587  0.1976  0.0270
  961SOL    HW114537   2.532   0.673   6.000  1.0783  0.7378  0.7909
  961SOL    HW214538   2.569   0.523   6.055  0.9661  0.9305  1.3946
  962SOL     OW14539   5.314   9.929   4.824  0.0457 -0.0488 -0.1185
  962SOL    HW114540   5.246  10.001   4.834  0.6557  0.3052  1.5985
  962SOL    HW214541   5.339   9.920   4.727 -1.0097  1.1268 -0.5077
  963SOL     OW14542   2.815   6.459   2.705 -0.0307  0.3945  0.0635
  963SOL    HW114543   2.800   6.364   2.680  2.3913 -0.1717  0.5847
  963SOL    HW214544   2.774   6.477   2.795 -1.1793  0.0645 -0.3960
  964SOL     OW14545   8.152   4.306   5.350 -0.0289 -0.1196  0.1091
  964SOL    HW114546   8.161   4.250   5.432 -0.6741  0.3669  0.5203
  964SOL    HW214547   8.220   4.379   5.351 -0.3295  0.1656  0.4520
  965SOL     OW14548   2.504   2.199   7.090  0.7564 -0.0351 -0.1337
  965SOL    HW114549   2.478   2.120   7.036 -0.3136  0.4629 -0.3597
  965SOL    HW214550   2.554   2.169   7.172  0.0392 -0.9528 -0.0283
  966SOL     OW14551   7.640   5.867   5.243 -0.1410  0.2579  0.1554
  966SOL    HW114552   7.663   5.946   5.188 -1.7290  0.4450 -0.2596
  966SOL    HW214553   7.681   5.785   5.203  0.9219  0.7640  0.1994
  967SOL     OW14554   2.411   4.535   6.496  0.0420  0.2958  0.2825
  967SOL    HW114555   2.386   4.629   6.472  1.1866 -0.1039 -2.6225
  967SOL    HW214556   2.343   4.472   6.457  1.7892 -0.3557 -1.7643
  968SOL     OW14557   0.834   4.788   6.040 -0.0419  0.5907 -0.7590
  968SOL    HW114558   0.740   4.784   6.073 -0.3833 -1.3714 -1.8493
  968SOL    HW214559   0.893   4.826   6.111 -1.2527 -0.5455  0.9089
  969SOL     OW14560   5.411   9.020   4.406 -0.0429  0.2831  0.1474
  969SOL    HW114561   5.317   8.991   4.391  0.0443  0.3800 -0.6043
  969SOL    HW214562   5.436   9.089   4.338  0.2283  1.0321  0.9931
  970SOL     OW14563   8.085   3.203   4.276 -0.4917  0.6120  1.0781
  970SOL    HW114564   8.063   3.250   4.361 -2.5004  1.5088  0.0867
  970SOL    HW214565   8.049   3.256   4.198 -0.4436 -1.2096 -0.2063
  971SOL     OW14566   4.613   7.923   3.860 -0.2883 -0.1148 -0.0688
  971SOL    HW114567   4.597   8.021   3.848 -1.1110 -0.3997 -1.4365
  971SOL    HW214568   4.530   7.880   3.898  0.1606 -0.2448  0.7807
  972SOL     OW14569   2.851   4.231   3.253  0.0291 -0.9162 -0.5568
  972SOL    HW114570   2.799   4.233   3.167  0.3408 -1.1789 -0.7533
  972SOL    HW214571   2.882   4.324   3.275  0.4544 -0.9359 -1.0422
  973SOL     OW14572   8.117   4.368   0.549  0.2932  0.5464 -0.3573
  973SOL    HW114573   8.062   4.286   0.566 -0.2163  0.2473 -3.1467
  973SOL    HW214574   8.186   4.378   0.621 -2.5048  0.1748  2.4673
  974SOL     OW14575   1.500   6.629   7.810 -0.4082  0.0261  0.0630
  974SOL    HW114576   1.485   6.692   7.734 -0.7779  0.8737  0.8254
  974SOL    HW214577   1.595   6.599   7.810 -0.1140  0.9467 -0.0393
  975SOL     OW14578   8.306   3.971   2.900 -0.0736  0.1571  0.2556
  975SOL    HW114579   8.317   3.961   2.999 -1.2826 -1.0851  0.2864
  975SOL    HW214580   8.396   3.975   2.857  0.4638  0.1491  1.3522
  976SOL     OW14581   0.958   1.673   2.867  0.1050  0.2780 -0.0291
  976SOL    HW114582   1.005   1.602   2.814 -0.2264  0.8145 -1.0505
  976SOL    HW214583   0.892   1.630   2.928  1.2293 -0.4195  0.7124
  977SOL     OW14584   9.087   2.470   1.955 -0.0799 -0.5889  0.4716
  977SOL    HW114585   9.051   2.551   1.908 -0.7073 -1.0017  0.2286
  977SOL    HW214586   9.129   2.409   1.888  1.6230  0.1670  0.8317
  978SOL     OW14587   5.148   9.551   6.071  0.9644  0.0065  0.3157
  978SOL    HW114588   5.176   9.563   5.976 -0.1605 -0.5016 -0.0912
  978SOL    HW214589   5.074   9.483   6.076  0.9234  0.1245  1.5325
  979SOL     OW14590   1.882   1.145   7.055  0.5050  0.3164 -0.0260
  979SOL    HW114591   1.848   1.182   6.969 -1.7638 -1.4164  0.0852
  979SOL    HW214592   1.818   1.168   7.129  0.4613 -1.4594  0.5074
  980SOL     OW14593   5.206   1.495   5.534  0.2817  0.0307 -0.3185
  980SOL    HW114594   5.109   1.501   5.513 -0.1038  0.0279  1.3715
  980SOL    HW214595   5.227   1.403   5.567  1.0522 -0.2442 -1.5307
  981SOL     OW14596   1.845   0.151   2.544 -0.2882  0.3787  0.2230
  981SOL    HW114597   1.931   0.101   2.551 -0.4354  0.1678  0.5309
  981SOL    HW214598   1.792   0.116   2.466  0.5925  1.5660 -0.9291
  982SOL     OW14599   3.464   1.820   2.541  0.4646  0.5541  0.3935
  982SOL    HW114600   3.376   1.781   2.515 -0.2863  2.4224  0.0299
  982SOL    HW214601   3.534   1.748   2.542 -0.5537 -0.5074 -1.6904
  983SOL     OW14602   7.511   8.384   2.087 -0.7472 -0.0010 -0.2747
  983SOL    HW114603   7.522   8.356   1.992  0.6636 -0.7413  0.0928
  983SOL    HW214604   7.600   8.387   2.132 -1.3119  1.0917  0.8239
  984SOL     OW14605   6.423   6.231   1.374  0.9980 -1.0302  0.1542
  984SOL    HW114606   6.475   6.154   1.337  1.1233 -0.9495  0.1601
  984SOL    HW214607   6.334   6.199   1.405  0.0127 -0.6856 -2.2703
  985SOL     OW14608   7.765   0.093   7.043  0.1932 -1.2296  0.4372
  985SOL    HW114609   7.756   0.176   6.987 -1.2342 -1.2252  0.6547
  985SOL    HW214610   7.853   0.095   7.091  1.1492 -0.9334 -1.2968
  986SOL     OW14611   6.316   9.587   3.094 -0.2528  0.6791 -0.1522
  986SOL    HW114612   6.296   9.578   3.192  1.7459 -0.7261  0.1831
  986SOL    HW214613   6.249   9.534   3.042  0.0099 -0.4562  0.6280
  987SOL     OW14614   7.459   1.936   6.237 -0.3931  0.0780  0.1401
  987SOL    HW114615   7.476   1.862   6.173  0.6280  1.1512 -0.8644
  987SOL    HW214616   7.472   1.904   6.331  1.5152 -0.6457 -0.3499
  988SOL     OW14617   1.673   8.396   3.849 -0.0998  0.3280 -0.5174
  988SOL    HW114618   1.659   8.323   3.781  2.0726  0.7993 -1.5004
  988SOL    HW214619   1.736   8.464   3.812  1.5834  0.3119  2.1812
  989SOL     OW14620   6.020   8.934   6.580 -0.0411  0.0231 -0.3618
  989SOL    HW114621   5.944   8.975   6.629 -0.6933 -0.8046 -0.6763
  989SOL    HW214622   5.996   8.925   6.483  0.1409 -0.9815 -0.3196
  990SOL     OW14623   8.994   5.648   1.201 -0.0034 -0.4375  0.0180
  990SOL    HW114624   8.957   5.563   1.237  0.6330 -0.9259 -0.4778
  990SOL    HW214625   8.920   5.714   1.188 -0.3111 -0.4284  1.7502
  991SOL     OW14626   7.096   2.945   3.791  0.0150  1.0474 -0.2188
  991SOL    HW114627   7.035   2.929   3.868 -0.3910 -0.5580 -0.8426
  991SOL    HW214628   7.075   2.880   3.718  1.1840  1.7526 -1.2107
  992SOL     OW14629   2.895   5.409   4.457  0.1817  0.2253 -0.6189
  992SOL    HW114630   2.930   5.353   4.382  1.0455  1.1242 -0.8951
  992SOL    HW214631   2.807   5.373   4.487  0.1129 -0.4987 -1.6631
  993SOL     OW14632   1.727   5.466   7.574  0.0990 -0.0430 -0.2305
  993SOL    HW114633   1.694   5.494   7.484  0.3853  0.5519 -0.1542
  993SOL    HW214634   1.702   5.371   7.590  0.4545 -0.2993 -1.1372
  994SOL     OW14635   1.580   7.988   2.195  0.0414 -0.3387 -0.4369
  994SOL    HW114636   1.516   8.046   2.144 -1.1766 -2.2271 -1.0842
  994SOL    HW214637   1.661   7.971   2.138  0.3695  0.6397 -0.2743
  995SOL     OW14638   8.925   3.821   1.313  0.1026  0.2503  0.0151
  995SOL    HW114639   8.888   3.779   1.395  0.4602 -1.1650 -0.5214
  995SOL    HW214640   8.866   3.799   1.235  0.9407 -0.2777 -0.4766
  996SOL     OW14641   1.857   9.329   3.680  0.1681 -0.1411 -0.8793
  996SOL    HW114642   1.847   9.411   3.736 -0.4490 -0.3592 -0.6591
  996SOL    HW214643   1.791   9.260   3.711  1.4677 -1.1424 -0.2814
  997SOL     OW14644   1.761   3.639   4.734 -0.0495 -0.0258  0.3007
  997SOL    HW114645   1.743   3.543   4.717 -1.8335  0.0152  1.7717
  997SOL    HW214646   1.674   3.690   4.734  0.6735  1.2496  1.4624
  998SOL     OW14647   9.786   3.710   8.142  0.6123  0.2644  0.1433
  998SOL    HW114648   9.770   3.751   8.232  1.1668 -2.1407  1.3728
  998SOL    HW214649   9.873   3.660   8.143  0.4298 -0.1116 -1.6154
  999SOL     OW14650   5.185   6.455   2.111 -0.2444  0.0485 -0.2499
  999SOL    HW114651   5.225   6.395   2.179 -1.3328 -0.3291  0.0749
  999SOL    HW214652   5.096   6.487   2.143  0.6599  2.4734 -0.0622
 1000SOL     OW14653   2.499   6.801   7.052 -0.4808  0.0171  0.2630
 1000SOL    HW114654   2.433   6.873   7.034  1.0440  1.1106 -1.1549
 1000SOL    HW214655   2.547   6.820   7.138 -0.0498  0.7244 -0.1318
 1001SOL     OW14656   5.668   3.148   0.340 -0.2122 -0.7604  0.0429
 1001SOL    HW114657   5.764   3.171   0.354 -0.2507 -0.9486  0.6258
 1001SOL    HW214658   5.648   3.146   0.242  0.2671 -0.2773 -0.0674
 1002SOL     OW14659   8.979   4.002   0.214  0.5628  0.5798 -0.3353
 1002SOL    HW114660   8.929   4.088   0.223 -2.7690 -1.2510 -0.4043
 1002SOL    HW214661   8.924   3.927   0.252  3.0013 -1.6560 -1.0199
 1003SOL     OW14662   7.444   6.581   4.113  0.3515 -0.8357  0.1912
 1003SOL    HW114663   7.401   6.492   4.097 -0.1863 -0.7494  1.1252
 1003SOL    HW214664   7.533   6.567   4.156  0.6913 -0.9630 -0.5515
 1004SOL     OW14665   1.927   7.524   8.015 -0.3162  0.0306 -0.4313
 1004SOL    HW114666   1.952   7.591   8.086  1.7203 -0.7295 -0.3833
 1004SOL    HW214667   1.832   7.537   7.989 -0.1011  2.6496 -0.0792
 1005SOL     OW14668   7.566   4.660   6.193 -0.6346  0.5512  0.4701
 1005SOL    HW114669   7.607   4.736   6.142  1.2299  0.0049  1.1134
 1005SOL    HW214670   7.597   4.573   6.154 -0.5758  0.1297  1.4502
 1006SOL     OW14671   3.722   4.111   4.237 -0.5160 -0.0660  0.4550
 1006SOL    HW114672   3.667   4.028   4.247  0.0075 -0.2925  1.4579
 1006SOL    HW214673   3.819   4.087   4.230 -0.4696  0.3808 -0.6142
 1007SOL     OW14674   8.854   6.756   6.569  0.3609  0.2390  0.2546
 1007SOL    HW114675   8.830   6.849   6.545 -0.6099 -0.0340  0.1681
 1007SOL    HW214676   8.810   6.731   6.656 -0.1526 -0.4548 -0.1980
 1008SOL     OW14677   3.444   7.883   0.009  0.1139 -0.1306  0.0421
 1008SOL    HW114678   3.446   7.981  -0.013  1.5461 -0.5364 -1.8025
 1008SOL    HW214679   3.538   7.848   0.011 -0.3052 -1.1892  2.0806
 1009SOL     OW14680   3.331   1.960   4.435  0.0516  0.1263  0.0144
 1009SOL    HW114681   3.422   1.932   4.404 -0.7240 -0.8918 -1.3630
 1009SOL    HW214682   3.282   1.880   4.470 -0.3618  0.6644  0.6785
 1010SOL     OW14683   4.069   9.727   6.287 -0.0256  0.2886 -0.2586
 1010SOL    HW114684   4.070   9.737   6.387 -1.9189 -1.0550 -0.0691
 1010SOL    HW214685   4.160   9.703   6.255  0.6956  1.1042  1.0981
 1011SOL     OW14686   0.975   1.102   6.442  0.9118 -0.2316 -0.8229
 1011SOL    HW114687   0.933   1.021   6.482  0.1158  0.3969 -0.3633
 1011SOL    HW214688   0.907   1.152   6.388 -0.0466  2.7887  2.9261
 1012SOL     OW14689   9.620   6.723   8.160 -0.2746 -0.0815 -0.3423
 1012SOL    HW114690   9.619   6.759   8.067 -2.0682 -0.6393 -0.5606
 1012SOL    HW214691   9.595   6.627   8.159  0.9095 -0.4120  0.6050
 1013SOL     OW14692   2.548   7.118   6.787  0.8100 -0.0899  0.4209
 1013SOL    HW114693   2.492   7.197   6.762  1.6958  0.3656 -0.1416
 1013SOL    HW214694   2.528   7.042   6.727  0.2680 -0.1582  0.6866
 1014SOL     OW14695   8.038   3.042   3.875  0.6937  0.6163  0.0900
 1014SOL    HW114696   8.110   2.987   3.918  0.7447 -2.0622 -3.2180
 1014SOL    HW214697   8.071   3.136   3.864  2.8803 -0.0483  0.5685
 1015SOL     OW14698   7.118   8.876   2.192 -0.3372 -0.4955 -0.2954
 1015SOL    HW114699   7.111   8.780   2.220  0.7082  0.0114  1.7524
 1015SOL    HW214700   7.098   8.935   2.270 -1.9893  0.9767 -1.7948
 1016SOL     OW14701   1.288   2.636   3.049  0.5197  0.2959  0.1734
 1016SOL    HW114702   1.339   2.694   2.986  0.2644 -0.1612 -0.4593
 1016SOL    HW214703   1.326   2.645   3.141  2.5113 -0.9786 -0.5062
 1017SOL     OW14704   5.113   2.161   4.406 -0.3464  0.3222 -0.8854
 1017SOL    HW114705   5.153   2.129   4.320  0.7126 -0.7143 -0.0341
 1017SOL    HW214706   5.183   2.207   4.461 -1.1417  1.4455 -0.7930
 1018SOL     OW14707   9.983   6.484   5.377  0.0784  0.0839  0.3326
 1018SOL    HW114708  10.071   6.524   5.353  0.2333  0.8008  2.0114
 1018SOL    HW214709   9.995   6.388   5.400  0.3351  0.0529  0.0698
 1019SOL     OW14710   9.878   1.745   5.010 -0.1835 -0.0799 -0.1084
 1019SOL    HW114711   9.902   1.821   5.071 -0.7957 -0.2016  0.2904
 1019SOL    HW214712   9.890   1.659   5.058  3.6902 -0.4681 -1.5851
 1020SOL     OW14713   5.932   6.816   4.616 -0.0490 -0.0811 -0.3326
 1020SOL    HW114714   5.882   6.902   4.607 -0.8113 -0.4804  0.1094
 1020SOL    HW214715   5.869   6.739   4.609  0.2066 -0.5457  2.0458
 1021SOL     OW14716   7.651   1.708   7.793 -0.1506  0.1307 -0.6871
 1021SOL    HW114717   7.608   1.618   7.794 -0.5891  0.3378 -1.2801
 1021SOL    HW214718   7.584   1.778   7.817 -0.0448  0.4110 -1.2028
 1022SOL     OW14719   4.889   8.996   6.925  0.2517 -0.4251  0.7321
 1022SOL    HW114720   4.935   8.929   6.983  0.9095 -0.5544  0.0808
 1022SOL    HW214721   4.794   8.971   6.912  0.1127 -0.4118  1.7263
 1023SOL     OW14722   8.800   6.495   0.877 -0.1847  0.3101 -0.1122
 1023SOL    HW114723   8.804   6.495   0.777 -0.7910  1.8776 -0.1510
 1023SOL    HW214724   8.789   6.589   0.910 -3.6003 -0.5225  1.2859
 1024SOL     OW14725   3.738   8.846   4.619  0.1734 -0.1154 -0.1209
 1024SOL    HW114726   3.820   8.796   4.648 -0.2843 -1.5450 -1.2093
 1024SOL    HW214727   3.745   8.942   4.646  0.5809 -0.9982  3.0419
 1025SOL     OW14728   4.350   3.029   0.489 -0.0594  0.0557 -0.3264
 1025SOL    HW114729   4.426   2.994   0.434  0.4649  0.6783 -0.0122
 1025SOL    HW214730   4.352   3.129   0.489 -2.1839  0.1320 -2.1015
 1026SOL     OW14731   9.204   2.337   1.208  0.2292  0.2096 -0.2910
 1026SOL    HW114732   9.216   2.271   1.134  1.3136  1.7002 -1.4764
 1026SOL    HW214733   9.145   2.411   1.177 -1.2239 -0.3096  1.1286
 1027SOL     OW14734   1.211   8.833   7.180 -0.3721 -0.2112  0.3903
 1027SOL    HW114735   1.151   8.880   7.244 -1.8437  0.8339 -1.7041
 1027SOL    HW214736   1.270   8.900   7.134 -0.3803 -0.7731 -0.4490
 1028SOL     OW14737   7.645   2.990   1.413  0.2579 -0.6590  0.2012
 1028SOL    HW114738   7.572   2.979   1.480  0.3276  0.0646  0.4012
 1028SOL    HW214739   7.662   3.088   1.398 -0.4589 -0.7796 -1.6271
 1029SOL     OW14740   8.285   0.754   1.549  0.5344 -0.2215 -0.5936
 1029SOL    HW114741   8.276   0.693   1.627 -0.6052  0.5534 -0.1118
 1029SOL    HW214742   8.219   0.829   1.556  2.2005  1.3376 -0.9280
 1030SOL     OW14743   0.788   5.078   7.794  0.3361  0.1670  0.5738
 1030SOL    HW114744   0.795   5.014   7.718  0.3402 -0.8462  1.4260
 1030SOL    HW214745   0.812   5.032   7.879  1.0138  1.4807  1.1071
 1031SOL     OW14746   2.676   7.939   4.546 -0.2140  0.2732  0.1815
 1031SOL    HW114747   2.582   7.964   4.523  0.5920  0.8580 -2.6905
 1031SOL    HW214748   2.717   7.889   4.469  2.6677  2.3626  0.2567
 1032SOL     OW14749   8.465   8.358   3.837 -0.1699  1.0269  0.2382
 1032SOL    HW114750   8.391   8.318   3.783 -0.5337  0.6948  0.9777
 1032SOL    HW214751   8.545   8.371   3.778  0.1923 -1.4367  0.1253
 1033SOL     OW14752   3.624   2.959   4.227  0.3814 -0.6857 -0.0180
 1033SOL    HW114753   3.640   2.980   4.324 -1.7902 -2.7486  0.8214
 1033SOL    HW214754   3.532   2.988   4.202  0.0374 -2.4063 -0.8039
 1034SOL     OW14755   7.248   0.084   2.757  0.6861  0.4083  0.2797
 1034SOL    HW114756   7.205   0.063   2.845 -0.3644  0.7995 -0.1312
 1034SOL    HW214757   7.231   0.009   2.693  1.5715  0.0583  0.4402
 1035SOL     OW14758   8.022   9.676   3.016 -0.0806  0.0500  0.5400
 1035SOL    HW114759   8.083   9.752   3.038  0.7712 -0.1787 -0.9774
 1035SOL    HW214760   8.060   9.591   3.052  0.1531  0.0010  0.1730
 1036SOL     OW14761   2.701   8.641   6.271 -0.1143  0.4762 -0.5080
 1036SOL    HW114762   2.627   8.651   6.338  0.4717  1.1386  0.0528
 1036SOL    HW214763   2.757   8.724   6.271  0.4716  0.0822 -1.1133
 1037SOL     OW14764   0.857   7.171   4.724  0.3035  0.6676  0.2075
 1037SOL    HW114765   0.763   7.202   4.740  0.2963  0.1520  1.1938
 1037SOL    HW214766   0.856   7.091   4.664  0.0022 -0.2284  1.3843
 1038SOL     OW14767   1.691   3.274   0.203 -0.3424 -0.1688  0.3008
 1038SOL    HW114768   1.692   3.263   0.302 -0.6989 -0.4808  0.2718
 1038SOL    HW214769   1.777   3.240   0.165 -0.7454 -1.2975  0.3812
 1039SOL     OW14770   9.091   6.753   3.945  0.0239 -0.1340 -0.1897
 1039SOL    HW114771   9.009   6.698   3.955 -0.9661  1.4511  0.5318
 1039SOL    HW214772   9.084   6.836   4.001  1.4874  0.7259 -1.2239
 1040SOL     OW14773   9.808   6.853   4.462  0.2210 -0.0054  0.9402
 1040SOL    HW114774   9.743   6.780   4.440 -0.4969  1.1253 -0.8051
 1040SOL    HW214775   9.796   6.880   4.558 -1.2380 -0.4622  0.9043
 1041SOL     OW14776   0.145   3.921   8.132  0.4181 -0.0392 -0.2383
 1041SOL    HW114777   0.203   3.866   8.072  1.3362  2.2161 -1.4772
 1041SOL    HW214778   0.164   3.898   8.228  1.7821 -0.8968 -0.7025
 1042SOL     OW14779   2.406   5.227   7.737  0.0569 -0.2522  0.0945
 1042SOL    HW114780   2.488   5.242   7.792  1.0445 -1.4245 -1.0278
 1042SOL    HW214781   2.367   5.316   7.710  1.9146  0.3238 -0.7740
 1043SOL     OW14782   7.164   9.059   1.723 -0.0848  0.3954  0.2545
 1043SOL    HW114783   7.258   9.043   1.694 -0.7281 -1.8765 -0.6985
 1043SOL    HW214784   7.163   9.123   1.800  2.1239  1.3798 -0.4934
 1044SOL     OW14785   4.408   5.090   3.105 -0.3476  0.5515  0.6316
 1044SOL    HW114786   4.324   5.137   3.133 -0.2539  0.2439  1.4529
 1044SOL    HW214787   4.423   5.011   3.164  0.0432  0.0790 -0.0865
 1045SOL     OW14788   0.441   8.453   0.301  0.2198  0.1028  0.1402
 1045SOL    HW114789   0.538   8.447   0.324 -0.0406  0.8519  1.4639
 1045SOL    HW214790   0.391   8.493   0.377 -1.3532 -1.5608  0.0260
 1046SOL     OW14791   8.586   3.716   3.656 -0.2999  0.4015 -0.3691
 1046SOL    HW114792   8.536   3.777   3.718 -0.7971  0.5898 -0.9486
 1046SOL    HW214793   8.645   3.771   3.596 -0.2504  0.2636 -0.4477
 1047SOL     OW14794   4.747   2.697   4.815 -0.0155 -0.5080 -0.7159
 1047SOL    HW114795   4.704   2.614   4.781  1.1495 -1.5387  0.2969
 1047SOL    HW214796   4.768   2.686   4.912  2.3700  0.0377 -1.1617
 1048SOL     OW14797   8.059   8.943   1.898 -0.2478  0.0584  0.1344
 1048SOL    HW114798   7.985   8.877   1.908  0.5095 -0.7050  0.8350
 1048SOL    HW214799   8.067   8.997   1.982  0.7335 -0.6632  0.5155
 1049SOL     OW14800   8.401   3.012   0.861  0.7981  0.0796  0.0604
 1049SOL    HW114801   8.425   2.982   0.953 -2.2903  0.5196  1.0920
 1049SOL    HW214802   8.410   3.111   0.855 -0.4586  0.2372  0.4257
 1050SOL     OW14803   8.210   3.468   1.561 -0.6932  0.1463 -0.2748
 1050SOL    HW114804   8.147   3.391   1.567 -1.4819  0.8326  0.3562
 1050SOL    HW214805   8.269   3.456   1.481 -1.1963 -0.8143 -0.5122
 1051SOL     OW14806   6.101   0.581   3.706  0.6446  0.5307  1.1352
 1051SOL    HW114807   6.105   0.496   3.758  2.3277 -0.2832 -0.2734
 1051SOL    HW214808   6.013   0.587   3.658  0.6506 -0.5640  0.9828
 1052SOL     OW14809   8.388   3.441   1.367 -0.1499 -0.0847 -0.0047
 1052SOL    HW114810   8.400   3.537   1.342  0.3102 -0.2130 -0.3083
 1052SOL    HW214811   8.463   3.412   1.427  0.1832 -0.4735 -0.5980
 1053SOL     OW14812   2.659   1.986   4.651  0.1545  0.1427 -0.1709
 1053SOL    HW114813   2.610   2.070   4.627  0.3444 -0.0524 -1.2845
 1053SOL    HW214814   2.696   1.994   4.744 -1.6551  0.4423  0.5481
 1054SOL     OW14815   8.927   6.202   0.117 -0.6762 -0.2672 -0.1381
 1054SOL    HW114816   8.963   6.238   0.031 -0.1495 -0.2408  0.0909
 1054SOL    HW214817   8.938   6.103   0.119 -0.0972 -0.2014  0.1658
 1055SOL     OW14818   9.529   4.217   0.398 -1.0414  0.2760 -0.3772
 1055SOL    HW114819   9.617   4.265   0.400 -1.4059  1.1630 -2.8601
 1055SOL    HW214820   9.457   4.281   0.369 -1.9430 -1.1776 -1.4073
 1056SOL     OW14821   7.170   5.516   7.829  0.0112 -0.4308 -0.0150
 1056SOL    HW114822   7.115   5.460   7.892 -0.4681  0.2599  0.1892
 1056SOL    HW214823   7.204   5.459   7.755  1.3609 -1.4662  1.3700
 1057SOL     OW14824   1.295   0.821   3.869 -0.3234  0.1526 -0.0951
 1057SOL    HW114825   1.209   0.786   3.907 -0.3210  2.0881  1.7777
 1057SOL    HW214826   1.369   0.807   3.934  0.6454 -0.7009 -1.3443
 1058SOL     OW14827   3.056   6.326   4.160  0.4230 -0.4003  0.0754
 1058SOL    HW114828   3.008   6.413   4.153  0.8633 -0.1647 -0.0298
 1058SOL    HW214829   3.153   6.343   4.181  1.2440 -0.7267 -3.1475
 1059SOL     OW14830   4.074   5.555   2.256  0.4998  0.1066  0.6877
 1059SOL    HW114831   4.014   5.623   2.298  1.5739  0.8623  1.0050
 1059SOL    HW214832   4.137   5.520   2.325 -0.2245 -1.4174  0.5937
 1060SOL     OW14833   1.561   6.460   6.839 -0.2483  0.3113 -0.4235
 1060SOL    HW114834   1.530   6.516   6.762 -1.5948  0.1984  0.0260
 1060SOL    HW214835   1.537   6.364   6.823  0.4083  0.1236 -0.3351
 1061SOL     OW14836   4.189   1.460   1.232 -0.0167  0.1230 -0.4371
 1061SOL    HW114837   4.214   1.549   1.271  0.2263 -0.0227 -0.2633
 1061SOL    HW214838   4.185   1.392   1.305 -0.6174  0.0780 -0.5064
 1062SOL     OW14839   1.520   1.021   5.601 -0.0479 -0.0211 -0.0899
 1062SOL    HW114840   1.428   0.996   5.572 -0.1959  0.3989  0.0109
 1062SOL    HW214841   1.533   0.998   5.698 -0.4548  1.0150  0.2191
 1063SOL     OW14842   9.762   2.330   0.148  0.1979 -0.1382 -0.8252
 1063SOL    HW114843   9.798   2.241   0.122  1.0548  0.6794 -2.5255
 1063SOL    HW214844   9.804   2.359   0.234  1.2462 -0.5829 -1.1868
 1064SOL     OW14845   0.269   2.563   5.074 -0.1048 -0.3841  0.0502
 1064SOL    HW114846   0.238   2.512   4.994 -0.3047  0.5648 -0.4775
 1064SOL    HW214847   0.212   2.645   5.086 -1.0372 -1.2844  2.0134
 1065SOL     OW14848   0.858   3.694   2.629  0.4751  0.0085 -0.5931
 1065SOL    HW114849   0.881   3.718   2.723  0.0702  2.5144 -1.0922
 1065SOL    HW214850   0.770   3.647   2.627  1.5396 -2.1451  0.4697
 1066SOL     OW14851   9.637   2.885   0.350 -0.6007  0.5347  0.9600
 1066SOL    HW114852   9.546   2.858   0.379  0.0335 -1.5761  1.0635
 1066SOL    HW214853   9.703   2.865   0.422  0.2197  0.2245  0.1373
 1067SOL     OW14854   2.367   5.159   5.178  0.1396 -0.3034  0.0009
 1067SOL    HW114855   2.413   5.148   5.266  2.8616  1.7428 -1.0629
 1067SOL    HW214856   2.388   5.081   5.120 -0.1840 -0.7929  0.5354
 1068SOL     OW14857   3.355   8.763   5.510 -0.1319  0.1581 -1.0024
 1068SOL    HW114858   3.430   8.710   5.471 -0.0157 -0.2175 -0.2699
 1068SOL    HW214859   3.383   8.859   5.519  0.3826 -0.0428 -0.4148
 1069SOL     OW14860   2.949   3.632   5.668 -0.1957 -0.0569 -0.5419
 1069SOL    HW114861   2.854   3.622   5.700 -0.7394 -1.5390 -2.5470
 1069SOL    HW214862   2.958   3.718   5.619 -0.7577 -0.3784 -1.2119
 1070SOL     OW14863   0.413   7.426   2.809 -0.5304 -0.1711 -0.1586
 1070SOL    HW114864   0.503   7.452   2.772 -0.5571 -3.0262 -2.3899
 1070SOL    HW214865   0.422   7.339   2.858 -1.5445  1.0170  2.2024
 1071SOL     OW14866   8.283   1.380   2.200  0.1665  0.2557 -0.0711
 1071SOL    HW114867   8.190   1.401   2.229  0.1071  1.4608 -1.1039
 1071SOL    HW214868   8.299   1.419   2.109  1.6315 -0.0704  0.0387
 1072SOL     OW14869   1.274   4.925   6.243 -0.1455 -0.0014 -0.3978
 1072SOL    HW114870   1.275   4.833   6.205  1.4728  0.2857 -1.0758
 1072SOL    HW214871   1.259   4.920   6.342 -1.4301 -0.9058 -0.6235
 1073SOL     OW14872   1.455   2.781   7.231  0.4564  0.0871 -0.0931
 1073SOL    HW114873   1.435   2.838   7.311  1.9648 -0.5143  0.7188
 1073SOL    HW214874   1.385   2.797   7.161 -0.9498  0.5279  1.3867
 1074SOL     OW14875   3.980   6.366   8.029  0.3578  0.0558  0.1397
 1074SOL    HW114876   3.934   6.293   8.079 -0.5795  1.9792  2.1602
 1074SOL    HW214877   4.063   6.330   7.987 -0.5033 -2.3482  0.4320
 1075SOL     OW14878   9.591   9.202   0.148 -0.5201 -0.0264  0.1937
 1075SOL    HW114879   9.509   9.245   0.111  2.2720  2.4704 -3.3130
 1075SOL    HW214880   9.625   9.256   0.225 -0.9938  0.0127  0.3818
 1076SOL     OW14881   9.827   6.033   5.885  0.1172 -0.2401 -0.1069
 1076SOL    HW114882   9.919   5.998   5.866  0.6845  0.8595  0.5378
 1076SOL    HW214883   9.832   6.100   5.959 -1.0941  0.4136 -0.5994
 1077SOL     OW14884   6.365   5.007   8.160  0.1729  0.1975 -0.1789
 1077SOL    HW114885   6.463   5.005   8.141 -0.1730  0.2442 -2.0231
 1077SOL    HW214886   6.329   5.098   8.140 -0.3808 -0.0041 -0.0972
 1078SOL     OW14887   4.587   8.363   2.369 -0.3556 -0.4705  0.5141
 1078SOL    HW114888   4.533   8.394   2.447 -2.6104 -1.4497 -0.5990
 1078SOL    HW214889   4.536   8.292   2.319  1.6090 -0.8150 -1.0689
 1079SOL     OW14890   2.116   0.702   1.007 -0.4703 -0.2213 -0.3686
 1079SOL    HW114891   2.094   0.608   0.980 -0.4745 -0.1709 -0.5451
 1079SOL    HW214892   2.133   0.706   1.105  0.5121 -0.5913 -0.5187
 1080SOL     OW14893   1.317   2.167   6.092  0.1917  0.1979  0.4546
 1080SOL    HW114894   1.360   2.182   6.181 -0.5897 -1.0148  1.0691
 1080SOL    HW214895   1.310   2.068   6.075  0.7351  0.4202 -1.1626
 1081SOL     OW14896   1.200   2.473   1.016 -0.6793  0.0694  0.2574
 1081SOL    HW114897   1.297   2.456   1.002 -0.8366 -1.2730  0.7306
 1081SOL    HW214898   1.173   2.440   1.107 -1.6816 -0.0355 -0.0688
 1082SOL     OW14899   3.339   7.465   7.173 -0.2351  0.3345  0.4734
 1082SOL    HW114900   3.242   7.477   7.190  0.1935  1.6549  2.2177
 1082SOL    HW214901   3.379   7.409   7.247  0.3017 -0.3000 -0.2901
 1083SOL     OW14902   0.729   2.104   1.490 -0.6810 -0.3188 -0.1318
 1083SOL    HW114903   0.660   2.057   1.436 -1.9534 -0.1790  1.3367
 1083SOL    HW214904   0.693   2.123   1.582  1.4113 -0.5110  0.7610
 1084SOL     OW14905   9.203   5.066   5.678 -0.0424 -0.1771  0.0472
 1084SOL    HW114906   9.113   5.033   5.706 -1.2349  1.1106 -2.1498
 1084SOL    HW214907   9.247   4.997   5.621 -1.4525  0.8841 -2.3977
 1085SOL     OW14908   1.977   1.767   4.224  0.0388  0.2485  0.2684
 1085SOL    HW114909   2.031   1.837   4.176  0.2893  0.4117  0.7900
 1085SOL    HW214910   1.925   1.714   4.157  2.0464 -0.9324 -0.3815
 1086SOL     OW14911   9.384   6.275   1.339 -0.0097 -0.4226 -0.1016
 1086SOL    HW114912   9.370   6.358   1.394 -1.7856 -1.0498  0.4363
 1086SOL    HW214913   9.472   6.233   1.364  0.2467  0.5311  0.6331
 1087SOL     OW14914   3.857   1.226   3.489  0.0311 -0.0945  0.5179
 1087SOL    HW114915   3.906   1.217   3.402  0.0584 -0.1554  0.5396
 1087SOL    HW214916   3.823   1.136   3.518  0.5041 -0.1684  0.8499
 1088SOL     OW14917   7.869   6.733   0.818 -0.0080  0.4537  0.2477
 1088SOL    HW114918   7.792   6.771   0.767 -1.1076  1.3753  2.5462
 1088SOL    HW214919   7.945   6.797   0.816  0.6418 -0.3263 -1.7668
 1089SOL     OW14920   2.928   1.587   0.136 -0.1785  0.2079 -0.2798
 1089SOL    HW114921   2.925   1.616   0.232 -0.7761 -0.5613 -0.0673
 1089SOL    HW214922   2.953   1.665   0.079  1.0614  0.4647  0.5883
 1090SOL     OW14923   2.261   0.534   7.056  0.0149  0.2152 -0.1078
 1090SOL    HW114924   2.176   0.483   7.068  1.0475 -1.2079  1.3026
 1090SOL    HW214925   2.243   0.632   7.067 -1.3545 -0.1138  0.6856
 1091SOL     OW14926   7.957   1.085   3.194 -0.3126 -0.1660  0.2983
 1091SOL    HW114927   8.007   1.005   3.161 -0.6172 -0.0578 -0.4422
 1091SOL    HW214928   7.859   1.065   3.194 -0.3322 -0.0816  0.9252
 1092SOL     OW14929   4.592   8.453   0.595 -0.5475 -0.1645  0.6068
 1092SOL    HW114930   4.564   8.375   0.539 -0.3842 -2.1640  3.2126
 1092SOL    HW214931   4.688   8.476   0.575 -0.8241 -0.1213 -0.7076
 1093SOL     OW14932   3.628   3.648   0.698  0.0141 -0.3830 -0.6651
 1093SOL    HW114933   3.535   3.677   0.675 -0.2180 -1.6292 -1.3235
 1093SOL    HW214934   3.650   3.562   0.651  0.9856 -0.8549  0.5974
 1094SOL     OW14935   0.619   5.802   7.348 -0.5679 -0.0949 -0.1883
 1094SOL    HW114936   0.667   5.715   7.345 -0.5288 -0.1547  1.5396
 1094SOL    HW214937   0.532   5.791   7.397 -0.2396  0.9802  0.6643
 1095SOL     OW14938   9.959   2.289   4.865  0.2429 -0.3814 -0.4335
 1095SOL    HW114939   9.871   2.241   4.866  0.7022 -1.2355 -0.7063
 1095SOL    HW214940  10.033   2.224   4.883  0.5462  0.9698  3.7370
 1096SOL     OW14941   0.035   8.055   5.123 -0.4791  0.3247 -0.3901
 1096SOL    HW114942   0.015   8.143   5.079 -1.0652  0.4174  0.0645
 1096SOL    HW214943   0.051   7.986   5.053  0.5534  0.9144 -0.7572
 1097SOL     OW14944   0.598   0.279   5.964  0.2277 -0.3836 -0.8897
 1097SOL    HW114945   0.639   0.337   5.894 -1.1579 -0.2418 -1.6126
 1097SOL    HW214946   0.541   0.209   5.920 -1.1955  0.1301  0.1004
 1098SOL     OW14947   3.353   5.784   1.496 -0.2447  0.2910  0.0307
 1098SOL    HW114948   3.410   5.785   1.414 -0.4964 -0.4056 -0.1615
 1098SOL    HW214949   3.271   5.839   1.480 -0.9336 -0.9088 -0.6680
 1099SOL     OW14950   4.412   7.816   0.601  0.6219  0.1047 -0.1221
 1099SOL    HW114951   4.456   7.744   0.654  3.1561  0.4042 -1.6877
 1099SOL    HW214952   4.417   7.903   0.651 -1.1361 -0.4877  1.1243
 1100SOL     OW14953   0.618   9.485   5.506  0.0472  0.2448 -0.9887
 1100SOL    HW114954   0.676   9.567   5.512  1.2800 -0.7551  1.7870
 1100SOL    HW214955   0.532   9.502   5.554 -0.6180  0.6145 -2.2835
 1101SOL     OW14956   6.601   0.957   2.594  0.1436  0.0851 -0.4009
 1101SOL    HW114957   6.543   1.007   2.530  0.6812  0.6672 -0.4299
 1101SOL    HW214958   6.551   0.945   2.681  0.1159  0.9138 -0.2961
 1102SOL     OW14959   4.030   5.786   0.197  0.0956 -0.3601 -0.1632
 1102SOL    HW114960   4.033   5.747   0.289 -1.5794 -1.3027 -0.4965
 1102SOL    HW214961   4.112   5.758   0.146  2.3392  2.2857  1.8406
 1103SOL     OW14962   4.125   3.097   2.295  0.2969 -0.1684  0.0234
 1103SOL    HW114963   4.212   3.140   2.320  0.1407  0.9197 -1.2087
 1103SOL    HW214964   4.051   3.141   2.346  0.4415 -0.9469  0.9115
 1104SOL     OW14965   4.587   8.050   2.969 -0.2968 -0.5082 -0.2781
 1104SOL    HW114966   4.661   8.117   2.967  1.1635 -2.0942 -0.1936
 1104SOL    HW214967   4.612   7.970   2.914 -1.8360 -1.1838 -0.0343
 1105SOL     OW14968   6.253   7.935   6.135 -0.4024  0.7531  0.7452
 1105SOL    HW114969   6.172   7.901   6.183 -0.0865  0.3003  0.9548
 1105SOL    HW214970   6.224   7.996   6.061 -0.9513  0.3451  0.6185
 1106SOL     OW14971   9.005   9.970   4.379  0.0610 -0.3467  0.0692
 1106SOL    HW114972   9.031   9.877   4.352 -2.1418 -0.3106 -2.3386
 1106SOL    HW214973   8.912   9.989   4.348  0.0266  2.2414  1.6461
 1107SOL     OW14974   2.411   7.219   7.527 -0.1064  0.4665  0.3742
 1107SOL    HW114975   2.325   7.264   7.552 -1.8559 -0.6146 -3.2270
 1107SOL    HW214976   2.470   7.284   7.479 -0.9369  0.0422 -1.2710
 1108SOL     OW14977   1.750   2.489   0.147  0.1528  0.4057  0.0757
 1108SOL    HW114978   1.802   2.417   0.193 -2.1421 -0.8304  0.8411
 1108SOL    HW214979   1.684   2.529   0.212 -0.4603  1.3178 -1.0916
 1109SOL     OW14980   2.219   6.107   2.510  0.5460 -0.6681  0.1117
 1109SOL    HW114981   2.264   6.093   2.598  0.8470 -1.0995 -0.1084
 1109SOL    HW214982   2.192   6.203   2.501  0.9875 -0.5120  0.4513
 1110SOL     OW14983   6.498   1.729   3.135 -0.1628  0.1992  0.8362
 1110SOL    HW114984   6.434   1.787   3.086 -0.1169  0.3660  0.9741
 1110SOL    HW214985   6.554   1.678   3.069 -0.8189 -0.3698  0.7147
 1111SOL     OW14986   8.081   6.382   5.058 -0.6461 -0.1055 -0.1671
 1111SOL    HW114987   8.043   6.353   5.145 -1.0395  0.5196 -0.1307
 1111SOL    HW214988   8.160   6.442   5.073 -0.0582 -0.8462 -0.2439
 1112SOL     OW14989   6.888   7.621   4.301  0.1911  0.4361  0.8070
 1112SOL    HW114990   6.883   7.633   4.202  1.8870 -2.6326  0.2982
 1112SOL    HW214991   6.972   7.663   4.336  1.6464 -2.0137  0.3227
 1113SOL     OW14992   6.532   7.272   6.263  0.4188  0.4338  0.1496
 1113SOL    HW114993   6.470   7.233   6.194  1.1608  1.0954 -0.9115
 1113SOL    HW214994   6.493   7.356   6.299 -0.0878 -0.0450  0.7329
 1114SOL     OW14995   7.058   0.920   3.398 -0.0265 -0.3844  0.2792
 1114SOL    HW114996   7.068   0.898   3.496 -1.6725 -0.5089  0.4355
 1114SOL    HW214997   7.120   0.995   3.374  0.7186 -0.6585  1.3198
 1115SOL     OW14998   7.874   2.239   5.303  0.1243  0.4713  0.4334
 1115SOL    HW114999   7.820   2.167   5.258  0.8840 -0.9414  1.7498
 1115SOL    HW215000   7.882   2.317   5.241 -1.8040 -0.0436 -0.5365
 1116SOL     OW15001   0.180   3.888   1.023  0.3300  0.3928 -0.7284
 1116SOL    HW115002   0.224   3.973   1.052 -0.9897  0.6812  0.4901
 1116SOL    HW215003   0.153   3.836   1.104 -0.9867 -0.0749 -1.4634
 1117SOL     OW15004   0.501   4.902   3.776  0.2944 -0.0120  0.2218
 1117SOL    HW115005   0.517   4.955   3.693  0.4032 -1.1406 -0.4849
 1117SOL    HW215006   0.535   4.809   3.763  0.8238 -0.0401  1.7325
 1118SOL     OW15007   4.357   2.104   4.313  0.5240  0.2647  0.0827
 1118SOL    HW115008   4.428   2.047   4.271 -0.0685 -0.4059 -0.0270
 1118SOL    HW215009   4.332   2.065   4.402 -0.6853 -0.2955 -0.4981
 1119SOL     OW15010   4.396   8.219   1.820 -0.1628 -0.3975 -0.0745
 1119SOL    HW115011   4.375   8.316   1.832  0.8995  0.0136 -1.4981
 1119SOL    HW215012   4.320   8.164   1.857 -2.0583  0.9961 -1.7663
 1120SOL     OW15013   2.018   1.642   1.286  0.4421 -0.3082  0.5348
 1120SOL    HW115014   1.981   1.607   1.372 -0.4165 -2.4283 -0.6454
 1120SOL    HW215015   1.974   1.594   1.209  0.8691  1.8488 -1.1038
 1121SOL     OW15016   9.680   3.194   6.894 -0.2755  1.2038 -0.2913
 1121SOL    HW115017   9.608   3.124   6.893 -0.1651  1.0888 -0.3050
 1121SOL    HW215018   9.738   3.183   6.813 -1.8720  2.9991 -1.7169
 1122SOL     OW15019   7.930   4.072   3.684 -0.1167  0.5899  0.0679
 1122SOL    HW115020   7.892   4.153   3.639  1.2605 -0.7478 -3.6743
 1122SOL    HW215021   7.881   3.991   3.654  0.5943 -0.3131  1.3113
 1123SOL     OW15022   0.876   4.642   0.849 -0.5106 -0.1713 -0.2664
 1123SOL    HW115023   0.800   4.581   0.824 -1.5293  0.7234  0.5560
 1123SOL    HW215024   0.887   4.712   0.779 -0.2616 -0.4635 -0.5207
 1124SOL     OW15025   8.118   7.601   7.258  0.3185  0.0195 -0.4898
 1124SOL    HW115026   8.025   7.635   7.249  0.4826  1.5096  2.5494
 1124SOL    HW215027   8.142   7.545   7.179 -3.7335 -1.8084 -0.5206
 1125SOL     OW15028   4.885   7.453   5.745 -0.4502 -0.1834  0.2506
 1125SOL    HW115029   4.905   7.538   5.696 -2.6518  0.0860 -0.2421
 1125SOL    HW215030   4.795   7.459   5.786 -0.6221 -2.2803  0.2354
 1126SOL     OW15031   8.913   0.242   2.681  0.2075 -0.0636  0.4731
 1126SOL    HW115032   8.875   0.218   2.770 -1.1529  2.2703  0.5445
 1126SOL    HW215033   8.989   0.306   2.693  0.0860  0.1842 -0.0448
 1127SOL     OW15034   4.533   9.982   7.050 -0.0566  0.1538  0.8514
 1127SOL    HW115035   4.499  10.075   7.057 -1.9465 -0.3028 -1.7210
 1127SOL    HW215036   4.457   9.920   7.030  1.8650 -1.2367 -2.5852
 1128SOL     OW15037   4.983   8.258   6.116 -0.3670  0.1934 -0.1000
 1128SOL    HW115038   5.029   8.212   6.040 -0.3626  0.5008 -0.2850
 1128SOL    HW215039   4.891   8.220   6.128  0.4982 -1.5377  1.3006
 1129SOL     OW15040   3.381   8.751   3.592  0.1638 -0.0899  0.4063
 1129SOL    HW115041   3.479   8.752   3.573  0.3385  0.4858  1.3270
 1129SOL    HW215042   3.363   8.796   3.679 -1.0818  1.2424 -0.5178
 1130SOL     OW15043   2.495   4.199   1.973 -0.1881 -0.4704  0.4034
 1130SOL    HW115044   2.444   4.270   1.923 -0.2484 -1.2451 -0.6548
 1130SOL    HW215045   2.573   4.241   2.019 -0.9203  0.4855  0.7949
 1131SOL     OW15046   0.086   0.953   5.603 -0.3501 -0.6850 -0.0295
 1131SOL    HW115047   0.037   0.900   5.673 -1.6946  1.0098  0.3675
 1131SOL    HW215048   0.184   0.952   5.623 -0.6578 -0.7243  1.5361
 1132SOL     OW15049   7.902   8.997   3.653  0.1161 -0.0977  0.5265
 1132SOL    HW115050   7.878   8.902   3.633 -0.7699  0.0193  1.0011
 1132SOL    HW215051   7.995   9.001   3.688  0.5289 -0.6720 -0.5007
 1133SOL     OW15052   0.921   5.253   1.273 -0.0620 -0.4108 -0.1510
 1133SOL    HW115053   0.898   5.163   1.234 -0.6734 -1.0468  1.6144
 1133SOL    HW215054   0.837   5.303   1.292  0.1169 -1.0301  2.4169
 1134SOL     OW15055   7.483   7.519   6.163  0.2257 -0.3152  0.2266
 1134SOL    HW115056   7.388   7.551   6.161  0.1877 -0.4780 -0.5579
 1134SOL    HW215057   7.494   7.442   6.100  0.6653 -0.8887  1.0009
 1135SOL     OW15058   7.496   4.426   2.032  0.4637 -0.6019  0.0055
 1135SOL    HW115059   7.404   4.411   2.068  0.4346  0.1304  0.2524
 1135SOL    HW215060   7.521   4.352   1.970 -2.0713  1.3955 -3.6205
 1136SOL     OW15061   8.257   7.820   2.611  0.1983 -0.3270  0.2023
 1136SOL    HW115062   8.346   7.788   2.581  0.3142 -1.3018  1.5864
 1136SOL    HW215063   8.233   7.779   2.698 -1.4180  0.2607  0.0666
 1137SOL     OW15064   6.588   6.209   0.530 -0.3057 -0.4571  0.1402
 1137SOL    HW115065   6.534   6.287   0.562 -0.2822 -1.1526  1.9035
 1137SOL    HW215066   6.526   6.134   0.505 -0.2321 -0.7067  0.6994
 1138SOL     OW15067   0.207   6.219   5.861  0.5708  0.2080  0.0053
 1138SOL    HW115068   0.278   6.236   5.930  0.1492  1.1434  0.2281
 1138SOL    HW215069   0.153   6.140   5.887  1.0134 -0.0117  0.2623
 1139SOL     OW15070   3.231   4.133   5.697  0.4135 -0.6362  0.4319
 1139SOL    HW115071   3.275   4.043   5.689  0.9085 -0.3200 -0.4935
 1139SOL    HW215072   3.258   4.175   5.783  1.5691 -0.6435  0.0862
 1140SOL     OW15073   4.590   4.555   0.686 -0.2343 -0.0043 -0.4493
 1140SOL    HW115074   4.681   4.572   0.725 -0.2647  0.2970 -0.5091
 1140SOL    HW215075   4.525   4.541   0.761 -0.0566 -0.6755 -0.4117
 1141SOL     OW15076   9.429   8.214   2.346  0.3311  0.2003 -0.6946
 1141SOL    HW115077   9.526   8.238   2.340  0.0474  1.2447 -1.0614
 1141SOL    HW215078   9.419   8.129   2.399  1.5746 -0.7997 -2.0379
 1142SOL     OW15079   0.137   9.257   1.310  0.3573  0.1162 -0.2561
 1142SOL    HW115080   0.165   9.338   1.361 -1.5313  0.5175  0.1624
 1142SOL    HW215081   0.118   9.282   1.215  1.0373 -0.0906 -0.4521
 1143SOL     OW15082   9.093   4.034   0.718 -0.1753 -0.5737 -0.4457
 1143SOL    HW115083   9.128   3.941   0.715  0.0212 -0.4491 -3.7111
 1143SOL    HW215084   9.163   4.094   0.757  0.1256 -1.5724  0.5959
 1144SOL     OW15085   3.097   2.852   1.421  0.3291  0.2715 -0.4624
 1144SOL    HW115086   3.140   2.905   1.494 -1.6001 -1.2356  1.8534
 1144SOL    HW215087   3.029   2.909   1.375  0.4512  0.7633 -0.0403
 1145SOL     OW15088   7.070   3.140   1.931 -0.6524 -0.0769 -0.1347
 1145SOL    HW115089   6.975   3.109   1.938 -0.3574 -0.7696  0.9948
 1145SOL    HW215090   7.131   3.070   1.968  0.2050  0.9057  0.3510
 1146SOL     OW15091   0.764   4.398   0.583 -0.0667  0.3794 -0.5561
 1146SOL    HW115092   0.766   4.337   0.662  0.1939  0.3432 -0.5906
 1146SOL    HW215093   0.844   4.380   0.525 -0.7485 -0.2470 -1.3158
 1147SOL     OW15094   2.513   4.397   0.757  0.4058 -0.5628  0.1329
 1147SOL    HW115095   2.548   4.361   0.844  0.0303 -0.1588  0.4498
 1147SOL    HW215096   2.571   4.364   0.682 -0.3315 -2.4139  0.3360
 1148SOL     OW15097   1.082   2.412   5.243  0.3202 -0.2426 -0.0704
 1148SOL    HW115098   1.085   2.481   5.315  0.1441 -0.7578  0.4360
 1148SOL    HW215099   1.160   2.351   5.251  0.2230 -0.3889 -0.2229
 1149SOL     OW15100   1.304   4.149   1.124  0.5926  0.4108  0.2380
 1149SOL    HW115101   1.236   4.192   1.065  0.1020  1.0703  1.2609
 1149SOL    HW215102   1.395   4.168   1.089  0.4194  3.0542  1.1505
 1150SOL     OW15103   9.966   0.062   0.230  0.1353  0.6312  0.1803
 1150SOL    HW115104   9.964   0.084   0.328 -0.3827  2.0675 -0.1476
 1150SOL    HW215105  10.007  -0.029   0.218  0.7514  0.6820  1.6804
 1151SOL     OW15106   4.783   7.966   4.623  0.4480 -0.0463  0.0435
 1151SOL    HW115107   4.768   8.009   4.712  0.6330  0.5491 -0.2115
 1151SOL    HW215108   4.850   8.018   4.572  2.5003 -1.9859  0.6740
 1152SOL     OW15109   1.486   0.915   4.836 -0.6128  0.2078 -0.1410
 1152SOL    HW115110   1.550   0.853   4.883  1.1753  0.5805 -1.9933
 1152SOL    HW215111   1.472   0.882   4.742 -0.9900  1.6740 -0.6030
 1153SOL     OW15112   9.656   8.617   1.350  0.4906 -0.0172 -0.0352
 1153SOL    HW115113   9.618   8.704   1.321 -0.5652 -1.0454 -1.8408
 1153SOL    HW215114   9.581   8.555   1.376  1.1906 -0.5426  0.7461
 1154SOL     OW15115   3.954   9.203   5.962 -0.1799 -0.2508  0.1838
 1154SOL    HW115116   3.949   9.279   5.897 -0.5501 -0.8807 -0.5331
 1154SOL    HW215117   4.048   9.194   5.996  0.2135 -0.4509 -0.9185
 1155SOL     OW15118   2.603   8.175   0.897  0.1791 -0.2356 -0.0339
 1155SOL    HW115119   2.586   8.079   0.917  1.7002 -0.4895  0.0365
 1155SOL    HW215120   2.585   8.192   0.799 -1.0285 -0.3601  0.1512
 1156SOL     OW15121   7.977   1.158   2.378 -0.1652  0.6617 -0.0514
 1156SOL    HW115122   8.021   1.097   2.312 -1.3645 -0.8403  0.5079
 1156SOL    HW215123   7.967   1.249   2.338 -0.6092 -0.1523 -1.8279
 1157SOL     OW15124   2.241   5.557   0.213  0.0576  0.0918  0.4861
 1157SOL    HW115125   2.234   5.533   0.310  1.0908  1.6852  0.9728
 1157SOL    HW215126   2.334   5.589   0.193 -0.3071  0.3249 -0.8993
 1158SOL     OW15127   6.090   8.048   5.393  0.0251  0.0502  0.0333
 1158SOL    HW115128   6.115   7.951   5.393 -0.3850 -0.0598 -2.2998
 1158SOL    HW215129   6.129   8.092   5.475  2.1386 -1.5874 -0.0545
 1159SOL     OW15130   0.410   2.264   3.070 -0.0029  0.7111 -0.2707
 1159SOL    HW115131   0.354   2.206   3.010  2.0955  0.7953 -2.3716
 1159SOL    HW215132   0.358   2.346   3.094 -1.3557  0.0572 -0.8772
 1160SOL     OW15133   0.533   5.500   7.975  0.0808  0.0561 -0.0289
 1160SOL    HW115134   0.490   5.570   8.032 -0.3506  1.1544 -1.6676
 1160SOL    HW215135   0.471   5.474   7.901  1.0172 -0.6252 -0.5894
 1161SOL     OW15136   7.664   5.730   1.462  0.1399  0.4649  0.4208
 1161SOL    HW115137   7.683   5.716   1.365  0.6024 -0.0145  0.5782
 1161SOL    HW215138   7.679   5.644   1.512  1.6761  1.1530  1.1886
 1162SOL     OW15139   7.484   0.045   6.186 -0.1496 -0.7031 -0.0577
 1162SOL    HW115140   7.512   0.083   6.097 -0.7794  0.8689  0.3959
 1162SOL    HW215141   7.385   0.058   6.198 -0.0428 -0.7686  0.9339
 1163SOL     OW15142   0.686   3.764   4.546 -0.0077 -0.3888 -0.1851
 1163SOL    HW115143   0.731   3.845   4.585 -0.9190  0.2215 -0.3683
 1163SOL    HW215144   0.714   3.753   4.451 -0.4014  0.1024 -0.3571
 1164SOL     OW15145   6.217   7.858   5.780 -0.5013 -0.1171  0.7488
 1164SOL    HW115146   6.120   7.880   5.774 -0.3069  0.5365 -0.0866
 1164SOL    HW215147   6.262   7.884   5.695  0.1767 -1.5593  0.6602
 1165SOL     OW15148   9.934   7.666   3.827 -0.2127 -0.0379 -0.2237
 1165SOL    HW115149   9.917   7.570   3.852 -0.6481  0.0526 -0.1647
 1165SOL    HW215150  10.029   7.676   3.798 -0.1100 -0.4505 -0.0425
 1166SOL     OW15151   4.388   0.137   2.990 -0.0906 -0.2763  0.5828
 1166SOL    HW115152   4.363   0.202   3.062 -0.9973  1.8652 -1.5881
 1166SOL    HW215153   4.472   0.167   2.945  0.2332 -1.3485  0.4644
 1167SOL     OW15154   2.121   2.649   0.311  0.4648 -0.3424  0.4623
 1167SOL    HW115155   2.206   2.696   0.338  0.7675 -0.9868  0.6253
 1167SOL    HW215156   2.077   2.702   0.238  1.7081 -0.7183 -0.5917
 1168SOL     OW15157   8.282   5.021   5.835 -0.0725  0.2835 -0.7264
 1168SOL    HW115158   8.237   5.077   5.766  0.4082  0.4695 -0.8912
 1168SOL    HW215159   8.370   4.989   5.801 -2.1560 -4.1662 -2.2735
 1169SOL     OW15160   1.108   1.211   2.371  0.4650  0.2573 -0.4923
 1169SOL    HW115161   1.037   1.179   2.434  0.1544  1.4838 -0.2053
 1169SOL    HW215162   1.181   1.255   2.424  0.2696  1.1609 -0.9622
 1170SOL     OW15163   0.765   3.524   7.106 -0.2092  0.4589 -0.1318
 1170SOL    HW115164   0.783   3.434   7.066 -0.0086  0.1083  0.7527
 1170SOL    HW215165   0.711   3.578   7.042  1.8935  0.6609 -1.8179
 1171SOL     OW15166   4.412   1.943   2.669 -0.4760 -0.1760  0.0297
 1171SOL    HW115167   4.425   1.932   2.768  1.5684 -0.7414 -0.2797
 1171SOL    HW215168   4.327   1.993   2.652 -1.8498 -1.7813  2.0064
 1172SOL     OW15169   4.382   0.303   5.465 -0.0881 -0.2634 -0.4178
 1172SOL    HW115170   4.339   0.261   5.386  1.2949 -1.5310 -0.5315
 1172SOL    HW215171   4.474   0.333   5.441  0.7125 -1.5261  0.9289
 1173SOL     OW15172   1.936   4.087   7.050  0.5739 -0.4782 -0.4700
 1173SOL    HW115173   1.897   4.022   7.116 -0.2925  0.5236  0.0081
 1173SOL    HW215174   1.964   4.170   7.098 -1.0968  0.7085 -1.5117
 1174SOL     OW15175   1.173   3.762   7.183  0.0899 -0.0616 -0.1040
 1174SOL    HW115176   1.101   3.692   7.186  0.3260 -0.2863  0.5746
 1174SOL    HW215177   1.147   3.839   7.242  0.9823 -0.7232  1.1831
 1175SOL     OW15178   7.224   1.148   1.435  0.3530 -0.3325  0.2694
 1175SOL    HW115179   7.318   1.127   1.406  0.5269 -0.9712  1.2912
 1175SOL    HW215180   7.226   1.224   1.501  0.1991 -0.7240  0.7231
 1176SOL     OW15181   5.033   2.720   4.785  0.0210  0.0765  0.2103
 1176SOL    HW115182   5.072   2.636   4.746  0.2697  0.3568 -0.1459
 1176SOL    HW215183   4.934   2.712   4.787  0.1029 -0.8127  1.5022
 1177SOL     OW15184   6.471   0.475   0.649  0.5670  0.4793  0.3645
 1177SOL    HW115185   6.386   0.511   0.610  1.0604  2.9947  1.5085
 1177SOL    HW215186   6.520   0.421   0.580 -0.7949  0.9854 -1.0229
 1178SOL     OW15187   3.809   2.654   0.177  0.1557 -0.2919  0.0698
 1178SOL    HW115188   3.809   2.737   0.121 -0.1147 -1.4296 -1.6399
 1178SOL    HW215189   3.887   2.657   0.240  0.7482  0.7707 -0.6859
 1179SOL     OW15190   9.296   3.403   7.743  0.4086  0.0573  0.0623
 1179SOL    HW115191   9.345   3.378   7.826  0.2983  0.3540  0.2174
 1179SOL    HW215192   9.324   3.495   7.714  2.2203 -0.9552 -1.5342
 1180SOL     OW15193   7.180   5.997   5.020  0.1732  0.2648 -0.2879
 1180SOL    HW115194   7.136   6.067   5.077 -1.9210 -0.3571 -1.0973
 1180SOL    HW215195   7.249   6.040   4.961 -1.5525  1.7921 -1.2526
 1181SOL     OW15196   8.574   8.632   3.956  0.1730 -0.6959 -0.0030
 1181SOL    HW115197   8.518   8.568   3.903 -1.8166 -0.4434  1.6972
 1181SOL    HW215198   8.586   8.596   4.049  0.5582  0.5453  0.4401
 1182SOL     OW15199   1.878   4.433   2.019  0.7623 -0.0322  0.2229
 1182SOL    HW115200   1.906   4.516   1.971 -1.2499  1.6821  1.8880
 1182SOL    HW215201   1.958   4.385   2.053  2.0400  0.3819 -2.0981
 1183SOL     OW15202   0.050   4.207   0.997 -0.2633 -0.2888  0.7415
 1183SOL    HW115203  -0.017   4.134   0.981 -1.0543  0.3437  1.1553
 1183SOL    HW215204   0.055   4.265   0.916 -1.3989  0.6109  1.3128
 1184SOL     OW15205   0.585   1.066   0.172  0.1755  0.2684  0.0845
 1184SOL    HW115206   0.603   0.969   0.190 -1.6668  0.2181  1.8968
 1184SOL    HW215207   0.646   1.098   0.101  1.0546 -2.1465 -0.3191
 1185SOL     OW15208   8.242   4.197   5.831 -0.0394 -0.6309  0.4139
 1185SOL    HW115209   8.323   4.143   5.853  0.8181  1.2704  2.0052
 1185SOL    HW215210   8.184   4.205   5.911  0.9552  2.6611  0.8820
 1186SOL     OW15211   3.258   9.564   6.025 -0.0229  0.1743  0.2246
 1186SOL    HW115212   3.164   9.579   6.055 -0.1683 -0.3883  0.0586
 1186SOL    HW215213   3.301   9.652   6.004 -1.4724  0.2489 -2.6383
 1187SOL     OW15214   8.154   4.925   1.556 -0.7458 -0.3786 -0.3721
 1187SOL    HW115215   8.232   4.980   1.527 -2.7554  2.8088  0.0117
 1187SOL    HW215216   8.134   4.943   1.652 -2.4224 -0.5044 -0.6712
 1188SOL     OW15217   4.596   0.639   4.496 -0.1068 -0.1295  0.4488
 1188SOL    HW115218   4.551   0.689   4.570  1.4824 -0.5436  1.7269
 1188SOL    HW215219   4.687   0.678   4.481 -0.4413 -0.0095 -1.3500
 1189SOL     OW15220   0.858   4.453   5.519 -0.2551 -0.4022 -0.5028
 1189SOL    HW115221   0.863   4.367   5.468  2.2542 -0.8929  0.5055
 1189SOL    HW215222   0.931   4.514   5.489 -1.6332  1.1409 -0.7546
 1190SOL     OW15223   0.938   7.809   3.161  0.6324 -0.1555 -0.6408
 1190SOL    HW115224   0.943   7.892   3.217  0.7370 -0.2375 -0.5301
 1190SOL    HW215225   0.861   7.754   3.190  0.2482  0.1572 -1.0585
 1191SOL     OW15226   9.262   1.287   3.959  0.3512 -0.3147 -0.1625
 1191SOL    HW115227   9.244   1.323   4.051  0.9853 -1.0804  0.2647
 1191SOL    HW215228   9.176   1.271   3.912  0.0048 -0.7651  0.6277
 1192SOL     OW15229   1.544   8.815   5.796  0.1013 -0.2093 -0.5304
 1192SOL    HW115230   1.597   8.890   5.758 -0.9674 -0.5526 -2.8054
 1192SOL    HW215231   1.552   8.735   5.736 -0.5816 -1.1870  0.6637
 1193SOL     OW15232   2.429   6.472   1.911 -0.2793  0.0666 -0.7187
 1193SOL    HW115233   2.346   6.417   1.902  0.5486 -1.2382 -0.3393
 1193SOL    HW215234   2.500   6.437   1.851  0.2252  0.7618 -0.5342
 1194SOL     OW15235   3.886   9.082   3.621  0.5095 -0.1456  0.2775
 1194SOL    HW115236   3.873   9.015   3.694 -1.3609  0.6114  0.6944
 1194SOL    HW215237   3.830   9.163   3.640 -0.3771 -0.1104 -2.2147
 1195SOL     OW15238   1.425   5.084   5.758 -0.6004  0.1475 -0.5525
 1195SOL    HW115239   1.369   5.085   5.841 -0.0995  2.0837 -0.2182
 1195SOL    HW215240   1.440   5.177   5.726  2.6405 -0.2942 -0.5258
 1196SOL     OW15241   1.672   1.763   5.237 -0.2921 -0.1861 -0.1267
 1196SOL    HW115242   1.738   1.772   5.162  0.1672  0.7108  0.3755
 1196SOL    HW215243   1.599   1.831   5.225 -1.1951 -1.2535 -0.7428
 1197SOL     OW15244   9.737   4.512   7.101 -0.5574 -0.1288 -0.2437
 1197SOL    HW115245   9.655   4.561   7.071 -0.8943  0.3557  1.4418
 1197SOL    HW215246   9.779   4.561   7.177  1.3725 -0.3045 -1.1620
 1198SOL     OW15247   3.309   7.831   1.164 -0.0483  0.0021  0.4635
 1198SOL    HW115248   3.244   7.879   1.222  1.3296  1.5998  0.7200
 1198SOL    HW215249   3.336   7.890   1.088  0.3458 -1.0124 -0.1987
 1199SOL     OW15250   8.699   3.796   6.818  0.0471 -0.1745 -0.1012
 1199SOL    HW115251   8.720   3.799   6.720  0.6044 -1.2189 -0.0228
 1199SOL    HW215252   8.601   3.783   6.830 -0.1497  0.8793 -0.5093
 1200SOL     OW15253   2.140   6.303   5.294 -0.1474  0.0840 -0.0779
 1200SOL    HW115254   2.151   6.360   5.213  2.3845 -1.3755 -0.7848
 1200SOL    HW215255   2.140   6.206   5.268  0.2894 -0.3927  1.6166
 1201SOL     OW15256   1.269   2.675   4.244  0.1633  0.2791 -0.0085
 1201SOL    HW115257   1.352   2.683   4.301 -0.4795  1.0066  0.8444
 1201SOL    HW215258   1.192   2.647   4.301 -0.3250  0.2534 -0.6746
 1202SOL     OW15259   9.131   7.744   3.811 -0.2821  0.0859  0.4729
 1202SOL    HW115260   9.108   7.667   3.870 -0.1107 -0.4577 -0.1519
 1202SOL    HW215261   9.063   7.816   3.822 -0.6969 -0.3404  0.7348
 1203SOL     OW15262   7.927   6.595   1.598 -0.9074 -0.3008 -0.8950
 1203SOL    HW115263   7.859   6.590   1.671  0.2896  3.7264  0.6388
 1203SOL    HW215264   8.004   6.535   1.620 -2.0152 -1.6341 -0.5568
 1204SOL     OW15265   2.860   2.736   6.080  0.4892  0.1217  0.2105
 1204SOL    HW115266   2.868   2.652   6.025 -0.3100  0.5081 -0.5165
 1204SOL    HW215267   2.764   2.762   6.085  0.7427  1.0074  0.4131
 1205SOL     OW15268   6.917   7.421   2.692  0.1538 -0.2366 -0.2439
 1205SOL    HW115269   6.968   7.345   2.650  0.6416 -0.5090  0.8136
 1205SOL    HW215270   6.973   7.504   2.690 -0.7994  0.3788 -2.3735
 1206SOL     OW15271   0.469   4.340   4.533 -0.6025  0.0605  0.3241
 1206SOL    HW115272   0.427   4.425   4.500 -0.4892 -0.4295 -1.1147
 1206SOL    HW215273   0.568   4.348   4.526 -0.5823 -0.1029  0.4327
 1207SOL     OW15274   3.633   8.658   4.915 -0.2930  0.4406  0.3604
 1207SOL    HW115275   3.718   8.605   4.909 -0.3608  0.3888 -0.1247
 1207SOL    HW215276   3.562   8.615   4.861 -0.3621  0.9971 -0.0025
 1208SOL     OW15277   0.887   8.321   3.216  0.2155  0.4230 -0.0954
 1208SOL    HW115278   0.901   8.399   3.278  3.2186  0.1601 -0.3505
 1208SOL    HW215279   0.906   8.350   3.122  0.6476 -0.4322 -0.2775
 1209SOL     OW15280   1.667   8.158   5.748  0.3280 -0.3214 -0.4495
 1209SOL    HW115281   1.711   8.118   5.829 -0.2848  0.9519  0.5315
 1209SOL    HW215282   1.723   8.140   5.667  2.8940  1.5733  0.8329
 1210SOL     OW15283   4.686   8.239   4.409  0.3231 -0.1902 -0.5108
 1210SOL    HW115284   4.638   8.156   4.383 -1.1994  0.1871  1.0259
 1210SOL    HW215285   4.782   8.231   4.384  0.0891 -2.2075 -0.8340
 1211SOL     OW15286   6.544   9.289   3.990  0.3499 -0.3135  0.1026
 1211SOL    HW115287   6.501   9.296   4.081  1.0924 -0.5777  0.4800
 1211SOL    HW215288   6.603   9.209   3.987  0.2300 -0.3733 -0.6628
 1212SOL     OW15289   0.997   2.175   3.969  0.0449  0.5183  0.0517
 1212SOL    HW115290   0.960   2.084   3.988  0.2411  0.6144  0.9392
 1212SOL    HW215291   0.930   2.244   3.996 -0.6657  0.6248 -1.8966
 1213SOL     OW15292   0.088   5.744   7.719 -0.0988  0.2586 -0.1408
 1213SOL    HW115293   0.057   5.745   7.624 -0.3746 -0.1045 -0.0581
 1213SOL    HW215294   0.114   5.650   7.745  2.6100  0.8169 -0.6983
 1214SOL     OW15295   2.197   6.238   1.052  0.3841 -0.0756  0.2497
 1214SOL    HW115296   2.122   6.302   1.038 -1.0332 -1.6023  0.7421
 1214SOL    HW215297   2.274   6.263   0.993 -1.3656  0.1218 -1.9811
 1215SOL     OW15298   7.028   8.288   5.100 -0.2456  0.2803  0.7822
 1215SOL    HW115299   7.026   8.382   5.066 -0.5317  0.9083  2.4615
 1215SOL    HW215300   7.083   8.231   5.039 -1.4911  1.1477 -1.1895
 1216SOL     OW15301   5.050   1.436   4.733 -0.5186 -0.1881 -0.3880
 1216SOL    HW115302   5.093   1.347   4.749  1.5548  0.7224 -0.7271
 1216SOL    HW215303   5.071   1.498   4.809 -1.8385  0.0670 -0.2174
 1217SOL     OW15304   1.244   7.909   5.489  0.1863  0.0243  0.6192
 1217SOL    HW115305   1.318   7.938   5.428  0.3044 -0.7269  0.3973
 1217SOL    HW215306   1.279   7.897   5.581  0.4291 -0.7206  0.4304
 1218SOL     OW15307   8.038   3.968   7.056  0.6939 -0.0629  0.4658
 1218SOL    HW115308   7.986   3.898   7.105 -0.2552 -0.1123 -0.5834
 1218SOL    HW215309   7.981   4.006   6.983  1.9072  0.3696 -0.2648
 1219SOL     OW15310   9.572   0.690   4.828  0.2697 -0.2506 -0.1424
 1219SOL    HW115311   9.494   0.674   4.767  0.0371 -1.2747  0.4051
 1219SOL    HW215312   9.643   0.741   4.780  0.5235 -1.9599 -1.5887
 1220SOL     OW15313   9.309   9.636   2.277 -0.4104 -0.0664  0.7658
 1220SOL    HW115314   9.322   9.620   2.179  0.1229 -1.1696  1.0076
 1220SOL    HW215315   9.380   9.588   2.328 -1.5787 -0.7219  1.7810
 1221SOL     OW15316   1.703   1.357   2.274  0.2784  0.0000  0.4409
 1221SOL    HW115317   1.631   1.331   2.338  0.4543 -0.1544  0.5802
 1221SOL    HW215318   1.665   1.368   2.183 -0.0680  0.7471  0.6769
 1222SOL     OW15319   9.598   4.586   7.357  0.3061 -0.6950  0.2320
 1222SOL    HW115320   9.591   4.527   7.437  1.6188  0.0277  0.8983
 1222SOL    HW215321   9.563   4.537   7.277  2.1625 -2.7285  0.6073
 1223SOL     OW15322   2.748   6.546   0.849 -0.0735 -0.1607 -0.0385
 1223SOL    HW115323   2.840   6.523   0.818  0.1691  0.7495 -0.0042
 1223SOL    HW215324   2.711   6.470   0.903  0.0406 -1.1801 -1.3651
 1224SOL     OW15325   1.279   6.332   6.408  0.1171  0.3755 -0.5602
 1224SOL    HW115326   1.328   6.286   6.482  2.2365  3.2890 -0.1063
 1224SOL    HW215327   1.323   6.310   6.321 -0.0244  0.0762 -0.5595
 1225SOL     OW15328   7.069   8.750   3.724 -0.1000  0.0180  0.2115
 1225SOL    HW115329   7.079   8.728   3.627  0.6805  1.8014 -0.1421
 1225SOL    HW215330   7.103   8.843   3.741 -1.6769  0.3310  1.9036
 1226SOL     OW15331   4.699   1.174   3.787 -0.1222 -0.0741  0.0586
 1226SOL    HW115332   4.661   1.113   3.717 -1.3771 -0.0549  0.7197
 1226SOL    HW215333   4.799   1.167   3.786 -0.2073 -1.3081 -0.6250
 1227SOL     OW15334   1.302   1.509   0.466  0.0720 -0.1234  0.4562
 1227SOL    HW115335   1.234   1.573   0.430  0.5660 -0.0736 -0.3954
 1227SOL    HW215336   1.377   1.501   0.401  0.7088 -0.4565  1.2320
 1228SOL     OW15337   4.010   8.860   2.740 -0.8575 -0.0534 -0.9513
 1228SOL    HW115338   3.915   8.890   2.740 -0.5871  0.8428 -1.7923
 1228SOL    HW215339   4.051   8.880   2.830 -1.5679 -0.7949 -0.4642
 1229SOL     OW15340   7.410   9.789   4.130 -0.6783  0.2871 -0.0834
 1229SOL    HW115341   7.435   9.730   4.054 -1.1727 -0.4744  0.3326
 1229SOL    HW215342   7.311   9.805   4.128 -0.5105  1.2793 -0.3229
 1230SOL     OW15343   0.666   9.003   6.780  0.1546 -0.6765 -0.4104
 1230SOL    HW115344   0.764   9.023   6.781  0.3140 -1.4203 -0.5424
 1230SOL    HW215345   0.614   9.088   6.786  0.8007 -0.1619 -1.8414
 1231SOL     OW15346   3.092   9.112   4.922  0.0547  0.5230  0.1996
 1231SOL    HW115347   3.003   9.156   4.932 -0.6719 -0.6092 -1.0642
 1231SOL    HW215348   3.102   9.040   4.991 -0.9547 -0.8350 -1.0309
 1232SOL     OW15349   4.036   2.982   2.018 -0.0822 -0.8771 -0.6462
 1232SOL    HW115350   4.093   3.036   2.080 -1.1460  0.8880 -1.1605
 1232SOL    HW215351   4.093   2.917   1.968  1.4499  0.6006 -0.8761
 1233SOL     OW15352   4.316   1.665   1.378 -0.1321  0.2519  0.2362
 1233SOL    HW115353   4.375   1.636   1.453  0.0700  0.5037  0.1751
 1233SOL    HW215354   4.242   1.722   1.414 -1.3983 -1.5641  0.5586
 1234SOL     OW15355   1.689   2.286   5.599  0.6775  0.2932  0.3774
 1234SOL    HW115356   1.655   2.214   5.660  0.0060 -0.4793 -0.8813
 1234SOL    HW215357   1.788   2.274   5.585  0.8840  0.6405  1.5194
 1235SOL     OW15358   9.482   5.381   7.690 -0.4382 -0.4853 -0.0051
 1235SOL    HW115359   9.420   5.344   7.621  0.5339 -1.4682 -0.3656
 1235SOL    HW215360   9.556   5.316   7.706  1.2225  1.2533 -0.5434
 1236SOL     OW15361   9.904   9.740   0.415  0.7615 -0.0438  0.0696
 1236SOL    HW115362   9.920   9.728   0.513  1.0707 -0.4060 -0.0221
 1236SOL    HW215363   9.991   9.760   0.370  0.7831 -0.9018 -0.2783
 1237SOL     OW15364   8.147   6.069   0.327  0.1199  0.3138 -0.2347
 1237SOL    HW115365   8.244   6.058   0.302  0.4149  0.5213  0.8115
 1237SOL    HW215366   8.095   6.093   0.245  0.9329  0.0764 -0.8321
 1238SOL     OW15367   6.684   0.215   4.938 -0.0618  0.5576  0.6378
 1238SOL    HW115368   6.693   0.122   4.902 -1.8057  0.7001 -0.2068
 1238SOL    HW215369   6.759   0.271   4.903 -0.3344  0.0647 -0.8022
 1239SOL     OW15370   5.764   9.027   6.643 -0.2350 -0.3882  0.5116
 1239SOL    HW115371   5.756   9.060   6.549  0.7143 -0.0537  0.5404
 1239SOL    HW215372   5.721   9.093   6.705  0.0643 -0.0889  0.4038
 1240SOL     OW15373   2.255   4.938   1.773 -0.1573 -0.3848 -0.1413
 1240SOL    HW115374   2.317   4.966   1.700  0.1286  0.4026  0.4030
 1240SOL    HW215375   2.298   4.953   1.862 -0.3546 -1.6968  0.1919
 1241SOL     OW15376   3.949   5.484   1.673 -0.0442  0.0108  0.1094
 1241SOL    HW115377   4.021   5.416   1.662  0.1791  0.2991 -0.2430
 1241SOL    HW215378   3.968   5.562   1.613 -2.0148 -1.0508 -1.9838
 1242SOL     OW15379   7.790   0.322   1.276 -0.2697  0.3867  0.3963
 1242SOL    HW115380   7.692   0.321   1.258 -0.2052  0.4821  0.0464
 1242SOL    HW215381   7.829   0.409   1.244 -0.2208  0.7048  1.3022
 1243SOL     OW15382   3.373   5.480   6.928  0.0276 -0.4413 -0.0326
 1243SOL    HW115383   3.370   5.579   6.929  0.6354 -0.4121 -0.6451
 1243SOL    HW215384   3.309   5.444   6.996  0.2044  0.3725  0.5689
 1244SOL     OW15385   7.493   1.152   0.382 -0.4622 -0.3163  0.3707
 1244SOL    HW115386   7.499   1.059   0.346  0.2860 -0.1572  0.0655
 1244SOL    HW215387   7.419   1.157   0.449 -1.8340 -0.6326 -1.0786
 1245SOL     OW15388   4.750   5.968   1.664  0.3326  0.6338 -0.3162
 1245SOL    HW115389   4.821   5.990   1.598 -0.6247  1.1808 -1.1724
 1245SOL    HW215390   4.717   6.051   1.707 -0.6272  0.5099 -0.7971
 1246SOL     OW15391   9.793   0.760   0.652  0.8354 -0.2204  0.5319
 1246SOL    HW115392   9.826   0.691   0.588  1.6983  0.1134  0.6154
 1246SOL    HW215393   9.705   0.795   0.620  1.7169  0.6484 -1.0018
 1247SOL     OW15394   9.803   5.193   0.865 -0.0338  0.3488  0.6469
 1247SOL    HW115395   9.794   5.274   0.923 -0.2517 -0.2894  1.5007
 1247SOL    HW215396   9.714   5.168   0.827  0.0217  0.4603  0.4415
 1248SOL     OW15397   0.539   7.000   7.211  0.6057  0.5091  0.0115
 1248SOL    HW115398   0.569   6.905   7.205  1.7631  0.7329  1.7511
 1248SOL    HW215399   0.460   7.015   7.152  0.0742 -1.6654  0.1611
 1249SOL     OW15400   9.822   2.359   5.299 -0.0799  0.2897  0.4490
 1249SOL    HW115401   9.858   2.390   5.210  0.9991  0.6549  1.0025
 1249SOL    HW215402   9.780   2.437   5.346 -0.3532  0.1715  0.3962
 1250SOL     OW15403   9.670   6.594   7.019 -0.0858 -0.2165 -0.0776
 1250SOL    HW115404   9.690   6.691   7.018 -0.3164 -0.1481  1.1756
 1250SOL    HW215405   9.753   6.542   7.037 -0.4983 -0.0824  2.2969
 1251SOL     OW15406   5.329   1.271   5.102 -0.0995  0.1561 -0.2584
 1251SOL    HW115407   5.277   1.208   5.159 -0.4409  1.0200  0.3919
 1251SOL    HW215408   5.385   1.219   5.038  2.6259 -0.9720  2.8724
 1252SOL     OW15409   8.634   4.395   1.146 -0.3252 -0.7227 -0.3846
 1252SOL    HW115410   8.537   4.397   1.170  0.0275  0.9035  1.0566
 1252SOL    HW215411   8.677   4.315   1.187 -0.8001 -0.7370  0.0970
 1253SOL     OW15412   6.375   2.884   0.091  1.0093  0.2748  0.1526
 1253SOL    HW115413   6.329   2.802   0.058  0.8927  0.8861 -1.2338
 1253SOL    HW215414   6.308   2.957   0.104  1.2257  0.3919  0.6345
 1254SOL     OW15415   8.521   2.096   5.868  0.3246  0.1490  0.5848
 1254SOL    HW115416   8.580   2.161   5.820 -0.8758  0.2023 -0.8684
 1254SOL    HW215417   8.538   2.004   5.834 -0.0925  0.1056  0.4836
 1255SOL     OW15418   0.510   6.162   3.618 -0.1824 -0.5767  0.0566
 1255SOL    HW115419   0.607   6.155   3.592  0.0377 -0.0489  0.7438
 1255SOL    HW215420   0.463   6.223   3.555  0.1750  0.0560  0.4023
 1256SOL     OW15421   4.489   3.578   5.468 -0.5303 -0.3535 -0.9910
 1256SOL    HW115422   4.424   3.533   5.407 -1.2919 -0.7119  0.0616
 1256SOL    HW215423   4.464   3.559   5.563 -0.8647  2.2735 -0.5143
 1257SOL     OW15424   6.100   8.467   2.161  0.2049  0.6731 -0.5195
 1257SOL    HW115425   6.175   8.479   2.226  0.6711 -1.5290 -0.6213
 1257SOL    HW215426   6.122   8.512   2.075  1.5638 -0.2244 -0.6531
 1258SOL     OW15427   7.512   8.608   6.911 -0.1638  0.3961  0.3521
 1258SOL    HW115428   7.607   8.629   6.885  0.5627 -0.3415  2.3293
 1258SOL    HW215429   7.460   8.694   6.915  1.2772  1.2486  2.4407
 1259SOL     OW15430   7.764   8.640   2.866 -0.7659 -0.3867  0.2301
 1259SOL    HW115431   7.680   8.647   2.812 -0.1296 -3.3002 -1.2298
 1259SOL    HW215432   7.782   8.545   2.889  1.6722  0.2735  1.2885
 1260SOL     OW15433   8.813   2.210   3.195 -0.2358  0.2794 -0.4752
 1260SOL    HW115434   8.840   2.305   3.208 -0.9046  0.3773  0.2400
 1260SOL    HW215435   8.860   2.152   3.261  0.7850  0.0002 -1.4333
 1261SOL     OW15436   8.784   2.037   6.978 -0.3317  0.1766 -0.0883
 1261SOL    HW115437   8.829   1.953   7.010 -1.7997 -0.9205 -0.8276
 1261SOL    HW215438   8.754   2.091   7.056  0.4253 -0.1026  0.4001
 1262SOL     OW15439   8.264   9.024   7.379 -0.3157  0.6737 -0.5030
 1262SOL    HW115440   8.225   9.105   7.335 -0.6504  0.7156 -0.1394
 1262SOL    HW215441   8.222   8.942   7.340 -3.0216  0.7997  1.9604
 1263SOL     OW15442   0.309   2.197   0.135 -0.3454  0.1023 -0.1139
 1263SOL    HW115443   0.342   2.103   0.128 -0.1634  0.0804  0.9392
 1263SOL    HW215444   0.355   2.242   0.211 -1.0116  0.8033 -0.1259
 1264SOL     OW15445   0.193   3.534   6.115  0.4825  0.6175  0.1547
 1264SOL    HW115446   0.179   3.479   6.033 -1.8999 -1.5505  1.9301
 1264SOL    HW215447   0.143   3.620   6.108 -0.2533  0.1436 -0.3829
 1265SOL     OW15448   9.396   1.710   2.293  0.3290 -0.3202 -0.2051
 1265SOL    HW115449   9.418   1.741   2.201 -3.0330  0.9059 -0.6504
 1265SOL    HW215450   9.385   1.789   2.353 -0.5834 -0.9890  0.5116
 1266SOL     OW15451   0.087   9.558   7.614  0.5178 -0.0235 -0.6531
 1266SOL    HW115452   0.140   9.515   7.541  1.0636  1.2795 -1.0263
 1266SOL    HW215453  -0.003   9.584   7.579  0.3884 -0.3546 -0.5716
 1267SOL     OW15454   5.144   1.386   3.279  0.5600 -0.1382  0.0647
 1267SOL    HW115455   5.110   1.479   3.294  1.6805  0.3891 -0.6069
 1267SOL    HW215456   5.097   1.345   3.201  1.1135  0.4049 -0.5528
 1268SOL     OW15457   2.468   8.439   5.166 -0.1480 -0.1201 -0.0419
 1268SOL    HW115458   2.438   8.458   5.073  0.6177  0.0248 -0.2611
 1268SOL    HW215459   2.433   8.510   5.227 -0.0252  0.1939 -0.3345
 1269SOL     OW15460   6.947   0.537   0.855  0.2758 -1.2107  0.2358
 1269SOL    HW115461   6.934   0.500   0.947 -1.2374  0.3271  0.6791
 1269SOL    HW215462   6.912   0.472   0.788  1.7376 -2.5052  0.7168
 1270SOL     OW15463   8.791   2.038   2.995 -0.4180  0.2969 -0.3953
 1270SOL    HW115464   8.753   2.065   2.907  1.6508  1.0501 -1.0916
 1270SOL    HW215465   8.799   2.119   3.054 -0.0345  0.1200 -0.2003
 1271SOL     OW15466   7.333   5.608   2.564 -0.5037 -0.0071 -0.4944
 1271SOL    HW115467   7.379   5.617   2.476  0.1596 -1.7408 -0.3613
 1271SOL    HW215468   7.391   5.647   2.636  0.1804 -0.9746 -0.5024
 1272SOL     OW15469   1.500   3.327   6.737 -0.4067 -0.3610 -0.2533
 1272SOL    HW115470   1.484   3.414   6.784 -0.2335 -0.7035  0.4441
 1272SOL    HW215471   1.421   3.305   6.680 -0.6111  0.0681 -0.1365
 1273SOL     OW15472   5.892   5.580   1.084 -0.3132 -0.0406 -0.3846
 1273SOL    HW115473   5.838   5.619   1.010 -0.3300  1.3666  0.3628
 1273SOL    HW215474   5.856   5.611   1.172 -0.3643 -1.7832  0.2276
 1274SOL     OW15475   4.954   9.696   1.126  0.0542  0.2712 -0.0580
 1274SOL    HW115476   4.952   9.603   1.162 -0.0232  0.4289  0.3460
 1274SOL    HW215477   4.869   9.715   1.077 -0.2778  0.4089  0.5660
 1275SOL     OW15478   0.877   9.413   2.060 -0.4703 -0.4544  0.5242
 1275SOL    HW115479   0.917   9.325   2.087 -0.3800 -0.8709 -0.9111
 1275SOL    HW215480   0.947   9.471   2.019 -0.6650  0.0481  0.8973
 1276SOL     OW15481   7.296   1.172   5.625 -0.1093  0.1232 -0.1048
 1276SOL    HW115482   7.367   1.228   5.582  0.2111  0.2480  0.5840
 1276SOL    HW215483   7.336   1.118   5.699 -0.3309 -1.3189 -1.0065
 1277SOL     OW15484   0.945   4.841   3.329 -0.2162 -0.2481 -0.2087
 1277SOL    HW115485   0.853   4.816   3.358 -0.9016  1.7760 -0.5504
 1277SOL    HW215486   0.968   4.791   3.246 -0.1389 -2.3847  1.0536
 1278SOL     OW15487   4.337   2.986   3.034  0.2950  0.0033  0.2665
 1278SOL    HW115488   4.241   2.972   3.059 -0.4750  2.0281 -1.4209
 1278SOL    HW215489   4.359   2.929   2.955  1.0632 -1.9065  1.8072
 1279SOL     OW15490   2.450   4.245   0.018  0.2525  0.0911  0.2458
 1279SOL    HW115491   2.510   4.247  -0.063  0.9983  0.4047  0.7980
 1279SOL    HW215492   2.416   4.152   0.032  0.9308 -0.1762  0.1515
 1280SOL     OW15493   5.058   0.200   1.158 -0.3283  0.0634 -0.5126
 1280SOL    HW115494   4.983   0.267   1.163  0.9858  1.5155  0.1175
 1280SOL    HW215495   5.110   0.202   1.243 -0.4255 -1.9911 -0.3752
 1281SOL     OW15496   9.159   7.263   6.858  0.7330  0.1483  0.3059
 1281SOL    HW115497   9.157   7.289   6.954  0.3108 -1.1792  0.6650
 1281SOL    HW215498   9.202   7.173   6.848  1.2019  0.4836 -0.7963
 1282SOL     OW15499   7.528   3.848   0.647  0.5266 -0.3098  0.5007
 1282SOL    HW115500   7.519   3.880   0.553 -1.6822 -1.5123  0.2750
 1282SOL    HW215501   7.510   3.924   0.710  0.9400  0.2326 -0.0338
 1283SOL     OW15502   4.097   0.334   7.167  0.0997  0.2736 -0.2460
 1283SOL    HW115503   4.156   0.412   7.190  0.3136  0.0031  0.1293
 1283SOL    HW215504   4.084   0.330   7.068  1.3458 -0.1267 -0.4071
 1284SOL     OW15505   4.318   8.494   1.793 -0.7515  0.3522  0.1220
 1284SOL    HW115506   4.306   8.494   1.694  0.6412  0.4686 -0.0587
 1284SOL    HW215507   4.382   8.567   1.819 -1.5199  0.6707  1.1614
 1285SOL     OW15508   4.398   3.825   0.457  0.3089  0.0079 -0.5423
 1285SOL    HW115509   4.312   3.814   0.506  1.6972 -1.4972  1.6482
 1285SOL    HW215510   4.426   3.921   0.460 -0.1771  0.1227  0.6694
 1286SOL     OW15511   0.422   8.432   7.962  0.1822 -0.0454 -0.4311
 1286SOL    HW115512   0.459   8.478   8.043 -0.9166  0.8349 -0.4146
 1286SOL    HW215513   0.454   8.337   7.961 -0.7814 -0.4386  1.7270
 1287SOL     OW15514   2.870   9.468   0.139  0.8211 -0.0180  0.3745
 1287SOL    HW115515   2.966   9.462   0.168  0.4631 -2.7959  1.1923
 1287SOL    HW215516   2.812   9.486   0.218  0.5234 -0.0208  0.1572
 1288SOL     OW15517   8.162   0.519   3.150  0.4513 -0.1966 -0.2030
 1288SOL    HW115518   8.093   0.448   3.137 -0.4664  0.8799 -1.3724
 1288SOL    HW215519   8.130   0.604   3.109  2.2307  0.4755 -0.2410
 1289SOL     OW15520   9.022   9.587   4.741 -0.3163 -0.1764  1.0818
 1289SOL    HW115521   9.073   9.579   4.826  0.5946  2.4212  0.8179
 1289SOL    HW215522   9.077   9.636   4.674 -0.7538 -2.7818 -1.2709
 1290SOL     OW15523   7.677   4.576   1.893  0.1063  0.5665  0.2584
 1290SOL    HW115524   7.611   4.523   1.945  1.0642 -2.4126 -1.4363
 1290SOL    HW215525   7.768   4.565   1.932  0.4195  0.3641 -0.5035
 1291SOL     OW15526   0.033   6.780   3.534  0.0166 -0.0164  0.6656
 1291SOL    HW115527   0.094   6.723   3.588  1.1096 -0.1715 -0.7037
 1291SOL    HW215528  -0.037   6.820   3.593 -0.8876 -2.8939  1.6171
 1292SOL     OW15529   0.710   3.157   0.126 -0.2549 -0.3523  0.2908
 1292SOL    HW115530   0.621   3.131   0.088 -0.2761 -1.0363  0.7892
 1292SOL    HW215531   0.775   3.083   0.111  0.3203  0.2807 -0.3551
 1293SOL     OW15532   0.799   4.010   1.368  0.1649 -0.2672  0.2122
 1293SOL    HW115533   0.717   3.988   1.315 -0.2986  1.4325  0.2015
 1293SOL    HW215534   0.775   4.028   1.463  0.9750 -3.1232  0.9970
 1294SOL     OW15535   7.435   9.078   2.355  0.6501  0.4250 -1.1017
 1294SOL    HW115536   7.407   8.993   2.399  0.3558  0.5601 -1.0282
 1294SOL    HW215537   7.455   9.147   2.425 -0.2343  0.7728 -1.1758
 1295SOL     OW15538   9.055   1.057   2.013 -0.7160  0.4236  1.0054
 1295SOL    HW115539   8.989   1.126   1.983 -1.1352 -0.1684  0.5373
 1295SOL    HW215540   9.040   1.036   2.110 -1.6373 -0.1621  0.7452
 1296SOL     OW15541   3.311   2.093   7.429  0.2720 -0.5650  0.0676
 1296SOL    HW115542   3.390   2.155   7.434  0.0855 -0.1296 -1.8886
 1296SOL    HW215543   3.320   2.035   7.348 -1.4352 -0.4583 -0.2221
 1297SOL     OW15544   1.315   6.265   5.856  0.2815  0.2188 -1.0995
 1297SOL    HW115545   1.234   6.216   5.824  0.6282  0.2697 -2.0798
 1297SOL    HW215546   1.291   6.359   5.878  0.4169  0.7268 -3.0677
 1298SOL     OW15547   3.900   6.265   3.182  0.5583 -0.0322 -0.3312
 1298SOL    HW115548   3.998   6.244   3.182  0.1547 -2.0359 -0.3102
 1298SOL    HW215549   3.849   6.184   3.213 -1.1291  0.8081 -0.8784
 1299SOL     OW15550   4.312   4.090   4.970  0.3820  0.0585  0.5112
 1299SOL    HW115551   4.217   4.111   4.993  0.1394 -0.7752  0.3273
 1299SOL    HW215552   4.346   4.018   5.031  1.2548  1.1069  1.2774
 1300SOL     OW15553   7.655   4.506   3.559  0.3548  0.7023 -0.6505
 1300SOL    HW115554   7.584   4.449   3.600  0.0870  0.9263 -0.8028
 1300SOL    HW215555   7.614   4.565   3.488  0.1894  2.8018  1.1419
 1301SOL     OW15556   4.674   3.767   2.077 -0.1462  0.4421  0.3661
 1301SOL    HW115557   4.752   3.729   2.027  0.7638  1.5631  0.9116
 1301SOL    HW215558   4.679   3.867   2.076 -1.3608  0.5191  0.7516
 1302SOL     OW15559   1.758   1.186   6.390 -0.8210 -0.6931 -0.1034
 1302SOL    HW115560   1.786   1.238   6.471 -1.2835  0.6507 -0.7836
 1302SOL    HW215561   1.694   1.114   6.417  1.3280 -2.1922  1.1130
 1303SOL     OW15562   7.113   2.034   2.963  0.2399 -0.1948  0.6066
 1303SOL    HW115563   7.069   2.026   2.874  1.0340 -1.3085  0.2952
 1303SOL    HW215564   7.075   1.966   3.026  1.4435 -1.1219  0.3538
 1304SOL     OW15565   4.474   7.353   2.097 -0.5126 -0.4213 -0.0809
 1304SOL    HW115566   4.441   7.261   2.075 -0.6660 -0.0038 -1.7225
 1304SOL    HW215567   4.398   7.407   2.133 -1.0693 -0.1928 -1.5404
 1305SOL     OW15568   4.532   3.619   0.820  0.0493  0.3481 -0.0611
 1305SOL    HW115569   4.603   3.682   0.787  0.2118  0.2674  0.1316
 1305SOL    HW215570   4.534   3.535   0.766  1.4347 -0.4720  1.2303
 1306SOL     OW15571   4.411   0.442   2.168 -0.0901  0.5028  0.4049
 1306SOL    HW115572   4.467   0.516   2.204 -0.0476 -0.4413  2.3237
 1306SOL    HW215573   4.319   0.448   2.206  0.2394 -1.0931  1.5180
 1307SOL     OW15574   4.472   8.376   0.247 -0.3089 -0.3217 -0.1930
 1307SOL    HW115575   4.385   8.383   0.198  0.1347  0.2482 -0.9072
 1307SOL    HW215576   4.473   8.292   0.302 -1.0932 -0.5986 -0.5989
 1308SOL     OW15577   3.874   2.175   3.891 -0.1023  0.4850 -0.3291
 1308SOL    HW115578   3.956   2.196   3.838 -0.8830  2.0675 -0.9454
 1308SOL    HW215579   3.878   2.222   3.979 -0.2509  0.4122 -0.2827
 1309SOL     OW15580   4.724   8.436   7.345 -0.0059 -0.2968 -0.7473
 1309SOL    HW115581   4.655   8.365   7.329 -2.0609  1.8188 -1.6455
 1309SOL    HW215582   4.752   8.435   7.441 -0.0132 -2.2677 -0.7426
 1310SOL     OW15583   0.142   5.064   1.092 -0.1182 -0.0019  0.4649
 1310SOL    HW115584   0.052   5.045   1.054  1.0594  1.6349 -3.3295
 1310SOL    HW215585   0.162   4.997   1.164 -2.8938 -2.5962 -1.0306
 1311SOL     OW15586   2.938   0.843   2.911  0.4331 -0.2717 -0.2601
 1311SOL    HW115587   2.955   0.791   2.828 -1.6469 -0.9629 -0.2973
 1311SOL    HW215588   2.986   0.800   2.988 -0.1807 -1.4785 -0.5372
 1312SOL     OW15589   0.208   2.860   0.715 -0.0062 -0.2014 -0.2103
 1312SOL    HW115590   0.277   2.803   0.670 -0.0188 -0.4570  0.1000
 1312SOL    HW215591   0.253   2.940   0.755 -0.0586  0.2820 -1.1002
 1313SOL     OW15592   5.436   3.970   0.348 -0.3962  0.3253  0.0950
 1313SOL    HW115593   5.375   3.905   0.393 -1.3698  0.1779 -1.4214
 1313SOL    HW215594   5.390   4.059   0.341  0.2780  0.7205  0.6031
 1314SOL     OW15595   2.883   1.444   5.790 -0.1685 -0.3275 -0.2157
 1314SOL    HW115596   2.887   1.363   5.732 -1.0033 -0.4743 -0.0755
 1314SOL    HW215597   2.789   1.477   5.795  0.0803  0.3434  0.1545
 1315SOL     OW15598   1.874   0.356   6.295 -0.0079 -0.4685  0.0566
 1315SOL    HW115599   1.973   0.371   6.285 -0.2565  2.2603  1.3991
 1315SOL    HW215600   1.826   0.392   6.216  0.0171 -1.4607 -0.4221
 1316SOL     OW15601   4.418   5.954   3.578  0.6141  0.0505 -0.1357
 1316SOL    HW115602   4.487   5.884   3.557 -2.1639 -1.8227 -3.5924
 1316SOL    HW215603   4.457   6.044   3.562  1.9514 -1.0146 -3.4612
 1317SOL     OW15604   2.124   0.449   7.886 -0.4530  0.1817 -0.3846
 1317SOL    HW115605   2.157   0.516   7.953 -0.9085 -0.2238  0.2494
 1317SOL    HW215606   2.033   0.475   7.854 -1.1199 -0.7406  0.7240
 1318SOL     OW15607   9.749   8.488   3.914 -0.3574 -0.7357  0.1624
 1318SOL    HW115608   9.707   8.423   3.977 -1.6364 -0.5155 -0.4474
 1318SOL    HW215609   9.778   8.440   3.831 -1.1589 -0.5674 -0.2219
 1319SOL     OW15610   9.650   5.545   2.518  0.2581  0.1913 -0.4224
 1319SOL    HW115611   9.567   5.557   2.572 -0.4995  1.2421 -1.7896
 1319SOL    HW215612   9.713   5.485   2.567 -1.2021 -0.4322  0.7452
 1320SOL     OW15613   2.589   3.054   7.039  0.2833 -0.1817  0.0603
 1320SOL    HW115614   2.645   3.019   6.963 -0.0167 -1.4199  0.4011
 1320SOL    HW215615   2.628   3.023   7.126 -0.0916  0.1978  0.3661
 1321SOL     OW15616   8.668   7.756   3.800 -0.0798  0.7910 -0.0766
 1321SOL    HW115617   8.634   7.723   3.712  0.9185  1.2227 -0.6412
 1321SOL    HW215618   8.591   7.777   3.860 -0.7591 -0.0531 -0.6402
 1322SOL     OW15619   3.172   8.414   6.783  0.1469 -0.4897  0.1859
 1322SOL    HW115620   3.133   8.438   6.872 -0.3969 -0.3443 -0.0839
 1322SOL    HW215621   3.152   8.318   6.763 -1.8009  0.0875 -0.8106
 1323SOL     OW15622   8.133   8.983   4.513 -0.2745  0.3162  0.4014
 1323SOL    HW115623   8.208   8.974   4.579  0.5271 -2.1920 -0.7799
 1323SOL    HW215624   8.084   9.069   4.529  0.5856  0.2829  3.5234
 1324SOL     OW15625   8.778   5.126   1.828 -0.3084  0.4522  0.0412
 1324SOL    HW115626   8.778   5.028   1.851 -0.1487 -0.1110 -2.2794
 1324SOL    HW215627   8.700   5.146   1.768  0.1504  1.5927 -0.1813
 1325SOL     OW15628   7.435   6.722   5.934 -0.0762 -0.4920 -0.8595
 1325SOL    HW115629   7.441   6.625   5.910  1.8454 -0.4801 -0.5643
 1325SOL    HW215630   7.370   6.768   5.874 -0.2446 -1.7603 -1.6745
 1326SOL     OW15631   8.623   8.277   6.965  0.2514 -0.2711 -0.5083
 1326SOL    HW115632   8.608   8.372   6.992  1.3979  0.1745 -1.4138
 1326SOL    HW215633   8.566   8.217   7.021 -1.0087  0.9975 -0.4076
 1327SOL     OW15634   4.162   3.482   4.873 -0.1138  0.1300 -0.1324
 1327SOL    HW115635   4.204   3.432   4.948  0.6989 -0.7319 -1.1501
 1327SOL    HW215636   4.195   3.577   4.872  0.5593 -0.1034  0.0583
 1328SOL     OW15637   4.559   0.623   0.698  0.2046 -0.1635 -0.2860
 1328SOL    HW115638   4.550   0.722   0.684 -0.6193 -0.2701 -0.5410
 1328SOL    HW215639   4.476   0.588   0.741 -1.0091 -1.3122 -3.4269
 1329SOL     OW15640   4.212   3.973   1.425 -1.1648  0.1337  0.8140
 1329SOL    HW115641   4.139   3.965   1.493 -1.7394 -2.1835 -0.0370
 1329SOL    HW215642   4.293   3.924   1.458 -1.3134 -0.6536  0.0565
 1330SOL     OW15643   2.421   1.216   4.855 -0.3920  0.4078 -0.3533
 1330SOL    HW115644   2.422   1.248   4.950  0.0487  1.3605 -0.6713
 1330SOL    HW215645   2.396   1.119   4.852  0.8243  0.0561  0.8251
 1331SOL     OW15646   8.181   6.552   4.692  0.2341 -0.2260  0.0788
 1331SOL    HW115647   8.154   6.577   4.599 -0.6305 -2.4596 -0.3079
 1331SOL    HW215648   8.113   6.584   4.757  0.8186  1.3059 -0.0516
 1332SOL     OW15649   4.309   7.672   2.414  0.5618 -0.6874 -0.4561
 1332SOL    HW115650   4.314   7.615   2.332 -0.5168  0.5754 -1.4228
 1332SOL    HW215651   4.242   7.746   2.399  0.4405 -0.3820  1.5145
 1333SOL     OW15652   1.138   1.258   0.392  0.1761  0.3420  0.1060
 1333SOL    HW115653   1.204   1.183   0.402 -0.7989 -0.4103  1.0125
 1333SOL    HW215654   1.183   1.344   0.413  1.0294 -0.0987  0.1205
 1334SOL     OW15655   9.564   6.563   0.342  0.4037  0.2179 -0.0325
 1334SOL    HW115656   9.542   6.588   0.248 -1.8825 -2.3711 -0.2647
 1334SOL    HW215657   9.529   6.632   0.405 -2.0941 -0.2624 -0.8579
 1335SOL     OW15658   6.872   9.109   1.888 -0.0499 -0.7123 -0.3951
 1335SOL    HW115659   6.789   9.059   1.862 -0.2483 -0.1227 -0.9246
 1335SOL    HW215660   6.934   9.048   1.937 -1.6709 -0.6364  1.8017
 1336SOL     OW15661   9.909   3.242   0.086 -0.7007 -0.4292 -0.0826
 1336SOL    HW115662   9.831   3.304   0.090 -0.4396 -0.1680  1.0892
 1336SOL    HW215663   9.990   3.288   0.123 -0.3139 -1.1740  0.0020
 1337SOL     OW15664   0.790   2.043   2.846 -0.5389 -0.2868 -0.1059
 1337SOL    HW115665   0.742   2.105   2.908 -1.1853 -0.2282 -0.6610
 1337SOL    HW215666   0.727   1.975   2.812  0.1983 -1.3397  0.5912
 1338SOL     OW15667   1.246   4.862   0.188 -0.6581 -0.5095  0.3069
 1338SOL    HW115668   1.152   4.836   0.164  0.0227 -2.1957 -0.6101
 1338SOL    HW215669   1.262   4.843   0.285 -1.4085  0.2514  0.5895
 1339SOL     OW15670   5.964   1.536   6.129  0.2197  0.6173 -0.2166
 1339SOL    HW115671   5.890   1.487   6.175  1.5677 -0.5267  0.7749
 1339SOL    HW215672   6.008   1.598   6.193  0.3562  1.0217 -0.7003
 1340SOL     OW15673   8.825   4.336   4.947 -0.3860 -0.0463  0.1944
 1340SOL    HW115674   8.791   4.254   4.992 -1.6198 -0.5425 -1.5918
 1340SOL    HW215675   8.922   4.324   4.924  0.2599  0.2043  2.6032
 1341SOL     OW15676   7.910   4.701   0.351  0.0564  0.0127  0.0489
 1341SOL    HW115677   7.900   4.747   0.262 -0.1876  0.2695  0.2068
 1341SOL    HW215678   7.922   4.603   0.337 -1.2064 -0.1056 -0.2149
 1342SOL     OW15679   9.133   9.617   0.346 -0.3820  0.0997 -0.0468
 1342SOL    HW115680   9.147   9.519   0.349 -1.0280 -0.0077 -0.3743
 1342SOL    HW215681   9.114   9.651   0.438 -1.6690 -0.3243 -0.1353
 1343SOL     OW15682   0.045   1.046   2.500 -0.2780  0.3451  0.0994
 1343SOL    HW115683   0.085   1.131   2.465  0.2971 -0.1039 -0.3469
 1343SOL    HW215684   0.081   1.027   2.591 -1.1651  1.0948  0.6189
 1344SOL     OW15685   8.941   3.883   2.998 -0.5471  0.3000  0.3866
 1344SOL    HW115686   8.921   3.970   3.041  0.8978  0.2239  1.2779
 1344SOL    HW215687   9.014   3.895   2.929 -0.0188 -0.2647  0.8366
 1345SOL     OW15688   2.257   9.242   0.159 -0.5630  0.1408 -0.4202
 1345SOL    HW115689   2.324   9.213   0.091 -1.4358 -1.2537 -0.7113
 1345SOL    HW215690   2.282   9.203   0.248 -0.8352 -0.1643 -0.4760
 1346SOL     OW15691   8.902   1.555   0.685 -0.0664 -0.0394 -0.1587
 1346SOL    HW115692   8.842   1.529   0.610  0.9269  0.6266 -1.2086
 1346SOL    HW215693   8.848   1.591   0.761 -0.9360  1.3317 -1.4008
 1347SOL     OW15694   1.974   9.844   2.700  0.5913 -0.2735  0.0294
 1347SOL    HW115695   1.956   9.784   2.622  1.6488  0.6584 -0.9721
 1347SOL    HW215696   1.898   9.841   2.764  0.0977 -1.7282 -0.6202
 1348SOL     OW15697   2.468   5.324   5.972  0.2270  0.3600 -0.4651
 1348SOL    HW115698   2.383   5.375   5.964  0.4008  0.8344  0.5081
 1348SOL    HW215699   2.497   5.292   5.882 -1.9429 -1.4346 -0.5674
 1349SOL     OW15700   3.818   4.730   2.851  0.0068  0.0788 -0.1137
 1349SOL    HW115701   3.898   4.769   2.806  0.4323 -0.2502  0.3547
 1349SOL    HW215702   3.785   4.652   2.799 -1.1484  1.3473 -1.3295
 1350SOL     OW15703   3.299   9.877   6.090  0.3854 -0.6918 -0.1270
 1350SOL    HW115704   3.393   9.912   6.081 -0.0447  0.0127 -2.1973
 1350SOL    HW215705   3.277   9.864   6.186  2.5631 -0.7093  0.3951
 1351SOL     OW15706   1.414   0.822   6.995  0.2038  0.3215  0.1256
 1351SOL    HW115707   1.466   0.816   7.080 -0.7107  0.3478  0.6946
 1351SOL    HW215708   1.466   0.780   6.921  0.5414 -0.6712  0.9110
 1352SOL     OW15709   5.824   8.367   3.370 -0.5874  0.5405 -0.2810
 1352SOL    HW115710   5.861   8.334   3.283  1.5750  3.2630 -0.4839
 1352SOL    HW215711   5.889   8.347   3.444 -1.6427 -0.2825  0.4297
 1353SOL     OW15712   1.515   9.155   0.723  0.0805 -0.2490  0.1451
 1353SOL    HW115713   1.482   9.203   0.641 -1.6358 -1.6074  0.0246
 1353SOL    HW215714   1.579   9.083   0.696 -0.5105 -0.7190 -0.0205
 1354SOL     OW15715   4.747   2.932   4.143  0.3214 -0.0478  0.4928
 1354SOL    HW115716   4.796   3.005   4.191  1.6077 -0.6242  0.0736
 1354SOL    HW215717   4.775   2.931   4.047 -0.4083 -0.4733  0.2802
 1355SOL     OW15718   0.126   3.384   4.355 -0.5347 -0.2638 -0.2474
 1355SOL    HW115719   0.033   3.373   4.320 -0.6652 -0.4365  0.1507
 1355SOL    HW215720   0.158   3.477   4.336 -1.8816  0.7308  2.1461
 1356SOL     OW15721   3.292   9.955   2.746  0.5059 -0.4367  0.5434
 1356SOL    HW115722   3.372   9.903   2.719  0.2157 -0.3657 -0.4718
 1356SOL    HW215723   3.239   9.904   2.814  1.0361 -0.7848  0.6900
 1357SOL     OW15724   0.712   0.324   6.574 -0.4306  0.3898  1.0135
 1357SOL    HW115725   0.773   0.403   6.566 -0.7737  0.4865 -0.9432
 1357SOL    HW215726   0.766   0.240   6.578 -0.1104  0.6214  1.6301
 1358SOL     OW15727   3.482   4.747   1.502  0.1809 -0.1124  0.1803
 1358SOL    HW115728   3.472   4.649   1.487  1.3251 -0.5008  1.8277
 1358SOL    HW215729   3.427   4.775   1.581  0.2614  0.4859  0.0317
 1359SOL     OW15730   7.516   9.484   6.260 -0.4695  0.6587  0.6042
 1359SOL    HW115731   7.491   9.392   6.288  1.8434  0.0362  0.7218
 1359SOL    HW215732   7.527   9.487   6.160 -0.0226  0.6659  0.6512
 1360SOL     OW15733   8.941   7.010   1.480  0.2783  0.3001  0.4215
 1360SOL    HW115734   8.955   6.994   1.577  1.2141 -0.5385  0.1594
 1360SOL    HW215735   8.898   6.930   1.438  0.8575  0.2212 -0.0458
 1361SOL     OW15736   6.469   0.589   4.726  0.5685 -0.0844 -0.1232
 1361SOL    HW115737   6.422   0.506   4.755  0.0291  0.6487  1.1477
 1361SOL    HW215738   6.421   0.669   4.763 -0.4378  0.9311 -3.4389
 1362SOL     OW15739   9.475   5.627   5.208  0.4172 -0.0804 -0.2109
 1362SOL    HW115740   9.503   5.564   5.280  0.5619  1.7055  1.3178
 1362SOL    HW215741   9.378   5.649   5.218  0.2832 -0.3075 -0.9438
 1363SOL     OW15742   2.219   8.356   5.483  0.2157 -0.4841 -0.1270
 1363SOL    HW115743   2.313   8.384   5.502 -0.0514 -0.4104  1.0965
 1363SOL    HW215744   2.161   8.437   5.475 -0.2981 -0.6212  2.0512
 1364SOL     OW15745   6.324   8.675   3.619  0.1902 -0.3480  0.0252
 1364SOL    HW115746   6.230   8.640   3.617 -0.0464  0.1936  1.0703
 1364SOL    HW215747   6.350   8.707   3.529 -1.1548  0.8426  0.0498
 1365SOL     OW15748   6.687   1.442   0.051 -0.1043 -0.2685 -0.1388
 1365SOL    HW115749   6.664   1.378   0.124 -0.0019  0.1991  0.3053
 1365SOL    HW215750   6.775   1.485   0.070  0.3550 -0.8243 -1.0008
 1366SOL     OW15751   0.104   4.234   6.306  0.1751  0.5618 -0.4991
 1366SOL    HW115752   0.094   4.234   6.206  1.3675  2.2872 -0.6412
 1366SOL    HW215753   0.202   4.234   6.329 -0.0950  0.7968  0.6569
 1367SOL     OW15754   3.943   8.164   2.992 -0.0086  0.7366  0.1833
 1367SOL    HW115755   4.017   8.187   3.055  1.8500 -1.3046 -1.1797
 1367SOL    HW215756   3.938   8.065   2.981 -1.5665  0.9647 -1.4010
 1368SOL     OW15757   0.700   9.736   5.492 -0.1379  0.1900  0.8941
 1368SOL    HW115758   0.792   9.762   5.523 -0.4449  1.6141  0.6463
 1368SOL    HW215759   0.702   9.715   5.395  0.3419 -1.8893  1.3363
 1369SOL     OW15760   0.148   2.131   4.971  0.1384 -0.4409  0.8120
 1369SOL    HW115761   0.217   2.128   5.043  0.6688 -0.2846  0.3159
 1369SOL    HW215762   0.147   2.044   4.921 -0.2856 -0.5798  1.0608
 1370SOL     OW15763   1.828   8.809   7.249 -0.3071 -0.3821  0.2373
 1370SOL    HW115764   1.748   8.754   7.225 -0.5321  0.2057 -0.3526
 1370SOL    HW215765   1.911   8.756   7.230 -0.4542  0.3663 -2.6017
 1371SOL     OW15766   1.755   2.195   4.593 -0.2203  0.6814  0.5332
 1371SOL    HW115767   1.763   2.141   4.509  0.5208  1.1702  0.2848
 1371SOL    HW215768   1.843   2.195   4.640 -0.6761  0.2838  1.3900
 1372SOL     OW15769   9.646   6.520   4.593 -0.1349  0.1638  0.6097
 1372SOL    HW115770   9.640   6.560   4.501  2.0953  0.1305  0.4274
 1372SOL    HW215771   9.565   6.464   4.610 -0.6147  0.2357 -1.3040
 1373SOL     OW15772   6.193   9.151   3.398  0.4873  0.3928 -0.1188
 1373SOL    HW115773   6.123   9.219   3.374  0.2420  0.2185  0.1129
 1373SOL    HW215774   6.191   9.133   3.496  1.5310  1.1391  0.0486
 1374SOL     OW15775   3.811   5.053   3.043  0.0375  0.0757  0.1091
 1374SOL    HW115776   3.730   5.090   2.997  0.1443 -0.5389 -0.5664
 1374SOL    HW215777   3.886   5.046   2.978  0.4656  0.0941  0.6008
 1375SOL     OW15778   3.194   9.332   3.105 -0.0944  0.2769  0.5432
 1375SOL    HW115779   3.294   9.333   3.103 -0.0925  2.6981 -0.0527
 1375SOL    HW215780   3.162   9.250   3.152  2.1735 -0.5127  0.7489
 1376SOL     OW15781   5.362   7.807   4.847 -0.1002 -0.1890  0.3374
 1376SOL    HW115782   5.290   7.767   4.904  0.1065 -1.1116 -0.0463
 1376SOL    HW215783   5.367   7.759   4.760  0.1900  0.6425 -0.1148
 1377SOL     OW15784   9.051   7.533   6.396 -0.0322  0.0363  0.2666
 1377SOL    HW115785   9.115   7.525   6.472 -0.2766 -0.7834  0.3916
 1377SOL    HW215786   9.061   7.623   6.353 -1.0856  1.1758  2.3305
 1378SOL     OW15787   8.893   8.448   2.702  0.1408 -0.1659 -0.2682
 1378SOL    HW115788   8.993   8.447   2.701  0.1845  1.8849 -1.2204
 1378SOL    HW215789   8.861   8.531   2.747 -1.1625 -1.2826  0.8955
 1379SOL     OW15790   5.294   3.558   7.467  0.0262  0.4083  0.3411
 1379SOL    HW115791   5.221   3.597   7.412 -0.7546 -1.6165 -0.0976
 1379SOL    HW215792   5.307   3.614   7.549 -2.6194  0.3331  0.8660
 1380SOL     OW15793   4.882   7.457   3.366 -0.7369  0.0780  0.3523
 1380SOL    HW115794   4.820   7.534   3.353 -1.5751 -0.5922  0.3550
 1380SOL    HW215795   4.854   7.381   3.307 -0.2833 -0.4402  0.8000
 1381SOL     OW15796   9.375   8.869   7.509 -0.6074  0.3722  0.4641
 1381SOL    HW115797   9.450   8.875   7.574 -0.7448  0.5244  0.6099
 1381SOL    HW215798   9.410   8.840   7.420 -1.2375 -6.1993  2.1059
 1382SOL     OW15799   8.295   2.946   7.496 -0.3578  0.1532  0.2649
 1382SOL    HW115800   8.371   2.965   7.558  0.4118 -0.7209 -0.3862
 1382SOL    HW215801   8.222   2.900   7.547  0.9085 -1.9793  0.2419
 1383SOL     OW15802   1.930   0.147   6.467 -0.3983  0.0677  0.1291
 1383SOL    HW115803   2.027   0.148   6.491 -0.4008  0.3768  0.1372
 1383SOL    HW215804   1.912   0.219   6.399 -0.6404  0.0866  0.2117
 1384SOL     OW15805   8.524   2.253   3.332  0.5097  0.5567  0.5574
 1384SOL    HW115806   8.508   2.259   3.233 -0.7545 -0.6832  0.6731
 1384SOL    HW215807   8.459   2.313   3.379 -0.9586 -1.1523  0.7807
 1385SOL     OW15808   7.975   3.767   6.689 -0.1436  0.4028 -0.4575
 1385SOL    HW115809   7.929   3.826   6.756  0.0275 -0.1346  0.1396
 1385SOL    HW215810   7.972   3.673   6.721  2.3161  0.4848  0.1412
 1386SOL     OW15811   5.258   5.711   0.826 -0.1635  0.3662 -0.3900
 1386SOL    HW115812   5.271   5.653   0.746 -0.0049  2.1701 -1.6932
 1386SOL    HW215813   5.169   5.756   0.820 -0.6213 -0.3412  1.0031
 1387SOL     OW15814   9.972   8.529   2.314  0.5927  0.0807 -0.3893
 1387SOL    HW115815   9.935   8.620   2.292 -0.3902 -0.6149 -1.7024
 1387SOL    HW215816  10.039   8.502   2.245  2.8729  0.8949  1.4298
 1388SOL     OW15817   3.596   2.579   0.017  0.2931 -0.1657  0.4991
 1388SOL    HW115818   3.661   2.553   0.088  0.9367 -3.0236 -1.0311
 1388SOL    HW215819   3.642   2.579  -0.072 -1.4332 -0.8073 -0.4366
 1389SOL     OW15820   4.397   0.959   3.534 -0.0226  0.6065 -0.1580
 1389SOL    HW115821   4.349   1.045   3.548 -1.3344 -0.2301  0.6663
 1389SOL    HW215822   4.349   0.905   3.464  0.1190  0.0631  0.1592
 1390SOL     OW15823   7.735   1.183   0.564 -0.9039  0.3213 -0.6301
 1390SOL    HW115824   7.693   1.149   0.648  0.2030 -0.6181 -0.4419
 1390SOL    HW215825   7.668   1.236   0.512 -1.0108  2.6443  1.8094
 1391SOL     OW15826   9.084   9.646   7.751  0.0269 -0.0458  0.1740
 1391SOL    HW115827   9.144   9.721   7.778  0.9329 -0.3569 -0.9298
 1391SOL    HW215828   9.133   9.584   7.690 -0.9962 -1.0496  0.3430
 1392SOL     OW15829   8.592   8.978   2.712 -0.2517 -0.0686  0.3334
 1392SOL    HW115830   8.620   9.062   2.759  0.0323  0.2751 -0.4424
 1392SOL    HW215831   8.610   8.899   2.771  1.4028  0.2404  0.2719
 1393SOL     OW15832   1.786   3.443   4.005 -0.3557  0.2640  0.3642
 1393SOL    HW115833   1.831   3.500   4.073 -2.1005  2.1320  0.0017
 1393SOL    HW215834   1.789   3.489   3.916  0.4007 -1.3672 -0.4687
 1394SOL     OW15835   2.928   5.767   0.303 -0.5070  0.3698  0.4105
 1394SOL    HW115836   2.899   5.690   0.360  0.5579 -0.1005  0.3437
 1394SOL    HW215837   2.882   5.764   0.215  2.0217 -2.1805 -0.9079
 1395SOL     OW15838   2.096   7.575   6.090  0.2419 -0.2243 -0.3899
 1395SOL    HW115839   2.163   7.645   6.113  0.5931 -1.4328  2.4808
 1395SOL    HW215840   2.112   7.543   5.997  3.2834 -0.0841  0.0331
 1396SOL     OW15841   1.231   5.353   7.525  0.1770  0.0091 -0.2498
 1396SOL    HW115842   1.212   5.288   7.599  1.6890 -0.6525 -0.4295
 1396SOL    HW215843   1.272   5.435   7.563 -1.4734  0.7735 -0.0588
 1397SOL     OW15844   8.974   5.062   6.863  0.2787 -0.1861 -0.6038
 1397SOL    HW115845   8.879   5.064   6.894  0.7829  0.6403  0.9399
 1397SOL    HW215846   8.978   5.077   6.764 -1.3146 -2.1193 -0.9864
 1398SOL     OW15847   5.336   1.110   6.466  0.1116  0.1495  0.1836
 1398SOL    HW115848   5.396   1.105   6.386  1.9346 -0.3190  1.5390
 1398SOL    HW215849   5.366   1.042   6.533 -0.1448  1.8778  2.0836
 1399SOL     OW15850   6.456   8.414   6.095 -0.1853 -0.5892  0.4766
 1399SOL    HW115851   6.546   8.378   6.068 -0.4521  0.0939 -1.4195
 1399SOL    HW215852   6.385   8.368   6.042 -0.8057  0.2425  0.5760
 1400SOL     OW15853   2.792   5.992   7.129 -0.3544  0.1523  0.3534
 1400SOL    HW115854   2.881   5.946   7.135 -1.3535 -1.6772  1.6437
 1400SOL    HW215855   2.785   6.062   7.199 -0.7834 -1.2849  1.7846
 1401SOL     OW15856   0.955   1.446   2.406  0.6493 -0.0810  0.3664
 1401SOL    HW115857   0.996   1.363   2.367  2.0112  0.9903 -0.5413
 1401SOL    HW215858   1.012   1.525   2.383 -0.2755  1.0273  1.7873
 1402SOL     OW15859   3.001   0.791   3.679 -0.0540  0.0011 -1.0521
 1402SOL    HW115860   3.021   0.695   3.695 -1.2879 -0.3003 -1.3254
 1402SOL    HW215861   3.027   0.844   3.760 -0.0567 -0.6504 -0.6218
 1403SOL     OW15862   5.751   9.968   3.155  0.6166  0.1294 -0.4904
 1403SOL    HW115863   5.661   9.997   3.125  0.7130 -0.6176 -1.5096
 1403SOL    HW215864   5.766   9.873   3.130  1.2664 -0.0744  0.6382
 1404SOL     OW15865   4.467   4.124   2.543  0.1626  0.2415 -0.2659
 1404SOL    HW115866   4.468   4.060   2.620 -0.2463  0.2526 -0.2505
 1404SOL    HW215867   4.513   4.208   2.569 -2.9869  1.5965  1.1398
 1405SOL     OW15868   4.440   6.255   1.502  0.4396 -0.3867 -0.3561
 1405SOL    HW115869   4.446   6.180   1.436 -1.1748 -0.5477 -0.3338
 1405SOL    HW215870   4.380   6.228   1.578  0.4903  0.6329  0.0585
 1406SOL     OW15871   2.998   1.231   2.033 -0.1278 -0.2032 -0.0642
 1406SOL    HW115872   2.940   1.304   1.994 -0.6768 -0.1422  0.8403
 1406SOL    HW215873   2.963   1.207   2.123  1.1737 -0.2921  0.4199
 1407SOL     OW15874   7.966   9.995   4.964 -0.3102 -0.5472 -0.7838
 1407SOL    HW115875   7.970  10.048   4.879  0.0352 -0.4090 -0.6817
 1407SOL    HW215876   7.895  10.032   5.023 -0.7935 -0.8605 -1.1547
 1408SOL     OW15877   1.261   6.594   3.361  0.3173  0.2518 -0.3226
 1408SOL    HW115878   1.246   6.577   3.263 -0.8875 -0.2116 -0.0685
 1408SOL    HW215879   1.237   6.512   3.413  1.3682  0.3538  0.3308
 1409SOL     OW15880   7.672   9.203   4.798 -0.2220  0.6634  0.3285
 1409SOL    HW115881   7.636   9.201   4.704  1.2618  2.9257 -0.3149
 1409SOL    HW215882   7.760   9.156   4.800 -0.5868 -0.0120  0.7586
 1410SOL     OW15883   8.529   9.083   4.607 -0.7490  0.0941 -0.1915
 1410SOL    HW115884   8.585   9.001   4.599 -1.1193 -0.1283 -0.5142
 1410SOL    HW215885   8.475   9.080   4.691  1.9665  1.6965  1.6797
 1411SOL     OW15886   3.470   0.496   7.995  0.0683 -0.3813  0.0638
 1411SOL    HW115887   3.473   0.487   7.895  1.0925 -1.4991  0.1900
 1411SOL    HW215888   3.513   0.582   8.022 -0.0977 -0.1336 -0.4487
 1412SOL     OW15889   3.164   0.392   4.182  0.1358 -0.5583 -0.1813
 1412SOL    HW115890   3.201   0.299   4.176 -1.2719 -1.2036  0.7462
 1412SOL    HW215891   3.177   0.428   4.274  2.8390  1.1269 -1.1811
 1413SOL     OW15892   0.009   3.012   2.205 -0.0493 -0.0278 -0.0733
 1413SOL    HW115893  -0.036   3.039   2.120  1.3825 -3.4973 -2.0544
 1413SOL    HW215894   0.097   3.059   2.213 -0.6806  1.1539  0.0986
 1414SOL     OW15895   2.835   6.176   6.593  0.4225  0.1308 -0.4100
 1414SOL    HW115896   2.845   6.270   6.560  0.1370  0.1581 -0.4236
 1414SOL    HW215897   2.896   6.161   6.671  0.0577  0.4966 -0.0559
 1415SOL     OW15898   3.743   8.963   4.954  0.1021  0.0684  0.7046
 1415SOL    HW115899   3.822   8.930   5.007 -0.6647 -1.4150  0.9619
 1415SOL    HW215900   3.682   8.886   4.936 -1.0472  1.1248  0.0885
 1416SOL     OW15901   4.175   0.096   7.465  0.1877  0.1783 -1.0948
 1416SOL    HW115902   4.250   0.040   7.500 -0.1265  1.5780  1.9482
 1416SOL    HW215903   4.210   0.184   7.434 -0.4339  2.0513  3.1437
 1417SOL     OW15904   7.602   1.740   2.969 -0.7733  0.1073  0.1383
 1417SOL    HW115905   7.528   1.807   2.973 -0.8804 -0.1032  2.9780
 1417SOL    HW215906   7.673   1.765   3.035  0.3232 -1.2612 -0.4985
 1418SOL     OW15907   7.083   9.420   4.256  0.3982 -0.3945 -0.3825
 1418SOL    HW115908   7.062   9.331   4.217 -0.1814 -1.1411  1.5921
 1418SOL    HW215909   7.004   9.481   4.245 -1.2651 -1.8135  3.0341
 1419SOL     OW15910   6.642   7.350   3.259  0.6575 -0.4933  0.4075
 1419SOL    HW115911   6.739   7.334   3.281  0.9904 -1.2154 -1.4824
 1419SOL    HW215912   6.630   7.348   3.159 -1.2885 -0.2805  0.6227
 1420SOL     OW15913   5.203   9.216   3.982 -0.5190 -0.0061  0.2578
 1420SOL    HW115914   5.245   9.197   3.893 -1.0433 -0.2101  0.0473
 1420SOL    HW215915   5.262   9.182   4.055 -1.0821 -1.8200 -0.0900
 1421SOL     OW15916   2.052   4.140   3.537  0.4107 -0.5537  0.6077
 1421SOL    HW115917   2.147   4.168   3.547  0.5441 -0.9839  0.5128
 1421SOL    HW215918   2.039   4.049   3.576 -0.2165 -0.0015  1.7123
 1422SOL     OW15919   4.214   1.839   6.251  0.0221  0.1948 -0.0146
 1422SOL    HW115920   4.208   1.935   6.277 -1.4835  0.1836 -0.2898
 1422SOL    HW215921   4.241   1.784   6.330 -1.2684  0.5725  0.6988
 1423SOL     OW15922   5.303   3.357   4.254  0.1799  0.3532  0.6338
 1423SOL    HW115923   5.352   3.425   4.200 -2.1074  1.6623  0.1307
 1423SOL    HW215924   5.206   3.358   4.229 -0.5364 -0.5983  3.1473
 1424SOL     OW15925   8.114   2.073   4.115  0.2969  0.1987  0.0421
 1424SOL    HW115926   8.182   2.145   4.129  2.1126 -1.7600  1.8170
 1424SOL    HW215927   8.160   1.990   4.083 -1.5570 -0.5748 -0.6681
 1425SOL     OW15928   1.633   1.893   2.478 -0.7719 -0.3533  0.0663
 1425SOL    HW115929   1.685   1.966   2.522 -1.4928  0.3203 -0.1916
 1425SOL    HW215930   1.541   1.890   2.516 -0.9121 -0.7886 -0.3018
 1426SOL     OW15931   1.615   4.906   5.848 -0.0746  0.2443 -0.4887
 1426SOL    HW115932   1.655   4.958   5.924 -1.0296  1.8225 -1.0308
 1426SOL    HW215933   1.552   4.965   5.798  0.2321 -0.9148 -2.2578
 1427SOL     OW15934   2.544   7.728   5.715 -0.1100  0.4816  0.2784
 1427SOL    HW115935   2.468   7.767   5.663 -1.7061 -1.5976  1.0341
 1427SOL    HW215936   2.529   7.743   5.813  0.6311  0.3629  0.4123
 1428SOL     OW15937   7.839   4.006   5.701  0.7672  0.0119  0.2572
 1428SOL    HW115938   7.860   4.103   5.688 -1.6247  0.7578  1.6264
 1428SOL    HW215939   7.832   3.962   5.611 -0.4392  1.6345 -0.4830
 1429SOL     OW15940   4.550   8.736   2.499  0.2444  0.1486  0.1491
 1429SOL    HW115941   4.557   8.645   2.540  1.4391 -0.5608 -1.5791
 1429SOL    HW215942   4.611   8.742   2.420  1.0664  2.8626  0.9419
 1430SOL     OW15943   4.798   9.297   1.698 -0.1475  0.0623  0.1409
 1430SOL    HW115944   4.885   9.290   1.649  0.4261  0.5448  1.0645
 1430SOL    HW215945   4.741   9.367   1.654 -0.0920 -0.2974 -0.5058
 1431SOL     OW15946   8.029   8.352   3.263  0.2790 -0.1141  1.0791
 1431SOL    HW115947   8.098   8.391   3.323 -1.0682  3.4909  0.3990
 1431SOL    HW215948   8.041   8.388   3.171 -0.6226 -1.8559  0.2628
 1432SOL     OW15949   3.426   5.021   2.090 -0.0505 -0.1524  0.4224
 1432SOL    HW115950   3.493   5.089   2.063  1.2282 -1.2440  0.8013
 1432SOL    HW215951   3.470   4.950   2.145 -1.3636 -1.2586  0.0914
 1433SOL     OW15952   3.887   7.525   3.144  0.5160 -0.1443  0.2097
 1433SOL    HW115953   3.918   7.519   3.049  0.6146 -2.1442  0.3330
 1433SOL    HW215954   3.907   7.616   3.180 -0.1330  0.8717 -1.8819
 1434SOL     OW15955   9.195   5.155   0.898  0.1868  0.2607  0.0027
 1434SOL    HW115956   9.127   5.102   0.949  0.9910 -0.4497  0.3514
 1434SOL    HW215957   9.175   5.252   0.907 -0.5821  0.0750  0.3875
 1435SOL     OW15958   4.460   4.707   0.186 -0.3862 -0.4499 -0.3578
 1435SOL    HW115959   4.472   4.787   0.244  1.2416 -0.9170 -0.0342
 1435SOL    HW215960   4.399   4.642   0.230 -1.5957  0.5283 -0.5545
 1436SOL     OW15961   9.314   3.160   1.384 -0.2420 -0.0317  0.0319
 1436SOL    HW115962   9.386   3.228   1.373 -0.3883  0.4374  1.8490
 1436SOL    HW215963   9.319   3.119   1.475 -0.9465 -1.5508 -0.5765
 1437SOL     OW15964   4.121   6.295   1.188  0.7620 -0.2807  0.4080
 1437SOL    HW115965   4.206   6.337   1.154  0.8110  0.2948  1.2281
 1437SOL    HW215966   4.048   6.309   1.121  0.8370  0.9061  0.5577
 1438SOL     OW15967   1.843   8.887   0.828  0.1327  0.8724 -0.2703
 1438SOL    HW115968   1.928   8.855   0.868  0.6399  1.3838 -0.9199
 1438SOL    HW215969   1.791   8.939   0.896 -0.8171 -1.5071  0.8673
 1439SOL     OW15970   9.001   9.316   7.589 -0.1408  0.2336 -0.0905
 1439SOL    HW115971   9.091   9.359   7.591  0.9620 -2.0588  1.8840
 1439SOL    HW215972   8.949   9.343   7.670  1.0355 -3.0513  1.8176
 1440SOL     OW15973   8.102   3.732   5.171 -0.3570  0.1835 -0.1689
 1440SOL    HW115974   8.198   3.750   5.193 -0.0369 -2.0284  0.3575
 1440SOL    HW215975   8.069   3.655   5.226 -1.8357 -0.3885 -1.8100
 1441SOL     OW15976   4.599   6.680   0.380 -0.4703 -0.0377  0.1654
 1441SOL    HW115977   4.606   6.625   0.297 -1.1498  1.2533 -0.7682
 1441SOL    HW215978   4.620   6.623   0.460 -0.9302 -1.5740 -0.7872
 1442SOL     OW15979   6.741   9.793   2.389  0.6266  0.2607 -0.6679
 1442SOL    HW115980   6.816   9.738   2.426  1.2653  0.9345 -0.9742
 1442SOL    HW215981   6.777   9.864   2.329 -0.1417  1.4073  0.1957
 1443SOL     OW15982   6.556   8.833   5.389  0.2491 -0.0268  0.0618
 1443SOL    HW115983   6.573   8.874   5.299  0.0227 -1.2352 -0.5298
 1443SOL    HW215984   6.644   8.817   5.435  0.4779 -1.4341 -0.8515
 1444SOL     OW15985   0.046   8.653   6.186 -0.3605 -0.5822  0.1927
 1444SOL    HW115986   0.023   8.719   6.257  0.1553  1.0375 -1.1062
 1444SOL    HW215987   0.083   8.701   6.106 -0.6311 -2.3787 -1.0583
 1445SOL     OW15988   4.699   1.779   4.765 -0.1728 -0.1662  0.2785
 1445SOL    HW115989   4.681   1.681   4.773  0.5040 -0.3346 -0.1860
 1445SOL    HW215990   4.711   1.819   4.856  1.8632 -0.9702  0.4000
 1446SOL     OW15991   3.378   6.840   1.664  0.3546 -0.1832  0.2855
 1446SOL    HW115992   3.343   6.868   1.575 -0.3202 -0.8246  0.3448
 1446SOL    HW215993   3.413   6.746   1.657 -0.9634 -0.7414  1.0210
 1447SOL     OW15994   0.713   8.048   4.353 -0.1853 -0.5195  0.1984
 1447SOL    HW115995   0.659   8.110   4.411 -1.7957  0.5199 -2.3093
 1447SOL    HW215996   0.762   8.102   4.284  1.3881 -1.7474  0.3428
 1448SOL     OW15997   4.545   5.163   1.167 -0.7475 -0.2336 -0.0680
 1448SOL    HW115998   4.465   5.169   1.107 -0.3032  0.2620 -0.6150
 1448SOL    HW215999   4.542   5.076   1.217 -0.7954 -0.9511 -1.2836
 1449SOL     OW16000   9.390   6.227   2.690  0.6530  0.2060 -0.6162
 1449SOL    HW116001   9.482   6.239   2.727  0.4822 -1.2429  0.3330
 1449SOL    HW216002   9.335   6.175   2.756 -0.2508 -0.6900 -2.0561
 1450SOL     OW16003   0.327   4.602   6.138 -0.3868 -0.1682  0.2408
 1450SOL    HW116004   0.328   4.693   6.180 -2.1973 -0.0420  0.0488
 1450SOL    HW216005   0.337   4.532   6.209  0.6229  0.1782  0.4315
 1451SOL     OW16006   0.156   6.635   1.673 -0.8780  0.2369 -0.0978
 1451SOL    HW116007   0.069   6.684   1.663 -0.8829 -0.3920 -4.2202
 1451SOL    HW216008   0.229   6.688   1.630 -0.0881 -1.3017 -0.7052
 1452SOL     OW16009   7.792   6.284   1.843 -0.2685  0.7790 -0.0882
 1452SOL    HW116010   7.724   6.257   1.912  0.0201 -0.1670 -0.1691
 1452SOL    HW216011   7.745   6.320   1.762 -0.7613 -1.4102 -0.8087
 1453SOL     OW16012   4.546   9.226   4.767 -0.3393  0.2753  0.5063
 1453SOL    HW116013   4.452   9.254   4.751 -0.5842 -0.0098  1.4198
 1453SOL    HW216014   4.608   9.299   4.740 -0.6823 -0.4686 -2.4453
 1454SOL     OW16015   3.505   2.160   1.778 -0.0156 -0.5375  0.1703
 1454SOL    HW116016   3.474   2.089   1.715  0.2148  0.2137 -0.8014
 1454SOL    HW216017   3.427   2.197   1.828 -0.4685  0.2124 -1.0777
 1455SOL     OW16018   4.443   3.933   7.067  0.1006 -0.1755 -0.3863
 1455SOL    HW116019   4.363   3.873   7.057  0.5071 -0.7632 -0.1645
 1455SOL    HW216020   4.467   3.971   6.978  0.6076 -1.3522 -0.7732
 1456SOL     OW16021   4.539   2.772   3.265 -0.7336 -0.3541  0.2366
 1456SOL    HW116022   4.529   2.757   3.166  0.4584 -0.2972  0.1039
 1456SOL    HW216023   4.510   2.865   3.288 -0.0709 -0.0337 -0.2085
 1457SOL     OW16024   4.790   1.763   1.434 -0.6684  0.4088  0.7194
 1457SOL    HW116025   4.709   1.821   1.424 -0.0943  1.0130 -0.7052
 1457SOL    HW216026   4.860   1.794   1.370  0.6171 -0.2379  1.7883
 1458SOL     OW16027   8.680   1.494   6.313 -0.4106  0.4019 -0.4950
 1458SOL    HW116028   8.774   1.512   6.282  0.5492 -0.6033  1.6854
 1458SOL    HW216029   8.625   1.577   6.302  1.0839  1.3974 -0.6342
 1459SOL     OW16030   2.023   8.656   5.215 -0.4696 -0.2451  0.6916
 1459SOL    HW116031   1.932   8.616   5.216 -0.8915  0.6626  2.7291
 1459SOL    HW216032   2.020   8.747   5.173 -0.2127 -0.8229 -0.5882
 1460SOL     OW16033   9.430   6.666   6.731 -0.2432 -0.4589 -0.0438
 1460SOL    HW116034   9.520   6.620   6.731  0.1477  0.3060 -0.1596
 1460SOL    HW216035   9.419   6.717   6.816  0.3856  1.2974 -0.9970
 1461SOL     OW16036   2.265   7.270   0.478  0.0185  0.2667  0.5390
 1461SOL    HW116037   2.316   7.286   0.562 -1.2706  1.3780  1.1319
 1461SOL    HW216038   2.177   7.230   0.499  0.4174 -1.1632 -0.4433
 1462SOL     OW16039   8.021   5.777   5.308 -0.0050  0.1213 -0.5681
 1462SOL    HW116040   8.091   5.723   5.261  1.2049  1.8792 -0.8227
 1462SOL    HW216041   7.957   5.715   5.354  3.5457 -1.5613  2.4247
 1463SOL     OW16042   0.001   5.663   3.849 -0.3060  0.0626  0.4309
 1463SOL    HW116043  -0.098   5.662   3.858 -0.3413  1.2064  0.2255
 1463SOL    HW216044   0.025   5.690   3.756  0.1833 -1.5268  0.0845
 1464SOL     OW16045   0.942   8.612   0.904  0.2617  0.5637  0.8006
 1464SOL    HW116046   0.917   8.576   0.993  0.8118 -0.9678  0.3483
 1464SOL    HW216047   0.896   8.560   0.832 -0.4331  1.9909  0.1856
 1465SOL     OW16048   0.541   1.331   0.745  0.1649 -0.4388  0.3673
 1465SOL    HW116049   0.569   1.286   0.661  0.8902  0.3442  0.1798
 1465SOL    HW216050   0.621   1.366   0.793 -0.2680 -0.6491  1.2487
 1466SOL     OW16051   1.473   9.814   6.734 -0.2589 -0.4502  0.4485
 1466SOL    HW116052   1.549   9.803   6.669  0.1337 -0.6656  0.9401
 1466SOL    HW216053   1.485   9.898   6.786  0.9220 -1.6570  2.1914
 1467SOL     OW16054   0.678   3.214   0.910  0.7310 -0.4338  0.2055
 1467SOL    HW116055   0.772   3.182   0.901  0.1135 -2.6087  1.1385
 1467SOL    HW216056   0.648   3.205   1.005  0.0116  1.4978  0.1763
 1468SOL     OW16057   8.014   6.540   3.581 -0.1273  0.2841 -0.3126
 1468SOL    HW116058   8.053   6.624   3.620  1.2401  0.5961 -2.2735
 1468SOL    HW216059   8.068   6.512   3.502  0.0497 -3.0314  0.8917
 1469SOL     OW16060   6.411   9.205   3.154  0.2186 -0.3706 -0.5292
 1469SOL    HW116061   6.341   9.198   3.225 -0.6088  0.3790 -1.2521
 1469SOL    HW216062   6.496   9.238   3.194  0.2752 -1.6588  0.4312
 1470SOL     OW16063   1.100   5.465   6.947  0.6738  0.3220  0.1696
 1470SOL    HW116064   1.113   5.518   6.863  1.3451  0.8087  0.5704
 1470SOL    HW216065   1.183   5.471   7.003  1.3781 -2.5142 -0.5167
 1471SOL     OW16066   7.483   1.850   0.840  0.2996 -0.1167  0.4552
 1471SOL    HW116067   7.446   1.758   0.833 -0.5633  0.2292  0.4104
 1471SOL    HW216068   7.408   1.917   0.837  1.0032  0.6415 -0.7051
 1472SOL     OW16069   3.518   3.373   6.148  0.3223 -0.3583  0.1215
 1472SOL    HW116070   3.541   3.279   6.175 -0.6638 -0.3993  0.8799
 1472SOL    HW216071   3.495   3.426   6.230 -0.7821  0.0724 -0.4628
 1473SOL     OW16072   9.512   2.013   8.164  0.3349 -0.0374  0.3244
 1473SOL    HW116073   9.492   1.934   8.106  2.6829 -0.7857  0.4866
 1473SOL    HW216074   9.489   2.097   8.115 -2.7556 -0.7835  0.3724
 1474SOL     OW16075   7.246   6.418   4.361  0.4822 -0.4972  0.5662
 1474SOL    HW116076   7.327   6.409   4.303 -2.2697 -0.1203 -3.5599
 1474SOL    HW216077   7.223   6.515   4.371 -0.6427 -0.6814 -0.1114
 1475SOL     OW16078   0.289   2.418   6.978  0.1380  0.0476  0.3221
 1475SOL    HW116079   0.310   2.380   7.067 -0.5085 -0.7691  0.1329
 1475SOL    HW216080   0.190   2.432   6.970  0.0671 -0.9316 -0.6670
 1476SOL     OW16081   9.766   2.174   2.708  0.2893 -0.6573  0.1282
 1476SOL    HW116082   9.749   2.253   2.767 -1.2952 -0.4016 -0.6570
 1476SOL    HW216083   9.863   2.149   2.713  0.5017  0.3914  1.5477
 1477SOL     OW16084   3.004   3.867   0.051 -0.3487 -0.0267 -0.6050
 1477SOL    HW116085   3.048   3.835  -0.033 -0.6247 -1.3623 -0.2512
 1477SOL    HW216086   2.986   3.789   0.111  0.9482  1.0415  1.2301
 1478SOL     OW16087   8.141   3.957   4.154 -0.4504 -0.2632  0.0505
 1478SOL    HW116088   8.050   3.972   4.114 -1.0335 -0.2575  1.3627
 1478SOL    HW216089   8.131   3.933   4.251  0.9980  0.7230  0.4511
 1479SOL     OW16090   8.104   1.425   7.006  0.0827  0.6698  0.6311
 1479SOL    HW116091   8.130   1.498   7.069  0.0762  0.4199  0.9240
 1479SOL    HW216092   8.008   1.434   6.981  0.3922  1.4729 -0.2872
 1480SOL     OW16093   8.665   0.955   4.094 -0.2628 -0.2973  0.1779
 1480SOL    HW116094   8.665   0.859   4.067 -2.8011  0.1521 -1.6128
 1480SOL    HW216095   8.758   0.985   4.111  0.7638 -2.5118 -1.3380
 1481SOL     OW16096   4.571   1.053   6.411  0.0735  0.3057 -0.5168
 1481SOL    HW116097   4.505   1.091   6.476  0.1036 -0.6517  0.0680
 1481SOL    HW216098   4.664   1.070   6.443  0.1008  0.7297 -0.8178
 1482SOL     OW16099   8.799   7.021   3.905  0.5984  0.1508  0.0922
 1482SOL    HW116100   8.756   6.933   3.883 -0.0875  0.6487 -0.6083
 1482SOL    HW216101   8.759   7.056   3.990  0.8428 -0.1906  0.3510
 1483SOL     OW16102   1.703   4.102   5.632 -0.3381  0.0773 -0.5739
 1483SOL    HW116103   1.673   4.068   5.722 -2.0385  0.0954 -1.1096
 1483SOL    HW216104   1.718   4.201   5.638  0.9284 -0.1384  0.0329
 1484SOL     OW16105   2.943   8.464   1.218 -0.4132  0.2985 -0.1848
 1484SOL    HW116106   2.901   8.463   1.309 -4.8796  1.5932 -2.0693
 1484SOL    HW216107   2.942   8.558   1.182 -1.2836 -0.5783 -2.6024
 1485SOL     OW16108   3.580   6.165   1.443 -0.1683 -0.0778 -0.6585
 1485SOL    HW116109   3.615   6.258   1.428 -0.4046 -0.0301 -0.9215
 1485SOL    HW216110   3.610   6.132   1.532 -1.5722  0.9398  0.1995
 1486SOL     OW16111   8.106   2.799   4.946 -0.1558  0.0811  0.0111
 1486SOL    HW116112   8.088   2.728   4.877 -0.5597  1.2455 -1.0985
 1486SOL    HW216113   8.029   2.863   4.948  1.2576  1.8213 -0.6542
 1487SOL     OW16114   2.267   1.147   6.023 -0.1845 -0.1152  0.1642
 1487SOL    HW116115   2.342   1.170   5.961  0.0815 -2.2938 -0.3847
 1487SOL    HW216116   2.213   1.072   5.983 -2.5053  1.2280  0.6638
 1488SOL     OW16117   4.362   8.195   4.124 -0.1382 -0.0912 -0.2062
 1488SOL    HW116118   4.400   8.230   4.210  1.3619 -0.9597 -0.5049
 1488SOL    HW216119   4.415   8.231   4.047 -1.6064  0.8514 -0.8008
 1489SOL     OW16120   9.722   0.029   0.683  0.2835  0.2453 -0.1759
 1489SOL    HW116121   9.735  -0.054   0.630  0.5661  0.0696  0.1697
 1489SOL    HW216122   9.707   0.006   0.779 -0.1004  0.5686 -0.1536
 1490SOL     OW16123   4.316   0.931   1.889 -0.0292 -0.5476 -0.1839
 1490SOL    HW116124   4.305   0.856   1.823  1.8902 -0.4427 -0.6740
 1490SOL    HW216125   4.390   0.908   1.952  0.0760  0.6208  0.1246
 1491SOL     OW16126   9.926   1.884   4.561 -0.4727 -0.5049  0.2657
 1491SOL    HW116127   9.967   1.975   4.553 -1.3121 -0.0229  1.3529
 1491SOL    HW216128   9.971   1.821   4.497 -0.6133  0.9362 -1.2817
 1492SOL     OW16129   3.525   8.482   4.317 -0.2028 -0.1521  0.3914
 1492SOL    HW116130   3.584   8.406   4.289  2.4538  2.6231 -1.9540
 1492SOL    HW216131   3.564   8.527   4.398 -0.3785  0.2194  0.2738
 1493SOL     OW16132   1.108   0.175   4.979 -0.5349 -0.0437  0.7375
 1493SOL    HW116133   1.020   0.170   5.027 -0.3093 -2.0145  0.9727
 1493SOL    HW216134   1.130   0.086   4.941  0.7817  0.7532 -0.4078
 1494SOL     OW16135   0.636   0.370   3.974 -0.0146  0.2900  0.3114
 1494SOL    HW116136   0.569   0.306   3.937  0.4613  0.2337 -0.4654
 1494SOL    HW216137   0.593   0.460   3.985 -0.6919 -0.1585  1.4345
 1495SOL     OW16138   1.103   2.749   6.089 -0.5094  0.8104 -0.0244
 1495SOL    HW116139   1.043   2.820   6.127 -0.5878  2.5240 -3.1408
 1495SOL    HW216140   1.047   2.674   6.055 -0.5930  0.3910  1.0309
 1496SOL     OW16141   3.599   1.959   5.297  1.0101 -0.1410 -0.3267
 1496SOL    HW116142   3.589   1.891   5.224  1.5492 -2.2829  1.5155
 1496SOL    HW216143   3.509   1.997   5.319  0.4834 -1.2420 -0.5084
 1497SOL     OW16144   1.725   5.206   7.830  0.3755 -0.2741  0.0647
 1497SOL    HW116145   1.809   5.152   7.841 -0.2059 -1.3601 -0.6614
 1497SOL    HW216146   1.680   5.180   7.744  0.0883  1.4083 -0.3200
 1498SOL     OW16147   4.754   3.680   1.382 -0.5900 -0.5936  0.1856
 1498SOL    HW116148   4.727   3.683   1.286  0.3688  0.8000 -0.0542
 1498SOL    HW216149   4.808   3.597   1.398  0.0040 -0.3880 -0.6932
 1499SOL     OW16150   9.384   8.513   5.002  0.5380  0.5487  0.1579
 1499SOL    HW116151   9.362   8.495   4.907  2.3675  2.2478 -0.6290
 1499SOL    HW216152   9.446   8.442   5.036 -0.3441 -0.2171  0.1865
 1500SOL     OW16153   7.056   0.100   5.292 -0.2508 -0.2885  0.5492
 1500SOL    HW116154   7.120   0.026   5.312 -1.2411 -1.1966  0.4093
 1500SOL    HW216155   6.971   0.061   5.255 -0.9307  0.8868  0.8620
 1501SOL     OW16156   4.093   4.693   1.630  0.2685  0.2840 -0.8116
 1501SOL    HW116157   4.122   4.613   1.684 -1.5065 -1.6659 -2.6368
 1501SOL    HW216158   4.015   4.736   1.674  2.0653  1.8857  0.8983
 1502SOL     OW16159   2.308   1.490   3.885  0.3493  0.1670 -0.0894
 1502SOL    HW116160   2.329   1.573   3.833 -2.2819  1.1092  0.2137
 1502SOL    HW216161   2.312   1.511   3.983 -0.1718 -0.0690 -0.0125
 1503SOL     OW16162   7.053   8.292   6.180  0.4150 -0.0072  0.2840
 1503SOL    HW116163   7.131   8.307   6.240  0.6280 -1.0560  0.2774
 1503SOL    HW216164   7.061   8.203   6.135  0.4417  0.9233 -1.6022
 1504SOL     OW16165   4.953   8.985   3.558 -0.4104 -0.5391  1.1245
 1504SOL    HW116166   4.928   8.914   3.492 -1.2623  0.5627  0.2311
 1504SOL    HW216167   4.891   8.980   3.636 -1.3034  0.0557  0.4565
 1505SOL     OW16168   9.107   2.590   0.143 -0.3716  0.5649  0.5428
 1505SOL    HW116169   9.163   2.601   0.061 -0.5017 -1.7869  0.1181
 1505SOL    HW216170   9.022   2.642   0.132  0.7489  2.3996  0.3020
 1506SOL     OW16171   2.205   4.475   0.469  0.1499  0.2406 -0.0726
 1506SOL    HW116172   2.289   4.527   0.485  0.2863  0.4275 -1.3548
 1506SOL    HW216173   2.208   4.434   0.378  0.1589 -2.2451  1.0234
 1507SOL     OW16174   0.599   2.467   7.969 -0.1464  0.0116  0.3375
 1507SOL    HW116175   0.521   2.405   7.971 -2.4139  2.6377 -2.5192
 1507SOL    HW216176   0.652   2.451   7.885  0.0202  1.0435  0.2424
 1508SOL     OW16177   9.222   6.142   1.556 -0.9818  0.0475  0.0229
 1508SOL    HW116178   9.183   6.075   1.620 -0.7504  0.7009  0.8523
 1508SOL    HW216179   9.260   6.094   1.477  2.3650 -1.1666  2.2261
 1509SOL     OW16180   6.025   6.090   1.159 -0.2356  0.2494  0.0757
 1509SOL    HW116181   5.997   6.173   1.111  0.8662  0.8841  0.5163
 1509SOL    HW216182   6.120   6.069   1.137 -0.2776 -0.4726  0.5669
 1510SOL     OW16183   6.322   9.314   5.116  0.3640 -0.0230 -0.1207
 1510SOL    HW116184   6.336   9.252   5.194  0.7186 -0.0273 -0.1867
 1510SOL    HW216185   6.235   9.362   5.128  1.4403  1.6202  1.4246
 1511SOL     OW16186   2.928   0.618   6.145 -0.3818 -0.6225 -0.0131
 1511SOL    HW116187   2.877   0.693   6.188  1.2912  0.2440  0.5027
 1511SOL    HW216188   2.930   0.631   6.046  0.8867  0.6718  0.1669
 1512SOL     OW16189   1.802   6.680   1.318 -0.2119  0.8889  0.1517
 1512SOL    HW116190   1.735   6.754   1.318  0.4234  1.4698 -0.4289
 1512SOL    HW216191   1.793   6.627   1.403  0.0072  2.2416  1.0362
 1513SOL     OW16192   4.156   0.314   0.912 -0.0687 -0.4185  0.0100
 1513SOL    HW116193   4.131   0.411   0.915  1.3481 -0.0739  0.7730
 1513SOL    HW216194   4.081   0.260   0.952 -0.8851  0.3468 -0.4542
 1514SOL     OW16195   8.584   5.164   6.511 -0.1416  0.6458  0.1680
 1514SOL    HW116196   8.633   5.115   6.438  0.5948  1.9788 -0.2463
 1514SOL    HW216197   8.624   5.255   6.523 -0.2712  0.4547  2.2387
 1515SOL     OW16198   7.084   1.100   5.208 -0.1527 -0.3616 -0.5210
 1515SOL    HW116199   7.116   1.036   5.278  0.9926  0.7975  0.0327
 1515SOL    HW216200   6.987   1.121   5.224  0.2720  0.4358  1.1633
 1516SOL     OW16201   6.722   4.872   7.397  0.1004  0.1078  0.3814
 1516SOL    HW116202   6.689   4.912   7.483  0.4295 -0.8118  0.9343
 1516SOL    HW216203   6.678   4.784   7.382  0.0622  0.2587 -0.3859
 1517SOL     OW16204   9.377   4.762   0.084  0.0683  0.2722  0.0984
 1517SOL    HW116205   9.321   4.680   0.072 -0.7470  1.2123 -3.1652
 1517SOL    HW216206   9.468   4.747   0.045 -0.7123  1.4981 -2.2916
 1518SOL     OW16207   2.933   2.401   0.854 -0.0745 -0.1178 -0.0269
 1518SOL    HW116208   2.918   2.303   0.865  0.4127 -0.3319 -1.1869
 1518SOL    HW216209   2.978   2.418   0.766  2.5441  0.8685  1.4485
 1519SOL     OW16210   0.698   0.457   5.782 -0.0673  0.3633 -0.1965
 1519SOL    HW116211   0.664   0.463   5.688  0.0702  0.5435 -0.2343
 1519SOL    HW216212   0.747   0.540   5.806  1.0963 -0.2452 -0.4311
 1520SOL     OW16213   1.363   6.561   2.832  0.6489 -0.7995  0.2445
 1520SOL    HW116214   1.401   6.627   2.897 -0.3678 -1.0322  1.0829
 1520SOL    HW216215   1.273   6.531   2.864  0.4845 -1.5084 -0.8715
 1521SOL     OW16216   0.287   6.725   2.023  0.6119 -0.2845 -0.3299
 1521SOL    HW116217   0.339   6.772   1.951  0.3934 -0.3917 -0.5593
 1521SOL    HW216218   0.285   6.627   2.003  0.5136 -0.3090 -0.1978
 1522SOL     OW16219   9.205   6.522   4.333 -0.6012 -0.6080  0.4275
 1522SOL    HW116220   9.251   6.574   4.261 -2.1216 -0.4591 -0.4631
 1522SOL    HW216221   9.166   6.586   4.400 -1.0739 -0.6412  0.1926
 1523SOL     OW16222   7.284   2.803   4.103  0.0190  0.0743 -0.5029
 1523SOL    HW116223   7.357   2.811   4.172  0.9037  0.8617 -1.5146
 1523SOL    HW216224   7.204   2.762   4.145  1.2442 -1.3651  0.4991
 1524SOL     OW16225   3.552   0.194   1.002  0.2529 -0.0166  0.0702
 1524SOL    HW116226   3.511   0.154   1.084  0.9468 -1.9458 -0.5097
 1524SOL    HW216227   3.487   0.259   0.961 -0.8347 -0.4442  1.0806
 1525SOL     OW16228   4.563   0.595   6.448  0.0215  0.1312  0.3199
 1525SOL    HW116229   4.661   0.615   6.442  0.4052 -1.5657  0.6312
 1525SOL    HW216230   4.517   0.629   6.366  0.5440  2.6633  1.0390
 1526SOL     OW16231   1.467   0.445   1.375  0.1169 -0.3098  0.1568
 1526SOL    HW116232   1.481   0.401   1.464  1.6249  0.6480  0.4086
 1526SOL    HW216233   1.431   0.537   1.389  2.8460  0.8431 -0.0713
 1527SOL     OW16234   0.955   3.691   3.418  0.1848 -0.1490 -0.3695
 1527SOL    HW116235   0.909   3.628   3.481  0.6400 -1.2788 -1.1512
 1527SOL    HW216236   1.051   3.665   3.410  0.2277  0.2553 -1.1868
 1528SOL     OW16237   7.099   4.153   7.460  0.0022  0.1297  0.1175
 1528SOL    HW116238   7.157   4.219   7.413  1.5970 -0.6716  0.8959
 1528SOL    HW216239   7.153   4.106   7.530 -2.0751  0.6309  2.0919
 1529SOL     OW16240   4.620   8.765   5.306  0.1982  0.0692  0.4693
 1529SOL    HW116241   4.544   8.812   5.352 -0.8812 -0.5177 -0.6686
 1529SOL    HW216242   4.657   8.695   5.367  0.1289  0.6682  1.2107
 1530SOL     OW16243   3.469   5.155   0.806  0.1613 -0.8191 -0.0779
 1530SOL    HW116244   3.468   5.070   0.753 -0.5594 -0.6017 -0.4150
 1530SOL    HW216245   3.387   5.160   0.862  1.5698 -1.7180  2.1521
 1531SOL     OW16246   2.395   8.684   0.057  0.2288  0.3727 -0.5845
 1531SOL    HW116247   2.353   8.637   0.135  0.0008  0.6364 -0.5476
 1531SOL    HW216248   2.461   8.751   0.089  0.0992  0.5151 -0.6162
 1532SOL     OW16249   8.123   7.399   5.789  0.1576 -0.4881  0.0892
 1532SOL    HW116250   8.075   7.459   5.854  0.4915 -0.5043  0.3540
 1532SOL    HW216251   8.118   7.304   5.821  0.9600 -0.4025  0.4830
 1533SOL     OW16252   7.085   0.235   3.122  0.5554  0.3331  0.0685
 1533SOL    HW116253   7.046   0.269   3.208  0.4558 -0.2006  0.2373
 1533SOL    HW216254   7.131   0.310   3.074 -0.1341  0.8232  0.1700
 1534SOL     OW16255   3.073   8.304   2.239  0.1130 -0.5612 -0.4442
 1534SOL    HW116256   3.125   8.219   2.242  0.6297 -0.2237  1.4016
 1534SOL    HW216257   2.979   8.285   2.211 -0.4923 -2.1627  2.4616
 1535SOL     OW16258   1.245   8.661   0.828 -0.0277 -0.0517 -0.3729
 1535SOL    HW116259   1.216   8.565   0.833 -2.0026  0.4427 -1.9189
 1535SOL    HW216260   1.166   8.721   0.838  0.9080  1.3946 -1.3780
 1536SOL     OW16261   9.434   4.287   4.228  0.3524  0.6944 -0.0917
 1536SOL    HW116262   9.378   4.246   4.155 -0.4970  0.1448  0.8518
 1536SOL    HW216263   9.388   4.274   4.316  2.0331  0.1428  0.7241
 1537SOL     OW16264   2.035   9.577   1.137  0.2196 -0.3992 -0.2495
 1537SOL    HW116265   1.939   9.606   1.143  0.8346  1.6569  0.1647
 1537SOL    HW216266   2.074   9.608   1.050  1.1675  0.9749  0.6317
 1538SOL     OW16267   2.329   1.623   5.582 -0.4951  0.3625  0.5556
 1538SOL    HW116268   2.249   1.683   5.577  0.3918  1.5299 -0.0124
 1538SOL    HW216269   2.365   1.609   5.490 -0.4933 -0.7810  0.7265
 1539SOL     OW16270   8.190   0.708   5.981 -0.5280 -0.4057  0.1750
 1539SOL    HW116271   8.147   0.620   5.962 -0.1284 -1.1860  2.7612
 1539SOL    HW216272   8.287   0.695   5.999 -0.4975  0.5596  0.7436
 1540SOL     OW16273   5.598   1.605   4.270 -0.5769 -0.1329  0.2456
 1540SOL    HW116274   5.567   1.542   4.341  0.7921 -0.8620  0.2183
 1540SOL    HW216275   5.698   1.609   4.270 -0.6476  3.0076  1.0679
 1541SOL     OW16276   9.874   2.757   5.750 -0.5886 -0.0139  0.4532
 1541SOL    HW116277   9.833   2.738   5.839  0.2186  1.0253  1.0608
 1541SOL    HW216278   9.914   2.849   5.750 -2.0022  0.6407 -1.5179
 1542SOL     OW16279   4.670   5.958   0.774 -0.1159 -0.3007  0.2933
 1542SOL    HW116280   4.755   5.986   0.818  0.1629  1.7044 -1.4649
 1542SOL    HW216281   4.598   5.952   0.844  0.8998  0.3708  1.4219
 1543SOL     OW16282   3.014   2.020   3.731  0.5080 -0.1683 -0.2907
 1543SOL    HW116283   2.923   1.979   3.726  0.7850 -0.7798 -0.4145
 1543SOL    HW216284   3.010   2.105   3.784  0.5590 -2.1610  3.0586
 1544SOL     OW16285   4.017   3.872   1.597 -0.1584 -0.3873 -0.0441
 1544SOL    HW116286   3.952   3.880   1.673 -0.1453 -3.2565  0.3231
 1544SOL    HW216287   4.028   3.776   1.573  1.8262  0.2939 -1.9854
 1545SOL     OW16288   7.523   1.413   0.568 -0.3673 -0.0020  0.1377
 1545SOL    HW116289   7.458   1.468   0.621  0.9979 -0.5890  2.4656
 1545SOL    HW216290   7.505   1.316   0.583 -0.2540 -0.1864 -0.8529
 1546SOL     OW16291   5.039   1.713   6.918  0.0308  0.1726  0.0056
 1546SOL    HW116292   4.956   1.681   6.962  0.7318 -1.1803  0.3492
 1546SOL    HW216293   5.045   1.675   6.825 -0.5805  1.6439 -0.6654
 1547SOL     OW16294   3.605   6.193   2.321 -0.9271  0.4750 -0.0521
 1547SOL    HW116295   3.615   6.117   2.256  0.3431 -0.4385  1.1860
 1547SOL    HW216296   3.509   6.202   2.348 -1.1535 -0.3683 -0.5670
 1548SOL     OW16297   2.921   8.698   5.141  0.2797 -0.0377  0.3429
 1548SOL    HW116298   2.956   8.726   5.052  0.9996 -3.3770 -0.4915
 1548SOL    HW216299   2.995   8.658   5.195 -0.4132  0.8493  1.9842
 1549SOL     OW16300   7.069   7.838   2.434  0.2042  0.2688 -0.0122
 1549SOL    HW116301   7.150   7.785   2.459  0.0060 -0.1045 -0.1541
 1549SOL    HW216302   7.095   7.932   2.413  0.9241 -0.3829 -2.1966
 1550SOL     OW16303   3.184   4.858   3.494  0.7364  0.0295 -0.0587
 1550SOL    HW116304   3.245   4.931   3.464 -0.6417  1.7549  1.2321
 1550SOL    HW216305   3.179   4.787   3.424  2.2981  1.0439 -1.2105
 1551SOL     OW16306   2.698   1.150   1.793 -0.1460 -0.4506 -0.5875
 1551SOL    HW116307   2.676   1.188   1.883  0.0119  0.0605 -0.7645
 1551SOL    HW216308   2.671   1.053   1.790  0.4461 -0.6410  0.2184
 1552SOL     OW16309   0.395   1.592   2.460 -0.3314  0.3834 -0.5449
 1552SOL    HW116310   0.353   1.666   2.406 -0.0993  0.9826  0.0960
 1552SOL    HW216311   0.494   1.595   2.449 -0.1557  1.5462  1.2356
 1553SOL     OW16312   8.121   9.853   3.709 -0.5243 -0.4695 -0.2664
 1553SOL    HW116313   8.087   9.770   3.754 -1.2531 -0.5188 -0.8937
 1553SOL    HW216314   8.096   9.851   3.612 -2.1010  1.3094  0.0823
 1554SOL     OW16315   9.068   0.013   4.620 -0.2342 -0.4872  0.0976
 1554SOL    HW116316   9.120  -0.061   4.662 -1.9902 -1.6486  0.2987
 1554SOL    HW216317   9.054  -0.008   4.523  0.6247  0.3684 -0.2139
 1555SOL     OW16318   8.330   1.079   4.024  0.1414 -0.0371  0.3888
 1555SOL    HW116319   8.234   1.103   4.005  0.3352 -0.7257 -1.5608
 1555SOL    HW216320   8.332   0.996   4.079 -0.3867 -1.3143 -1.4533
 1556SOL     OW16321   9.538   2.557   3.564 -0.6162 -0.3115  0.0961
 1556SOL    HW116322   9.579   2.532   3.476  1.6002  2.4607  0.2722
 1556SOL    HW216323   9.535   2.477   3.623  1.4411 -1.3482 -1.1357
 1557SOL     OW16324   0.074   9.272   0.371 -0.6537 -0.1700  0.4241
 1557SOL    HW116325   0.017   9.287   0.452 -0.8031  1.7468 -0.0004
 1557SOL    HW216326   0.030   9.314   0.292  0.9143  0.5511 -0.0829
 1558SOL     OW16327   9.263   2.971   4.778 -0.1555  0.7339 -0.2352
 1558SOL    HW116328   9.351   2.923   4.791 -0.3645  0.4337  0.1024
 1558SOL    HW216329   9.264   3.020   4.692 -0.3285 -0.7661 -1.1163
 1559SOL     OW16330   9.172   2.316   1.767  0.5536  0.6696 -0.1402
 1559SOL    HW116331   9.267   2.347   1.763  0.8177 -0.1229 -0.0797
 1559SOL    HW216332   9.143   2.284   1.677  0.0016  1.8732 -0.4135
 1560SOL     OW16333   3.470   7.284   5.028  0.2708 -0.7300 -0.4166
 1560SOL    HW116334   3.453   7.372   5.073  0.0236 -0.3350 -1.2626
 1560SOL    HW216335   3.524   7.300   4.945  0.0743 -1.3614 -0.6641
 1561SOL     OW16336   6.264   4.268   7.354  0.5100 -0.2357  0.3432
 1561SOL    HW116337   6.261   4.332   7.431  0.7877 -0.7603  0.7910
 1561SOL    HW216338   6.359   4.241   7.337  0.3175 -1.1321  0.6593
 1562SOL     OW16339   3.651   6.598   0.711 -0.0168 -0.0802 -0.5802
 1562SOL    HW116340   3.599   6.521   0.749  0.9077  0.1595  1.2029
 1562SOL    HW216341   3.748   6.573   0.704  0.2198  0.7732 -0.3831
 1563SOL     OW16342   8.288   1.681   4.665  0.0701 -0.4950 -0.1076
 1563SOL    HW116343   8.368   1.670   4.606 -0.9023  1.2987 -1.8138
 1563SOL    HW216344   8.316   1.721   4.752  1.1098 -0.2822 -0.5286
 1564SOL     OW16345   3.881   6.443   0.132 -0.5322 -0.5394  0.0251
 1564SOL    HW116346   3.799   6.409   0.177 -1.2650  0.5134 -0.5113
 1564SOL    HW216347   3.899   6.388   0.050  0.3360 -1.9200  1.0961
 1565SOL     OW16348   3.358   5.122   1.368  0.0044  0.3314 -0.5661
 1565SOL    HW116349   3.431   5.104   1.301 -0.5884 -0.3894 -1.0355
 1565SOL    HW216350   3.301   5.040   1.376  1.2871 -0.3164  2.3725
 1566SOL     OW16351   7.605   2.465   4.768 -0.1392 -0.5052 -0.6643
 1566SOL    HW116352   7.509   2.466   4.794  0.3638 -1.4029  1.3645
 1566SOL    HW216353   7.642   2.558   4.772 -0.1058 -0.5941  1.8786
 1567SOL     OW16354   9.440   8.820   4.396 -0.1689 -0.3689 -0.0738
 1567SOL    HW116355   9.371   8.760   4.355 -1.0548  0.8702 -0.3945
 1567SOL    HW216356   9.527   8.808   4.348 -0.8144 -0.0313 -1.3394
 1568SOL     OW16357   7.691   2.734   3.958  0.5616  0.2910 -0.5376
 1568SOL    HW116358   7.727   2.817   4.001 -0.3712 -0.2322  1.3143
 1568SOL    HW216359   7.745   2.713   3.877  2.7810  0.9965  0.6969
 1569SOL     OW16360   7.289   9.038   6.402  0.0705 -0.0001 -0.1310
 1569SOL    HW116361   7.378   9.070   6.433  0.6856 -0.8953 -0.9081
 1569SOL    HW216362   7.302   8.973   6.326 -1.0736 -2.2472  1.5183
 1570SOL     OW16363   9.888   5.083   1.985  0.1803  0.1863  0.4014
 1570SOL    HW116364   9.884   5.179   2.011  0.6304  0.5813 -0.9757
 1570SOL    HW216365   9.795   5.049   1.970  0.0086  0.3355  1.0947
 1571SOL     OW16366   8.687   8.149   3.254 -0.1916  0.3120  0.4041
 1571SOL    HW116367   8.756   8.085   3.286 -0.2492  1.1281  2.1894
 1571SOL    HW216368   8.728   8.240   3.247 -0.8890  0.6491  0.7363
 1572SOL     OW16369   0.923   3.198   1.637  0.1175 -0.4622 -0.3987
 1572SOL    HW116370   0.963   3.117   1.681 -1.9421 -1.5200 -0.3777
 1572SOL    HW216371   0.848   3.233   1.694 -1.0455 -0.4268 -1.9093
 1573SOL     OW16372   9.105   5.301   4.937  0.6757  0.1291 -0.1842
 1573SOL    HW116373   9.126   5.377   4.998  0.0328  0.7507 -0.7252
 1573SOL    HW216374   9.186   5.279   4.882  0.9011  0.3381  0.0636
 1574SOL     OW16375   9.244   3.995   6.743 -0.1546 -0.3020  1.0279
 1574SOL    HW116376   9.297   3.911   6.759  0.4727 -0.3620 -1.1575
 1574SOL    HW216377   9.149   3.971   6.724 -0.5274 -0.3334  2.8317
 1575SOL     OW16378   6.398   3.133   2.012 -0.3193  0.3520 -0.6046
 1575SOL    HW116379   6.465   3.101   2.079 -2.0694 -0.9919  0.5507
 1575SOL    HW216380   6.383   3.231   2.024 -0.3965  0.1800  0.8146
 1576SOL     OW16381   1.672   2.732   2.789 -0.1492  0.1747 -0.0697
 1576SOL    HW116382   1.726   2.670   2.846  0.3940  0.2978 -0.4447
 1576SOL    HW216383   1.639   2.682   2.709 -1.4247 -0.1583  0.6533
 1577SOL     OW16384   1.920   5.385   1.498  0.1149  0.2735 -0.0990
 1577SOL    HW116385   1.962   5.373   1.588  1.1569  0.0115 -0.6066
 1577SOL    HW216386   1.928   5.481   1.470 -0.2309  0.3604  0.0876
 1578SOL     OW16387   2.056   5.893   7.452 -0.0896  0.2014  0.2651
 1578SOL    HW116388   2.120   5.820   7.477 -0.9080 -1.1596 -1.4910
 1578SOL    HW216389   1.999   5.916   7.532  1.0853 -0.1263  1.2133
 1579SOL     OW16390   4.932   1.403   4.004 -0.2368  0.4077  0.2199
 1579SOL    HW116391   4.945   1.319   3.952 -0.6721  0.5110 -0.0610
 1579SOL    HW216392   4.854   1.393   4.066 -1.6700  1.3305 -1.3737
 1580SOL     OW16393   0.192   6.426   6.728 -0.1651  0.6067 -0.1134
 1580SOL    HW116394   0.106   6.384   6.759 -0.8780  0.6066 -2.0471
 1580SOL    HW216395   0.254   6.355   6.696  0.3649  0.6511  0.8174
 1581SOL     OW16396   0.922   7.768   6.480  0.0935 -0.1326 -0.1691
 1581SOL    HW116397   0.978   7.741   6.558 -0.7176 -1.0574  0.0919
 1581SOL    HW216398   0.979   7.772   6.398  0.1692 -2.9577 -0.2831
 1582SOL     OW16399   3.875   2.397   1.547  0.6630 -0.1198  0.6353
 1582SOL    HW116400   3.780   2.401   1.517  1.0861  0.8356 -0.5695
 1582SOL    HW216401   3.932   2.457   1.490  1.7439  0.4517  2.2725
 1583SOL     OW16402   7.144   1.226   1.042 -0.0535  0.2951 -0.3495
 1583SOL    HW116403   7.139   1.130   1.015 -1.6060 -0.0775  1.2343
 1583SOL    HW216404   7.236   1.246   1.075  0.4659 -0.4599 -1.2780
 1584SOL     OW16405   2.616   7.309   5.004  0.4616  0.1159 -0.3570
 1584SOL    HW116406   2.541   7.352   5.054  1.2967  0.2132  0.8259
 1584SOL    HW216407   2.651   7.374   4.936  0.7423  0.7746  0.4077
 1585SOL     OW16408   2.655   5.413   0.373 -0.0497 -0.2431  1.1290
 1585SOL    HW116409   2.642   5.334   0.433  0.7837 -1.2033  0.0855
 1585SOL    HW216410   2.712   5.481   0.419 -1.2471  0.0176  2.2548
 1586SOL     OW16411   0.213   9.262   0.704 -0.4689  0.0011 -0.1120
 1586SOL    HW116412   0.113   9.259   0.700 -0.4580  0.6978 -1.3441
 1586SOL    HW216413   0.246   9.205   0.779 -1.9167  1.6424  1.8347
 1587SOL     OW16414   4.587   1.642   4.371 -0.3201  0.2427  0.1954
 1587SOL    HW116415   4.508   1.618   4.428 -1.5613  2.5034 -0.5181
 1587SOL    HW216416   4.642   1.710   4.419  0.4879 -0.3565  0.1228
 1588SOL     OW16417   4.770   1.312   0.323 -0.0509  0.0092  0.4167
 1588SOL    HW116418   4.816   1.375   0.260  0.9585 -2.4278 -1.3342
 1588SOL    HW216419   4.811   1.319   0.413  0.5909  1.2491  0.0417
 1589SOL     OW16420   0.945   6.569   3.441 -0.2843  0.0279  0.0645
 1589SOL    HW116421   0.950   6.590   3.538  2.2708  1.1061 -0.2638
 1589SOL    HW216422   0.965   6.472   3.426 -1.8673 -0.4109  0.6849
 1590SOL     OW16423   7.637   2.149   0.848 -0.1334 -0.0937 -0.1284
 1590SOL    HW116424   7.689   2.067   0.825 -0.9919 -0.6048 -0.2473
 1590SOL    HW216425   7.540   2.129   0.846 -0.3295  0.7779  0.4378
 1591SOL     OW16426   2.124   6.304   2.141 -0.0322 -0.0642  0.0285
 1591SOL    HW116427   2.211   6.257   2.155 -0.4864 -0.7944  0.4154
 1591SOL    HW216428   2.139   6.403   2.144  0.3122 -0.1545  3.2341
 1592SOL     OW16429   7.572   6.056   3.860  0.3838  0.2486 -0.4596
 1592SOL    HW116430   7.647   6.041   3.795  1.0269  1.5342 -0.0477
 1592SOL    HW216431   7.518   6.134   3.830  0.1969  0.3415  0.1163
 1593SOL     OW16432   2.225   2.685   5.144 -0.1349 -0.1030 -0.3699
 1593SOL    HW116433   2.233   2.722   5.236  1.5284 -2.3279  0.4425
 1593SOL    HW216434   2.287   2.734   5.083  1.2545 -0.7635  0.4595
 1594SOL     OW16435   0.960   6.842   3.943  0.1088 -0.2027 -0.0940
 1594SOL    HW116436   0.941   6.854   3.846 -0.2326 -1.6684 -0.2235
 1594SOL    HW216437   0.964   6.744   3.964  0.5195  0.1051  1.2993
 1595SOL     OW16438   1.490   2.360   1.057 -0.2038 -0.2057 -0.3598
 1595SOL    HW116439   1.570   2.379   0.999  0.1639  1.2681  0.6076
 1595SOL    HW216440   1.521   2.328   1.146 -0.7489 -1.2254 -0.5293
 1596SOL     OW16441   8.018   8.301   4.315 -0.8088  0.1719  0.1484
 1596SOL    HW116442   7.959   8.221   4.316  0.4373 -0.7704 -0.8023
 1596SOL    HW216443   7.971   8.377   4.360 -2.1867 -0.9419  0.6347
 1597SOL     OW16444   8.620   5.215   5.829 -0.5129 -0.4726 -0.0554
 1597SOL    HW116445   8.586   5.288   5.771 -0.3506 -0.5696 -0.2729
 1597SOL    HW216446   8.615   5.244   5.925 -0.6310 -0.2530 -0.1271
 1598SOL     OW16447   7.407   8.663   6.022  0.5535 -0.0021  0.0355
 1598SOL    HW116448   7.358   8.634   6.104 -0.6927 -1.0505 -1.0648
 1598SOL    HW216449   7.486   8.719   6.048  0.8662 -1.3157  2.0102
 1599SOL     OW16450   5.322   9.111   6.797  0.2537  0.3597 -0.0417
 1599SOL    HW116451   5.365   9.037   6.849  2.3497  1.6383  0.0995
 1599SOL    HW216452   5.253   9.156   6.854  0.3659 -0.2230  0.5594
 1600SOL     OW16453   9.516   7.643   1.346  0.0829  0.1415 -0.9118
 1600SOL    HW116454   9.528   7.730   1.393 -0.3516  0.8795 -2.1485
 1600SOL    HW216455   9.597   7.586   1.361 -0.0707  0.3295  0.7629
 1601SOL     OW16456   9.861   6.794   3.119 -0.7486 -0.0986  0.1928
 1601SOL    HW116457   9.795   6.857   3.159 -1.6373  0.1248 -1.5867
 1601SOL    HW216458   9.884   6.723   3.185  0.5960  2.2817  2.3756
 1602SOL     OW16459   7.063   4.697   0.372 -0.2248  0.0961  0.4906
 1602SOL    HW116460   7.015   4.679   0.287 -1.0996  1.0499  0.7711
 1602SOL    HW216461   7.095   4.611   0.412  0.3375 -0.3370 -0.8731
 1603SOL     OW16462   9.210   5.513   2.927  0.2106  0.4649  0.1237
 1603SOL    HW116463   9.208   5.448   2.851  1.4131 -0.5754  0.9410
 1603SOL    HW216464   9.137   5.491   2.992 -0.6577  1.1971 -0.6066
 1604SOL     OW16465   0.260   8.855   8.202 -0.0989 -0.0554  0.1659
 1604SOL    HW116466   0.301   8.792   8.267 -0.6834 -0.6935 -0.0786
 1604SOL    HW216467   0.192   8.912   8.248 -1.5034 -1.4331 -0.1306
 1605SOL     OW16468   1.822   4.555   0.971 -0.1942  0.3820  0.2021
 1605SOL    HW116469   1.897   4.581   0.911 -0.1186  0.3489  0.2825
 1605SOL    HW216470   1.840   4.465   1.011 -0.2928  0.3587  0.1930
 1606SOL     OW16471   3.683   1.675   4.616 -0.4243  0.1915 -0.3843
 1606SOL    HW116472   3.752   1.602   4.611 -0.5446 -0.0822  1.5547
 1606SOL    HW216473   3.611   1.657   4.550  0.2981 -0.6632 -0.9577
 1607SOL     OW16474   9.853   5.941   1.594  0.2497 -0.3433 -0.4220
 1607SOL    HW116475   9.910   5.906   1.520 -1.3208  0.8360 -2.2445
 1607SOL    HW216476   9.760   5.956   1.560 -0.3191  0.9055  1.5982
 1608SOL     OW16477   7.669   0.671   4.221 -0.6487  0.4585  0.0862
 1608SOL    HW116478   7.631   0.690   4.311 -1.0649 -0.8002  0.1970
 1608SOL    HW216479   7.764   0.641   4.230 -0.8848 -0.2856  0.1786
 1609SOL     OW16480   7.797   6.439   7.809 -0.5303  0.2495  0.1202
 1609SOL    HW116481   7.867   6.370   7.786  0.3383  0.9798  0.5197
 1609SOL    HW216482   7.750   6.410   7.893  0.7083  0.7539  1.0073
 1610SOL     OW16483   0.980   2.108   5.330  0.3517  0.2453 -0.2520
 1610SOL    HW116484   0.999   2.139   5.237  1.0267  1.1029  0.1668
 1610SOL    HW216485   0.943   2.184   5.384 -0.5708 -0.3939  0.0268
 1611SOL     OW16486   6.809   9.944   2.193 -0.6661 -0.0046 -0.2059
 1611SOL    HW116487   6.818  10.040   2.167  0.3548 -0.3338 -1.1080
 1611SOL    HW216488   6.793   9.889   2.111 -3.6129 -0.3568  0.5318
 1612SOL     OW16489   1.119   6.439   5.066 -0.0967  0.0377 -0.0191
 1612SOL    HW116490   1.154   6.420   4.975 -0.4510  0.8484 -0.3261
 1612SOL    HW216491   1.109   6.353   5.116  0.2771 -0.3917 -0.6741
 1613SOL     OW16492   7.870   5.831   1.996 -0.3390 -0.3038  0.6789
 1613SOL    HW116493   7.914   5.742   2.004  4.0785  1.9808  4.1286
 1613SOL    HW216494   7.895   5.873   1.909 -1.1595 -1.7557 -0.2674
 1614SOL     OW16495   5.057   7.392   2.148  0.5743  0.1863 -0.0752
 1614SOL    HW116496   5.044   7.491   2.147  0.7479  0.2024 -0.8455
 1614SOL    HW216497   5.035   7.355   2.058 -0.6352 -0.6205  0.5318
 1615SOL     OW16498   3.127   7.998   2.557 -0.5658  0.3083  0.6217
 1615SOL    HW116499   3.046   8.053   2.580  0.2896  0.9812  2.0461
 1615SOL    HW216500   3.158   7.948   2.638  1.6487  1.6037  0.6037
 1616SOL     OW16501   2.206   4.812   3.654 -0.1083  0.4723 -0.0399
 1616SOL    HW116502   2.302   4.809   3.681 -0.2766  0.6221  0.5931
 1616SOL    HW216503   2.157   4.877   3.712 -0.5503  0.5469 -0.4935
 1617SOL     OW16504   3.757   0.286   5.105  0.1167 -0.2999 -0.2963
 1617SOL    HW116505   3.823   0.213   5.119  1.3283  0.8904  0.3160
 1617SOL    HW216506   3.802   0.375   5.116 -0.9266  0.5809 -2.8137
 1618SOL     OW16507   0.953   4.214   7.867  0.5586 -0.5889 -0.0278
 1618SOL    HW116508   0.943   4.313   7.865  0.5935 -0.5939 -0.3314
 1618SOL    HW216509   0.866   4.172   7.894  0.8968 -0.4099  1.3947
 1619SOL     OW16510   0.478   0.343   7.532  0.7758  0.2531 -0.1291
 1619SOL    HW116511   0.474   0.335   7.631  0.5812  0.3900 -0.1276
 1619SOL    HW216512   0.397   0.390   7.498  1.2495  0.9645 -0.2765
 1620SOL     OW16513   9.122   4.734   7.839  0.4102 -0.2113 -0.1674
 1620SOL    HW116514   9.188   4.662   7.817 -0.1081 -1.2062  1.4027
 1620SOL    HW216515   9.146   4.776   7.926  0.7235  1.5641 -1.0943
 1621SOL     OW16516   1.057   2.370   4.975  0.1059  0.1625 -0.0857
 1621SOL    HW116517   1.076   2.399   5.069  0.7491 -1.9941  0.4723
 1621SOL    HW216518   1.118   2.419   4.912  1.5527 -0.3553  0.8862
 1622SOL     OW16519   9.057   2.231   5.528 -0.7568  1.0516  0.1507
 1622SOL    HW116520   8.980   2.263   5.583 -1.6838 -1.1906  0.1891
 1622SOL    HW216521   9.051   2.132   5.516  1.2475  1.0668 -1.2117
 1623SOL     OW16522   3.490   6.772   2.521  0.3121 -0.3103 -0.2748
 1623SOL    HW116523   3.413   6.831   2.495  0.8635  0.0729 -1.0431
 1623SOL    HW216524   3.480   6.747   2.617 -0.1090  0.7880 -0.0135
 1624SOL     OW16525   2.764   4.552   7.446  0.0037  0.2189 -0.2811
 1624SOL    HW116526   2.851   4.512   7.416  0.3499  0.1261  0.8176
 1624SOL    HW216527   2.688   4.494   7.417  0.4939 -1.2033  1.2285
 1625SOL     OW16528   2.311   1.973   0.547  0.5442  0.6406 -0.1861
 1625SOL    HW116529   2.355   2.048   0.497  2.0970  0.0908  0.3282
 1625SOL    HW216530   2.254   1.920   0.484  0.7229  1.2728 -0.8949
 1626SOL     OW16531   4.027   0.719   6.691 -0.5330  0.0852 -0.7417
 1626SOL    HW116532   4.047   0.760   6.780 -2.5561 -1.5081  0.5073
 1626SOL    HW216533   3.955   0.771   6.646  0.5278  0.9234 -1.5066
 1627SOL     OW16534   9.441   6.104   4.124 -0.5730 -0.0136 -0.7877
 1627SOL    HW116535   9.375   6.064   4.187 -0.2646 -1.1350 -1.1709
 1627SOL    HW216536   9.478   6.188   4.164 -1.2540 -0.0867  0.0024
 1628SOL     OW16537   7.623   5.389   4.897  0.2668  0.0979  0.1844
 1628SOL    HW116538   7.642   5.360   4.991  2.4158  1.1977  0.1226
 1628SOL    HW216539   7.671   5.329   4.833  0.0433  0.2752 -0.1511
 1629SOL     OW16540   4.430   0.745   4.724 -0.5275 -0.1575 -0.2594
 1629SOL    HW116541   4.353   0.750   4.787  0.9488 -0.9627  1.6321
 1629SOL    HW216542   4.405   0.790   4.638 -3.2454 -0.7837  0.1536
 1630SOL     OW16543   2.036   4.150   6.218  0.4070 -0.3236  0.3453
 1630SOL    HW116544   2.016   4.093   6.297  0.5870  0.7789  1.2001
 1630SOL    HW216545   2.120   4.118   6.174  0.6873 -0.5149  1.0137
 1631SOL     OW16546   2.467   2.756   1.924  0.1149 -0.4011 -0.1966
 1631SOL    HW116547   2.401   2.812   1.974 -0.5847 -1.8849  0.5753
 1631SOL    HW216548   2.553   2.751   1.976  0.2110  0.0378 -0.3147
 1632SOL     OW16549   3.489   5.530   3.737 -0.0999 -0.5635 -0.2704
 1632SOL    HW116550   3.448   5.621   3.732 -0.6381 -0.8767 -2.3853
 1632SOL    HW216551   3.585   5.537   3.765 -0.5426  0.5209  0.9800
 1633SOL     OW16552   2.209   0.745   2.410  0.0416 -0.4059 -0.2421
 1633SOL    HW116553   2.233   0.695   2.327  0.0099  1.3148 -1.3205
 1633SOL    HW216554   2.109   0.753   2.416  0.0880  0.6071 -0.7426
 1634SOL     OW16555   5.739   8.799   5.117  0.4289 -0.1859 -0.6600
 1634SOL    HW116556   5.832   8.769   5.096  0.0264 -0.2597 -2.3893
 1634SOL    HW216557   5.713   8.875   5.058  0.0956  1.1811  1.1870
 1635SOL     OW16558   5.540   7.077   5.152 -0.1910  0.2129 -0.3237
 1635SOL    HW116559   5.445   7.086   5.182 -0.3348  0.7035 -0.9329
 1635SOL    HW216560   5.591   7.023   5.220 -0.9650 -0.2860 -0.1383
 1636SOL     OW16561   1.289   4.413   5.348  0.1142  0.0446  0.4969
 1636SOL    HW116562   1.370   4.401   5.405  1.0332 -2.3970 -1.2394
 1636SOL    HW216563   1.311   4.473   5.271  0.3571 -0.8104 -0.1060
 1637SOL     OW16564   5.719   9.608   3.837  0.1404  0.3811  0.1548
 1637SOL    HW116565   5.714   9.509   3.831  0.2920  0.4371 -1.0447
 1637SOL    HW216566   5.640   9.648   3.791  1.6210  0.8634 -2.0658
 1638SOL     OW16567   3.779   4.210   3.178 -0.8534 -0.1875  0.1230
 1638SOL    HW116568   3.803   4.282   3.114 -0.9171 -0.2524  0.0274
 1638SOL    HW216569   3.797   4.121   3.137 -0.2822 -0.2165  0.4321
 1639SOL     OW16570   1.701   9.870   8.137 -0.3396  0.0799 -0.0240
 1639SOL    HW116571   1.718   9.967   8.121 -0.1180 -0.0397 -0.5503
 1639SOL    HW216572   1.768   9.816   8.084  1.1132 -0.3159  2.1682
 1640SOL     OW16573   8.287   2.660   1.834  0.6574 -0.3181 -0.6355
 1640SOL    HW116574   8.205   2.715   1.850  0.7013 -0.8361  1.6520
 1640SOL    HW216575   8.275   2.570   1.876  2.2086 -0.5666 -0.7022
 1641SOL     OW16576   1.271   7.173   7.513  0.4350 -0.2320 -0.0494
 1641SOL    HW116577   1.292   7.248   7.450 -1.1952  0.2372 -0.0463
 1641SOL    HW216578   1.267   7.087   7.462 -1.6018  0.2509 -0.7183
 1642SOL     OW16579   7.037   0.127   6.739  0.4140 -0.8158 -0.0650
 1642SOL    HW116580   7.095   0.187   6.794  1.1733  0.0146 -1.7346
 1642SOL    HW216581   7.063   0.032   6.755 -1.2483 -0.7763  3.1162
 1643SOL     OW16582   2.400   2.367   0.165  0.1336  0.5540 -0.0688
 1643SOL    HW116583   2.380   2.279   0.122  0.6588  0.5118 -0.2272
 1643SOL    HW216584   2.379   2.361   0.263 -0.2768  0.3997 -0.1635
 1644SOL     OW16585   8.549   7.961   5.158  0.1186 -0.3956 -0.2899
 1644SOL    HW116586   8.636   8.007   5.178 -0.4857  0.4019  0.5629
 1644SOL    HW216587   8.543   7.943   5.060  0.7817  0.5052 -0.5104
 1645SOL     OW16588   8.929   2.090   1.828  0.1000 -0.6907  0.4436
 1645SOL    HW116589   8.991   2.166   1.806 -0.2948 -0.7718 -1.0104
 1645SOL    HW216590   8.969   2.035   1.902  1.4714 -0.3675 -0.0382
 1646SOL     OW16591   2.983   6.409   2.232  0.4932  0.0189 -0.6830
 1646SOL    HW116592   2.925   6.446   2.305  0.0589 -0.7930 -0.6186
 1646SOL    HW216593   3.079   6.418   2.259  0.3139 -0.9424  0.3123
 1647SOL     OW16594   1.776   3.166   5.651 -0.3061 -0.3460 -0.3262
 1647SOL    HW116595   1.711   3.094   5.673  0.7536 -1.9693 -2.3204
 1647SOL    HW216596   1.868   3.140   5.681  0.2036 -0.1438 -1.6564
 1648SOL     OW16597   4.646   9.797   2.162  0.5153 -0.3873 -0.0278
 1648SOL    HW116598   4.557   9.835   2.134  0.2558 -0.8996  0.1017
 1648SOL    HW216599   4.632   9.712   2.212  0.9942  0.3999  1.4708
 1649SOL     OW16600   2.005   6.076   5.511  0.0163 -0.0738 -0.0356
 1649SOL    HW116601   2.089   6.039   5.550  0.4566  1.2420  0.2899
 1649SOL    HW216602   1.949   6.117   5.583 -1.5144 -2.0739 -0.0580
 1650SOL     OW16603   2.992   0.068   4.944  0.1987 -0.1292  0.2854
 1650SOL    HW116604   2.909   0.059   4.888  0.9116 -1.3942 -0.6049
 1650SOL    HW216605   3.039   0.153   4.921  0.4880 -0.6360 -1.0778
 1651SOL     OW16606   8.683   9.951   3.222  0.4096  0.1034 -0.3845
 1651SOL    HW116607   8.750  10.018   3.254 -1.8516  2.2951 -0.1250
 1651SOL    HW216608   8.652   9.976   3.130 -3.6448  1.9398  1.4018
 1652SOL     OW16609   9.343   4.337   0.262 -0.4426 -0.1103 -0.3542
 1652SOL    HW116610   9.411   4.327   0.189 -0.6983 -0.8329 -0.4993
 1652SOL    HW216611   9.265   4.278   0.242 -0.2718 -0.7393  0.7945
 1653SOL     OW16612   5.956   8.479   5.020  0.1648 -0.0992 -0.1861
 1653SOL    HW116613   5.979   8.575   5.034  0.2095 -0.3223  1.3730
 1653SOL    HW216614   5.886   8.452   5.085 -0.0154 -1.0733 -0.7704
 1654SOL     OW16615   8.293   5.328   1.264 -0.2101 -0.4163 -0.1459
 1654SOL    HW116616   8.233   5.379   1.202 -3.0743 -2.4079  0.8388
 1654SOL    HW216617   8.259   5.338   1.358  3.5082  1.8014  1.0670
 1655SOL     OW16618   2.330   3.072   6.508  0.7331  0.0539  0.5024
 1655SOL    HW116619   2.382   3.134   6.449  0.9694  0.4831  1.1635
 1655SOL    HW216620   2.384   3.048   6.588 -0.6793  1.8108  2.0283
 1656SOL     OW16621   5.352   1.411   7.646  0.2385  0.2045 -0.3402
 1656SOL    HW116622   5.394   1.473   7.712  1.6120 -0.2214 -0.8054
 1656SOL    HW216623   5.337   1.460   7.560  1.7049 -0.2075 -0.8413
 1657SOL     OW16624   8.292   7.412   6.484  0.4344  0.4235 -0.4947
 1657SOL    HW116625   8.317   7.448   6.394 -0.7628  1.1992 -0.5273
 1657SOL    HW216626   8.285   7.312   6.479  1.6001  0.3601 -0.9480
 1658SOL     OW16627   3.456   2.752   4.725 -0.0954 -0.1966 -0.6083
 1658SOL    HW116628   3.477   2.833   4.670  0.3191  0.1438  0.0577
 1658SOL    HW216629   3.493   2.762   4.817 -2.1210 -0.1197  0.2179
 1659SOL     OW16630   1.541   1.029   6.359  0.0115  0.2418 -0.0816
 1659SOL    HW116631   1.444   1.028   6.386  0.1204  2.4100  0.5106
 1659SOL    HW216632   1.551   1.077   6.272  0.3790 -1.3582 -0.9232
 1660SOL     OW16633   9.405   2.730   3.080 -0.0549  0.0669 -0.2114
 1660SOL    HW116634   9.423   2.653   3.019 -0.7283  0.8595 -1.4168
 1660SOL    HW216635   9.360   2.695   3.163  1.1354 -1.0427 -0.0084
 1661SOL     OW16636   9.959   5.579   4.949 -0.2117  0.2952  0.3053
 1661SOL    HW116637   9.861   5.565   4.956  0.0323 -1.3823  0.4329
 1661SOL    HW216638  10.002   5.498   4.909  0.9699  1.5159 -0.9453
 1662SOL     OW16639   9.138   5.187   6.626 -0.0581  0.2810  0.3651
 1662SOL    HW116640   9.132   5.088   6.631 -0.1711  0.2795  0.1801
 1662SOL    HW216641   9.107   5.219   6.537 -0.1469  0.4930  0.4707
 1663SOL     OW16642   0.507   1.472   2.003 -0.1725 -0.6948  0.6444
 1663SOL    HW116643   0.574   1.532   2.046 -1.0873  1.2775 -0.6248
 1663SOL    HW216644   0.443   1.526   1.948 -0.0624 -2.9542 -1.8214
 1664SOL     OW16645   5.429   7.172   3.596 -0.2644 -0.2458  0.2485
 1664SOL    HW116646   5.340   7.138   3.627 -0.7707  0.7076 -0.1474
 1664SOL    HW216647   5.432   7.169   3.496 -0.8694  2.2222  0.1298
 1665SOL     OW16648   2.918   0.790   7.572 -0.5380  0.5639 -0.1527
 1665SOL    HW116649   2.905   0.697   7.607  0.4323  0.3498 -0.3380
 1665SOL    HW216650   2.942   0.851   7.648  1.1033  0.1923 -0.3447
 1666SOL     OW16651   2.776   3.309   2.125  0.4381 -0.6212 -0.0288
 1666SOL    HW116652   2.733   3.390   2.085  1.1508  0.3712  1.1906
 1666SOL    HW216653   2.755   3.305   2.223  1.8917 -0.9205  0.2812
 1667SOL     OW16654   0.221   7.749   1.106  0.0575 -0.7449  0.4773
 1667SOL    HW116655   0.308   7.700   1.115  0.1551 -0.5089  0.8238
 1667SOL    HW216656   0.227   7.836   1.154  1.1143  1.2231 -3.0368
 1668SOL     OW16657   0.247   2.609   2.579  0.2053 -0.3654 -0.1202
 1668SOL    HW116658   0.172   2.646   2.633  1.7708  1.4297  0.8690
 1668SOL    HW216659   0.213   2.585   2.488 -1.5896  0.2907  0.3495
 1669SOL     OW16660   1.678   3.545   1.754  0.0141 -0.2991  0.4864
 1669SOL    HW116661   1.730   3.622   1.791  1.3834 -0.6361 -0.7255
 1669SOL    HW216662   1.592   3.536   1.804  0.2664  1.4400  1.2488
 1670SOL     OW16663   1.299   1.340   3.948  0.6423 -0.2592 -0.1810
 1670SOL    HW116664   1.306   1.330   4.047  0.2691 -0.0305 -0.1292
 1670SOL    HW216665   1.281   1.251   3.906 -0.2448 -0.1960  0.0557
 1671SOL     OW16666   2.922   2.893   1.973  0.1251 -0.3221 -0.1351
 1671SOL    HW116667   2.883   2.808   1.936  1.0301 -0.1036 -1.6204
 1671SOL    HW216668   2.893   2.904   2.068  1.3695 -3.2009  0.6546
 1672SOL     OW16669   4.311   0.445   4.064 -0.5898 -0.2910 -0.6769
 1672SOL    HW116670   4.282   0.387   4.140  1.1182  0.2101  0.4074
 1672SOL    HW216671   4.243   0.443   3.992 -1.6630 -1.7685  0.3507
 1673SOL     OW16672   2.556   1.465   4.433  0.2685  0.1253 -0.0035
 1673SOL    HW116673   2.550   1.475   4.334 -0.2285 -0.0480  0.0050
 1673SOL    HW216674   2.481   1.407   4.465 -0.5356  1.4885  0.6458
 1674SOL     OW16675   8.685   6.281   5.647 -0.0004  0.4355  0.5905
 1674SOL    HW116676   8.617   6.281   5.720  0.3701 -1.7147  0.9775
 1674SOL    HW216677   8.737   6.366   5.650 -0.3417  0.5976  2.5025
 1675SOL     OW16678   1.139   7.337   1.077 -0.1057 -0.2891 -0.4450
 1675SOL    HW116679   1.146   7.436   1.069  1.3571 -0.3955 -0.4697
 1675SOL    HW216680   1.044   7.313   1.097 -0.1738  1.2328  1.2137
 1676SOL     OW16681   0.301   6.719   6.367 -0.2483 -0.2915 -0.2882
 1676SOL    HW116682   0.380   6.764   6.326  1.2723 -1.3195  1.4488
 1676SOL    HW216683   0.234   6.698   6.296  0.1017  2.4549 -1.4720
 1677SOL     OW16684   8.236   1.334   1.063  0.1683 -0.0671  0.2716
 1677SOL    HW116685   8.284   1.264   1.011  1.2904 -0.7586  2.1883
 1677SOL    HW216686   8.217   1.301   1.155  0.3486  2.0033  1.0919
 1678SOL     OW16687   4.511   6.034   1.949  0.0023  0.3632 -0.4196
 1678SOL    HW116688   4.484   5.953   1.897  0.7895  0.6851 -1.3513
 1678SOL    HW216689   4.541   6.105   1.885  0.1150  1.0835  0.4357
 1679SOL     OW16690   0.243   4.557   2.352  0.7124 -0.1804  0.3544
 1679SOL    HW116691   0.211   4.602   2.436 -0.0253 -0.2884  0.1380
 1679SOL    HW216692   0.286   4.625   2.293  0.1314  0.1294  0.2868
 1680SOL     OW16693   0.402   5.832   3.881 -0.2876  0.1986  0.1191
 1680SOL    HW116694   0.358   5.787   3.959 -2.4626 -1.8152 -2.2068
 1680SOL    HW216695   0.502   5.822   3.890 -0.6149 -2.8690  1.0018
 1681SOL     OW16696   5.073   1.439   6.486  0.3067 -0.3290  0.3760
 1681SOL    HW116697   5.091   1.518   6.545  1.9897 -0.7887  0.5270
 1681SOL    HW216698   4.977   1.414   6.491  0.1352  0.5649  1.7827
 1682SOL     OW16699   7.344   2.648   3.726 -0.2324 -0.1521  0.3756
 1682SOL    HW116700   7.301   2.669   3.638  0.0769 -0.6552  0.1010
 1682SOL    HW216701   7.384   2.731   3.764  0.2742 -0.0813 -0.3055
 1683SOL     OW16702   7.663   6.931   3.217  0.0879  0.4458  0.3934
 1683SOL    HW116703   7.720   6.982   3.153 -1.0571  1.2819  0.0176
 1683SOL    HW216704   7.716   6.857   3.257  0.6223 -0.5578 -2.0761
 1684SOL     OW16705   3.876   7.903   2.945 -0.3658 -0.1008 -0.3623
 1684SOL    HW116706   3.836   7.814   2.966  0.3029 -0.6180 -1.2711
 1684SOL    HW216707   3.888   7.912   2.847  2.3508 -0.2265 -0.0865
 1685SOL     OW16708   2.502   7.905   1.253  0.1319  0.6263 -0.1661
 1685SOL    HW116709   2.419   7.852   1.268 -0.1551  1.2616  0.5730
 1685SOL    HW216710   2.497   7.989   1.307  1.0756  0.8607 -0.4400
 1686SOL     OW16711   7.630   3.848   5.766  0.9660  0.7638  0.4586
 1686SOL    HW116712   7.712   3.812   5.810  0.8899 -0.2044 -0.1982
 1686SOL    HW216713   7.651   3.938   5.726  1.7056  0.5144  0.2791
 1687SOL     OW16714   1.753   1.791   6.947  0.2582  0.1186 -0.4062
 1687SOL    HW116715   1.654   1.800   6.961  0.2131  0.0643 -0.6889
 1687SOL    HW216716   1.777   1.825   6.856  0.3632 -0.7757 -0.7187
 1688SOL     OW16717   6.722   0.454   1.064 -0.3163 -0.7169  0.6962
 1688SOL    HW116718   6.802   0.401   1.091  0.9582  1.8456  2.1883
 1688SOL    HW216719   6.656   0.456   1.140 -0.3848 -0.2519  0.6280
 1689SOL     OW16720   5.042   5.344   0.522 -0.9049 -0.2888 -0.1787
 1689SOL    HW116721   4.950   5.384   0.525 -0.0280  1.7828 -0.3218
 1689SOL    HW216722   5.081   5.357   0.431 -0.1968 -0.5600  0.0842
 1690SOL     OW16723   9.546   7.504   1.007 -0.0941  0.2579  0.0472
 1690SOL    HW116724   9.584   7.590   1.041  0.6656 -0.6133  1.4526
 1690SOL    HW216725   9.489   7.522   0.927 -1.8969  2.3548  1.7480
 1691SOL     OW16726   3.290   0.389   6.506 -0.3119 -0.2000 -0.2045
 1691SOL    HW116727   3.235   0.472   6.494  0.2602  0.0292 -1.2702
 1691SOL    HW216728   3.304   0.373   6.604 -2.7439 -0.5831  0.1241
 1692SOL     OW16729   8.310   9.714   1.335  0.5717 -0.3237 -0.1981
 1692SOL    HW116730   8.242   9.747   1.401  1.3935  0.8618  0.0851
 1692SOL    HW216731   8.264   9.669   1.259 -0.3441 -3.0140  1.8617
 1693SOL     OW16732   8.231   7.734   2.854  0.0284 -0.4985  0.5430
 1693SOL    HW116733   8.133   7.750   2.852 -0.1887 -1.8883 -0.2434
 1693SOL    HW216734   8.251   7.649   2.902  0.6892 -1.2699 -1.0515
 1694SOL     OW16735   2.017   3.039   7.484  0.0649  0.1777 -0.2493
 1694SOL    HW116736   2.082   3.092   7.430 -2.2261  1.6456 -1.6650
 1694SOL    HW216737   1.925   3.048   7.444 -1.2557 -0.7332  2.4464
 1695SOL     OW16738   8.852   1.684   4.980 -0.5743  0.1173  0.0069
 1695SOL    HW116739   8.796   1.742   4.921  0.2963  1.9494  0.9273
 1695SOL    HW216740   8.867   1.731   5.068  2.5320 -0.2327 -0.2740
 1696SOL     OW16741   0.922   0.785   4.363 -0.2608 -0.2852 -0.4331
 1696SOL    HW116742   0.997   0.821   4.307 -0.1399  0.5632  0.2663
 1696SOL    HW216743   0.940   0.805   4.460 -2.8396  2.6121 -0.4804
 1697SOL     OW16744   9.445   1.751   6.988 -0.5416  0.0824 -0.1325
 1697SOL    HW116745   9.446   1.830   7.050  0.9311 -0.2005  0.2202
 1697SOL    HW216746   9.352   1.714   6.983 -1.0226  1.1713  0.5543
 1698SOL     OW16747   1.954   8.505   0.554  0.0611  0.0986 -0.1333
 1698SOL    HW116748   1.919   8.423   0.599  1.3812 -0.3929  0.0250
 1698SOL    HW216749   1.924   8.506   0.459  0.4227 -0.8190 -0.2672
 1699SOL     OW16750   9.074   0.992   6.611  0.3094 -0.5805  0.0426
 1699SOL    HW116751   9.162   0.953   6.582  0.2419 -1.0808  0.4965
 1699SOL    HW216752   9.050   0.955   6.701  1.2210  2.0882  1.4335
 1700SOL     OW16753   9.969   9.475   0.944  0.2752  0.0351 -0.4854
 1700SOL    HW116754   9.931   9.547   1.002  0.9903 -0.4984  0.6684
 1700SOL    HW216755   9.937   9.386   0.976  2.6454 -0.4540  0.6917
 1701SOL     OW16756   7.218   1.152   0.128 -0.4762  0.6171  0.1946
 1701SOL    HW116757   7.232   1.108   0.039  1.1239  0.1080  0.6794
 1701SOL    HW216758   7.209   1.082   0.198  4.0851  0.9392  1.2876
 1702SOL     OW16759   6.289   2.126   0.884  0.1092 -0.3354 -0.5891
 1702SOL    HW116760   6.262   2.042   0.838 -1.0766  0.4453 -1.3539
 1702SOL    HW216761   6.250   2.205   0.836  0.7992  0.6318  0.3923
 1703SOL     OW16762   2.392   3.191   6.909  0.2476  0.2027  0.0535
 1703SOL    HW116763   2.467   3.159   6.968  0.3415  0.2078 -0.0627
 1703SOL    HW216764   2.305   3.174   6.954  0.3321  0.4429  0.3071
 1704SOL     OW16765   0.710   9.184   0.379 -0.0917  0.4252 -0.0925
 1704SOL    HW116766   0.781   9.227   0.435  0.9349 -0.2724 -0.8344
 1704SOL    HW216767   0.636   9.152   0.437  1.1694 -0.7010  0.9208
 1705SOL     OW16768   4.135   7.754   6.922  0.3088  0.0423 -0.8761
 1705SOL    HW116769   4.133   7.849   6.893 -1.0196 -0.0319 -1.0586
 1705SOL    HW216770   4.122   7.750   7.022  0.3502  0.0578 -0.8703
 1706SOL     OW16771   8.300   3.479   7.229 -0.4737 -0.3036 -0.0711
 1706SOL    HW116772   8.369   3.418   7.268  1.2407  0.4424 -1.8454
 1706SOL    HW216773   8.318   3.573   7.259 -1.6137 -0.3014  0.6355
 1707SOL     OW16774   3.758   7.319   3.689  0.2866  0.5259 -0.4757
 1707SOL    HW116775   3.838   7.335   3.631  0.4560 -0.0684 -0.4059
 1707SOL    HW216776   3.675   7.326   3.633  0.4965 -0.9894 -0.9907
 1708SOL     OW16777   7.901   4.774   5.678 -0.4908 -0.0826  0.8900
 1708SOL    HW116778   7.907   4.714   5.758  0.2974 -0.9724  0.1722
 1708SOL    HW216779   7.989   4.774   5.630 -0.3043  2.0875  1.1869
 1709SOL     OW16780   9.607   0.376   4.582  0.0983 -0.1167 -0.1080
 1709SOL    HW116781   9.647   0.342   4.497 -1.0005  1.3344 -1.2412
 1709SOL    HW216782   9.561   0.301   4.629 -0.1765 -0.7271 -1.3207
 1710SOL     OW16783   1.122   3.209   3.596 -0.0034  0.2152 -0.5117
 1710SOL    HW116784   1.077   3.273   3.534  0.5581 -0.3166 -1.4703
 1710SOL    HW216785   1.053   3.156   3.646 -0.4512 -0.3948 -1.7589
 1711SOL     OW16786   8.072   3.532   6.839  0.2562  0.0084  0.1668
 1711SOL    HW116787   8.165   3.511   6.808  0.7633  1.3384  0.7415
 1711SOL    HW216788   8.067   3.522   6.938 -0.3860 -0.6759  0.0669
 1712SOL     OW16789   0.907   6.579   3.172  0.4266  0.2509  0.1918
 1712SOL    HW116790   0.831   6.517   3.155  1.3162 -0.1385 -2.8020
 1712SOL    HW216791   0.929   6.581   3.269 -2.2720 -0.9428  0.8496
 1713SOL     OW16792   8.457   2.689   6.265  0.0383 -0.0276 -0.2248
 1713SOL    HW116793   8.541   2.743   6.273 -0.0357  0.1290 -0.5192
 1713SOL    HW216794   8.469   2.602   6.313  0.6178 -0.3072 -0.8806
 1714SOL     OW16795   6.888   1.636   3.216  0.1595  0.0383 -0.6005
 1714SOL    HW116796   6.957   1.602   3.280  1.5819  1.4097 -1.3667
 1714SOL    HW216797   6.817   1.567   3.203  1.5502 -1.5226 -0.0435
 1715SOL     OW16798   3.899   2.777   8.121  0.0399 -0.3980  0.0049
 1715SOL    HW116799   3.993   2.750   8.101  0.0311 -0.7605  0.4372
 1715SOL    HW216800   3.845   2.696   8.145 -0.4706 -0.2355 -0.5850
 1716SOL     OW16801   1.409   0.863   4.572  0.7514 -0.0052 -0.6675
 1716SOL    HW116802   1.343   0.910   4.513  1.3616  1.5802 -0.1320
 1716SOL    HW216803   1.482   0.824   4.517 -0.0124 -0.7553 -1.1620
 1717SOL     OW16804   0.804   8.769   5.326  0.7278  0.3446  0.1916
 1717SOL    HW116805   0.844   8.796   5.413  0.6890 -2.3424  1.0783
 1717SOL    HW216806   0.867   8.708   5.278 -0.2379 -0.0299 -0.6118
 1718SOL     OW16807   7.925   6.373   5.727  0.1808 -0.1882  0.2713
 1718SOL    HW116808   7.996   6.363   5.797 -1.5915 -1.0136  2.0004
 1718SOL    HW216809   7.845   6.318   5.753 -0.4192 -0.7028 -2.5346
 1719SOL     OW16810   8.230   4.546   7.791  0.2684 -0.2787 -0.3434
 1719SOL    HW116811   8.226   4.642   7.764  0.8366  0.0895  0.8133
 1719SOL    HW216812   8.138   4.512   7.810  0.1613  0.3921  0.3922
 1720SOL     OW16813   0.624   6.891   7.793 -0.2701  0.3633  0.0820
 1720SOL    HW116814   0.613   6.803   7.748  0.8603  0.2189  0.0680
 1720SOL    HW216815   0.689   6.882   7.869 -2.3285  0.5309  1.9334
 1721SOL     OW16816   3.982   8.037   0.594  0.1398 -0.3702 -0.0638
 1721SOL    HW116817   4.013   7.943   0.578  1.2212 -0.5919  2.9754
 1721SOL    HW216818   3.947   8.045   0.688 -1.2259  1.9506 -0.7231
 1722SOL     OW16819   2.827   2.566   3.207 -0.2196  0.0529  0.0085
 1722SOL    HW116820   2.787   2.475   3.211  2.0888 -0.9486  1.5577
 1722SOL    HW216821   2.754   2.635   3.207 -1.9685 -1.7490 -0.4607
 1723SOL     OW16822   7.876   5.288   1.186 -0.1012  0.2885  0.4022
 1723SOL    HW116823   7.951   5.225   1.165 -0.2597  0.6938 -1.4781
 1723SOL    HW216824   7.888   5.372   1.133 -1.8591  0.3769  0.1224
 1724SOL     OW16825   9.535   6.971   0.070  0.1782 -0.1349  0.1404
 1724SOL    HW116826   9.545   7.026  -0.013 -1.2330 -0.0625  0.0073
 1724SOL    HW216827   9.554   6.875   0.049  1.5294  0.1273  0.1251
 1725SOL     OW16828   0.291   2.031   3.492  0.2529 -0.0902 -0.0774
 1725SOL    HW116829   0.275   2.041   3.590 -0.6451  0.0834 -0.2419
 1725SOL    HW216830   0.247   1.947   3.459 -0.6549  0.5885 -0.6035
 1726SOL     OW16831   3.881   0.914   3.555 -0.1830  0.1789 -0.2837
 1726SOL    HW116832   3.897   0.831   3.501  0.7035 -1.2916  2.1673
 1726SOL    HW216833   3.961   0.973   3.549  0.8472 -1.0186  1.1784
 1727SOL     OW16834   9.976   3.546   4.883 -0.2548 -0.2121  0.5254
 1727SOL    HW116835   9.952   3.537   4.979 -1.8568 -0.5817  0.0975
 1727SOL    HW216836   9.972   3.643   4.856  0.0096 -0.1316  0.7728
 1728SOL     OW16837   5.352   7.651   1.991 -0.0638  0.1128 -0.0791
 1728SOL    HW116838   5.440   7.632   2.036  0.5338  0.7926 -0.9436
 1728SOL    HW216839   5.326   7.746   2.007  0.9203  0.8221 -2.3970
 1729SOL     OW16840   9.593   4.084   1.575  0.0568 -0.1773 -0.8471
 1729SOL    HW116841   9.643   4.014   1.626 -1.0471 -1.3955 -1.3926
 1729SOL    HW216842   9.521   4.040   1.521 -0.1780  1.3222 -1.7657
 1730SOL     OW16843   6.841   1.202   2.764  0.1591  0.3541 -0.2411
 1730SOL    HW116844   6.931   1.241   2.781  1.5283 -2.4148 -0.7896
 1730SOL    HW216845   6.805   1.162   2.848  1.1715 -1.8964 -0.8426
 1731SOL     OW16846   2.792   2.655   2.880  0.2031  0.3025 -0.7626
 1731SOL    HW116847   2.847   2.656   2.963 -1.9587  0.8455  0.6956
 1731SOL    HW216848   2.708   2.602   2.896 -0.2043  0.3611 -2.6128
 1732SOL     OW16849   2.912   5.596   2.882 -0.3140  0.2776 -0.6022
 1732SOL    HW116850   2.955   5.526   2.826  0.6229 -0.8774  1.5309
 1732SOL    HW216851   2.981   5.660   2.916 -1.1021  2.0029 -2.1722
 1733SOL     OW16852   2.934   2.735   6.495  0.3986  0.1862  0.2815
 1733SOL    HW116853   3.007   2.694   6.441  0.9281  0.3791  0.8398
 1733SOL    HW216854   2.952   2.833   6.507  0.2753  0.1484  0.7833
 1734SOL     OW16855   4.531   7.164   1.318 -0.0526  0.8373  0.1398
 1734SOL    HW116856   4.627   7.176   1.296  0.2166  0.3278  1.0056
 1734SOL    HW216857   4.501   7.074   1.288 -0.6943  1.5903 -1.5830
 1735SOL     OW16858   3.636   8.058   6.440  0.1830  0.4753  0.1187
 1735SOL    HW116859   3.715   8.006   6.472  0.3316  0.7849  0.2593
 1735SOL    HW216860   3.635   8.148   6.484 -1.4315 -0.3078  1.7705
 1736SOL     OW16861   3.810   7.707   5.466  0.4172 -0.7846 -0.0453
 1736SOL    HW116862   3.864   7.623   5.466 -0.6148 -1.4712 -1.1674
 1736SOL    HW216863   3.757   7.712   5.381  0.5111  1.0298 -0.0121
 1737SOL     OW16864   8.712   5.992   6.057  0.5275  0.3004 -0.8981
 1737SOL    HW116865   8.782   6.062   6.044  0.6473  0.2280 -0.6515
 1737SOL    HW216866   8.685   5.955   5.969  2.4410 -1.2921 -0.8293
 1738SOL     OW16867   0.918   1.432   6.354 -0.2709 -0.4959  0.3961
 1738SOL    HW116868   0.990   1.464   6.416  0.3425 -1.4538  0.2006
 1738SOL    HW216869   0.838   1.405   6.408  0.3211 -1.4816  0.8125
 1739SOL     OW16870   0.238   2.536   3.538 -0.3411 -0.5309  0.4373
 1739SOL    HW116871   0.226   2.610   3.472 -0.2902 -0.5604  0.3948
 1739SOL    HW216872   0.312   2.476   3.509  0.4352  0.1005  1.1129
 1740SOL     OW16873   5.539   3.892   0.810 -0.1590  0.4959 -0.8104
 1740SOL    HW116874   5.595   3.974   0.816  0.7286 -0.1242 -0.5177
 1740SOL    HW216875   5.448   3.916   0.776 -0.2033  1.7346  0.1235
 1741SOL     OW16876   4.086   8.532   7.071  0.2526  0.1608  0.0565
 1741SOL    HW116877   4.046   8.524   6.980  1.3894  2.0902 -0.6370
 1741SOL    HW216878   4.018   8.568   7.135 -0.1783 -0.0365 -0.2851
 1742SOL     OW16879   1.484   5.877   3.659  0.2784 -0.5599  0.0522
 1742SOL    HW116880   1.430   5.813   3.604  1.3932 -0.8355 -0.7269
 1742SOL    HW216881   1.521   5.830   3.739 -0.8381 -0.3081  0.7297
 1743SOL     OW16882   3.532   3.159   2.669  0.1424  0.1978 -0.0245
 1743SOL    HW116883   3.458   3.198   2.615  0.3763 -0.5278 -0.8848
 1743SOL    HW216884   3.495   3.087   2.729 -0.0321  0.6528  0.4234
 1744SOL     OW16885   5.789   8.997   5.318 -0.0941  0.4192 -0.4909
 1744SOL    HW116886   5.783   8.941   5.235  3.2856 -0.1683 -0.4356
 1744SOL    HW216887   5.827   9.087   5.295 -3.1029  1.8393 -0.1753
 1745SOL     OW16888   3.113   5.653   2.219  0.2437  0.1452 -0.3934
 1745SOL    HW116889   3.132   5.705   2.302  1.1181 -0.4696 -0.1992
 1745SOL    HW216890   3.015   5.635   2.213  0.0304  1.1485 -0.0716
 1746SOL     OW16891   6.284   8.836   6.593  0.6454 -0.0088  0.4812
 1746SOL    HW116892   6.193   8.872   6.612 -1.0742 -2.5939 -2.3943
 1746SOL    HW216893   6.337   8.903   6.542 -0.5127  0.5532  0.0244
 1747SOL     OW16894   3.446   1.327   1.380  0.1364 -0.0507  0.0202
 1747SOL    HW116895   3.464   1.402   1.316  1.1503 -0.3374 -0.0394
 1747SOL    HW216896   3.532   1.283   1.405 -0.2801 -0.0999  1.3972
 1748SOL     OW16897   2.882   1.723   1.884  0.2387 -0.1235  0.0535
 1748SOL    HW116898   2.864   1.645   1.943  1.2048  0.3010  0.9142
 1748SOL    HW216899   2.822   1.799   1.910 -0.0707 -0.2802 -0.1985
 1749SOL     OW16900   7.285   0.709   1.992 -0.0128 -0.4121 -0.3449
 1749SOL    HW116901   7.235   0.626   2.019 -2.7129  0.9240 -1.0461
 1749SOL    HW216902   7.232   0.789   2.018  1.7074  1.0680 -1.3107
 1750SOL     OW16903   9.526   4.472   6.067  0.5106  0.4513  0.3243
 1750SOL    HW116904   9.533   4.373   6.079 -0.6465  0.2376 -0.6365
 1750SOL    HW216905   9.481   4.491   5.980  0.3296  1.8273  0.7126
 1751SOL     OW16906   5.594   4.305   1.038 -0.0602 -0.0621  0.1417
 1751SOL    HW116907   5.600   4.405   1.033  0.7956 -0.0734  0.8652
 1751SOL    HW216908   5.517   4.273   0.981  0.2536  0.9285 -0.8532
 1752SOL     OW16909   3.480   8.375   7.711 -0.4088  0.0337  0.2352
 1752SOL    HW116910   3.451   8.351   7.804  2.0014  1.3240  1.3602
 1752SOL    HW216911   3.580   8.370   7.705 -0.6115 -1.3864 -2.6958
 1753SOL     OW16912   3.231   0.461   3.005 -0.3435 -0.7365  0.0259
 1753SOL    HW116913   3.147   0.409   3.020 -2.4772  2.8840  1.1870
 1753SOL    HW216914   3.231   0.497   2.912 -0.1590 -0.5648  0.0932
 1754SOL     OW16915   5.811   6.076   0.849 -0.2130 -0.3122  0.4960
 1754SOL    HW116916   5.771   6.054   0.939  0.1779  2.9387  1.5332
 1754SOL    HW216917   5.738   6.091   0.783 -0.5135 -2.3628  0.3479
 1755SOL     OW16918   8.086   0.820   2.382 -0.4381  0.2304  0.1767
 1755SOL    HW116919   8.075   0.857   2.290  1.5560  0.0024 -0.1683
 1755SOL    HW216920   8.036   0.733   2.389 -1.5592  0.8226 -0.3109
 1756SOL     OW16921   7.855   9.295   6.156  0.3597 -0.0142 -0.3506
 1756SOL    HW116922   7.778   9.303   6.091 -0.4747  0.5888  0.6976
 1756SOL    HW216923   7.821   9.263   6.244  0.9713  2.1351  0.7139
 1757SOL     OW16924   0.447   1.239   6.867 -0.4306 -0.3371  0.2623
 1757SOL    HW116925   0.486   1.202   6.951  1.6411 -1.9870 -1.3871
 1757SOL    HW216926   0.509   1.308   6.828 -1.4111  0.4750  0.1036
 1758SOL     OW16927   4.340   8.839   6.792  0.3850 -0.0105 -0.0877
 1758SOL    HW116928   4.325   8.760   6.851  1.9286  0.5618  1.1044
 1758SOL    HW216929   4.253   8.887   6.777 -0.0214 -0.1566  1.7319
 1759SOL     OW16930   2.386   5.000   6.545  0.8053 -0.3499 -0.3556
 1759SOL    HW116931   2.442   5.077   6.516 -0.3876  0.1764 -1.3283
 1759SOL    HW216932   2.336   5.024   6.629  0.4709 -0.0713 -0.6322
 1760SOL     OW16933   6.794   3.478   1.787 -0.1956  0.5586  0.0064
 1760SOL    HW116934   6.791   3.577   1.797  0.1851  0.5482  0.2506
 1760SOL    HW216935   6.701   3.441   1.787 -0.2751  0.7625  1.3943
 1761SOL     OW16936   9.534   4.837   2.884 -0.1905  0.2050  0.0619
 1761SOL    HW116937   9.603   4.811   2.817  0.2128  1.6346 -0.0843
 1761SOL    HW216938   9.443   4.815   2.848 -0.0192  1.4843 -1.2160
 1762SOL     OW16939   3.967   1.672   0.174 -0.2357 -0.2395 -0.3170
 1762SOL    HW116940   4.067   1.680   0.180  0.0648 -1.7839 -2.6395
 1762SOL    HW216941   3.943   1.581   0.139 -2.4107  0.6422 -1.1774
 1763SOL     OW16942   2.863   4.271   1.946 -0.0818  0.3173  0.3354
 1763SOL    HW116943   2.953   4.296   1.911  0.5191 -0.8089  1.0207
 1763SOL    HW216944   2.793   4.331   1.907  0.7047 -0.1408 -1.8164
 1764SOL     OW16945   3.900   6.879   3.626 -0.0805 -0.7323 -0.0686
 1764SOL    HW116946   3.820   6.935   3.648 -0.4488 -1.6640  0.9748
 1764SOL    HW216947   3.915   6.812   3.698  1.8482 -0.3443 -0.0857
 1765SOL     OW16948   2.871   3.063   4.808 -0.0067  0.2978  0.1330
 1765SOL    HW116949   2.837   3.015   4.889 -0.2950 -0.4808 -0.4420
 1765SOL    HW216950   2.954   3.114   4.832  0.1868 -0.3228  0.8029
 1766SOL     OW16951   3.858   3.183   2.089 -0.7912 -0.4543 -0.3264
 1766SOL    HW116952   3.765   3.159   2.117 -0.1849 -1.0852  1.2349
 1766SOL    HW216953   3.898   3.107   2.038  0.2135 -1.8165  2.3789
 1767SOL     OW16954   7.966   6.100   5.833  0.0430 -0.9088 -0.1941
 1767SOL    HW116955   7.871   6.110   5.860  0.4197  0.4508  0.6879
 1767SOL    HW216956   7.972   6.098   5.733 -0.7606  0.7778 -0.2942
 1768SOL     OW16957   4.774   3.502   0.521  0.6994 -0.6669  0.2800
 1768SOL    HW116958   4.685   3.540   0.496  1.1938  1.5729  1.7826
 1768SOL    HW216959   4.767   3.457   0.610  0.8018 -1.5170 -0.1399
 1769SOL     OW16960   0.940   2.136   4.534 -0.1849 -0.7177  0.0785
 1769SOL    HW116961   1.028   2.122   4.489 -1.1121 -0.6526 -1.8005
 1769SOL    HW216962   0.913   2.052   4.582  1.3573 -0.4107  1.5576
 1770SOL     OW16963   1.912   3.167   1.370  0.3485 -0.6320 -0.1658
 1770SOL    HW116964   1.960   3.083   1.346  1.5544 -1.3082  4.1807
 1770SOL    HW216965   1.838   3.146   1.434 -0.0661  1.5192  0.1033
 1771SOL     OW16966   5.994   4.125   0.693 -0.6392 -0.4152 -0.1201
 1771SOL    HW116967   6.044   4.110   0.608  1.1358  1.1976  0.6082
 1771SOL    HW216968   5.963   4.037   0.729  1.4993 -1.4265 -0.6800
 1772SOL     OW16969   1.860   4.878   5.709 -0.2359  0.3561  0.0278
 1772SOL    HW116970   1.796   4.888   5.785 -1.0970 -2.1912 -0.3436
 1772SOL    HW216971   1.882   4.782   5.695  0.5666  0.8528 -2.4398
 1773SOL     OW16972   9.575   7.970   3.174  0.3246  0.3148 -0.5737
 1773SOL    HW116973   9.534   7.907   3.239 -0.8661 -1.0766 -2.6145
 1773SOL    HW216974   9.507   8.037   3.143  0.5130  0.1566 -1.3593
 1774SOL     OW16975   3.441   0.319   5.999 -0.0499  0.1277  0.2319
 1774SOL    HW116976   3.405   0.321   5.906  2.2893 -0.3699 -0.7091
 1774SOL    HW216977   3.499   0.399   6.014  0.5196 -0.3984  0.8758
 1775SOL     OW16978   3.322   3.521   7.398 -0.0967 -0.2019 -0.0002
 1775SOL    HW116979   3.259   3.526   7.475 -0.2375  0.4374 -0.1517
 1775SOL    HW216980   3.396   3.457   7.419 -0.6136 -0.6958  0.3089
 1776SOL     OW16981   8.290   2.417   3.375 -0.0085 -0.6128 -0.3905
 1776SOL    HW116982   8.367   2.479   3.357  1.2345 -2.0128  0.0586
 1776SOL    HW216983   8.216   2.468   3.419  0.8640  0.6241 -0.3251
 1777SOL     OW16984   1.250   5.035   3.178 -0.2268 -0.6989  0.6904
 1777SOL    HW116985   1.334   5.084   3.201  0.1423 -0.5013 -1.0297
 1777SOL    HW216986   1.272   4.943   3.146 -0.5028 -0.0018 -1.5948
 1778SOL     OW16987   0.260   1.861   6.388  0.3151 -0.8583 -0.0356
 1778SOL    HW116988   0.185   1.798   6.408 -0.7730  0.6308  0.6564
 1778SOL    HW216989   0.223   1.948   6.356  1.6668  0.5004  2.0248
 1779SOL     OW16990   7.903   3.115   0.415 -0.0126 -0.0406 -0.0158
 1779SOL    HW116991   7.814   3.120   0.370 -0.8799  0.8306  1.7709
 1779SOL    HW216992   7.905   3.036   0.476  0.8681 -0.7303 -0.9083
 1780SOL     OW16993   7.911   3.918   3.008 -0.0486 -0.1411 -0.2626
 1780SOL    HW116994   7.950   3.968   3.086 -0.5251  1.2595 -0.9176
 1780SOL    HW216995   7.979   3.852   2.974  0.7780  0.4214  0.2821
 1781SOL     OW16996   0.323   1.953   3.775  0.5742 -0.1064  0.2144
 1781SOL    HW116997   0.263   1.949   3.855 -0.5474  0.8918 -0.5677
 1781SOL    HW216998   0.346   2.048   3.755 -0.5193 -0.2157 -1.6463
 1782SOL     OW16999   4.855   3.959   6.556 -0.1719 -0.5163 -0.1537
 1782SOL    HW117000   4.919   3.997   6.490 -1.6265 -2.2115 -2.6258
 1782SOL    HW217001   4.865   3.860   6.560 -1.5773 -0.6501  0.5844
 1783SOL     OW17002   9.129   6.966   5.437  0.0108 -0.2908 -0.2162
 1783SOL    HW117003   9.085   7.054   5.421  0.9771 -0.0099 -1.4116
 1783SOL    HW217004   9.081   6.894   5.386  0.7261 -0.0366 -1.2622
 1784SOL     OW17005   9.757   0.509   4.760 -0.3305 -0.0275  0.1350
 1784SOL    HW117006   9.693   0.453   4.706 -1.3351  1.5441 -0.3385
 1784SOL    HW217007   9.705   0.572   4.817  0.7982  0.8820  0.1577
 1785SOL     OW17008   5.030   9.039   2.736 -0.0091 -0.0305 -0.4207
 1785SOL    HW117009   5.009   9.123   2.785  4.4545  2.0187 -1.7416
 1785SOL    HW217010   5.110   8.995   2.779 -0.7571 -2.2976 -1.2576
 1786SOL     OW17011   5.507   1.615   8.031 -0.0386  0.0015  0.7809
 1786SOL    HW117012   5.588   1.558   8.027 -0.7573 -1.1200  2.0437
 1786SOL    HW217013   5.534   1.711   8.045  1.0748 -0.2908  0.6641
 1787SOL     OW17014   6.935   5.864   7.666  0.5199 -0.7532  0.5927
 1787SOL    HW117015   6.964   5.768   7.666 -0.1047 -0.9612  2.1694
 1787SOL    HW217016   6.921   5.895   7.760  0.9382  0.9679  0.1088
 1788SOL     OW17017   0.554   0.906   2.291 -0.1604 -0.1088  0.7456
 1788SOL    HW117018   0.479   0.849   2.256  0.3908 -0.2749 -0.1875
 1788SOL    HW217019   0.528   1.002   2.289  0.1273 -0.0589 -0.8075
 1789SOL     OW17020   7.895   1.083   7.063 -0.3041  0.4797  0.1484
 1789SOL    HW117021   7.994   1.083   7.071 -0.3840 -0.5175  1.2973
 1789SOL    HW217022   7.866   1.014   6.997 -0.1543  1.9745 -1.5066
 1790SOL     OW17023   9.517   8.838   2.591  0.2736  0.7546 -0.4848
 1790SOL    HW117024   9.501   8.752   2.542 -0.5320  0.7575 -0.2290
 1790SOL    HW217025   9.530   8.819   2.688  1.2646  0.8096 -0.5990
 1791SOL     OW17026   0.973   8.122   2.296  0.1549 -0.0603  0.2247
 1791SOL    HW117027   0.910   8.149   2.224 -0.1799  0.2288  0.6225
 1791SOL    HW217028   1.035   8.198   2.317  0.8295 -0.4464 -0.3712
 1792SOL     OW17029   7.433   6.634   2.700 -0.2821  0.0946  0.6209
 1792SOL    HW117030   7.432   6.596   2.608 -1.7354  1.4103  0.0736
 1792SOL    HW217031   7.340   6.635   2.737 -0.4783  3.9226  0.2502
 1793SOL     OW17032   2.340   3.177   3.351 -0.6458  0.1645 -0.4300
 1793SOL    HW117033   2.339   3.080   3.374 -0.1254  0.2639  0.0546
 1793SOL    HW217034   2.428   3.200   3.308 -0.0798  0.7400  0.9755
 1794SOL     OW17035   1.591   8.451   6.991  0.6476 -0.0513 -0.0268
 1794SOL    HW117036   1.675   8.500   6.968  0.1873  1.0209  0.5870
 1794SOL    HW217037   1.517   8.483   6.932  0.4971 -0.4795 -0.0702
 1795SOL     OW17038   8.765   5.675   6.979  0.6721  0.2633 -0.4329
 1795SOL    HW117039   8.753   5.774   6.979 -2.5745 -0.0609  1.4538
 1795SOL    HW217040   8.845   5.651   7.035  0.8154  1.7332  0.0209
 1796SOL     OW17041   3.697   2.366   7.616 -0.1381 -0.4988  0.0891
 1796SOL    HW117042   3.792   2.336   7.609 -0.4518 -1.7076  0.7445
 1796SOL    HW217043   3.684   2.450   7.565  1.1315 -0.7029 -0.5780
 1797SOL     OW17044   2.489   9.067   6.273 -0.3873  0.0518 -0.4247
 1797SOL    HW117045   2.419   9.077   6.344  0.2531  2.1454 -0.0537
 1797SOL    HW217046   2.573   9.032   6.314  0.4800  2.7545  0.1901
 1798SOL     OW17047   1.256   3.410   0.483  0.2833  0.3144  0.5437
 1798SOL    HW117048   1.193   3.375   0.552  1.4420 -2.0162  0.4542
 1798SOL    HW217049   1.249   3.354   0.400  0.7541  1.5159 -0.3165
 1799SOL     OW17050   3.796   6.916   4.414  0.3160  0.2056  0.1387
 1799SOL    HW117051   3.699   6.897   4.428  0.5533 -0.7214  0.5722
 1799SOL    HW217052   3.808   7.012   4.390 -0.9780 -0.2812 -2.6809
 1800SOL     OW17053   1.547   5.727   3.911  0.3296 -0.6472 -0.0723
 1800SOL    HW117054   1.597   5.653   3.956  1.1483 -0.4569 -0.6663
 1800SOL    HW217055   1.550   5.809   3.968  0.4030 -0.7379  0.0534
 1801SOL     OW17056   2.643   7.428   4.575 -0.3047  0.2011  0.3636
 1801SOL    HW117057   2.573   7.497   4.557 -1.5374 -1.0336  0.2663
 1801SOL    HW217058   2.640   7.359   4.503  1.0872  0.1839  0.3167
 1802SOL     OW17059   0.083   6.493   4.293 -0.1498  0.7105  0.2944
 1802SOL    HW117060   0.177   6.501   4.259 -0.0823 -0.8130  0.0971
 1802SOL    HW217061   0.058   6.577   4.341  0.9439  1.5366 -0.5573
 1803SOL     OW17062   8.824   5.820   0.741  0.6241 -0.1026  0.0950
 1803SOL    HW117063   8.815   5.737   0.796  0.3905 -0.1899 -0.0745
 1803SOL    HW217064   8.866   5.797   0.653 -0.8571 -0.3010 -0.5719
 1804SOL     OW17065   3.509   9.633   0.741 -0.0188  0.1140  0.2785
 1804SOL    HW117066   3.509   9.711   0.679 -4.0586  0.8714  1.1446
 1804SOL    HW217067   3.538   9.663   0.832 -1.9324  0.7120  0.7033
 1805SOL     OW17068   1.192   1.513   3.574  0.1436  0.3844 -0.2438
 1805SOL    HW117069   1.102   1.547   3.546 -0.7345  0.2335  2.3194
 1805SOL    HW217070   1.227   1.451   3.503 -1.0650  1.6209 -1.9688
 1806SOL     OW17071   1.975   6.333   1.367 -0.2329  0.3318  0.3446
 1806SOL    HW117072   1.896   6.345   1.307 -0.3681  0.0340  0.4609
 1806SOL    HW217073   2.047   6.284   1.317 -0.1439  0.5516  0.2570
 1807SOL     OW17074   0.240   0.243   3.075 -0.1854  0.4703  1.1054
 1807SOL    HW117075   0.232   0.196   3.163 -0.3056  0.5635  1.1440
 1807SOL    HW217076   0.325   0.215   3.030 -1.5080 -1.7981 -0.0591
 1808SOL     OW17077   9.857   6.395   4.739  0.2647  0.1078  0.0149
 1808SOL    HW117078   9.766   6.410   4.700  0.1221  0.4033  0.4469
 1808SOL    HW217079   9.922   6.374   4.667 -0.7216 -2.9820 -0.0166
 1809SOL     OW17080   5.778   1.612   4.852 -0.3807  0.6302  0.0440
 1809SOL    HW117081   5.739   1.636   4.763  0.9533  1.4069 -0.3536
 1809SOL    HW217082   5.847   1.680   4.876 -1.1296  0.7367  1.9416
 1810SOL     OW17083   9.005   5.593   7.127  0.5362 -0.2326  0.2276
 1810SOL    HW117084   9.085   5.653   7.118  0.5464 -0.4766 -1.3537
 1810SOL    HW217085   9.025   5.522   7.195  1.1014  0.6148  0.9523
 1811SOL     OW17086   0.209   1.573   4.959 -0.0881  0.1532 -0.2254
 1811SOL    HW117087   0.215   1.604   4.863 -0.3299 -0.7849 -0.5458
 1811SOL    HW217088   0.269   1.630   5.015 -0.6473  1.3260 -0.7781
 1812SOL     OW17089   6.621   5.432   1.825  0.0056 -0.5669 -0.1898
 1812SOL    HW117090   6.636   5.496   1.749 -0.6357  1.2025  1.1312
 1812SOL    HW217091   6.550   5.367   1.800 -0.9323  0.6487 -0.7475
 1813SOL     OW17092   2.736   3.101   5.474 -0.1836  0.0777 -0.0121
 1813SOL    HW117093   2.723   3.193   5.512 -0.1570  0.7393 -1.5563
 1813SOL    HW217094   2.831   3.090   5.448 -0.2478 -0.2994 -0.0799
 1814SOL     OW17095   9.813   2.690   6.020  0.1308 -0.3888 -0.4737
 1814SOL    HW117096   9.877   2.754   6.064 -0.7186 -0.8890  1.5424
 1814SOL    HW217097   9.814   2.603   6.068 -2.9667 -0.0146  0.4111
 1815SOL     OW17098   0.555   2.012   6.362  0.3464 -0.3104 -0.3126
 1815SOL    HW117099   0.630   2.046   6.419 -0.4758  1.3722 -0.2044
 1815SOL    HW217100   0.564   1.913   6.350  1.2305 -0.4886  1.6780
 1816SOL     OW17101   2.882   8.406   7.805  0.2649 -0.1396 -0.3453
 1816SOL    HW117102   2.854   8.453   7.721 -0.8872 -0.4890 -0.1568
 1816SOL    HW217103   2.842   8.452   7.884 -1.9778 -2.2158 -0.2346
 1817SOL     OW17104   7.006   5.275   0.836 -0.5662 -0.2694 -0.0964
 1817SOL    HW117105   7.092   5.321   0.815 -0.4581 -0.6196 -0.4300
 1817SOL    HW217106   6.932   5.342   0.839 -0.0745  0.2174  1.4872
 1818SOL     OW17107   0.542   2.815   1.562 -0.0893 -0.1497 -0.4563
 1818SOL    HW117108   0.482   2.753   1.612  0.3773  1.0952  1.7331
 1818SOL    HW217109   0.629   2.824   1.612  0.0271  1.8768 -0.9784
 1819SOL     OW17110   4.999   9.674   1.896 -0.1320 -0.2217 -0.2641
 1819SOL    HW117111   4.997   9.756   1.839 -1.1762 -0.3309 -0.3881
 1819SOL    HW217112   4.907   9.654   1.930  0.8044  1.2648  3.4794
 1820SOL     OW17113   0.963   6.920   6.799 -0.0788  0.0320 -0.0403
 1820SOL    HW117114   0.953   7.005   6.748  0.6950 -1.3354 -2.5615
 1820SOL    HW217115   0.872   6.879   6.813 -0.3144  0.5048 -0.1885
 1821SOL     OW17116   6.271   1.894   8.156  0.3052  0.6711 -0.5472
 1821SOL    HW117117   6.267   1.808   8.104 -0.6950  0.6364 -0.4227
 1821SOL    HW217118   6.272   1.873   8.254 -0.5441  0.8283 -0.5101
 1822SOL     OW17119   2.516   9.988   3.860  0.1926  0.0507 -0.1756
 1822SOL    HW117120   2.467   9.916   3.811 -0.1625 -0.4363  0.8659
 1822SOL    HW217121   2.511  10.074   3.808  0.4869 -0.6330 -1.3478
 1823SOL     OW17122   9.152   4.484   0.405 -0.8523 -0.1387  0.1928
 1823SOL    HW117123   9.213   4.449   0.334 -0.4312  1.2719 -0.1724
 1823SOL    HW217124   9.078   4.537   0.362 -0.9768  0.1611  0.7662
 1824SOL     OW17125   1.194   4.964   3.764  0.7321  0.6995  0.7374
 1824SOL    HW117126   1.171   4.944   3.669  0.8166 -1.8419  1.2310
 1824SOL    HW217127   1.265   5.035   3.767  2.4623 -0.9063 -1.1723
 1825SOL     OW17128   1.864   8.422   6.589 -0.2660  0.0460 -0.5702
 1825SOL    HW117129   1.860   8.495   6.520 -1.5438  1.2671  0.7571
 1825SOL    HW217130   1.772   8.403   6.622  0.1137 -1.8714 -0.5597
 1826SOL     OW17131   9.356   1.539   0.692  0.0101 -0.2804  0.3946
 1826SOL    HW117132   9.407   1.580   0.768 -1.0493  2.4291 -0.3213
 1826SOL    HW217133   9.375   1.589   0.608 -0.7297 -1.7477 -0.6624
 1827SOL     OW17134   8.858   9.212   4.866 -0.1524  0.1707 -0.0343
 1827SOL    HW117135   8.934   9.273   4.845 -1.9971  2.9450  1.0911
 1827SOL    HW217136   8.780   9.235   4.808 -0.7205 -1.4725  0.0664
 1828SOL     OW17137   2.511   2.126   2.141 -0.2413 -0.2583 -0.0089
 1828SOL    HW117138   2.604   2.091   2.132 -0.0623 -0.0814  1.0181
 1828SOL    HW217139   2.493   2.193   2.069 -0.0374 -1.2663 -1.0140
 1829SOL     OW17140   8.445   8.813   0.686 -0.3132  0.7019  0.2595
 1829SOL    HW117141   8.384   8.763   0.625 -0.7168  1.5944 -0.0670
 1829SOL    HW217142   8.513   8.863   0.632 -1.5679  2.6769  0.4600
 1830SOL     OW17143   6.161   3.960   1.336  0.4073  0.0494 -0.2433
 1830SOL    HW117144   6.176   3.899   1.413 -0.3705 -0.8821 -0.8128
 1830SOL    HW217145   6.084   4.021   1.356  1.2647  0.9350  0.3749
 1831SOL     OW17146   6.544   1.881   1.029 -0.8448 -0.3261  0.6472
 1831SOL    HW117147   6.623   1.850   1.081  0.4131 -0.7662 -1.4808
 1831SOL    HW217148   6.551   1.979   1.012 -1.3324 -0.1534  1.4186
 1832SOL     OW17149   2.251   2.406   7.992  0.0647 -0.4069  0.3210
 1832SOL    HW117150   2.167   2.415   8.046 -0.9814  0.1611 -1.3524
 1832SOL    HW217151   2.252   2.477   7.922  1.3552 -1.1949 -0.4677
 1833SOL     OW17152   7.279   2.399   2.199  0.1834 -0.5647  0.4778
 1833SOL    HW117153   7.346   2.442   2.261  0.5230  0.7542 -0.7863
 1833SOL    HW217154   7.315   2.311   2.168  1.2591  0.0625 -0.0638
 1834SOL     OW17155   0.919   5.209   0.857  0.0109  0.0491 -0.1871
 1834SOL    HW117156   0.830   5.163   0.855  0.2831 -0.4861  0.1135
 1834SOL    HW217157   0.992   5.142   0.862  0.5291  0.4370 -2.3124
 1835SOL     OW17158   0.042   0.338   7.078  0.3291  0.5911  0.5117
 1835SOL    HW117159   0.063   0.436   7.067  1.1138  0.2299 -1.5111
 1835SOL    HW217160   0.128   0.287   7.082 -0.0912 -0.1045  0.6125
 1836SOL     OW17161   0.774   1.286   4.344  0.4712  0.2732  0.1940
 1836SOL    HW117162   0.757   1.359   4.410  0.7655  0.3729  0.1606
 1836SOL    HW217163   0.760   1.321   4.252  0.4519  0.2425  0.1848
 1837SOL     OW17164   9.333   7.034   3.274  0.5385  0.4395  0.4814
 1837SOL    HW117165   9.401   7.009   3.342 -0.0366 -0.6617  0.6619
 1837SOL    HW217166   9.242   7.038   3.317  0.4989  2.0762  0.2876
 1838SOL     OW17167   0.414   3.353   0.913 -0.0478  0.2167 -0.3590
 1838SOL    HW117168   0.494   3.294   0.929 -0.0410  0.2383 -0.3131
 1838SOL    HW217169   0.436   3.447   0.939  0.1609  0.3678 -1.0773
 1839SOL     OW17170   1.493   6.430   5.550  0.4411  0.7222  0.0216
 1839SOL    HW117171   1.496   6.334   5.580  0.6719  0.7418  0.0604
 1839SOL    HW217172   1.402   6.467   5.569  0.0006  0.1884 -1.0112
 1840SOL     OW17173   9.157   9.413   3.074 -0.1993 -0.0994 -0.1968
 1840SOL    HW117174   9.122   9.501   3.043  0.3534  1.1320  2.5710
 1840SOL    HW217175   9.084   9.345   3.069 -0.9459  0.7581 -1.2953
 1841SOL     OW17176   0.530   1.011   1.914 -0.0350 -0.0818  0.2429
 1841SOL    HW117177   0.501   0.941   1.979  1.0765 -1.9278 -1.2094
 1841SOL    HW217178   0.457   1.028   1.849 -0.1436 -0.2148  0.3285
 1842SOL     OW17179   0.937   7.546   4.985 -0.3077  0.7901  0.0982
 1842SOL    HW117180   0.977   7.634   4.961 -2.4314  1.7844  0.0798
 1842SOL    HW217181   0.865   7.559   5.054 -3.1258 -0.4417 -2.5087
 1843SOL     OW17182   1.648   6.803   0.854  0.1667  0.0280 -0.1261
 1843SOL    HW117183   1.614   6.755   0.773 -0.5842  0.6720 -0.2025
 1843SOL    HW217184   1.630   6.748   0.936  0.0224 -0.1759 -0.2962
 1844SOL     OW17185   4.227   1.892   7.535  0.7417  0.5095  0.1867
 1844SOL    HW117186   4.196   1.895   7.440 -1.5501  1.1533  0.9411
 1844SOL    HW217187   4.325   1.914   7.539  1.0965 -0.4975 -2.1058
 1845SOL     OW17188   6.957   0.466   4.089 -0.2413  0.1281  0.1810
 1845SOL    HW117189   7.039   0.453   4.033 -0.5437 -0.4138 -0.1361
 1845SOL    HW217190   6.975   0.536   4.158  0.7500 -0.5436  0.6206
 1846SOL     OW17191   3.766   0.334   1.706  0.3278  0.3727  1.1685
 1846SOL    HW117192   3.825   0.254   1.719  0.0616  0.0092  0.1691
 1846SOL    HW217193   3.691   0.310   1.645  0.8930  1.7013 -0.0721
 1847SOL     OW17194   3.955   8.656   0.203 -0.1559  0.8916  0.2154
 1847SOL    HW117195   3.883   8.725   0.214 -1.8458 -0.5910 -1.1619
 1847SOL    HW217196   4.005   8.674   0.118 -0.0458  0.8894  0.2795
 1848SOL     OW17197   2.381   2.990   7.215  0.1196  0.6716 -0.2132
 1848SOL    HW117198   2.306   3.046   7.179 -1.2390 -0.2000  1.1830
 1848SOL    HW217199   2.458   2.992   7.151 -0.8057  2.1913 -1.3157
 1849SOL     OW17200   1.845   5.323   2.755  0.4634 -0.4053  0.3392
 1849SOL    HW117201   1.802   5.252   2.811 -2.3432 -0.0708 -1.2678
 1849SOL    HW217202   1.896   5.385   2.814 -0.2688 -1.5531  2.2287
 1850SOL     OW17203   9.219   9.485   1.332 -0.1353  0.1810  0.1040
 1850SOL    HW117204   9.247   9.520   1.421 -0.2171 -0.7094  0.4840
 1850SOL    HW217205   9.237   9.554   1.262 -1.3811  1.4395  1.0040
 1851SOL     OW17206   4.157   0.626   5.877  0.1675  0.7006  0.0119
 1851SOL    HW117207   4.256   0.640   5.865  0.5955 -0.9293  1.4607
 1851SOL    HW217208   4.115   0.710   5.912  1.1070  1.2939 -0.2793
 1852SOL     OW17209   9.472   1.086   4.847 -0.3013  0.3621 -0.2048
 1852SOL    HW117210   9.380   1.108   4.814 -1.1773 -1.2253  1.1565
 1852SOL    HW217211   9.468   1.006   4.905  2.1019 -0.2672 -0.8788
 1853SOL     OW17212   0.448   9.125   6.079 -0.4263  0.7409 -0.0458
 1853SOL    HW117213   0.512   9.049   6.092 -1.1126 -0.0958 -1.3787
 1853SOL    HW217214   0.440   9.177   6.163 -0.5790 -1.1646  1.1509
 1854SOL     OW17215   7.761   8.387   6.024  0.0074  0.0769 -0.6113
 1854SOL    HW117216   7.801   8.425   5.941  0.8616  0.5307  0.0024
 1854SOL    HW217217   7.813   8.306   6.052  0.4015  0.5809  0.1064
 1855SOL     OW17218   0.425   8.104   4.431 -0.0657 -0.4290  0.0686
 1855SOL    HW117219   0.379   8.020   4.401  0.3412 -0.8367  0.5811
 1855SOL    HW217220   0.368   8.183   4.409  0.4657 -0.6620 -2.3119
 1856SOL     OW17221   2.504   4.068   6.307 -0.6876  0.1549  0.5048
 1856SOL    HW117222   2.506   3.981   6.356 -3.6411 -0.5883 -0.5700
 1856SOL    HW217223   2.580   4.072   6.242  2.0924  0.3116  3.6632
 1857SOL     OW17224   2.221   6.660   5.140 -0.1003  0.0418 -0.0958
 1857SOL    HW117225   2.237   6.684   5.236  0.6243  2.6974 -0.8531
 1857SOL    HW217226   2.272   6.722   5.081 -2.8564  0.3417 -2.2810
 1858SOL     OW17227   2.434   5.241   1.887  0.4652 -0.2962 -0.4956
 1858SOL    HW117228   2.462   5.195   1.803  0.8945 -2.7536  0.9341
 1858SOL    HW217229   2.358   5.190   1.928  0.2522  0.8857  0.5836
 1859SOL     OW17230   9.832   4.649   0.547 -0.4868  0.2196  0.2339
 1859SOL    HW117231   9.837   4.675   0.644 -3.8925 -2.2452  1.1518
 1859SOL    HW217232   9.747   4.683   0.508  0.0142 -0.3940 -1.4224
 1860SOL     OW17233   1.365   3.956   5.166  0.2187  0.4597  0.1854
 1860SOL    HW117234   1.346   4.011   5.085 -0.2490 -2.6772 -1.9388
 1860SOL    HW217235   1.284   3.952   5.224 -0.5071  0.0429 -0.8545
 1861SOL     OW17236   3.899   4.722   4.680  0.3385  0.1281 -0.3047
 1861SOL    HW117237   3.993   4.735   4.650  0.4314 -1.1321 -0.5732
 1861SOL    HW217238   3.899   4.693   4.776  0.2479 -0.3753 -0.4568
 1862SOL     OW17239   9.623   4.408   7.570 -0.3518 -0.1082  0.3292
 1862SOL    HW117240   9.671   4.424   7.656 -0.7330  1.3252  0.2845
 1862SOL    HW217241   9.584   4.316   7.570  0.0441 -0.2771  1.4925
 1863SOL     OW17242   2.654   5.252   7.869 -0.5037 -0.8525 -0.5091
 1863SOL    HW117243   2.703   5.336   7.891 -1.6191 -0.3786  0.2532
 1863SOL    HW217244   2.665   5.186   7.943 -2.1805 -0.2023  0.3475
 1864SOL     OW17245   5.869   0.949   7.875  0.3792  0.3495  0.1220
 1864SOL    HW117246   5.797   0.948   7.945  0.4621 -0.5191  0.1985
 1864SOL    HW217247   5.878   1.042   7.838 -1.8649  0.1660 -0.9887
 1865SOL     OW17248   5.669   0.271   0.759  0.3882 -0.4468 -0.0042
 1865SOL    HW117249   5.765   0.265   0.787  0.3089 -1.4385  0.0562
 1865SOL    HW217250   5.619   0.329   0.823  0.4938 -1.6239  1.1486
 1866SOL     OW17251   3.715   1.796   7.340  0.0666  0.0947 -0.4680
 1866SOL    HW117252   3.778   1.790   7.262  0.6869  0.0844  0.0322
 1866SOL    HW217253   3.629   1.751   7.317  0.2894 -0.0047 -1.1116
 1867SOL     OW17254   3.874   1.378   1.977  0.8143 -0.1553 -0.0313
 1867SOL    HW117255   3.850   1.422   1.890 -0.6513  0.3220  0.5992
 1867SOL    HW217256   3.974   1.375   1.986  0.9584  2.7355 -0.2496
 1868SOL     OW17257   5.599   0.028   5.025  0.1778  0.2568 -0.2434
 1868SOL    HW117258   5.588  -0.071   5.016  1.2465 -0.0262  1.3267
 1868SOL    HW217259   5.676   0.059   4.970  1.0138 -0.0751  0.7320
 1869SOL     OW17260   8.827   0.910   5.228  0.0677 -0.1038 -0.3237
 1869SOL    HW117261   8.907   0.906   5.288  0.5470 -0.9912 -1.0119
 1869SOL    HW217262   8.855   0.931   5.135 -0.6079  0.5877 -0.3783
 1870SOL     OW17263   2.480   6.543   0.244  0.0092 -0.0738 -0.6415
 1870SOL    HW117264   2.448   6.457   0.204  0.3424 -0.3650 -0.2858
 1870SOL    HW217265   2.577   6.536   0.265  0.4998  1.0945 -2.4749
 1871SOL     OW17266   4.423   4.128   7.609 -0.2669 -0.3026 -0.1701
 1871SOL    HW117267   4.439   4.124   7.510 -0.9938 -1.6560 -0.2493
 1871SOL    HW217268   4.329   4.159   7.626  0.0566  0.5390  0.1189
 1872SOL     OW17269   8.164   9.244   3.894 -0.7645  0.0352 -0.2221
 1872SOL    HW117270   8.076   9.267   3.935  0.7636  2.7386  1.6466
 1872SOL    HW217271   8.174   9.291   3.806 -0.8112  0.4027 -0.0267
 1873SOL     OW17272   5.261   2.543   8.046 -0.1847  0.0662 -0.0696
 1873SOL    HW117273   5.250   2.642   8.058 -0.4182 -0.0330  0.5188
 1873SOL    HW217274   5.328   2.508   8.112 -0.9775 -0.3627  0.5140
 1874SOL     OW17275   8.629   4.100   2.508  0.0174  0.2964  0.4876
 1874SOL    HW117276   8.619   4.020   2.450  0.2957  1.6609 -1.5010
 1874SOL    HW217277   8.541   4.147   2.515 -0.4695 -0.8680  2.7394
 1875SOL     OW17278   0.223   7.113   4.917  0.6252 -0.0722 -0.3461
 1875SOL    HW117279   0.242   7.040   4.983  1.0603  0.1176 -0.2558
 1875SOL    HW217280   0.175   7.188   4.964 -0.0667 -0.4185 -0.5025
 1876SOL     OW17281   2.255   3.753   2.480  0.5303  0.1480  0.0966
 1876SOL    HW117282   2.298   3.748   2.390  1.7561 -0.6199  0.7125
 1876SOL    HW217283   2.317   3.796   2.545  0.0074 -0.1053  0.7757
 1877SOL     OW17284   0.636   1.147   7.044 -0.5562  0.7341 -0.1223
 1877SOL    HW117285   0.618   1.078   7.114 -1.3548  2.0924  1.0470
 1877SOL    HW217286   0.732   1.174   7.047 -0.4515  0.3388  0.0405
 1878SOL     OW17287   5.162   9.458   2.678  0.1010  0.1235  0.7083
 1878SOL    HW117288   5.139   9.387   2.611  1.5627 -0.6107  0.9432
 1878SOL    HW217289   5.252   9.437   2.718  0.9664  2.6079  0.1233
 1879SOL     OW17290   9.738   1.815   5.406 -0.0910  0.1114  0.0986
 1879SOL    HW117291   9.728   1.748   5.333 -1.3325 -0.5595  0.8719
 1879SOL    HW217292   9.828   1.804   5.450  0.3581  0.0386 -0.8268
 1880SOL     OW17293   8.448   6.681   5.528 -0.2957 -0.1786  0.1437
 1880SOL    HW117294   8.387   6.603   5.525  0.1941 -0.5885  0.6273
 1880SOL    HW217295   8.407   6.759   5.480 -0.3715 -1.0117 -1.1587
 1881SOL     OW17296   2.285   1.337   1.055 -0.4289 -0.3872  0.3646
 1881SOL    HW117297   2.207   1.389   1.020 -0.4153  0.4436  1.5671
 1881SOL    HW217298   2.341   1.395   1.112  0.8842 -1.0941 -0.1887
 1882SOL     OW17299   7.839   8.265   2.647  0.1650  0.1855 -0.6500
 1882SOL    HW117300   7.868   8.180   2.691  0.4645  0.6743  0.1002
 1882SOL    HW217301   7.740   8.266   2.638  0.0733  0.2552  0.3579
 1883SOL     OW17302   1.965   3.058   1.803  0.5076 -0.4086  0.2208
 1883SOL    HW117303   1.888   3.121   1.793  1.6156  1.0197  0.5250
 1883SOL    HW217304   2.031   3.074   1.730  0.2860 -1.9656 -0.3296
 1884SOL     OW17305   5.927   9.245   5.859  0.0465 -0.1771  0.7850
 1884SOL    HW117306   5.987   9.186   5.806  0.8980  0.2534  1.2636
 1884SOL    HW217307   5.836   9.204   5.865  0.2195 -0.7040 -0.1541
 1885SOL     OW17308   6.167   5.221   0.914 -0.4302  0.5878 -0.1201
 1885SOL    HW117309   6.081   5.212   0.964  0.2520  1.1110  1.1494
 1885SOL    HW217310   6.194   5.131   0.878  0.0378 -0.1696  2.0646
 1886SOL     OW17311   3.508   4.034   7.176 -0.5477  0.7218  0.3670
 1886SOL    HW117312   3.446   3.956   7.162  0.8133 -0.5884  1.4161
 1886SOL    HW217313   3.579   4.033   7.106  0.8594 -0.3980  1.7864
 1887SOL     OW17314   7.775   9.114   6.798 -0.7044  0.2849  0.6778
 1887SOL    HW117315   7.795   9.086   6.705 -2.2162  2.3745 -0.3105
 1887SOL    HW217316   7.691   9.070   6.830 -1.0115  0.7464  0.5051
 1888SOL     OW17317   1.747   8.189   3.252 -0.3721 -0.3244 -0.0075
 1888SOL    HW117318   1.813   8.144   3.191 -0.0588  0.7941 -0.5089
 1888SOL    HW217319   1.797   8.250   3.314 -0.9387  0.6604 -0.5052
 1889SOL     OW17320   5.253   1.218   5.571  0.5832  0.2884 -0.1515
 1889SOL    HW117321   5.338   1.204   5.623 -0.3768  1.2139  1.7247
 1889SOL    HW217322   5.180   1.163   5.611 -0.4476  1.8698  0.1906
 1890SOL     OW17323   0.641   3.715   1.898 -0.0990 -0.1751 -0.4505
 1890SOL    HW117324   0.690   3.674   1.975 -1.7185 -1.0437  0.1471
 1890SOL    HW217325   0.662   3.665   1.814 -0.5227 -0.9953 -0.0722
 1891SOL     OW17326   6.157   9.066   4.401  0.1535  0.0958 -0.2706
 1891SOL    HW117327   6.074   9.020   4.432  0.3539 -0.0666  0.0333
 1891SOL    HW217328   6.208   9.100   4.481  1.0156 -0.9164 -0.3787
 1892SOL     OW17329   1.221   4.555   1.210  0.7192  0.9919 -0.3989
 1892SOL    HW117330   1.144   4.544   1.147  0.2591 -0.7646  0.4419
 1892SOL    HW217331   1.302   4.511   1.173  0.5360  0.2510  0.0714
 1893SOL     OW17332   8.670   8.431   4.683 -0.2791 -0.5699 -0.2399
 1893SOL    HW117333   8.748   8.378   4.717 -0.8273 -0.2470  1.6068
 1893SOL    HW217334   8.637   8.491   4.756 -2.2887 -0.7304 -0.9813
 1894SOL     OW17335   0.328   4.041   5.261  0.7626  0.7005 -0.4506
 1894SOL    HW117336   0.299   4.121   5.313  1.3034  0.7760 -0.2539
 1894SOL    HW217337   0.370   4.070   5.175 -1.3289  0.5193 -1.5405
 1895SOL     OW17338   9.001   2.463   7.874  0.0432  0.1283 -0.0267
 1895SOL    HW117339   8.963   2.454   7.782  1.3723 -0.6331 -0.5184
 1895SOL    HW217340   8.972   2.550   7.914 -1.8234 -0.2262 -0.5530
 1896SOL     OW17341   8.752   0.551   2.733  0.4107  0.0490  0.0960
 1896SOL    HW117342   8.851   0.534   2.733  0.6795  1.5004  0.1190
 1896SOL    HW217343   8.707   0.490   2.669  1.5876  0.7502 -1.4149
 1897SOL     OW17344   0.992   3.340   0.625  0.1275 -0.5823  0.1518
 1897SOL    HW117345   0.962   3.371   0.535  0.2720 -1.5455 -0.2391
 1897SOL    HW217346   0.914   3.305   0.676  0.0287  0.0579  0.4436
 1898SOL     OW17347   5.444   1.150   4.167  0.2893  0.2577  0.3280
 1898SOL    HW117348   5.350   1.123   4.148 -0.1244  0.0911  2.4292
 1898SOL    HW217349   5.445   1.212   4.246  1.9190  0.4971  0.1426
 1899SOL     OW17350   4.717   9.175   7.563  0.3802  0.1831 -0.2959
 1899SOL    HW117351   4.689   9.099   7.505 -2.1682  2.0463 -1.5998
 1899SOL    HW217352   4.727   9.143   7.657 -2.0044 -1.5021 -0.5688
 1900SOL     OW17353   2.000   2.505   3.286 -0.6838 -0.3287  0.2512
 1900SOL    HW117354   2.087   2.552   3.294 -1.6341  1.5686 -0.2139
 1900SOL    HW217355   2.001   2.445   3.206  0.1905 -0.3283  0.2595
 1901SOL     OW17356   4.294   4.624   7.666 -0.1729  0.5352  0.0207
 1901SOL    HW117357   4.350   4.546   7.639 -1.8869 -1.0732  1.0232
 1901SOL    HW217358   4.266   4.675   7.584  1.5582  0.5534 -0.5795
 1902SOL     OW17359   3.003   8.223   1.552  0.3160 -0.2668 -0.2015
 1902SOL    HW117360   3.086   8.199   1.502 -0.0367 -2.1802  0.1083
 1902SOL    HW217361   3.027   8.265   1.640  0.9405 -0.3713 -0.3214
 1903SOL     OW17362   4.699   2.577   0.946 -0.4152  0.7879  0.1576
 1903SOL    HW117363   4.742   2.592   1.035  0.5373  2.2569 -0.5348
 1903SOL    HW217364   4.686   2.665   0.900 -1.3581  0.0832 -0.9428
 1904SOL     OW17365   1.301   5.877   1.231  0.0309  0.2083  0.7619
 1904SOL    HW117366   1.330   5.832   1.147  1.8400  0.3271  1.2955
 1904SOL    HW217367   1.245   5.814   1.285  0.5024 -0.5501  0.3723
 1905SOL     OW17368   7.809   4.262   7.821  0.0571 -0.3389  0.0691
 1905SOL    HW117369   7.766   4.223   7.903 -1.1849 -1.8946 -1.2851
 1905SOL    HW217370   7.890   4.208   7.797  1.6242  1.3551  1.4322
 1906SOL     OW17371   2.681   0.428   2.622 -0.3432 -0.6622 -0.3096
 1906SOL    HW117372   2.598   0.437   2.566  0.2085  1.0502 -0.9009
 1906SOL    HW217373   2.686   0.505   2.686  1.4154 -0.0812 -1.1267
 1907SOL     OW17374   9.110   6.413   0.228  0.1692  0.3686 -0.0242
 1907SOL    HW117375   9.019   6.454   0.221  0.0396  0.0321 -0.3478
 1907SOL    HW217376   9.106   6.318   0.198  0.3588 -0.0455  1.2535
 1908SOL     OW17377   9.746   0.939   6.123 -0.5543  0.2942 -0.1038
 1908SOL    HW117378   9.800   0.984   6.051 -0.7980  0.2226 -0.3310
 1908SOL    HW217379   9.675   1.001   6.155 -2.3684 -0.7237 -2.0304
 1909SOL     OW17380   2.326   3.446   4.084  0.1272 -0.0905  0.6027
 1909SOL    HW117381   2.249   3.382   4.072 -0.3046  0.3522  0.9998
 1909SOL    HW217382   2.389   3.436   4.007 -0.8573  0.2692 -0.2532
 1910SOL     OW17383   9.149   8.535   2.826 -0.5908 -0.1644 -0.3856
 1910SOL    HW117384   9.200   8.517   2.742 -0.5493  0.2604 -0.4517
 1910SOL    HW217385   9.133   8.633   2.835 -0.1310 -0.1567  0.3701
 1911SOL     OW17386   7.598   7.769   7.206  0.0449 -0.7920 -0.0011
 1911SOL    HW117387   7.563   7.835   7.140 -0.5429 -1.3116 -0.2115
 1911SOL    HW217388   7.615   7.816   7.293  0.6397 -0.1486 -0.4512
 1912SOL     OW17389   0.652   5.892   1.739  0.1539 -0.0706  0.0650
 1912SOL    HW117390   0.739   5.871   1.782  0.5548 -1.5018 -1.3961
 1912SOL    HW217391   0.648   5.990   1.717  1.1238  0.1166  0.7227
 1913SOL     OW17392   0.401   1.753   5.815 -0.4040 -0.4517 -0.2914
 1913SOL    HW117393   0.381   1.789   5.724 -1.6350  0.0419  0.1603
 1913SOL    HW217394   0.474   1.807   5.858  1.5757 -1.9104 -1.7424
 1914SOL     OW17395   8.829   2.902   3.554 -0.1158  0.1863  0.1281
 1914SOL    HW117396   8.777   2.902   3.639 -0.0328 -0.7306  0.1758
 1914SOL    HW217397   8.920   2.939   3.571 -0.2989  0.5675  0.3066
 1915SOL     OW17398   3.574   0.284   1.512 -0.3195  0.2540 -0.0802
 1915SOL    HW117399   3.514   0.226   1.457  1.2481  0.3234 -1.8865
 1915SOL    HW217400   3.555   0.380   1.492  0.1138  0.2830 -0.3511
 1916SOL     OW17401   8.167   2.476   5.277  0.1446  0.3349  0.5110
 1916SOL    HW117402   8.226   2.536   5.330  0.2907 -0.4342  1.2135
 1916SOL    HW217403   8.078   2.469   5.322  0.0129  0.3056  0.2448
 1917SOL     OW17404   9.913   5.425   7.169 -0.1483 -0.4601  0.1908
 1917SOL    HW117405   9.978   5.460   7.236  1.3745 -2.2342 -0.2870
 1917SOL    HW217406   9.923   5.325   7.163 -1.4133 -0.5061 -1.4573
 1918SOL     OW17407   9.482   6.922   3.076  0.3529 -0.4090 -0.0342
 1918SOL    HW117408   9.473   6.939   2.978  2.6360 -0.6203 -0.3208
 1918SOL    HW217409   9.412   6.972   3.126 -0.5878  0.0082 -1.7403
 1919SOL     OW17410   3.873   1.802   4.196 -0.0870  0.1577 -0.2163
 1919SOL    HW117411   3.886   1.884   4.252 -1.7742  1.0428 -1.1011
 1919SOL    HW217412   3.955   1.784   4.143  0.6886  0.6446  0.8081
 1920SOL     OW17413   0.040   7.560   1.229 -0.0458 -0.0696  0.2520
 1920SOL    HW117414  -0.003   7.480   1.186  1.3144 -0.1840 -0.9087
 1920SOL    HW217415   0.091   7.612   1.160  0.4207  0.9084  1.3239
 1921SOL     OW17416   5.986   9.349   1.676  0.0358  0.2087 -0.0873
 1921SOL    HW117417   6.061   9.295   1.638 -0.0207  0.0985 -0.0462
 1921SOL    HW217418   5.904   9.291   1.683  0.2090  0.0559  0.7577
 1922SOL     OW17419   2.947   2.048   5.412 -0.0359  0.0216 -0.1941
 1922SOL    HW117420   2.858   2.093   5.414 -0.4391 -0.7544 -0.4223
 1922SOL    HW217421   2.952   1.981   5.487  0.4810  0.2921  0.0187
 1923SOL     OW17422   7.181   0.904   0.288  0.2081  0.5154 -0.0809
 1923SOL    HW117423   7.184   0.977   0.356  1.7994  0.8909 -0.5532
 1923SOL    HW217424   7.246   0.832   0.313  0.0110  0.1454 -0.6243
 1924SOL     OW17425   8.194   9.672   1.842 -0.6482  0.1178 -0.1825
 1924SOL    HW117426   8.124   9.638   1.905 -1.0699  2.6035  0.7413
 1924SOL    HW217427   8.285   9.651   1.879 -0.8495  3.6252  2.5246
 1925SOL     OW17428   3.585   6.814   3.936 -0.5868 -0.0268  0.1041
 1925SOL    HW117429   3.684   6.824   3.936 -0.6939  1.1361 -0.1846
 1925SOL    HW217430   3.551   6.814   3.842 -0.8643 -0.4213  0.2017
 1926SOL     OW17431   2.418   7.132   2.452  0.0341 -0.2547 -0.0347
 1926SOL    HW117432   2.385   7.186   2.530  1.3216 -0.0130  0.3648
 1926SOL    HW217433   2.510   7.163   2.428  0.8784 -2.4145  0.3378
 1927SOL     OW17434   0.150   5.816   5.330  0.1116  0.2531  0.4151
 1927SOL    HW117435   0.072   5.875   5.307  0.2557  0.3685  0.2089
 1927SOL    HW217436   0.151   5.738   5.268  0.5638  0.6206 -0.0535
 1928SOL     OW17437   4.983   0.341   0.741  0.2373  0.0361 -0.5906
 1928SOL    HW117438   5.005   0.255   0.695  1.8499  0.2897 -0.3175
 1928SOL    HW217439   4.971   0.414   0.672 -2.4720 -0.6665 -0.9122
 1929SOL     OW17440   2.202   9.143   2.749  0.1883  0.1180  0.2805
 1929SOL    HW117441   2.301   9.126   2.753  0.8746  3.5454 -0.5938
 1929SOL    HW217442   2.172   9.180   2.837 -0.5327 -1.7895  0.8588
 1930SOL     OW17443   6.108   1.243   3.235 -0.2808  0.1857 -0.4195
 1930SOL    HW117444   6.077   1.335   3.213  2.9370  0.9421 -2.1105
 1930SOL    HW217445   6.173   1.212   3.166  0.2397 -2.5518  1.2157
 1931SOL     OW17446   9.805   9.997   3.844 -0.5736  0.5271 -0.0885
 1931SOL    HW117447   9.726  10.035   3.893 -1.3917 -0.7448 -0.3948
 1931SOL    HW217448   9.843   9.921   3.897 -0.2981  0.3585 -0.5295
 1932SOL     OW17449   0.442   5.074   0.378 -0.0996  0.4075 -0.0530
 1932SOL    HW117450   0.535   5.057   0.346 -0.3227 -0.8179 -0.0817
 1932SOL    HW217451   0.394   4.987   0.389 -1.9139  1.1148 -2.0418
 1933SOL     OW17452   8.719   4.578   0.461  0.1220  0.2226 -0.3126
 1933SOL    HW117453   8.789   4.565   0.391 -0.2296 -0.4492 -0.5457
 1933SOL    HW217454   8.750   4.647   0.526  1.0556 -0.1577 -0.3380
 1934SOL     OW17455   8.634   7.478   1.922  0.0062  0.3995  0.5688
 1934SOL    HW117456   8.558   7.458   1.984  0.8935 -1.1064  1.1987
 1934SOL    HW217457   8.680   7.393   1.896  0.7158  1.1707 -0.8046
 1935SOL     OW17458   2.635   7.460   1.953  0.0233  0.4534  0.2951
 1935SOL    HW117459   2.568   7.386   1.950 -0.5479  1.0420 -1.6130
 1935SOL    HW217460   2.721   7.429   1.913 -0.0564  0.6673 -0.0407
 1936SOL     OW17461   1.159   6.773   0.325  0.2027  0.5303  0.7119
 1936SOL    HW117462   1.125   6.691   0.279 -0.5865  1.1345  0.2180
 1936SOL    HW217463   1.106   6.791   0.407  0.0052  0.8705  0.5118
 1937SOL     OW17464   0.653   3.865   0.820 -0.6641  0.5202  0.3963
 1937SOL    HW117465   0.590   3.930   0.777  0.1790  1.2778  0.2996
 1937SOL    HW217466   0.713   3.914   0.883  0.9630  0.0762 -0.7685
 1938SOL     OW17467   8.423   4.749   7.300 -0.0790 -0.0356 -0.0503
 1938SOL    HW117468   8.331   4.760   7.262  0.3026 -0.8531 -1.2501
 1938SOL    HW217469   8.432   4.805   7.382 -1.4924  0.4204 -0.1867
 1939SOL     OW17470   0.134   7.398   6.076 -0.2332 -0.1297 -0.4065
 1939SOL    HW117471   0.199   7.430   6.006  1.2111 -1.2051  0.4088
 1939SOL    HW217472   0.130   7.299   6.074  0.2236 -0.1970  1.3715
 1940SOL     OW17473   9.928   3.948   5.520 -0.7054  0.1665  0.5965
 1940SOL    HW117474   9.962   3.876   5.459 -1.3336 -1.1995  1.8085
 1940SOL    HW217475   9.954   4.038   5.484  2.5365 -0.7437  0.4864
 1941SOL     OW17476   1.585   6.602   1.832  0.3717 -0.4388  0.4448
 1941SOL    HW117477   1.509   6.620   1.893 -1.2071 -2.2518 -0.9328
 1941SOL    HW217478   1.638   6.524   1.866  0.4058 -0.4795  0.2979
 1942SOL     OW17479   7.936   1.190   6.122 -0.0908  0.3885 -0.5737
 1942SOL    HW117480   7.877   1.266   6.096  1.1538  1.9339  1.0005
 1942SOL    HW217481   8.031   1.219   6.122  0.1147  0.0745  4.0311
 1943SOL     OW17482   7.005   0.109   1.672  0.0283 -0.3243 -0.0848
 1943SOL    HW117483   6.972   0.023   1.634  1.4673 -1.2515  0.7005
 1943SOL    HW217484   6.928   0.172   1.686 -0.8836 -1.0518 -1.7153
 1944SOL     OW17485   2.678   4.616   1.401 -0.2125 -0.0239  0.5374
 1944SOL    HW117486   2.578   4.611   1.413 -0.1172 -1.9762  0.7370
 1944SOL    HW217487   2.722   4.616   1.490  0.0048 -0.4298  0.4321
 1945SOL     OW17488   3.004   3.364   6.478 -0.5627 -0.5536  0.2311
 1945SOL    HW117489   2.951   3.444   6.510 -0.6599 -0.4718 -0.1374
 1945SOL    HW217490   3.032   3.378   6.384  0.1527 -0.5853  0.4374
 1946SOL     OW17491   2.385   6.253   2.230  0.0238  0.2229 -0.1580
 1946SOL    HW117492   2.460   6.296   2.281  0.1998  0.4590 -0.6080
 1946SOL    HW217493   2.421   6.179   2.173 -0.3809 -0.9826  1.1322
 1947SOL     OW17494   3.413   9.079   2.506  0.0728 -0.6543 -0.3539
 1947SOL    HW117495   3.395   9.118   2.416 -1.7180 -1.0392 -0.1867
 1947SOL    HW217496   3.475   9.139   2.557  0.0947  0.1969 -1.3707
 1948SOL     OW17497   1.897   2.821   1.474  0.0861  0.0190 -0.3150
 1948SOL    HW117498   1.881   2.740   1.417 -1.6486 -1.5046  2.2427
 1948SOL    HW217499   1.976   2.805   1.533 -0.6135 -0.0545  0.6099
 1949SOL     OW17500   9.174   1.871   0.949 -0.6208  0.1329  0.6783
 1949SOL    HW117501   9.255   1.864   0.891 -0.6687 -1.5979  0.7949
 1949SOL    HW217502   9.092   1.860   0.894 -0.7279  0.1659  0.8321
 1950SOL     OW17503   8.569   1.105   6.203  0.1983  0.2201  0.7718
 1950SOL    HW117504   8.600   1.167   6.275  0.3858  2.4092 -1.1430
 1950SOL    HW217505   8.555   1.156   6.118  0.6826 -2.4162 -0.9665
 1951SOL     OW17506   7.316   1.289   4.846 -0.2724 -0.3238  0.2123
 1951SOL    HW117507   7.406   1.295   4.804 -0.5911  1.7282 -0.2197
 1951SOL    HW217508   7.323   1.242   4.934  1.5075  1.2895  0.9621
 1952SOL     OW17509   1.917   9.083   6.255  0.1340  0.0864 -0.1894
 1952SOL    HW117510   1.968   9.103   6.339  0.3845 -0.8806 -0.1050
 1952SOL    HW217511   1.820   9.103   6.269  0.2926  0.6897  0.0719
 1953SOL     OW17512   4.896   8.000   4.010  0.3265 -0.1029  0.3732
 1953SOL    HW117513   4.964   8.002   3.936 -0.8880  1.6441 -0.7278
 1953SOL    HW217514   4.808   8.034   3.976  0.0527  1.9204  2.9288
 1954SOL     OW17515   0.368   5.109   7.060  0.5985 -0.0283 -0.0727
 1954SOL    HW117516   0.319   5.036   7.012 -1.1742  0.5947  0.7363
 1954SOL    HW217517   0.416   5.166   6.994 -2.7095  1.4768 -1.2942
 1955SOL     OW17518   2.910   5.367   7.204  0.0967 -0.4668 -0.0159
 1955SOL    HW117519   2.839   5.429   7.169  1.3050  0.4937 -0.7971
 1955SOL    HW217520   2.917   5.287   7.144  0.8041  0.2286 -0.8639
 1956SOL     OW17521   8.053   9.514   1.173  0.0705  0.2756 -0.1254
 1956SOL    HW117522   8.090   9.467   1.253  3.2271  1.9679 -0.4877
 1956SOL    HW217523   7.956   9.532   1.187  0.5106  0.3832  3.2791
 1957SOL     OW17524   3.301   1.075   6.143 -0.0281 -0.3442  0.5369
 1957SOL    HW117525   3.246   1.067   6.060 -1.1236  1.2347  1.0684
 1957SOL    HW217526   3.308   1.171   6.169  0.7914 -0.7643  1.9481
 1958SOL     OW17527   9.006   1.935   5.556 -0.0370 -0.0995 -0.7222
 1958SOL    HW117528   8.910   1.954   5.535 -0.2856 -0.2315  0.3032
 1958SOL    HW217529   9.014   1.841   5.589  0.4590 -0.1179 -0.8996
 1959SOL     OW17530   8.805   9.811   3.892 -0.8994  0.1743  0.1373
 1959SOL    HW117531   8.751   9.799   3.808  0.0256 -0.5705 -0.3713
 1959SOL    HW217532   8.881   9.874   3.874 -0.8043  0.1520  0.4558
 1960SOL     OW17533   2.999   3.567   1.663  0.5933  0.0536  0.1111
 1960SOL    HW117534   3.021   3.505   1.739  0.4028 -0.6263 -0.3868
 1960SOL    HW217535   2.958   3.651   1.700 -1.9885 -1.3614  0.6202
 1961SOL     OW17536   9.289   5.605   3.690 -0.2148  0.1320 -0.1834
 1961SOL    HW117537   9.253   5.613   3.783 -0.7280 -0.2247 -0.3478
 1961SOL    HW217538   9.225   5.553   3.634  1.0786 -1.4940 -0.1921
 1962SOL     OW17539   1.956   7.781   2.169 -0.0576 -0.0646 -0.3101
 1962SOL    HW117540   2.007   7.797   2.253  2.3845 -1.6852 -1.4407
 1962SOL    HW217541   1.896   7.702   2.181 -0.2966  0.1797  0.1319
 1963SOL     OW17542   7.782   1.053   0.999  0.6425 -0.5357 -0.1538
 1963SOL    HW117543   7.808   0.965   1.039 -0.7369 -1.2906 -0.8907
 1963SOL    HW217544   7.842   1.074   0.922  2.0092 -0.0349  0.9963
 1964SOL     OW17545   1.756   6.152   6.233  0.1518  0.0273 -0.1978
 1964SOL    HW117546   1.758   6.249   6.207 -2.2376  0.0831 -0.3142
 1964SOL    HW217547   1.744   6.144   6.332 -0.4026 -0.1224 -0.2713
 1965SOL     OW17548   6.066   8.047   4.116 -0.0913  0.2022  0.1356
 1965SOL    HW117549   6.069   8.127   4.057 -0.2603  0.0525 -0.0783
 1965SOL    HW217550   5.970   8.024   4.136 -0.0276  0.6460  1.0035
 1966SOL     OW17551   8.218   2.409   6.256  0.8670 -0.2108 -0.2012
 1966SOL    HW117552   8.173   2.404   6.167  0.3472  0.8078 -0.0029
 1966SOL    HW217553   8.316   2.396   6.244  1.0610  1.8298 -1.1903
 1967SOL     OW17554   0.691   0.806   3.920  0.2084 -0.3316  0.4958
 1967SOL    HW117555   0.723   0.898   3.898  1.2560  0.0620  3.4402
 1967SOL    HW217556   0.759   0.739   3.888  0.7684  0.0869  0.8001
 1968SOL     OW17557   4.565   4.372   4.375 -0.3064  0.2122 -0.1427
 1968SOL    HW117558   4.588   4.466   4.349 -0.5776  0.4047  0.2865
 1968SOL    HW217559   4.647   4.325   4.406 -0.2885  0.5496  0.3441
 1969SOL     OW17560   1.365   7.864   1.474 -0.1046 -0.2444  0.4219
 1969SOL    HW117561   1.459   7.860   1.507 -0.2915 -1.3005  0.8381
 1969SOL    HW217562   1.333   7.772   1.454 -0.6333  0.2224 -0.9180
 1970SOL     OW17563   5.402   9.728   3.250  0.5302  0.1258 -0.2914
 1970SOL    HW117564   5.374   9.778   3.331 -0.9643  1.0848 -1.3866
 1970SOL    HW217565   5.360   9.768   3.169  1.6176 -1.1105 -1.5050
 1971SOL     OW17566   3.978   7.247   2.597  0.2859 -0.5927  0.2832
 1971SOL    HW117567   3.976   7.344   2.570  0.5976 -0.8576 -0.7130
 1971SOL    HW217568   4.025   7.194   2.527  0.3051 -1.4436  0.9314
 1972SOL     OW17569   4.945   1.632   4.138 -0.2449 -0.1676  0.1018
 1972SOL    HW117570   4.973   1.574   4.061 -0.8048 -0.5759  0.2037
 1972SOL    HW217571   4.855   1.671   4.120 -0.7196 -0.8815  0.8803
 1973SOL     OW17572   4.911   9.963   3.287  0.0246 -0.1550 -0.4216
 1973SOL    HW117573   4.863   9.919   3.211  0.0067  0.2741 -0.6606
 1973SOL    HW217574   4.947   9.893   3.349 -1.5823 -0.4536  0.1878
 1974SOL     OW17575   9.052   5.996   1.718  0.0178  0.4227  0.0920
 1974SOL    HW117576   8.977   6.051   1.681 -0.5250 -1.9097 -2.4590
 1974SOL    HW217577   9.019   5.903   1.736  2.3694 -0.7765 -1.5036
 1975SOL     OW17578   1.336   3.419   1.978 -0.0252  0.8408  0.3064
 1975SOL    HW117579   1.407   3.487   1.963  0.8492 -0.2557 -0.6237
 1975SOL    HW217580   1.306   3.422   2.073  0.2333  2.2982  0.3435
 1976SOL     OW17581   4.643   1.158   0.701 -0.1094  0.1280 -0.5245
 1976SOL    HW117582   4.681   1.202   0.782  0.1983 -1.2924  0.1213
 1976SOL    HW217583   4.600   1.227   0.643  0.2294  1.2512  0.5284
 1977SOL     OW17584   0.362   3.425   6.939  0.1308  0.5402  0.2137
 1977SOL    HW117585   0.288   3.451   6.877 -0.6439  1.7659  1.6072
 1977SOL    HW217586   0.448   3.464   6.906  0.0569 -0.3870 -1.0897
 1978SOL     OW17587   5.711   0.449   4.579 -0.1633 -0.1889 -0.6007
 1978SOL    HW117588   5.747   0.458   4.486 -0.2433  0.4732 -0.5709
 1978SOL    HW217589   5.732   0.532   4.631  1.3910 -1.2540  0.4989
 1979SOL     OW17590   0.423   7.023   7.603  0.7874  0.2795 -0.2470
 1979SOL    HW117591   0.441   6.925   7.587  0.8184  0.3285 -0.5134
 1979SOL    HW217592   0.506   7.067   7.637  1.2761  0.5748 -1.7895
 1980SOL     OW17593   1.439   4.273   2.171 -0.4817  0.2029 -0.5263
 1980SOL    HW117594   1.529   4.314   2.183 -0.6173  0.1717  0.7109
 1980SOL    HW217595   1.370   4.345   2.160 -0.6545  0.3269  1.1718
 1981SOL     OW17596   3.721   0.722   1.915  0.4523  0.1957  0.3386
 1981SOL    HW117597   3.804   0.764   1.879  0.4496 -0.0505  0.0326
 1981SOL    HW217598   3.647   0.789   1.917 -0.0162 -0.1991 -1.7543
 1982SOL     OW17599   2.453   3.365   6.721  0.2098 -0.3494  0.5849
 1982SOL    HW117600   2.429   3.304   6.796  0.4161  0.7829  1.5924
 1982SOL    HW217601   2.524   3.322   6.664  0.8111 -0.7890  1.6544
 1983SOL     OW17602   1.820   2.898   5.944 -0.1327  0.1041 -0.1441
 1983SOL    HW117603   1.794   2.922   6.038 -1.0568  0.9167 -0.5980
 1983SOL    HW217604   1.853   2.981   5.897  4.0999 -0.9834  0.6451
 1984SOL     OW17605   6.499   2.318   4.169 -0.4328 -0.3003  0.4148
 1984SOL    HW117606   6.531   2.293   4.260 -1.0867  0.0919  0.7635
 1984SOL    HW217607   6.427   2.387   4.178 -0.9349 -0.7208 -0.3719
 1985SOL     OW17608   6.109   1.488   4.299 -0.5643  0.6554 -0.1564
 1985SOL    HW117609   6.154   1.399   4.308  0.8482  1.4782  1.2424
 1985SOL    HW217610   6.159   1.544   4.233 -0.4136  1.0171  0.2581
 1986SOL     OW17611   7.730   6.013   8.089 -0.4844 -0.2846 -0.0960
 1986SOL    HW117612   7.709   5.937   8.150 -1.8626 -0.9209 -1.3213
 1986SOL    HW217613   7.787   5.981   8.013  0.2423  0.2538  0.2084
 1987SOL     OW17614   8.434   4.342   3.910 -0.3288 -0.2066 -0.6635
 1987SOL    HW117615   8.406   4.429   3.869  1.3673  1.5817  1.8542
 1987SOL    HW217616   8.354   4.296   3.949 -1.0866  0.7283 -1.1031
 1988SOL     OW17617   1.703   9.043   3.492  0.0651  1.1312  0.2997
 1988SOL    HW117618   1.666   9.079   3.578 -0.5468  0.5384  0.2939
 1988SOL    HW217619   1.732   8.949   3.506 -0.1694  0.9862 -0.1775
 1989SOL     OW17620   7.421   6.194   1.829  0.1700  0.2762 -0.3930
 1989SOL    HW117621   7.378   6.236   1.910 -0.1843  2.5095 -1.6873
 1989SOL    HW217622   7.484   6.259   1.787  0.2560 -0.8008 -1.9963
 1990SOL     OW17623   3.705   9.257   7.845  0.0096 -0.4499  0.0503
 1990SOL    HW117624   3.784   9.297   7.799  1.7322 -4.4334 -0.6686
 1990SOL    HW217625   3.631   9.245   7.779  0.3544 -0.6762 -0.2993
 1991SOL     OW17626   8.258   5.881   4.947  0.1440 -0.1544 -0.2779
 1991SOL    HW117627   8.308   5.866   4.862  1.2830  0.0857  0.3308
 1991SOL    HW217628   8.257   5.797   5.000  1.1320  0.2213  0.3446
 1992SOL     OW17629   7.141   0.484   2.087  0.1392 -0.1418 -0.1762
 1992SOL    HW117630   7.110   0.486   2.182 -0.5668 -0.1818 -0.4037
 1992SOL    HW217631   7.063   0.464   2.027  0.7645 -1.0777 -0.6870
 1993SOL     OW17632   4.978   4.370   1.737  0.6272  0.3890 -0.3051
 1993SOL    HW117633   4.908   4.439   1.719  0.3493  0.4606  0.9669
 1993SOL    HW217634   4.981   4.304   1.662 -1.2911 -0.0093 -0.0455
 1994SOL     OW17635   1.078   9.752   5.621 -0.8910  0.5948  0.1248
 1994SOL    HW117636   1.044   9.838   5.661 -0.0701  1.0298 -0.1042
 1994SOL    HW217637   1.142   9.773   5.547 -0.6015 -0.2244  0.1385
 1995SOL     OW17638   6.494   8.031   2.343  0.4124 -0.3250 -0.2182
 1995SOL    HW117639   6.577   8.019   2.397  0.5385 -0.2689 -0.4008
 1995SOL    HW217640   6.465   7.943   2.306  0.3687 -0.3515 -0.1233
 1996SOL     OW17641   0.876   7.314   1.171  0.2073 -0.2292  0.4222
 1996SOL    HW117642   0.836   7.384   1.113  1.7681  0.7561  0.5112
 1996SOL    HW217643   0.804   7.268   1.223 -0.7960  1.5688  0.6550
 1997SOL     OW17644   9.090   2.136   0.238 -0.9920 -0.4184 -0.1694
 1997SOL    HW117645   9.088   2.153   0.337  0.5658  0.6232 -0.3059
 1997SOL    HW217646   9.181   2.106   0.211 -2.0807 -3.1757 -0.9178
 1998SOL     OW17647   6.677   0.223   1.387 -0.4106  0.2248  0.4507
 1998SOL    HW117648   6.650   0.171   1.469  0.0542 -2.4246 -1.0056
 1998SOL    HW217649   6.755   0.178   1.344 -0.7987  1.4409 -1.5707
 1999SOL     OW17650   1.732   3.296   0.460 -0.0503  0.4292 -0.2302
 1999SOL    HW117651   1.678   3.330   0.536  0.0449  0.0268  0.0203
 1999SOL    HW217652   1.785   3.217   0.490  1.5806  1.5313 -0.1475
 2000SOL     OW17653   6.024   9.014   6.254 -0.4797 -0.2605  0.2414
 2000SOL    HW117654   6.000   8.926   6.213  0.6952 -0.7416  0.5628
 2000SOL    HW217655   6.094   9.059   6.198 -0.3321  0.0023  0.6345
 2001SOL     OW17656   8.687   2.927   6.090 -0.2934  0.0429 -0.2841
 2001SOL    HW117657   8.704   2.831   6.111 -0.0875  0.3448  0.9397
 2001SOL    HW217658   8.701   2.983   6.172  2.3785  1.4700 -1.6262
 2002SOL     OW17659   0.533   5.273   6.457  0.0015  0.0722  0.3550
 2002SOL    HW117660   0.494   5.358   6.422  1.2093  1.0726  1.4366
 2002SOL    HW217661   0.587   5.229   6.385  0.1534  0.6941  0.0840
 2003SOL     OW17662   5.606   3.467   1.902 -0.5913  0.4779 -0.0062
 2003SOL    HW117663   5.556   3.387   1.868 -1.1530  0.6144  0.5049
 2003SOL    HW217664   5.550   3.548   1.891 -0.4771  0.6333  0.5606
 2004SOL     OW17665   8.133   0.542   4.649 -0.0399  0.0487 -0.3831
 2004SOL    HW117666   8.092   0.514   4.562 -0.6463  1.6021 -0.6064
 2004SOL    HW217667   8.231   0.554   4.637 -0.0624 -0.1110 -0.7460
 2005SOL     OW17668   1.838   9.745   6.902  0.5246  0.2714  0.0435
 2005SOL    HW117669   1.926   9.733   6.856  1.3274  1.0955  1.3474
 2005SOL    HW217670   1.764   9.723   6.838  1.6235  1.2929 -1.6315
 2006SOL     OW17671   0.542   1.792   4.624 -0.0393  0.6844  0.4149
 2006SOL    HW117672   0.515   1.867   4.565  1.0891  0.8486  0.0951
 2006SOL    HW217673   0.537   1.822   4.720  0.9609  1.3613  0.2650
 2007SOL     OW17674   8.591   4.343   1.507 -0.2138 -0.1119  0.4060
 2007SOL    HW117675   8.669   4.294   1.470  0.2822  1.8316 -1.2105
 2007SOL    HW217676   8.579   4.319   1.604  1.2035 -1.8497  0.1665
 2008SOL     OW17677   7.856   2.755   2.458 -1.1147 -0.1357 -0.2708
 2008SOL    HW117678   7.792   2.694   2.412  1.6916 -0.6960 -3.5916
 2008SOL    HW217679   7.855   2.844   2.413 -0.4485  0.2351  0.4422
 2009SOL     OW17680   1.471   5.419   3.828 -0.2247  0.2444  0.0767
 2009SOL    HW117681   1.423   5.506   3.820  1.2000  0.9910 -0.5505
 2009SOL    HW217682   1.562   5.434   3.867  0.5710 -0.7630 -1.3219
 2010SOL     OW17683   3.255   6.841   5.464 -0.1506  0.2316 -0.5061
 2010SOL    HW117684   3.311   6.902   5.409 -0.4592 -0.3499 -1.4771
 2010SOL    HW217685   3.216   6.770   5.406  0.0442 -0.7796  0.5624
 2011SOL     OW17686   7.564   5.825   6.964 -0.4365 -0.3299  0.8126
 2011SOL    HW117687   7.465   5.818   6.967 -0.7203  1.3472 -2.2028
 2011SOL    HW217688   7.590   5.915   6.929  2.1697 -0.5619  2.0267
 2012SOL     OW17689   8.850   4.974   7.251 -0.5584  0.0070 -0.1529
 2012SOL    HW117690   8.920   4.916   7.290 -1.2622 -0.7686 -0.0358
 2012SOL    HW217691   8.893   5.052   7.205  0.4495 -1.3812 -1.6032
 2013SOL     OW17692   9.333   8.083   3.091  0.0623 -0.5215  0.6235
 2013SOL    HW117693   9.253   8.091   3.150  1.1041 -3.1841  2.5610
 2013SOL    HW217694   9.308   8.036   3.007 -0.8907  0.8019  0.1695
 2014SOL     OW17695   7.832   2.822   2.097 -0.3925 -0.1584 -0.1617
 2014SOL    HW117696   7.857   2.905   2.146 -1.6017  0.2348 -0.1902
 2014SOL    HW217697   7.915   2.773   2.069  0.3154  0.2860  1.1177
 2015SOL     OW17698   6.806   1.349   0.370 -0.3903 -0.2789 -0.6176
 2015SOL    HW117699   6.903   1.332   0.353 -0.4052  0.6070 -1.5896
 2015SOL    HW217700   6.752   1.283   0.319 -0.3211 -0.2612 -0.7150
 2016SOL     OW17701   3.761   1.790   2.696  0.3185 -0.4203  0.3292
 2016SOL    HW117702   3.855   1.796   2.660  0.5734 -0.4252  0.9816
 2016SOL    HW217703   3.712   1.717   2.648  1.7535 -2.8380  2.3698
 2017SOL     OW17704   4.375   1.158   6.001 -0.4279 -0.3280 -0.1570
 2017SOL    HW117705   4.439   1.234   5.993 -2.1834  1.6601  3.3840
 2017SOL    HW217706   4.411   1.090   6.064 -0.9916 -0.0615  0.4617
 2018SOL     OW17707   0.578   5.660   0.887 -0.6031  0.1363 -0.1054
 2018SOL    HW117708   0.649   5.650   0.956 -1.4428 -0.1906  0.7226
 2018SOL    HW217709   0.585   5.586   0.821 -1.0524 -0.7041  0.7746
 2019SOL     OW17710   7.818   4.133   2.071 -0.0188 -0.0413 -0.3711
 2019SOL    HW117711   7.912   4.107   2.088  0.1142  0.3014 -0.5685
 2019SOL    HW217712   7.768   4.055   2.033 -0.5071 -1.0329  2.1999
 2020SOL     OW17713   3.137   1.878   2.720 -0.3199 -0.1286  0.2929
 2020SOL    HW117714   3.160   1.849   2.813  1.0445 -1.1194 -0.3363
 2020SOL    HW217715   3.181   1.965   2.700 -1.1395  0.4048  0.7940
 2021SOL     OW17716   2.228   5.161   6.707 -0.3086  0.0720 -0.1685
 2021SOL    HW117717   2.270   5.166   6.797 -0.0720  3.0216 -0.3704
 2021SOL    HW217718   2.131   5.187   6.713 -0.4045 -0.1510 -0.6835
 2022SOL     OW17719   0.482   8.540   0.955  0.0976 -0.3001 -0.2329
 2022SOL    HW117720   0.519   8.633   0.963 -0.9420  0.2190 -1.2356
 2022SOL    HW217721   0.449   8.510   1.044  0.4459  0.2896  0.1026
 2023SOL     OW17722   6.880   8.872   4.607  0.4621  0.0276  0.1895
 2023SOL    HW117723   6.829   8.825   4.679 -0.1012 -1.1836 -0.9763
 2023SOL    HW217724   6.817   8.902   4.535  1.3522 -1.4333 -1.2410
 2024SOL     OW17725   4.627   5.557   2.535  0.6708 -0.3455  0.5741
 2024SOL    HW117726   4.690   5.522   2.466  1.5363  1.6108  0.3354
 2024SOL    HW217727   4.662   5.644   2.570 -0.5042 -0.6013  2.4278
 2025SOL     OW17728   3.520   3.536   2.219 -0.1343  0.7886  0.2839
 2025SOL    HW117729   3.474   3.624   2.209 -0.1258  0.9349  1.4717
 2025SOL    HW217730   3.556   3.528   2.312  0.9014  0.0300 -0.1765
 2026SOL     OW17731   9.023   8.242   6.810 -0.4389 -0.7893  0.1915
 2026SOL    HW117732   9.013   8.295   6.727 -1.7028 -1.6363 -0.2081
 2026SOL    HW217733   9.119   8.212   6.819  0.4220  2.0124  0.7480
 2027SOL     OW17734   1.987   9.862   7.569  0.0022 -0.0261 -0.4078
 2027SOL    HW117735   1.991   9.934   7.500  0.6763 -0.5696 -0.9470
 2027SOL    HW217736   2.045   9.785   7.540 -1.3312 -1.1107 -0.2290
 2028SOL     OW17737   0.799   0.745   7.687  0.4341 -0.3787  0.4667
 2028SOL    HW117738   0.720   0.732   7.626 -0.2127  1.8133  0.7989
 2028SOL    HW217739   0.842   0.834   7.668  3.3004 -1.8403 -0.2213
 2029SOL     OW17740   6.308   1.751   5.020  0.4812 -0.5523  0.5224
 2029SOL    HW117741   6.371   1.704   5.081  1.0560  0.3477  0.6352
 2029SOL    HW217742   6.234   1.791   5.073  0.3295 -0.7943  0.4943
 2030SOL     OW17743   6.586   8.962   4.178  0.2599  0.0264  0.1698
 2030SOL    HW117744   6.536   8.924   4.100 -1.9738  0.6323  1.2692
 2030SOL    HW217745   6.569   8.904   4.259 -0.0044  1.1623  0.9350
 2031SOL     OW17746   6.001   7.797   6.278 -0.1510 -0.2472 -0.0852
 2031SOL    HW117747   5.975   7.883   6.322  0.6724  0.9209 -1.8173
 2031SOL    HW217748   5.930   7.769   6.215 -0.8217 -1.3298  1.1273
 2032SOL     OW17749   1.022   5.690   2.651 -0.3166 -0.4336 -0.2043
 2032SOL    HW117750   0.945   5.745   2.682  0.0422 -0.3698  0.5925
 2032SOL    HW217751   1.084   5.672   2.728  0.8216  0.1056 -0.9730
 2033SOL     OW17752   8.716   2.411   3.444  0.6281 -0.1716 -0.2102
 2033SOL    HW117753   8.631   2.361   3.430  0.2950  0.3295 -0.0025
 2033SOL    HW217754   8.750   2.445   3.356 -0.0448  0.6835 -0.1483
 2034SOL     OW17755   2.109   1.050   4.882 -0.1187 -0.0410  0.4268
 2034SOL    HW117756   2.100   1.123   4.950  1.7587  2.2504 -1.7020
 2034SOL    HW217757   2.076   1.083   4.794 -3.4667 -3.2927  0.3308
 2035SOL     OW17758   9.591   3.530   2.315 -0.2954  0.1878 -0.8219
 2035SOL    HW117759   9.530   3.563   2.387  0.2006  0.9926 -0.7676
 2035SOL    HW217760   9.651   3.459   2.351 -1.2274 -0.6379 -0.8853
 2036SOL     OW17761   9.577   2.178   6.058 -0.0161  0.1302 -0.2043
 2036SOL    HW117762   9.551   2.275   6.051 -0.3877 -0.0755 -1.8405
 2036SOL    HW217763   9.527   2.136   6.134  0.2819  1.2624  0.6284
 2037SOL     OW17764   8.348   1.556   7.439 -0.1181  0.8044  0.3928
 2037SOL    HW117765   8.305   1.625   7.496 -1.9128 -0.3415  0.4758
 2037SOL    HW217766   8.429   1.519   7.485 -0.6810  0.9653  1.5194
 2038SOL     OW17767   6.560   8.619   5.821  0.2252 -0.4155  0.2481
 2038SOL    HW117768   6.474   8.627   5.871  0.2376  1.7450 -0.0147
 2038SOL    HW217769   6.568   8.528   5.781 -1.4489 -0.9705  1.1570
 2039SOL     OW17770   5.324   7.195   2.830  0.6232 -0.4577 -0.0790
 2039SOL    HW117771   5.367   7.260   2.767 -0.1145 -0.8119 -0.9514
 2039SOL    HW217772   5.292   7.243   2.911 -0.3303  0.3437 -0.9247
 2040SOL     OW17773   2.461   8.855   6.678 -0.6212  0.8941 -0.6202
 2040SOL    HW117774   2.383   8.863   6.739  0.1454  0.6343  0.4094
 2040SOL    HW217775   2.444   8.783   6.611 -1.0857  0.5418 -0.1300
 2041SOL     OW17776   9.445   5.327   2.675 -0.4489 -0.4758  0.4468
 2041SOL    HW117777   9.507   5.346   2.751 -0.4041 -0.1982  0.3407
 2041SOL    HW217778   9.370   5.394   2.676 -0.4212 -0.4401  0.2186
 2042SOL     OW17779   1.018   5.037   4.091  0.1563  0.6799 -0.2787
 2042SOL    HW117780   0.995   5.013   3.996  3.4399 -0.7122 -0.7887
 2042SOL    HW217781   0.948   4.999   4.152 -0.5284 -0.8027 -1.9273
 2043SOL     OW17782   4.471   4.162   0.740 -0.1559 -0.2902  0.2846
 2043SOL    HW117783   4.487   4.096   0.667 -1.8116 -0.0975 -0.2810
 2043SOL    HW217784   4.382   4.144   0.782  1.0068 -0.7479  2.6525
 2044SOL     OW17785   1.094   2.574   4.432 -0.7867 -0.5646  0.0681
 2044SOL    HW117786   0.998   2.553   4.447 -0.8535 -1.0583 -1.0036
 2044SOL    HW217787   1.147   2.490   4.430 -0.3577 -0.3075  0.4642
 2045SOL     OW17788   8.438   7.092   5.850  0.1216 -0.1146  0.3595
 2045SOL    HW117789   8.396   7.003   5.871 -1.8166  0.4870 -0.8719
 2045SOL    HW217790   8.398   7.162   5.910 -0.2073  0.3564 -0.4059
 2046SOL     OW17791   7.871   5.763   0.180 -0.5227  0.8209 -0.1092
 2046SOL    HW117792   7.921   5.849   0.187  1.2013 -0.1857  0.0274
 2046SOL    HW217793   7.787   5.778   0.127  0.0415  2.4602 -0.5726
 2047SOL     OW17794   0.485   0.920   5.302  0.3314 -0.0969 -0.6048
 2047SOL    HW117795   0.529   0.895   5.216 -1.1778  0.5412 -1.5733
 2047SOL    HW217796   0.397   0.962   5.283  0.3897  0.8869  1.2261
 2048SOL     OW17797   5.271   3.924   0.713 -0.4537  0.0919  0.3522
 2048SOL    HW117798   5.216   3.901   0.793  1.2142  2.1274  2.1363
 2048SOL    HW217799   5.233   4.005   0.668 -0.3569  0.0090  0.1174
 2049SOL     OW17800   3.301   1.703   3.174  0.2214 -0.7331 -0.4495
 2049SOL    HW117801   3.239   1.647   3.230  0.6237 -1.2224 -0.4945
 2049SOL    HW217802   3.367   1.748   3.233 -0.5255  0.2444 -0.3419
 2050SOL     OW17803   7.694   8.308   6.390  0.1542  0.1943  0.1296
 2050SOL    HW117804   7.607   8.284   6.347  0.6310 -0.9313 -0.2102
 2050SOL    HW217805   7.697   8.271   6.483  0.0249  0.7591  0.3631
 2051SOL     OW17806   2.520   9.771   3.249 -0.3094 -0.1372 -0.1570
 2051SOL    HW117807   2.465   9.789   3.168 -1.3010 -0.3874  0.4413
 2051SOL    HW217808   2.482   9.822   3.327  1.5468  1.3300 -0.1750
 2052SOL     OW17809   1.000   3.646   0.044 -0.4893  0.1580 -0.1742
 2052SOL    HW117810   0.963   3.670   0.133  1.2550  0.4065  0.5048
 2052SOL    HW217811   1.043   3.556   0.048  0.7069  0.7013 -0.4140
 2053SOL     OW17812   9.857   2.399   1.215  1.0457  0.2083 -0.1925
 2053SOL    HW117813   9.781   2.454   1.181  0.8501 -1.0694 -1.8710
 2053SOL    HW217814   9.835   2.364   1.306 -0.1344  0.3251 -0.4305
 2054SOL     OW17815   7.164   1.491   7.458  0.5325 -0.6405  1.2173
 2054SOL    HW117816   7.132   1.450   7.372  0.0568 -0.1968  1.1795
 2054SOL    HW217817   7.106   1.460   7.533  0.8310 -0.8769  1.3510
 2055SOL     OW17818   0.990   4.311   3.898 -0.3667 -0.4512 -0.2974
 2055SOL    HW117819   1.016   4.322   3.993  0.9588 -1.5316 -0.5184
 2055SOL    HW217820   0.990   4.400   3.852 -2.0392  0.2134  0.9534
 2056SOL     OW17821   3.396   7.431   0.188 -0.0743 -0.2436 -0.1474
 2056SOL    HW117822   3.357   7.391   0.104 -1.9844  0.2754  0.4829
 2056SOL    HW217823   3.409   7.358   0.256  1.3126 -0.6357 -0.8084
 2057SOL     OW17824   0.964   6.113   0.675  0.1739 -0.5457  0.3288
 2057SOL    HW117825   0.980   6.068   0.587  3.1907 -0.7216  0.9126
 2057SOL    HW217826   0.963   6.044   0.748 -1.2645 -0.2889  0.5685
 2058SOL     OW17827   9.658   7.561   2.678  0.3585  0.0697 -0.2505
 2058SOL    HW117828   9.609   7.608   2.751  0.5973  0.8459 -0.5834
 2058SOL    HW217829   9.756   7.579   2.686  0.2650  1.2489 -1.5152
 2059SOL     OW17830   7.875   4.299   5.486 -0.4686  0.6550 -0.2350
 2059SOL    HW117831   7.946   4.349   5.436  0.0036 -1.4552 -1.7624
 2059SOL    HW217832   7.889   4.309   5.584  2.2141 -0.0706 -0.5171
 2060SOL     OW17833   6.100   1.354   4.963 -0.1820  0.7018 -0.1043
 2060SOL    HW117834   6.162   1.417   4.915  0.2263  1.5324  1.4898
 2060SOL    HW217835   6.037   1.314   4.897 -0.1389  2.4244 -1.2314
 2061SOL     OW17836   8.784   9.322   1.143 -0.3245 -0.6261  0.4013
 2061SOL    HW117837   8.718   9.247   1.149 -0.3074 -0.5118  2.2529
 2061SOL    HW217838   8.832   9.317   1.055 -0.8068 -2.3744  0.2179
 2062SOL     OW17839   9.186   9.240   1.146  0.4511 -0.2515 -0.0135
 2062SOL    HW117840   9.155   9.276   1.234 -1.3827  1.2463 -1.2340
 2062SOL    HW217841   9.222   9.315   1.090  1.4194 -1.1602 -0.6247
 2063SOL     OW17842   3.474   4.589   0.745 -0.3507  0.9291  0.5048
 2063SOL    HW117843   3.381   4.553   0.742 -0.2318  0.5850  0.8659
 2063SOL    HW217844   3.493   4.641   0.662  0.2462 -1.6894 -1.0373
 2064SOL     OW17845   1.046   9.101   4.686 -0.6470  0.1281 -0.0907
 2064SOL    HW117846   1.116   9.045   4.729  0.1590  1.4610  0.3651
 2064SOL    HW217847   1.025   9.065   4.596 -0.1311 -0.8939  0.1916
 2065SOL     OW17848   9.466   5.516   6.608 -0.2165  0.0678  0.4104
 2065SOL    HW117849   9.472   5.417   6.621 -1.7793 -0.2300 -0.9750
 2065SOL    HW217850   9.438   5.560   6.693 -0.4356 -0.7852  0.7753
 2066SOL     OW17851   9.620   6.751   7.650  0.0829  0.4773 -0.3356
 2066SOL    HW117852   9.651   6.807   7.573  1.7752 -1.2375 -0.9699
 2066SOL    HW217853   9.630   6.654   7.626  0.9758 -0.0946  2.1795
 2067SOL     OW17854   9.627   1.665   5.683  0.2811  0.5564  0.2909
 2067SOL    HW117855   9.701   1.726   5.711  0.9157  0.4805 -1.1556
 2067SOL    HW217856   9.539   1.706   5.707  0.7156  1.7961 -0.1851
 2068SOL     OW17857   8.919   2.174   6.700 -0.1546 -0.6777  0.1985
 2068SOL    HW117858   8.861   2.150   6.777  1.5257 -0.6279  1.5088
 2068SOL    HW217859   8.978   2.096   6.676  0.9325  0.0486  0.4584
 2069SOL     OW17860   6.746   2.757   1.929 -0.2316  0.1828 -0.1346
 2069SOL    HW117861   6.842   2.736   1.907 -0.3937  0.6516 -1.3650
 2069SOL    HW217862   6.728   2.737   2.025  1.3029  0.7673  0.2869
 2070SOL     OW17863   2.086   9.229   3.198  0.3534  0.4238 -0.7478
 2070SOL    HW117864   2.115   9.134   3.212  0.4530  0.5713  0.0582
 2070SOL    HW217865   2.087   9.250   3.100 -0.7323 -0.7515 -1.0294
 2071SOL     OW17866   0.840   9.580   5.174 -0.0538  0.1043  1.1698
 2071SOL    HW117867   0.938   9.590   5.190  0.1005  0.9123 -0.2078
 2071SOL    HW217868   0.823   9.495   5.123 -0.1047 -0.1962  1.6847
 2072SOL     OW17869   5.111   5.586   2.125 -0.4447 -0.3553 -0.2627
 2072SOL    HW117870   5.175   5.535   2.068 -0.0078 -0.4141  0.2721
 2072SOL    HW217871   5.101   5.679   2.089 -0.1080 -0.3670 -0.3870
 2073SOL     OW17872   3.576   3.540   5.934  0.5527 -0.4017 -0.1805
 2073SOL    HW117873   3.619   3.615   5.984  0.0247 -0.2612  0.0674
 2073SOL    HW217874   3.565   3.462   5.996  1.6738 -0.9097 -0.6029
 2074SOL     OW17875   1.145   2.362   6.224 -0.0408 -0.2084  0.2243
 2074SOL    HW117876   1.191   2.282   6.186  0.0230  0.1396 -0.4534
 2074SOL    HW217877   1.079   2.397   6.158  0.3697  0.6534  0.2544
 2075SOL     OW17878   6.490   1.594   8.173  0.2346  0.4002 -0.1724
 2075SOL    HW117879   6.567   1.532   8.188 -0.2966 -0.8028 -2.1682
 2075SOL    HW217880   6.407   1.554   8.212  0.1497  0.4972 -0.2510
 2076SOL     OW17881   1.232   9.346   5.696 -0.3686 -0.0223  0.5079
 2076SOL    HW117882   1.183   9.403   5.763  0.7162  0.6063  0.7772
 2076SOL    HW217883   1.316   9.312   5.737  0.7763  1.1572 -0.8404
 2077SOL     OW17884   8.638   7.197   0.363  0.0292  0.0299  0.0888
 2077SOL    HW117885   8.609   7.283   0.321  0.1665  0.5697  1.0782
 2077SOL    HW217886   8.597   7.120   0.314  0.3318  0.6374 -1.1348
 2078SOL     OW17887   2.055   1.289   5.017 -0.2814 -0.0406  0.0776
 2078SOL    HW117888   1.991   1.314   5.090  1.3742 -0.1316  1.5995
 2078SOL    HW217889   2.042   1.350   4.939 -1.0525  1.0414  1.0328
 2079SOL     OW17890   1.188   6.988   0.124  0.3750 -0.6313 -0.0079
 2079SOL    HW117891   1.105   7.043   0.134  0.9399  0.2538 -0.1710
 2079SOL    HW217892   1.194   6.923   0.200 -1.8764 -2.5996 -1.4398
 2080SOL     OW17893   3.319   3.754   1.144 -0.2637 -0.6295 -0.0843
 2080SOL    HW117894   3.233   3.720   1.105 -0.1650 -0.2494 -0.6266
 2080SOL    HW217895   3.320   3.854   1.141  1.0202 -0.6737 -1.8543
 2081SOL     OW17896   4.870   8.595   2.479 -0.3884 -0.1453  0.5296
 2081SOL    HW117897   4.858   8.658   2.402  1.8876  1.0755  1.1208
 2081SOL    HW217898   4.870   8.501   2.445 -0.5017  0.3189 -0.8050
 2082SOL     OW17899   1.837   4.844   3.705  0.4588  0.2479 -0.0627
 2082SOL    HW117900   1.912   4.896   3.748  0.0477  1.6418 -0.9965
 2082SOL    HW217901   1.792   4.788   3.774  0.8750  1.1843  0.9912
 2083SOL     OW17902   1.938   7.279   6.933  0.3304 -0.1681 -0.4594
 2083SOL    HW117903   1.892   7.234   7.009  0.6966  0.6393  0.2518
 2083SOL    HW217904   1.902   7.371   6.922  0.0069 -0.4228 -1.5176
 2084SOL     OW17905   9.607   0.069   4.001  0.6809  0.1459  0.4818
 2084SOL    HW117906   9.542   0.020   3.944  0.6430  0.1820  0.4932
 2084SOL    HW217907   9.612   0.025   4.091  0.3312  0.4179  0.6351
 2085SOL     OW17908   9.644   9.899   0.924 -0.2874  0.0244  0.0019
 2085SOL    HW117909   9.582   9.977   0.933 -0.4906 -0.2066  0.6063
 2085SOL    HW217910   9.597   9.815   0.950 -0.1334 -0.3367 -0.8784
 2086SOL     OW17911   9.181   9.144   8.196  0.6051 -0.2024 -0.1295
 2086SOL    HW117912   9.206   9.126   8.100  0.0784  1.6006 -0.6328
 2086SOL    HW217913   9.235   9.222   8.229  0.2238 -0.3356  0.7928
 2087SOL     OW17914   4.613   9.221   4.335  0.3139 -0.0053 -0.2153
 2087SOL    HW117915   4.607   9.318   4.356  0.7284 -0.2596  1.1658
 2087SOL    HW217916   4.638   9.171   4.418 -3.2028 -1.6529 -0.0332
 2088SOL     OW17917   2.596   8.273   7.019 -0.1566  0.5685  0.3505
 2088SOL    HW117918   2.565   8.183   6.987  1.3154  0.3190 -0.4372
 2088SOL    HW217919   2.524   8.340   7.006 -0.6497 -0.1535 -0.7070
 2089SOL     OW17920   4.746   8.362   4.650 -0.6056 -0.0786  0.1349
 2089SOL    HW117921   4.728   8.319   4.562  0.8263  0.3178 -0.3588
 2089SOL    HW217922   4.725   8.459   4.645 -0.0448  0.0425  0.0785
 2090SOL     OW17923   2.390   4.215   6.621  0.2555 -0.1875 -0.4654
 2090SOL    HW117924   2.485   4.208   6.652 -0.1837 -2.3888  0.4785
 2090SOL    HW217925   2.333   4.247   6.697  0.3728  2.2586 -1.3493
 2091SOL     OW17926   7.037   4.196   0.561 -0.0402 -0.4072  0.2389
 2091SOL    HW117927   7.070   4.131   0.629  1.7913 -0.3387 -0.5710
 2091SOL    HW217928   7.071   4.288   0.583 -0.5370 -0.1548 -0.0396
 2092SOL     OW17929   9.265   4.690   7.408 -0.0758  0.1430  0.4570
 2092SOL    HW117930   9.324   4.712   7.485  0.3676  2.0224 -0.4023
 2092SOL    HW217931   9.319   4.687   7.324 -1.2307  2.1304 -0.3774
 2093SOL     OW17932   3.782   5.663   4.484  0.4031 -0.1991 -0.3084
 2093SOL    HW117933   3.853   5.650   4.415 -0.2185  0.7583 -1.1269
 2093SOL    HW217934   3.724   5.740   4.459 -0.5944 -0.6249  0.6517
 2094SOL     OW17935   4.123   5.381   0.935  0.2069 -0.1006  0.2554
 2094SOL    HW117936   4.131   5.293   0.889 -0.7890  0.4179 -0.9207
 2094SOL    HW217937   4.035   5.386   0.983  0.0294  0.4375 -0.1109
 2095SOL     OW17938   7.415   0.763   6.885 -0.4595 -0.4789  0.5400
 2095SOL    HW117939   7.457   0.682   6.925 -0.2174 -0.1903  0.8715
 2095SOL    HW217940   7.469   0.844   6.908 -1.5125 -0.0246  1.4705
 2096SOL     OW17941   7.927   5.922   1.742 -0.2324  0.2607  0.2286
 2096SOL    HW117942   7.959   6.016   1.734 -0.5798  0.3749  0.1831
 2096SOL    HW217943   7.845   5.909   1.687 -0.3497  0.0061  0.4577
 2097SOL     OW17944   6.252   1.875   0.577  0.6864  0.3355  0.4781
 2097SOL    HW117945   6.316   1.825   0.634  1.2345 -0.9739 -1.2399
 2097SOL    HW217946   6.179   1.814   0.547  0.3167  1.0501 -0.1022
 2098SOL     OW17947   3.328   7.894   5.864 -0.0699  0.6284 -0.0995
 2098SOL    HW117948   3.283   7.814   5.905  0.6650  0.0173 -0.4858
 2098SOL    HW217949   3.412   7.914   5.914  0.3572  0.4375 -0.7305
 2099SOL     OW17950   6.263   9.538   3.361  0.3675  0.3457 -0.2262
 2099SOL    HW117951   6.187   9.473   3.367  1.2880 -1.0121 -2.4322
 2099SOL    HW217952   6.238   9.623   3.406 -1.3835 -1.0618  1.5578
 2100SOL     OW17953   3.246   9.577   0.680  0.0838  0.1524  0.4461
 2100SOL    HW117954   3.341   9.585   0.708  0.6450  0.7669 -1.5771
 2100SOL    HW217955   3.189   9.558   0.760  2.1039 -1.8675  1.4537
 2101SOL     OW17956   1.826   6.995   4.788  0.5689  0.5390 -0.0846
 2101SOL    HW117957   1.832   7.030   4.882 -2.7006  0.8825  0.0596
 2101SOL    HW217958   1.731   7.000   4.757  1.4575 -0.4216 -3.1107
 2102SOL     OW17959   2.593   0.475   1.991 -0.6377  0.2761  0.1095
 2102SOL    HW117960   2.540   0.526   1.924  0.7179 -0.3815 -1.5129
 2102SOL    HW217961   2.682   0.450   1.952  0.2194 -0.0782  2.1739
 2103SOL     OW17962   1.132   7.242   5.545  0.0927 -0.0171 -0.4964
 2103SOL    HW117963   1.115   7.288   5.458  1.5338 -0.5016 -1.0469
 2103SOL    HW217964   1.228   7.254   5.571 -0.5055  0.7953  1.4277
 2104SOL     OW17965   4.038   9.707   7.254  0.2464 -0.2557 -0.1326
 2104SOL    HW117966   4.031   9.651   7.172 -1.6718 -0.3125  0.0579
 2104SOL    HW217967   4.132   9.702   7.290  0.4218 -2.3377 -0.8141
 2105SOL     OW17968   2.475   2.978   0.745  0.0411  0.3307 -0.5816
 2105SOL    HW117969   2.555   2.918   0.737 -0.1845  0.1185 -1.2672
 2105SOL    HW217970   2.453   2.992   0.841  0.3336 -0.3690 -0.4121
 2106SOL     OW17971   0.273   4.376   0.466 -0.6193 -0.4218  0.5444
 2106SOL    HW117972   0.270   4.299   0.402  0.2209 -1.3898  1.6654
 2106SOL    HW217973   0.201   4.441   0.442 -2.0910 -2.0948  0.2833
 2107SOL     OW17974   6.158   6.272   0.605  0.2997 -0.0674 -0.0633
 2107SOL    HW117975   6.137   6.228   0.692 -0.1104 -2.9023 -1.5195
 2107SOL    HW217976   6.117   6.219   0.530  0.4953  2.3905 -1.9738
 2108SOL     OW17977   8.376   4.499   2.897  0.0172 -0.5105 -0.1064
 2108SOL    HW117978   8.404   4.424   2.837  1.4255 -0.2400  0.2014
 2108SOL    HW217979   8.441   4.574   2.890  0.3493 -0.5777  1.9566
 2109SOL     OW17980   7.648   4.844   6.726  0.2848  0.0464  0.0051
 2109SOL    HW117981   7.654   4.749   6.758  1.3986 -0.3279 -1.2800
 2109SOL    HW217982   7.696   4.853   6.639  2.2696  2.3181  1.2781
 2110SOL     OW17983   8.790   5.431   6.573 -0.2390 -0.2600 -0.3345
 2110SOL    HW117984   8.798   5.397   6.667 -2.4704 -0.0199 -0.0126
 2110SOL    HW217985   8.777   5.530   6.574 -2.1187 -0.4762 -0.7504
 2111SOL     OW17986   8.576   3.289   6.177  0.0925  0.2268 -0.4625
 2111SOL    HW117987   8.606   3.221   6.110  0.5718  0.7312 -0.7638
 2111SOL    HW217988   8.477   3.286   6.186  0.0834 -0.2685 -0.7419
 2112SOL     OW17989   9.136   1.508   3.167  0.4236  0.1036  0.1284
 2112SOL    HW117990   9.043   1.547   3.170 -0.2360 -1.2404 -1.8565
 2112SOL    HW217991   9.145   1.438   3.237  0.7107  1.8361  1.8628
 2113SOL     OW17992   8.687   6.493   2.225 -0.3996 -0.4015 -0.0767
 2113SOL    HW117993   8.738   6.569   2.266 -0.6850 -0.0472 -0.3798
 2113SOL    HW217994   8.749   6.416   2.211  0.1145  0.1107 -0.6619
 2114SOL     OW17995   8.214   0.720   1.838 -0.0925 -0.0441  0.3929
 2114SOL    HW117996   8.193   0.689   1.931 -0.3351  0.6333  0.5717
 2114SOL    HW217997   8.188   0.816   1.829  2.8464  0.8283  0.6074
 2115SOL     OW17998   9.743   8.592   3.277 -0.1001 -0.3618 -0.2504
 2115SOL    HW117999   9.757   8.496   3.256 -0.4623 -0.8953  1.7674
 2115SOL    HW218000   9.648   8.616   3.258 -0.4128 -0.8227  0.6768
 2116SOL     OW18001   1.035   8.410   7.625 -0.2100 -0.1932 -0.5016
 2116SOL    HW118002   1.012   8.332   7.684 -1.7597  0.7468  0.1907
 2116SOL    HW218003   0.983   8.405   7.540 -1.0184  0.5405 -0.0671
 2117SOL     OW18004   3.326   0.890   3.092  0.3053 -0.7360  0.2732
 2117SOL    HW118005   3.338   0.984   3.060 -0.5458 -0.8368 -0.3678
 2117SOL    HW218006   3.400   0.866   3.155  0.6770  0.2688  0.2259
 2118SOL     OW18007   2.228   5.432   7.344  0.0765 -0.3021 -0.2846
 2118SOL    HW118008   2.172   5.418   7.426  1.1076  0.8831  0.6472
 2118SOL    HW218009   2.183   5.498   7.284 -1.1026 -1.8184 -1.1043
 2119SOL     OW18010   4.465   0.996   6.183  0.1605  0.0703 -0.3085
 2119SOL    HW118011   4.447   0.897   6.188 -1.1845  0.1168 -3.0509
 2119SOL    HW218012   4.514   1.025   6.265 -0.2099 -2.7093  0.9745
 2120SOL     OW18013   1.919   5.381   2.212 -0.1217 -0.0316 -0.0202
 2120SOL    HW118014   1.855   5.416   2.280 -0.3017  0.6166 -0.5183
 2120SOL    HW218015   1.922   5.443   2.134  1.3205  0.1012  0.1180
 2121SOL     OW18016   7.689   2.385   0.407 -0.0282 -0.3612  0.2426
 2121SOL    HW118017   7.610   2.338   0.366  0.1363 -0.3382 -0.1062
 2121SOL    HW218018   7.661   2.473   0.443 -0.5901 -1.2202  1.9591
 2122SOL     OW18019   2.184   0.567   1.467 -0.0802  0.2098 -0.2914
 2122SOL    HW118020   2.261   0.527   1.518 -1.0299 -1.6363 -0.2449
 2122SOL    HW218021   2.218   0.611   1.384  1.2513  1.3362  0.8238
 2123SOL     OW18022   4.636   2.802   1.240  0.6882 -0.2315 -0.0473
 2123SOL    HW118023   4.662   2.875   1.177  1.6201 -0.4331  0.1002
 2123SOL    HW218024   4.631   2.839   1.333 -0.0247 -0.0875 -0.1389
 2124SOL     OW18025   7.905   5.495   5.790 -0.5262 -0.2482  0.7414
 2124SOL    HW118026   7.965   5.498   5.871  2.0523  0.2546 -1.1088
 2124SOL    HW218027   7.881   5.588   5.763 -0.9634 -0.3918  0.6401
 2125SOL     OW18028   8.606   0.764   6.624  0.0788  0.8149 -0.2281
 2125SOL    HW118029   8.570   0.822   6.551 -0.3640  1.5251  0.5421
 2125SOL    HW218030   8.642   0.679   6.585 -1.1585  0.7068 -1.1436
 2126SOL     OW18031   3.162   6.740   0.799 -0.0695 -0.7986  0.0199
 2126SOL    HW118032   3.084   6.794   0.834  0.2987 -1.9006  2.6805
 2126SOL    HW218033   3.243   6.798   0.797 -0.3039 -0.4598  0.1185
 2127SOL     OW18034   3.446   3.842   6.633 -0.1160 -0.2283  0.0375
 2127SOL    HW118035   3.355   3.859   6.595  0.0986 -0.9531 -0.8082
 2127SOL    HW218036   3.438   3.817   6.730 -0.7914 -0.0861  0.0179
 2128SOL     OW18037   9.152   8.703   8.168  0.2742 -0.7116 -0.1725
 2128SOL    HW118038   9.165   8.778   8.233 -1.8056 -0.4476 -0.0035
 2128SOL    HW218039   9.168   8.616   8.214 -0.1771 -0.4825  0.4242
 2129SOL     OW18040   6.231   7.690   3.769  0.4842  0.2135 -0.1781
 2129SOL    HW118041   6.166   7.749   3.818  0.0860 -0.6056  0.2985
 2129SOL    HW218042   6.289   7.643   3.835 -0.3367 -1.2233 -0.4582
 2130SOL     OW18043   1.880   3.312   2.051 -0.0737  0.0251 -0.5205
 2130SOL    HW118044   1.970   3.348   2.024 -0.4796 -0.4973 -2.6335
 2130SOL    HW218045   1.891   3.250   2.129  1.0483  1.9921  0.9575
 2131SOL     OW18046   9.391   0.409   0.847 -0.5266  0.2161  0.4860
 2131SOL    HW118047   9.400   0.412   0.947 -0.3964  2.4710  0.4137
 2131SOL    HW218048   9.384   0.502   0.811  2.0912 -0.4621 -1.8757
 2132SOL     OW18049   4.692   4.114   7.039  0.7103 -0.1606 -0.2806
 2132SOL    HW118050   4.602   4.117   6.996  0.8937 -3.9906 -1.1388
 2132SOL    HW218051   4.759   4.161   6.982 -0.3694  1.0432 -0.5714
 2133SOL     OW18052   4.570   9.854   0.966 -0.2925  0.0261  0.9384
 2133SOL    HW118053   4.474   9.876   0.950 -0.0716  0.5157  0.2507
 2133SOL    HW218054   4.622   9.938   0.982  0.4127 -0.0232 -0.9037
 2134SOL     OW18055   3.986   4.114   4.278 -0.3517 -0.7479 -0.0982
 2134SOL    HW118056   4.071   4.152   4.314 -1.0332 -0.2941  1.0275
 2134SOL    HW218057   3.982   4.016   4.300  0.4588 -1.0595 -1.2562
 2135SOL     OW18058   1.521   9.479   3.003 -0.7387 -0.1502  0.2223
 2135SOL    HW118059   1.600   9.522   3.045 -0.1826  0.2055 -1.1794
 2135SOL    HW218060   1.454   9.548   2.977 -1.2280 -0.3959  0.8119
 2136SOL     OW18061   8.206   1.489   3.448 -0.0520  0.3184  0.7116
 2136SOL    HW118062   8.148   1.570   3.432  0.1138  0.2462 -0.2893
 2136SOL    HW218063   8.226   1.482   3.545 -0.0898  1.4759  0.8160
 2137SOL     OW18064   5.796   6.176   0.236  0.5041 -0.3028 -0.3979
 2137SOL    HW118065   5.861   6.199   0.164  1.8824  2.5986  1.6796
 2137SOL    HW218066   5.839   6.112   0.300  1.1533  1.1462  0.6441
 2138SOL     OW18067   9.964   0.875   5.381  0.0433  0.6250 -0.1814
 2138SOL    HW118068  10.015   0.903   5.463 -1.7204 -1.3579  1.6875
 2138SOL    HW218069   9.998   0.786   5.350 -0.9433  0.1748 -0.0333
 2139SOL     OW18070   7.679   7.639   5.966  0.3598  0.3249  0.4706
 2139SOL    HW118071   7.723   7.590   6.040 -1.1268 -1.8712 -0.0638
 2139SOL    HW218072   7.599   7.689   6.001  0.0639 -0.1502  0.4764
 2140SOL     OW18073   4.009   8.630   7.549 -0.3114  0.4181  0.1078
 2140SOL    HW118074   3.952   8.556   7.587 -1.9052  0.6125 -1.8304
 2140SOL    HW218075   3.976   8.718   7.582 -0.8548  0.5017 -0.6463
 2141SOL     OW18076   3.704   3.507   6.668  0.0990 -0.0552  0.0568
 2141SOL    HW118077   3.696   3.435   6.736 -1.4806 -1.0222 -1.0999
 2141SOL    HW218078   3.620   3.562   6.667  0.5665  0.6702 -0.3119
 2142SOL     OW18079   4.336   6.511   2.400 -0.6233 -0.2314 -0.0292
 2142SOL    HW118080   4.418   6.497   2.345  0.0784 -0.2546  1.0126
 2142SOL    HW218081   4.259   6.464   2.357 -0.1319 -0.0762 -1.0981
 2143SOL     OW18082   5.489   0.557   6.935 -0.1202  0.4982 -0.5303
 2143SOL    HW118083   5.505   0.462   6.962  0.2846  1.0130  1.0790
 2143SOL    HW218084   5.391   0.572   6.922 -0.4667  0.5441  1.9178
 2144SOL     OW18085   7.490   5.037   1.779 -0.6234 -0.2557 -0.0560
 2144SOL    HW118086   7.552   4.970   1.820 -2.5787 -1.5114  0.9583
 2144SOL    HW218087   7.453   5.097   1.850  1.7194  2.4853 -1.0693
 2145SOL     OW18088   2.619   4.699   1.807  0.5093 -0.0696  0.0887
 2145SOL    HW118089   2.640   4.792   1.838 -0.2195 -0.2437  1.1385
 2145SOL    HW218090   2.702   4.657   1.771  0.4627  1.6396 -2.1534
 2146SOL     OW18091   6.951   9.963   6.379  0.3763  0.2019  0.1761
 2146SOL    HW118092   6.911   9.894   6.318  2.5701 -0.2931 -0.7601
 2146SOL    HW218093   6.881  10.030   6.403 -0.8875 -0.3278 -1.8305
 2147SOL     OW18094   7.711   4.587   2.714 -0.0972 -0.1949  0.6462
 2147SOL    HW118095   7.685   4.553   2.624 -0.2895 -1.8487  1.3086
 2147SOL    HW218096   7.630   4.601   2.770 -0.0012  1.1573  0.4585
 2148SOL     OW18097   4.871   6.099   1.195 -0.1083 -0.1604 -0.4804
 2148SOL    HW118098   4.888   6.149   1.280 -1.6324  0.8676 -0.7556
 2148SOL    HW218099   4.774   6.076   1.189  0.0377 -0.4538 -1.8235
 2149SOL     OW18100   1.136   1.465   4.425  0.1965 -0.5736  0.0703
 2149SOL    HW118101   1.087   1.511   4.351 -0.0032 -0.0504  0.5236
 2149SOL    HW218102   1.224   1.432   4.391 -0.4362 -1.4857 -0.7439
 2150SOL     OW18103   8.283   8.559   1.680 -0.5315 -0.2809 -0.1579
 2150SOL    HW118104   8.204   8.517   1.636  1.7601 -3.5286 -1.3513
 2150SOL    HW218105   8.346   8.592   1.611  0.1646  0.3713  0.7722
 2151SOL     OW18106   7.076   2.245   5.032  0.2516  0.0641 -0.1323
 2151SOL    HW118107   7.175   2.237   5.027  0.3784  0.1357  1.8443
 2151SOL    HW218108   7.035   2.211   4.947  1.8620 -1.5869 -0.2771
 2152SOL     OW18109   7.824   1.710   3.721 -0.5360 -0.2026 -0.0542
 2152SOL    HW118110   7.842   1.619   3.683 -0.0801  0.6290 -1.8818
 2152SOL    HW218111   7.839   1.708   3.820  0.6667 -1.8118 -0.2480
 2153SOL     OW18112   1.293   0.285   3.340  0.2427 -0.4117 -0.1113
 2153SOL    HW118113   1.325   0.240   3.423  0.2986  1.9597  1.1996
 2153SOL    HW218114   1.371   0.315   3.286  0.2060 -0.8429 -0.4075
 2154SOL     OW18115   2.961   7.522   6.238  0.1270  0.0569 -0.1932
 2154SOL    HW118116   2.995   7.431   6.262  0.4128  0.2989  0.3379
 2154SOL    HW218117   2.877   7.514   6.185 -1.2398 -0.4959  1.9814
 2155SOL     OW18118   6.981   7.580   3.043 -0.8495  0.5719 -0.0595
 2155SOL    HW118119   7.006   7.485   3.027 -1.5693  0.2603  0.6458
 2155SOL    HW218120   7.034   7.639   2.982 -0.6302 -0.2992 -0.7176
 2156SOL     OW18121   3.319   3.082   6.466  0.0544 -0.4072 -0.1819
 2156SOL    HW118122   3.277   3.102   6.378  0.4964  0.6755 -0.1525
 2156SOL    HW218123   3.276   3.138   6.537  0.9013  0.0278 -0.0033
 2157SOL     OW18124   2.857   1.161   0.940  0.1284 -0.4272  0.1374
 2157SOL    HW118125   2.786   1.207   0.993 -0.3115 -0.8612 -0.0697
 2157SOL    HW218126   2.828   1.153   0.845  0.9513  0.4289 -0.1930
 2158SOL     OW18127   4.244   8.926   5.905 -0.1628 -0.3076 -0.1297
 2158SOL    HW118128   4.250   9.005   5.966 -0.8050 -0.6728  0.4217
 2158SOL    HW218129   4.148   8.902   5.891 -0.0927  0.6454 -2.4525
 2159SOL     OW18130   5.243   0.670   5.386 -0.2173  0.5366 -0.2028
 2159SOL    HW118131   5.340   0.684   5.367 -0.0796 -0.1013  0.0344
 2159SOL    HW218132   5.220   0.573   5.378 -0.4025  0.4110  1.7532
 2160SOL     OW18133   9.710   7.882   0.712 -0.0191 -0.0404  0.0148
 2160SOL    HW118134   9.630   7.825   0.730  1.0089 -1.6896 -0.4495
 2160SOL    HW218135   9.693   7.940   0.633  0.0574 -2.1127 -1.5815
 2161SOL     OW18136   1.992   6.484   6.431 -0.5606 -0.1103  0.4919
 2161SOL    HW118137   1.926   6.470   6.505 -0.9026  0.3465  0.2722
 2161SOL    HW218138   1.966   6.563   6.377 -1.2561 -1.4213 -1.1456
 2162SOL     OW18139   3.240   6.332   0.378  0.1130  0.4811  0.4115
 2162SOL    HW118140   3.322   6.379   0.409  0.0151  0.3706  0.8352
 2162SOL    HW218141   3.265   6.241   0.344  0.1063  0.2565  0.9936
 2163SOL     OW18142   1.716   1.547   8.012 -0.0741  0.1116  0.5755
 2163SOL    HW118143   1.768   1.625   7.978 -0.3125  0.0814  0.1402
 2163SOL    HW218144   1.652   1.516   7.942 -1.1412  0.5546  1.3432
 2164SOL     OW18145   3.353   2.569   4.360  0.1286  0.3223  0.1427
 2164SOL    HW118146   3.414   2.543   4.285  0.5339  1.3273  0.1221
 2164SOL    HW218147   3.263   2.592   4.324  0.5635  1.6012 -0.1126
 2165SOL     OW18148   0.854   5.049   7.079  0.0648  0.3448  0.0076
 2165SOL    HW118149   0.892   4.984   7.013  2.0448  0.6225  0.8517
 2165SOL    HW218150   0.836   5.136   7.032 -2.6734 -0.7935 -1.1429
 2166SOL     OW18151   4.195   3.798   6.977 -0.3345  0.0515  0.2258
 2166SOL    HW118152   4.110   3.846   6.997 -0.7640 -0.0674 -1.2734
 2166SOL    HW218153   4.182   3.737   6.899  0.9744 -0.4039  0.3384
 2167SOL     OW18154   9.954   3.806   4.799 -0.0236  0.1902 -0.6958
 2167SOL    HW118155   9.901   3.890   4.804 -1.6746 -0.6558 -2.8384
 2167SOL    HW218156  10.052   3.828   4.795 -0.3664  1.9237  0.1666
 2168SOL     OW18157   5.965   7.283   4.336  0.1193  0.1740 -0.1406
 2168SOL    HW118158   5.958   7.186   4.313 -1.1376 -0.2384  1.8688
 2168SOL    HW218159   5.999   7.293   4.429 -0.6883  1.6351  0.0049
 2169SOL     OW18160   3.655   8.888   3.337 -0.5809 -0.0151  0.2733
 2169SOL    HW118161   3.624   8.856   3.427 -2.0688 -1.9792 -0.8898
 2169SOL    HW218162   3.754   8.885   3.333 -0.4756  0.5706  2.0251
 2170SOL     OW18163   8.137   8.032   3.077  0.8500 -0.2986 -0.5512
 2170SOL    HW118164   8.205   7.960   3.087 -1.3047 -2.5478 -1.6599
 2170SOL    HW218165   8.151   8.079   2.990  2.3671  0.8015  0.2530
 2171SOL     OW18166   8.174   1.066   5.051  0.3224 -0.1981 -0.7067
 2171SOL    HW118167   8.089   1.013   5.052  0.6704 -0.7619 -0.8768
 2171SOL    HW218168   8.252   1.004   5.043  0.9286  0.1384  2.3203
 2172SOL     OW18169   4.446   3.417   1.916  0.5436  0.2197 -0.1906
 2172SOL    HW118170   4.438   3.510   1.951 -1.4505  0.1759 -0.4413
 2172SOL    HW218171   4.542   3.393   1.904  1.1556  1.3658  2.1958
 2173SOL     OW18172   6.208   8.032   2.285 -0.0017 -0.2488  0.7218
 2173SOL    HW118173   6.300   8.069   2.300 -0.0059 -0.5032  1.3674
 2173SOL    HW218174   6.154   8.098   2.232  0.2877  0.2639  1.0579
 2174SOL     OW18175   7.100   3.049   5.021  0.4146  0.4206  0.0450
 2174SOL    HW118176   7.171   3.019   4.957 -0.0895 -0.6552 -0.0232
 2174SOL    HW218177   7.123   3.017   5.113  0.2988  0.5566  0.1213
 2175SOL     OW18178   7.896   2.440   5.122  0.0657 -0.3618  0.2877
 2175SOL    HW118179   7.830   2.394   5.063  0.1957  0.7743 -0.7552
 2175SOL    HW218180   7.968   2.481   5.066  1.3643 -1.1051  1.3675
 2176SOL     OW18181   2.416   1.171   3.063 -0.2179  0.1192 -0.2593
 2176SOL    HW118182   2.480   1.129   2.999  0.4562 -1.0453  1.1515
 2176SOL    HW218183   2.324   1.133   3.048  0.3291 -1.6657  0.7969
 2177SOL     OW18184   3.152   2.307   1.361 -0.2843  0.9046  0.1569
 2177SOL    HW118185   3.126   2.404   1.368 -0.4626  0.8243  0.6901
 2177SOL    HW218186   3.161   2.282   1.265 -0.0650  1.4974  0.0182
 2178SOL     OW18187   9.623   8.419   0.712 -0.2370  0.4813  0.1919
 2178SOL    HW118188   9.579   8.333   0.736 -1.6731  1.1559  0.0404
 2178SOL    HW218189   9.720   8.414   0.732 -0.2620 -1.2808 -0.0872
 2179SOL     OW18190   2.293   5.815   6.740  0.0975 -0.5287  0.4478
 2179SOL    HW118191   2.358   5.739   6.745  0.7418 -0.0490 -0.3910
 2179SOL    HW218192   2.343   5.901   6.745 -0.2758 -0.1361 -1.8804
 2180SOL     OW18193   8.728   4.842   1.738  0.2233 -0.5428  0.2467
 2180SOL    HW118194   8.645   4.866   1.788 -1.2800  1.1395 -2.8637
 2180SOL    HW218195   8.726   4.745   1.714 -0.2094 -0.8067  1.3531
 2181SOL     OW18196   2.964   6.078   0.032  0.1652  0.4376  0.0407
 2181SOL    HW118197   3.037   6.081  -0.036 -0.8253  0.9119 -1.0207
 2181SOL    HW218198   2.875   6.084  -0.014 -0.6320 -2.1632  1.1618
 2182SOL     OW18199   0.210   6.635   3.679 -0.0990 -0.0361 -0.3328
 2182SOL    HW118200   0.155   6.551   3.683  1.0442 -0.7768  0.3981
 2182SOL    HW218201   0.293   6.622   3.734 -0.0145  1.6604 -0.0498
 2183SOL     OW18202   0.061   9.075   7.247  0.9034 -0.4005  0.1130
 2183SOL    HW118203   0.018   8.984   7.236  0.5947 -0.3539  0.9056
 2183SOL    HW218204   0.016   9.124   7.322  2.1092 -0.2004  0.7153
 2184SOL     OW18205   8.999   9.033   1.130 -0.0533  0.3920  0.5342
 2184SOL    HW118206   9.060   9.109   1.153  0.0431  0.2145  0.8566
 2184SOL    HW218207   8.963   8.993   1.214  2.1884 -1.8199  0.4834
 2185SOL     OW18208   8.951   4.587   5.064  0.3774  0.2117 -0.1084
 2185SOL    HW118209   8.984   4.494   5.078  0.4282 -0.4281 -4.0081
 2185SOL    HW218210   8.955   4.610   4.967 -0.6871  3.9141  0.6277
 2186SOL     OW18211   3.097   3.343   0.323  0.4094 -0.6284 -0.5769
 2186SOL    HW118212   3.069   3.400   0.401  1.2225 -0.2676 -0.5439
 2186SOL    HW218213   3.025   3.344   0.254 -0.3870 -1.0676  0.2317
 2187SOL     OW18214   7.697   4.799   3.461  0.3947 -0.5098  0.3343
 2187SOL    HW118215   7.771   4.732   3.462 -1.1476 -2.2528  1.1554
 2187SOL    HW218216   7.682   4.832   3.554  1.2198  1.0914 -0.0851
 2188SOL     OW18217   0.510   2.669   4.141 -0.1514 -0.2726 -0.4463
 2188SOL    HW118218   0.422   2.636   4.105 -0.1569 -1.1504  0.3334
 2188SOL    HW218219   0.508   2.665   4.241  1.2772 -1.6824 -0.4454
 2189SOL     OW18220   5.854   9.520   6.084  0.5548 -0.1068  0.1823
 2189SOL    HW118221   5.919   9.481   6.019  1.7648  1.8579  0.1893
 2189SOL    HW218222   5.891   9.513   6.176 -1.0165 -2.5871  0.6925
 2190SOL     OW18223   3.412   0.031   4.368 -0.1268  0.0742  0.0491
 2190SOL    HW118224   3.455  -0.053   4.334 -1.4312 -0.6819  0.2360
 2190SOL    HW218225   3.394   0.093   4.291  0.3051 -0.0651 -0.1623
 2191SOL     OW18226   9.144   2.165   0.985 -0.5929  0.0424  0.1810
 2191SOL    HW118227   9.066   2.200   0.933 -0.3795 -1.3408 -1.0725
 2191SOL    HW218228   9.146   2.065   0.980  1.1100  0.0490  0.4122
 2192SOL     OW18229   7.554   5.737   0.360  1.1460  0.2307  0.2807
 2192SOL    HW118230   7.542   5.661   0.296  3.4012 -0.1783  0.2951
 2192SOL    HW218231   7.465   5.768   0.392  0.0865 -0.9878 -1.3891
 2193SOL     OW18232   7.120   2.305   3.505  0.0881 -0.7187  0.2041
 2193SOL    HW118233   7.141   2.373   3.574 -0.3072 -0.2515 -0.1317
 2193SOL    HW218234   7.197   2.298   3.441 -0.4606  0.4876 -0.6196
 2194SOL     OW18235   3.923   2.322   4.110 -0.2930  0.5084  0.1064
 2194SOL    HW118236   3.957   2.414   4.091 -0.0657  0.3514 -0.2437
 2194SOL    HW218237   3.968   2.286   4.192  2.7629 -0.9252 -2.0806
 2195SOL     OW18238   8.383   6.050   8.143 -0.2381 -0.1363 -0.2536
 2195SOL    HW118239   8.290   6.071   8.113 -0.2184 -1.0757 -1.0013
 2195SOL    HW218240   8.449   6.092   8.081 -0.1801 -0.5311 -0.4602
 2196SOL     OW18241   8.265   7.006   7.255  0.1847  0.0037 -0.0840
 2196SOL    HW118242   8.205   6.957   7.318 -1.9711  2.3598 -0.2184
 2196SOL    HW218243   8.353   6.958   7.247 -1.7335 -3.6758 -0.0511
 2197SOL     OW18244   2.568   4.768   5.660  0.0086 -0.2067 -0.3914
 2197SOL    HW118245   2.506   4.697   5.695  1.7936 -1.5958  0.0120
 2197SOL    HW218246   2.552   4.853   5.710 -1.1112 -0.7301  0.1621
 2198SOL     OW18247   9.620   6.399   5.707 -0.2004  0.3955 -0.0302
 2198SOL    HW118248   9.660   6.349   5.631  0.8100  0.3421  0.5237
 2198SOL    HW218249   9.647   6.355   5.793  0.2967  1.6124  0.4402
 2199SOL     OW18250   2.135   0.216   3.345  0.0867  0.3541  0.0124
 2199SOL    HW118251   2.045   0.207   3.302  0.6153  0.8306 -1.2102
 2199SOL    HW218252   2.203   0.171   3.288  1.3134  3.7929 -1.3733
 2200SOL     OW18253   1.646   5.655   6.622  0.3436  0.3241  0.4404
 2200SOL    HW118254   1.585   5.578   6.637  0.8146 -0.6144 -2.1658
 2200SOL    HW218255   1.598   5.741   6.643 -1.3961 -0.4779 -0.1533
 2201SOL     OW18256   2.335   9.775   5.621  0.5741 -0.6999 -0.0198
 2201SOL    HW118257   2.344   9.728   5.709 -0.4500  1.8154  1.4872
 2201SOL    HW218258   2.421   9.819   5.597  1.2099 -2.3680 -0.9031
 2202SOL     OW18259   4.737   3.260   5.705 -0.0343 -0.2180  0.5260
 2202SOL    HW118260   4.684   3.332   5.660 -0.9333 -0.1688  1.6650
 2202SOL    HW218261   4.785   3.297   5.784 -0.2512 -0.7979  0.9344
 2203SOL     OW18262   2.857   7.888   4.048  0.0772 -0.4621 -0.0731
 2203SOL    HW118263   2.930   7.942   4.091  1.3980 -1.9633 -0.3674
 2203SOL    HW218264   2.893   7.843   3.966 -1.0397 -1.6203  0.0497
 2204SOL     OW18265   9.138   6.526   5.699 -0.0049 -0.2514 -0.0628
 2204SOL    HW118266   9.151   6.449   5.636  0.5743  0.3919 -0.7337
 2204SOL    HW218267   9.151   6.612   5.650 -1.0452  0.2922  0.5994
 2205SOL     OW18268   3.146   0.113   5.478 -0.2752  0.0357 -0.2759
 2205SOL    HW118269   3.050   0.141   5.479 -1.1388 -2.6617 -1.2379
 2205SOL    HW218270   3.187   0.138   5.390 -0.0998  1.2012  0.1396
 2206SOL     OW18271   3.609   0.148   6.762 -0.4373 -0.1472  0.0652
 2206SOL    HW118272   3.708   0.139   6.750 -0.6284 -0.0697 -1.6698
 2206SOL    HW218273   3.565   0.153   6.672 -1.9745  0.2694  0.8330
 2207SOL     OW18274   8.096   3.954   3.203 -0.2406 -0.0384 -0.1802
 2207SOL    HW118275   8.193   3.943   3.180  0.1227  0.4452  1.0886
 2207SOL    HW218276   8.078   4.050   3.224 -1.1377 -0.0177 -1.0002
 2208SOL     OW18277   0.090   4.513   1.482 -0.3691  0.4233  0.3394
 2208SOL    HW118278   0.003   4.472   1.509  0.9858 -2.4616  0.5619
 2208SOL    HW218279   0.080   4.559   1.394 -2.2161  0.5068  0.5740
 2209SOL     OW18280   1.803   3.062   3.539 -0.5565 -0.7291  0.3920
 2209SOL    HW118281   1.796   3.130   3.613  0.0963 -0.5513  0.2849
 2209SOL    HW218282   1.776   3.104   3.453  1.9176  0.0047 -0.0496
 2210SOL     OW18283   9.611   9.058   8.108  0.6277  0.0922  0.1473
 2210SOL    HW118284   9.622   9.115   8.190  1.7593 -1.0661  0.8095
 2210SOL    HW218285   9.570   8.971   8.134  0.7047 -0.1608 -0.5727
 2211SOL     OW18286   4.186   4.353   6.617 -0.0665  0.0387 -0.1994
 2211SOL    HW118287   4.192   4.284   6.689 -0.1102 -1.6868 -1.8145
 2211SOL    HW218288   4.111   4.330   6.555 -0.6337  2.0233 -0.2815
 2212SOL     OW18289   5.122   5.194   1.645 -0.5516 -0.6226 -0.4488
 2212SOL    HW118290   5.057   5.190   1.722  1.6677 -0.3087  1.5001
 2212SOL    HW218291   5.103   5.275   1.590 -0.4471  0.6834  1.3761
 2213SOL     OW18292   7.976   3.849   1.874  0.0500  0.1356 -0.3339
 2213SOL    HW118293   8.006   3.905   1.951 -0.9484 -1.4821  1.2772
 2213SOL    HW218294   8.041   3.775   1.859  0.5182  0.7653 -1.3860
 2214SOL     OW18295   3.438   2.825   6.429  0.1702  0.0512  0.5410
 2214SOL    HW118296   3.388   2.909   6.447 -0.8080 -0.5197  0.5033
 2214SOL    HW218297   3.401   2.750   6.485  0.5133 -0.5362 -0.0039
 2215SOL     OW18298   3.581   8.236   3.935 -0.2229 -0.1243 -0.1942
 2215SOL    HW118299   3.629   8.192   3.859  0.2406  0.0184  0.0111
 2215SOL    HW218300   3.648   8.270   4.001 -0.6079  0.1358  0.0647
 2216SOL     OW18301   9.608   4.827   1.799 -0.6178 -0.0083 -0.0994
 2216SOL    HW118302   9.611   4.849   1.896  1.0575  0.5026 -0.2431
 2216SOL    HW218303   9.701   4.818   1.764 -1.1924  0.4364 -1.7962
 2217SOL     OW18304   0.428   4.306   6.996 -0.1589 -0.0526  0.3844
 2217SOL    HW118305   0.484   4.225   6.977  1.2286  1.0094 -0.1114
 2217SOL    HW218306   0.401   4.306   7.092  2.2091  0.3629  1.0656
 2218SOL     OW18307   4.564   6.619   0.652  0.1063  0.0402 -0.0065
 2218SOL    HW118308   4.623   6.660   0.722  0.3691  0.3557 -0.4137
 2218SOL    HW218309   4.566   6.519   0.661  0.4231  0.0653  0.2091
 2219SOL     OW18310   5.613   9.703   1.765  0.0894  0.3514  0.4546
 2219SOL    HW118311   5.694   9.754   1.792 -0.4723  1.2140  0.5415
 2219SOL    HW218312   5.628   9.660   1.676  0.6603  0.4662  0.4953
 2220SOL     OW18313   8.745   7.649   5.962  0.1156 -0.6196 -0.0249
 2220SOL    HW118314   8.837   7.629   5.930  0.5187  0.8185  0.2059
 2220SOL    HW218315   8.739   7.627   6.060  0.2115 -0.7496 -0.0489
 2221SOL     OW18316   4.089   3.213   5.996 -0.4022  0.2140  0.3543
 2221SOL    HW118317   4.181   3.187   6.025 -0.1734  0.5280 -0.0828
 2221SOL    HW218318   4.094   3.292   5.935 -0.7389 -1.2859 -1.6660
 2222SOL     OW18319   6.895   0.710   2.847  0.4088 -1.0071  0.2070
 2222SOL    HW118320   6.868   0.660   2.765  1.0683 -0.6899 -0.2129
 2222SOL    HW218321   6.933   0.799   2.820 -0.4417 -0.4187  0.9237
 2223SOL     OW18322   6.738   2.945   0.509 -0.1446 -0.0865  0.1267
 2223SOL    HW118323   6.754   2.916   0.414 -2.1624  0.1809 -0.3211
 2223SOL    HW218324   6.681   3.027   0.510  0.3472  0.2597  1.5818
 2224SOL     OW18325   2.211   6.370   3.353 -0.1081  0.6018  0.2279
 2224SOL    HW118326   2.158   6.309   3.293 -1.1855  1.9877 -0.2408
 2224SOL    HW218327   2.150   6.413   3.419  0.4107  2.2197 -0.3172
 2225SOL     OW18328   1.450   4.182   2.778  0.5717 -0.3012 -0.1814
 2225SOL    HW118329   1.504   4.101   2.802  2.0373  0.1542 -1.8147
 2225SOL    HW218330   1.380   4.157   2.711 -1.6405 -0.9954  2.3178
 2226SOL     OW18331   6.013   3.733   8.202 -0.8481  0.2713  0.1509
 2226SOL    HW118332   5.959   3.796   8.259 -0.2900  1.1559 -0.2842
 2226SOL    HW218333   6.074   3.786   8.143 -0.7085 -0.6747 -0.5609
 2227SOL     OW18334   2.809   0.691   0.237  0.0511 -0.2136 -0.0210
 2227SOL    HW118335   2.851   0.660   0.151  0.7838  0.7523 -0.0251
 2227SOL    HW218336   2.831   0.788   0.251 -0.7433 -0.1596  0.8544
 2228SOL     OW18337   8.229   1.484   6.175 -0.1575  0.5308 -0.1458
 2228SOL    HW118338   8.321   1.520   6.162 -0.1506  0.2955 -0.7572
 2228SOL    HW218339   8.221   1.394   6.132 -0.7490  0.6673 -0.3381
 2229SOL     OW18340   4.557   9.148   1.197  0.0503  0.3896 -0.4102
 2229SOL    HW118341   4.534   9.059   1.159  0.3137 -0.2324  0.8730
 2229SOL    HW218342   4.584   9.138   1.293  0.3571  1.8075 -0.3340
 2230SOL     OW18343   2.902   6.054   7.449  0.2213 -0.2063 -0.0590
 2230SOL    HW118344   2.891   6.073   7.546  2.5517  0.3684  0.1160
 2230SOL    HW218345   2.874   6.135   7.396  0.6853  0.1485  0.2314
 2231SOL     OW18346   6.819   5.689   0.261 -0.4454  0.1124 -0.3025
 2231SOL    HW118347   6.824   5.635   0.346  1.7012  1.5893  0.5650
 2231SOL    HW218348   6.825   5.786   0.283  1.8318  0.4556 -2.2227
 2232SOL     OW18349   8.760   7.623   7.224 -0.8126 -0.0032 -0.5475
 2232SOL    HW118350   8.701   7.542   7.230 -3.0332  1.5468 -0.6137
 2232SOL    HW218351   8.718   7.689   7.161  1.1311  1.0730 -0.7326
 2233SOL     OW18352   3.796   9.815   1.266 -0.2239 -0.0541  0.0600
 2233SOL    HW118353   3.884   9.805   1.313 -0.7723  1.4166  1.4616
 2233SOL    HW218354   3.727   9.762   1.313 -0.0929 -1.2660 -1.0855
 2234SOL     OW18355   0.418   6.692   1.547  0.1323 -0.4830  0.2741
 2234SOL    HW118356   0.390   6.675   1.452  2.0448  0.6465 -0.5134
 2234SOL    HW218357   0.497   6.635   1.568 -0.2640 -0.6958  1.1868
 2235SOL     OW18358   8.272   3.533   0.477  0.3769  0.2525 -0.1390
 2235SOL    HW118359   8.334   3.541   0.399 -1.1994  0.8343 -1.3656
 2235SOL    HW218360   8.256   3.437   0.498  0.2595  0.0757 -1.0071
 2236SOL     OW18361   0.875   3.316   4.590 -0.0544  0.0751 -0.2248
 2236SOL    HW118362   0.810   3.366   4.533 -1.4046 -0.1083  1.1205
 2236SOL    HW218363   0.878   3.220   4.561  0.6636  0.3882 -1.1914
 2237SOL     OW18364   5.778   0.590   0.815 -0.3727  0.2550 -0.1057
 2237SOL    HW118365   5.749   0.561   0.723  2.1326  1.9163 -1.4836
 2237SOL    HW218366   5.744   0.525   0.882 -0.0152 -2.5023 -2.4822
 2238SOL     OW18367   2.682   2.894   1.163  0.1877  0.4226  0.2885
 2238SOL    HW118368   2.703   2.841   1.245  1.8986 -0.7381 -0.8451
 2238SOL    HW218369   2.584   2.890   1.144 -0.0033 -0.5273  1.4422
 2239SOL     OW18370   6.142   0.373   1.576 -0.0556  0.1218 -0.0114
 2239SOL    HW118371   6.088   0.289   1.565 -0.2618  0.0915  1.1031
 2239SOL    HW218372   6.223   0.353   1.632  1.1736  0.1501 -1.7604
 2240SOL     OW18373   7.573   0.965   3.818  0.3667 -0.1732 -0.4673
 2240SOL    HW118374   7.628   0.890   3.781  0.3370 -0.7052  0.5566
 2240SOL    HW218375   7.549   0.945   3.913  0.1280  1.0084 -0.2719
 2241SOL     OW18376   8.895   5.802   0.464 -0.1353  0.0299 -0.2620
 2241SOL    HW118377   8.807   5.825   0.424  0.6339  0.8328 -1.5111
 2241SOL    HW218378   8.946   5.886   0.483  1.0627 -0.4873 -1.1434
 2242SOL     OW18379   5.554   8.537   3.875  0.0735  0.5807 -0.3556
 2242SOL    HW118380   5.582   8.586   3.957 -1.9137  1.5097 -0.2043
 2242SOL    HW218381   5.613   8.458   3.862  2.7424  2.4686 -0.0884
 2243SOL     OW18382   9.079   4.303   4.779  0.4610  0.2691  0.3151
 2243SOL    HW118383   9.179   4.317   4.780  0.8594 -2.4849  0.7885
 2243SOL    HW218384   9.051   4.276   4.687  0.4260 -0.8459  0.6517
 2244SOL     OW18385   9.146   3.224   0.037  0.0447 -0.4782 -0.1370
 2244SOL    HW118386   9.173   3.200  -0.057  0.4681 -1.1792  0.1561
 2244SOL    HW218387   9.207   3.178   0.102  0.0435  0.3749  0.4779
 2245SOL     OW18388   0.781   1.356   4.772  0.0334  0.1081 -0.2351
 2245SOL    HW118389   0.830   1.271   4.791 -0.5801 -0.5132 -1.3511
 2245SOL    HW218390   0.702   1.364   4.833  0.6937  0.3914  0.5773
 2246SOL     OW18391   0.725   1.813   6.200 -0.0131 -0.0845  0.3031
 2246SOL    HW118392   0.650   1.790   6.262 -0.2038  1.2538  0.5779
 2246SOL    HW218393   0.775   1.730   6.176 -0.0734 -0.6650  2.0777
 2247SOL     OW18394   2.800   4.544   1.644  0.4338 -0.1957  0.3489
 2247SOL    HW118395   2.891   4.549   1.686 -0.3854 -0.5664  2.2369
 2247SOL    HW218396   2.758   4.456   1.666 -0.1184 -0.3048 -1.0957
 2248SOL     OW18397   3.912   3.436   2.218  0.0257 -0.2118  0.8699
 2248SOL    HW118398   4.012   3.439   2.224  0.1315  0.8560 -1.1054
 2248SOL    HW218399   3.885   3.366   2.152 -0.5408 -0.4984  1.4021
 2249SOL     OW18400   3.078   0.163   3.908 -0.4712 -0.1467 -0.5794
 2249SOL    HW118401   2.979   0.180   3.900 -0.4071  0.2904 -0.4948
 2249SOL    HW218402   3.100   0.140   4.002 -0.4710 -0.0773 -0.5622
 2250SOL     OW18403   9.786   0.425   3.234  0.1722  0.0618  0.1181
 2250SOL    HW118404   9.693   0.450   3.261 -0.0112 -0.3477 -0.1378
 2250SOL    HW218405   9.804   0.459   3.142  0.3367  0.2933  0.2345
 2251SOL     OW18406   4.528   0.250   0.810  0.3467 -0.1410  0.3649
 2251SOL    HW118407   4.450   0.297   0.768 -1.9033 -1.7819  2.5659
 2251SOL    HW218408   4.564   0.182   0.746 -1.5061 -0.9497  0.1525
 2252SOL     OW18409   3.894   4.922   0.169  0.2352  0.0821  0.0458
 2252SOL    HW118410   3.833   4.850   0.135  0.9062 -1.2367  1.5416
 2252SOL    HW218411   3.970   4.933   0.106  0.1483 -0.5521 -0.1746
 2253SOL     OW18412   2.068   7.881   6.737  0.3194 -0.5859  0.1794
 2253SOL    HW118413   2.012   7.948   6.785  0.7794 -0.3701  0.4169
 2253SOL    HW218414   2.099   7.920   6.650  0.8595 -0.3651  0.4674
 2254SOL     OW18415   0.935   8.848   5.578 -0.3700  0.3687 -0.8062
 2254SOL    HW118416   0.950   8.933   5.628 -1.1541  1.1289 -1.8228
 2254SOL    HW218417   0.909   8.776   5.642  1.1601  0.6576  0.1691
 2255SOL     OW18418   8.117   7.525   5.126 -0.3737  0.6402 -0.1700
 2255SOL    HW118419   8.133   7.622   5.110  0.0411  0.4264 -1.1012
 2255SOL    HW218420   8.098   7.480   5.038  0.3955 -0.2958  0.1402
 2256SOL     OW18421   3.046   0.249   6.449  0.5691 -0.8410 -0.1866
 2256SOL    HW118422   3.036   0.297   6.362 -0.2668 -0.6668  0.0008
 2256SOL    HW218423   3.119   0.292   6.502 -0.6395  0.6774  0.2741
 2257SOL     OW18424   5.734   8.098   3.258 -0.1752 -0.1538  0.0213
 2257SOL    HW118425   5.664   8.168   3.241 -0.0054 -0.5304 -2.3718
 2257SOL    HW218426   5.731   8.030   3.185  2.4158 -0.4149  0.1254
 2258SOL     OW18427   4.527   1.956   0.407  0.1815 -0.0847  0.4128
 2258SOL    HW118428   4.573   2.041   0.381 -1.1122  0.4720 -0.1259
 2258SOL    HW218429   4.475   1.922   0.329  2.9326 -2.9004 -0.2661
 2259SOL     OW18430   9.960   5.433   2.683 -0.1723  0.2006 -0.2580
 2259SOL    HW118431   9.903   5.509   2.714  0.6835  1.6275 -2.0814
 2259SOL    HW218432  10.051   5.441   2.723 -1.1553 -2.0115  2.5588
 2260SOL     OW18433   3.534   4.540   4.519 -0.2367  0.1903 -0.4296
 2260SOL    HW118434   3.553   4.535   4.617  0.0392 -1.1965 -0.5462
 2260SOL    HW218435   3.523   4.635   4.492 -0.9820  0.5546  1.0815
 2261SOL     OW18436   8.442   0.807   5.492 -0.2938  0.2657  0.0819
 2261SOL    HW118437   8.536   0.784   5.514 -0.7418 -1.1489  0.6151
 2261SOL    HW218438   8.433   0.821   5.394  0.1075 -1.4950 -0.2278
 2262SOL     OW18439   7.899   2.995   3.419 -0.1793 -0.3954 -0.0220
 2262SOL    HW118440   7.947   3.081   3.435 -0.8583  0.2482 -1.3942
 2262SOL    HW218441   7.904   2.972   3.322  1.0057 -2.5148  0.5049
 2263SOL     OW18442   6.509   6.633   5.084 -0.1183  0.0604  0.2786
 2263SOL    HW118443   6.555   6.657   4.999 -1.4766 -0.7903 -0.7318
 2263SOL    HW218444   6.555   6.554   5.125  0.4753  0.4029  0.2770
 2264SOL     OW18445   3.719   3.579   0.332  0.6726 -0.3963 -0.2015
 2264SOL    HW118446   3.653   3.505   0.322  2.2057 -1.8407 -0.0425
 2264SOL    HW218447   3.761   3.598   0.243 -0.0911  0.6477 -0.3416
 2265SOL     OW18448   7.943   4.796   0.086  0.1025 -1.2071  0.3326
 2265SOL    HW118449   7.944   4.722   0.018  1.1842 -1.5911  0.7485
 2265SOL    HW218450   7.964   4.883   0.041 -2.0855 -0.9785 -0.3236
 2266SOL     OW18451   8.700   0.701   5.078  0.4041 -0.3304 -1.1753
 2266SOL    HW118452   8.703   0.774   5.146 -0.2567 -0.6446 -0.7973
 2266SOL    HW218453   8.792   0.665   5.064  0.3699 -1.1818  0.5803
 2267SOL     OW18454   8.338   8.010   8.027  0.2196 -0.0331 -0.8084
 2267SOL    HW118455   8.404   8.049   8.091 -0.2141 -0.0023 -0.3734
 2267SOL    HW218456   8.277   8.082   7.994 -1.7986 -0.6093  1.4573
 2268SOL     OW18457   3.910   3.718   5.014  0.1136  0.1124 -0.1429
 2268SOL    HW118458   3.884   3.651   4.945 -2.4390  0.3894  0.4818
 2268SOL    HW218459   3.907   3.810   4.975  0.5763  0.1217 -0.1637
 2269SOL     OW18460   8.881   5.166   5.859  0.4933 -0.0575 -0.1108
 2269SOL    HW118461   8.786   5.198   5.864 -0.6496 -3.5573  1.7439
 2269SOL    HW218462   8.896   5.120   5.772 -0.1988 -1.4264  0.4712
 2270SOL     OW18463   8.670   4.087   2.199 -0.5538  0.6192  0.5626
 2270SOL    HW118464   8.587   4.143   2.195 -0.1234  1.1387 -1.7591
 2270SOL    HW218465   8.645   3.991   2.194 -1.1171  0.7051  1.5926
 2271SOL     OW18466   9.791   8.736   4.321  0.2976 -0.0523 -0.6384
 2271SOL    HW118467   9.863   8.698   4.379 -0.3658  0.6488  0.6681
 2271SOL    HW218468   9.818   8.728   4.225  2.6174  1.2060 -0.1244
 2272SOL     OW18469   7.147   1.390   7.206  0.1188  0.2772  0.3844
 2272SOL    HW118470   7.209   1.450   7.155 -2.0707  3.7261  1.5411
 2272SOL    HW218471   7.093   1.336   7.142  1.6838  0.0016 -0.7401
 2273SOL     OW18472   3.169   3.114   3.718 -0.1863  0.3897  0.6417
 2273SOL    HW118473   3.150   3.203   3.676  0.0535  0.3237  0.3945
 2273SOL    HW218474   3.204   3.128   3.811  1.4837  0.6267  0.0082
 2274SOL     OW18475   0.570   7.660   2.998 -0.5657  0.1877 -0.5157
 2274SOL    HW118476   0.623   7.731   2.951  1.2481 -1.4952 -1.0724
 2274SOL    HW218477   0.592   7.571   2.959 -2.5970 -0.7182  0.3806
 2275SOL     OW18478   9.437   9.706   8.096 -0.0109 -0.0624  0.1604
 2275SOL    HW118479   9.523   9.742   8.134  0.1905 -1.1160  0.7035
 2275SOL    HW218480   9.370   9.781   8.090  1.1726  0.9373 -0.9877
 2276SOL     OW18481   2.467   4.210   1.356 -0.4527 -0.1084  0.3323
 2276SOL    HW118482   2.464   4.110   1.358 -0.6456 -0.2004 -2.3357
 2276SOL    HW218483   2.561   4.240   1.339 -0.3380  0.1923  1.4499
 2277SOL     OW18484   2.897   2.898   8.144  0.2603 -0.2436  0.6652
 2277SOL    HW118485   2.798   2.889   8.134 -0.2869  3.0693  2.3444
 2277SOL    HW218486   2.942   2.879   8.057 -2.2205  2.3464 -1.2701
 2278SOL     OW18487   4.021   1.995   8.153  0.5669  0.1063 -0.4662
 2278SOL    HW118488   4.065   1.944   8.078 -3.9942 -1.3944 -2.2952
 2278SOL    HW218489   3.990   2.084   8.119 -1.7321 -0.6782 -0.5045
 2279SOL     OW18490   4.750   0.552   7.052  0.1782 -0.7027 -0.2398
 2279SOL    HW118491   4.798   0.506   7.127  0.4414 -0.4744 -0.2650
 2279SOL    HW218492   4.801   0.541   6.968  0.9289  0.7225 -0.0001
 2280SOL     OW18493   2.828   3.381   0.499  0.1034 -0.1543 -0.2962
 2280SOL    HW118494   2.754   3.418   0.555  1.4351  1.3575  0.5175
 2280SOL    HW218495   2.814   3.406   0.404 -0.0043  0.8630 -0.0175
 2281SOL     OW18496   7.844   8.097   4.319  0.5484 -0.1950  0.1945
 2281SOL    HW118497   7.810   8.142   4.236  0.6214  2.9812  1.8145
 2281SOL    HW218498   7.767   8.054   4.366 -0.1380  1.1471  0.3473
 2282SOL     OW18499   1.853   1.761   5.673  0.3487 -0.5911 -0.6040
 2282SOL    HW118500   1.798   1.789   5.752  0.7529 -1.0857 -0.1388
 2282SOL    HW218501   1.882   1.842   5.622 -2.1709 -0.4019 -1.7954
 2283SOL     OW18502   4.398   1.942   0.673  0.3396  0.5169  0.1133
 2283SOL    HW118503   4.416   2.037   0.696 -0.8777  1.6807 -3.3580
 2283SOL    HW218504   4.419   1.927   0.576  1.0598 -2.9200  0.7293
 2284SOL     OW18505   0.149   9.585   2.226 -0.6671 -0.7374 -0.3035
 2284SOL    HW118506   0.204   9.582   2.309 -2.1430  0.5284  0.7384
 2284SOL    HW218507   0.201   9.545   2.150  1.6380  0.3315  0.6731
 2285SOL     OW18508   2.159   0.898   7.929 -0.1192 -0.1014 -0.6982
 2285SOL    HW118509   2.067   0.887   7.965  0.2369  2.6663  1.1392
 2285SOL    HW218510   2.209   0.965   7.983  2.6860 -0.8558 -2.2411
 2286SOL     OW18511   1.904   5.095   0.190  0.5889 -0.1954 -0.0918
 2286SOL    HW118512   1.918   5.156   0.112  0.0547  1.0025  0.7413
 2286SOL    HW218513   1.899   5.000   0.157 -1.5526  0.4409 -1.7479
 2287SOL     OW18514   6.937   9.864   1.605  0.5674  0.2049 -0.5266
 2287SOL    HW118515   6.860   9.862   1.541 -0.3179 -3.1087  0.5941
 2287SOL    HW218516   6.994   9.783   1.591  0.2453 -0.6802  2.9933
 2288SOL     OW18517   4.140   2.077   6.078 -0.3378  0.5693  0.0766
 2288SOL    HW118518   4.070   2.144   6.055 -0.4998  0.8608  1.3596
 2288SOL    HW218519   4.140   2.062   6.177  2.5778  1.8834  0.3351
 2289SOL     OW18520   9.328   6.885   2.220  0.3828 -0.2615 -0.0028
 2289SOL    HW118521   9.251   6.824   2.201  0.7085 -1.0206  1.0469
 2289SOL    HW218522   9.366   6.920   2.134 -0.4730 -0.7020 -0.5640
 2290SOL     OW18523   6.584   0.785   4.474 -0.4970  0.0767 -0.1309
 2290SOL    HW118524   6.505   0.739   4.515 -0.9459  0.2849 -0.7589
 2290SOL    HW218525   6.654   0.798   4.543 -1.0568 -0.0134  0.4597
 2291SOL     OW18526   3.623   9.963   6.980  0.5634 -0.0567 -1.0305
 2291SOL    HW118527   3.628  10.025   7.058  0.8336  0.3749 -1.3894
 2291SOL    HW218528   3.618  10.016   6.896  1.1044 -0.5245 -1.3613
 2292SOL     OW18529   0.856   1.364   2.097  0.3867 -0.4948 -0.1197
 2292SOL    HW118530   0.840   1.339   2.193 -0.9380  0.1777 -0.1546
 2292SOL    HW218531   0.830   1.287   2.038 -0.4240 -0.2820 -0.0377
 2293SOL     OW18532   0.998   2.317   2.046  0.5232  0.0723  0.1927
 2293SOL    HW118533   1.081   2.273   2.013  0.7887  0.5694  0.1930
 2293SOL    HW218534   0.951   2.257   2.111 -0.6980 -1.4773 -2.0518
 2294SOL     OW18535   0.412   9.507   0.717 -0.5680 -0.0130 -0.1597
 2294SOL    HW118536   0.385   9.416   0.747  1.5967 -0.5653  0.2576
 2294SOL    HW218537   0.439   9.562   0.797 -2.6747  1.3039 -0.3133
 2295SOL     OW18538   2.772   4.688   0.730 -0.1209 -0.3483 -0.2179
 2295SOL    HW118539   2.682   4.722   0.759  0.3902 -0.3528  1.4000
 2295SOL    HW218540   2.824   4.763   0.689  0.1942  0.3329  1.4046
 2296SOL     OW18541   2.075   7.578   0.485 -0.0812  0.3289  0.3785
 2296SOL    HW118542   2.060   7.517   0.408  1.9276  0.8871 -0.4876
 2296SOL    HW218543   2.005   7.562   0.555 -0.5526 -1.7780 -0.5531
 2297SOL     OW18544   9.389   4.785   5.103 -0.2133 -0.2095 -0.1596
 2297SOL    HW118545   9.460   4.715   5.092  0.1898  0.4743 -2.0527
 2297SOL    HW218546   9.350   4.779   5.195  1.1786 -1.6376  0.3507
 2298SOL     OW18547   2.603   9.434   1.582  0.4483 -0.3454  0.1194
 2298SOL    HW118548   2.512   9.397   1.561 -0.6411  1.3904  1.6117
 2298SOL    HW218549   2.619   9.428   1.681  0.9305  1.6009  0.1767
 2299SOL     OW18550   9.002   9.937   5.692  0.3182  0.0544  0.1057
 2299SOL    HW118551   9.066   9.876   5.645 -0.5115 -0.1073 -0.8182
 2299SOL    HW218552   8.956   9.887   5.765 -0.2619 -0.4027 -0.5638
 2300SOL     OW18553   3.867   5.745   3.061  0.0951  0.0459 -0.1796
 2300SOL    HW118554   3.806   5.701   3.127 -0.8716  1.8665  0.1867
 2300SOL    HW218555   3.834   5.729   2.968 -0.6404  0.5646 -0.0097
 2301SOL     OW18556   3.357   5.092   3.418 -0.0837 -0.1119 -0.6560
 2301SOL    HW118557   3.352   5.154   3.497 -0.1353  1.4116 -1.8323
 2301SOL    HW218558   3.451   5.060   3.406 -0.0618 -0.2860 -0.0272
 2302SOL     OW18559   3.807   5.970   1.160 -0.4163 -0.2856 -0.1846
 2302SOL    HW118560   3.868   6.008   1.230 -1.4553  0.7667  0.1746
 2302SOL    HW218561   3.752   6.044   1.121 -0.7371 -1.0657 -1.2327
 2303SOL     OW18562   8.068   7.529   6.023 -0.7789 -0.3616  0.2196
 2303SOL    HW118563   8.145   7.592   6.038  1.5028 -2.2551 -2.8968
 2303SOL    HW218564   7.999   7.543   6.094  1.2519  3.1917  1.6151
 2304SOL     OW18565   4.128   3.764   0.564 -0.6658 -0.0467  0.1928
 2304SOL    HW118566   4.135   3.736   0.660  0.9498 -1.1663 -0.2262
 2304SOL    HW218567   4.081   3.852   0.559 -0.4364  0.2181  2.0423
 2305SOL     OW18568   7.199   1.629   4.789  0.8348 -0.1052 -0.0064
 2305SOL    HW118569   7.219   1.532   4.808 -0.7603 -0.6871 -1.1572
 2305SOL    HW218570   7.167   1.638   4.695 -2.8788  0.9313  1.2638
 2306SOL     OW18571   7.981   6.275   7.693 -0.4296  0.2724  0.3539
 2306SOL    HW118572   7.954   6.298   7.599 -0.5014 -0.7372  0.1274
 2306SOL    HW218573   8.034   6.191   7.693  1.9186  1.6995  0.9148
 2307SOL     OW18574   7.180   5.638   2.191 -0.1561 -0.1566  0.4277
 2307SOL    HW118575   7.155   5.677   2.279  1.4457 -0.1623  0.8946
 2307SOL    HW218576   7.103   5.585   2.155 -0.6165 -0.6541  2.1044
 2308SOL     OW18577   9.029   0.426   6.153  0.5181 -0.2868 -0.4736
 2308SOL    HW118578   9.119   0.423   6.196 -0.4329  0.2542  1.6309
 2308SOL    HW218579   8.966   0.368   6.204 -0.2794 -0.8404 -2.0677
 2309SOL     OW18580   2.602   8.307   0.174 -0.2416  0.2162  0.6664
 2309SOL    HW118581   2.571   8.363   0.097 -0.8149 -0.8024  0.1571
 2309SOL    HW218582   2.675   8.356   0.223  0.4454  0.6663 -0.7754
 2310SOL     OW18583   3.076   2.160   3.483  0.2348  0.0169  0.5859
 2310SOL    HW118584   3.097   2.109   3.566 -0.2840  0.1293  0.7847
 2310SOL    HW218585   3.155   2.157   3.422  0.0754 -1.3361  0.4346
 2311SOL     OW18586   1.215   7.141   2.123 -0.5993 -0.1035 -0.1721
 2311SOL    HW118587   1.246   7.131   2.029  1.0966  1.7805  0.1549
 2311SOL    HW218588   1.152   7.067   2.145 -1.0190 -0.5771 -2.7744
 2312SOL     OW18589   3.174   0.844   0.623  0.0638 -0.3897 -0.4160
 2312SOL    HW118590   3.178   0.905   0.544  1.4894 -0.0728 -0.1147
 2312SOL    HW218591   3.184   0.897   0.708  1.0247 -0.9811 -0.1401
 2313SOL     OW18592   2.317   2.636   4.255 -0.0434  0.2936  0.7083
 2313SOL    HW118593   2.300   2.604   4.162  0.7872 -0.3879  0.7844
 2313SOL    HW218594   2.413   2.663   4.264 -0.0252 -0.0122  1.4664
 2314SOL     OW18595   9.143   7.070   4.883  0.0671  0.2981  0.7456
 2314SOL    HW118596   9.235   7.079   4.846  0.1671  1.1805  1.1748
 2314SOL    HW218597   9.148   7.061   4.983 -0.3132  0.4308  0.7766
 2315SOL     OW18598   9.877   6.773   5.732  0.6819  0.5295 -0.9650
 2315SOL    HW118599   9.856   6.870   5.742  0.5991  0.4456 -0.2936
 2315SOL    HW218600   9.976   6.760   5.731  0.7036  0.7306 -2.1796
 2316SOL     OW18601   8.207   8.208   6.227  0.2205  0.1196  0.0026
 2316SOL    HW118602   8.296   8.188   6.268  0.3169  0.4145 -0.0650
 2316SOL    HW218603   8.135   8.184   6.291  0.3684  0.5607  0.3400
 2317SOL     OW18604   4.644   9.273   2.720 -0.4547 -0.0345 -0.4966
 2317SOL    HW118605   4.624   9.180   2.689  0.8572 -0.0692 -1.2616
 2317SOL    HW218606   4.717   9.312   2.665 -0.7191  1.3177  0.0770
 2318SOL     OW18607   7.402   9.096   3.211  0.3684  0.6714  0.2379
 2318SOL    HW118608   7.469   9.030   3.177  0.1707  0.9703 -0.7547
 2318SOL    HW218609   7.312   9.054   3.213 -0.1407  1.5310 -2.4478
 2319SOL     OW18610   2.880   6.292   1.487 -0.1656  0.1511 -0.2250
 2319SOL    HW118611   2.942   6.254   1.556  0.9199 -0.8541 -1.7318
 2319SOL    HW218612   2.846   6.219   1.428 -2.8453  0.6766  0.5896
 2320SOL     OW18613   9.169   5.733   6.386  0.4493  0.1376  0.6718
 2320SOL    HW118614   9.203   5.667   6.319 -0.5685  0.0667  0.2240
 2320SOL    HW218615   9.141   5.686   6.469 -1.7863 -0.1741 -0.2443
 2321SOL     OW18616   4.038   1.759   7.118 -0.1596 -0.1158 -0.6369
 2321SOL    HW118617   4.111   1.755   7.049  0.2748 -0.3995 -0.1696
 2321SOL    HW218618   4.051   1.839   7.176 -1.8415  1.4193 -2.3040
 2322SOL     OW18619   1.945   9.998   0.546 -0.2843 -0.6874  0.0293
 2322SOL    HW118620   1.860   9.960   0.509 -0.9005 -0.1727  0.9099
 2322SOL    HW218621   1.998  10.039   0.472 -1.3271 -0.0095 -0.3561
 2323SOL     OW18622   9.984   2.146   1.080  0.0799  0.5119 -0.0026
 2323SOL    HW118623  10.065   2.199   1.106  1.5152 -0.6977 -1.9054
 2323SOL    HW218624   9.958   2.169   0.986 -1.2249  0.1869  0.2727
 2324SOL     OW18625   6.180   0.494   0.995 -0.3699  0.3433  0.1505
 2324SOL    HW118626   6.126   0.541   0.925 -1.2932  1.3442  1.5279
 2324SOL    HW218627   6.271   0.475   0.959 -0.8174  0.8830 -1.3073
 2325SOL     OW18628   8.062   9.975   6.587  0.2351 -0.3851 -0.4937
 2325SOL    HW118629   7.964   9.996   6.586  0.1949 -0.5648 -0.4136
 2325SOL    HW218630   8.079   9.901   6.652  0.3788 -0.5790 -0.7513
 2326SOL     OW18631   6.753   4.140   0.638  0.2565 -0.1130  0.4218
 2326SOL    HW118632   6.758   4.186   0.727  0.3778  0.2607  0.2235
 2326SOL    HW218633   6.824   4.176   0.578  0.1220 -0.3074  0.1452
 2327SOL     OW18634   0.701   7.566   2.435  0.3129  0.6480  0.4336
 2327SOL    HW118635   0.794   7.555   2.400  0.5622 -0.9993  1.5063
 2327SOL    HW218636   0.684   7.662   2.458  1.3798  1.1268 -0.7542
 2328SOL     OW18637   1.295   2.116   6.390 -0.2603 -0.5668 -0.5209
 2328SOL    HW118638   1.238   2.043   6.353 -1.5332  1.3575 -2.4862
 2328SOL    HW218639   1.240   2.174   6.451  0.9548 -1.6846  1.7111
 2329SOL     OW18640   5.354   9.621   4.190 -0.4526 -0.1560  0.0913
 2329SOL    HW118641   5.430   9.671   4.148  0.1854 -0.0381  1.3545
 2329SOL    HW218642   5.268   9.654   4.152  0.0483  0.8291 -0.2274
 2330SOL     OW18643   9.357   6.155   1.799 -0.3815  0.1629 -0.6198
 2330SOL    HW118644   9.290   6.206   1.853 -0.1625  0.9850 -1.0990
 2330SOL    HW218645   9.321   6.142   1.706  0.2475  0.9108 -0.9808
 2331SOL     OW18646   4.233   5.695   3.630 -0.0774  0.4907 -0.1182
 2331SOL    HW118647   4.154   5.718   3.574 -0.8123 -0.5410  0.4734
 2331SOL    HW218648   4.294   5.774   3.637  0.6744  0.2604 -3.4129
 2332SOL     OW18649   1.079   4.014   7.000  0.6887 -0.4263 -0.4545
 2332SOL    HW118650   1.095   4.089   6.936 -2.4319  0.8934  0.1941
 2332SOL    HW218651   1.081   4.049   7.093 -0.3516 -1.2198 -0.1256
 2333SOL     OW18652   2.017   8.499   1.658  0.1945  0.1299  0.4611
 2333SOL    HW118653   2.052   8.536   1.572  0.8676 -2.2777 -0.3510
 2333SOL    HW218654   2.091   8.493   1.725 -0.0831  0.9630  0.8467
 2334SOL     OW18655   7.459   2.423   2.446 -0.0700  0.2330 -0.7428
 2334SOL    HW118656   7.499   2.484   2.514  0.3907 -0.2751 -0.5463
 2334SOL    HW218657   7.511   2.337   2.445 -1.2215 -0.4736 -0.4285
 2335SOL     OW18658   8.325   3.871   5.232  0.5914  0.0118 -0.0740
 2335SOL    HW118659   8.400   3.854   5.168  0.4533 -0.5983 -0.0813
 2335SOL    HW218660   8.362   3.878   5.325  0.9499  2.2677 -0.3703
 2336SOL     OW18661   4.167   0.124   7.851  0.0971  0.1568  0.0546
 2336SOL    HW118662   4.112   0.182   7.792 -0.6583 -0.3758  0.2223
 2336SOL    HW218663   4.217   0.181   7.917  0.9451  0.7472 -1.0871
 2337SOL     OW18664   9.466   7.652   4.487  0.4302  0.7218  0.1981
 2337SOL    HW118665   9.428   7.685   4.401  0.8813  0.8755  0.0558
 2337SOL    HW218666   9.392   7.635   4.552  0.2167  2.2823  0.3722
 2338SOL     OW18667   4.573   1.568   2.736  0.1710  0.1637 -0.3083
 2338SOL    HW118668   4.600   1.599   2.645  0.4470  0.6855 -0.0496
 2338SOL    HW218669   4.539   1.645   2.789 -1.8419 -0.4818 -0.6232
 2339SOL     OW18670   1.187   3.275   7.423  0.5280 -0.3611  0.7324
 2339SOL    HW118671   1.256   3.270   7.495 -0.1594 -2.4723  1.2870
 2339SOL    HW218672   1.120   3.346   7.446  0.2681 -1.0796  2.2397
 2340SOL     OW18673   5.019   8.158   3.156  0.2293 -0.3378 -0.3317
 2340SOL    HW118674   5.012   8.103   3.073  1.5936  0.2336 -0.8240
 2340SOL    HW218675   5.105   8.208   3.157  0.0792 -0.0711  1.2682
 2341SOL     OW18676   8.299   8.503   5.261 -1.0856 -0.2597  0.1471
 2341SOL    HW118677   8.241   8.432   5.301  0.4718 -0.7905  1.5196
 2341SOL    HW218678   8.357   8.463   5.191 -1.9058  0.1502 -0.7811
 2342SOL     OW18679   9.029   8.975   7.889 -0.4708  0.2912 -0.2226
 2342SOL    HW118680   9.012   9.036   7.966 -1.6408  0.2908 -0.4737
 2342SOL    HW218681   8.982   8.888   7.905  0.5345 -0.2620 -0.2326
 2343SOL     OW18682   5.061   0.048   2.364  0.1237 -0.2057 -0.4379
 2343SOL    HW118683   4.995   0.122   2.378  0.2482 -0.0449 -0.7057
 2343SOL    HW218684   5.012  -0.038   2.351 -0.0909  0.1852 -2.3829
 2344SOL     OW18685   4.038   5.713   3.928 -0.0772 -0.3862 -1.0099
 2344SOL    HW118686   4.012   5.625   3.889  1.4083 -0.6208 -1.5265
 2344SOL    HW218687   4.134   5.731   3.907 -0.6841  1.9119 -1.9370
 2345SOL     OW18688   1.947   2.238   1.384  0.1955 -0.0864 -0.1507
 2345SOL    HW118689   2.022   2.269   1.442 -0.5414  0.5034  0.4938
 2345SOL    HW218690   1.914   2.149   1.418 -1.2030  0.9422  1.2493
 2346SOL     OW18691   3.031   2.829   4.657 -0.5169 -0.1076  0.2079
 2346SOL    HW118692   3.001   2.745   4.612  1.1925  0.1398 -1.4816
 2346SOL    HW218693   2.976   2.906   4.625  0.3673 -0.0142 -1.1435
 2347SOL     OW18694   2.423   6.771   5.791 -0.1960 -0.3062  0.7376
 2347SOL    HW118695   2.436   6.735   5.883 -0.8166  0.3115  1.0720
 2347SOL    HW218696   2.406   6.695   5.728  1.7491 -0.8516  0.8504
 2348SOL     OW18697   7.826   0.081   5.551 -0.0181  0.0863  0.0902
 2348SOL    HW118698   7.869   0.101   5.639  0.5778  3.5036 -0.9106
 2348SOL    HW218699   7.897   0.077   5.480 -0.7337 -0.4531 -0.5954
 2349SOL     OW18700   8.911   8.303   1.771  0.2665 -0.2033 -0.3186
 2349SOL    HW118701   8.877   8.304   1.865  2.0334 -1.3183  0.3476
 2349SOL    HW218702   8.857   8.237   1.718 -0.4259  0.0860  0.0105
 2350SOL     OW18703   0.368   4.977   5.576  0.6995 -0.2901  0.4851
 2350SOL    HW118704   0.433   5.011   5.643 -2.1614  2.9741  1.8062
 2350SOL    HW218705   0.351   4.880   5.592  3.2436 -0.5713  1.7402
 2351SOL     OW18706   8.983   6.350   7.131  0.3368 -0.1157 -0.0512
 2351SOL    HW118707   8.993   6.313   7.039  0.4697  0.1478 -0.1438
 2351SOL    HW218708   8.899   6.314   7.173 -0.3416  0.6923 -0.7119
 2352SOL     OW18709   9.510   1.305   5.479 -0.2987  0.4305  0.2336
 2352SOL    HW118710   9.549   1.322   5.389 -0.1685  1.0762  0.4148
 2352SOL    HW218711   9.578   1.257   5.535  0.3201  1.7532  0.6217
 2353SOL     OW18712   9.321   8.665   7.952  0.9511  0.4448 -0.3778
 2353SOL    HW118713   9.275   8.714   8.026  0.0190 -2.3420  0.9830
 2353SOL    HW218714   9.254   8.615   7.898  1.8940  0.3796 -1.5132
 2354SOL     OW18715   1.663   4.265   6.081 -0.8222 -0.9208  0.1940
 2354SOL    HW118716   1.639   4.193   6.145 -0.1531 -1.6788 -0.3992
 2354SOL    HW218717   1.633   4.354   6.118  0.4946 -1.2143  2.0517
 2355SOL     OW18718   7.972   6.526   1.310 -0.1558 -0.1719  0.2864
 2355SOL    HW118719   8.065   6.559   1.327  0.1562 -1.7417  1.7737
 2355SOL    HW218720   7.916   6.540   1.391 -0.5969 -1.3065  0.1888
 2356SOL     OW18721   8.427   9.492   6.897  0.1015  0.6788  0.2776
 2356SOL    HW118722   8.358   9.484   6.826  0.5174  1.9635 -0.2897
 2356SOL    HW218723   8.515   9.514   6.856  0.3911  1.1957  1.1613
 2357SOL     OW18724   1.281   3.191   4.545  0.1083 -0.0754  0.0019
 2357SOL    HW118725   1.243   3.152   4.629  0.1478  1.3955  0.7051
 2357SOL    HW218726   1.223   3.265   4.513 -0.0935 -0.8435 -1.4816
 2358SOL     OW18727   2.276   4.041   6.103  0.2158  0.1247 -0.4996
 2358SOL    HW118728   2.338   4.051   6.180  0.2502  1.1072 -0.6385
 2358SOL    HW218729   2.302   3.961   6.049 -0.6625 -1.3644  1.2686
 2359SOL     OW18730   9.144   6.241   4.384 -0.4981 -0.8614  0.1203
 2359SOL    HW118731   9.185   6.330   4.404  1.0858 -1.1254 -1.8179
 2359SOL    HW218732   9.070   6.251   4.318 -0.4645 -0.9481  0.0689
 2360SOL     OW18733   1.207   4.106   3.778 -0.1379 -0.1798  0.0343
 2360SOL    HW118734   1.130   4.170   3.777  1.0652  1.2776 -2.2374
 2360SOL    HW218735   1.262   4.123   3.860 -0.5154  0.8775  0.0881
 2361SOL     OW18736   5.187   1.506   2.982  0.6012 -0.5926  0.0556
 2361SOL    HW118737   5.210   1.498   2.885  0.7694  0.0354  0.0458
 2361SOL    HW218738   5.258   1.558   3.029  0.1041 -0.1924  0.3653
 2362SOL     OW18739   8.763   9.658   6.280  0.2182  0.2016  0.5329
 2362SOL    HW118740   8.771   9.722   6.356 -2.2246  1.4063 -0.1653
 2362SOL    HW218741   8.815   9.692   6.202  1.2669 -0.1257  1.0919
 2363SOL     OW18742   9.809   1.853   4.103  0.3541 -0.7304  0.1400
 2363SOL    HW118743   9.845   1.846   4.010 -1.4702 -1.4187 -0.5357
 2363SOL    HW218744   9.800   1.949   4.127  0.6706 -0.5440 -0.4512
 2364SOL     OW18745   1.965   0.483   3.369 -0.4820 -0.3820  0.0690
 2364SOL    HW118746   1.885   0.543   3.370 -0.1403  0.1500 -1.5260
 2364SOL    HW218747   1.936   0.388   3.365 -1.0487 -0.1806 -0.8452
 2365SOL     OW18748   1.998   9.931   4.364 -0.0120  0.1105  0.4118
 2365SOL    HW118749   1.966   9.845   4.404  0.7781 -0.6272 -0.5172
 2365SOL    HW218750   1.920   9.981   4.326 -0.3397 -0.7372 -0.0596
 2366SOL     OW18751   9.179   7.768   6.667  0.1696 -0.0340 -0.3273
 2366SOL    HW118752   9.149   7.832   6.738 -0.0271 -0.2219 -0.2426
 2366SOL    HW218753   9.193   7.678   6.707 -0.8505 -0.3621 -0.7168
 2367SOL     OW18754   2.651   1.392   8.053 -0.0587  0.3117  0.2518
 2367SOL    HW118755   2.692   1.303   8.072 -1.8379 -0.3736  0.9686
 2367SOL    HW218756   2.633   1.439   8.139 -0.8792  0.5555 -0.0541
 2368SOL     OW18757   9.357   3.464   3.995 -0.0219 -0.1733 -0.1750
 2368SOL    HW118758   9.392   3.454   4.088 -0.2703  0.4899 -0.0040
 2368SOL    HW218759   9.301   3.547   3.990  1.7159  0.9588 -1.4492
 2369SOL     OW18760   4.306   5.812   0.413 -0.1305 -0.2185 -0.4179
 2369SOL    HW118761   4.275   5.793   0.320  1.1121 -0.2507 -0.8405
 2369SOL    HW218762   4.237   5.784   0.478 -1.7106  1.2658 -1.4089
 2370SOL     OW18763   3.736   8.992   5.254  0.5230 -0.5067  0.0752
 2370SOL    HW118764   3.777   9.074   5.214  2.1914 -1.1941  0.3412
 2370SOL    HW218765   3.659   8.963   5.198 -1.7898  2.7405  1.3893
 2371SOL     OW18766   8.250   3.082   7.789  0.3870 -0.1397 -0.4588
 2371SOL    HW118767   8.299   2.995   7.777 -0.3632 -0.5236 -0.8060
 2371SOL    HW218768   8.154   3.070   7.762 -0.0124  0.4801  0.6554
 2372SOL     OW18769   8.739   5.776   4.130  0.6492 -0.0535 -0.4013
 2372SOL    HW118770   8.695   5.861   4.101 -0.0200  1.1319  3.7165
 2372SOL    HW218771   8.778   5.729   4.051 -0.9063  2.9681 -3.0485
 2373SOL     OW18772   2.138   8.036   4.260 -0.2854 -0.5013 -0.0238
 2373SOL    HW118773   2.128   7.966   4.331 -1.7473 -0.8341 -0.5485
 2373SOL    HW218774   2.062   8.101   4.266  0.0608 -0.0269 -0.7263
 2374SOL     OW18775   3.574   9.710   1.022  0.2207  0.0574  0.3943
 2374SOL    HW118776   3.641   9.657   1.073  2.4620  0.3242 -2.1346
 2374SOL    HW218777   3.616   9.795   0.991 -0.5669 -0.7339 -3.0535
 2375SOL     OW18778   7.301   2.311   8.197  0.1722 -0.1651  0.3487
 2375SOL    HW118779   7.378   2.254   8.169  0.2360 -1.0253  2.1946
 2375SOL    HW218780   7.296   2.392   8.139  0.6871 -1.5557 -1.6722
 2376SOL     OW18781   1.517   0.183   4.337 -0.0558  0.0641  0.0082
 2376SOL    HW118782   1.434   0.127   4.331  0.1279 -0.2072  0.0043
 2376SOL    HW218783   1.538   0.200   4.433 -0.5892  0.8385 -0.0062
 2377SOL     OW18784   8.583   5.891   5.185  0.2124 -0.1251 -0.0144
 2377SOL    HW118785   8.568   5.821   5.255 -2.5926 -0.8978 -1.3160
 2377SOL    HW218786   8.500   5.945   5.173  0.7388  0.2033 -2.5083
 2378SOL     OW18787   5.531   3.625   0.917  0.3263  0.0584 -0.0772
 2378SOL    HW118788   5.551   3.712   0.874 -2.5093  1.1053  0.5799
 2378SOL    HW218789   5.586   3.614   1.000  2.2094  0.2408 -1.2844
 2379SOL     OW18790   0.796   1.041   4.899  0.0054 -0.3937  0.1476
 2379SOL    HW118791   0.888   1.060   4.865  0.1250 -0.1058  0.6208
 2379SOL    HW218792   0.728   1.068   4.830  0.1761  1.7763  0.7770
 2380SOL     OW18793   5.930   9.209   4.792  0.1368  0.1687  0.1141
 2380SOL    HW118794   5.838   9.187   4.761 -0.5570  2.4780  0.4978
 2380SOL    HW218795   5.974   9.126   4.827 -1.2416 -1.2429 -1.4311
 2381SOL     OW18796   7.950   6.877   5.692  0.0465  0.3869 -0.0103
 2381SOL    HW118797   7.912   6.908   5.605  1.0529  0.8331 -0.2972
 2381SOL    HW218798   7.890   6.807   5.732  0.1700 -0.6468 -1.6048
 2382SOL     OW18799   4.863   5.635   1.807 -0.1393 -0.5858 -0.1822
 2382SOL    HW118800   4.954   5.678   1.806 -1.0631  1.4727 -2.8891
 2382SOL    HW218801   4.808   5.676   1.879  1.4330 -2.7090  2.2834
 2383SOL     OW18802   9.690   2.344   0.810  0.4290  0.0564  0.2855
 2383SOL    HW118803   9.678   2.439   0.780  0.6726 -0.7178 -2.3818
 2383SOL    HW218804   9.601   2.306   0.837 -0.0943  0.2926 -1.0367
 2384SOL     OW18805   4.862   2.248   4.293 -0.1439 -0.2579  0.6373
 2384SOL    HW118806   4.939   2.223   4.351  0.6099 -1.9146 -1.0433
 2384SOL    HW218807   4.802   2.170   4.280  0.6979 -0.4729 -2.3121
 2385SOL     OW18808   2.077   6.670   7.296 -0.6689  0.3743  0.3290
 2385SOL    HW118809   2.049   6.610   7.221 -0.5885  0.2932  0.3634
 2385SOL    HW218810   2.176   6.666   7.307 -0.7142  0.1060  0.6762
 2386SOL     OW18811   0.840   5.884   8.060 -0.2947  0.0486  0.0676
 2386SOL    HW118812   0.892   5.798   8.067  0.6665  0.5872 -0.3560
 2386SOL    HW218813   0.876   5.949   8.128  0.3742  0.8304 -1.0255
 2387SOL     OW18814   2.017   7.725   1.892  0.1951 -0.3102  0.1681
 2387SOL    HW118815   2.115   7.738   1.878  0.2056  0.6097  1.0938
 2387SOL    HW218816   1.987   7.777   1.971 -1.6515  1.9385 -1.9576
 2388SOL     OW18817   3.189   6.708   2.478  0.4486  0.8866  0.1341
 2388SOL    HW118818   3.200   6.635   2.545 -2.6891  1.5539  1.4496
 2388SOL    HW218819   3.192   6.797   2.525 -1.1210  1.3833 -0.6768
 2389SOL     OW18820   7.532   7.277   7.478  0.0240  0.4476  0.4929
 2389SOL    HW118821   7.619   7.321   7.500  0.7366 -1.1541  0.9680
 2389SOL    HW218822   7.468   7.291   7.554  0.2366  0.6823  0.6298
 2390SOL     OW18823   0.729   0.346   7.852  0.3586 -0.4125  0.0107
 2390SOL    HW118824   0.776   0.415   7.798 -0.4380  1.4042  1.5686
 2390SOL    HW218825   0.639   0.328   7.813  0.1712  0.1719  0.1761
 2391SOL     OW18826   1.656   1.499   0.982 -0.0853  0.1735  0.6685
 2391SOL    HW118827   1.734   1.561   0.977 -1.3599  1.6781 -1.7315
 2391SOL    HW218828   1.574   1.546   0.948 -1.2123 -2.5875 -0.6218
 2392SOL     OW18829   4.489   8.880   5.061 -0.2359 -0.6083  0.7649
 2392SOL    HW118830   4.573   8.871   5.009 -0.7263 -0.3306 -0.0838
 2392SOL    HW218831   4.499   8.834   5.149  1.3602  0.7921  1.3376
 2393SOL     OW18832   9.952   6.438   0.671 -0.2204  0.0137  0.0822
 2393SOL    HW118833  10.001   6.421   0.586  0.2987 -0.3424  0.4533
 2393SOL    HW218834   9.859   6.467   0.651 -0.0771 -0.0132 -0.6073
 2394SOL     OW18835   4.865   1.962   7.973  0.3287 -0.1358  0.7319
 2394SOL    HW118836   4.894   2.033   8.038  0.3994  0.1287  0.4129
 2394SOL    HW218837   4.924   1.882   7.984 -0.0408 -0.3230  1.4071
 2395SOL     OW18838   8.634   6.175   6.614 -0.2391  0.2138 -0.1319
 2395SOL    HW118839   8.568   6.250   6.605  0.1196  1.0122  3.2528
 2395SOL    HW218840   8.666   6.148   6.523 -1.1613  3.4391 -1.5014
 2396SOL     OW18841   9.967   4.859   4.897 -0.1704 -0.5077  0.3211
 2396SOL    HW118842   9.988   4.862   4.995  0.8182 -0.1158  0.1104
 2396SOL    HW218843   9.962   4.952   4.861 -2.6304 -0.5785  0.4080
 2397SOL     OW18844   2.097   4.756   1.649 -0.2479  0.0704  0.1065
 2397SOL    HW118845   2.166   4.823   1.676  1.1257 -0.8682 -1.0226
 2397SOL    HW218846   2.069   4.772   1.555 -1.1856  0.1181  0.3867
 2398SOL     OW18847   3.190   1.751   2.473  0.1990 -0.0296 -0.4345
 2398SOL    HW118848   3.187   1.759   2.573  1.3280 -2.4277 -0.1826
 2398SOL    HW218849   3.159   1.837   2.432 -1.4301  0.5858  1.9673
 2399SOL     OW18850   2.935   8.182   2.659 -0.0779  0.2015  0.0237
 2399SOL    HW118851   3.002   8.255   2.647 -1.4963  1.2503 -1.7544
 2399SOL    HW218852   2.920   8.166   2.756 -0.2219  2.7299  0.4531
 2400SOL     OW18853   7.767   7.634   4.285 -0.3795 -0.1608 -0.4127
 2400SOL    HW118854   7.792   7.642   4.189  1.0405 -0.9598 -0.1350
 2400SOL    HW218855   7.762   7.537   4.310  1.7147  0.0331  0.8966
 2401SOL     OW18856   9.724   3.184   0.343 -0.1970 -0.2477  0.1258
 2401SOL    HW118857   9.708   3.258   0.278  1.5792  0.6710  0.6865
 2401SOL    HW218858   9.643   3.172   0.402 -0.5456  1.1486 -0.0653
 2402SOL     OW18859   4.873   0.140   6.981  0.8999 -0.2063 -0.2727
 2402SOL    HW118860   4.878   0.222   7.039  1.7231  0.0856 -0.7426
 2402SOL    HW218861   4.951   0.080   7.003  0.3420 -0.8310  0.0196
 2403SOL     OW18862   6.560   2.327   5.062 -0.2477 -0.2349 -0.1508
 2403SOL    HW118863   6.472   2.306   5.104 -0.4055 -1.1091 -0.9224
 2403SOL    HW218864   6.582   2.424   5.078 -1.5128  0.0814 -0.2768
 2404SOL     OW18865   7.416   5.339   0.687  0.2781  0.0544 -0.3603
 2404SOL    HW118866   7.368   5.346   0.599 -1.1758 -0.1619  0.4020
 2404SOL    HW218867   7.498   5.396   0.685 -0.0465  0.4912 -1.6590
 2405SOL     OW18868   3.733   9.945   2.593 -0.2651 -0.3149  0.1282
 2405SOL    HW118869   3.805   9.902   2.539 -0.0337 -1.4130  1.2958
 2405SOL    HW218870   3.773  10.016   2.652 -0.1604 -0.8319  0.6780
 2406SOL     OW18871   3.924   3.850   7.038  0.0149 -0.6038 -0.2818
 2406SOL    HW118872   3.896   3.766   6.992  1.1255 -1.9805  1.5340
 2406SOL    HW218873   3.907   3.843   7.136 -0.4671  1.5499 -0.1701
 2407SOL     OW18874   1.509   7.739   4.335  0.0912 -0.5651 -0.4273
 2407SOL    HW118875   1.528   7.785   4.248  0.5328 -2.9057 -1.6170
 2407SOL    HW218876   1.560   7.653   4.338  1.2396  0.1687  2.7972
 2408SOL     OW18877   5.290   9.752   5.751 -0.3764  0.4810  0.1725
 2408SOL    HW118878   5.331   9.820   5.812 -0.0924  0.5187 -0.0607
 2408SOL    HW218879   5.193   9.774   5.738  0.2297  2.1796 -1.7314
 2409SOL     OW18880   2.042   0.562   2.916 -0.3695 -0.1312  0.3922
 2409SOL    HW118881   2.077   0.503   2.989 -1.1043 -0.6875  0.3044
 2409SOL    HW218882   2.100   0.554   2.835 -0.0080 -0.1207  0.6507
 2410SOL     OW18883   0.141   1.314   7.538 -0.5455  0.2050  0.4553
 2410SOL    HW118884   0.146   1.380   7.613 -1.6826  0.6186  0.1903
 2410SOL    HW218885   0.155   1.361   7.451  2.0207 -0.4856  0.4814
 2411SOL     OW18886   4.659   1.898   5.019 -0.6062  0.2986  0.3666
 2411SOL    HW118887   4.670   1.988   5.062 -1.0851  1.1407 -1.2328
 2411SOL    HW218888   4.576   1.855   5.054 -0.4162  0.5126  1.0892
 2412SOL     OW18889   8.918   9.430   3.636 -0.1116  0.0357 -0.0749
 2412SOL    HW118890   8.964   9.385   3.559 -2.2852  0.7613 -1.8848
 2412SOL    HW218891   8.937   9.528   3.633 -1.2758  0.2560 -0.5001
 2413SOL     OW18892   2.294   9.792   1.790 -0.3660  0.2314 -0.1086
 2413SOL    HW118893   2.373   9.743   1.826  0.0367  1.1442  0.2626
 2413SOL    HW218894   2.211   9.739   1.807  0.2350 -1.0358 -1.0848
 2414SOL     OW18895   4.941   4.230   6.898 -0.6745  0.2227  0.1450
 2414SOL    HW118896   4.988   4.303   6.947  0.2113  0.4452 -1.0160
 2414SOL    HW218897   5.008   4.167   6.859 -1.3237  0.2993 -1.1516
 2415SOL     OW18898   1.400   7.971   2.413 -0.2434  0.1586  0.2299
 2415SOL    HW118899   1.462   7.975   2.335 -1.8296 -0.2939 -1.1084
 2415SOL    HW218900   1.443   7.923   2.488  1.0398 -0.0775 -0.6477
 2416SOL     OW18901   9.577   4.962   7.941  0.1126 -0.1135 -0.2312
 2416SOL    HW118902   9.610   4.875   7.978 -0.6799 -0.2043  0.2869
 2416SOL    HW218903   9.569   5.028   8.015 -0.8110 -0.0821 -0.3467
 2417SOL     OW18904   0.602   6.203   7.137 -1.1208  0.2461  0.2683
 2417SOL    HW118905   0.569   6.110   7.151  0.9858 -0.4604  0.6938
 2417SOL    HW218906   0.533   6.268   7.169 -1.6052 -1.1899  2.2329
 2418SOL     OW18907   9.690   2.385   2.900 -0.1532  0.9153  0.5737
 2418SOL    HW118908   9.777   2.424   2.930  0.3317  0.4236 -0.1613
 2418SOL    HW218909   9.670   2.415   2.806  0.5346 -1.0719 -0.2330
 2419SOL     OW18910   2.193   5.260   2.864 -0.3217 -0.0551  0.4919
 2419SOL    HW118911   2.236   5.185   2.913 -1.5961 -1.5122 -0.5596
 2419SOL    HW218912   2.100   5.234   2.839 -0.3253  1.3647 -1.0638
 2420SOL     OW18913   1.379   7.642   1.732  0.4596  0.3453  0.0876
 2420SOL    HW118914   1.326   7.576   1.678 -0.4586  1.9140 -0.9604
 2420SOL    HW218915   1.343   7.646   1.825 -1.1706  1.2536 -0.5590
 2421SOL     OW18916   0.579   5.200   2.405 -0.5032 -0.1174 -0.3456
 2421SOL    HW118917   0.494   5.221   2.357  0.1969 -1.4032 -2.1781
 2421SOL    HW218918   0.564   5.123   2.467 -1.7232  2.3180  2.5018
 2422SOL     OW18919   2.861   3.240   2.808 -0.2011  0.0106 -0.2251
 2422SOL    HW118920   2.773   3.287   2.815 -0.7027 -0.9997  0.3922
 2422SOL    HW218921   2.846   3.144   2.783  0.6793 -0.3186  0.4749
 2423SOL     OW18922   3.548   4.395   3.019  0.0846  0.0891  0.1028
 2423SOL    HW118923   3.452   4.387   2.996 -0.1966 -0.4229  1.3618
 2423SOL    HW218924   3.582   4.306   3.050  0.2217  0.8662  2.3258
 2424SOL     OW18925   4.179   8.828   0.954 -0.3130  0.0616  0.4437
 2424SOL    HW118926   4.231   8.898   0.905 -1.1042 -0.1279 -0.6748
 2424SOL    HW218927   4.243   8.764   0.996  0.4190  1.3549  1.3551
 2425SOL     OW18928   3.304   6.702   7.484 -0.0041  0.4022  0.0486
 2425SOL    HW118929   3.281   6.791   7.523  0.2150 -0.0110  1.1435
 2425SOL    HW218930   3.247   6.684   7.404 -2.3282  0.0964  1.7489
 2426SOL     OW18931   3.347   5.643   6.352  0.1879 -0.1645  0.3680
 2426SOL    HW118932   3.263   5.644   6.297 -0.4534 -0.6960  1.3212
 2426SOL    HW218933   3.381   5.550   6.359 -0.5972 -0.3434  2.1419
 2427SOL     OW18934   2.009   5.625   0.967  0.4208 -0.4457  0.1026
 2427SOL    HW118935   1.959   5.624   0.880 -0.2414  2.0515  0.4038
 2427SOL    HW218936   2.062   5.709   0.974  1.6099 -1.2877  1.5040
 2428SOL     OW18937   8.447   0.468   1.631  0.2285 -0.1342 -0.1301
 2428SOL    HW118938   8.506   0.391   1.608 -0.0576 -0.0755 -1.0777
 2428SOL    HW218939   8.482   0.551   1.587  0.3379  0.2189  0.6018
 2429SOL     OW18940   2.060   9.332   5.444 -0.0986 -0.3339  0.0476
 2429SOL    HW118941   2.106   9.418   5.464  1.1756 -0.7162 -1.1815
 2429SOL    HW218942   1.990   9.314   5.514  2.0171 -0.0376  2.2713
 2430SOL     OW18943   5.006   7.324   1.882 -0.2252  0.2402  0.5767
 2430SOL    HW118944   4.926   7.293   1.831  0.4162 -0.3296 -0.1086
 2430SOL    HW218945   5.009   7.424   1.882 -0.1168  0.2515 -0.7132
 2431SOL     OW18946   9.302   8.511   1.936  0.7186 -0.1939 -0.1391
 2431SOL    HW118947   9.236   8.465   1.995  1.1781 -1.4001 -0.5343
 2431SOL    HW218948   9.258   8.589   1.890 -0.4984 -1.1175 -0.5755
 2432SOL     OW18949   4.485   9.708   5.598 -0.8834 -0.5745  0.0672
 2432SOL    HW118950   4.541   9.628   5.619  0.8042  0.5049 -0.1541
 2432SOL    HW218951   4.545   9.785   5.575 -2.5344  0.0777 -2.1669
 2433SOL     OW18952   3.320   6.577   7.755  0.1869 -0.3207  0.2584
 2433SOL    HW118953   3.301   6.663   7.801  3.8485 -0.0219  1.4188
 2433SOL    HW218954   3.268   6.571   7.670  1.0480  3.7680 -0.6395
 2434SOL     OW18955   2.551   6.639   3.440  0.0480 -0.1024 -0.5952
 2434SOL    HW118956   2.452   6.651   3.431 -0.0769 -0.2359  0.4393
 2434SOL    HW218957   2.582   6.681   3.525  0.6866 -1.0695 -0.3304
 2435SOL     OW18958   2.387   7.750   2.941  0.8130  0.4749 -0.0142
 2435SOL    HW118959   2.296   7.750   2.900  0.3081 -0.0137  1.0953
 2435SOL    HW218960   2.429   7.840   2.928  1.1772 -0.0214 -2.6993
 2436SOL     OW18961   9.435   7.401   5.636 -1.0924  0.6334  0.2338
 2436SOL    HW118962   9.462   7.369   5.545  1.8362  1.6438  0.6912
 2436SOL    HW218963   9.408   7.323   5.693  0.2674 -0.3690 -0.4742
 2437SOL     OW18964   4.056   7.565   1.691  0.2623 -0.1123  0.8243
 2437SOL    HW118965   4.145   7.585   1.732 -0.1178 -0.1445  1.6747
 2437SOL    HW218966   4.009   7.495   1.746 -0.6051  0.4632  0.8168
 2438SOL     OW18967   5.031   0.163   5.084  0.5723 -0.3530  0.5291
 2438SOL    HW118968   4.951   0.215   5.114  0.8111  0.6877 -0.6012
 2438SOL    HW218969   5.113   0.217   5.101  1.0039 -1.2024  1.1977
 2439SOL     OW18970   1.959   0.661   3.807 -0.1629  0.3427  0.5028
 2439SOL    HW118971   2.004   0.677   3.719 -0.7218  1.2513  0.3827
 2439SOL    HW218972   1.955   0.562   3.824  0.9940  0.2099  0.0617
 2440SOL     OW18973   2.494   6.047   2.102 -0.3582  0.0645  0.2916
 2440SOL    HW118974   2.576   6.055   2.044 -1.6308  1.1954 -1.4006
 2440SOL    HW218975   2.415   6.027   2.044 -1.3123 -0.9306  1.9027
 2441SOL     OW18976   2.224   9.009   3.245 -0.0521  0.1529  0.9911
 2441SOL    HW118977   2.306   8.998   3.190 -1.2893 -0.3655 -0.8161
 2441SOL    HW218978   2.219   8.936   3.313 -0.6271 -1.7902 -1.0550
 2442SOL     OW18979   6.386   1.989   5.338  1.1758 -0.1755  0.0360
 2442SOL    HW118980   6.306   2.007   5.395  0.7598 -0.5272 -0.4312
 2442SOL    HW218981   6.452   2.063   5.349  1.8101 -1.0066  2.1818
 2443SOL     OW18982   9.279   1.747   4.384 -0.2342 -0.3483 -0.5282
 2443SOL    HW118983   9.202   1.789   4.430  0.1468  0.4929 -0.6434
 2443SOL    HW218984   9.248   1.701   4.301 -0.6984 -0.5529 -0.2383
 2444SOL     OW18985   1.003   4.418   7.624  0.0084 -0.0277 -0.2730
 2444SOL    HW118986   1.066   4.341   7.634 -0.7087 -0.7252 -1.0774
 2444SOL    HW218987   0.948   4.427   7.707 -1.8369 -2.1380 -1.2258
 2445SOL     OW18988   0.880   8.816   3.299  0.1573  0.1843  0.5418
 2445SOL    HW118989   0.904   8.851   3.208  0.5006 -1.9898 -0.2463
 2445SOL    HW218990   0.793   8.854   3.328  1.0095  2.4626  0.1819
 2446SOL     OW18991   3.303   0.046   0.650 -0.3580  0.5694 -0.6458
 2446SOL    HW118992   3.214   0.085   0.671 -1.3160 -1.3392 -1.0795
 2446SOL    HW218993   3.367   0.120   0.628 -1.6083  2.0079  0.3870
 2447SOL     OW18994   8.360   1.116   3.678 -0.1119  0.0357 -0.0257
 2447SOL    HW118995   8.281   1.169   3.708  1.2970  2.5139 -0.6027
 2447SOL    HW218996   8.365   1.117   3.579  0.6753 -0.0570  0.0130
 2448SOL     OW18997   4.299   3.222   4.763  0.0885  0.3100 -0.1865
 2448SOL    HW118998   4.298   3.143   4.824  0.4250  0.2558 -0.2500
 2448SOL    HW218999   4.270   3.303   4.813 -1.0531 -0.0052 -0.3262
 2449SOL     OW19000   4.958   0.911   1.169  0.0577  0.2671 -0.0630
 2449SOL    HW119001   4.994   1.003   1.150 -2.1037  0.8693 -1.3763
 2449SOL    HW219002   5.031   0.844   1.156  1.0255  1.5691 -1.5552
 2450SOL     OW19003   0.842   8.661   5.749 -0.0956  0.0514 -0.0917
 2450SOL    HW119004   0.908   8.626   5.815 -0.0872 -1.0145 -0.6490
 2450SOL    HW219005   0.763   8.599   5.745 -0.9222  1.0715  0.2417
 2451SOL     OW19006   7.079   7.928   5.663  0.3854  0.0833 -0.3157
 2451SOL    HW119007   7.146   8.002   5.669 -1.7591  1.9298  1.6647
 2451SOL    HW219008   6.991   7.965   5.633 -0.3067 -1.9673 -0.9035
 2452SOL     OW19009   0.542   2.696   4.398 -0.8701 -0.4035 -0.0268
 2452SOL    HW119010   0.514   2.792   4.408 -1.2577 -0.3449 -1.5079
 2452SOL    HW219011   0.585   2.665   4.483  0.7691  1.5705 -0.0895
 2453SOL     OW19012   0.130   5.245   3.178 -0.3395 -0.0085  0.5087
 2453SOL    HW119013   0.088   5.165   3.136  0.8208 -0.2562 -0.1807
 2453SOL    HW219014   0.087   5.328   3.143 -0.9169 -0.2987  0.5358
 2454SOL     OW19015   1.085   0.230   2.078  0.0250  0.4602  0.0204
 2454SOL    HW119016   1.148   0.295   2.121 -1.1558  1.0108  0.9625
 2454SOL    HW219017   1.054   0.266   1.990  0.5339  0.4764 -0.1525
 2455SOL     OW19018   3.042   1.809   2.203 -0.4184  0.2089 -0.4882
 2455SOL    HW119019   3.130   1.855   2.192 -0.1987 -0.5609 -1.9780
 2455SOL    HW219020   2.993   1.850   2.280  0.4105  1.9288 -0.8593
 2456SOL     OW19021   1.831   7.846   5.722 -0.2897  0.4440 -0.0439
 2456SOL    HW119022   1.790   7.925   5.676  0.1685  1.1217  0.6965
 2456SOL    HW219023   1.855   7.871   5.816  0.2957 -0.4368  0.0459
 2457SOL     OW19024   6.758   1.128   3.764  0.1000 -1.0345  0.3568
 2457SOL    HW119025   6.735   1.075   3.846  0.9475 -1.5126  0.2910
 2457SOL    HW219026   6.738   1.225   3.781  0.2514 -1.1329  1.1267
 2458SOL     OW19027   2.174   7.296   1.355  0.5023  0.5364 -0.5874
 2458SOL    HW119028   2.154   7.213   1.406 -0.5488 -0.0275 -1.9134
 2458SOL    HW219029   2.205   7.367   1.418  1.2502 -0.8022  0.5707
 2459SOL     OW19030   1.366   8.868   7.747  0.0795  0.3955 -0.5192
 2459SOL    HW119031   1.326   8.785   7.709 -1.8563  1.0242  0.0927
 2459SOL    HW219032   1.311   8.947   7.722  0.0561  1.0969  1.6118
 2460SOL     OW19033   0.102   2.983   4.958  0.4242 -0.2233 -0.2889
 2460SOL    HW119034   0.173   3.022   5.017  0.8376 -1.5963  0.1516
 2460SOL    HW219035   0.140   2.965   4.867  0.2857  0.2404 -0.4372
 2461SOL     OW19036   0.733   4.038   7.875  0.6120  0.8162  0.1423
 2461SOL    HW119037   0.682   3.988   7.945 -1.0140  0.8728 -0.9491
 2461SOL    HW219038   0.668   4.087   7.816  1.9704  1.1542 -1.1061
 2462SOL     OW19039   0.413   4.134   2.844  0.1339  0.0091 -0.0496
 2462SOL    HW119040   0.470   4.207   2.882 -0.3389  0.8528 -0.9499
 2462SOL    HW219041   0.426   4.051   2.898  0.7817  0.7128  0.9014
 2463SOL     OW19042   0.641   3.821   8.028 -0.7264 -0.4749  0.0563
 2463SOL    HW119043   0.581   3.841   7.950  0.0040  2.6384  0.2248
 2463SOL    HW219044   0.591   3.834   8.113 -0.8730 -1.6862  0.1727
 2464SOL     OW19045   7.687   2.574   2.297 -0.0988  0.0945  0.3236
 2464SOL    HW119046   7.722   2.629   2.221  1.4857  0.5921  1.3678
 2464SOL    HW219047   7.687   2.477   2.272 -1.5154  0.4243 -1.0108
 2465SOL     OW19048   2.865   1.500   1.070 -0.1575 -0.7446 -0.3842
 2465SOL    HW119049   2.880   1.417   1.123  0.3634 -1.3371 -1.4483
 2465SOL    HW219050   2.936   1.567   1.093  0.1448 -1.0483 -0.4266
 2466SOL     OW19051   2.144   2.762   3.526  0.1109 -0.1945 -0.3232
 2466SOL    HW119052   2.155   2.861   3.521 -0.8292  0.0133  1.4691
 2466SOL    HW219053   2.049   2.738   3.506  0.3271 -0.7374 -0.7208
 2467SOL     OW19054   3.255   3.228   2.093 -0.1591  0.8590  0.0339
 2467SOL    HW119055   3.299   3.142   2.119  0.6919  1.5433  0.9396
 2467SOL    HW219056   3.164   3.210   2.057 -0.3916 -0.3397  1.1947
 2468SOL     OW19057   7.418   6.961   3.367 -0.1697  0.2428  0.1060
 2468SOL    HW119058   7.332   6.958   3.315  0.6329  0.7753 -1.2933
 2468SOL    HW219059   7.495   6.956   3.303  0.8369 -0.8703  1.4048
 2469SOL     OW19060   9.735   4.263   4.063 -0.3664  0.5078 -0.3525
 2469SOL    HW119061   9.680   4.226   4.138  0.4134  0.4028  0.1672
 2469SOL    HW219062   9.832   4.256   4.085 -0.1653  1.9373 -0.6744
 2470SOL     OW19063   6.992   4.959   7.440 -0.1281 -0.3310  0.4861
 2470SOL    HW119064   6.905   4.909   7.430 -0.3145  0.1213 -0.1873
 2470SOL    HW219065   6.999   5.028   7.369  0.6026 -0.0797  0.7958
 2471SOL     OW19066   3.892   5.745   8.176 -0.2565  0.2809 -0.1734
 2471SOL    HW119067   3.906   5.800   8.258  0.0790  0.2168 -0.1860
 2471SOL    HW219068   3.853   5.803   8.104  3.3923  1.4166 -1.3358
 2472SOL     OW19069   8.630   7.191   6.288 -0.1411  0.0010  0.1151
 2472SOL    HW119070   8.613   7.245   6.206  1.7285  0.3085 -0.0948
 2472SOL    HW219071   8.643   7.252   6.366  1.4136 -0.1435 -0.0140
 2473SOL     OW19072   3.847   4.698   3.458  0.7007  0.8141 -0.7678
 2473SOL    HW119073   3.859   4.669   3.363  1.2235  1.4278 -0.8955
 2473SOL    HW219074   3.914   4.770   3.479 -0.3172  1.6461 -0.3459
 2474SOL     OW19075   2.735   8.315   2.500  0.6513  0.0650 -0.2010
 2474SOL    HW119076   2.719   8.405   2.542  0.8248 -0.2572  0.5521
 2474SOL    HW219077   2.812   8.270   2.545  0.3843 -0.5850 -0.3875
 2475SOL     OW19078   1.452   6.798   4.838  0.2796 -0.1587 -0.2574
 2475SOL    HW119079   1.486   6.892   4.833 -0.2435 -0.0796 -3.5112
 2475SOL    HW219080   1.529   6.735   4.829  0.2027  0.0165 -2.5665
 2476SOL     OW19081   3.701   6.952   0.897  0.6297 -0.6305 -0.1972
 2476SOL    HW119082   3.624   6.931   0.837  1.7412 -0.8529 -1.5903
 2476SOL    HW219083   3.744   6.866   0.927 -1.3191 -0.6217  2.8605
 2477SOL     OW19084   1.174   1.989   5.463  0.0756  0.3759  0.5892
 2477SOL    HW119085   1.114   2.044   5.406 -1.0069 -0.6525  0.7321
 2477SOL    HW219086   1.126   1.963   5.547  0.6331 -0.6416  0.5996
 2478SOL     OW19087   0.167   3.586   6.808  0.6805  0.7054  0.2324
 2478SOL    HW119088   0.235   3.646   6.765 -0.5980  0.9006 -1.5781
 2478SOL    HW219089   0.075   3.620   6.788 -0.0530 -1.6517 -0.5510
 2479SOL     OW19090   5.810   4.389   0.706  0.2081 -0.2414  0.5537
 2479SOL    HW119091   5.772   4.315   0.761 -0.4147 -1.0842 -0.9668
 2479SOL    HW219092   5.890   4.356   0.656 -0.4245 -0.0701 -0.5884
 2480SOL     OW19093   0.075   6.602   0.018 -0.1194  0.4784  0.1432
 2480SOL    HW119094   0.138   6.673  -0.011 -1.2976  0.6779 -2.0435
 2480SOL    HW219095   0.109   6.512  -0.010 -0.6605  0.5665 -0.8302
 2481SOL     OW19096   8.637   8.813   1.595  0.1536  0.0028  0.1708
 2481SOL    HW119097   8.680   8.896   1.631  0.0627 -0.5772  1.6551
 2481SOL    HW219098   8.539   8.829   1.582 -0.1412 -0.3213  1.8887
 2482SOL     OW19099   9.125   8.173   0.048  0.3654  0.1437 -0.3516
 2482SOL    HW119100   9.132   8.077   0.074  0.5932  0.2355 -0.0549
 2482SOL    HW219101   9.061   8.183  -0.028 -3.0849  0.2651  2.4378
 2483SOL     OW19102   8.124   2.776   6.885  0.8972  0.3914  0.4777
 2483SOL    HW119103   8.034   2.792   6.846  0.5100 -0.8660  0.8118
 2483SOL    HW219104   8.183   2.733   6.817  0.3092 -1.5404  1.1490
 2484SOL     OW19105   8.880   1.099   0.481  0.1050  0.1467  0.6585
 2484SOL    HW119106   8.892   1.191   0.445  1.2237 -0.8172 -1.5443
 2484SOL    HW219107   8.794   1.061   0.447  0.2342 -0.0641  0.5666
 2485SOL     OW19108   8.060   8.951   3.052 -0.4018  0.1900  0.5648
 2485SOL    HW119109   7.976   8.917   3.095 -0.6031 -0.4823 -0.3439
 2485SOL    HW219110   8.061   8.924   2.956 -0.1284  1.9903  0.0497
 2486SOL     OW19111   9.409   5.236   6.605 -0.3057 -0.0280  0.6332
 2486SOL    HW119112   9.311   5.223   6.589 -0.4380  0.2563  1.2383
 2486SOL    HW219113   9.440   5.173   6.676  0.1470 -0.7744 -0.2094
 2487SOL     OW19114   1.909   3.794   6.855  0.5458 -0.5560  0.0965
 2487SOL    HW119115   1.870   3.703   6.866  0.3597 -0.5281 -0.3023
 2487SOL    HW219116   1.870   3.837   6.773  0.5869 -0.0969  0.3148
 2488SOL     OW19117   2.542   1.156   4.027  0.1845 -0.1777  0.3186
 2488SOL    HW119118   2.631   1.150   3.982 -0.1093 -0.4939 -0.2266
 2488SOL    HW219119   2.473   1.184   3.961 -0.2513 -0.6337  0.5740
 2489SOL     OW19120   0.639   5.457   5.373  0.6520  0.3054  0.1000
 2489SOL    HW119121   0.603   5.364   5.366 -1.0620  0.9251  0.4616
 2489SOL    HW219122   0.614   5.496   5.462  1.2419  1.1639 -0.0997
 2490SOL     OW19123   1.402   3.791   2.716 -0.0071  0.5013  0.1239
 2490SOL    HW119124   1.476   3.800   2.783 -0.4714  0.3908  0.6536
 2490SOL    HW219125   1.422   3.713   2.656  0.3256  0.4907  0.2453
 2491SOL     OW19126   9.585   4.545   2.561  0.5205 -0.1109  0.4184
 2491SOL    HW119127   9.576   4.452   2.597  0.3228 -0.2556 -0.0057
 2491SOL    HW219128   9.578   4.544   2.461  0.5752  0.3527  0.4055
 2492SOL     OW19129   3.621   1.461   6.978  0.1421 -0.1198  0.5605
 2492SOL    HW119130   3.719   1.452   6.998 -0.0304 -1.5121  0.8303
 2492SOL    HW219131   3.568   1.436   7.059 -0.4530 -0.3017  0.1154
 2493SOL     OW19132   9.099   0.376   0.580 -0.3364  0.4286 -0.2643
 2493SOL    HW119133   9.108   0.471   0.548 -0.1861  0.4989 -0.0191
 2493SOL    HW219134   9.039   0.325   0.518  1.0272  0.2007 -1.4299
 2494SOL     OW19135   8.741   5.048   6.332  0.6394 -0.1292 -0.5570
 2494SOL    HW119136   8.748   5.045   6.232  2.4986  0.9098 -0.4725
 2494SOL    HW219137   8.807   4.985   6.372  1.0104  0.6484  0.0530
 2495SOL     OW19138   2.440   0.786   2.884 -0.3754 -0.9166 -0.1053
 2495SOL    HW119139   2.392   0.752   2.965 -0.2457 -0.1168  0.3098
 2495SOL    HW219140   2.373   0.812   2.815 -0.5141 -0.5362  0.1741
 2496SOL     OW19141   8.320   8.571   1.950  0.2394 -0.3620  0.3537
 2496SOL    HW119142   8.354   8.664   1.958 -1.0924  0.2437 -0.8640
 2496SOL    HW219143   8.303   8.550   1.853  1.3791 -2.1776  0.5203
 2497SOL     OW19144   2.895   2.788   0.503  0.4495  0.0272  0.1577
 2497SOL    HW119145   2.925   2.857   0.438 -1.8521  2.6041  1.6881
 2497SOL    HW219146   2.818   2.738   0.465  0.8991 -0.3785 -0.2122
 2498SOL     OW19147   2.389   2.072   8.104 -0.6620 -0.2769 -0.0726
 2498SOL    HW119148   2.477   2.051   8.061 -0.7052 -0.9017  0.1309
 2498SOL    HW219149   2.392   2.048   8.201 -0.9535 -0.0065  0.0047
 2499SOL     OW19150   0.291   8.216   0.838  0.4394  0.3960  0.2331
 2499SOL    HW119151   0.318   8.311   0.825 -1.0007  0.8446  0.4274
 2499SOL    HW219152   0.335   8.180   0.921  1.0389  0.8542  0.1201
 2500SOL     OW19153   2.201   5.853   4.707 -0.1947 -0.0479  0.5265
 2500SOL    HW119154   2.265   5.805   4.767 -0.4826 -0.2320  0.6881
 2500SOL    HW219155   2.107   5.826   4.729 -0.2855 -0.3797 -0.2351
 2501SOL     OW19156   2.634   6.639   2.100 -0.4938  0.4037  0.3598
 2501SOL    HW119157   2.565   6.630   2.028 -1.3364  1.1151  1.0683
 2501SOL    HW219158   2.664   6.734   2.105 -0.7681  0.4431  1.2578
 2502SOL     OW19159   1.466   8.117   7.659 -0.2911  0.6852 -0.0211
 2502SOL    HW119160   1.489   8.129   7.563  0.2506  1.8615  0.2444
 2502SOL    HW219161   1.536   8.061   7.704 -0.5871  0.0688 -0.3237
 2503SOL     OW19162   4.776   6.624   1.637  0.1294  0.3976 -0.9248
 2503SOL    HW119163   4.807   6.611   1.731  0.2363 -0.0623 -1.0231
 2503SOL    HW219164   4.767   6.722   1.618  1.3838  0.5293 -0.8613
 2504SOL     OW19165   0.129   6.338   2.903  0.2720  0.6804  0.2077
 2504SOL    HW119166   0.149   6.431   2.934  1.5998  0.5947 -0.3721
 2504SOL    HW219167   0.079   6.341   2.816  0.4567  0.8478  0.1081
 2505SOL     OW19168   4.192   9.246   2.573 -0.0390  0.2234  0.0569
 2505SOL    HW119169   4.265   9.259   2.506 -1.5539 -0.4862 -1.7785
 2505SOL    HW219170   4.169   9.149   2.580  0.9313  0.1520  2.5297
 2506SOL     OW19171   7.177   9.213   1.948  0.4645 -0.3110 -0.3445
 2506SOL    HW119172   7.152   9.228   2.044 -0.5737  1.0927 -0.7984
 2506SOL    HW219173   7.271   9.244   1.932  0.6006 -0.4477  0.2060
 2507SOL     OW19174   3.793   0.479   7.309  0.3367  0.2253 -0.1315
 2507SOL    HW119175   3.833   0.387   7.319  0.0802  0.0625 -0.5955
 2507SOL    HW219176   3.708   0.472   7.257 -0.4082  0.5416  1.0348
 2508SOL     OW19177   4.267   5.090   6.382  0.7915  0.3694  0.4132
 2508SOL    HW119178   4.285   5.189   6.383 -0.0024  0.5072  1.3668
 2508SOL    HW219179   4.207   5.066   6.458  0.5475 -0.7727 -0.1263
 2509SOL     OW19180   3.005   9.455   2.040  0.9288  0.5468  0.7369
 2509SOL    HW119181   3.088   9.412   2.005 -0.5878 -0.5046 -1.6769
 2509SOL    HW219182   3.007   9.553   2.019  0.8999  0.2644 -0.6263
 2510SOL     OW19183   7.070   7.255   5.186  0.4248 -0.1909  0.2929
 2510SOL    HW119184   7.099   7.347   5.162  0.2279 -0.3616 -0.6113
 2510SOL    HW219185   7.143   7.190   5.165 -0.8070 -0.7153 -2.6652
 2511SOL     OW19186   9.508   9.971   4.543 -0.2498  0.6135  0.0581
 2511SOL    HW119187   9.501   9.900   4.613  2.6110  1.3145  1.1384
 2511SOL    HW219188   9.505  10.061   4.587  3.3841  1.0500 -0.4238
 2512SOL     OW19189   8.341   6.829   1.846 -0.4478 -0.1901 -0.2777
 2512SOL    HW119190   8.322   6.762   1.774 -0.1137  0.6324 -1.1397
 2512SOL    HW219191   8.322   6.921   1.812 -1.7098  0.1066  1.1656
 2513SOL     OW19192   6.981   1.476   7.658  0.2032 -0.3063 -0.3830
 2513SOL    HW119193   6.909   1.545   7.660  0.5294  0.0351  2.6473
 2513SOL    HW219194   6.944   1.388   7.686  0.7563 -0.3032  0.3934
 2514SOL     OW19195   2.903   9.239   6.775  0.0406  0.1446 -0.3955
 2514SOL    HW119196   2.819   9.257   6.724 -1.5720  0.0622  2.1702
 2514SOL    HW219197   2.919   9.141   6.779 -0.7686  0.0495  0.6961
 2515SOL     OW19198   7.967   3.379   1.160  0.4019  0.1298  0.4599
 2515SOL    HW119199   8.019   3.309   1.110 -0.2806  1.8050 -2.7115
 2515SOL    HW219200   7.921   3.337   1.238  2.6459 -2.3050  0.5367
 2516SOL     OW19201   6.135   2.242   0.369 -0.4343 -0.5436  0.8417
 2516SOL    HW119202   6.210   2.186   0.406 -0.3843 -1.9030 -1.2487
 2516SOL    HW219203   6.146   2.251   0.270 -2.4218  0.2427  0.6755
 2517SOL     OW19204   9.973   8.284   1.379 -0.1573  0.1082  0.1969
 2517SOL    HW119205   9.914   8.341   1.436  0.4000 -1.0442  1.9682
 2517SOL    HW219206  10.051   8.338   1.348 -1.7145  1.4250 -1.5311
 2518SOL     OW19207   6.904   0.579   8.062  0.0627 -0.1346 -0.5266
 2518SOL    HW119208   6.813   0.544   8.087  0.0634 -1.6402 -2.5395
 2518SOL    HW219209   6.973   0.538   8.121 -0.2543 -1.2749 -0.9479
 2519SOL     OW19210   3.978   6.721   4.340 -0.1024 -0.1848  0.2330
 2519SOL    HW119211   4.051   6.785   4.314 -0.3711 -0.5281 -1.3781
 2519SOL    HW219212   3.904   6.771   4.385 -1.1881  0.9751 -2.7449
 2520SOL     OW19213   9.763   8.401   6.892  0.1348 -0.1447 -0.2234
 2520SOL    HW119214   9.816   8.338   6.836  1.5282  0.1480  0.7280
 2520SOL    HW219215   9.758   8.490   6.847  0.6909 -0.0975 -0.1996
 2521SOL     OW19216   3.339   5.477   0.465 -0.3629 -0.1845  0.5567
 2521SOL    HW119217   3.325   5.380   0.483 -2.1947 -0.3591 -1.5436
 2521SOL    HW219218   3.345   5.491   0.366  0.0476  1.8280  0.8519
 2522SOL     OW19219   4.646   8.510   5.438 -0.3533  0.5913  0.2999
 2522SOL    HW119220   4.650   8.411   5.426  0.5538  0.4937  1.3592
 2522SOL    HW219221   4.714   8.539   5.504 -0.4898  1.9571 -0.1295
 2523SOL     OW19222   7.782   0.070   4.160 -0.4278 -0.7798  0.4585
 2523SOL    HW119223   7.880   0.083   4.171 -0.3889 -1.2561  0.7087
 2523SOL    HW219224   7.736   0.159   4.156  0.0626 -0.5550 -0.1237
 2524SOL     OW19225   0.657   9.515   7.602  0.1362  0.3703 -0.1619
 2524SOL    HW119226   0.594   9.486   7.530 -0.3202  1.5726 -0.2504
 2524SOL    HW219227   0.725   9.577   7.564  0.7162 -0.0621  0.1644
 2525SOL     OW19228   3.622   8.379   2.737 -0.0993 -0.9048 -0.3982
 2525SOL    HW119229   3.543   8.391   2.677 -1.7047 -1.4160  1.5447
 2525SOL    HW219230   3.647   8.282   2.739 -0.3229 -0.9544  0.0804
 2526SOL     OW19231   8.870   1.230   1.932  0.1715  0.5687 -0.3190
 2526SOL    HW119232   8.778   1.259   1.960  0.3187  1.5761 -0.8632
 2526SOL    HW219233   8.880   1.244   1.834  0.0798 -1.8045 -0.6914
 2527SOL     OW19234   3.952   4.327   8.208  0.0739 -0.2707  0.0565
 2527SOL    HW119235   3.890   4.251   8.186 -0.2108  0.2041 -0.7982
 2527SOL    HW219236   3.906   4.414   8.190  0.6844  0.0968  0.2591
 2528SOL     OW19237   7.601   0.625   0.693  0.2494 -0.0247 -0.9468
 2528SOL    HW119238   7.632   0.716   0.667 -0.4336  0.3405 -0.4851
 2528SOL    HW219239   7.639   0.558   0.629  2.6281  0.3154  0.0368
 2529SOL     OW19240   5.104   7.670   6.465 -0.5560 -0.3247 -0.9267
 2529SOL    HW119241   5.039   7.727   6.515  0.1217 -0.4282  0.0678
 2529SOL    HW219242   5.054   7.614   6.398 -1.5128 -0.5519 -0.0236
 2530SOL     OW19243   0.858   3.359   2.047  0.1710 -0.4820 -0.1410
 2530SOL    HW119244   0.800   3.437   2.072 -0.3833 -0.1804 -2.2352
 2530SOL    HW219245   0.873   3.301   2.127 -3.4770 -0.8597  0.3498
 2531SOL     OW19246   8.036   4.537   5.949  0.0280  0.0927 -0.1412
 2531SOL    HW119247   8.122   4.501   5.912  0.7575  0.6745  0.9557
 2531SOL    HW219248   8.041   4.637   5.954 -0.9022  0.1586 -0.5230
 2532SOL     OW19249   7.663   7.637   3.575  0.3247  0.1601 -0.2950
 2532SOL    HW119250   7.709   7.709   3.523 -1.3066 -0.1899 -2.2725
 2532SOL    HW219251   7.719   7.554   3.572  1.2726  0.7700  0.3405
 2533SOL     OW19252   6.510   1.564   5.138 -0.2807 -0.0743  0.1663
 2533SOL    HW119253   6.520   1.575   5.237 -0.4843  2.2622 -0.0335
 2533SOL    HW219254   6.475   1.473   5.118 -3.2743  0.4936  2.4702
 2534SOL     OW19255   9.957   7.555   5.695 -0.1452 -0.4305 -0.3588
 2534SOL    HW119256   9.971   7.599   5.783 -0.4297 -0.2571 -0.4013
 2534SOL    HW219257   9.873   7.588   5.653  0.9593  0.9225 -1.5708
 2535SOL     OW19258   7.194   9.461   6.524  0.0626 -0.0063  0.4124
 2535SOL    HW119259   7.210   9.432   6.619 -1.3568  1.4310  1.1063
 2535SOL    HW219260   7.118   9.409   6.486  1.4374 -1.4759 -0.3759
 2536SOL     OW19261   0.154   2.199   7.266  0.3012 -0.4505 -0.0046
 2536SOL    HW119262   0.228   2.266   7.275  1.3049 -1.2669 -1.6616
 2536SOL    HW219263   0.178   2.134   7.193 -1.7217 -1.1875 -0.0383
 2537SOL     OW19264   7.084   1.938   2.580  0.3193 -0.2374 -0.2650
 2537SOL    HW119265   7.120   1.846   2.597  0.4107 -0.1270  0.1400
 2537SOL    HW219266   7.121   1.973   2.494 -1.8742 -1.6922 -1.8800
 2538SOL     OW19267   0.827   2.412   1.854 -0.0792 -0.4275  0.4506
 2538SOL    HW119268   0.851   2.451   1.765 -2.0087 -1.5954 -0.6227
 2538SOL    HW219269   0.910   2.396   1.906  1.0317  1.0831 -0.7867
 2539SOL     OW19270   2.295   2.240   7.786 -0.2842  0.7626 -0.5401
 2539SOL    HW119271   2.283   2.286   7.874  0.9196 -0.2395  0.1618
 2539SOL    HW219272   2.291   2.307   7.713 -2.4913  1.4683  0.1683
 2540SOL     OW19273   4.838   1.818   3.913  0.0052  0.3694  0.0726
 2540SOL    HW119274   4.906   1.858   3.974  1.5106 -3.1632  0.8084
 2540SOL    HW219275   4.763   1.779   3.966 -1.0319  1.3637 -0.6090
 2541SOL     OW19276   2.783   4.849   0.281 -0.2950 -0.2245 -0.5189
 2541SOL    HW119277   2.717   4.813   0.215  0.0129 -0.6619 -0.5819
 2541SOL    HW219278   2.786   4.949   0.273 -0.9158 -0.2038 -0.5498
 2542SOL     OW19279   4.332   0.334   0.584 -0.2295  0.2987  0.2528
 2542SOL    HW119280   4.326   0.370   0.492  0.6928 -0.5085 -0.1313
 2542SOL    HW219281   4.329   0.234   0.581 -0.1751  0.2666  1.0860
 2543SOL     OW19282   6.710   0.725   0.906 -0.3006 -0.6249  0.1688
 2543SOL    HW119283   6.672   0.649   0.958 -1.4246  0.6449  1.2326
 2543SOL    HW219284   6.769   0.690   0.833 -0.9379 -2.5025  0.5485
 2544SOL     OW19285   4.731   6.882   1.564  0.2862  0.1768  0.0871
 2544SOL    HW119286   4.687   6.972   1.556 -0.1315  0.1627  2.0520
 2544SOL    HW219287   4.830   6.894   1.564  0.2855  0.4237 -1.8340
 2545SOL     OW19288   5.064   3.684   6.379 -0.1408  0.0777  0.1455
 2545SOL    HW119289   5.002   3.687   6.457 -0.5839  2.3013 -0.2527
 2545SOL    HW219290   5.014   3.703   6.295  0.5434 -1.1612 -0.5723
 2546SOL     OW19291   3.319   5.822   1.175 -0.1412 -0.1536  0.2694
 2546SOL    HW119292   3.322   5.830   1.076  1.3068 -2.0577  0.1367
 2546SOL    HW219293   3.391   5.879   1.216  1.0269 -1.4420  0.0584
 2547SOL     OW19294   2.615   1.680   2.340 -0.1590  0.1331 -0.2422
 2547SOL    HW119295   2.636   1.714   2.432 -1.1138  0.4057 -0.1125
 2547SOL    HW219296   2.530   1.722   2.309  0.8127  1.0243 -1.7673
 2548SOL     OW19297   8.428   2.943   5.547  0.0753  0.0008  0.7269
 2548SOL    HW119298   8.415   2.886   5.628 -1.5573  1.0835  1.2604
 2548SOL    HW219299   8.418   3.040   5.573  0.6354  0.4111 -0.5630
 2549SOL     OW19300   0.522   5.515   6.873 -0.0233  0.6211  0.0802
 2549SOL    HW119301   0.442   5.490   6.927  0.8499  0.4039  1.3047
 2549SOL    HW219302   0.549   5.609   6.896  1.7854 -0.2877  1.8489
 2550SOL     OW19303   3.011   4.277   3.573  0.1649 -0.2179 -0.2068
 2550SOL    HW119304   2.957   4.203   3.533 -0.2304  0.2536 -0.5475
 2550SOL    HW219305   3.108   4.263   3.554 -0.0305  0.0567 -1.4101
 2551SOL     OW19306   0.560   2.759   2.021 -0.0527  0.1340 -0.2061
 2551SOL    HW119307   0.563   2.659   2.023  0.8600  0.1515 -0.1971
 2551SOL    HW219308   0.599   2.791   1.935 -0.8323  0.4681 -0.4333
 2552SOL     OW19309   1.013   3.374   3.115 -0.1261 -0.0731  0.7034
 2552SOL    HW119310   1.107   3.347   3.093 -0.4643 -0.3292 -0.4535
 2552SOL    HW219311   0.949   3.314   3.068 -0.8829 -0.3959  2.1214
 2553SOL     OW19312   8.664   2.965   3.279 -0.1273 -0.0477  0.1514
 2553SOL    HW119313   8.607   3.034   3.324 -1.1906 -0.2589 -0.8663
 2553SOL    HW219314   8.703   2.904   3.348 -0.7344  0.4009  0.8932
 2554SOL     OW19315   6.287   9.951   2.711  0.0854 -0.2708 -0.1360
 2554SOL    HW119316   6.196   9.916   2.687  0.2210 -0.7216  0.0116
 2554SOL    HW219317   6.344   9.955   2.629  0.3953 -1.3630  0.0142
 2555SOL     OW19318   9.550   4.133   6.092  0.3168 -0.4298 -0.3572
 2555SOL    HW119319   9.619   4.163   6.026  0.3176 -1.3746 -0.7899
 2555SOL    HW219320   9.463   4.116   6.045  0.8928 -3.2020 -0.5000
 2556SOL     OW19321   7.142   7.078   5.483 -0.2887 -0.4373 -0.0195
 2556SOL    HW119322   7.098   7.166   5.466 -2.0247 -1.4586 -0.9386
 2556SOL    HW219323   7.077   7.016   5.527  0.4524 -1.7541 -0.7635
 2557SOL     OW19324   2.822   8.384   0.690  0.2311 -0.0734 -0.4177
 2557SOL    HW119325   2.882   8.336   0.754 -1.5869 -1.5999  0.1694
 2557SOL    HW219326   2.756   8.439   0.740  2.2904  3.1079 -1.0863
 2558SOL     OW19327   6.493   9.981   6.292 -0.0977  0.3738  0.6694
 2558SOL    HW119328   6.494  10.081   6.293 -0.4288  0.3963 -0.2572
 2558SOL    HW219329   6.527   9.948   6.204 -1.5057 -0.3005  0.3658
 2559SOL     OW19330   1.888   5.268   4.083 -1.0155 -0.1272 -0.0132
 2559SOL    HW119331   1.953   5.317   4.025  0.4486 -0.8794  0.9700
 2559SOL    HW219332   1.855   5.328   4.155  0.6355 -0.5167  1.0791
 2560SOL     OW19333   7.919   5.955   4.351 -0.0192 -0.0223 -0.3260
 2560SOL    HW119334   7.949   5.864   4.323  1.9352  1.1035 -2.1322
 2560SOL    HW219335   7.974   5.986   4.429  1.3523  0.7244 -1.5516
 2561SOL     OW19336   2.852   2.403   5.718  0.1200  0.7706 -0.3717
 2561SOL    HW119337   2.911   2.325   5.695  0.0386  0.7089 -0.3726
 2561SOL    HW219338   2.758   2.381   5.694  0.2601  1.3092 -1.4464
 2562SOL     OW19339   5.236   1.916   8.023 -0.3536  0.3185 -0.4724
 2562SOL    HW119340   5.237   1.992   7.958  0.0839  0.5047 -0.2484
 2562SOL    HW219341   5.322   1.914   8.073 -0.6400  0.1004  0.0142
 2563SOL     OW19342   6.842   7.615   3.291  0.0155  0.4681  0.1910
 2563SOL    HW119343   6.852   7.525   3.334 -0.6855 -0.0697 -0.7413
 2563SOL    HW219344   6.875   7.610   3.197 -1.5281  0.7565 -0.3737
 2564SOL     OW19345   9.568   6.417   3.285  0.5044  0.0481 -0.5628
 2564SOL    HW119346   9.480   6.376   3.311  0.9518  0.5463  1.8207
 2564SOL    HW219347   9.632   6.345   3.259  0.5164 -0.5961  1.2226
 2565SOL     OW19348   7.707   1.705   7.049 -0.0013 -0.4418 -0.7947
 2565SOL    HW119349   7.777   1.762   7.090 -0.5219 -0.8834  0.7311
 2565SOL    HW219350   7.668   1.752   6.970  0.9786  0.4267 -0.7710
 2566SOL     OW19351   9.563   6.300   4.908 -0.1939  0.2192  0.4658
 2566SOL    HW119352   9.523   6.226   4.963  0.9460  1.1978  2.6599
 2566SOL    HW219353   9.641   6.264   4.857 -1.3889 -0.7487 -0.7367
 2567SOL     OW19354   7.376   0.187   3.527  0.0607  0.1153 -0.3384
 2567SOL    HW119355   7.454   0.193   3.465 -0.5537  0.7833 -1.0500
 2567SOL    HW219356   7.355   0.277   3.563 -0.2620 -0.0971  0.0011
 2568SOL     OW19357   4.118   3.859   5.930  0.3745  0.4673  0.6309
 2568SOL    HW119358   4.154   3.866   5.836 -0.6878 -1.2846  0.0713
 2568SOL    HW219359   4.166   3.924   5.989  2.1896  0.4505 -0.7878
 2569SOL     OW19360   9.942   0.591   0.487  0.6197 -0.4854 -0.4840
 2569SOL    HW119361   9.887   0.538   0.422 -0.1513  0.1638 -0.3623
 2569SOL    HW219362  10.037   0.593   0.455  0.6526 -1.9053 -0.5084
 2570SOL     OW19363   7.856   0.225   3.655 -0.8776 -0.2853  0.0178
 2570SOL    HW119364   7.916   0.265   3.586 -0.1156  0.2691  0.9820
 2570SOL    HW219365   7.907   0.157   3.708 -0.5736  1.4313  1.9863
 2571SOL     OW19366   8.838   3.808   4.088  0.3148  0.3983 -0.3245
 2571SOL    HW119367   8.844   3.895   4.038  1.7849  2.4571  3.2020
 2571SOL    HW219368   8.748   3.801   4.132  0.1233  0.0306 -0.7745
 2572SOL     OW19369   1.141   3.727   2.768 -0.3121  0.1504 -0.3080
 2572SOL    HW119370   1.230   3.765   2.740 -0.8164  1.5543 -0.0445
 2572SOL    HW219371   1.155   3.663   2.843  0.3270  1.5109  0.7527
 2573SOL     OW19372   3.143   4.319   1.860  0.1475 -0.3639 -0.0101
 2573SOL    HW119373   3.218   4.308   1.795  0.1021  2.0952 -0.5544
 2573SOL    HW219374   3.180   4.336   1.951  0.2362 -0.9161  0.0568
 2574SOL     OW19375   9.831   2.129   1.325 -1.1680  0.2031 -0.1703
 2574SOL    HW119376   9.740   2.104   1.293 -1.4264  0.8122  0.0882
 2574SOL    HW219377   9.889   2.148   1.246 -1.6730  1.2274 -0.3024
 2575SOL     OW19378   1.629   4.659   2.769 -0.1937 -0.6362 -0.3503
 2575SOL    HW119379   1.542   4.658   2.818 -0.0375 -1.3231 -0.0852
 2575SOL    HW219380   1.625   4.595   2.692  0.1326 -0.7896 -0.2384
 2576SOL     OW19381   4.375   3.076   6.334  0.5125 -0.2727 -0.0411
 2576SOL    HW119382   4.381   3.138   6.412 -0.7887 -1.4515  1.0215
 2576SOL    HW219383   4.344   3.126   6.253  0.6215  0.6920  0.5146
 2577SOL     OW19384   2.627   3.806   5.423 -0.0198  0.6699  0.1758
 2577SOL    HW119385   2.534   3.840   5.414 -0.7386 -0.9364  1.2276
 2577SOL    HW219386   2.630   3.736   5.494  1.7559 -0.1581 -0.6739
 2578SOL     OW19387   1.282   0.249   5.151  0.7717  0.0732  0.3060
 2578SOL    HW119388   1.241   0.314   5.216 -0.5795 -1.2933  0.8576
 2578SOL    HW219389   1.210   0.211   5.093  1.9860  1.4086 -2.1578
 2579SOL     OW19390   3.869   1.476   5.923 -0.0311  0.5394 -0.2616
 2579SOL    HW119391   3.789   1.473   5.984 -1.0509 -3.5632 -1.6063
 2579SOL    HW219392   3.841   1.450   5.831  2.6553  0.2314 -1.0310
 2580SOL     OW19393   0.906   5.767   0.380  0.3124 -0.6219 -0.4472
 2580SOL    HW119394   0.861   5.791   0.294 -1.7046 -0.3418  0.6552
 2580SOL    HW219395   0.893   5.669   0.398  1.1242 -0.7754 -0.6738
 2581SOL     OW19396   9.156   4.017   8.162  0.0472 -0.4121 -0.2353
 2581SOL    HW119397   9.097   3.989   8.237  0.0250  0.9886  0.2832
 2581SOL    HW219398   9.160   3.944   8.094 -2.5668 -0.3684 -0.4713
 2582SOL     OW19399   3.640   1.307   2.645  0.2582 -0.3753  0.3765
 2582SOL    HW119400   3.584   1.254   2.581 -0.0610 -3.2994  2.9412
 2582SOL    HW219401   3.581   1.360   2.705  0.5286  1.5456 -0.9895
 2583SOL     OW19402   5.167   2.759   5.963  0.1699  0.2630 -0.3184
 2583SOL    HW119403   5.123   2.695   5.900  0.1531  0.2215 -0.2639
 2583SOL    HW219404   5.197   2.711   6.045 -1.1301  0.5773  0.3674
 2584SOL     OW19405   1.854   0.098   1.546 -0.1105 -0.6551  0.7353
 2584SOL    HW119406   1.943   0.119   1.507 -0.0827  0.6690  1.4969
 2584SOL    HW219407   1.784   0.153   1.501 -0.4138 -0.9516  0.8388
 2585SOL     OW19408   1.456   5.220   3.275 -0.1910 -0.5119 -0.4196
 2585SOL    HW119409   1.501   5.236   3.187 -0.3132 -0.9410 -0.5588
 2585SOL    HW219410   1.511   5.260   3.348  1.0953 -2.1875 -0.4420
 2586SOL     OW19411   6.124   3.747   0.446  0.3305 -0.5705  1.1105
 2586SOL    HW119412   6.176   3.727   0.363 -2.8102 -0.3825 -0.9973
 2586SOL    HW219413   6.177   3.808   0.504  1.5351  1.5612 -2.0518
 2587SOL     OW19414   3.981   5.103   7.164 -0.7018  0.3918  0.1949
 2587SOL    HW119415   4.032   5.017   7.154 -0.4030  0.4316  1.3037
 2587SOL    HW219416   3.952   5.113   7.260 -1.9695  0.8332 -0.2297
 2588SOL     OW19417   2.263   5.468   4.872  0.0540  0.2334  0.3351
 2588SOL    HW119418   2.312   5.544   4.829 -1.1196  1.1409  0.6023
 2588SOL    HW219419   2.320   5.429   4.946 -0.1225  2.0745  1.4634
 2589SOL     OW19420   8.788   5.195   0.390 -0.3160  0.2560  0.0935
 2589SOL    HW119421   8.720   5.230   0.325 -0.3342  2.2554  1.1615
 2589SOL    HW219422   8.751   5.114   0.436 -1.2022  0.1812 -0.7322
 2590SOL     OW19423   3.883   9.783   1.002  0.2459  0.2303 -0.3262
 2590SOL    HW119424   3.856   9.809   1.095 -0.3068  0.1665 -0.4689
 2590SOL    HW219425   3.926   9.862   0.957  0.1090  0.3927 -0.1728
 2591SOL     OW19426   0.978   2.851   1.539  0.1275 -0.5894  0.3726
 2591SOL    HW119427   1.017   2.761   1.521  1.2171 -0.1700  0.5791
 2591SOL    HW219428   0.939   2.853   1.631  3.0922  0.1243  1.6870
 2592SOL     OW19429   5.144   1.057   6.108  0.1596 -0.4409 -0.7305
 2592SOL    HW119430   5.232   1.027   6.144 -0.3830 -0.5255  0.5741
 2592SOL    HW219431   5.114   1.139   6.157 -1.2366 -1.3520 -0.0004
 2593SOL     OW19432   3.479   1.540   4.483  0.3288  0.1575 -0.1052
 2593SOL    HW119433   3.402   1.604   4.475 -1.3978 -1.5264  2.4133
 2593SOL    HW219434   3.489   1.491   4.396 -3.1378 -1.4074  0.2714
 2594SOL     OW19435   9.215   7.055   0.784 -0.0250  0.6011  0.1880
 2594SOL    HW119436   9.134   7.001   0.763  0.9263 -0.7152 -0.1742
 2594SOL    HW219437   9.226   7.060   0.884 -1.4443  2.1578  0.2764
 2595SOL     OW19438   1.655   7.741   2.898 -0.1121 -0.0041  0.2744
 2595SOL    HW119439   1.641   7.806   2.823 -1.4313 -0.2580  0.2851
 2595SOL    HW219440   1.687   7.654   2.861 -3.9951 -1.2491 -0.4406
 2596SOL     OW19441   1.346   8.643   1.365 -0.0877  0.3422  0.4551
 2596SOL    HW119442   1.350   8.620   1.267  0.3370 -2.2896  1.0380
 2596SOL    HW219443   1.439   8.661   1.398  0.0296 -0.8844  0.8200
 2597SOL     OW19444   8.534   9.316   0.931  0.3984  0.9229  0.4107
 2597SOL    HW119445   8.626   9.309   0.892 -0.0798  0.8691 -0.7251
 2597SOL    HW219446   8.483   9.232   0.910 -0.5058  1.7067 -0.5188
 2598SOL     OW19447   4.097   3.433   5.845  0.4035  0.3493 -0.1641
 2598SOL    HW119448   4.013   3.382   5.826  2.0727 -2.8904  0.8373
 2598SOL    HW219449   4.083   3.493   5.924 -0.7711 -0.6177  0.3760
 2599SOL     OW19450   1.838   5.902   5.348 -0.7695  0.7960  0.0713
 2599SOL    HW119451   1.913   5.938   5.403  0.6717  0.3007 -1.5161
 2599SOL    HW219452   1.873   5.874   5.259 -2.3096 -2.2552  0.3832
 2600SOL     OW19453   3.535   8.987   2.851 -0.2994  0.3107 -0.3021
 2600SOL    HW119454   3.462   9.042   2.808 -1.0679  0.4464  1.1399
 2600SOL    HW219455   3.502   8.894   2.865  0.2049  0.0791 -0.6893
 2601SOL     OW19456   0.691   1.247   2.892  0.4487 -0.4064 -0.0073
 2601SOL    HW119457   0.681   1.299   2.807  0.4397  0.0258  0.2560
 2601SOL    HW219458   0.653   1.155   2.879 -1.5706  0.3836  0.2063
 2602SOL     OW19459   2.006   9.207   5.990  0.3064 -0.2254 -0.1676
 2602SOL    HW119460   1.986   9.177   6.083  0.8179  0.5075  0.1802
 2602SOL    HW219461   1.941   9.279   5.963 -2.3054 -3.0376 -1.7741
 2603SOL     OW19462   2.266   1.716   5.026 -0.0151  0.4031 -0.3345
 2603SOL    HW119463   2.299   1.747   4.937 -2.2789  1.8539 -0.7057
 2603SOL    HW219464   2.243   1.795   5.083 -2.2494 -0.5020  0.0947
 2604SOL     OW19465   2.404   8.685   5.975  0.5391 -0.0285  0.4346
 2604SOL    HW119466   2.316   8.721   5.944 -0.0165 -1.0899  0.7609
 2604SOL    HW219467   2.430   8.606   5.919  2.0773  1.2403 -0.7176
 2605SOL     OW19468   5.115   9.238   1.987  0.4583 -0.0018  0.2485
 2605SOL    HW119469   5.182   9.298   2.029 -0.0799  0.7518  0.0347
 2605SOL    HW219470   5.031   9.289   1.967 -1.0514 -1.4703  2.6208
 2606SOL     OW19471   5.366   9.370   2.817 -0.1808 -0.1301  0.3191
 2606SOL    HW119472   5.359   9.272   2.837  1.0353 -0.2596  0.1657
 2606SOL    HW219473   5.452   9.388   2.770 -0.7237  0.9150 -0.3016
 2607SOL     OW19474   9.856   8.471   6.267  0.2822 -0.0830 -0.1858
 2607SOL    HW119475   9.772   8.518   6.238  0.0726 -1.0209 -1.1271
 2607SOL    HW219476   9.934   8.507   6.215  0.5457  1.0794  0.9800
 2608SOL     OW19477   3.383   1.997   0.331 -0.0791 -0.3249  0.4473
 2608SOL    HW119478   3.441   1.985   0.250  0.0165 -0.4610  0.5367
 2608SOL    HW219479   3.288   2.008   0.302  0.2804  2.3801  0.1353
 2609SOL     OW19480   1.035   5.388   2.596  0.2503  0.0888 -0.1823
 2609SOL    HW119481   1.027   5.401   2.695  1.7244  1.6032 -0.2311
 2609SOL    HW219482   0.975   5.452   2.548 -0.4861 -0.6642 -0.2749
 2610SOL     OW19483   1.031   0.086   6.253 -0.2327  0.3468  0.8359
 2610SOL    HW119484   0.991   0.072   6.343 -1.8326  0.8248  0.2220
 2610SOL    HW219485   1.047   0.184   6.239  0.0631  0.2683  0.6337
 2611SOL     OW19486   4.637   0.712   7.503  0.1395  0.6624  0.3767
 2611SOL    HW119487   4.625   0.809   7.526  0.6401  1.0351 -0.8517
 2611SOL    HW219488   4.713   0.675   7.556  0.9425  1.3580 -0.2733
 2612SOL     OW19489   3.406   8.542   1.943  0.5736  0.1585 -0.6300
 2612SOL    HW119490   3.407   8.462   1.883  0.2571 -0.1127 -0.2757
 2612SOL    HW219491   3.482   8.535   2.008  0.3775  0.0016 -0.4154
 2613SOL     OW19492   5.320   5.270   1.081  0.3345 -0.2293  0.1522
 2613SOL    HW119493   5.303   5.238   1.174  0.4221 -1.5293 -0.2622
 2613SOL    HW219494   5.417   5.260   1.059  0.2010 -0.5388 -0.3016
 2614SOL     OW19495   8.567   7.691   1.206  0.6546 -0.9206 -0.2136
 2614SOL    HW119496   8.589   7.626   1.279 -0.6274 -0.4760  0.5937
 2614SOL    HW219497   8.587   7.784   1.237  1.3124 -0.8155 -0.9151
 2615SOL     OW19498   3.644   6.408   2.509  0.1985 -0.7088  0.2909
 2615SOL    HW119499   3.663   6.344   2.435  1.2552  0.6019 -0.5741
 2615SOL    HW219500   3.728   6.453   2.537 -0.4229 -0.1905  1.3652
 2616SOL     OW19501   1.472   2.005   3.991  0.3333  0.0808 -0.9647
 2616SOL    HW119502   1.378   2.004   3.958  0.0735 -0.1339 -0.2124
 2616SOL    HW219503   1.483   2.080   4.057  0.8788  0.5733 -1.6054
 2617SOL     OW19504   0.698   6.096   0.121 -0.2159  0.1167 -0.2182
 2617SOL    HW119505   0.792   6.062   0.126 -0.3319  0.1497  2.6416
 2617SOL    HW219506   0.635   6.026   0.154 -1.2242  0.1342 -2.0137
 2618SOL     OW19507   2.974   4.167   0.923 -0.1829  0.1792  0.6725
 2618SOL    HW119508   2.886   4.120   0.917  0.2898 -0.4903 -1.4738
 2618SOL    HW219509   2.965   4.259   0.883  0.1493  0.0236  0.2426
 2619SOL     OW19510   8.103   0.784   6.262  0.1121  0.1609  0.6188
 2619SOL    HW119511   8.014   0.739   6.253 -0.8349  2.0982 -0.0083
 2619SOL    HW219512   8.135   0.812   6.172  0.1398  1.7309  1.1038
 2620SOL     OW19513   8.037   8.684   4.827 -0.6577 -0.6737 -0.2490
 2620SOL    HW119514   8.087   8.732   4.755 -1.0280 -0.2996 -0.2528
 2620SOL    HW219515   8.078   8.594   4.841  2.1672  0.8771  2.0400
 2621SOL     OW19516   0.312   3.646   0.887 -0.0105 -0.1822 -0.0387
 2621SOL    HW119517   0.267   3.727   0.924  1.7944  0.0344  1.7807
 2621SOL    HW219518   0.364   3.600   0.959  0.7809 -1.7246 -1.5392
 2622SOL     OW19519   6.402   0.414   1.696  0.1363  0.5194  0.3410
 2622SOL    HW119520   6.362   0.353   1.765 -0.9669 -0.0479 -0.7811
 2622SOL    HW219521   6.498   0.390   1.683 -0.2999 -1.0073 -0.1145
 2623SOL     OW19522   3.628   7.176   1.129  0.3319 -0.1529  0.0804
 2623SOL    HW119523   3.603   7.079   1.127 -0.0836 -0.1092  2.4657
 2623SOL    HW219524   3.557   7.229   1.083  0.4858 -0.9267 -1.1087
 2624SOL     OW19525   1.493   6.577   4.046  0.1936  0.3145 -0.0151
 2624SOL    HW119526   1.569   6.621   4.095  0.8292 -0.6671 -0.1107
 2624SOL    HW219527   1.499   6.599   3.949 -0.1624  0.9682  0.1070
 2625SOL     OW19528   7.230   8.386   3.680 -0.3177  0.0348  0.7195
 2625SOL    HW119529   7.155   8.345   3.629 -2.8800  0.7909  3.7318
 2625SOL    HW219530   7.292   8.314   3.712 -1.1279 -0.8529  0.2931
 2626SOL     OW19531   2.694   8.826   7.023 -0.0664 -0.2951  0.0743
 2626SOL    HW119532   2.607   8.859   7.059 -0.1799 -0.2617 -0.2212
 2626SOL    HW219533   2.768   8.847   7.088 -0.4029 -1.1189  0.7182
 2627SOL     OW19534   6.933   7.026   3.575 -0.0766  0.0945 -0.0260
 2627SOL    HW119535   7.028   7.017   3.603 -0.0917 -0.1052 -0.0435
 2627SOL    HW219536   6.927   7.028   3.475 -0.1256 -0.2406 -0.0294
 2628SOL     OW19537   7.615   1.361   0.291  0.3499  0.1094  0.0998
 2628SOL    HW119538   7.548   1.288   0.297  0.1227  0.1708 -1.4736
 2628SOL    HW219539   7.607   1.421   0.371 -1.9210  0.5021 -0.4038
 2629SOL     OW19540   2.498   7.884   3.942 -0.2303  0.5879 -0.0687
 2629SOL    HW119541   2.408   7.921   3.920 -0.0402  0.8857 -0.3486
 2629SOL    HW219542   2.554   7.957   3.983 -0.5692  0.0590  1.3730
 2630SOL     OW19543   2.814   8.025   2.446  0.2964  0.1023  0.6806
 2630SOL    HW119544   2.840   7.980   2.361  0.2470  0.9263  0.2182
 2630SOL    HW219545   2.781   8.118   2.426  0.7163  0.4720  1.6407
 2631SOL     OW19546   3.502   1.295   8.124 -0.0002  0.1172  0.4855
 2631SOL    HW119547   3.417   1.284   8.072  0.8421  0.8959 -1.0767
 2631SOL    HW219548   3.547   1.207   8.134 -1.0565 -0.3279  1.4548
 2632SOL     OW19549   9.599   6.184   1.473  0.6133 -0.3325  0.4193
 2632SOL    HW119550   9.687   6.189   1.426  0.6745 -0.9548  0.4586
 2632SOL    HW219551   9.596   6.103   1.531 -0.0723 -0.4500  0.2353
 2633SOL     OW19552   3.204   7.097   2.238  0.4231 -0.0797 -0.3941
 2633SOL    HW119553   3.272   7.148   2.186  1.3784  0.1771  1.0591
 2633SOL    HW219554   3.243   7.010   2.268 -0.7817 -1.1237 -1.7853
 2634SOL     OW19555   1.254   9.448   0.588  0.0570  0.0346  0.5996
 2634SOL    HW119556   1.197   9.529   0.606 -1.1770 -0.7556  0.2869
 2634SOL    HW219557   1.249   9.386   0.666 -2.2112 -1.5865 -0.7531
 2635SOL     OW19558   2.303   4.278   5.627 -0.2668 -0.0949 -0.7200
 2635SOL    HW119559   2.206   4.298   5.613 -0.1590 -0.3137 -1.8543
 2635SOL    HW219560   2.338   4.228   5.548  0.7388 -0.1443 -0.2493
 2636SOL     OW19561   0.564   8.441   4.458  0.0807 -0.1345 -0.0719
 2636SOL    HW119562   0.592   8.537   4.459  1.3084 -0.4806  0.9562
 2636SOL    HW219563   0.586   8.400   4.547 -0.2936 -1.4075 -0.5636
 2637SOL     OW19564   8.658   4.595   2.661 -0.0277 -0.0812  0.1241
 2637SOL    HW119565   8.754   4.582   2.636 -0.5776 -2.0646 -1.0793
 2637SOL    HW219566   8.652   4.630   2.755  1.8836  1.0557 -0.1519
 2638SOL     OW19567   4.912   2.354   8.048  0.5194 -0.6461  0.3468
 2638SOL    HW119568   4.965   2.423   8.098 -0.1780 -0.2710  0.5900
 2638SOL    HW219569   4.827   2.396   8.015  0.9221 -0.9216 -1.0663
 2639SOL     OW19570   3.783   8.880   2.964  0.4798 -0.4428  0.0553
 2639SOL    HW119571   3.790   8.801   2.904 -0.7130 -1.1860  0.8517
 2639SOL    HW219572   3.711   8.941   2.931  0.5626 -0.3096  0.1193
 2640SOL     OW19573   0.368   3.462   7.522 -0.2415 -0.5173  0.0090
 2640SOL    HW119574   0.452   3.512   7.543  0.7164 -1.9269 -0.3929
 2640SOL    HW219575   0.330   3.494   7.436 -0.9978  1.2301  0.9693
 2641SOL     OW19576   5.365   4.530   1.021  0.3675 -0.1590 -0.2039
 2641SOL    HW119577   5.314   4.449   0.992 -1.1637  1.3545 -1.8437
 2641SOL    HW219578   5.399   4.579   0.941  1.3810  0.7821  0.7770
 2642SOL     OW19579   1.374   6.893   6.227  0.1802 -0.5627 -0.5998
 2642SOL    HW119580   1.439   6.966   6.248 -0.5058  0.1917 -1.0437
 2642SOL    HW219581   1.421   6.805   6.227  0.8718 -0.2030  0.6655
 2643SOL     OW19582   1.652   6.384   7.457  0.5818  0.0610 -0.4094
 2643SOL    HW119583   1.656   6.443   7.537  1.4590 -0.3596 -0.1434
 2643SOL    HW219584   1.744   6.357   7.430  0.2279 -0.7240 -0.8723
 2644SOL     OW19585   0.135   0.995   0.883 -0.2270 -0.0132  0.1646
 2644SOL    HW119586   0.155   1.088   0.853 -2.4424  0.2965 -0.4602
 2644SOL    HW219587   0.131   0.934   0.803  0.7485 -0.5511  0.5244
 2645SOL     OW19588   7.555   4.038   3.555 -0.1769 -0.1996  0.2545
 2645SOL    HW119589   7.643   3.991   3.546 -0.7479 -1.5177  1.4087
 2645SOL    HW219590   7.544   4.102   3.479  2.1032  0.5255  0.4843
 2646SOL     OW19591   4.669   1.417   1.390  0.0768 -0.2350  0.1659
 2646SOL    HW119592   4.613   1.484   1.437 -0.1951 -2.0972  2.5693
 2646SOL    HW219593   4.759   1.456   1.371 -0.6010  1.3183  0.1409
 2647SOL     OW19594   7.841   0.164   2.992  0.3769 -0.1959  0.2826
 2647SOL    HW119595   7.939   0.146   2.999  0.8907  3.1579  2.8450
 2647SOL    HW219596   7.792   0.113   3.062  0.6670  0.5032  1.0012
 2648SOL     OW19597   7.335   9.075   2.831  0.0765 -0.7673  0.0368
 2648SOL    HW119598   7.403   9.003   2.843  1.0891 -0.3094 -2.6603
 2648SOL    HW219599   7.380   9.165   2.837 -0.7657 -0.4016  0.9820
 2649SOL     OW19600   5.965   8.620   3.021 -0.7238 -0.3690 -0.6285
 2649SOL    HW119601   5.983   8.691   2.952 -0.6826  1.1441  0.8962
 2649SOL    HW219602   6.051   8.597   3.067 -1.4713  1.9561  2.0310
 2650SOL     OW19603   8.418   1.840   6.053  0.1914  0.2173  0.0854
 2650SOL    HW119604   8.330   1.847   6.005  0.9727  0.3220 -1.3539
 2650SOL    HW219605   8.491   1.877   5.995  1.5917 -2.3870  0.1155
 2651SOL     OW19606   1.618   4.045   1.989 -0.0929  0.3302 -0.0389
 2651SOL    HW119607   1.521   4.047   2.010 -0.0531 -0.0943  0.1999
 2651SOL    HW219608   1.671   4.033   2.073  0.0409 -1.8009 -0.3959
 2652SOL     OW19609   9.399   6.009   4.527 -0.8263  0.3358 -0.3132
 2652SOL    HW119610   9.498   6.009   4.510 -0.7244 -1.2851  0.1452
 2652SOL    HW219611   9.350   5.998   4.440 -0.6313  1.6262 -0.5972
 2653SOL     OW19612   0.731   5.604   3.677 -0.4453  0.0666 -0.1960
 2653SOL    HW119613   0.638   5.602   3.640 -0.8112  1.5586  0.6001
 2653SOL    HW219614   0.758   5.512   3.704 -2.6939  0.0096  1.9912
 2654SOL     OW19615   9.986   1.724   4.273  0.0745 -0.0150  0.4432
 2654SOL    HW119616   9.911   1.773   4.229  0.7019 -0.3117 -0.9965
 2654SOL    HW219617  10.060   1.710   4.207  0.6960 -1.2016  1.3672
 2655SOL     OW19618   2.837   9.030   5.583  0.0439  0.0234 -0.3717
 2655SOL    HW119619   2.926   9.045   5.627  0.4079  0.1303 -1.1393
 2655SOL    HW219620   2.769   9.089   5.626  0.3950  0.1289  0.0523
 2656SOL     OW19621   7.865   7.728   7.257 -0.0276 -0.2550 -0.2140
 2656SOL    HW119622   7.768   7.733   7.233 -0.0863 -0.9177 -0.1175
 2656SOL    HW219623   7.875   7.725   7.357  0.0438 -1.1478 -0.2457
 2657SOL     OW19624   1.377   1.922   0.460  0.1951 -0.0158  0.5720
 2657SOL    HW119625   1.436   1.985   0.509  0.5354  0.0132  0.1274
 2657SOL    HW219626   1.432   1.859   0.406 -0.1658 -0.1890  0.4008
 2658SOL     OW19627   0.712   6.581   0.324  0.1924  0.1375  0.2786
 2658SOL    HW119628   0.736   6.489   0.295 -1.3404 -0.5889  1.2702
 2658SOL    HW219629   0.767   6.647   0.273  0.8637 -1.2855 -0.8804
 2659SOL     OW19630   4.173   3.624   1.486  0.1141 -0.1298 -0.5013
 2659SOL    HW119631   4.165   3.592   1.392  0.4369  0.6147 -0.7886
 2659SOL    HW219632   4.263   3.666   1.499 -0.3440  0.7712 -0.1779
 2660SOL     OW19633   1.465   3.805   7.231 -0.5032  0.5394  0.3491
 2660SOL    HW119634   1.367   3.806   7.214 -0.2421 -1.9018 -1.5752
 2660SOL    HW219635   1.497   3.711   7.241  1.6772  1.2814  0.7885
 2661SOL     OW19636   8.972   0.426   3.979 -0.2671 -0.4030 -0.4196
 2661SOL    HW119637   8.964   0.487   4.058 -1.7806  1.7002 -2.1675
 2661SOL    HW219638   8.907   0.350   3.989  0.2993 -0.7372  0.8441
 2662SOL     OW19639   8.512   0.802   0.001  0.1494  0.7014 -0.2109
 2662SOL    HW119640   8.529   0.875   0.067 -1.5070  0.6342  0.3129
 2662SOL    HW219641   8.520   0.714   0.047  0.3226  0.6106 -0.4172
 2663SOL     OW19642   5.523   1.635   0.244 -0.1537 -0.4895  0.1076
 2663SOL    HW119643   5.517   1.655   0.342 -2.3975 -0.5684  0.0157
 2663SOL    HW219644   5.551   1.540   0.230 -0.8550 -0.7788  0.6794
 2664SOL     OW19645   1.479   4.480   1.159  0.0738  0.5788  0.2836
 2664SOL    HW119646   1.506   4.390   1.125 -2.0057 -0.0922  0.2983
 2664SOL    HW219647   1.551   4.518   1.216  0.2213 -1.8988  1.7876
 2665SOL     OW19648   4.493   9.303   3.953  0.3195  0.1116  0.0317
 2665SOL    HW119649   4.592   9.297   3.964  0.5536  0.2556 -1.9302
 2665SOL    HW219650   4.470   9.354   3.871 -1.4242  1.3517  1.2311
 2666SOL     OW19651   8.815   1.957   6.036  0.6279 -0.4914  0.0160
 2666SOL    HW119652   8.882   2.028   6.014  2.6450 -2.4944 -0.5104
 2666SOL    HW219653   8.741   1.959   5.968  0.5558  1.2204  0.1282
 2667SOL     OW19654   3.209   9.549   7.890 -0.7945 -0.0008 -0.4858
 2667SOL    HW119655   3.189   9.626   7.829 -0.3098  1.7023  1.4494
 2667SOL    HW219656   3.302   9.559   7.926 -0.9589 -1.1458  0.2901
 2668SOL     OW19657   7.546   0.866   4.071 -0.5573  0.1047  0.3594
 2668SOL    HW119658   7.603   0.806   4.128 -0.4285  0.5009  0.6532
 2668SOL    HW219659   7.464   0.892   4.121  0.1219  1.4218  0.8452
 2669SOL     OW19660   0.338   6.455   1.789 -0.0684  0.1914 -0.3866
 2669SOL    HW119661   0.335   6.371   1.736  2.0075  0.7238 -1.4039
 2669SOL    HW219662   0.266   6.517   1.759 -1.6957 -1.2383  0.4608
 2670SOL     OW19663   1.263   8.993   4.821 -0.5009 -0.7365  0.3034
 2670SOL    HW119664   1.258   9.066   4.889 -0.0983 -0.6729  0.2679
 2670SOL    HW219665   1.333   8.927   4.848  1.1326  0.3708 -1.0789
 2671SOL     OW19666   3.127   7.591   8.197 -0.3119 -0.1362 -0.2098
 2671SOL    HW119667   3.161   7.675   8.154  0.3380 -0.2285  0.1157
 2671SOL    HW219668   3.116   7.608   8.295  0.6109 -0.6768 -0.0076
 2672SOL     OW19669   2.149   3.079   1.609  0.2063 -0.5321  0.7049
 2672SOL    HW119670   2.244   3.064   1.636  0.4684 -2.4031 -1.1501
 2672SOL    HW219671   2.133   3.039   1.519 -1.3378  3.0887 -0.7588
 2673SOL     OW19672   1.539   9.747   0.137  0.4629 -0.1476 -0.6746
 2673SOL    HW119673   1.557   9.651   0.116 -0.4824 -0.6456  0.7322
 2673SOL    HW219674   1.563   9.803   0.058 -1.9513 -1.8412 -2.6955
 2674SOL     OW19675   0.675   3.608   0.880 -0.0659  0.4349 -0.2526
 2674SOL    HW119676   0.616   3.595   0.959 -0.0759 -0.2974 -0.3760
 2674SOL    HW219677   0.674   3.704   0.853  0.2400  0.7541  0.8649
 2675SOL     OW19678   3.460   2.243   0.925  0.6131 -0.5527 -0.4531
 2675SOL    HW119679   3.523   2.305   0.972 -0.4043  0.4812 -0.4372
 2675SOL    HW219680   3.511   2.166   0.888  1.9920  0.5987 -0.9924
 2676SOL     OW19681   3.587   9.546   7.030 -0.5179 -0.0726  0.0320
 2676SOL    HW119682   3.610   9.461   6.982  0.2807 -1.1291  2.1757
 2676SOL    HW219683   3.659   9.613   7.015 -1.1035  0.2041 -1.6007
 2677SOL     OW19684   9.177   4.569   0.021 -0.0657 -0.3486  1.1345
 2677SOL    HW119685   9.141   4.480   0.046 -0.3290 -0.3811  0.6471
 2677SOL    HW219686   9.102   4.631   0.001  0.1183 -0.0422  1.3842
 2678SOL     OW19687   5.263   0.643   0.728  0.1842 -0.0210 -0.2705
 2678SOL    HW119688   5.320   0.724   0.713 -1.8714  1.8248  1.3744
 2678SOL    HW219689   5.171   0.672   0.756 -1.1806 -2.9193 -1.5300
 2679SOL     OW19690   8.828   3.702   7.435 -0.2336 -0.4658 -0.3387
 2679SOL    HW119691   8.915   3.717   7.387  0.0454  1.4587  0.7418
 2679SOL    HW219692   8.826   3.608   7.470  2.1763 -0.0255  1.1255
 2680SOL     OW19693   9.375   5.384   7.312  0.7714  0.0647 -0.2930
 2680SOL    HW119694   9.375   5.483   7.301  0.0629  0.1128  0.1528
 2680SOL    HW219695   9.447   5.344   7.254  1.8223  0.9317  0.3856
 2681SOL     OW19696   5.122   2.363   7.863  0.1825  0.3400  0.3701
 2681SOL    HW119697   5.035   2.335   7.903  0.3113  1.1303  1.2547
 2681SOL    HW219698   5.162   2.435   7.921  0.8593  0.7976 -0.6625
 2682SOL     OW19699   0.478   3.752   7.603 -0.1461  0.6097  0.2890
 2682SOL    HW119700   0.475   3.753   7.503 -1.3694  0.0096  0.3135
 2682SOL    HW219701   0.564   3.711   7.633 -0.9769 -1.7997 -0.5190
 2683SOL     OW19702   4.979   0.555   4.834  0.1540  0.1828 -0.0374
 2683SOL    HW119703   4.887   0.518   4.827 -0.1796  1.1131 -0.6464
 2683SOL    HW219704   4.984   0.617   4.911  0.1548  0.4574 -0.2573
 2684SOL     OW19705   2.914   2.981   1.254 -0.2193 -0.1301 -0.2790
 2684SOL    HW119706   2.854   2.936   1.187  1.1967 -0.8785 -1.0666
 2684SOL    HW219707   2.858   3.034   1.317 -1.6664 -0.2112 -1.4449
 2685SOL     OW19708   3.443   0.787   6.471  0.2558 -0.4673 -0.2408
 2685SOL    HW119709   3.410   0.751   6.384 -1.1562  0.3848 -0.0750
 2685SOL    HW219710   3.456   0.886   6.464 -2.0887 -0.0099  1.1490
 2686SOL     OW19711   1.005   1.475   2.675 -0.6845  0.3878 -0.5884
 2686SOL    HW119712   0.993   1.500   2.579  1.6198  0.3618 -0.9155
 2686SOL    HW219713   0.951   1.393   2.695 -0.3045 -0.2748 -2.1770
 2687SOL     OW19714   4.484   1.711   3.558 -0.0628  0.5361 -0.0044
 2687SOL    HW119715   4.448   1.803   3.539  0.8102  0.6887 -0.9587
 2687SOL    HW219716   4.442   1.676   3.641  0.8389  2.5023  1.3445
 2688SOL     OW19717   5.766   9.119   4.419 -0.1343 -0.0688 -0.5691
 2688SOL    HW119718   5.736   9.158   4.506 -0.0978 -1.0793 -0.0925
 2688SOL    HW219719   5.813   9.189   4.365  0.1137  0.4898  0.3559
 2689SOL     OW19720   7.829   7.344   7.143 -0.1230 -0.0918  0.2439
 2689SOL    HW119721   7.732   7.354   7.164  0.1064  0.6637  0.9713
 2689SOL    HW219722   7.883   7.348   7.227  0.7472  2.3032 -0.3587
 2690SOL     OW19723   9.134   0.665   0.884 -0.0578 -0.1389  0.2799
 2690SOL    HW119724   9.090   0.576   0.895 -1.4513  0.4150 -0.6355
 2690SOL    HW219725   9.221   0.653   0.835 -1.0017 -0.8375 -1.2760
 2691SOL     OW19726   3.420   7.026   3.054 -0.0122 -0.5407  0.2134
 2691SOL    HW119727   3.491   7.054   2.990 -1.4778  0.4245 -1.0191
 2691SOL    HW219728   3.350   6.974   3.006 -0.8160 -0.3528  1.1689
 2692SOL     OW19729   3.820   1.787   1.929  0.0628  0.0246 -0.0092
 2692SOL    HW119730   3.770   1.869   1.956  0.0682  0.1807 -0.4686
 2692SOL    HW219731   3.912   1.813   1.900 -0.7814  0.1828 -2.6866
 2693SOL     OW19732   0.806   3.744   4.298 -0.4781  0.0258 -0.7431
 2693SOL    HW119733   0.833   3.678   4.228  1.7188  0.9536 -0.8232
 2693SOL    HW219734   0.827   3.837   4.265  1.5240  0.4187  1.4910
 2694SOL     OW19735   9.984   7.832   7.575  0.3384  0.1694  0.2210
 2694SOL    HW119736  10.062   7.880   7.614  1.1177 -0.5612 -0.4029
 2694SOL    HW219737   9.911   7.897   7.555  0.5500  0.7750  1.3682
 2695SOL     OW19738   7.818   4.499   5.090 -0.0944  0.1968 -0.0474
 2695SOL    HW119739   7.777   4.412   5.061 -0.2623  0.3330 -0.2244
 2695SOL    HW219740   7.827   4.559   5.010 -0.1410  0.4060  0.1065
 2696SOL     OW19741   0.805   9.144   2.950  0.0930  0.2979 -0.3112
 2696SOL    HW119742   0.741   9.215   2.977 -2.9112 -2.1503 -0.7545
 2696SOL    HW219743   0.835   9.159   2.856 -0.7582  0.8128 -0.4987
 2697SOL     OW19744   9.996   4.969   6.779  0.4256  0.1001 -0.3414
 2697SOL    HW119745   9.899   4.969   6.802  0.2322  2.2705 -1.0112
 2697SOL    HW219746  10.008   4.946   6.683  0.5485  0.2281 -0.3572
 2698SOL     OW19747   9.713   2.698   4.309 -0.0680 -0.0188  0.3742
 2698SOL    HW119748   9.656   2.615   4.306  0.4797 -0.3621 -0.4454
 2698SOL    HW219749   9.809   2.673   4.304  0.1434  0.6046  1.2055
 2699SOL     OW19750   7.581   8.767   1.748  0.5696  0.1934 -0.1245
 2699SOL    HW119751   7.607   8.843   1.807 -1.0238  0.0607  0.7758
 2699SOL    HW219752   7.517   8.800   1.678  3.2409  0.5738 -2.4781
 2700SOL     OW19753   8.968   1.735   6.394 -0.3090 -0.2389 -0.2461
 2700SOL    HW119754   8.897   1.776   6.452  0.6235 -0.5044  1.1203
 2700SOL    HW219755   9.011   1.660   6.443  0.5263 -0.4566 -1.2955
 2701SOL     OW19756   0.988   1.438   1.070  0.2680  0.5413 -0.1307
 2701SOL    HW119757   1.020   1.380   1.145  0.9711  0.6480 -0.3474
 2701SOL    HW219758   0.920   1.503   1.105  1.2707  1.2015  0.5889
 2702SOL     OW19759   0.173   0.392   3.993  0.0372 -0.2312  0.7168
 2702SOL    HW119760   0.182   0.456   4.070 -0.4070 -0.1307  0.6864
 2702SOL    HW219761   0.119   0.313   4.021 -3.0386  1.3650 -0.4216
 2703SOL     OW19762   2.445   1.883   3.168  0.9292 -0.0814 -0.0465
 2703SOL    HW119763   2.375   1.942   3.209  0.3608  0.0815 -1.2071
 2703SOL    HW219764   2.484   1.824   3.238  0.5061  0.6949  0.8635
 2704SOL     OW19765   5.544   3.147   1.786 -0.1406  1.4012  0.2418
 2704SOL    HW119766   5.468   3.143   1.851 -1.3935  1.8074 -1.1601
 2704SOL    HW219767   5.550   3.061   1.736  1.3580  0.7717  1.4445
 2705SOL     OW19768   2.560   5.208   3.675  0.2916 -0.0508 -0.2431
 2705SOL    HW119769   2.547   5.120   3.629 -0.9106  0.8317 -1.6424
 2705SOL    HW219770   2.494   5.217   3.749  1.4009 -0.9459  0.8665
 2706SOL     OW19771   6.281   2.713   3.936 -0.0878  0.4092 -0.0924
 2706SOL    HW119772   6.198   2.764   3.916  0.3832  0.7971 -1.0825
 2706SOL    HW219773   6.324   2.750   4.019 -0.8856  0.2144  0.4108
 2707SOL     OW19774   1.956   5.360   0.989 -0.4391  0.3039  0.3118
 2707SOL    HW119775   1.991   5.451   1.011 -2.1938  0.5531  2.2388
 2707SOL    HW219776   1.997   5.292   1.050 -3.0776  0.5763  2.4768
 2708SOL     OW19777   0.625   6.464   7.331 -0.0296 -0.3041  0.0578
 2708SOL    HW119778   0.671   6.551   7.317 -0.8799  0.2487  0.6082
 2708SOL    HW219779   0.574   6.439   7.249 -1.2658  0.6347  0.5254
 2709SOL     OW19780   1.332   9.979   5.195  0.5541  0.5589 -0.0344
 2709SOL    HW119781   1.308  10.077   5.191 -0.8188  0.2239 -0.2225
 2709SOL    HW219782   1.299   9.933   5.113 -1.2752 -0.5915  1.3120
 2710SOL     OW19783   5.337   9.810   3.529 -0.4379  0.2294  0.2431
 2710SOL    HW119784   5.365   9.714   3.538  1.1119  0.5077 -1.5437
 2710SOL    HW219785   5.301   9.841   3.617 -3.6333 -2.7977  0.1558
 2711SOL     OW19786   9.094   9.122   1.572 -0.1814 -0.2644 -0.4732
 2711SOL    HW119787   9.066   9.163   1.485  2.0796 -0.5976 -1.4096
 2711SOL    HW219788   9.017   9.121   1.635 -1.5729  0.9886 -2.0991
 2712SOL     OW19789   8.581   8.734   6.080 -0.8266  0.3675  0.3474
 2712SOL    HW119790   8.547   8.657   6.134  0.9007 -1.5372 -1.1943
 2712SOL    HW219791   8.663   8.772   6.122  0.8805 -1.5160 -1.1890
 2713SOL     OW19792   9.291   9.112   5.646  0.4130  0.5803  0.0009
 2713SOL    HW119793   9.260   9.142   5.736  0.1817 -0.5820  0.3174
 2713SOL    HW219794   9.387   9.137   5.633  0.4123  0.8489  0.5292
 2714SOL     OW19795   1.672   7.169   3.441 -0.0792 -0.0099 -0.0602
 2714SOL    HW119796   1.674   7.082   3.392 -0.0020  0.2378 -0.4960
 2714SOL    HW219797   1.603   7.229   3.400  0.8172  0.6405 -0.6055
 2715SOL     OW19798   8.868   7.710   2.811  0.3706 -0.7894 -0.1299
 2715SOL    HW119799   8.916   7.633   2.853 -1.6661 -2.1472 -0.2285
 2715SOL    HW219800   8.769   7.694   2.814  0.0321  0.5343 -2.6223
 2716SOL     OW19801   2.787   9.168   0.425 -0.6318  0.4905  0.5441
 2716SOL    HW119802   2.720   9.232   0.389 -0.2531  2.5104  3.2635
 2716SOL    HW219803   2.864   9.160   0.363 -0.3632  3.2231  0.5048
 2717SOL     OW19804   0.843   9.567   6.539  0.6448 -0.2700  0.2067
 2717SOL    HW119805   0.918   9.622   6.575  0.1062 -0.0603  1.0302
 2717SOL    HW219806   0.797   9.618   6.466  2.1402 -0.9626 -1.2456
 2718SOL     OW19807   8.170   7.149   3.005 -0.2188 -0.2834  0.6168
 2718SOL    HW119808   8.177   7.112   3.097  0.3277 -2.8954 -0.4391
 2718SOL    HW219809   8.253   7.201   2.983 -0.8500  1.3693  1.9803
 2719SOL     OW19810   0.863   0.059   6.931  0.1522 -0.6938  0.3883
 2719SOL    HW119811   0.877  -0.012   7.000 -0.5644  0.8493  2.1675
 2719SOL    HW219812   0.826   0.141   6.975  1.0811  0.8355 -1.6044
 2720SOL     OW19813   9.215   2.994   0.191  0.1572  0.0603 -0.1147
 2720SOL    HW119814   9.302   2.965   0.152  0.3783  0.6691 -0.0686
 2720SOL    HW219815   9.221   2.996   0.291 -0.6954 -2.4459  0.0256
 2721SOL     OW19816   4.680   1.714   4.117  0.7654 -0.7480 -0.3730
 2721SOL    HW119817   4.643   1.710   4.209  1.2161  3.4601  0.0817
 2721SOL    HW219818   4.606   1.706   4.051  0.1446 -1.1885  0.3713
 2722SOL     OW19819   9.354   1.500   5.598  0.2841 -0.4400 -0.0267
 2722SOL    HW119820   9.287   1.478   5.669 -0.6950 -1.4312 -1.2345
 2722SOL    HW219821   9.412   1.420   5.581  1.6554  0.3442  0.8576
 2723SOL     OW19822   5.454   0.327   4.625  0.2129  0.3126  0.1778
 2723SOL    HW119823   5.544   0.370   4.617  0.1171  0.2759 -1.2650
 2723SOL    HW219824   5.392   0.366   4.557 -0.8235  0.2143  1.0476
 2724SOL     OW19825   3.251   1.358   6.329 -0.2813  0.5488 -0.1499
 2724SOL    HW119826   3.319   1.432   6.330 -0.7378  0.9658  0.0282
 2724SOL    HW219827   3.161   1.395   6.347 -0.6409  0.0733 -0.9145
 2725SOL     OW19828   3.571   0.014   5.540 -0.0266 -0.1617 -0.1871
 2725SOL    HW119829   3.613   0.074   5.471  0.7210 -2.4338 -1.7527
 2725SOL    HW219830   3.641  -0.039   5.586 -0.9749 -2.8777 -1.7579
 2726SOL     OW19831   6.435   0.832   3.656 -0.1619  0.5454 -0.4149
 2726SOL    HW119832   6.467   0.886   3.579 -1.4943  0.2199 -1.1969
 2726SOL    HW219833   6.470   0.872   3.741  0.6161  1.3865 -1.1244
 2727SOL     OW19834   3.751   5.923   7.985  0.0756 -0.1320  0.6124
 2727SOL    HW119835   3.712   5.901   7.896  0.7231 -1.9912  0.7694
 2727SOL    HW219836   3.677   5.941   8.050 -0.5537 -2.8766  0.7166
 2728SOL     OW19837   1.589   1.236   0.860 -0.5345  0.3497  0.5639
 2728SOL    HW119838   1.498   1.220   0.898 -0.5185  1.0880  0.9255
 2728SOL    HW219839   1.616   1.331   0.878  0.0069  0.3367 -0.1699
 2729SOL     OW19840   0.959   2.852   4.708  0.0241  0.1145  0.1765
 2729SOL    HW119841   1.058   2.840   4.701 -0.0945 -0.3579 -0.8169
 2729SOL    HW219842   0.933   2.940   4.669 -0.0073 -0.0166 -0.1020
 2730SOL     OW19843   9.648   2.615   6.241  0.3496 -0.2853 -0.3966
 2730SOL    HW119844   9.649   2.633   6.339 -0.3434 -0.4018 -0.3714
 2730SOL    HW219845   9.639   2.702   6.192 -0.6439 -0.3428 -0.3253
 2731SOL     OW19846   0.261   5.210   5.252 -0.0971 -0.0774 -0.0890
 2731SOL    HW119847   0.264   5.110   5.243 -2.9292 -0.1134 -1.4312
 2731SOL    HW219848   0.315   5.251   5.179  1.0448 -0.6273  0.4376
 2732SOL     OW19849   1.650   6.836   6.563 -0.2507  0.1411 -0.1940
 2732SOL    HW119850   1.690   6.792   6.643 -0.8208 -0.6957 -0.3646
 2732SOL    HW219851   1.629   6.932   6.585 -1.2464 -0.3303  0.9407
 2733SOL     OW19852   4.380   6.903   1.662  0.1317  0.1751 -0.2991
 2733SOL    HW119853   4.375   6.988   1.714 -0.4138 -0.1277  0.1410
 2733SOL    HW219854   4.459   6.906   1.600  1.0435  0.3404  0.8656
 2734SOL     OW19855   1.194   2.739   4.631 -0.4237  0.2065  0.1341
 2734SOL    HW119856   1.259   2.672   4.665  1.5346  1.6247 -0.7447
 2734SOL    HW219857   1.139   2.698   4.558  0.7365 -0.4514 -0.3760
 2735SOL     OW19858   3.267   0.218   3.712  0.4949 -0.6924  0.4384
 2735SOL    HW119859   3.258   0.138   3.653  1.3562 -1.2943  1.1016
 2735SOL    HW219860   3.202   0.212   3.787 -0.0242 -0.3453  0.0170
 2736SOL     OW19861   8.629   6.170   5.033 -0.0775 -0.3708  0.0297
 2736SOL    HW119862   8.654   6.098   4.969  1.0164 -0.2791  0.3300
 2736SOL    HW219863   8.554   6.139   5.092  0.4645 -1.2990  0.2362
 2737SOL     OW19864   4.378   0.748   6.752 -0.0146 -0.2317 -0.2361
 2737SOL    HW119865   4.471   0.712   6.743 -0.2400 -0.4579 -1.9034
 2737SOL    HW219866   4.355   0.801   6.671  0.1468  3.3630  1.9788
 2738SOL     OW19867   9.984   4.169   0.524  0.2409  0.0107 -0.0669
 2738SOL    HW119868  10.062   4.194   0.466  0.3005 -0.1809 -0.0678
 2738SOL    HW219869   9.969   4.071   0.520  0.4612 -0.0451  0.5196
 2739SOL     OW19870   6.363   7.461   6.091 -0.5773 -0.1715 -0.0063
 2739SOL    HW119871   6.395   7.465   6.186  1.7081 -3.2609 -0.5691
 2739SOL    HW219872   6.429   7.508   6.032 -0.4032 -0.9181 -0.4106
 2740SOL     OW19873   3.351   2.911   7.969 -0.1491 -0.2418  0.2103
 2740SOL    HW119874   3.410   2.961   8.033  0.3843 -1.9332  1.0786
 2740SOL    HW219875   3.285   2.857   8.019 -0.0175 -1.2490 -0.6760
 2741SOL     OW19876   2.655   8.715   7.826  0.4664 -0.1247 -0.0570
 2741SOL    HW119877   2.739   8.661   7.827  1.3633  1.2590  0.4856
 2741SOL    HW219878   2.645   8.762   7.913  0.6458  2.0195 -1.1756
 2742SOL     OW19879   1.423   6.758   4.266  0.4837  0.2232 -0.3046
 2742SOL    HW119880   1.431   6.707   4.180  1.1288 -0.0232 -0.1060
 2742SOL    HW219881   1.506   6.743   4.321  1.4945  2.9494 -1.0384
 2743SOL     OW19882   2.023   4.616   3.424  0.3035 -0.4360  0.0247
 2743SOL    HW119883   2.115   4.582   3.447  0.3165 -0.7664 -0.5323
 2743SOL    HW219884   2.020   4.715   3.442  1.1824 -0.1627 -1.2209
 2744SOL     OW19885   1.709   5.375   1.760  0.3027  0.0075 -0.6910
 2744SOL    HW119886   1.754   5.374   1.849 -0.5304  0.1692 -0.2576
 2744SOL    HW219887   1.769   5.418   1.692  0.6326  0.5719 -0.0417
 2745SOL     OW19888   0.357   3.121   3.151  0.2124 -0.5514  0.1060
 2745SOL    HW119889   0.367   3.048   3.083  0.5688 -1.7783  1.4389
 2745SOL    HW219890   0.440   3.127   3.206 -0.1684  0.2545  0.6080
 2746SOL     OW19891   0.865   0.619   0.734 -0.2422 -0.4576 -0.1166
 2746SOL    HW119892   0.773   0.595   0.763  0.2249 -0.8840  1.0552
 2746SOL    HW219893   0.891   0.706   0.777  0.8872 -1.6670  1.7069
 2747SOL     OW19894   3.296   4.849   2.951  0.5427 -0.0059 -1.0846
 2747SOL    HW119895   3.387   4.841   2.910  0.9316 -2.2686  0.1484
 2747SOL    HW219896   3.301   4.910   3.030  0.8519  0.3506 -1.3735
 2748SOL     OW19897   7.972   7.337   2.975  0.7160  0.2896 -0.1102
 2748SOL    HW119898   8.028   7.255   2.984  0.2335  0.0396  0.6350
 2748SOL    HW219899   7.978   7.391   3.059 -1.2866 -0.4611  0.5459
 2749SOL     OW19900   5.955   7.847   4.456  0.4510  0.1803  0.2811
 2749SOL    HW119901   5.887   7.794   4.507 -0.0302  0.0826 -0.4655
 2749SOL    HW219902   5.914   7.883   4.373  0.4577  2.6709  1.3223
 2750SOL     OW19903   0.801   4.126   6.579  0.0937  0.2741 -0.0300
 2750SOL    HW119904   0.813   4.066   6.501  0.5264  1.0388 -0.5625
 2750SOL    HW219905   0.806   4.073   6.664 -0.4726 -0.5699 -0.5223
 2751SOL     OW19906   4.893   9.458   3.333 -0.6769 -0.4626 -0.2735
 2751SOL    HW119907   4.863   9.363   3.334 -0.8207 -0.4401 -1.2696
 2751SOL    HW219908   4.919   9.484   3.240  1.1847 -0.0868  0.3315
 2752SOL     OW19909   5.197   3.927   6.042 -0.2814  0.6392  0.8008
 2752SOL    HW119910   5.271   3.906   6.105 -0.3680  0.3797  0.8148
 2752SOL    HW219911   5.109   3.905   6.085 -0.3880  1.3120  0.9364
 2753SOL     OW19912   3.496   0.831   7.689 -0.0695  0.5702  0.3302
 2753SOL    HW119913   3.554   0.824   7.771  3.2714  0.5788 -1.9399
 2753SOL    HW219914   3.461   0.924   7.682  0.9960  1.0316  0.8980
 2754SOL     OW19915   0.570   4.599   0.670 -0.0676 -0.3512  0.3642
 2754SOL    HW119916   0.643   4.566   0.610  1.3240  0.3618  1.6064
 2754SOL    HW219917   0.513   4.523   0.700  0.0111 -0.8848 -0.8224
 2755SOL     OW19918   0.885   8.056   5.923  0.0260  0.1417  0.3959
 2755SOL    HW119919   0.871   8.154   5.919 -0.3340  0.0873  0.3341
 2755SOL    HW219920   0.807   8.012   5.969  0.3767 -0.0709  0.7933
 2756SOL     OW19921   1.875   5.083   6.322  0.1023 -0.0940  0.3184
 2756SOL    HW119922   1.964   5.058   6.359  0.0198 -1.8189 -0.5964
 2756SOL    HW219923   1.806   5.078   6.394  0.3447 -1.1392  0.4870
 2757SOL     OW19924   0.457   0.069   5.661  0.2919  0.3987  0.4935
 2757SOL    HW119925   0.404   0.101   5.583  1.8102  0.6679 -0.4562
 2757SOL    HW219926   0.510  -0.012   5.634 -2.1100 -1.9044  2.3498
 2758SOL     OW19927   5.166   9.117   6.048 -0.0779 -0.1874 -0.0594
 2758SOL    HW119928   5.253   9.158   6.023 -1.9169  2.5720 -2.3084
 2758SOL    HW219929   5.149   9.130   6.146  1.4624  0.3858  0.1342
 2759SOL     OW19930   4.009   9.821   3.571 -0.0930  0.0443 -0.0194
 2759SOL    HW119931   4.011   9.744   3.507  0.7731 -1.6689  1.9958
 2759SOL    HW219932   3.920   9.825   3.615 -0.4598  0.8088 -0.8132
 2760SOL     OW19933   0.331   3.379   4.964 -0.0526 -0.0396  0.8166
 2760SOL    HW119934   0.250   3.362   4.909 -0.6835 -0.2286  1.7823
 2760SOL    HW219935   0.305   3.386   5.060  1.3057 -2.0103  1.3763
 2761SOL     OW19936   4.168   0.547   5.271  0.5115  0.9170  0.1990
 2761SOL    HW119937   4.177   0.449   5.289  0.1519  0.5626 -1.4435
 2761SOL    HW219938   4.257   0.583   5.241  0.3305  0.8048 -0.4829
 2762SOL     OW19939   4.222   9.906   5.999 -0.3144 -0.7384 -0.4433
 2762SOL    HW119940   4.127   9.880   6.019  0.1347 -3.0283 -1.2372
 2762SOL    HW219941   4.253   9.859   5.917  1.7054 -0.3895  0.1103
 2763SOL     OW19942   7.052   1.335   6.182 -0.2415  0.4714  0.6873
 2763SOL    HW119943   7.128   1.398   6.194 -0.8453  1.6915 -1.5653
 2763SOL    HW219944   7.087   1.246   6.151  0.3087  0.8837  0.1217
 2764SOL     OW19945   2.614   8.057   5.947 -0.0898  0.3291  0.4250
 2764SOL    HW119946   2.578   8.065   5.854  1.3305 -2.5377 -0.4331
 2764SOL    HW219947   2.713   8.072   5.945  0.0133 -0.2116  1.4222
 2765SOL     OW19948   3.309   9.419   6.552 -0.4411 -0.0753 -0.0484
 2765SOL    HW119949   3.319   9.467   6.639 -1.5563  0.5452 -0.2523
 2765SOL    HW219950   3.318   9.321   6.567 -2.9726 -0.1695  1.1878
 2766SOL     OW19951   3.101   5.518   0.530 -0.3261 -0.2585 -0.1498
 2766SOL    HW119952   3.078   5.433   0.577  0.0923 -0.5798 -0.5150
 2766SOL    HW219953   3.198   5.517   0.504  0.0583  0.9719  1.1688
 2767SOL     OW19954   1.435   4.738   5.367 -0.1665 -0.0443  0.1715
 2767SOL    HW119955   1.376   4.807   5.324  0.2201 -0.5599 -1.2198
 2767SOL    HW219956   1.489   4.780   5.439 -0.4507  0.9688 -0.2041
 2768SOL     OW19957  10.000   8.822   3.606  0.4320  0.3182 -0.1965
 2768SOL    HW119958  10.075   8.788   3.662 -0.5134  0.0087  0.9076
 2768SOL    HW219959   9.926   8.755   3.605 -0.0602  0.8614 -0.8064
 2769SOL     OW19960   9.317   0.317   2.502  0.0180  0.1660 -0.2818
 2769SOL    HW119961   9.251   0.323   2.426  0.7515 -1.1523 -1.0433
 2769SOL    HW219962   9.334   0.409   2.538 -1.8424  0.5779 -0.4176
 2770SOL     OW19963   1.684   1.338   5.102  0.2110 -0.6076  0.1222
 2770SOL    HW119964   1.667   1.264   5.037  2.2685 -1.5804  0.6105
 2770SOL    HW219965   1.662   1.426   5.061  0.6943 -1.2768 -1.6060
 2771SOL     OW19966   8.329   7.214   4.403  0.2187  0.4418 -0.1222
 2771SOL    HW119967   8.357   7.290   4.461  0.4501  1.0448 -1.0174
 2771SOL    HW219968   8.287   7.249   4.320  0.2101 -0.4084 -0.4794
 2772SOL     OW19969   1.880   6.300   5.016 -0.0322 -0.0176 -0.2301
 2772SOL    HW119970   1.980   6.301   5.022 -0.1439 -1.0879  2.7165
 2772SOL    HW219971   1.846   6.392   4.997  1.3964  0.8753  1.4860
 2773SOL     OW19972   8.022   8.034   1.564 -0.0176  0.5527  0.1828
 2773SOL    HW119973   7.971   8.058   1.481 -3.9557 -1.2337  1.9287
 2773SOL    HW219974   7.985   8.086   1.641  1.4954 -0.1103  1.3820
 2774SOL     OW19975   9.915   1.970   5.579 -0.2206 -0.5275  0.3511
 2774SOL    HW119976   9.989   2.030   5.608 -0.4185 -0.1458  0.0766
 2774SOL    HW219977   9.827   2.012   5.602 -0.4015  0.1298 -1.4088
 2775SOL     OW19978   3.093   5.258   0.633 -0.0600 -0.0549 -0.3474
 2775SOL    HW119979   3.073   5.278   0.728  1.2346  1.2762 -0.3487
 2775SOL    HW219980   3.190   5.237   0.623 -0.2013 -0.2494 -1.3706
 2776SOL     OW19981   7.414   6.522   5.729  0.3866 -0.3419  0.0560
 2776SOL    HW119982   7.383   6.573   5.649  0.8656  1.3542  0.9164
 2776SOL    HW219983   7.498   6.473   5.707  1.0601  0.9173 -0.1946
 2777SOL     OW19984   2.330   2.697   0.099 -0.0963  0.2981 -0.5194
 2777SOL    HW119985   2.238   2.737   0.107 -0.6577 -0.5129 -2.6834
 2777SOL    HW219986   2.325   2.612   0.047  1.9204  0.3436 -0.8223
 2778SOL     OW19987   8.156   8.811   3.490 -0.9642  0.7080  0.1339
 2778SOL    HW119988   8.170   8.848   3.398 -0.0609  0.2585  0.0872
 2778SOL    HW219989   8.070   8.760   3.492  0.3082 -1.5475 -1.1951
 2779SOL     OW19990   8.032   9.844   2.237  0.5775  0.7838 -0.0668
 2779SOL    HW119991   8.015   9.756   2.193 -1.9285  1.7001 -1.0626
 2779SOL    HW219992   8.079   9.830   2.324 -1.5618 -1.7153  0.7465
 2780SOL     OW19993   0.898   2.717   0.864  0.1490  0.0576 -0.0282
 2780SOL    HW119994   0.801   2.704   0.883 -0.3026  0.6008 -1.8276
 2780SOL    HW219995   0.937   2.633   0.829  1.0514 -1.0320  3.4089
 2781SOL     OW19996   2.042   8.859   6.146  0.2177 -0.9049  0.2752
 2781SOL    HW119997   2.119   8.879   6.084 -1.9211 -1.3449 -2.6191
 2781SOL    HW219998   2.014   8.944   6.191  0.1025 -0.0341 -1.3872
 2782SOL     OW19999   7.622   6.111   0.817 -0.2279 -0.1331  0.5146
 2782SOL    HW120000   7.720   6.111   0.835 -0.1948  1.2486  0.3802
 2782SOL    HW220001   7.574   6.152   0.894 -0.4512  1.7683 -0.6061
 2783SOL     OW20002   3.597   0.024   2.899  0.5428  0.2158  0.4192
 2783SOL    HW120003   3.665   0.036   2.827 -0.0580  0.3430 -0.1292
 2783SOL    HW220004   3.511   0.067   2.872  0.5722  1.0352  1.5941
 2784SOL     OW20005   5.951   0.628   4.677 -0.4849  0.9657 -0.2629
 2784SOL    HW120006   5.858   0.659   4.696 -0.9910 -1.3184  1.2630
 2784SOL    HW220007   5.993   0.596   4.761  0.5428 -0.9487 -1.4593
 2785SOL     OW20008   1.865   8.030   6.885  0.0756 -0.0635 -0.5285
 2785SOL    HW120009   1.818   8.029   6.797  0.8477 -1.9672 -0.9543
 2785SOL    HW220010   1.900   8.122   6.903  0.6594  0.1588 -2.6351
 2786SOL     OW20011   8.997   5.215   0.220 -0.8698  0.4839  0.3834
 2786SOL    HW120012   8.983   5.166   0.134 -1.2414 -2.6136  2.1281
 2786SOL    HW220013   8.916   5.206   0.278  0.3105  0.3403  2.0629
 2787SOL     OW20014   6.143   6.035   0.376 -0.4138  0.5742 -0.0883
 2787SOL    HW120015   6.050   6.005   0.399 -0.1442  0.1040  0.4139
 2787SOL    HW220016   6.160   6.019   0.279 -0.6712  0.1552 -0.0673
 2788SOL     OW20017   4.661   4.070   0.033 -0.8070  0.2876 -0.1105
 2788SOL    HW120018   4.581   4.113  -0.009 -1.3113  0.4909  1.0329
 2788SOL    HW220019   4.633   3.984   0.077 -0.2556 -0.0053 -0.3263
 2789SOL     OW20020   3.369   9.203   0.436  0.0931 -0.3467 -0.2901
 2789SOL    HW120021   3.274   9.231   0.430  0.7070  2.0497  0.7020
 2789SOL    HW220022   3.396   9.196   0.533  1.1808 -0.0681 -0.5621
 2790SOL     OW20023   6.850   3.739   2.135  0.4139  0.1586 -0.3515
 2790SOL    HW120024   6.933   3.788   2.158 -0.2298  0.9957  0.1921
 2790SOL    HW220025   6.846   3.653   2.186  1.1870 -0.1204 -0.7610
 2791SOL     OW20026   2.437   0.424   5.524  0.3233  0.5113 -0.3411
 2791SOL    HW120027   2.351   0.375   5.511  0.7922 -0.4216  0.0726
 2791SOL    HW220028   2.510   0.360   5.548  0.8903  1.4326  0.4584
 2792SOL     OW20029   9.131   4.017   7.458 -0.3199 -0.1508  0.0008
 2792SOL    HW120030   9.060   4.069   7.505 -0.6839 -0.1791 -0.5218
 2792SOL    HW220031   9.168   3.947   7.520 -0.6401 -0.0403  0.3163
 2793SOL     OW20032   4.223   3.913   1.116  0.4270 -0.0421  0.2444
 2793SOL    HW120033   4.186   3.891   1.207 -1.3105  0.3192 -0.3590
 2793SOL    HW220034   4.207   3.836   1.054 -0.4076  0.5830 -0.3299
 2794SOL     OW20035   4.318   2.084   7.283  0.3558 -0.5453 -0.3113
 2794SOL    HW120036   4.371   2.146   7.340 -0.5651 -2.1124  2.3375
 2794SOL    HW220037   4.368   2.066   7.198  2.4561  0.6951  0.6351
 2795SOL     OW20038   7.083   0.392   2.749  0.2493 -0.2212 -0.1793
 2795SOL    HW120039   7.107   0.409   2.845  0.5483  0.5594 -0.3929
 2795SOL    HW220040   7.015   0.459   2.719  0.2832 -0.3605 -0.5677
 2796SOL     OW20041   6.336   7.613   5.653  0.2682 -0.0490 -0.7435
 2796SOL    HW120042   6.340   7.696   5.709 -0.0262  0.1205 -0.9733
 2796SOL    HW220043   6.261   7.555   5.685 -0.2259  0.2891 -1.2998
 2797SOL     OW20044   5.259   2.735   5.411 -0.4360  0.4771 -0.1465
 2797SOL    HW120045   5.176   2.695   5.372 -0.2231  1.2393 -1.3988
 2797SOL    HW220046   5.235   2.795   5.488 -1.1246  1.3753 -1.0537
 2798SOL     OW20047   8.417   9.655   7.132  0.0670 -0.2323 -0.1535
 2798SOL    HW120048   8.416   9.603   7.046 -0.2250 -0.7838  0.1812
 2798SOL    HW220049   8.504   9.641   7.178  0.3272  0.2700 -0.4804
 2799SOL     OW20050   2.151   9.613   7.537 -0.4031 -0.7802 -0.0653
 2799SOL    HW120051   2.136   9.539   7.471 -1.1936 -0.2622 -0.4762
 2799SOL    HW220052   2.237   9.598   7.585  0.2929 -1.0582 -1.3756
 2800SOL     OW20053   9.527   8.153   0.747 -0.0579  0.3337  0.5757
 2800SOL    HW120054   9.564   8.111   0.829  2.1926  1.6846  0.3199
 2800SOL    HW220055   9.590   8.138   0.671 -1.4747  0.2223 -0.6066
 2801SOL     OW20056   2.911   3.572   3.395  0.0213  0.1333  0.2925
 2801SOL    HW120057   2.878   3.607   3.483  0.4070 -1.1002  0.9521
 2801SOL    HW220058   2.964   3.642   3.348  0.9973  0.3545  1.6901
 2802SOL     OW20059   6.929   2.852   4.098 -0.0535 -0.4279 -0.2337
 2802SOL    HW120060   6.960   2.944   4.125  2.5028 -0.5705 -2.5378
 2802SOL    HW220061   6.975   2.784   4.155  0.7202 -0.4423 -0.8740
 2803SOL     OW20062   2.648   8.089   4.043  0.1580 -0.0230 -0.0400
 2803SOL    HW120063   2.655   8.151   4.120  0.3795  0.4869 -0.4679
 2803SOL    HW220064   2.719   8.019   4.048 -1.1485 -1.2782  1.3640
 2804SOL     OW20065   4.602   9.266   5.433  0.4672  0.6795  0.0759
 2804SOL    HW120066   4.656   9.236   5.354  0.3126  1.9551 -0.5255
 2804SOL    HW220067   4.641   9.350   5.470 -0.8597  1.3928 -0.1220
 2805SOL     OW20068   9.890   2.380   5.758  0.0423  0.2618  0.4419
 2805SOL    HW120069   9.810   2.331   5.724  0.8729  0.0860 -1.3445
 2805SOL    HW220070   9.930   2.434   5.684  1.6818  0.1873  1.2361
 2806SOL     OW20071   2.950   6.933   5.291 -0.2924  0.6029  0.0652
 2806SOL    HW120072   2.963   7.032   5.295  1.0750  0.4540 -0.5548
 2806SOL    HW220073   3.006   6.895   5.218 -0.1579 -0.7424  0.8612
 2807SOL     OW20074   8.958   7.990   1.106  0.1061 -0.2953  0.8900
 2807SOL    HW120075   8.928   7.944   1.190 -1.7932  0.0328  0.4327
 2807SOL    HW220076   8.926   7.939   1.027 -0.3261  0.7535  0.3789
 2808SOL     OW20077   3.036   2.460   1.641  0.5851 -0.4689 -0.0249
 2808SOL    HW120078   3.074   2.367   1.639 -1.2228 -1.2466  0.4692
 2808SOL    HW220079   3.088   2.516   1.706  0.5977 -1.6328  0.9776
 2809SOL     OW20080   2.112   8.940   1.552  0.2767 -0.0949  0.4097
 2809SOL    HW120081   2.207   8.912   1.551  0.8396  1.7612 -0.1398
 2809SOL    HW220082   2.064   8.902   1.473  0.4599 -1.3233  0.8840
 2810SOL     OW20083   9.285   9.721   1.564 -0.5550 -0.0914 -0.2214
 2810SOL    HW120084   9.305   9.801   1.622 -0.2654 -0.4151  0.1316
 2810SOL    HW220085   9.191   9.692   1.579 -0.5444 -0.0487 -0.0618
 2811SOL     OW20086   1.236   8.804   1.601 -0.1773  0.1905  0.2961
 2811SOL    HW120087   1.281   8.745   1.534 -0.8512  0.4427 -0.3877
 2811SOL    HW220088   1.248   8.900   1.573 -0.4147  0.2967  0.5681
 2812SOL     OW20089   5.083   9.534   5.779 -0.3547  0.0422 -0.2099
 2812SOL    HW120090   4.990   9.510   5.804 -0.2321 -1.4934 -1.1589
 2812SOL    HW220091   5.084   9.626   5.739 -0.9874  1.2746  2.5449
 2813SOL     OW20092   6.800   3.340   0.498  0.0455 -0.3220 -0.0429
 2813SOL    HW120093   6.896   3.366   0.513 -0.0592  0.8490 -1.2531
 2813SOL    HW220094   6.751   3.342   0.584  0.8398  0.2539  0.4073
 2814SOL     OW20095   0.866   9.823   0.613 -0.4196 -0.1780 -0.4712
 2814SOL    HW120096   0.857   9.911   0.567  0.2467  1.5157  2.4678
 2814SOL    HW220097   0.778   9.775   0.612 -0.8703  0.6417 -1.8025
 2815SOL     OW20098   8.559   1.255   1.688  0.1119 -0.2709  0.1365
 2815SOL    HW120099   8.641   1.202   1.666  0.1968  0.0094 -0.2351
 2815SOL    HW220100   8.550   1.263   1.787 -0.0268 -1.1783  0.2009
 2816SOL     OW20101   4.173   9.107   1.891  0.0395  0.8270  0.2428
 2816SOL    HW120102   4.099   9.173   1.884  0.1132  0.8202 -0.6901
 2816SOL    HW220103   4.255   9.144   1.847  0.1509  0.2230 -0.0689
 2817SOL     OW20104   5.380   8.042   1.553  0.1518 -0.1468  0.0172
 2817SOL    HW120105   5.411   7.965   1.609 -1.2785  0.4580  1.6794
 2817SOL    HW220106   5.304   8.013   1.495 -0.6284  0.0857  0.9092
 2818SOL     OW20107   3.944   1.276   7.905 -0.2342  0.0423  0.1839
 2818SOL    HW120108   3.991   1.339   7.843  0.8369 -0.7109  0.2118
 2818SOL    HW220109   3.909   1.198   7.854  1.3054 -0.9555  0.6018
 2819SOL     OW20110   8.372   9.143   4.816 -0.2912 -0.0721  0.4255
 2819SOL    HW120111   8.310   9.090   4.873 -0.0186 -1.7219 -0.7623
 2819SOL    HW220112   8.349   9.240   4.823 -0.0958 -0.1897  3.4996
 2820SOL     OW20113   8.008   6.744   1.963  0.2633 -0.0257  0.5784
 2820SOL    HW120114   8.086   6.683   1.976  1.4409  1.5432  1.0847
 2820SOL    HW220115   8.017   6.794   1.877 -0.4281 -0.1923  0.4040
 2821SOL     OW20116   7.717   2.352   2.158 -0.3331  0.4364 -0.2355
 2821SOL    HW120117   7.810   2.346   2.122 -0.3075 -0.1268 -0.0665
 2821SOL    HW220118   7.652   2.363   2.083 -0.3251 -1.2152 -0.4912
 2822SOL     OW20119   8.862   9.114   0.350 -0.0734 -0.3948  0.1295
 2822SOL    HW120120   8.840   9.023   0.314 -2.1690 -0.1189  0.6821
 2822SOL    HW220121   8.878   9.177   0.274 -0.3792 -0.7940 -0.2669
 2823SOL     OW20122   8.131   9.234   7.272 -0.1142  0.3519 -0.0200
 2823SOL    HW120123   8.175   9.244   7.183 -1.5150  0.1957 -0.7315
 2823SOL    HW220124   8.033   9.219   7.260 -0.1640 -0.6897  1.5030
 2824SOL     OW20125   4.660   9.791   7.181 -0.0537 -0.5664  0.6633
 2824SOL    HW120126   4.659   9.823   7.276 -0.1746  1.2509  0.0637
 2824SOL    HW220127   4.634   9.866   7.120  1.6975 -1.2165 -0.9464
 2825SOL     OW20128   4.651   9.555   3.463  0.0347 -0.1493 -0.5590
 2825SOL    HW120129   4.725   9.532   3.401 -0.6582 -0.9765 -1.0892
 2825SOL    HW220130   4.683   9.622   3.530  1.5286 -1.2172 -0.1940
 2826SOL     OW20131   7.309   9.239   4.220 -0.6886  0.0137 -0.7248
 2826SOL    HW120132   7.295   9.143   4.245  1.9303  0.1215  1.4326
 2826SOL    HW220133   7.403   9.265   4.241 -1.3253  3.0323 -1.4160
 2827SOL     OW20134   0.309   7.744   4.803 -0.5861  0.1006 -0.4619
 2827SOL    HW120135   0.335   7.702   4.890 -2.3888  0.8533  0.4583
 2827SOL    HW220136   0.376   7.719   4.733 -0.2270 -2.2185  0.6463
 2828SOL     OW20137   6.712   3.001   0.858  0.0685  0.4942  0.1688
 2828SOL    HW120138   6.613   3.015   0.846 -0.3841 -1.1184  1.9098
 2828SOL    HW220139   6.741   2.923   0.802  0.2339  0.5815  0.1342
 2829SOL     OW20140   5.551   9.661   5.213  0.1765 -0.3346 -0.1775
 2829SOL    HW120141   5.635   9.607   5.224  1.2481  1.1586 -0.8479
 2829SOL    HW220142   5.546   9.730   5.285 -0.4218 -0.3323 -0.2198
 2830SOL     OW20143   9.683   0.254   7.698  0.4204  0.1273  0.4362
 2830SOL    HW120144   9.671   0.224   7.793  2.1421 -0.7865  0.3895
 2830SOL    HW220145   9.756   0.322   7.695  2.8415 -2.4099 -0.6619
 2831SOL     OW20146   8.488   8.978   5.745  0.4021  0.0015 -0.0273
 2831SOL    HW120147   8.556   8.957   5.675 -0.1013  1.5914 -1.0142
 2831SOL    HW220148   8.532   9.023   5.823  0.2147  2.8094 -1.5033
 2832SOL     OW20149   4.256   9.949   7.113  0.2009 -0.0638  0.1501
 2832SOL    HW120150   4.295  10.040   7.102 -0.7061  0.2389 -0.6480
 2832SOL    HW220151   4.160   9.957   7.138 -0.0370 -0.8018 -0.5118
 2833SOL     OW20152   5.324   0.903   0.959  0.3627  0.4835 -0.5342
 2833SOL    HW120153   5.349   0.908   0.862  1.2089 -1.4079 -0.4287
 2833SOL    HW220154   5.258   0.828   0.972  0.5926  0.4487  0.4288
 2834SOL     OW20155   4.160   4.564   2.733 -0.8853  0.3063  0.0633
 2834SOL    HW120156   4.240   4.546   2.676  0.3104  1.1112  1.4495
 2834SOL    HW220157   4.145   4.487   2.795 -1.7190 -0.2211 -0.7653
 2835SOL     OW20158   0.737   9.464   1.732 -0.2699  0.6674  0.0475
 2835SOL    HW120159   0.785   9.546   1.699  0.4410 -0.1335 -0.9303
 2835SOL    HW220160   0.804   9.400   1.771 -0.6559 -0.0283 -0.4220
 2836SOL     OW20161   0.633   9.664   7.335 -0.3727  0.0211  0.0689
 2836SOL    HW120162   0.602   9.570   7.348 -0.5121  0.1401  0.6275
 2836SOL    HW220163   0.557   9.721   7.303 -0.6455  0.2357  1.0751
 2837SOL     OW20164   6.603   8.401   2.837  0.0108 -0.3052 -0.1767
 2837SOL    HW120165   6.581   8.316   2.885  2.1233  0.0171  1.4640
 2837SOL    HW220166   6.537   8.416   2.763 -1.3085 -2.5577  0.4886
 2838SOL     OW20167   7.698   1.314   2.018  0.6942 -0.2515 -0.0327
 2838SOL    HW120168   7.717   1.216   2.022  1.0793 -0.3034 -2.4008
 2838SOL    HW220169   7.605   1.331   2.050 -0.3240 -1.7101 -2.1103
 2839SOL     OW20170   3.299   3.632   6.157  0.3293  0.4053  0.5093
 2839SOL    HW120171   3.374   3.685   6.117  1.0245 -2.0322 -1.5253
 2839SOL    HW220172   3.231   3.613   6.087 -0.6532 -0.1119  1.5905
 2840SOL     OW20173   3.119   6.634   7.280  0.1863 -0.5290 -0.5858
 2840SOL    HW120174   3.091   6.542   7.308 -0.3221 -0.4480 -0.8179
 2840SOL    HW220175   3.038   6.693   7.276  0.6379  0.1750  0.5132
 2841SOL     OW20176   3.580   0.565   0.358  0.2644  0.3466  0.9330
 2841SOL    HW120177   3.532   0.515   0.429  2.2994  0.4519  2.4392
 2841SOL    HW220178   3.633   0.502   0.302  0.8770  0.5450  1.2827
 2842SOL     OW20179   4.489   3.494   0.196  0.0507 -0.3105 -0.4587
 2842SOL    HW120180   4.587   3.512   0.185 -0.2294  0.8246 -1.1991
 2842SOL    HW220181   4.473   3.396   0.202  1.0338 -0.6198 -2.4576
 2843SOL     OW20182   1.832   9.378   5.901 -0.3489 -0.2287 -0.0433
 2843SOL    HW120183   1.743   9.348   5.934 -0.5242 -0.0578 -0.3507
 2843SOL    HW220184   1.839   9.477   5.909 -0.2417 -0.2276 -0.1531
 2844SOL     OW20185   0.078   9.385   8.036  0.1314 -0.0623  0.7230
 2844SOL    HW120186   0.078   9.351   7.942  1.9652  0.3927  0.5537
 2844SOL    HW220187   0.167   9.369   8.078  0.1958  2.1947  1.5021
 2845SOL     OW20188   6.872   2.516   3.821 -0.4610 -0.0840 -0.2767
 2845SOL    HW120189   6.851   2.442   3.757  0.5237 -0.3662 -0.2769
 2845SOL    HW220190   6.959   2.559   3.795 -1.8265  2.1819 -1.2863
 2846SOL     OW20191   8.815   6.539   5.678 -0.0961 -0.1453  0.4400
 2846SOL    HW120192   8.915   6.528   5.685 -0.0283  0.2219  0.0754
 2846SOL    HW220193   8.795   6.618   5.622 -0.6069 -2.1251 -2.2447
 2847SOL     OW20194   8.321   7.125   7.672 -0.9747 -0.0040 -0.0716
 2847SOL    HW120195   8.372   7.207   7.647  0.2965 -1.0709 -1.0845
 2847SOL    HW220196   8.326   7.111   7.771  1.2287 -0.4127 -0.2138
 2848SOL     OW20197   3.172   5.891   7.479 -0.4326 -0.6233 -0.1374
 2848SOL    HW120198   3.078   5.912   7.451 -0.0979 -0.6630 -1.3005
 2848SOL    HW220199   3.236   5.937   7.419  0.3017 -1.5079 -0.0451
 2849SOL     OW20200   4.079   0.149   0.524 -0.6838 -0.2149 -0.2403
 2849SOL    HW120201   4.106   0.163   0.429 -1.0924 -1.5632 -0.5716
 2849SOL    HW220202   4.161   0.129   0.579 -0.5577 -0.4199 -0.5006
 2850SOL     OW20203   7.030   0.263   2.518 -0.0953  0.0226  0.5371
 2850SOL    HW120204   7.120   0.225   2.494 -0.9783 -2.0441  0.3930
 2850SOL    HW220205   7.016   0.254   2.617 -0.4812 -0.4193  0.4430
 2851SOL     OW20206   3.554   9.064   3.131 -0.0487 -0.1552 -0.4494
 2851SOL    HW120207   3.547   9.015   3.044 -0.3530  0.8743 -1.0162
 2851SOL    HW220208   3.604   9.008   3.197 -1.2785 -1.6537 -0.7622
 2852SOL     OW20209   8.517   5.565   7.012 -0.0160 -0.6408 -0.0798
 2852SOL    HW120210   8.454   5.593   6.940 -0.1242  2.4311  1.1486
 2852SOL    HW220211   8.608   5.604   6.993  0.6028 -1.9480  0.1280
 2853SOL     OW20212   5.638   8.769   3.059 -0.1304  0.0201 -0.3908
 2853SOL    HW120213   5.702   8.796   2.986  1.1638 -0.5196  0.5351
 2853SOL    HW220214   5.573   8.702   3.023  1.4409 -1.3734 -0.6591
 2854SOL     OW20215   9.515   6.145   7.909 -0.4987 -0.8325  0.0833
 2854SOL    HW120216   9.475   6.101   7.828  0.4318  0.9895 -1.3903
 2854SOL    HW220217   9.576   6.080   7.955 -0.4800 -1.6546 -1.0825
 2855SOL     OW20218   7.210   0.820   5.002  0.3749  0.0694 -0.0069
 2855SOL    HW120219   7.283   0.814   5.071  0.8797  1.2001 -0.4345
 2855SOL    HW220220   7.223   0.902   4.947 -0.6035 -0.3083 -0.8080
 2856SOL     OW20221   4.821   1.534   0.132 -0.2563  0.3721 -0.0913
 2856SOL    HW120222   4.741   1.592   0.149 -0.7584 -0.4036  0.2064
 2856SOL    HW220223   4.852   1.548   0.038 -2.0217 -0.8463 -0.8965
 2857SOL     OW20224   0.981   7.141   0.551 -0.2584 -0.2163  0.0426
 2857SOL    HW120225   1.077   7.167   0.536 -0.2531 -0.6382 -0.7030
 2857SOL    HW220226   0.954   7.165   0.644  0.1533  1.1681 -0.1845
 2858SOL     OW20227   6.414   1.361   5.782 -0.3774 -0.1653  0.0778
 2858SOL    HW120228   6.351   1.374   5.859 -0.5036  0.4493 -0.1318
 2858SOL    HW220229   6.387   1.278   5.732 -0.5277 -0.3540  0.4662
 2859SOL     OW20230   0.783   6.329   3.795  0.5135  0.3026 -0.0975
 2859SOL    HW120231   0.772   6.428   3.800  0.6221  0.3905 -1.3331
 2859SOL    HW220232   0.773   6.300   3.700  1.7710 -0.7235  0.0731
 2860SOL     OW20233   5.950   9.740   4.894  0.6388  0.2414 -0.3512
 2860SOL    HW120234   5.958   9.641   4.907 -0.9607 -0.1587 -2.1419
 2860SOL    HW220235   6.027   9.773   4.839 -0.6519 -0.6481 -2.7877
 2861SOL     OW20236   1.343   6.076   4.787  0.4996  0.4026  0.2856
 2861SOL    HW120237   1.249   6.065   4.818 -0.0435  3.0966 -0.3065
 2861SOL    HW220238   1.404   6.081   4.865 -0.1298  0.9256  0.7482
 2862SOL     OW20239   3.332   3.807   4.968 -0.5190 -0.2480 -0.2677
 2862SOL    HW120240   3.393   3.861   5.025  1.6735 -1.2093 -1.6653
 2862SOL    HW220241   3.365   3.712   4.964 -2.2110 -0.8319 -0.8914
 2863SOL     OW20242   3.776   2.816   4.737 -0.2042  0.1703  0.7913
 2863SOL    HW120243   3.859   2.761   4.748  1.0871  2.0693  0.6529
 2863SOL    HW220244   3.722   2.778   4.661  2.8477  1.6697 -2.2909
 2864SOL     OW20245   6.380   9.316   4.565  0.5012  0.0865 -0.1038
 2864SOL    HW120246   6.297   9.293   4.513  0.5189  1.9114 -0.9611
 2864SOL    HW220247   6.353   9.355   4.653  0.4698 -1.3173  0.5223
 2865SOL     OW20248   2.453   8.729   7.657 -0.5494  0.0386  0.4865
 2865SOL    HW120249   2.501   8.740   7.569 -1.2188 -1.7264 -0.1176
 2865SOL    HW220250   2.517   8.747   7.732  0.0372  1.5583 -0.3505
 2866SOL     OW20251   2.007   3.096   5.832  0.1238  0.4575 -0.1887
 2866SOL    HW120252   2.088   3.130   5.785  0.1955 -0.1544 -0.5078
 2866SOL    HW220253   1.985   3.157   5.909  1.4781  0.0676  0.5248
 2867SOL     OW20254   8.723   9.052   0.578 -0.2322 -0.1089  0.4436
 2867SOL    HW120255   8.807   9.074   0.528  0.2594  0.2886  1.4280
 2867SOL    HW220256   8.746   9.018   0.669 -1.1375  0.1422  0.7765
 2868SOL     OW20257   3.722   7.300   1.978  0.4180  0.1150  0.4303
 2868SOL    HW120258   3.712   7.363   2.055  2.7577  1.1259 -0.0271
 2868SOL    HW220259   3.684   7.211   2.002 -1.4061  1.2028  1.7118
 2869SOL     OW20260   9.323   3.007   1.665  0.3142  0.4468 -0.5061
 2869SOL    HW120261   9.266   3.082   1.696  0.3365  0.6279 -0.9038
 2869SOL    HW220262   9.271   2.921   1.669  0.2462  0.5031 -0.1932
 2870SOL     OW20263   8.901   9.644   0.176 -0.9684 -0.2435  0.3183
 2870SOL    HW120264   8.947   9.608   0.094 -0.1812  0.2149  0.5535
 2870SOL    HW220265   8.969   9.679   0.239 -1.5553 -0.9748  1.3670
 2871SOL     OW20266   9.343   5.842   7.870  0.0059 -0.9119  0.3748
 2871SOL    HW120267   9.327   5.833   7.969  1.0973 -0.0935  0.6374
 2871SOL    HW220268   9.420   5.786   7.843  0.2417 -0.4811  0.1390
 2872SOL     OW20269   7.783   4.092   2.585  0.3401  0.3720  0.2735
 2872SOL    HW120270   7.727   4.135   2.514  0.0971 -1.2763 -0.5574
 2872SOL    HW220271   7.862   4.151   2.605  0.4708  0.8169 -1.4311
 2873SOL     OW20272   5.219   0.406   4.967  0.7122  0.4274 -0.2034
 2873SOL    HW120273   5.271   0.335   4.920 -0.7632 -0.9137  0.1168
 2873SOL    HW220274   5.130   0.416   4.923  0.0025  0.4058  1.2036
 2874SOL     OW20275   2.240   9.807   2.131  0.0364  0.3020  0.1423
 2874SOL    HW120276   2.325   9.856   2.153 -0.1557  0.7284 -0.0667
 2874SOL    HW220277   2.187   9.860   2.066 -0.7266  0.3668  0.8077
 2875SOL     OW20278   3.606   4.295   4.064 -0.2450 -0.1599  0.7253
 2875SOL    HW120279   3.628   4.275   3.969  0.7722  1.2531  0.6570
 2875SOL    HW220280   3.640   4.222   4.123  0.5959 -0.2196  0.1646
 2876SOL     OW20281   1.202   3.187   1.303 -0.5649 -0.8788  0.0887
 2876SOL    HW120282   1.277   3.130   1.337  0.5997 -0.5706 -1.8754
 2876SOL    HW220283   1.195   3.270   1.359  0.2648 -1.1386  0.5768
 2877SOL     OW20284   6.327   5.097   1.125 -0.5235  0.7372 -0.0138
 2877SOL    HW120285   6.408   5.105   1.067 -0.6327 -2.4491 -0.6767
 2877SOL    HW220286   6.248   5.132   1.075 -0.1488  0.6190 -0.7063
 2878SOL     OW20287   2.507   0.431   7.110 -0.7144  0.2809 -0.4331
 2878SOL    HW120288   2.571   0.485   7.055 -0.2843 -1.3487 -1.5613
 2878SOL    HW220289   2.417   0.473   7.107 -0.0174  1.8546  0.0804
 2879SOL     OW20290   1.686   7.809   1.440  0.7643 -0.2428 -0.0843
 2879SOL    HW120291   1.658   7.796   1.535 -0.9938  0.2306 -0.5212
 2879SOL    HW220292   1.778   7.847   1.437  0.5603  0.3854  1.4403
 2880SOL     OW20293   1.310   1.723   4.406 -0.0410  0.1654 -0.6223
 2880SOL    HW120294   1.264   1.637   4.428 -3.2818  1.9539 -0.0698
 2880SOL    HW220295   1.259   1.770   4.334  1.2061  2.0033 -0.3253
 2881SOL     OW20296   2.061   7.419   4.131 -0.4064  0.1005  0.1621
 2881SOL    HW120297   1.997   7.485   4.093  0.4471  0.9054  0.0919
 2881SOL    HW220298   2.051   7.416   4.231  0.0922  0.9355  0.2465
 2882SOL     OW20299   3.110   2.315   7.078 -0.1083 -0.0364 -0.1051
 2882SOL    HW120300   3.163   2.400   7.089  1.8642 -1.4046  1.1709
 2882SOL    HW220301   3.055   2.299   7.160 -1.5180  0.6752 -0.8868
 2883SOL     OW20302   2.892   3.312   1.297 -0.6276  0.6021 -0.0225
 2883SOL    HW120303   2.986   3.280   1.295 -0.6984  0.4527 -1.5071
 2883SOL    HW220304   2.837   3.250   1.354 -0.2983 -0.6375 -1.0281
 2884SOL     OW20305   2.805   8.850   1.854 -0.3318  0.2767  0.4943
 2884SOL    HW120306   2.899   8.816   1.848 -0.7114 -0.9105  1.1978
 2884SOL    HW220307   2.792   8.925   1.788  0.4024 -1.1727 -1.3292
 2885SOL     OW20308   2.743   0.752   7.836  0.2510 -0.4189 -0.3574
 2885SOL    HW120309   2.681   0.801   7.897  0.0739  0.0588 -0.9182
 2885SOL    HW220310   2.691   0.713   7.760  0.5441 -0.5687 -0.4811
 2886SOL     OW20311   0.306   1.075   1.710  0.0596 -0.0400  0.2141
 2886SOL    HW120312   0.253   1.159   1.721 -1.1752 -0.3784 -2.7866
 2886SOL    HW220313   0.327   1.061   1.614  1.8862 -2.2165  0.8890
 2887SOL     OW20314   0.857   0.499   2.326  0.2081  0.2687  0.0319
 2887SOL    HW120315   0.761   0.528   2.329  0.6825  1.8977  0.3903
 2887SOL    HW220316   0.911   0.568   2.277  0.7391 -2.0520 -2.8007
 2888SOL     OW20317   8.071   1.778   6.678 -0.5634 -0.4645  0.5075
 2888SOL    HW120318   7.988   1.747   6.723  0.8066 -2.8441  1.4820
 2888SOL    HW220319   8.150   1.733   6.719  1.2606  2.0103 -0.1680
 2889SOL     OW20320   6.713   2.079   5.103  0.1482  0.1799 -0.2194
 2889SOL    HW120321   6.684   2.175   5.100 -1.0462 -0.2102 -1.3014
 2889SOL    HW220322   6.643   2.025   5.150  0.5467 -0.2686 -0.1414
 2890SOL     OW20323   6.782   5.401   2.043 -0.5093  0.1851  0.2271
 2890SOL    HW120324   6.854   5.471   2.038 -0.6167  0.3336  0.7285
 2890SOL    HW220325   6.709   5.424   1.978 -0.6163  0.6203  0.5003
 2891SOL     OW20326   2.005   3.438   0.804  0.5101  0.2634 -0.3221
 2891SOL    HW120327   2.104   3.449   0.796  0.5616 -1.1285 -2.1235
 2891SOL    HW220328   1.960   3.495   0.736  0.1274  0.1598 -0.1554
 2892SOL     OW20329   9.371   0.978   7.368 -0.1982 -0.3504  0.0468
 2892SOL    HW120330   9.349   0.918   7.445  2.0519  0.3867  1.3020
 2892SOL    HW220331   9.298   0.973   7.300 -1.7833 -1.7127  1.8032
 2893SOL     OW20332   2.225   8.045   4.749 -0.4835  0.3464  0.0604
 2893SOL    HW120333   2.251   7.949   4.761  0.9215  1.0680  3.1230
 2893SOL    HW220334   2.307   8.101   4.734 -1.0731  1.4056  0.7275
 2894SOL     OW20335   0.241   9.021   1.201  0.0150  0.0675 -0.1331
 2894SOL    HW120336   0.249   9.093   1.270  1.4439  0.2147 -0.4355
 2894SOL    HW220337   0.248   9.061   1.110 -1.7913 -0.1376 -0.3884
 2895SOL     OW20338   3.024   3.128   4.322  0.4401  0.7588 -0.1654
 2895SOL    HW120339   3.039   3.227   4.315 -0.9030  0.9790 -0.1363
 2895SOL    HW220340   2.989   3.107   4.413  1.1667  0.1914 -0.0162
 2896SOL     OW20341   3.807   3.016   7.058  0.6107 -0.5400  0.3806
 2896SOL    HW120342   3.732   3.019   7.124 -0.2798  1.5418 -0.6991
 2896SOL    HW220343   3.789   2.944   6.990 -0.0964 -0.4657  0.4880
 2897SOL     OW20344   7.883   0.452   3.053 -0.1439  0.0412 -0.1074
 2897SOL    HW120345   7.899   0.366   3.005 -1.1676  0.1617 -0.6738
 2897SOL    HW220346   7.866   0.525   2.987  0.9659  0.7436  0.3629
 2898SOL     OW20347   3.949   9.261   0.836  0.0821  0.1762 -0.1885
 2898SOL    HW120348   3.967   9.259   0.935 -1.5549 -0.2553  0.1053
 2898SOL    HW220349   3.918   9.352   0.810  1.2936  0.5191 -0.4514
 2899SOL     OW20350   6.305   6.067   7.913 -0.2456  0.4132  0.6716
 2899SOL    HW120351   6.388   6.036   7.959  1.8543  3.3926 -0.9467
 2899SOL    HW220352   6.277   6.000   7.845  2.4859  0.5996 -0.7174
 2900SOL     OW20353   0.809   3.912   7.061  0.2652  0.4347 -0.4532
 2900SOL    HW120354   0.861   3.989   7.099  1.7884 -0.8121  0.0411
 2900SOL    HW220355   0.744   3.878   7.130 -2.5989  3.1524 -1.6792
 2901SOL     OW20356   8.542   2.139   7.485 -0.0236  0.0602  0.1435
 2901SOL    HW120357   8.502   2.122   7.395  0.3211  0.1573 -0.0307
 2901SOL    HW220358   8.537   2.056   7.540  1.5040 -0.5697 -0.6420
 2902SOL     OW20359   2.307   8.655   5.238  0.1662  0.5521 -0.0830
 2902SOL    HW120360   2.301   8.728   5.306 -0.2301 -1.2606  1.8668
 2902SOL    HW220361   2.215   8.625   5.213  0.2428  2.3375 -2.7228
 2903SOL     OW20362   7.311   0.637   0.327  0.6266 -0.4438  0.1884
 2903SOL    HW120363   7.219   0.626   0.365 -0.0203 -0.9938 -1.5045
 2903SOL    HW220364   7.346   0.548   0.297  1.4751 -0.1456  0.2776
 2904SOL     OW20365   2.718   0.795   7.130  0.1009 -0.2819 -0.4350
 2904SOL    HW120366   2.804   0.842   7.110 -0.5189  1.1823  0.2581
 2904SOL    HW220367   2.688   0.818   7.223 -1.9758  0.7056 -1.3177
 2905SOL     OW20368   7.144   3.001   4.472 -0.1512 -0.1982 -0.1375
 2905SOL    HW120369   7.080   2.932   4.504 -2.4460  0.8590 -2.2424
 2905SOL    HW220370   7.189   3.044   4.551 -1.5309 -1.4343  1.3601
 2906SOL     OW20371   5.208   0.568   7.369  0.0038  0.0957  0.3461
 2906SOL    HW120372   5.247   0.547   7.459  1.3174 -3.1834 -0.8861
 2906SOL    HW220373   5.271   0.626   7.318  1.5137 -1.9475 -0.1715
 2907SOL     OW20374   6.724   6.186   5.757 -0.1572 -0.5709  0.0017
 2907SOL    HW120375   6.806   6.213   5.808  0.4873  0.1442 -1.3638
 2907SOL    HW220376   6.643   6.222   5.803  0.4474  0.5303  0.2361
 2908SOL     OW20377   4.440   8.771   3.825  0.3602  0.2255 -0.1468
 2908SOL    HW120378   4.511   8.702   3.821 -0.6988 -0.9309  0.7505
 2908SOL    HW220379   4.457   8.833   3.902  0.2435 -0.2115  0.2291
 2909SOL     OW20380   1.912   9.003   2.985  0.9162  0.3766  0.7069
 2909SOL    HW120381   1.909   8.996   3.084 -1.4819  1.3915  0.7493
 2909SOL    HW220382   1.883   9.095   2.957  2.7924  0.5203 -0.8822
 2910SOL     OW20383   2.875   8.454   1.477 -0.5777 -0.0081 -0.6930
 2910SOL    HW120384   2.919   8.537   1.511 -0.6357 -0.3358  0.1985
 2910SOL    HW220385   2.922   8.374   1.515 -1.6836 -0.3616 -0.0576
 2911SOL     OW20386   8.499   5.937   7.677  0.0439 -0.4176 -0.4493
 2911SOL    HW120387   8.584   5.951   7.626  0.5112 -0.3705  0.3337
 2911SOL    HW220388   8.470   6.023   7.718 -1.4478  0.0043 -2.3301
 2912SOL     OW20389   2.479   2.580   5.349 -0.2027 -0.2777 -0.1099
 2912SOL    HW120390   2.545   2.536   5.288 -0.0638  0.3133 -0.3909
 2912SOL    HW220391   2.528   2.625   5.423 -0.3260 -0.3081 -0.0106
 2913SOL     OW20392   9.980   7.790   1.764  0.4761 -0.0837  0.1988
 2913SOL    HW120393  10.072   7.831   1.761  0.5595 -0.2780  0.1084
 2913SOL    HW220394   9.912   7.861   1.747  0.7011 -0.2686 -1.5851
 2914SOL     OW20395   8.847   6.599   1.467  0.3336  0.1030  0.5800
 2914SOL    HW120396   8.827   6.683   1.417 -0.5558 -0.5969 -0.2774
 2914SOL    HW220397   8.945   6.590   1.481  0.4290  1.2820  0.6733
 2915SOL     OW20398   6.600   2.577   5.202  0.2415 -0.4983 -0.5358
 2915SOL    HW120399   6.598   2.547   5.297  0.3376 -0.6091 -0.5686
 2915SOL    HW220400   6.692   2.612   5.180  0.4178 -1.0981 -0.7807
 2916SOL     OW20401   8.239   0.950   8.203 -0.5706 -0.5719  0.4032
 2916SOL    HW120402   8.312   0.896   8.161 -0.4038 -0.1713  0.1712
 2916SOL    HW220403   8.264   1.047   8.201 -0.6700 -0.5281  1.2070
 2917SOL     OW20404   3.648   3.782   6.069 -0.2133 -0.9359 -0.9543
 2917SOL    HW120405   3.696   3.802   6.155 -0.8280  1.0929 -1.0537
 2917SOL    HW220406   3.713   3.788   5.993  0.0717 -1.5070 -0.7582
 2918SOL     OW20407   3.922   2.090   4.948  0.0904  0.6413 -0.4002
 2918SOL    HW120408   4.013   2.131   4.953 -0.1084  1.2677 -1.7960
 2918SOL    HW220409   3.881   2.089   5.039  1.7877 -0.3526  0.3753
 2919SOL     OW20410   2.303   9.576   0.323  0.8022 -0.4025  0.4993
 2919SOL    HW120411   2.321   9.482   0.353  1.0904  0.0643  1.8421
 2919SOL    HW220412   2.371   9.637   0.364  0.4306  0.4377 -0.1277
 2920SOL     OW20413   7.928   5.801   3.145  0.1974  0.2597 -0.0260
 2920SOL    HW120414   7.836   5.762   3.155 -0.2062  1.3954  0.9028
 2920SOL    HW220415   7.948   5.857   3.226  1.4304  0.5805 -0.5550
 2921SOL     OW20416   6.442   9.978   1.343 -0.0564  0.3970  0.8252
 2921SOL    HW120417   6.433   9.971   1.244  1.0380  0.2005  0.7376
 2921SOL    HW220418   6.411  10.068   1.373  0.5303  0.8120  0.1916
 2922SOL     OW20419   3.892   7.812   1.714  0.0755 -0.5305  0.2279
 2922SOL    HW120420   3.825   7.796   1.642  0.3215 -0.2417 -0.0653
 2922SOL    HW220421   3.953   7.734   1.721  0.0007 -0.5933  0.1775
 2923SOL     OW20422   8.538   9.332   2.119  0.3933 -1.1399 -0.2858
 2923SOL    HW120423   8.473   9.310   2.192  0.8901 -3.1537 -0.4099
 2923SOL    HW220424   8.604   9.400   2.153 -0.7456 -0.3492  0.3843
 2924SOL     OW20425   8.978   1.997   3.399  0.4750  0.1153 -0.3594
 2924SOL    HW120426   8.884   1.964   3.407  1.0656 -1.9014 -1.5164
 2924SOL    HW220427   9.035   1.954   3.470  0.7733  0.4385 -0.3989
 2925SOL     OW20428   4.908   9.043   5.053 -0.6576  0.1450  0.2804
 2925SOL    HW120429   4.870   8.963   5.100 -0.8096 -0.5718 -1.0518
 2925SOL    HW220430   4.869   9.050   4.961  0.0835  1.2049  0.0344
 2926SOL     OW20431   8.542   6.614   6.881 -0.8087  0.2299  0.2211
 2926SOL    HW120432   8.445   6.594   6.874 -0.7829 -0.2244  1.0738
 2926SOL    HW220433   8.587   6.592   6.794 -1.2789 -0.6544  0.1953
 2927SOL     OW20434   2.895   9.957   0.165 -0.4711 -0.5201 -0.2443
 2927SOL    HW120435   2.937   9.866   0.172 -0.5767 -0.5960 -0.5638
 2927SOL    HW220436   2.802   9.953   0.202 -0.6554 -0.6671 -0.7074
 2928SOL     OW20437   4.131   0.897   0.367  0.1048 -0.4570  0.1731
 2928SOL    HW120438   4.195   0.835   0.412  0.2751  1.6748  3.0414
 2928SOL    HW220439   4.050   0.909   0.425 -0.8531  0.4033 -1.3010
 2929SOL     OW20440   1.268   9.198   7.718  0.3061 -0.8698 -0.1257
 2929SOL    HW120441   1.280   9.187   7.816  0.8143 -0.4544 -0.1403
 2929SOL    HW220442   1.221   9.118   7.681  0.2928 -1.1153  0.4200
 2930SOL     OW20443   8.795   3.512   4.939 -0.2348 -0.3156 -0.2276
 2930SOL    HW120444   8.783   3.512   4.840  0.6718 -1.2752 -0.3507
 2930SOL    HW220445   8.724   3.455   4.981 -0.7089  0.2136 -0.3133
 2931SOL     OW20446   4.472   1.728   5.501 -0.5500  0.0440  0.0545
 2931SOL    HW120447   4.403   1.799   5.485  1.4183  1.6359 -1.7026
 2931SOL    HW220448   4.553   1.770   5.543  0.5362 -1.1873 -0.7726
 2932SOL     OW20449   7.949   4.313   6.292  0.1677 -0.2659 -0.1302
 2932SOL    HW120450   7.985   4.225   6.261 -0.7478 -0.5996 -0.2820
 2932SOL    HW220451   7.994   4.340   6.377  0.4692 -0.8736 -0.0988
 2933SOL     OW20452   3.418   4.210   2.279 -0.4040 -0.7542  0.2064
 2933SOL    HW120453   3.352   4.250   2.343 -0.5963  2.4712 -1.9068
 2933SOL    HW220454   3.510   4.243   2.302 -0.1028 -1.7579  0.4557
 2934SOL     OW20455   3.704   7.210   6.050 -0.4387 -0.4246  0.5507
 2934SOL    HW120456   3.616   7.162   6.057 -0.3383 -1.2299 -2.9306
 2934SOL    HW220457   3.713   7.249   5.959  3.1594 -1.0433  0.5889
 2935SOL     OW20458   0.268   2.167   5.467 -0.5254 -0.6295  0.6360
 2935SOL    HW120459   0.231   2.238   5.407 -0.2850 -0.6979  0.4047
 2935SOL    HW220460   0.204   2.149   5.541  0.2747  1.2464  1.8382
 2936SOL     OW20461   2.827   8.530   3.995  0.0474 -0.7433  0.0403
 2936SOL    HW120462   2.768   8.532   3.915 -1.2662 -0.8097  0.9831
 2936SOL    HW220463   2.820   8.617   4.045 -1.7355 -1.8970  1.8818
 2937SOL     OW20464   2.566   9.828   5.475  0.0811  0.8322 -0.0836
 2937SOL    HW120465   2.526   9.744   5.437 -0.1211  1.1669 -0.6116
 2937SOL    HW220466   2.641   9.804   5.537  0.5797  0.2861 -0.8935
 2938SOL     OW20467   2.078   0.774   3.585  0.0808  0.4431  0.4247
 2938SOL    HW120468   2.083   0.874   3.585  0.2510  0.4403 -0.1233
 2938SOL    HW220469   2.102   0.740   3.494 -0.6105 -0.0641  0.4222
 2939SOL     OW20470   7.753   1.229   4.312  0.0197  0.3404 -0.2747
 2939SOL    HW120471   7.850   1.247   4.330  0.0162  0.9505 -0.8336
 2939SOL    HW220472   7.705   1.316   4.305 -0.3139  0.0736 -1.3857
 2940SOL     OW20473   2.921   7.052   0.858  0.0470 -0.3647 -0.3292
 2940SOL    HW120474   2.955   7.040   0.765 -0.4767 -1.1694 -0.4220
 2940SOL    HW220475   2.898   6.962   0.897  2.1025 -0.2468  1.2707
 2941SOL     OW20476   5.854   0.106   2.678 -0.4694 -0.0930  0.4320
 2941SOL    HW120477   5.912   0.104   2.760 -0.3035  1.9005  0.4083
 2941SOL    HW220478   5.758   0.111   2.706 -0.3859  1.1365  0.5280
 2942SOL     OW20479   6.896   0.272   6.286 -0.0282  0.6020  0.1092
 2942SOL    HW120480   6.854   0.256   6.197  0.1138 -0.1712  0.1831
 2942SOL    HW220481   6.990   0.239   6.285  0.5557  2.2295 -0.0211
 2943SOL     OW20482   0.720   8.768   3.934  0.1578 -0.5478 -0.2246
 2943SOL    HW120483   0.788   8.810   3.874 -1.9310  0.6487 -1.8267
 2943SOL    HW220484   0.678   8.838   3.990 -0.5506 -1.1175 -0.0390
 2944SOL     OW20485   9.118   5.672   6.679  0.3918 -0.2612  0.7040
 2944SOL    HW120486   9.102   5.574   6.691  0.3635 -0.4529 -0.7990
 2944SOL    HW220487   9.034   5.722   6.697  0.0878 -0.6216  0.2930
 2945SOL     OW20488   2.148   4.078   3.282 -0.0352 -0.2038 -0.0847
 2945SOL    HW120489   2.101   4.099   3.368 -1.1292 -0.7553 -0.5384
 2945SOL    HW220490   2.171   4.163   3.234  1.0226  0.1213  0.9850
 2946SOL     OW20491   4.297   7.675   3.362 -0.0591 -0.6416 -0.5314
 2946SOL    HW120492   4.237   7.645   3.435 -0.7694  1.0137 -0.4355
 2946SOL    HW220493   4.314   7.773   3.369 -1.7196 -0.0403 -3.6860
 2947SOL     OW20494   3.452   9.481   1.697 -0.4960  0.3383  0.0519
 2947SOL    HW120495   3.423   9.386   1.692 -0.5731  0.3789 -0.2478
 2947SOL    HW220496   3.551   9.486   1.679 -0.9804  0.6162 -2.8918
 2948SOL     OW20497   2.462   0.112   0.462 -0.2983  0.4268 -0.8064
 2948SOL    HW120498   2.376   0.078   0.503 -0.6095  1.5025 -0.5665
 2948SOL    HW220499   2.533   0.114   0.532 -0.0821 -0.3979 -0.9890
 2949SOL     OW20500   9.786   5.913   1.135  0.0037  0.2218  0.0027
 2949SOL    HW120501   9.836   5.940   1.217 -1.4018  2.5452  0.1483
 2949SOL    HW220502   9.847   5.915   1.056  1.2799 -1.6838  0.9235
 2950SOL     OW20503   0.790   8.766   1.992 -0.1394 -0.2444 -0.1252
 2950SOL    HW120504   0.757   8.761   1.897 -1.1204  2.1808  0.0699
 2950SOL    HW220505   0.882   8.804   1.993 -0.1082 -0.3195 -0.1020
 2951SOL     OW20506   6.616   9.485   4.261 -0.9795  0.5684  0.1095
 2951SOL    HW120507   6.592   9.551   4.190 -0.3441  1.1955  0.4730
 2951SOL    HW220508   6.562   9.401   4.248 -1.3210  0.9118 -0.7319
 2952SOL     OW20509   8.670   5.990   5.582  0.5083  0.9776  0.2634
 2952SOL    HW120510   8.740   5.972   5.513 -1.9267 -0.9810 -1.7977
 2952SOL    HW220511   8.671   6.087   5.606  2.6049  1.3505 -1.1858
 2953SOL     OW20512   2.886   3.126   6.473  0.5131  0.5055 -0.3455
 2953SOL    HW120513   2.868   3.095   6.380 -0.8110 -0.1886  0.1262
 2953SOL    HW220514   2.943   3.209   6.471  1.2912 -0.0489 -1.7249
 2954SOL     OW20515   3.526   8.681   3.144 -0.1480  0.1788 -0.0005
 2954SOL    HW120516   3.589   8.732   3.203  1.9395 -1.0560 -1.1148
 2954SOL    HW220517   3.506   8.593   3.186  0.6341 -0.3326 -0.6890
 2955SOL     OW20518   5.222   4.595   5.587 -0.6347  0.6788 -0.5636
 2955SOL    HW120519   5.190   4.686   5.613 -0.7163 -0.0221  1.8792
 2955SOL    HW220520   5.143   4.532   5.584 -0.3088  0.2620 -0.3860
 2956SOL     OW20521   7.697   6.266   3.073  0.0695  0.3310 -0.1346
 2956SOL    HW120522   7.796   6.274   3.072  0.0053  1.1785 -0.2296
 2956SOL    HW220523   7.656   6.354   3.047 -0.7283  0.8655  2.6801
 2957SOL     OW20524   4.029   0.464   6.646  0.5453 -0.0426 -0.3803
 2957SOL    HW120525   3.992   0.477   6.554 -1.8035  0.4441  0.5780
 2957SOL    HW220526   4.059   0.552   6.683  0.6763 -0.0913 -0.3738
 2958SOL     OW20527   8.938   5.642   4.644 -0.1021  0.1603 -0.3233
 2958SOL    HW120528   8.927   5.545   4.665 -2.1655  0.5105  0.3588
 2958SOL    HW220529   8.903   5.661   4.553  3.3646 -0.2899 -1.8244
 2959SOL     OW20530   1.423   9.300   3.186  0.2096  0.9018  0.0459
 2959SOL    HW120531   1.469   9.211   3.180 -0.3902  0.6512 -0.9988
 2959SOL    HW220532   1.451   9.357   3.109  1.4798  2.0718  1.3264
 2960SOL     OW20533   5.913   1.727   3.785  0.2537  0.2494 -0.4206
 2960SOL    HW120534   5.873   1.710   3.875  0.9132 -0.4128 -0.2557
 2960SOL    HW220535   5.873   1.664   3.718 -0.1761  0.6869 -0.5826
 2961SOL     OW20536   8.516   7.791   1.579  0.0092 -0.1381 -0.2749
 2961SOL    HW120537   8.463   7.711   1.606 -2.4346  1.5175  0.0082
 2961SOL    HW220538   8.498   7.866   1.643  0.6792  1.2458 -1.6786
 2962SOL     OW20539   9.818   6.254   4.354 -0.0425 -0.9017  0.3528
 2962SOL    HW120540   9.857   6.301   4.433  0.1488 -1.3858  0.5490
 2962SOL    HW220541   9.890   6.238   4.286 -0.4866  0.7271 -0.5104
 2963SOL     OW20542   3.850   3.271   3.224 -0.2219  0.1075  0.2352
 2963SOL    HW120543   3.931   3.231   3.180 -0.4381  0.5787 -0.5927
 2963SOL    HW220544   3.872   3.362   3.258  0.4571 -0.9404  2.6965
 2964SOL     OW20545   5.518   2.134   0.135  0.0632 -0.5740  0.7844
 2964SOL    HW120546   5.596   2.195   0.152 -0.9228  0.7490  0.6328
 2964SOL    HW220547   5.470   2.164   0.053 -0.5130 -1.4890  0.7863
 2965SOL     OW20548   2.257   4.318   6.376  0.0412  0.0905 -0.2817
 2965SOL    HW120549   2.180   4.271   6.333 -0.0020 -0.1527  0.0574
 2965SOL    HW220550   2.300   4.257   6.443 -0.7426  0.9478  1.0196
 2966SOL     OW20551   2.408   9.089   6.827 -0.6452  0.3971 -0.7309
 2966SOL    HW120552   2.462   9.027   6.770 -0.7914 -0.1518 -0.2866
 2966SOL    HW220553   2.436   9.183   6.811 -2.3501  0.4704 -3.4953
 2967SOL     OW20554   8.017   0.132   7.560 -0.2069 -0.2285  0.6798
 2967SOL    HW120555   8.052   0.222   7.589  0.5450 -0.5618  0.8358
 2967SOL    HW220556   7.920   0.139   7.539 -0.1438  0.6352  0.6515
 2968SOL     OW20557   9.342   5.222   5.317  0.3636  0.1865  0.1587
 2968SOL    HW120558   9.254   5.234   5.272 -0.4587 -0.5587  1.5653
 2968SOL    HW220559   9.353   5.127   5.347  1.3195  0.4437  0.6676
 2969SOL     OW20560   8.011   3.389   6.087 -0.0614 -0.1385 -0.0809
 2969SOL    HW120561   8.005   3.320   6.015  0.7653 -0.4593  0.1512
 2969SOL    HW220562   8.009   3.480   6.047 -1.9112 -0.2742 -0.3413
 2970SOL     OW20563   4.133   8.311   4.027 -0.0192 -0.7345 -0.3273
 2970SOL    HW120564   4.088   8.374   4.090  2.6861  1.2356 -0.2574
 2970SOL    HW220565   4.205   8.261   4.076  0.6607 -0.7754 -1.3563
 2971SOL     OW20566   2.727   8.905   2.959  0.1116 -0.0985  0.5477
 2971SOL    HW120567   2.789   8.960   2.902  0.4172 -1.6677 -0.6469
 2971SOL    HW220568   2.634   8.940   2.951  0.3900  0.5762  0.2214
 2972SOL     OW20569   2.154   1.794   6.377  0.3284  0.3189 -0.3213
 2972SOL    HW120570   2.071   1.849   6.379  0.6048  0.8026 -1.4471
 2972SOL    HW220571   2.135   1.706   6.335 -0.1502 -0.5328  1.6242
 2973SOL     OW20572   3.139   6.965   0.235  0.5095  0.1358  0.3459
 2973SOL    HW120573   3.049   7.008   0.237  0.2515 -0.4171  1.0918
 2973SOL    HW220574   3.163   6.941   0.141 -0.6142 -0.7118  0.2650
 2974SOL     OW20575   8.659   4.089   6.203 -0.2010 -0.3215  0.0254
 2974SOL    HW120576   8.625   4.163   6.146  1.0162  0.0823 -0.1866
 2974SOL    HW220577   8.644   4.002   6.156  0.6008 -0.0087 -0.8268
 2975SOL     OW20578   9.962   2.399   1.984 -0.0369  0.2086  0.0621
 2975SOL    HW120579   9.978   2.354   1.896  1.0780  3.0788 -1.2709
 2975SOL    HW220580   9.889   2.467   1.973  1.6144  2.1463  0.7653
 2976SOL     OW20581   1.014   2.676   2.267  0.3533  1.2597  0.6130
 2976SOL    HW120582   1.028   2.587   2.310  1.6280  0.1920 -1.8824
 2976SOL    HW220583   1.102   2.722   2.256 -0.2832  2.7812  1.7486
 2977SOL     OW20584   3.134   5.615   0.095 -0.2254 -0.0846  0.6180
 2977SOL    HW120585   3.127   5.714   0.110 -0.1684  0.0646 -0.3155
 2977SOL    HW220586   3.129   5.596  -0.003  0.5919 -0.9407  0.7365
 2978SOL     OW20587   1.427   9.802   4.546  0.0664  0.1405 -0.1620
 2978SOL    HW120588   1.493   9.733   4.577  1.3284  1.6806  0.6510
 2978SOL    HW220589   1.336   9.760   4.541  1.0321 -1.9284 -1.0004
 2979SOL     OW20590   5.120   9.106   3.044  0.1010  0.2648 -0.3650
 2979SOL    HW120591   5.119   9.134   3.139 -0.1284 -1.4585  0.1617
 2979SOL    HW220592   5.081   9.178   2.987  0.0018  1.1975  0.8627
 2980SOL     OW20593   2.493   0.880   6.951  0.5465  0.2830  0.1123
 2980SOL    HW120594   2.564   0.853   7.016  0.9763  0.2606 -0.3583
 2980SOL    HW220595   2.498   0.978   6.935  0.3664  0.3066  0.2045
 2981SOL     OW20596   4.923   4.743   7.632 -0.2819 -0.1178  0.1982
 2981SOL    HW120597   4.900   4.840   7.628  0.4160  0.1414  1.9877
 2981SOL    HW220598   4.846   4.692   7.670 -0.1083 -0.0647  0.6222
 2982SOL     OW20599   2.767   7.566   5.729  0.4244 -0.1894  0.7696
 2982SOL    HW120600   2.683   7.619   5.719  0.9230  0.4622 -0.0002
 2982SOL    HW220601   2.773   7.499   5.654  0.8086  0.0608  0.5786
 2983SOL     OW20602   2.675   2.073   8.056  0.1723 -0.6201 -0.3322
 2983SOL    HW120603   2.741   2.018   8.003  0.2870 -1.1550  0.3497
 2983SOL    HW220604   2.723   2.117   8.131 -0.2863 -1.1848  0.2947
 2984SOL     OW20605   4.069   5.462   2.723  0.0247  0.0476 -0.1851
 2984SOL    HW120606   4.169   5.464   2.716  0.0972 -0.9007  0.4713
 2984SOL    HW220607   4.029   5.466   2.631  0.5878  3.5808 -0.3148
 2985SOL     OW20608   3.367   1.422   7.165 -0.0961 -0.1029  0.3399
 2985SOL    HW120609   3.298   1.490   7.188  0.5115  0.8051 -0.5134
 2985SOL    HW220610   3.429   1.409   7.243  0.4870  1.1786  0.1009
 2986SOL     OW20611   9.062   9.875   7.259 -0.0494  0.3691 -0.5444
 2986SOL    HW120612   9.042   9.831   7.347 -0.7388  2.2732  0.2802
 2986SOL    HW220613   9.087   9.805   7.192  0.6322 -1.1022  1.1972
 2987SOL     OW20614   8.236   0.543   5.313  0.4356 -0.0234 -0.0601
 2987SOL    HW120615   8.173   0.616   5.286  1.1030  0.2112 -1.0317
 2987SOL    HW220616   8.313   0.583   5.362  0.8099 -0.0577 -0.6093
 2988SOL     OW20617   9.983   7.169   1.429  0.6840  0.2320  0.6098
 2988SOL    HW120618  10.082   7.169   1.414  1.0272 -1.7502  2.5523
 2988SOL    HW220619   9.940   7.106   1.364  0.5823  1.6926 -0.7624
 2989SOL     OW20620   3.734   4.459   6.623 -0.1486  0.5015  0.2367
 2989SOL    HW120621   3.791   4.541   6.623  0.8379 -0.1678 -0.9232
 2989SOL    HW220622   3.792   4.379   6.609 -1.1484 -0.3616  1.0408
 2990SOL     OW20623   9.465   7.167   5.785  0.5282  0.2072  0.2525
 2990SOL    HW120624   9.432   7.135   5.874  0.6233  0.1133  0.2550
 2990SOL    HW220625   9.489   7.088   5.729  0.6651  0.2735  0.2186
 2991SOL     OW20626   2.723   4.109   4.611  0.2023  0.7949  0.6429
 2991SOL    HW120627   2.645   4.071   4.562  1.7574 -2.4629  0.5393
 2991SOL    HW220628   2.759   4.187   4.560 -1.9239  1.2499 -0.1936
 2992SOL     OW20629   1.914   5.025   7.905 -0.1387 -0.0430  0.5043
 2992SOL    HW120630   1.997   5.002   7.855  0.1801 -0.4008  1.1855
 2992SOL    HW220631   1.870   4.941   7.938  0.8869  0.2873  2.7691
 2993SOL     OW20632   7.922   3.252   2.082  0.1042  0.5110 -0.4501
 2993SOL    HW120633   7.989   3.317   2.118 -0.2198  0.3548  0.4692
 2993SOL    HW220634   7.830   3.279   2.112 -0.2775  0.8892 -1.9418
 2994SOL     OW20635   8.355   3.446   4.123  0.2674  0.4645 -0.0089
 2994SOL    HW120636   8.381   3.387   4.200 -0.7083  0.1556  0.0863
 2994SOL    HW220637   8.262   3.479   4.136 -0.0250  0.1398 -1.2260
 2995SOL     OW20638   8.482   5.509   1.104 -0.0089  0.2387 -0.3396
 2995SOL    HW120639   8.417   5.550   1.040  1.4643  0.9580 -1.4191
 2995SOL    HW220640   8.498   5.572   1.180  0.4281  0.6422 -0.7617
 2996SOL     OW20641   8.995   0.672   5.507  0.7252  0.2198  0.3956
 2996SOL    HW120642   9.036   0.712   5.425  1.1220  1.7779  1.3262
 2996SOL    HW220643   9.004   0.573   5.504 -0.4232  0.1532 -2.0649
 2997SOL     OW20644   7.513   1.469   7.743 -0.6013  0.0554 -0.7084
 2997SOL    HW120645   7.439   1.482   7.810  0.1778 -0.2593  0.2334
 2997SOL    HW220646   7.475   1.470   7.651 -1.6940  0.5416 -0.2641
 2998SOL     OW20647   8.285   5.635   0.665 -0.1047  0.5895 -0.2855
 2998SOL    HW120648   8.370   5.664   0.620  0.8021 -1.0757  0.2994
 2998SOL    HW220649   8.234   5.575   0.603  0.8487 -1.2112  0.6362
 2999SOL     OW20650   3.631   1.606   2.525  0.6613  0.7100 -0.1239
 2999SOL    HW120651   3.703   1.634   2.462  0.2460  0.2810 -0.7876
 2999SOL    HW220652   3.555   1.566   2.474 -0.4202  1.9252  0.4879
 3000SOL     OW20653   3.563   7.844   3.227 -0.2153 -0.0089  0.3438
 3000SOL    HW120654   3.490   7.782   3.197 -2.5715  1.8648  2.0071
 3000SOL    HW220655   3.537   7.938   3.205  1.1926  0.7869  1.9808
 3001SOL     OW20656   9.181   5.012   2.745 -0.4742  0.7916  0.0131
 3001SOL    HW120657   9.258   5.015   2.810 -0.4164  0.2706 -0.0270
 3001SOL    HW220658   9.205   4.952   2.669 -0.7393  1.0072 -0.2385
 3002SOL     OW20659   2.831   8.780   1.274  0.2868 -0.5747  0.1657
 3002SOL    HW120660   2.804   8.733   1.190 -1.0520  0.9529 -0.2726
 3002SOL    HW220661   2.762   8.765   1.344  0.6915 -0.6371  0.5550
 3003SOL     OW20662   1.685   6.611   5.651  0.4148  0.2545 -0.0266
 3003SOL    HW120663   1.654   6.544   5.584 -0.6421  2.4125 -1.7466
 3003SOL    HW220664   1.634   6.600   5.736 -0.9221 -0.0252 -0.8635
 3004SOL     OW20665   9.909   4.309   1.411 -0.1079 -0.3311 -0.3792
 3004SOL    HW120666   9.842   4.338   1.479  0.6622  2.6238 -0.8099
 3004SOL    HW220667   9.862   4.261   1.337 -1.3201 -1.1143  0.8718
 3005SOL     OW20668   8.738   9.136   1.358  0.4301  0.1118 -0.4985
 3005SOL    HW120669   8.685   9.164   1.438 -0.7987 -1.0504 -0.8918
 3005SOL    HW220670   8.680   9.137   1.277  1.1721 -0.5530 -1.0488
 3006SOL     OW20671   8.179   0.363   1.411  0.3542 -0.5448 -0.0941
 3006SOL    HW120672   8.172   0.424   1.490  0.5625  0.3184 -0.7339
 3006SOL    HW220673   8.242   0.288   1.433 -0.6168 -1.0509  1.0207
 3007SOL     OW20674   3.924   9.695   2.486  0.1156 -0.2177  0.2121
 3007SOL    HW120675   4.005   9.753   2.486 -0.4179  0.5414  0.7622
 3007SOL    HW220676   3.950   9.601   2.505  0.6346  0.3711  2.4907
 3008SOL     OW20677   8.076   4.516   2.194  0.8405 -0.2097 -0.4629
 3008SOL    HW120678   8.053   4.499   2.098  0.1360 -0.5645 -0.2431
 3008SOL    HW220679   8.055   4.611   2.217 -1.2440 -0.7453 -0.0524
 3009SOL     OW20680   0.237   1.988   1.009 -0.3381 -0.4885 -0.4662
 3009SOL    HW120681   0.169   1.969   0.939 -0.4358  1.6797 -0.9928
 3009SOL    HW220682   0.208   2.068   1.063  0.6661 -0.9586  0.7930
 3010SOL     OW20683   3.733   5.179   0.910  0.3432 -0.0546 -0.1286
 3010SOL    HW120684   3.633   5.182   0.913  0.3876  1.9057  0.6816
 3010SOL    HW220685   3.763   5.116   0.839 -1.4758 -0.6159 -0.4166
 3011SOL     OW20686   2.308   3.593   3.736  0.5157  0.0342  0.1578
 3011SOL    HW120687   2.224   3.542   3.749  1.1039 -0.5204  1.9633
 3011SOL    HW220688   2.298   3.656   3.658 -1.7857  0.4921  0.7991
 3012SOL     OW20689   6.066   8.816   2.854  0.0838  0.3869  0.2948
 3012SOL    HW120690   6.160   8.824   2.889  0.3861  0.9571 -0.6049
 3012SOL    HW220691   6.070   8.798   2.755 -0.7528  0.1569  0.3049
 3013SOL     OW20692   8.523   1.012   3.211  0.1304  0.2263 -0.4263
 3013SOL    HW120693   8.565   0.931   3.171  0.2436 -0.5507  1.2332
 3013SOL    HW220694   8.547   1.092   3.156  2.4328 -0.4327 -0.4542
 3014SOL     OW20695   1.099   0.490   4.345  0.1586  0.0381 -0.3625
 3014SOL    HW120696   1.028   0.504   4.414  0.5826 -2.0578  0.5419
 3014SOL    HW220697   1.162   0.419   4.375  1.5037  0.4647 -2.0480
 3015SOL     OW20698   4.522   4.861   0.873  0.3021 -0.0500  0.3571
 3015SOL    HW120699   4.502   4.914   0.790  0.1646 -0.9207 -0.1742
 3015SOL    HW220700   4.620   4.867   0.892  0.1493  1.1368  0.8233
 3016SOL     OW20701   3.450   8.570   5.932  0.0836 -0.2667 -0.3936
 3016SOL    HW120702   3.404   8.583   6.020 -1.2265 -1.8752 -0.8173
 3016SOL    HW220703   3.395   8.611   5.859  0.2191 -0.5922 -0.6829
 3017SOL     OW20704   3.240   2.211   0.750 -0.6203  0.1953 -0.5278
 3017SOL    HW120705   3.281   2.240   0.836 -1.7386  2.4096 -0.7057
 3017SOL    HW220706   3.312   2.200   0.681  0.1677 -0.6307  0.4133
 3018SOL     OW20707   6.944   9.610   2.473 -0.3566 -0.2430  0.4681
 3018SOL    HW120708   6.906   9.525   2.434 -0.9157 -0.7279  1.9937
 3018SOL    HW220709   7.018   9.643   2.416  0.4899 -2.2908  0.3397
 3019SOL     OW20710   0.532   0.436   1.844  0.5316  0.3138 -0.0600
 3019SOL    HW120711   0.599   0.422   1.917 -0.1004  2.5828  0.9868
 3019SOL    HW220712   0.440   0.434   1.883  0.1648  0.9683 -0.8914
 3020SOL     OW20713   3.127   3.399   8.023  0.3274  0.4796  0.1790
 3020SOL    HW120714   3.128   3.468   8.096  0.1986  1.9628 -1.1739
 3020SOL    HW220715   3.039   3.402   7.975  1.5612  1.8443 -2.1165
 3021SOL     OW20716   2.095   5.463   5.255 -0.6466 -0.7778  0.3991
 3021SOL    HW120717   2.077   5.449   5.157  0.0375 -0.7746  0.2693
 3021SOL    HW220718   2.019   5.426   5.308 -1.0724 -0.6927 -0.1397
 3022SOL     OW20719   9.619   5.954   5.457  0.3159  0.3788  0.2829
 3022SOL    HW120720   9.530   5.969   5.415  0.6979  0.1739 -0.6172
 3022SOL    HW220721   9.662   5.874   5.416  1.3088  1.0129  0.0787
 3023SOL     OW20722   4.944   3.502   4.572  0.2498 -0.1127 -0.1140
 3023SOL    HW120723   4.964   3.421   4.517  0.3364  0.6594 -1.2215
 3023SOL    HW220724   4.929   3.580   4.512 -1.4838  0.3346  0.8763
 3024SOL     OW20725   0.123   3.456   2.802 -0.0124 -0.1004 -0.6254
 3024SOL    HW120726   0.034   3.443   2.844  0.5599  0.5309  0.8158
 3024SOL    HW220727   0.112   3.478   2.705 -1.4501  0.8073 -0.2664
 3025SOL     OW20728   1.234   7.466   5.074  0.2255  0.8707 -0.6695
 3025SOL    HW120729   1.284   7.552   5.063 -0.7619  1.7691  1.4149
 3025SOL    HW220730   1.139   7.479   5.045  0.8004 -0.3861 -3.1629
 3026SOL     OW20731   5.894   1.241   4.633  0.2993  0.1397 -0.4787
 3026SOL    HW120732   5.809   1.278   4.670  0.2874 -1.1467  0.8327
 3026SOL    HW220733   5.889   1.240   4.534 -0.8736  0.8757 -0.4422
 3027SOL     OW20734   8.256   6.677   7.557 -0.4807 -0.1107 -0.4145
 3027SOL    HW120735   8.312   6.759   7.570 -2.4234  1.1962 -0.0626
 3027SOL    HW220736   8.230   6.641   7.646  0.3072 -1.0888 -0.5709
 3028SOL     OW20737   9.419   2.113   6.947 -0.3627 -0.0183 -0.4308
 3028SOL    HW120738   9.436   2.211   6.935  1.2392 -0.2757 -0.3920
 3028SOL    HW220739   9.472   2.062   6.880  0.2827 -0.9422  0.7564
 3029SOL     OW20740   0.841   3.396   6.770  0.3464 -0.0688 -0.2142
 3029SOL    HW120741   0.768   3.458   6.799 -0.8183 -1.5255  0.0092
 3029SOL    HW220742   0.838   3.385   6.671  1.8442  1.8032 -0.5040
 3030SOL     OW20743   2.766   5.103   5.749  0.0864  0.1094 -0.3934
 3030SOL    HW120744   2.695   5.051   5.796  0.1958  0.4595  0.1630
 3030SOL    HW220745   2.840   5.041   5.721 -0.4703 -0.2652 -1.0424
 3031SOL     OW20746   3.699   8.189   5.901  0.3161  0.0185 -0.3330
 3031SOL    HW120747   3.637   8.266   5.891  0.0358 -0.3328 -1.3623
 3031SOL    HW220748   3.777   8.216   5.957 -0.1739  0.8112 -0.0280
 3032SOL     OW20749   9.643   2.957   1.941  0.2849  0.1419  0.9273
 3032SOL    HW120750   9.644   3.022   2.017 -0.2986  1.7572 -0.4377
 3032SOL    HW220751   9.718   2.892   1.952  1.4428  1.6029  1.8203
 3033SOL     OW20752   9.431   3.694   4.594  0.0303  0.1353  0.3455
 3033SOL    HW120753   9.487   3.639   4.533 -1.7955 -1.2196 -0.1599
 3033SOL    HW220754   9.433   3.656   4.686 -0.7410 -0.4403  0.1315
 3034SOL     OW20755   3.380   9.988   8.170 -0.8606 -0.4143  0.3419
 3034SOL    HW120756   3.375  10.076   8.123  0.6139 -0.5329 -0.0596
 3034SOL    HW220757   3.295   9.938   8.155 -1.8645  1.0765  0.8745
 3035SOL     OW20758   6.215   5.268   7.263 -0.5272  0.0325 -0.6980
 3035SOL    HW120759   6.176   5.199   7.202 -1.2154 -0.8504  0.7019
 3035SOL    HW220760   6.169   5.263   7.352 -0.4869  2.2181 -0.5282
 3036SOL     OW20761   0.231   3.123   6.059  0.2666  0.4465 -0.5604
 3036SOL    HW120762   0.164   3.114   5.985  1.3989 -1.4779 -1.3809
 3036SOL    HW220763   0.224   3.043   6.120  0.6946  1.0488  0.2841
 3037SOL     OW20764   9.795   9.618   2.986 -0.1898  0.7499  0.1165
 3037SOL    HW120765   9.697   9.639   2.981 -0.2378  0.3899 -0.4778
 3037SOL    HW220766   9.838   9.641   2.899  0.3621  1.4347  0.5636
 3038SOL     OW20767   8.946   6.332   1.921 -0.0848 -0.4475 -0.3898
 3038SOL    HW120768   8.916   6.409   1.865 -0.5786  0.3372  0.9134
 3038SOL    HW220769   8.867   6.272   1.938  0.2335 -1.0933 -1.1619
 3039SOL     OW20770   8.565   1.533   3.065  0.6159 -0.1928  0.2153
 3039SOL    HW120771   8.576   1.609   3.002 -0.6976  1.0075  1.4129
 3039SOL    HW220772   8.632   1.541   3.140  1.5642 -1.1214 -0.5106
 3040SOL     OW20773   0.037   1.458   1.297  0.7838  0.1732 -0.3180
 3040SOL    HW120774   0.050   1.380   1.235  1.9632 -1.1517  1.5568
 3040SOL    HW220775  -0.047   1.446   1.349 -0.0798  1.1680 -1.4561
 3041SOL     OW20776   4.386   8.211   2.279  0.5421 -0.2009  0.0820
 3041SOL    HW120777   4.360   8.194   2.374  0.6845  1.3957  0.4334
 3041SOL    HW220778   4.311   8.260   2.233  1.6262  1.6336  0.2155
 3042SOL     OW20779   8.443   0.692   3.699 -0.0021 -0.8283 -0.2098
 3042SOL    HW120780   8.474   0.775   3.746  1.2914 -0.5940 -1.4502
 3042SOL    HW220781   8.478   0.611   3.746  0.0395 -0.6370  0.0882
 3043SOL     OW20782   2.316   7.483   3.787 -0.9832  0.0908  0.0478
 3043SOL    HW120783   2.319   7.531   3.875  0.0632  0.7229 -0.3271
 3043SOL    HW220784   2.398   7.504   3.735 -1.8179  0.0739 -1.2906
 3044SOL     OW20785   1.187   7.344   3.614  0.2323 -0.3549 -0.1662
 3044SOL    HW120786   1.136   7.281   3.556 -0.8232 -0.8166  1.2469
 3044SOL    HW220787   1.269   7.299   3.648  0.8786 -0.0708 -1.2906
 3045SOL     OW20788   0.817   6.793   5.927  0.3891  0.0019 -0.1158
 3045SOL    HW120789   0.890   6.843   5.881 -1.1379  0.3250 -2.2911
 3045SOL    HW220790   0.809   6.825   6.021  3.8978 -0.9895  0.5926
 3046SOL     OW20791   2.378   3.539   1.999  0.1909  0.2500  0.5291
 3046SOL    HW120792   2.468   3.500   1.984  0.2151  0.0077  1.2695
 3046SOL    HW220793   2.367   3.621   1.942  0.6725 -0.0230  0.0411
 3047SOL     OW20794   2.859   2.276   3.885  0.2957 -0.1838  0.1384
 3047SOL    HW120795   2.811   2.314   3.964  2.3954  2.6323  0.1815
 3047SOL    HW220796   2.942   2.230   3.915  0.4025 -0.2998 -0.3201
 3048SOL     OW20797   0.518   7.096   1.097  0.4029 -0.0433 -0.3329
 3048SOL    HW120798   0.540   7.126   1.004 -1.1642 -0.4174 -0.8566
 3048SOL    HW220799   0.494   6.999   1.096 -0.0995  0.0628  0.3682
 3049SOL     OW20800   8.320   8.643   4.541  0.1673 -0.4882 -0.3011
 3049SOL    HW120801   8.284   8.686   4.457  2.7594  0.3380 -1.0446
 3049SOL    HW220802   8.320   8.544   4.530 -1.2136 -0.4588 -0.5712
 3050SOL     OW20803   1.743   9.151   4.059  0.0130 -0.0536  0.3405
 3050SOL    HW120804   1.795   9.198   4.131 -0.3612 -0.7972  1.1138
 3050SOL    HW220805   1.676   9.213   4.020  3.6978  2.0340 -3.0563
 3051SOL     OW20806   0.275   7.778   2.468  0.0686 -0.1458  0.1141
 3051SOL    HW120807   0.275   7.681   2.493  1.0455 -0.0890  0.3430
 3051SOL    HW220808   0.308   7.832   2.545 -0.8629  0.4174  0.1301
 3052SOL     OW20809   8.843   6.304   4.667  0.5758 -0.0222 -0.0230
 3052SOL    HW120810   8.771   6.237   4.650  0.2095  0.4031 -0.1899
 3052SOL    HW220811   8.929   6.258   4.688  0.1380 -0.5339  0.6431
 3053SOL     OW20812   6.282   9.591   6.155 -0.0839  0.1142 -0.3979
 3053SOL    HW120813   6.292   9.624   6.061 -0.1344  2.0687  0.2675
 3053SOL    HW220814   6.214   9.646   6.203 -1.8439 -2.3739  0.1216
 3054SOL     OW20815   5.482   9.426   1.487 -0.7523  0.6469 -0.1748
 3054SOL    HW120816   5.482   9.395   1.392  1.1564 -0.8165  0.2790
 3054SOL    HW220817   5.407   9.492   1.501 -3.1126 -1.5850 -1.8755
 3055SOL     OW20818   1.776   5.022   1.712 -0.3185 -0.1326  0.2669
 3055SOL    HW120819   1.746   5.107   1.669 -1.4422 -0.8437 -0.3967
 3055SOL    HW220820   1.828   4.968   1.646 -0.6237 -0.4851  0.3146
 3056SOL     OW20821   0.602   1.880   2.619  0.8999 -0.0090 -0.2033
 3056SOL    HW120822   0.518   1.913   2.576  0.5238 -0.2671  0.3360
 3056SOL    HW220823   0.581   1.844   2.710  1.3502 -1.4280 -0.6531
 3057SOL     OW20824   2.345   7.823   6.510 -0.2417 -0.1316  0.1512
 3057SOL    HW120825   2.369   7.754   6.441  0.1597 -0.1142  0.2747
 3057SOL    HW220826   2.397   7.807   6.593  1.1974  1.3733 -0.4199
 3058SOL     OW20827   2.422   6.937   0.732 -0.0090  0.3083  0.2969
 3058SOL    HW120828   2.478   6.901   0.806  0.3220  0.2251  0.0104
 3058SOL    HW220829   2.451   6.895   0.646 -0.9117 -0.1854  0.2258
 3059SOL     OW20830   8.724   0.378   2.512  0.0467 -0.0250  0.6233
 3059SOL    HW120831   8.797   0.323   2.553 -0.0393 -0.1421  0.6186
 3059SOL    HW220832   8.757   0.417   2.426 -0.1054 -0.5817  0.3095
 3060SOL     OW20833   5.474   2.223   3.891  0.0702 -0.4814  0.0986
 3060SOL    HW120834   5.404   2.152   3.905 -0.7755  0.0617 -1.2186
 3060SOL    HW220835   5.430   2.313   3.888  0.9007 -0.0774 -0.1554
 3061SOL     OW20836   1.967   8.053   0.851  0.3643 -0.1947 -0.0109
 3061SOL    HW120837   1.969   8.147   0.817 -0.4849 -0.5141 -0.9757
 3061SOL    HW220838   2.059   8.025   0.878  1.1377 -0.0757 -2.4702
 3062SOL     OW20839   3.780   8.573   3.349  0.0660  0.0315  0.7519
 3062SOL    HW120840   3.727   8.531   3.423 -1.1670  0.2995  0.0448
 3062SOL    HW220841   3.759   8.526   3.263  1.8326 -0.5725  0.6387
 3063SOL     OW20842   8.652   8.176   1.298  0.0434 -0.0064  0.2617
 3063SOL    HW120843   8.644   8.091   1.350  1.1192  0.1259  0.6697
 3063SOL    HW220844   8.749   8.196   1.283 -0.2186  0.9072 -0.2326
 3064SOL     OW20845   2.369   6.325   6.660 -0.2587  0.6378  0.0134
 3064SOL    HW120846   2.320   6.245   6.694  1.2765 -1.1247 -1.7726
 3064SOL    HW220847   2.450   6.340   6.717  0.3343 -0.0974 -0.6189
 3065SOL     OW20848   4.542   3.950   4.156 -0.4357  0.1580  0.0203
 3065SOL    HW120849   4.538   3.862   4.110 -0.9831  0.9155 -1.3987
 3065SOL    HW220850   4.631   3.960   4.202 -0.1977 -0.9210 -0.2006
 3066SOL     OW20851   9.613   1.348   4.529 -0.3845 -0.3416  0.3583
 3066SOL    HW120852   9.630   1.430   4.475 -3.0421 -0.3511 -0.5300
 3066SOL    HW220853   9.588   1.374   4.623 -2.2192 -0.0714 -0.1900
 3067SOL     OW20854   3.553   4.195   6.903  0.1828 -0.5213 -0.0477
 3067SOL    HW120855   3.511   4.254   6.834  0.4113 -1.6552 -1.1784
 3067SOL    HW220856   3.506   4.208   6.990 -1.8149 -0.9517 -1.0172
 3068SOL     OW20857   5.562   6.347   0.596  0.3456 -0.1672  0.3661
 3068SOL    HW120858   5.586   6.385   0.685 -3.0880  0.1233  1.2203
 3068SOL    HW220859   5.473   6.382   0.567  0.3809 -2.0107 -2.1705
 3069SOL     OW20860   2.085   3.267   7.732 -0.1283  0.2639  0.0744
 3069SOL    HW120861   2.072   3.168   7.732 -1.9588  0.4761 -0.2932
 3069SOL    HW220862   2.032   3.308   7.806 -0.5431  1.0886 -0.6611
 3070SOL     OW20863   8.555   3.058   4.526  0.1837 -0.3888  0.0086
 3070SOL    HW120864   8.517   3.043   4.435  0.0472  0.0138 -0.0003
 3070SOL    HW220865   8.530   3.149   4.558  0.5957 -0.3643  0.2684
 3071SOL     OW20866   2.590   3.714   6.005  0.0652 -0.1848 -0.0716
 3071SOL    HW120867   2.555   3.629   6.045 -1.5167  0.0306 -0.9636
 3071SOL    HW220868   2.513   3.773   5.981  1.0786  0.5495 -1.5351
 3072SOL     OW20869   7.214   2.907   2.021 -0.1207 -0.6649  0.8970
 3072SOL    HW120870   7.169   2.881   2.107  2.2322 -1.3828  1.9522
 3072SOL    HW220871   7.310   2.880   2.025 -0.0489 -0.9503 -2.0990
 3073SOL     OW20872   3.402   7.157   7.590  0.0950 -0.1006  0.1424
 3073SOL    HW120873   3.378   7.136   7.685 -3.3623  0.6919 -0.5159
 3073SOL    HW220874   3.362   7.089   7.529 -0.4488  1.2192 -1.0010
 3074SOL     OW20875   3.587   9.485   0.099  0.2954  0.7232 -0.2831
 3074SOL    HW120876   3.651   9.427   0.150  0.5704  0.1513 -1.2707
 3074SOL    HW220877   3.638   9.544   0.036 -0.1464  0.3599 -0.9749
 3075SOL     OW20878   9.315   0.811   7.566 -0.6090  0.1337  0.1787
 3075SOL    HW120879   9.323   0.844   7.660 -2.2348  0.1286  0.3211
 3075SOL    HW220880   9.348   0.717   7.561  1.9468  0.9719  0.2088
 3076SOL     OW20881   4.777   1.243   4.649  0.1671 -0.5155 -0.4051
 3076SOL    HW120882   4.809   1.165   4.596 -0.8821 -0.5239 -1.0348
 3076SOL    HW220883   4.768   1.216   4.745  1.9913 -0.5197 -0.2319
 3077SOL     OW20884   8.576   7.313   0.695  0.0608  0.2605 -0.5230
 3077SOL    HW120885   8.641   7.336   0.622  0.2992 -0.8094 -0.6597
 3077SOL    HW220886   8.521   7.234   0.667 -1.3480  1.1829 -0.4266
 3078SOL     OW20887   3.967   8.568   5.135 -0.4099  0.1063  0.2154
 3078SOL    HW120888   3.941   8.554   5.230 -0.1741 -3.8933 -0.2450
 3078SOL    HW220889   4.066   8.554   5.125 -0.7160 -1.4236 -0.9053
 3079SOL     OW20890   0.230   1.267   7.049  0.0599 -1.1644  0.5077
 3079SOL    HW120891   0.158   1.202   7.025 -1.5078  0.1826  1.4559
 3079SOL    HW220892   0.306   1.258   6.984 -1.4398 -1.8497 -1.2115
 3080SOL     OW20893   2.664   2.262   0.313  0.6000 -0.3436  0.3679
 3080SOL    HW120894   2.645   2.298   0.222  1.4098 -2.3809 -0.6354
 3080SOL    HW220895   2.758   2.282   0.338  0.2242  0.6919  1.0159
 3081SOL     OW20896   3.637   5.269   2.947 -0.2169 -0.1232 -0.0514
 3081SOL    HW120897   3.546   5.298   2.974  0.0098  1.6355 -1.1062
 3081SOL    HW220898   3.682   5.342   2.894  1.4252 -1.3266 -0.3801
 3082SOL     OW20899   8.605   5.345   4.991  0.2080  0.1740  0.1806
 3082SOL    HW120900   8.641   5.337   4.897  3.0799  1.2296  1.1359
 3082SOL    HW220901   8.537   5.273   5.006 -0.7876  0.3555 -2.8938
 3083SOL     OW20902   1.389   4.387   4.455 -0.0275 -0.3001 -0.2084
 3083SOL    HW120903   1.410   4.485   4.456  0.2101 -0.3412 -1.1140
 3083SOL    HW220904   1.472   4.335   4.474  0.0854 -0.3610 -0.8537
 3084SOL     OW20905   4.652   1.165   2.219 -0.5041  0.6218  0.0776
 3084SOL    HW120906   4.704   1.110   2.154  0.0235  1.2095 -0.0012
 3084SOL    HW220907   4.565   1.192   2.177 -0.9778 -0.5250  0.2817
 3085SOL     OW20908   4.050   8.105   3.624 -0.1319 -0.1096 -0.8980
 3085SOL    HW120909   4.138   8.107   3.672 -0.5326 -0.2096 -0.1567
 3085SOL    HW220910   4.023   8.198   3.600  0.3280 -0.1058 -1.4098
 3086SOL     OW20911   4.513   3.493   6.454 -0.0178 -0.8540 -0.3925
 3086SOL    HW120912   4.489   3.536   6.541 -0.4129 -0.1625 -0.8321
 3086SOL    HW220913   4.612   3.481   6.448  0.0941 -0.0514 -0.2352
 3087SOL     OW20914   8.825   7.609   5.318 -0.2680 -0.4323  0.3491
 3087SOL    HW120915   8.836   7.705   5.344  1.6123 -0.8419  1.1245
 3087SOL    HW220916   8.728   7.588   5.309 -0.6835  1.9667 -1.4879
 3088SOL     OW20917   7.742   2.564   0.099  0.1132 -0.2409  0.0771
 3088SOL    HW120918   7.812   2.551   0.169  2.2652  0.0316 -1.9404
 3088SOL    HW220919   7.770   2.637   0.037 -1.5823 -0.6671 -1.2376
 3089SOL     OW20920   4.296   6.914   2.330  0.2680  0.2878 -0.4015
 3089SOL    HW120921   4.363   6.932   2.401 -1.8310  2.1918  1.1731
 3089SOL    HW220922   4.263   6.820   2.340 -0.5026  0.7371  1.6215
 3090SOL     OW20923   2.074   7.956   0.056  0.1658  0.1071 -0.2136
 3090SOL    HW120924   2.129   8.039   0.063 -1.4638  1.2282 -0.5407
 3090SOL    HW220925   2.037   7.933   0.146  0.3608 -0.0930 -0.1838
 3091SOL     OW20926   9.721   8.619   1.008 -0.5609  0.6349  0.2162
 3091SOL    HW120927   9.622   8.615   1.015 -0.6097 -1.2407 -0.9896
 3091SOL    HW220928   9.748   8.613   0.912  0.7156  1.5933  0.4915
 3092SOL     OW20929   0.821   3.466   5.802  0.8700 -0.4777 -0.3650
 3092SOL    HW120930   0.865   3.377   5.811  0.0580 -1.0987 -2.1663
 3092SOL    HW220931   0.861   3.515   5.725  0.4679  0.2023 -0.1453
 3093SOL     OW20932   4.743   5.684   0.048  0.4015 -0.0714 -0.2151
 3093SOL    HW120933   4.784   5.731   0.127  0.6377  0.1728 -0.4796
 3093SOL    HW220934   4.774   5.728  -0.036 -0.4893  0.1716 -0.4183
 3094SOL     OW20935   0.959   6.371   0.726 -0.1492  0.7392  0.2578
 3094SOL    HW120936   0.870   6.406   0.697 -0.3418 -0.5490 -0.7302
 3094SOL    HW220937   0.964   6.273   0.708  0.8841  0.4984  1.7886
 3095SOL     OW20938   3.384   6.454   1.021 -0.0377  0.2398 -0.0593
 3095SOL    HW120939   3.375   6.551   1.043 -2.2167  0.2426 -0.8876
 3095SOL    HW220940   3.392   6.401   1.105  0.5395  1.0679  0.4167
 3096SOL     OW20941   9.586   8.001   4.430 -0.2722  0.0530  0.0759
 3096SOL    HW120942   9.621   7.930   4.491 -0.0737 -0.8759 -1.0848
 3096SOL    HW220943   9.601   7.973   4.335 -0.1430  1.6938 -0.3924
 3097SOL     OW20944   5.870   3.803   1.893 -0.2421  0.3129  0.1763
 3097SOL    HW120945   5.889   3.878   1.955  1.2258 -1.1899  1.5995
 3097SOL    HW220946   5.840   3.723   1.945  2.6291 -1.5068 -0.7906
 3098SOL     OW20947   0.262   5.278   8.110  0.1959 -0.1675 -0.4666
 3098SOL    HW120948   0.252   5.233   8.022  0.3934  2.1344 -1.7118
 3098SOL    HW220949   0.358   5.306   8.122 -0.1747  1.0758 -0.3255
 3099SOL     OW20950   5.615   7.604   4.426  0.5656 -0.2002  0.2710
 3099SOL    HW120951   5.635   7.520   4.476  0.1187 -1.1602 -1.1331
 3099SOL    HW220952   5.694   7.630   4.370  0.8031  0.4641  0.9135
 3100SOL     OW20953   6.428   8.457   3.219  0.1142  0.2901  0.3646
 3100SOL    HW120954   6.427   8.506   3.307 -0.5247 -0.1765  0.6172
 3100SOL    HW220955   6.521   8.460   3.181  0.5139  0.0640  1.3001
 3101SOL     OW20956   0.781   5.704   2.502  0.0485 -0.2846  0.0129
 3101SOL    HW120957   0.879   5.693   2.484  0.4114  0.9115  1.1638
 3101SOL    HW220958   0.742   5.617   2.531  0.6718 -0.8675 -0.8420
 3102SOL     OW20959   3.334   6.081   0.333  0.4795 -0.2463  0.1411
 3102SOL    HW120960   3.432   6.066   0.325  0.3109 -1.4085  0.1196
 3102SOL    HW220961   3.292   6.002   0.378 -0.2732  0.7807  1.2741
 3103SOL     OW20962   2.710   4.599   3.914 -0.9298 -0.4415 -0.1400
 3103SOL    HW120963   2.651   4.594   3.995  0.9213 -1.5475  1.1690
 3103SOL    HW220964   2.791   4.653   3.935 -0.4998 -0.6228 -1.3005
 3104SOL     OW20965   2.151   6.409   5.050  0.5220  0.5107  0.5099
 3104SOL    HW120966   2.195   6.356   4.978  0.2265 -1.7628  1.9489
 3104SOL    HW220967   2.201   6.495   5.064  3.0759 -0.9271  0.4900
 3105SOL     OW20968   3.753   6.464   3.261 -0.5632 -0.4863 -0.2350
 3105SOL    HW120969   3.813   6.385   3.251 -1.8435 -1.8981  2.5463
 3105SOL    HW220970   3.658   6.436   3.254 -1.0329  0.8363  0.5198
 3106SOL     OW20971   5.259   3.054   5.078  0.0640  0.8103  0.0984
 3106SOL    HW120972   5.335   3.005   5.119 -1.4622 -0.2546  1.7289
 3106SOL    HW220973   5.251   3.029   4.982  0.7862 -0.3042  0.3213
 3107SOL     OW20974   2.979   9.669   6.087  0.1129  0.3719  0.2221
 3107SOL    HW120975   2.977   9.725   6.005 -1.7225  0.8329  0.5657
 3107SOL    HW220976   2.930   9.583   6.071  0.5106  0.0775  0.5589
 3108SOL     OW20977   0.805   5.390   0.656 -0.3242 -0.0636 -0.5417
 3108SOL    HW120978   0.847   5.329   0.723  0.4953  1.0634 -0.0191
 3108SOL    HW220979   0.710   5.408   0.682  0.7813  2.6300  1.9344
 3109SOL     OW20980   9.668   5.374   2.209 -0.0210 -0.4582 -0.1883
 3109SOL    HW120981   9.623   5.461   2.227  1.4696  0.1692  0.6534
 3109SOL    HW220982   9.694   5.331   2.296 -2.2042 -2.5553 -0.5364
 3110SOL     OW20983   2.806   5.184   2.214  0.1150  0.4609 -0.3191
 3110SOL    HW120984   2.760   5.208   2.128 -0.2814 -1.5995 -0.6930
 3110SOL    HW220985   2.789   5.088   2.235  2.1680  0.3485  0.8686
 3111SOL     OW20986   8.707   7.135   4.720 -0.0564  0.0636  0.0742
 3111SOL    HW120987   8.665   7.049   4.749 -0.7371  0.0771 -0.8632
 3111SOL    HW220988   8.639   7.208   4.722  0.3611  0.4530  0.2400
 3112SOL     OW20989   2.616   0.570   0.621 -0.3035 -0.3679 -0.1102
 3112SOL    HW120990   2.710   0.536   0.623 -0.2436 -0.1695  0.5387
 3112SOL    HW220991   2.588   0.583   0.526  0.6240  0.4082 -0.2889
 3113SOL     OW20992   3.172   8.773   7.256  0.4847  0.3993 -0.1450
 3113SOL    HW120993   3.211   8.864   7.246 -1.4294  1.0652 -1.8788
 3113SOL    HW220994   3.109   8.772   7.334  0.9171  0.4145  0.2046
 3114SOL     OW20995   1.229   8.173   2.545  0.1027  1.2034 -0.4209
 3114SOL    HW120996   1.129   8.167   2.547  0.2238 -1.1541  0.5573
 3114SOL    HW220997   1.268   8.080   2.544  2.2824  2.0835 -0.1150
 3115SOL     OW20998   9.410   2.398   1.703  0.1069  0.2342 -0.0490
 3115SOL    HW120999   9.387   2.493   1.723  0.2598 -0.0381  1.4548
 3115SOL    HW221000   9.503   2.379   1.734 -0.7467 -1.0403  1.8258
 3116SOL     OW21001   5.435   6.398   1.854 -0.7047 -0.0021  0.2906
 3116SOL    HW121002   5.535   6.404   1.854 -0.7104  1.3645 -3.2360
 3116SOL    HW221003   5.397   6.479   1.899 -0.2278  1.1334 -1.3163
 3117SOL     OW21004   9.273   7.897   5.072 -0.2599 -0.2951 -0.3452
 3117SOL    HW121005   9.303   7.817   5.125  1.0035  1.0242  0.9984
 3117SOL    HW221006   9.234   7.964   5.134 -0.4906  0.4991 -1.3492
 3118SOL     OW21007   4.160   4.158   7.722 -0.1862  0.2926  0.5191
 3118SOL    HW121008   4.095   4.101   7.672  0.2772  0.9167 -0.8286
 3118SOL    HW221009   4.167   4.126   7.816 -0.8950 -1.0653  0.1263
 3119SOL     OW21010   1.189   7.980   1.273  0.3416 -0.8321  0.0556
 3119SOL    HW121011   1.230   7.955   1.185  1.3680 -0.9415  0.5545
 3119SOL    HW221012   1.249   7.949   1.347  0.8222  1.6747  0.7339
 3120SOL     OW21013   9.786   4.387   0.172  0.6639 -0.5826  0.6954
 3120SOL    HW121014   9.845   4.308   0.185 -0.0729 -1.4456 -1.0471
 3120SOL    HW221015   9.842   4.467   0.149  1.1359 -1.5589 -1.6736
 3121SOL     OW21016   9.518   1.449   6.965  0.0149  0.2053 -0.6731
 3121SOL    HW121017   9.468   1.398   7.035  2.3880  1.6525  2.1809
 3121SOL    HW221018   9.475   1.539   6.953  0.5017  0.5511  0.0923
 3122SOL     OW21019   4.075   6.350   0.329  0.0056  0.1291  0.3529
 3122SOL    HW121020   4.051   6.405   0.249  0.4059 -0.2637 -0.0477
 3122SOL    HW221021   4.168   6.315   0.317 -0.6026 -1.4514  0.1376
 3123SOL     OW21022   3.741   2.579   5.562 -0.0166  0.3710 -0.4234
 3123SOL    HW121023   3.830   2.607   5.528 -0.2060  2.1887  0.5206
 3123SOL    HW221024   3.677   2.656   5.556 -1.4247 -0.7941 -0.7465
 3124SOL     OW21025   2.030   3.995   6.427  0.2165  0.2485 -0.3330
 3124SOL    HW121026   2.017   3.926   6.356 -0.8473  0.6517 -0.5388
 3124SOL    HW221027   2.118   3.980   6.472 -0.1389 -1.4643 -0.1339
 3125SOL     OW21028   7.787   1.090   7.959 -0.0902  0.1566  0.1829
 3125SOL    HW121029   7.863   1.026   7.948 -1.4082 -1.1348 -1.5495
 3125SOL    HW221030   7.810   1.177   7.915  1.3671  0.6568  1.8461
 3126SOL     OW21031   0.126   0.192   1.399  0.0444 -0.2719  0.1124
 3126SOL    HW121032   0.198   0.154   1.341 -1.8551  0.5620 -2.9629
 3126SOL    HW221033   0.041   0.143   1.382 -0.4844 -0.2044  2.4773
 3127SOL     OW21034   2.060   1.419   2.715  0.2465  0.0313 -0.0339
 3127SOL    HW121035   2.153   1.444   2.687 -0.3774  1.7677 -0.6350
 3127SOL    HW221036   2.030   1.339   2.664  0.6747  0.6884 -1.3530
 3128SOL     OW21037   7.343   1.677   5.331 -0.4305 -0.0578 -0.0253
 3128SOL    HW121038   7.352   1.659   5.429 -2.2861 -0.8150  0.0280
 3128SOL    HW221039   7.249   1.707   5.311 -0.4523 -1.1579 -1.7358
 3129SOL     OW21040   7.046   2.581   2.667  0.9385  0.4289  0.2273
 3129SOL    HW121041   7.104   2.571   2.747 -0.1830 -2.8150  0.7058
 3129SOL    HW221042   6.950   2.572   2.694  0.5380 -0.4424 -1.4207
 3130SOL     OW21043   7.401   8.162   4.533  0.0607 -0.2293 -0.1171
 3130SOL    HW121044   7.465   8.239   4.541 -0.8128  0.3800  1.1975
 3130SOL    HW221045   7.357   8.164   4.444  1.4654 -0.3412 -0.8388
 3131SOL     OW21046   8.612   1.823   5.858 -0.1579 -0.0523  0.1499
 3131SOL    HW121047   8.564   1.771   5.787  0.6712 -0.2357 -0.2794
 3131SOL    HW221048   8.677   1.764   5.905 -1.3919 -0.1740  1.7209
 3132SOL     OW21049   7.968   4.110   0.662  0.3509  0.4151  0.0929
 3132SOL    HW121050   8.027   4.069   0.732 -0.6996 -0.6801  0.3601
 3132SOL    HW221051   7.942   4.040   0.595 -1.2630  0.6946  0.4095
 3133SOL     OW21052   0.935   0.200   3.632  0.1662  0.0307  0.2873
 3133SOL    HW121053   0.857   0.185   3.572  0.3359 -0.1355  0.1056
 3133SOL    HW221054   0.989   0.277   3.597  1.0116 -0.9289 -0.5403
 3134SOL     OW21055   6.641   1.253   6.351  0.1831  0.4802 -0.2252
 3134SOL    HW121056   6.727   1.263   6.400 -1.2764  2.0123  2.0908
 3134SOL    HW221057   6.651   1.181   6.282  2.8632 -0.3741  0.9679
 3135SOL     OW21058   7.702   6.338   6.898  0.2289 -0.0209  0.0646
 3135SOL    HW121059   7.740   6.400   6.966  0.7401 -0.2212 -0.0353
 3135SOL    HW221060   7.619   6.377   6.860 -0.4083 -0.1748  1.2461
 3136SOL     OW21061   9.983   5.847   1.363 -0.4001  0.2109 -0.2653
 3136SOL    HW121062  10.069   5.896   1.345 -1.2066  0.2515 -4.7124
 3136SOL    HW221063  10.003   5.752   1.385  0.8227  0.4613 -0.2290
 3137SOL     OW21064   0.509   8.556   4.844  0.4372 -0.4383 -0.1009
 3137SOL    HW121065   0.596   8.512   4.870  2.1236  1.7686 -1.7920
 3137SOL    HW221066   0.524   8.654   4.834 -1.9582 -0.2323 -1.8238
 3138SOL     OW21067   0.726   6.962   5.060 -0.6084  0.1067  0.5908
 3138SOL    HW121068   0.821   6.934   5.073 -0.1432  1.3619 -0.0834
 3138SOL    HW221069   0.680   6.895   5.002  0.6317  0.9559 -1.4171
 3139SOL     OW21070   0.974   6.209   7.953  0.1899 -0.2161 -0.1455
 3139SOL    HW121071   0.884   6.205   7.996  0.3791 -0.2123  0.2473
 3139SOL    HW221072   1.045   6.205   8.023  0.4725  1.9679 -0.2999
 3140SOL     OW21073   2.142   8.969   4.194 -0.1916  0.4342  0.3582
 3140SOL    HW121074   2.189   8.992   4.109 -0.1219  1.5552  0.6853
 3140SOL    HW221075   2.203   8.916   4.252  0.0059  0.2590 -0.0085
 3141SOL     OW21076   9.240   4.725   2.818  0.3012 -0.1239  0.0799
 3141SOL    HW121077   9.259   4.729   2.720 -0.4829 -1.1597 -0.1246
 3141SOL    HW221078   9.141   4.726   2.833  0.3324 -2.5555  0.7050
 3142SOL     OW21079   6.796   0.064   5.178  0.3259  0.4396  0.8425
 3142SOL    HW121080   6.797   0.164   5.171  0.8977  0.4858  1.4978
 3142SOL    HW221081   6.786   0.025   5.087  3.0194  1.0705  0.2368
 3143SOL     OW21082   8.268   4.460   2.018  0.3394 -0.2396  0.1371
 3143SOL    HW121083   8.229   4.471   2.109 -0.0618 -1.1806  0.0797
 3143SOL    HW221084   8.243   4.538   1.961 -1.2604 -0.7294  0.1643
 3144SOL     OW21085   5.991   1.496   3.222  0.0668  0.4048  0.2561
 3144SOL    HW121086   6.023   1.587   3.246  1.9190  0.0835 -0.9521
 3144SOL    HW221087   5.965   1.494   3.125  1.3617 -0.7021 -0.0846
 3145SOL     OW21088   6.406   1.509   6.216 -0.1380  0.0087 -0.0702
 3145SOL    HW121089   6.458   1.457   6.284  0.0322  0.1049 -0.1255
 3145SOL    HW221090   6.438   1.604   6.217  1.5903 -0.5321 -2.0149
 3146SOL     OW21091   0.219   4.687   7.930  0.4270 -0.2554 -0.3796
 3146SOL    HW121092   0.282   4.682   7.853  0.5784 -1.7397 -0.1733
 3146SOL    HW221093   0.237   4.770   7.983  1.3875 -0.0519 -1.0215
 3147SOL     OW21094   2.942   1.589   0.442 -0.1876  0.0332  0.0492
 3147SOL    HW121095   2.893   1.513   0.484  1.3508 -1.2585 -0.4382
 3147SOL    HW221096   2.898   1.675   0.468 -0.4948 -0.8476  2.5819
 3148SOL     OW21097   7.977   2.528   2.098  0.2164  0.0855 -0.0561
 3148SOL    HW121098   7.955   2.433   2.118 -0.9924  0.1634 -0.9584
 3148SOL    HW221099   7.990   2.539   1.999  1.3930  0.6565  0.1401
 3149SOL     OW21100   8.723   6.436   3.442 -0.2121  0.5635  0.5976
 3149SOL    HW121101   8.658   6.361   3.431  0.6683  0.0598 -1.2068
 3149SOL    HW221102   8.756   6.465   3.353  2.6632  0.2880  1.5406
 3150SOL     OW21103   0.231   1.693   4.700 -0.2749 -0.2636 -0.1858
 3150SOL    HW121104   0.242   1.770   4.762 -0.1702 -0.7826  0.4416
 3150SOL    HW221105   0.252   1.722   4.606 -0.2478  0.4676  0.0484
 3151SOL     OW21106   0.103   2.018   1.372  0.0308  0.3463  0.4976
 3151SOL    HW121107   0.004   1.999   1.375 -0.5490  2.7792 -1.5449
 3151SOL    HW221108   0.118   2.116   1.355  2.8252  0.2264  1.9720
 3152SOL     OW21109   0.536   7.602   6.626 -0.1785  0.7145 -0.3664
 3152SOL    HW121110   0.577   7.652   6.550  1.7808  3.5665  2.4265
 3152SOL    HW221111   0.436   7.599   6.613  0.0259  1.9476 -2.5808
 3153SOL     OW21112   2.667   3.019   6.298 -0.0884 -0.2612 -0.7669
 3153SOL    HW121113   2.640   2.959   6.222 -1.9429 -0.5192  0.0727
 3153SOL    HW221114   2.595   3.086   6.315 -0.0654 -0.7461  1.3045
 3154SOL     OW21115   2.980   0.341   7.937 -0.1875  0.0756  0.2772
 3154SOL    HW121116   2.967   0.248   7.902 -1.0144  0.0888  0.5478
 3154SOL    HW221117   3.019   0.336   8.029 -0.2133 -0.0048  0.2848
 3155SOL     OW21118   9.196   8.048   7.331 -0.3026  0.1837  0.3430
 3155SOL    HW121119   9.140   8.002   7.400 -0.2310 -0.8668 -0.3009
 3155SOL    HW221120   9.280   7.997   7.316 -0.9149 -0.3126 -1.4876
 3156SOL     OW21121   0.044   1.190   5.240 -0.2761 -0.3595  0.6464
 3156SOL    HW121122   0.030   1.265   5.175 -2.2757  0.7938  2.3317
 3156SOL    HW221123  -0.002   1.108   5.206 -0.5449 -0.0117  0.1604
 3157SOL     OW21124   3.333   6.863   5.756  0.1462  0.3380 -0.4076
 3157SOL    HW121125   3.364   6.779   5.711  1.7101 -0.3190  1.7961
 3157SOL    HW221126   3.265   6.841   5.826  1.5492  0.7008  1.1192
 3158SOL     OW21127   4.946   1.883   5.281  0.4066 -0.4704 -0.0718
 3158SOL    HW121128   4.926   1.788   5.305  0.7959 -0.6503 -0.4509
 3158SOL    HW221129   5.039   1.890   5.246 -0.4060 -0.4029 -2.3620
 3159SOL     OW21130   2.941   1.692   6.190  0.6458 -0.8118  0.4117
 3159SOL    HW121131   3.011   1.643   6.243  0.5634 -1.0056  0.3437
 3159SOL    HW221132   2.956   1.676   6.092  0.8564 -0.3741  0.3732
 3160SOL     OW21133   2.267   2.218   4.184 -0.0777  0.2075 -0.7730
 3160SOL    HW121134   2.287   2.207   4.086 -0.0268  0.7635 -0.8262
 3160SOL    HW221135   2.221   2.306   4.199 -2.8502 -1.1834 -0.7261
 3161SOL     OW21136   3.894   0.987   2.525  0.0715  0.0438  0.3181
 3161SOL    HW121137   3.902   0.887   2.527  1.7611  0.0213 -3.0095
 3161SOL    HW221138   3.968   1.028   2.578  1.3984 -0.4721 -1.1137
 3162SOL     OW21139   4.933   0.635   1.969 -0.2591  0.1213 -0.1680
 3162SOL    HW121140   4.920   0.649   1.871  1.2889  0.7344 -0.3088
 3162SOL    HW221141   4.906   0.718   2.018  0.6327  0.4604 -0.2394
 3163SOL     OW21142   7.030   3.846   2.431  0.3825  0.1690  0.1818
 3163SOL    HW121143   7.053   3.767   2.487  2.2184  0.2517 -0.4195
 3163SOL    HW221144   6.931   3.850   2.418  0.0301 -0.5078  2.4165
 3164SOL     OW21145   9.644   7.719   7.178 -0.4110  0.7801  0.0022
 3164SOL    HW121146   9.620   7.708   7.082  2.9302 -0.3518 -0.7599
 3164SOL    HW221147   9.703   7.799   7.190 -0.0871  0.4138  0.9720
 3165SOL     OW21148   7.641   3.044   8.108 -0.1450 -0.3054  0.0376
 3165SOL    HW121149   7.583   2.965   8.088 -0.0506 -0.4008  0.1378
 3165SOL    HW221150   7.583   3.124   8.123 -0.2163 -0.2473 -0.5377
 3166SOL     OW21151   8.770   0.830   1.125 -0.1078 -0.5666  0.3927
 3166SOL    HW121152   8.828   0.861   1.050  0.9052 -1.6179  0.7194
 3166SOL    HW221153   8.678   0.813   1.091  0.2619 -0.7305 -0.5445
 3167SOL     OW21154   1.650   2.773   1.690 -0.3215  0.1576 -0.0049
 3167SOL    HW121155   1.634   2.863   1.731 -0.8280 -0.0205  0.1872
 3167SOL    HW221156   1.710   2.783   1.610 -1.5021  0.8387 -0.8161
 3168SOL     OW21157   5.347   4.619   0.771  0.1827 -0.8894  0.0458
 3168SOL    HW121158   5.277   4.622   0.699 -0.6509  1.1286  0.8944
 3168SOL    HW221159   5.437   4.604   0.729 -0.1443  1.3699 -1.5917
 3169SOL     OW21160   3.691   6.207   2.720  0.7840 -0.0572 -0.1570
 3169SOL    HW121161   3.764   6.227   2.786 -0.0581 -0.3021  0.8580
 3169SOL    HW221162   3.695   6.273   2.645  1.5666  0.4091  0.2830
 3170SOL     OW21163   4.051   8.258   7.444 -0.2691  0.1104 -1.0160
 3170SOL    HW121164   4.094   8.178   7.485 -0.1172  1.0742  0.7449
 3170SOL    HW221165   4.102   8.285   7.362  2.0334  0.7454  0.5756
 3171SOL     OW21166   4.113   8.063   1.249  0.0375  0.1337  0.1618
 3171SOL    HW121167   4.017   8.077   1.271  0.0286 -1.4374  1.2178
 3171SOL    HW221168   4.169   8.119   1.311 -0.1763  0.4657  0.0564
 3172SOL     OW21169   3.941   4.442   4.276  0.0125  0.5457  0.1089
 3172SOL    HW121170   4.025   4.401   4.241  0.4868  0.2663  1.5038
 3172SOL    HW221171   3.878   4.370   4.305 -1.1948  0.7292 -1.9734
 3173SOL     OW21172   7.986   5.192   7.654  0.5030  0.6256 -0.4943
 3173SOL    HW121173   7.994   5.287   7.623  0.1698  0.7271 -0.2717
 3173SOL    HW221174   8.074   5.146   7.643  1.3150  1.6324  1.6289
 3174SOL     OW21175   3.515   7.080   1.702  0.2006 -0.2763  0.3094
 3174SOL    HW121176   3.500   7.122   1.792 -0.6925 -1.8417  0.9065
 3174SOL    HW221177   3.475   6.989   1.701 -1.9951  0.6472 -2.4836
 3175SOL     OW21178   0.872   0.591   6.450  0.5927 -0.6736  0.6274
 3175SOL    HW121179   0.823   0.547   6.375 -1.6586  0.2914  1.4927
 3175SOL    HW221180   0.951   0.536   6.475  0.7253 -1.5926 -1.6843
 3176SOL     OW21181   9.329   5.524   6.887 -0.0947  0.3861  0.3275
 3176SOL    HW121182   9.265   5.576   6.944  1.8008  1.6006  1.3878
 3176SOL    HW221183   9.423   5.545   6.913  0.8129 -0.1127 -2.3173
 3177SOL     OW21184   3.661   9.433   2.870 -0.3074 -0.7814 -0.2755
 3177SOL    HW121185   3.646   9.529   2.846  0.2543 -0.4992  0.4687
 3177SOL    HW221186   3.577   9.381   2.855 -1.4436  0.3533  1.8409
 3178SOL     OW21187   0.242   2.915   7.294  0.4029  0.0706  0.3964
 3178SOL    HW121188   0.192   2.894   7.211  2.2284  0.1187 -0.7417
 3178SOL    HW221189   0.226   3.010   7.319 -1.2250 -0.3132  0.8828
 3179SOL     OW21190   2.484   2.486   6.974 -0.5080  0.2001 -0.3843
 3179SOL    HW121191   2.511   2.390   6.982 -2.0360 -0.1549  0.7653
 3179SOL    HW221192   2.410   2.494   6.907 -0.4489  0.5564 -0.4070
 3180SOL     OW21193   6.335   5.085   1.425 -0.4840 -0.0060 -0.1128
 3180SOL    HW121194   6.293   5.080   1.334 -0.7541 -0.7425  0.0449
 3180SOL    HW221195   6.421   5.135   1.420 -0.9869  0.8076 -0.5927
 3181SOL     OW21196   4.839   0.758   1.354 -0.4610  0.4520 -0.0917
 3181SOL    HW121197   4.886   0.801   1.277 -0.4303  1.1458  0.3160
 3181SOL    HW221198   4.906   0.726   1.421 -0.5164  0.4268 -0.0486
 3182SOL     OW21199   4.748   7.952   2.153 -0.1437  0.4276  0.1166
 3182SOL    HW121200   4.713   7.882   2.215  0.3075 -1.1106 -1.3181
 3182SOL    HW221201   4.687   8.031   2.154 -1.1750 -0.3589  1.0546
 3183SOL     OW21202   6.822   1.727   5.383 -0.6109 -0.1153  0.1880
 3183SOL    HW121203   6.843   1.764   5.473  0.5357  1.7123 -0.8157
 3183SOL    HW221204   6.745   1.776   5.343  0.6401  0.9436 -0.9668
 3184SOL     OW21205   3.714   6.813   5.051 -0.6336  0.4357 -1.1928
 3184SOL    HW121206   3.779   6.803   5.126 -0.3022 -1.7659 -1.7327
 3184SOL    HW221207   3.621   6.797   5.084 -0.4230 -1.2549 -1.3522
 3185SOL     OW21208   1.744   7.067   4.192 -0.1866 -0.1072 -0.5897
 3185SOL    HW121209   1.803   7.007   4.245  0.7293  0.7430 -0.6313
 3185SOL    HW221210   1.653   7.026   4.183 -0.3210 -0.3226  1.5437
 3186SOL     OW21211   2.737   4.040   0.148  0.1623  0.0510  0.1406
 3186SOL    HW121212   2.834   4.017   0.162  0.0242 -0.4625  0.2646
 3186SOL    HW221213   2.709   4.108   0.216  0.0106 -0.9913  1.1309
 3187SOL     OW21214   1.283   1.584   6.346  0.5002 -0.2319 -0.0400
 3187SOL    HW121215   1.343   1.504   6.356 -0.7041 -1.0373  0.9180
 3187SOL    HW221216   1.240   1.605   6.433  1.3108  1.9136 -0.1212
 3188SOL     OW21217   6.774   8.494   5.078 -0.2854 -0.5282  0.5383
 3188SOL    HW121218   6.860   8.518   5.032 -0.1167  1.5129  1.8640
 3188SOL    HW221219   6.746   8.402   5.049  1.4093 -0.5264 -1.2559
 3189SOL     OW21220   1.960   4.319   5.837  0.4169 -0.4641  0.1987
 3189SOL    HW121221   1.981   4.313   5.739  2.0378  0.1758  0.4793
 3189SOL    HW221222   1.998   4.405   5.873 -1.2152 -0.1265  1.1417
 3190SOL     OW21223   3.514   8.801   7.911  0.4673  0.0725 -0.3878
 3190SOL    HW121224   3.418   8.806   7.937 -0.2675  0.0418 -2.9195
 3190SOL    HW221225   3.556   8.892   7.915 -0.3269  0.4961 -1.6130
 3191SOL     OW21226   8.089   8.392   1.599  0.5518  0.3261  0.0475
 3191SOL    HW121227   8.041   8.355   1.679  0.8681 -1.8716 -0.7420
 3191SOL    HW221228   8.159   8.327   1.570  0.1336  0.8869 -2.3135
 3192SOL     OW21229   8.485   1.036   2.383 -0.5536  0.1128 -0.2160
 3192SOL    HW121230   8.538   1.064   2.303  0.3140 -1.0841 -0.0598
 3192SOL    HW221231   8.459   0.940   2.374  1.5074 -0.6983  2.0059
 3193SOL     OW21232   2.287   6.896   2.421 -0.2646 -0.2413  0.0380
 3193SOL    HW121233   2.307   6.994   2.419 -1.1381 -0.0808 -1.6785
 3193SOL    HW221234   2.348   6.848   2.358  0.5214 -0.8896  1.2661
 3194SOL     OW21235   8.189   0.378   4.844 -0.1953  0.7777  0.3124
 3194SOL    HW121236   8.122   0.366   4.917  1.3135  0.5669  1.6906
 3194SOL    HW221237   8.152   0.440   4.775 -1.5150  1.2429  1.4139
 3195SOL     OW21238   9.565   1.441   2.883 -0.3104 -0.1114 -0.4072
 3195SOL    HW121239   9.540   1.537   2.873 -0.6449  0.1463  2.4231
 3195SOL    HW221240   9.660   1.434   2.914 -1.4922 -0.4803  3.3338
 3196SOL     OW21241   2.420   6.846   4.867  0.2630  0.3582 -0.3511
 3196SOL    HW121242   2.474   6.905   4.927  0.0140  0.1683  0.0587
 3196SOL    HW221243   2.366   6.902   4.805 -1.8335  0.6040  1.6511
 3197SOL     OW21244   2.129   4.081   4.988  0.0094 -0.2253 -0.3883
 3197SOL    HW121245   2.071   4.124   5.057  1.5769  0.1092  0.7518
 3197SOL    HW221246   2.225   4.091   5.014  0.5432 -1.7501 -1.6744
 3198SOL     OW21247   7.588   3.294   5.968 -0.5192  0.1028  0.7095
 3198SOL    HW121248   7.660   3.276   6.036  0.4639  0.5625 -0.2012
 3198SOL    HW221249   7.539   3.378   5.993 -0.1754  0.2580  0.8669
 3199SOL     OW21250   2.097   9.467   2.296  0.1533 -0.2101  0.5378
 3199SOL    HW121251   2.162   9.456   2.221 -0.6150  0.9105 -0.3175
 3199SOL    HW221252   2.126   9.543   2.354 -0.0312 -0.1282  0.5240
 3200SOL     OW21253   0.965   6.834   5.079 -0.4648  0.0029  0.1970
 3200SOL    HW121254   1.063   6.849   5.085 -0.5112  1.3036 -1.7457
 3200SOL    HW221255   0.947   6.740   5.051  0.2829  0.1342 -0.7531
 3201SOL     OW21256   7.279   2.505   6.252 -0.2384  0.7574  0.0453
 3201SOL    HW121257   7.216   2.527   6.177  1.2863  0.2157 -1.4256
 3201SOL    HW221258   7.362   2.561   6.242  1.5057 -1.9110 -0.7743
 3202SOL     OW21259   3.845   6.194   8.173  0.3062  0.3066 -0.8501
 3202SOL    HW121260   3.765   6.140   8.149  0.3476 -0.7055  1.1758
 3202SOL    HW221261   3.914   6.134   8.214  1.3473  1.4867 -0.8581
 3203SOL     OW21262   3.682   4.574   6.960  0.1911  0.1917 -0.0255
 3203SOL    HW121263   3.741   4.522   6.897 -0.8664  0.5524 -1.3187
 3203SOL    HW221264   3.683   4.529   7.049  1.3965 -0.5518 -0.3859
 3204SOL     OW21265   3.701   9.576   3.216  0.2826  0.3084 -0.2727
 3204SOL    HW121266   3.625   9.611   3.162  0.2536  0.7058  0.0235
 3204SOL    HW221267   3.786   9.583   3.164  0.0214 -0.7783 -0.8761
 3205SOL     OW21268   3.846   7.868   4.805  0.0181  0.5846  0.0816
 3205SOL    HW121269   3.929   7.835   4.851 -0.1611 -0.1096 -0.0757
 3205SOL    HW221270   3.833   7.818   4.720  0.0369  1.4695 -0.4428
 3206SOL     OW21271   9.260   4.082   6.475 -0.3737  0.1781 -0.5099
 3206SOL    HW121272   9.249   4.178   6.451 -0.4525  0.4033  0.4132
 3206SOL    HW221273   9.258   4.072   6.574  0.7607 -0.6331 -0.5561
 3207SOL     OW21274   9.989   2.169   1.747 -0.2482 -0.0319 -0.1120
 3207SOL    HW121275  10.001   2.262   1.712 -1.8573 -0.6227 -2.3180
 3207SOL    HW221276  10.063   2.111   1.713 -0.7863 -0.1831 -1.0339
 3208SOL     OW21277   0.629   2.155   6.895  0.4550 -0.1448  0.2163
 3208SOL    HW121278   0.686   2.073   6.905  1.5542  0.2023 -2.6718
 3208SOL    HW221279   0.550   2.133   6.837 -0.5276  0.2497  1.3947
 3209SOL     OW21280   0.416   2.617   7.635  0.1891  0.3611 -0.4998
 3209SOL    HW121281   0.410   2.630   7.734  1.5493  0.7670 -0.4624
 3209SOL    HW221282   0.329   2.582   7.600 -0.2906  0.2176  0.8394
 3210SOL     OW21283   7.446   7.672   4.817  0.1829  0.2595  0.0841
 3210SOL    HW121284   7.378   7.625   4.873 -0.2157  0.7957  0.0634
 3210SOL    HW221285   7.404   7.754   4.777  0.6405  0.2127 -0.4959
 3211SOL     OW21286   8.898   1.378   4.207  0.0530  0.8097 -0.0732
 3211SOL    HW121287   8.870   1.333   4.123 -0.8821 -1.5911  1.4585
 3211SOL    HW221288   8.979   1.331   4.244  0.9901  2.3935 -0.0682
 3212SOL     OW21289   8.065   6.296   7.421  0.0892  0.6531  0.2581
 3212SOL    HW121290   8.148   6.240   7.429 -1.3957 -1.5512  0.7170
 3212SOL    HW221291   8.015   6.269   7.338 -0.1699  1.9973 -0.0362
 3213SOL     OW21292   9.527   7.651   3.617  0.4933  0.0128  0.1136
 3213SOL    HW121293   9.612   7.683   3.575  1.1415 -0.1713  1.2905
 3213SOL    HW221294   9.546   7.575   3.678 -0.2994  0.9804  1.5898
 3214SOL     OW21295   2.930   9.221   5.395 -0.4369 -0.1759 -0.0981
 3214SOL    HW121296   2.895   9.131   5.421 -0.1399  0.1111  1.3513
 3214SOL    HW221297   2.886   9.251   5.310 -1.2110 -1.2831 -0.1017
 3215SOL     OW21298   5.739   4.071   0.588  0.1893 -0.3156 -0.1799
 3215SOL    HW121299   5.793   4.004   0.537 -1.2744 -2.0074  0.4416
 3215SOL    HW221300   5.789   4.097   0.671  0.4103 -1.2094 -0.0340
 3216SOL     OW21301   6.347   4.892   7.204 -0.5533  0.0570  0.1874
 3216SOL    HW121302   6.392   4.803   7.201  0.1180  0.4107 -0.7490
 3216SOL    HW221303   6.343   4.925   7.298  3.3152  1.0844  0.0532
 3217SOL     OW21304   7.212   9.870   0.994  0.0611  0.3788  0.3720
 3217SOL    HW121305   7.161   9.801   0.943 -1.5469  0.2351  2.0939
 3217SOL    HW221306   7.176   9.961   0.973 -0.7977  0.2942  1.4371
 3218SOL     OW21307   7.105   1.231   2.802  0.2937 -0.1836 -0.0075
 3218SOL    HW121308   7.144   1.299   2.864 -1.1802  0.8401 -0.1764
 3218SOL    HW221309   7.179   1.181   2.757  1.3991  1.0057  0.4500
 3219SOL     OW21310   3.788   2.311   5.486 -0.5796  0.5109 -0.2976
 3219SOL    HW121311   3.757   2.299   5.391 -2.6649  1.4488  0.2225
 3219SOL    HW221312   3.763   2.403   5.516  1.4648  0.7619  0.6701
 3220SOL     OW21313   0.197   0.666   2.470  0.3196  0.3641 -0.2685
 3220SOL    HW121314   0.202   0.566   2.479  1.1658  0.4356  0.0030
 3220SOL    HW221315   0.185   0.707   2.560 -0.0727  0.5074 -0.3861
 3221SOL     OW21316   9.074   1.774   0.625 -0.4787  0.2117 -0.4185
 3221SOL    HW121317   9.034   1.807   0.711  1.0208 -1.3393  0.9257
 3221SOL    HW221318   9.046   1.679   0.610  1.4315 -0.4078 -0.2185
 3222SOL     OW21319   1.639   5.900   6.384  0.0979 -0.1625  0.3380
 3222SOL    HW121320   1.724   5.849   6.398  0.1293 -0.5055 -1.0405
 3222SOL    HW221321   1.652   5.968   6.312 -0.8897 -0.4369 -0.1092
 3223SOL     OW21322   2.060   7.737   1.580  0.3790  0.6289 -0.7095
 3223SOL    HW121323   2.004   7.808   1.537  1.5917  1.1586 -1.4297
 3223SOL    HW221324   2.043   7.738   1.679  0.8034  2.3240 -0.6282
 3224SOL     OW21325   1.634   5.836   5.070 -0.3250  0.7428 -0.2845
 3224SOL    HW121326   1.709   5.819   5.135  1.2218 -0.0805 -2.2371
 3224SOL    HW221327   1.660   5.910   5.009 -0.0942 -1.0745 -2.4567
 3225SOL     OW21328   6.928   2.220   1.447  0.1301 -0.2775  0.6794
 3225SOL    HW121329   6.878   2.139   1.416 -0.1263  0.8294 -1.8985
 3225SOL    HW221330   6.872   2.271   1.511 -0.9929 -0.4579 -0.1449
 3226SOL     OW21331   9.660   8.196   5.463  0.4093  0.0258 -0.1293
 3226SOL    HW121332   9.585   8.131   5.475  0.5286 -0.5932 -2.6188
 3226SOL    HW221333   9.628   8.276   5.413  1.4851 -0.4050 -1.5335
 3227SOL     OW21334   7.701   3.224   2.429 -0.0659 -0.0928  0.1848
 3227SOL    HW121335   7.738   3.308   2.469 -0.1318 -0.0475  0.1516
 3227SOL    HW221336   7.698   3.153   2.499 -0.7580  0.1659  0.4222
 3228SOL     OW21337   8.740   5.945   6.983 -0.0662  0.7229 -0.4807
 3228SOL    HW121338   8.646   5.952   7.017  0.6535  1.1113  1.4522
 3228SOL    HW221339   8.779   6.037   6.975  1.3352  0.4002  2.1575
 3229SOL     OW21340   3.073   9.519   4.154 -0.2754 -0.2079 -0.1947
 3229SOL    HW121341   3.014   9.453   4.108 -0.1853 -0.3987 -0.0377
 3229SOL    HW221342   3.031   9.547   4.241  0.1733 -0.8317  0.2217
 3230SOL     OW21343   3.318   3.713   7.938  0.2472 -0.3297  0.0111
 3230SOL    HW121344   3.349   3.666   8.020 -0.9502 -1.4152 -0.1540
 3230SOL    HW221345   3.369   3.679   7.859  0.7262  0.0327  0.1612
 3231SOL     OW21346   0.302   2.459   6.282  0.0619  0.2855  0.1916
 3231SOL    HW121347   0.255   2.527   6.225  0.2671  0.3982  0.1581
 3231SOL    HW221348   0.237   2.388   6.308  0.2321 -0.3501 -1.0789
 3232SOL     OW21349   0.822   5.178   4.601 -0.2449 -0.1887  0.1262
 3232SOL    HW121350   0.891   5.120   4.558 -0.7498 -0.5737 -0.1797
 3232SOL    HW221351   0.778   5.234   4.531  0.9390  1.3060  0.5661
 3233SOL     OW21352   8.158   9.025   4.212  0.0450  0.1729 -0.3915
 3233SOL    HW121353   8.153   9.017   4.311  0.2358  1.6668 -0.2511
 3233SOL    HW221354   8.252   9.010   4.181  0.0455  0.0306 -0.3190
 3234SOL     OW21355   0.588   6.668   0.718 -0.6303 -0.1651 -0.8319
 3234SOL    HW121356   0.532   6.624   0.789  1.2233  0.6159  1.1787
 3234SOL    HW221357   0.529   6.720   0.656 -1.9924  2.5392  2.5635
 3235SOL     OW21358   6.875   9.256   6.561 -0.3755 -0.0468 -0.5454
 3235SOL    HW121359   6.882   9.355   6.567 -2.0962  0.0980 -0.6011
 3235SOL    HW221360   6.929   9.223   6.482  1.5015  0.6456  0.4185
 3236SOL     OW21361   7.983   4.811   2.900 -0.6650  0.1642  0.0068
 3236SOL    HW121362   8.011   4.725   2.943 -0.3332  0.5993  0.6546
 3236SOL    HW221363   7.967   4.795   2.802 -0.7063 -0.6567  0.1451
 3237SOL     OW21364   2.176   3.971   1.501 -0.3503  0.0960  0.1448
 3237SOL    HW121365   2.192   3.998   1.406  1.1181 -0.3325  0.2626
 3237SOL    HW221366   2.078   3.956   1.515 -0.6206  0.5342 -1.1993
 3238SOL     OW21367   2.323   3.518   4.428  0.3559 -0.0493  0.7121
 3238SOL    HW121368   2.421   3.535   4.416  0.6079 -2.0550 -0.3480
 3238SOL    HW221369   2.280   3.508   4.338 -0.4461 -1.1512  1.2084
 3239SOL     OW21370   7.968   1.741   6.374 -0.1541 -0.3101  0.0275
 3239SOL    HW121371   8.023   1.816   6.409 -0.1639 -0.9643  1.5052
 3239SOL    HW221372   8.024   1.659   6.367  0.2416  0.1575 -3.0011
 3240SOL     OW21373   0.784   7.877   7.302 -0.5444 -0.2809 -0.6721
 3240SOL    HW121374   0.740   7.960   7.268  0.7973 -0.1107 -2.0198
 3240SOL    HW221375   0.861   7.854   7.244  0.3434 -1.3350  0.8985
 3241SOL     OW21376   8.903   8.521   0.546 -0.1425  0.2781 -0.5344
 3241SOL    HW121377   8.820   8.566   0.514 -2.6337 -2.4344  1.8098
 3241SOL    HW221378   8.917   8.540   0.643  0.1960 -1.7988 -0.1374
 3242SOL     OW21379   0.470   9.017   0.091 -0.0303 -0.3252  0.8289
 3242SOL    HW121380   0.546   8.955   0.114  0.8332 -0.1611 -1.4392
 3242SOL    HW221381   0.408   8.972   0.028 -1.8628 -0.4442  2.6643
 3243SOL     OW21382   1.977   6.276   0.606  0.5673  0.3445  0.0532
 3243SOL    HW121383   2.056   6.218   0.626  2.1618  2.3491 -0.3010
 3243SOL    HW221384   1.960   6.339   0.682 -1.3982 -0.7844  0.6069
 3244SOL     OW21385   3.908   4.110   3.911 -0.3218 -0.1490 -0.5408
 3244SOL    HW121386   3.852   4.186   3.877  0.7535 -0.0191 -2.0687
 3244SOL    HW221387   3.992   4.145   3.952 -0.3855 -0.4592 -0.1357
 3245SOL     OW21388   6.733   2.637   0.070 -0.1525 -0.6603  0.3326
 3245SOL    HW121389   6.702   2.692  -0.007 -0.6043 -0.4120  0.6931
 3245SOL    HW221390   6.831   2.619   0.060 -0.3140 -1.0845 -0.5815
 3246SOL     OW21391   9.632   7.568   8.014  0.3144  0.1058 -0.0242
 3246SOL    HW121392   9.697   7.583   8.089  0.7956 -0.0477 -0.4114
 3246SOL    HW221393   9.576   7.650   8.001  0.8598  0.4634 -0.1089
 3247SOL     OW21394   7.483   4.632   0.168  0.4074  0.5131  0.1208
 3247SOL    HW121395   7.565   4.689   0.170  0.8995 -0.2467  1.7371
 3247SOL    HW221396   7.411   4.677   0.221  0.2982  0.3797  0.0837
 3248SOL     OW21397   4.567   2.396   4.189 -0.4857 -0.3523 -0.0134
 3248SOL    HW121398   4.647   2.376   4.133 -0.4785 -2.3835  0.6446
 3248SOL    HW221399   4.485   2.400   4.132  0.0342  1.3517 -0.6386
 3249SOL     OW21400   0.298   7.442   4.095  0.2526  0.4814  0.3366
 3249SOL    HW121401   0.321   7.359   4.044 -1.8830  0.0224  0.0750
 3249SOL    HW221402   0.272   7.417   4.189 -2.2935  0.6090 -0.2987
 3250SOL     OW21403   3.572   5.725   2.282  0.1079  0.0970  0.0961
 3250SOL    HW121404   3.557   5.680   2.370 -1.0823  0.1787 -0.0562
 3250SOL    HW221405   3.623   5.664   2.221  0.6677 -0.0747  0.7382
 3251SOL     OW21406   8.538   3.120   0.425 -0.2847 -0.2111 -0.6166
 3251SOL    HW121407   8.474   3.045   0.433  0.8990 -1.2290 -0.5188
 3251SOL    HW221408   8.500   3.192   0.366 -1.7590 -0.5041 -0.0284
 3252SOL     OW21409   1.026   2.595   1.339  0.0028  0.4854 -0.8411
 3252SOL    HW121410   0.942   2.632   1.302  0.7213  2.1672 -0.8283
 3252SOL    HW221411   1.104   2.643   1.300  0.8488  1.0360  1.4431
 3253SOL     OW21412   8.400   6.909   7.539 -0.0540  0.2661  0.0574
 3253SOL    HW121413   8.374   6.993   7.587  0.9034  1.5444 -1.6523
 3253SOL    HW221414   8.492   6.919   7.501  0.2695 -1.7542  0.2758
 3254SOL     OW21415   0.878   9.472   2.537  0.5300 -0.0540 -0.2742
 3254SOL    HW121416   0.857   9.545   2.602  0.4216  1.3377 -1.8358
 3254SOL    HW221417   0.823   9.484   2.454  1.8213 -0.8639 -1.2724
 3255SOL     OW21418   2.232   8.992   5.361 -0.0953  0.1979  0.3594
 3255SOL    HW121419   2.290   8.962   5.436  0.0953  0.3924  0.2867
 3255SOL    HW221420   2.281   8.982   5.274 -0.7547 -1.2510  0.1227
 3256SOL     OW21421   4.185   5.008   2.574  0.6871 -0.3788 -0.2180
 3256SOL    HW121422   4.234   5.084   2.617  1.9607 -0.6831 -1.1111
 3256SOL    HW221423   4.148   5.038   2.486 -0.2896 -0.3010  0.2166
 3257SOL     OW21424   4.474   7.831   1.471  0.5107 -0.4324  0.2809
 3257SOL    HW121425   4.526   7.846   1.387  1.1167  0.8576  0.8806
 3257SOL    HW221426   4.376   7.829   1.448  0.6746 -0.2020 -0.4802
 3258SOL     OW21427   9.454   5.411   0.951  0.6434 -0.1846  0.4522
 3258SOL    HW121428   9.431   5.320   0.917 -2.3585  0.7740 -0.2577
 3258SOL    HW221429   9.414   5.480   0.891  1.9068  1.6064  1.6210
 3259SOL     OW21430   3.909   3.522   3.340  0.1107  0.0384  0.5486
 3259SOL    HW121431   3.833   3.588   3.338  0.4015  0.3519 -0.5834
 3259SOL    HW221432   3.989   3.563   3.298  0.1406 -1.2436 -0.6693
 3260SOL     OW21433   2.794   1.899   0.132  0.0022  0.0613 -0.3063
 3260SOL    HW121434   2.789   1.998   0.116  0.8046  0.1676  0.0628
 3260SOL    HW221435   2.827   1.854   0.049  1.7151  0.3402  0.2071
 3261SOL     OW21436   7.879   1.283   6.788  0.1713 -0.5531  0.2206
 3261SOL    HW121437   7.792   1.233   6.784  0.4863 -1.1754  0.9836
 3261SOL    HW221438   7.872   1.354   6.859 -0.7869  1.5020 -1.8618
 3262SOL     OW21439   7.395   9.417   1.513 -0.0242  0.0215 -0.3501
 3262SOL    HW121440   7.312   9.363   1.526  0.0987 -0.2420 -0.6451
 3262SOL    HW221441   7.473   9.365   1.549  0.2623 -0.5254 -1.7417
 3263SOL     OW21442   7.043   8.229   5.353  0.4384 -0.3364  0.8961
 3263SOL    HW121443   6.950   8.203   5.378 -0.1266  1.7814  1.1066
 3263SOL    HW221444   7.046   8.255   5.256  0.2139  2.0091  1.4690
 3264SOL     OW21445   7.195   1.507   1.824  0.3775  0.6688 -0.0727
 3264SOL    HW121446   7.214   1.484   1.920  0.6940  0.3806 -0.2071
 3264SOL    HW221447   7.240   1.441   1.764  0.4072  1.0140 -0.4289
 3265SOL     OW21448   1.952   3.475   0.424  0.1981 -0.0293 -0.0947
 3265SOL    HW121449   1.871   3.418   0.437 -0.8621  1.2116 -1.1009
 3265SOL    HW221450   1.991   3.456   0.334  0.9266 -0.4920  0.3158
 3266SOL     OW21451   5.480   5.024   0.744 -0.1338  0.1714  0.0130
 3266SOL    HW121452   5.395   5.003   0.791 -1.4569  1.1977 -1.8419
 3266SOL    HW221453   5.461   5.081   0.664  2.3336  0.6873 -0.2622
 3267SOL     OW21454   9.823   4.589   5.453 -0.1415  0.5762  0.4457
 3267SOL    HW121455   9.910   4.623   5.491 -0.0921  0.0741  0.7813
 3267SOL    HW221456   9.817   4.615   5.357  0.5211  0.3589  0.3403
 3268SOL     OW21457   2.996   4.130   7.451  0.3016  0.2583  0.1829
 3268SOL    HW121458   3.088   4.122   7.413 -0.2329 -1.8566 -0.7138
 3268SOL    HW221459   2.997   4.101   7.546  0.6726  0.7968  0.3453
 3269SOL     OW21460   4.066   2.788   3.709  0.2155 -0.1435 -0.2190
 3269SOL    HW121461   3.970   2.790   3.679 -0.2607  0.0541  1.2874
 3269SOL    HW221462   4.100   2.881   3.718 -0.2328 -0.1361  1.6423
 3270SOL     OW21463   2.786   6.469   2.423 -0.0438 -0.2237  0.3024
 3270SOL    HW121464   2.705   6.433   2.379  0.3368 -0.7319  0.0142
 3270SOL    HW221465   2.772   6.473   2.522 -0.8864  0.8965  0.1456
 3271SOL     OW21466   9.299   2.131   0.669 -0.1843 -0.2770  0.3665
 3271SOL    HW121467   9.387   2.124   0.621 -0.1837 -0.4454  0.3936
 3271SOL    HW221468   9.288   2.053   0.730 -0.6234 -0.5649 -0.0777
 3272SOL     OW21469   9.634   3.082   2.380  0.2043  0.1269 -0.0831
 3272SOL    HW121470   9.549   3.082   2.433  0.7897 -0.3791  0.8530
 3272SOL    HW221471   9.682   2.996   2.395  0.4617  0.0543 -1.3004
 3273SOL     OW21472   2.721   2.629   4.981 -0.0465  0.0337 -0.6020
 3273SOL    HW121473   2.819   2.627   5.004 -0.3672 -1.3559  0.7628
 3273SOL    HW221474   2.710   2.646   4.883  1.6483 -1.7940 -1.1535
 3274SOL     OW21475   1.538   3.946   6.550  0.0236 -0.0590  0.2556
 3274SOL    HW121476   1.497   3.855   6.551 -1.3906  0.5653  0.2016
 3274SOL    HW221477   1.476   4.010   6.505  0.8146  1.0121  0.6760
 3275SOL     OW21478   9.080   8.272   0.924 -0.1627 -0.0697 -0.2398
 3275SOL    HW121479   9.129   8.268   1.011  1.5362 -0.6135 -1.1984
 3275SOL    HW221480   9.132   8.222   0.854 -0.4469  2.0960 -2.0692
 3276SOL     OW21481   1.082   6.844   2.697 -0.0345  0.2548  0.1220
 3276SOL    HW121482   1.108   6.925   2.645 -0.9392  0.9453  0.7433
 3276SOL    HW221483   1.152   6.773   2.686  2.0748  2.0533  1.7546
 3277SOL     OW21484   3.645   8.837   5.632  0.4001  0.3867  0.6175
 3277SOL    HW121485   3.655   8.756   5.691 -1.9851  0.1655  0.7549
 3277SOL    HW221486   3.621   8.916   5.688  0.8658  0.7773  0.2623
 3278SOL     OW21487   8.143   6.519   7.791 -0.0066 -0.3806  0.0888
 3278SOL    HW121488   8.183   6.499   7.880 -1.2357  1.4579  1.0843
 3278SOL    HW221489   8.060   6.465   7.779  0.8761 -1.6040 -0.4962
 3279SOL     OW21490   0.107   5.594   5.194  0.1985  0.3612 -0.0420
 3279SOL    HW121491   0.052   5.593   5.111  0.3911  0.2695 -0.1706
 3279SOL    HW221492   0.093   5.509   5.245  1.9575 -0.6712 -1.2305
 3280SOL     OW21493   4.200   2.192   5.047 -0.5529  0.1565  0.1540
 3280SOL    HW121494   4.290   2.160   5.074 -0.8733 -0.1443  0.8721
 3280SOL    HW221495   4.160   2.247   5.120 -0.8900  0.4170 -0.2211
 3281SOL     OW21496   8.333   1.868   4.112  0.0589 -0.3817 -0.3090
 3281SOL    HW121497   8.413   1.829   4.066 -0.2315 -1.3754  0.0257
 3281SOL    HW221498   8.314   1.816   4.195 -1.9579 -1.2020 -1.2627
 3282SOL     OW21499   2.267   6.762   4.497  0.7176 -0.5587 -0.6005
 3282SOL    HW121500   2.181   6.712   4.507 -2.2442  4.4376  0.6919
 3282SOL    HW221501   2.275   6.795   4.403  0.4355  0.3314 -0.3112
 3283SOL     OW21502   7.641   5.271   0.343 -0.6914  0.5789  0.1040
 3283SOL    HW121503   7.662   5.198   0.278 -1.2133  0.9055 -0.4391
 3283SOL    HW221504   7.670   5.244   0.435  2.4217  1.1695 -0.6658
 3284SOL     OW21505   4.528   2.320   0.940 -0.4516  0.8301 -0.0108
 3284SOL    HW121506   4.576   2.408   0.936 -1.2136  1.3081  0.9364
 3284SOL    HW221507   4.436   2.335   0.976 -0.5694 -0.3727  0.2017
 3285SOL     OW21508   9.205   9.979   0.369  0.1748  0.4051 -0.3525
 3285SOL    HW121509   9.253   9.905   0.322 -0.6099  0.4836 -1.2931
 3285SOL    HW221510   9.226   9.975   0.467 -0.2651 -1.3869 -0.2986
 3286SOL     OW21511   1.398   8.892   2.687 -0.1182  0.0049  0.2299
 3286SOL    HW121512   1.379   8.846   2.774 -1.6488  1.1247  0.5090
 3286SOL    HW221513   1.386   8.991   2.699  1.7470  0.3481 -0.7194
 3287SOL     OW21514   5.495   7.944   1.984 -0.6954 -0.2379  0.1772
 3287SOL    HW121515   5.498   8.034   1.940 -1.7329 -0.2726  0.0275
 3287SOL    HW221516   5.554   7.881   1.934  0.1805  0.4059  0.3878
 3288SOL     OW21517   8.769   0.704   4.345  0.3410 -0.1953 -0.1989
 3288SOL    HW121518   8.719   0.726   4.261  1.0637 -1.2707 -0.9156
 3288SOL    HW221519   8.845   0.769   4.356 -0.6800  0.9139  0.4519
 3289SOL     OW21520   2.732   2.323   6.258 -0.5989  0.1324  0.1788
 3289SOL    HW121521   2.742   2.238   6.206  2.4507  1.3770 -1.3276
 3289SOL    HW221522   2.811   2.335   6.318 -0.3562  2.5757 -0.5902
 3290SOL     OW21523   9.483   3.445   3.171 -0.0646 -0.1028 -0.4201
 3290SOL    HW121524   9.436   3.359   3.153 -0.7667  0.5523 -1.7934
 3290SOL    HW221525   9.417   3.512   3.207  0.2564  0.1918 -0.3767
 3291SOL     OW21526   8.537   3.174   0.005 -0.2742  0.1897  0.1281
 3291SOL    HW121527   8.498   3.162  -0.086 -0.8632  0.8869  0.2804
 3291SOL    HW221528   8.602   3.250   0.003  0.4900 -0.4591  0.0576
 3292SOL     OW21529   2.918   4.930   3.546  0.0423 -0.2044  0.0673
 3292SOL    HW121530   2.968   4.909   3.630  1.0330 -0.2411 -0.5161
 3292SOL    HW221531   2.980   4.920   3.468 -0.7218  0.3650 -0.6161
 3293SOL     OW21532   2.583   2.107   5.298 -0.0141  0.0146 -0.6661
 3293SOL    HW121533   2.564   2.011   5.278 -0.7591  0.0804 -0.3071
 3293SOL    HW221534   2.598   2.157   5.213  1.8943 -0.7182 -0.7815
 3294SOL     OW21535   3.471   0.136   6.523  0.5192  0.3095  0.3290
 3294SOL    HW121536   3.484   0.210   6.456 -0.8314 -2.2647 -2.9304
 3294SOL    HW221537   3.383   0.147   6.569  0.1946  0.5723 -0.3534
 3295SOL     OW21538   9.726   4.302   4.711 -0.3281 -0.3613  0.3460
 3295SOL    HW121539   9.747   4.218   4.661 -0.0299 -0.7275  1.0844
 3295SOL    HW221540   9.658   4.354   4.660  0.0878 -0.6528 -0.5236
 3296SOL     OW21541   4.983   1.851   0.951  0.2244  0.2608  0.2337
 3296SOL    HW121542   4.955   1.762   0.913 -0.4141  0.6120 -0.1290
 3296SOL    HW221543   4.940   1.924   0.898  1.6220  0.8105 -0.1675
 3297SOL     OW21544   3.421   7.209   0.372  0.2111  0.1271 -0.1066
 3297SOL    HW121545   3.351   7.162   0.425  0.9698 -1.3786 -0.4273
 3297SOL    HW221546   3.512   7.179   0.402  0.7345  1.9774  0.2375
 3298SOL     OW21547   9.117   7.947   6.880 -0.0084 -0.4839 -0.2013
 3298SOL    HW121548   9.184   8.021   6.870 -2.3701  1.8836  1.2259
 3298SOL    HW221549   9.117   7.914   6.974  0.3746 -1.7228 -0.6174
 3299SOL     OW21550   1.429   5.009   1.722 -0.3015  0.1497 -0.2906
 3299SOL    HW121551   1.466   5.086   1.775 -2.2151 -0.2433  1.6729
 3299SOL    HW221552   1.398   5.042   1.633  1.2442  1.1744 -0.4721
 3300SOL     OW21553   9.957   1.461   6.998  0.1533 -0.1637 -0.1082
 3300SOL    HW121554  10.000   1.378   6.961  2.1879  1.5804 -1.7909
 3300SOL    HW221555   9.945   1.451   7.096  1.5240 -1.9800 -0.0946
 3301SOL     OW21556   4.192   0.578   2.591 -0.3932 -0.3523  0.3739
 3301SOL    HW121557   4.243   0.524   2.658  1.8689  0.2300 -0.8065
 3301SOL    HW221558   4.207   0.540   2.500  1.9231  2.6322 -0.5880
 3302SOL     OW21559   9.683   7.593   6.094  0.6235 -0.8112  0.1154
 3302SOL    HW121560   9.777   7.583   6.126  0.3488  4.2511  2.9973
 3302SOL    HW221561   9.681   7.650   6.012  0.0393 -0.4108  0.4014
 3303SOL     OW21562   0.550   5.026   3.541  0.2220  0.1775 -0.4257
 3303SOL    HW121563   0.625   5.093   3.547  1.0391 -0.6663 -1.1071
 3303SOL    HW221564   0.583   4.943   3.496 -0.5448 -1.0263  1.1736
 3304SOL     OW21565   4.262   1.703   0.146 -0.3009  0.1158  0.2676
 3304SOL    HW121566   4.307   1.616   0.123  0.3999  0.8742 -1.3795
 3304SOL    HW221567   4.332   1.773   0.159 -0.9496  1.3404 -2.4549
 3305SOL     OW21568   8.589   5.504   1.711  0.2726 -0.0445  0.6389
 3305SOL    HW121569   8.679   5.485   1.750 -0.6182 -1.7732  1.9241
 3305SOL    HW221570   8.596   5.507   1.611  1.7990  0.1723  0.7368
 3306SOL     OW21571   7.564   6.546   3.713 -0.0010  0.1819  0.1294
 3306SOL    HW121572   7.529   6.636   3.689 -1.2997 -0.5744 -0.9295
 3306SOL    HW221573   7.618   6.510   3.637 -1.0977 -0.7075 -0.2556
 3307SOL     OW21574   1.825   5.199   3.619 -0.2365  0.2670 -0.3692
 3307SOL    HW121575   1.920   5.218   3.593  0.6445 -0.5754  2.0457
 3307SOL    HW221576   1.801   5.106   3.592  0.4529 -0.3720  1.1735
 3308SOL     OW21577   7.584   0.320   2.954  0.1798 -0.1738  0.0263
 3308SOL    HW121578   7.499   0.267   2.959  0.2869 -0.6096 -2.2459
 3308SOL    HW221579   7.662   0.260   2.971  0.1872 -0.3722 -0.6865
 3309SOL     OW21580   4.302   7.631   1.777 -0.3665 -0.4511 -0.4396
 3309SOL    HW121581   4.358   7.566   1.726 -0.3033 -1.3627  0.7880
 3309SOL    HW221582   4.348   7.720   1.779  0.0106 -0.6230 -1.2710
 3310SOL     OW21583   4.135   0.332   3.475 -0.1533 -0.3651 -0.5879
 3310SOL    HW121584   4.043   0.336   3.437  0.1212 -0.2530 -1.2564
 3310SOL    HW221585   4.140   0.261   3.544 -1.1371  0.6161  0.5195
 3311SOL     OW21586   3.718   4.042   0.262  0.0716 -0.1526 -0.3439
 3311SOL    HW121587   3.696   3.945   0.270  0.3611 -0.2196 -0.3690
 3311SOL    HW221588   3.817   4.056   0.273 -0.1894  0.3420  1.3979
 3312SOL     OW21589   3.805   8.239   7.119  0.5060 -0.4484 -0.0613
 3312SOL    HW121590   3.728   8.190   7.077 -0.1962 -0.9935  1.8096
 3312SOL    HW221591   3.785   8.337   7.121  1.5019 -0.1502 -2.9543
 3313SOL     OW21592   1.663   7.775   0.326  0.4481  0.3729  0.2215
 3313SOL    HW121593   1.592   7.756   0.394  0.0233  2.4170  0.3755
 3313SOL    HW221594   1.752   7.774   0.370  0.1969  1.4415  0.7737
 3314SOL     OW21595   8.948   7.229   7.980  0.2249  0.0679  0.4770
 3314SOL    HW121596   9.045   7.242   7.959 -0.5773  0.7285 -3.1772
 3314SOL    HW221597   8.919   7.298   8.045  1.7351  1.1791  0.0117
 3315SOL     OW21598   9.958   8.636   5.595 -0.5199 -0.0804 -0.3882
 3315SOL    HW121599  10.033   8.645   5.660  0.8693 -0.0941 -1.9483
 3315SOL    HW221600   9.935   8.727   5.559 -1.0898 -0.1092 -0.1051
 3316SOL     OW21601   8.679   1.139   1.123 -0.6222  0.4107  0.4967
 3316SOL    HW121602   8.768   1.100   1.103 -1.5684 -0.9625 -1.1688
 3316SOL    HW221603   8.674   1.231   1.085 -0.1575  0.2358  0.0114
 3317SOL     OW21604   4.137   5.824   3.251  0.1109  0.0882  0.2434
 3317SOL    HW121605   4.094   5.756   3.311  0.9896 -0.6690  0.0232
 3317SOL    HW221606   4.173   5.899   3.306  2.5264 -1.4693  0.8711
 3318SOL     OW21607   9.326   9.304   3.616 -0.3074 -0.2393  0.3782
 3318SOL    HW121608   9.268   9.225   3.638 -0.9347  0.7113  2.2046
 3318SOL    HW221609   9.342   9.306   3.517 -0.1202 -2.7492  0.3199
 3319SOL     OW21610   0.803   1.706   2.652 -0.1513  0.8028 -0.1567
 3319SOL    HW121611   0.729   1.771   2.666 -0.6914  0.1371  0.0914
 3319SOL    HW221612   0.867   1.712   2.729 -0.9390  0.0655  0.5683
 3320SOL     OW21613   4.213   8.454   0.385  0.0552 -0.2125 -0.6858
 3320SOL    HW121614   4.229   8.545   0.425 -1.5440  0.2041 -0.9672
 3320SOL    HW221615   4.128   8.416   0.422  2.2226 -2.9134  1.7267
 3321SOL     OW21616   4.530   8.740   6.586 -0.6458 -0.0220  0.0588
 3321SOL    HW121617   4.440   8.759   6.626 -0.8672 -0.5601 -0.1849
 3321SOL    HW221618   4.599   8.744   6.658 -0.7482  1.2292  0.1030
 3322SOL     OW21619   9.188   3.690   6.076 -0.0594 -0.7720  0.3943
 3322SOL    HW121620   9.255   3.635   6.026 -1.7383 -2.2031 -0.3556
 3322SOL    HW221621   9.224   3.713   6.166  1.7933 -0.7293 -0.3287
 3323SOL     OW21622   3.145   6.638   0.483 -0.2717  0.0303 -0.3982
 3323SOL    HW121623   3.124   6.542   0.461  2.4663 -0.8505  0.5464
 3323SOL    HW221624   3.141   6.651   0.582  2.5856  0.0108 -0.2384
 3324SOL     OW21625   6.729   1.069   4.407  0.4509  0.0665  0.0086
 3324SOL    HW121626   6.809   1.024   4.446 -0.0993 -1.6600 -0.7864
 3324SOL    HW221627   6.756   1.123   4.327  0.6934 -1.4118 -0.9403
 3325SOL     OW21628   8.515   5.185   0.849 -0.3894  0.2124  0.1312
 3325SOL    HW121629   8.423   5.193   0.888 -0.9632  1.0038 -1.3518
 3325SOL    HW221630   8.544   5.274   0.813  0.7388 -0.1638  0.0975
 3326SOL     OW21631   3.459   4.298   4.677 -0.2361  0.5442 -0.0165
 3326SOL    HW121632   3.424   4.212   4.713  0.3164 -0.0717 -0.9508
 3326SOL    HW221633   3.483   4.287   4.581  0.4626  1.5607  0.0366
 3327SOL     OW21634   0.443   4.391   8.007  0.1354  0.3905 -0.5033
 3327SOL    HW121635   0.462   4.295   8.028 -0.0952  0.6745  1.0610
 3327SOL    HW221636   0.344   4.405   8.005  0.1322  0.2629 -2.3639
 3328SOL     OW21637   3.423   5.368   6.408  0.2160 -0.0795  0.3912
 3328SOL    HW121638   3.445   5.354   6.311  0.3079  1.0660  0.2290
 3328SOL    HW221639   3.507   5.366   6.462  0.6032  2.5874 -0.0080
 3329SOL     OW21640   8.202   9.009   5.971  0.1614 -0.5803 -0.2535
 3329SOL    HW121641   8.238   8.916   5.984 -0.7600 -0.9285 -0.2109
 3329SOL    HW221642   8.202   9.031   5.873  1.5906 -0.1376 -0.1637
 3330SOL     OW21643   0.934   4.243   1.075 -0.6397 -0.1983 -0.1098
 3330SOL    HW121644   0.959   4.333   1.041 -0.5355 -0.6642 -1.3056
 3330SOL    HW221645   0.954   4.237   1.173  0.0876  0.8051 -0.1904
 3331SOL     OW21646   3.726   4.203   0.748  0.0199 -0.6193  0.2954
 3331SOL    HW121647   3.673   4.131   0.704 -0.2816  0.0219 -0.4012
 3331SOL    HW221648   3.816   4.210   0.704 -0.0429 -0.4107  0.1968
 3332SOL     OW21649   3.817   7.685   4.565 -0.2805  0.8922 -0.1499
 3332SOL    HW121650   3.742   7.702   4.500  0.4658 -0.9068 -1.5023
 3332SOL    HW221651   3.904   7.708   4.522  0.2049 -0.1426  0.2787
 3333SOL     OW21652   8.258   0.516   5.704  0.0876  0.6499 -0.3147
 3333SOL    HW121653   8.170   0.563   5.710  0.4711  1.6608 -2.1172
 3333SOL    HW221654   8.273   0.460   5.786 -2.2676  0.3747 -0.0600
 3334SOL     OW21655   1.817   3.792   1.773  0.2516  0.0949 -0.1496
 3334SOL    HW121656   1.724   3.823   1.793 -0.4984 -1.6431 -0.8643
 3334SOL    HW221657   1.871   3.791   1.857 -0.6049  0.3397  0.4030
 3335SOL     OW21658   3.083   8.455   7.037 -0.0218 -0.5304 -0.2112
 3335SOL    HW121659   3.143   8.415   7.107  0.1548  0.1174  0.0152
 3335SOL    HW221660   3.022   8.385   7.001  0.3666 -1.0283  0.0925
 3336SOL     OW21661   2.299   6.037   2.786 -0.0705  0.2201  0.6191
 3336SOL    HW121662   2.200   6.040   2.800 -0.1399  1.8207 -0.0490
 3336SOL    HW221663   2.341   6.116   2.831  0.9927 -0.8529  1.5274
 3337SOL     OW21664   1.382   7.255   5.645  0.1903 -0.2656  0.1839
 3337SOL    HW121665   1.445   7.266   5.568  1.1021 -1.5796  0.7305
 3337SOL    HW221666   1.432   7.221   5.724 -1.2675 -1.6882  0.5248
 3338SOL     OW21667   4.155   6.285   2.297 -1.1803 -0.7106 -0.0213
 3338SOL    HW121668   4.104   6.201   2.317 -2.0482 -0.3445 -0.6545
 3338SOL    HW221669   4.106   6.338   2.227 -1.1425  0.7912  1.0734
 3339SOL     OW21670   8.221   1.729   7.605  0.0185  0.4047 -0.5068
 3339SOL    HW121671   8.161   1.770   7.537  2.0889  2.2931 -1.2477
 3339SOL    HW221672   8.175   1.729   7.694 -0.3629  3.6078 -0.6580
 3340SOL     OW21673   9.684   2.340   1.739 -0.1979  0.1251 -0.2773
 3340SOL    HW121674   9.699   2.424   1.792  1.5890 -0.9882  1.0312
 3340SOL    HW221675   9.651   2.268   1.799  0.2195 -0.6864 -1.0102
 3341SOL     OW21676   4.793   4.178   5.773 -0.1934 -0.1994  0.4209
 3341SOL    HW121677   4.780   4.161   5.676  2.3689  0.6424 -0.0942
 3341SOL    HW221678   4.760   4.270   5.796  3.1343  1.2962 -0.5527
 3342SOL     OW21679   4.640   0.550   6.713 -0.2266  0.6398  0.0018
 3342SOL    HW121680   4.614   0.549   6.616 -0.3168 -0.9624  0.0213
 3342SOL    HW221681   4.732   0.512   6.724 -0.8085 -0.6307  0.6791
 3343SOL     OW21682   8.886   9.513   6.503  0.0117  0.0360  0.2496
 3343SOL    HW121683   8.833   9.536   6.421  0.2437 -0.9954 -0.1959
 3343SOL    HW221684   8.826   9.468   6.569 -0.0639  0.4310  0.4501
 3344SOL     OW21685   9.703   7.666   6.904  0.4158  0.4767 -0.7214
 3344SOL    HW121686   9.790   7.618   6.916  1.0536  1.8256  0.1019
 3344SOL    HW221687   9.657   7.630   6.823  1.2706 -0.9398 -0.6029
 3345SOL     OW21688   2.792   5.688   4.553 -0.4243 -0.0423  0.0592
 3345SOL    HW121689   2.829   5.766   4.501 -0.0428  0.3775  0.9590
 3345SOL    HW221690   2.842   5.606   4.528  1.8690  0.6911  2.0121
 3346SOL     OW21691   0.964   3.695   0.677 -0.2619 -0.4941  0.3131
 3346SOL    HW121692   0.875   3.670   0.713 -0.3521  1.0087  1.1666
 3346SOL    HW221693   1.031   3.698   0.751  0.1602 -0.1311 -0.0788
 3347SOL     OW21694   0.043   4.824   5.201  0.0973  0.2475  0.0463
 3347SOL    HW121695  -0.014   4.891   5.248  0.1933  0.4524 -0.1299
 3347SOL    HW221696   0.136   4.859   5.194  0.0126  0.3552 -0.5762
 3348SOL     OW21697   0.936   5.230   6.144  0.3982 -0.1893 -0.2381
 3348SOL    HW121698   1.008   5.264   6.204 -0.3372  0.8143  0.0876
 3348SOL    HW221699   0.904   5.304   6.085 -0.4882 -0.5729 -0.2503
 3349SOL     OW21700   9.127   9.675   4.501 -0.3206 -0.1348  0.0242
 3349SOL    HW121701   9.052   9.626   4.456  0.8137 -1.9651  0.0773
 3349SOL    HW221702   9.209   9.671   4.443  0.5723 -0.7523  1.3191
 3350SOL     OW21703   9.124   5.844   3.081 -0.1000 -0.1003 -0.9460
 3350SOL    HW121704   9.167   5.862   3.169 -0.3256  1.7936 -1.2151
 3350SOL    HW221705   9.100   5.747   3.075  1.4066 -0.5734  0.4032
 3351SOL     OW21706   0.581   4.505   1.395 -0.0938  0.0117  0.5290
 3351SOL    HW121707   0.671   4.493   1.437 -0.0329  1.5182  0.8476
 3351SOL    HW221708   0.577   4.453   1.310  0.8540 -0.5715  0.8267
 3352SOL     OW21709   2.741   7.263   3.610  0.1322  0.1900 -0.2271
 3352SOL    HW121710   2.673   7.322   3.654  1.3450  0.5086  1.2321
 3352SOL    HW221711   2.833   7.296   3.631  0.8431 -2.2335  0.6183
 3353SOL     OW21712   5.057   8.483   1.151  0.8472  0.0257 -0.0228
 3353SOL    HW121713   5.143   8.534   1.151  0.3240  0.9998 -3.1038
 3353SOL    HW221714   5.070   8.396   1.104 -0.1361  0.7546 -1.6947
 3354SOL     OW21715   4.713   4.459   1.707 -0.3541 -0.0259 -0.0591
 3354SOL    HW121716   4.658   4.422   1.783 -2.6719 -2.7640 -2.9098
 3354SOL    HW221717   4.660   4.529   1.659 -0.8070 -1.5381 -1.8427
 3355SOL     OW21718   9.820   0.364   5.172 -0.5448  0.2130  0.4806
 3355SOL    HW121719   9.731   0.330   5.205 -0.4557 -0.5371 -0.0343
 3355SOL    HW221720   9.871   0.288   5.132 -0.2485  0.9333 -0.5019
 3356SOL     OW21721   4.489   6.281   0.404  0.3765  0.2581  0.1882
 3356SOL    HW121722   4.569   6.241   0.360 -0.0003 -0.5907  0.2526
 3356SOL    HW221723   4.497   6.272   0.504  0.2728  0.2975  0.2007
 3357SOL     OW21724   6.495   5.294   7.017  0.2444 -0.1962  0.0812
 3357SOL    HW121725   6.528   5.210   7.059  2.6663 -0.0796 -1.4909
 3357SOL    HW221726   6.532   5.302   6.924 -1.1880  1.8438 -0.3573
 3358SOL     OW21727   8.448   0.374   4.555 -0.4802  0.1896 -0.2109
 3358SOL    HW121728   8.450   0.451   4.618 -1.0293  0.0553 -0.0346
 3358SOL    HW221729   8.517   0.388   4.484  1.7354 -0.7340  1.6930
 3359SOL     OW21730   6.105   1.502   0.563 -0.3570 -0.4647 -1.3039
 3359SOL    HW121731   6.184   1.482   0.504  1.4451  1.5880  0.3506
 3359SOL    HW221732   6.137   1.529   0.654 -3.0230 -0.3650 -0.3447
 3360SOL     OW21733   4.287   8.175   1.030  0.2535  0.1611  0.7453
 3360SOL    HW121734   4.195   8.140   1.047 -0.5567  1.3038 -1.0900
 3360SOL    HW221735   4.349   8.098   1.013 -1.2270 -0.4918 -1.9755
 3361SOL     OW21736   4.607   0.329   3.511 -0.3233 -0.0414  0.5661
 3361SOL    HW121737   4.616   0.233   3.484  1.1787 -0.0152  0.9294
 3361SOL    HW221738   4.570   0.334   3.604  1.8713 -0.3448  1.4698
 3362SOL     OW21739   0.497   9.684   6.646 -0.5634  0.2037  0.3960
 3362SOL    HW121740   0.418   9.677   6.708 -0.6903 -1.5276  0.0550
 3362SOL    HW221741   0.567   9.618   6.674  0.9027  1.9225  0.8630
 3363SOL     OW21742   0.344   9.800   3.260 -0.2370  0.0228 -0.2779
 3363SOL    HW121743   0.381   9.836   3.345  0.5639 -1.1214 -0.1342
 3363SOL    HW221744   0.247   9.776   3.274 -0.1184 -0.1304  0.3012
 3364SOL     OW21745   6.610   5.488   7.202 -0.3131 -0.7663  0.7120
 3364SOL    HW121746   6.586   5.417   7.136  0.4258  0.6803 -1.1727
 3364SOL    HW221747   6.527   5.523   7.245 -1.0382 -0.2736 -1.0274
 3365SOL     OW21748   2.308   6.306   5.498  0.5402 -0.4776 -0.3500
 3365SOL    HW121749   2.380   6.286   5.432  0.2321  0.7225 -1.0849
 3365SOL    HW221750   2.220   6.315   5.450 -0.0633 -1.6696  0.4987
 3366SOL     OW21751   3.126   4.695   0.476 -0.6550 -0.0850 -0.4673
 3366SOL    HW121752   3.081   4.752   0.545  0.3161  0.7725 -0.5426
 3366SOL    HW221753   3.104   4.729   0.385 -0.9615 -0.4968 -0.5502
 3367SOL     OW21754   7.770   6.618   1.830  0.0627 -0.3081 -0.6025
 3367SOL    HW121755   7.856   6.649   1.870  0.6802 -1.8249 -0.7580
 3367SOL    HW221756   7.704   6.694   1.830  0.0374 -0.2514  3.2630
 3368SOL     OW21757   3.225   8.615   4.513  0.1721  0.4247  0.3174
 3368SOL    HW121758   3.147   8.619   4.451 -0.7781  1.5654  1.5685
 3368SOL    HW221759   3.221   8.530   4.566 -0.2770  0.5339  0.4583
 3369SOL     OW21760   4.717   9.101   2.354 -0.5494 -0.2514  0.4535
 3369SOL    HW121761   4.727   9.104   2.254  0.2858 -2.5560  0.4544
 3369SOL    HW221762   4.736   9.192   2.392 -0.9104  0.6616 -1.4698
 3370SOL     OW21763   6.721   1.520   1.008 -0.1523 -0.5122  0.5355
 3370SOL    HW121764   6.817   1.545   0.993 -0.4912  0.4712 -0.0435
 3370SOL    HW221765   6.680   1.491   0.921 -0.4563 -0.6533  0.7251
 3371SOL     OW21766   3.183   9.177   7.987 -0.5430  0.3854 -0.4989
 3371SOL    HW121767   3.264   9.184   7.929  0.0428  0.3991  0.3123
 3371SOL    HW221768   3.115   9.244   7.958  0.9656  2.5430  0.7410
 3372SOL     OW21769   8.342   1.055   3.427  0.2409 -0.2270 -0.4503
 3372SOL    HW121770   8.270   1.123   3.412  2.7723  2.8808  0.7066
 3372SOL    HW221771   8.397   1.046   3.344  0.3531 -0.3035 -0.3672
 3373SOL     OW21772   4.715   2.010   5.290 -0.4948 -0.1709  0.1845
 3373SOL    HW121773   4.812   1.997   5.274 -0.2101  0.1044  1.6340
 3373SOL    HW221774   4.670   1.921   5.295 -0.2407 -0.3122 -0.0496
 3374SOL     OW21775   7.806   1.525   2.153  0.3527  0.0464 -0.3682
 3374SOL    HW121776   7.760   1.446   2.113 -0.1657  0.7274 -1.1342
 3374SOL    HW221777   7.798   1.603   2.091 -2.1155  1.6730  1.8758
 3375SOL     OW21778   4.116   8.638   5.581  0.3980  0.2848  0.2612
 3375SOL    HW121779   4.105   8.547   5.619  1.1315  0.5242  1.0773
 3375SOL    HW221780   4.063   8.646   5.496 -1.6802 -0.1037  1.4746
 3376SOL     OW21781   8.161   6.785   5.155  0.0279 -0.3618 -0.0517
 3376SOL    HW121782   8.071   6.741   5.149 -0.4833  0.5615  0.8304
 3376SOL    HW221783   8.153   6.881   5.127  0.6917 -0.2028  0.3013
 3377SOL     OW21784   9.372   7.974   0.021 -0.4662 -0.2248 -0.1046
 3377SOL    HW121785   9.461   7.962  -0.023  0.0009  1.5895  0.2908
 3377SOL    HW221786   9.329   8.057  -0.013 -1.0162  0.0876  1.3217
 3378SOL     OW21787   6.458   5.744   1.511  0.6355  0.0192  0.5238
 3378SOL    HW121788   6.487   5.729   1.605  1.1270  0.9791  0.5331
 3378SOL    HW221789   6.384   5.811   1.509 -0.7382 -1.4761  0.3898
 3379SOL     OW21790   2.853   7.671   1.949  0.2992 -0.5645 -0.7810
 3379SOL    HW121791   2.873   7.635   2.040  0.3520 -0.2269 -0.6595
 3379SOL    HW221792   2.822   7.596   1.890 -0.2782 -0.6878 -0.3263
 3380SOL     OW21793   7.959   8.015   7.316  0.3660  0.6437 -1.0151
 3380SOL    HW121794   7.895   7.938   7.311  0.9792 -0.0851  1.5861
 3380SOL    HW221795   7.934   8.084   7.248 -2.2791 -0.3017 -1.0523
 3381SOL     OW21796   3.532   4.921   6.684  0.5409  0.0052  0.1380
 3381SOL    HW121797   3.625   4.926   6.647  0.8344  0.0515  0.8644
 3381SOL    HW221798   3.492   5.013   6.687  0.3019 -0.0695 -0.5815
 3382SOL     OW21799   6.355   2.337   0.619 -0.2240  0.2999  0.1040
 3382SOL    HW121800   6.372   2.254   0.566  0.5634 -0.5957  1.7105
 3382SOL    HW221801   6.329   2.412   0.557  0.9199 -0.6389 -1.5457
 3383SOL     OW21802   6.864   5.778   7.291  0.1560 -0.0160  0.0750
 3383SOL    HW121803   6.861   5.738   7.199 -0.9770  0.2800 -0.0244
 3383SOL    HW221804   6.851   5.877   7.284 -1.5172 -0.1765  0.6656
 3384SOL     OW21805   1.999   0.691   4.070  0.5609 -0.2233  0.2457
 3384SOL    HW121806   1.948   0.616   4.110  0.6689 -0.6470 -0.3986
 3384SOL    HW221807   1.996   0.684   3.970  0.1861  0.8839  0.1663
 3385SOL     OW21808   1.157   5.344   0.023  0.1075 -0.0048 -0.3707
 3385SOL    HW121809   1.100   5.278  -0.027 -0.8566  1.4197 -1.1983
 3385SOL    HW221810   1.184   5.418  -0.039  1.2137  0.3624  0.5358
 3386SOL     OW21811   1.044   7.367   1.385 -0.6028 -0.0325 -0.1871
 3386SOL    HW121812   0.993   7.402   1.306 -2.1274 -0.1756  0.7273
 3386SOL    HW221813   1.141   7.359   1.360 -0.2303  4.3193 -0.6023
 3387SOL     OW21814   0.512   2.987   4.326  0.1183  0.9311  0.6226
 3387SOL    HW121815   0.449   3.064   4.318 -0.2374  0.5990  0.2074
 3387SOL    HW221816   0.559   2.974   4.239 -1.5147 -0.7723 -0.0317
 3388SOL     OW21817   9.972   1.866   2.124 -0.0536  0.4419 -0.1158
 3388SOL    HW121818  10.033   1.914   2.061  1.2574  0.8307  1.4318
 3388SOL    HW221819   9.988   1.767   2.117  1.4110  0.5970  0.9498
 3389SOL     OW21820   2.131   1.046   3.046 -0.4728 -0.5229  0.3532
 3389SOL    HW121821   2.122   0.968   2.983  0.1765 -1.6632  1.6400
 3389SOL    HW221822   2.109   1.017   3.139 -2.8510  1.5123  0.4686
 3390SOL     OW21823   3.898   8.585   5.395 -0.0194 -0.3905 -0.8261
 3390SOL    HW121824   3.855   8.537   5.471  1.2659 -2.2483 -1.2364
 3390SOL    HW221825   3.863   8.679   5.390 -1.8832 -0.9898  0.5676
 3391SOL     OW21826   3.143   5.092   2.043 -0.4393  0.0008  0.9269
 3391SOL    HW121827   3.233   5.058   2.014 -0.1041  1.1451  0.5923
 3391SOL    HW221828   3.156   5.165   2.112 -1.1713 -1.4294  2.6217
 3392SOL     OW21829   9.041   9.138   1.943 -0.4858  0.9381  0.0833
 3392SOL    HW121830   9.092   9.132   2.029 -0.1229  1.8058 -0.0760
 3392SOL    HW221831   9.053   9.228   1.902 -1.3490  0.8222 -0.4537
 3393SOL     OW21832   9.223   6.487   3.853 -0.2352  0.0372  0.2710
 3393SOL    HW121833   9.195   6.583   3.862  0.8594  0.4351 -0.4743
 3393SOL    HW221834   9.245   6.450   3.943  0.2564  0.7701  0.4509
 3394SOL     OW21835   2.218   0.789   7.684 -0.8312 -0.3159  0.2582
 3394SOL    HW121836   2.197   0.841   7.767 -1.3026  1.8332 -1.1762
 3394SOL    HW221837   2.295   0.831   7.637  0.4972 -2.4933  0.4307
 3395SOL     OW21838   8.864   6.257   7.694 -0.9376  0.0622 -0.2495
 3395SOL    HW121839   8.863   6.178   7.633 -0.6781  0.6782 -1.0629
 3395SOL    HW221840   8.869   6.226   7.789 -2.8598 -0.9544 -0.4427
 3396SOL     OW21841   4.339   1.590   3.771  0.0247 -0.2230 -0.2844
 3396SOL    HW121842   4.330   1.493   3.796  0.8086 -0.2207  0.0163
 3396SOL    HW221843   4.248   1.628   3.753 -0.6790 -0.0240  3.3217
 3397SOL     OW21844   9.307   9.772   0.192 -0.0093 -0.2075 -0.1612
 3397SOL    HW121845   9.225   9.719   0.216 -0.5066  0.4848 -0.3084
 3397SOL    HW221846   9.388   9.715   0.204 -0.2503 -0.0214  2.8347
 3398SOL     OW21847   7.888   1.931   4.345  0.3704 -0.0915  0.0295
 3398SOL    HW121848   7.890   2.004   4.277  2.5237  0.2902  0.4680
 3398SOL    HW221849   7.825   1.955   4.419  0.5326  0.9976 -0.1783
 3399SOL     OW21850   2.714   6.369   7.060 -0.1721  0.6893 -0.6013
 3399SOL    HW121851   2.789   6.415   7.013 -0.2889  1.8404  0.3228
 3399SOL    HW221852   2.634   6.429   7.063 -1.1908 -0.5987 -1.7337
 3400SOL     OW21853   8.827   0.248   6.250  0.0852  0.1030 -0.0254
 3400SOL    HW121854   8.824   0.285   6.343  0.8325 -0.4557  0.2250
 3400SOL    HW221855   8.781   0.159   6.248  0.4218 -0.0674 -0.1080
 3401SOL     OW21856   8.044   2.979   1.406 -0.1882 -0.5373 -0.2276
 3401SOL    HW121857   8.011   2.888   1.381  0.4523 -0.4703 -1.3479
 3401SOL    HW221858   7.992   3.049   1.357  1.1951 -0.4126 -1.5829
 3402SOL     OW21859   5.427   7.727   5.442  0.0662  0.3936 -0.2339
 3402SOL    HW121860   5.455   7.632   5.455  2.3085  1.0394 -0.0708
 3402SOL    HW221861   5.431   7.751   5.345 -1.1606  0.1398 -0.3543
 3403SOL     OW21862   0.871   2.274   2.502  0.3522  0.2522 -0.0093
 3403SOL    HW121863   0.908   2.217   2.575 -0.6835 -2.4999 -1.5364
 3403SOL    HW221864   0.786   2.317   2.533  0.1360 -0.5636  0.5358
 3404SOL     OW21865   7.992   8.405   5.015 -0.2287  0.0608 -0.1102
 3404SOL    HW121866   8.080   8.444   4.989  0.1911 -1.0040 -0.3178
 3404SOL    HW221867   7.920   8.445   4.959  0.3822 -0.5214 -1.3340
 3405SOL     OW21868   3.449   2.606   2.864 -0.3615  0.0133 -0.0010
 3405SOL    HW121869   3.364   2.573   2.822  2.0037 -2.2650 -3.3717
 3405SOL    HW221870   3.488   2.533   2.920  1.1863 -0.3517 -1.5032
 3406SOL     OW21871   1.529   2.552   7.753 -0.0856 -0.0055  0.3772
 3406SOL    HW121872   1.525   2.645   7.716 -0.7169 -1.0317 -2.2201
 3406SOL    HW221873   1.623   2.519   7.751 -0.1416 -0.1271 -0.5441
 3407SOL     OW21874   2.992   4.650   8.177 -0.5361 -0.5654 -0.0164
 3407SOL    HW121875   2.911   4.591   8.168 -0.0038 -1.2916 -0.1083
 3407SOL    HW221876   3.067   4.611   8.123  0.8075 -1.5566  2.5041
 3408SOL     OW21877   8.355   0.707   3.206  0.1455  0.1141  0.2081
 3408SOL    HW121878   8.295   0.628   3.218 -0.3780  0.4467 -0.2322
 3408SOL    HW221879   8.384   0.741   3.295  3.3474 -2.8387  0.3750
 3409SOL     OW21880   3.663   8.731   0.021  0.1939 -0.2702 -0.3840
 3409SOL    HW121881   3.676   8.778   0.109 -0.0050 -0.9989  0.0403
 3409SOL    HW221882   3.666   8.798  -0.053  1.3151  0.2367  0.1002
 3410SOL     OW21883   3.189   0.549   6.191  0.3465  0.0926 -0.2982
 3410SOL    HW121884   3.220   0.639   6.222  0.1096  0.1131 -0.1156
 3410SOL    HW221885   3.090   0.552   6.176  0.2888 -0.2247  0.0166
 3411SOL     OW21886   8.242   1.571   7.197 -0.4767  0.5485  0.2180
 3411SOL    HW121887   8.319   1.618   7.154 -0.2704 -0.8873 -1.0454
 3411SOL    HW221888   8.269   1.537   7.287 -0.1171  1.4089  0.4319
 3412SOL     OW21889   6.704   3.732   1.695 -0.0776 -0.0045 -0.2028
 3412SOL    HW121890   6.605   3.724   1.694 -0.4174  2.9854  2.3924
 3412SOL    HW221891   6.734   3.787   1.617 -0.5701  0.0702 -0.3379
 3413SOL     OW21892   2.072   2.294   1.645  0.5757  0.0195  0.0430
 3413SOL    HW121893   2.075   2.383   1.691  3.3741 -1.2384  2.4287
 3413SOL    HW221894   2.025   2.228   1.703  1.5650 -0.9013 -0.1952
 3414SOL     OW21895   7.096   4.614   7.888 -0.6861  0.4270 -0.0933
 3414SOL    HW121896   7.111   4.698   7.941  0.5194 -0.4266  0.9716
 3414SOL    HW221897   7.137   4.537   7.937 -2.3894 -0.9004 -0.7209
 3415SOL     OW21898   9.104   8.909   6.475 -0.3327  0.5718  0.2154
 3415SOL    HW121899   9.019   8.863   6.501 -0.1751  0.8498  1.2332
 3415SOL    HW221900   9.123   8.891   6.379 -0.9736 -0.3950  0.2595
 3416SOL     OW21901   1.273   3.806   5.933 -0.2530  0.3297  0.3865
 3416SOL    HW121902   1.308   3.887   5.980  0.8978  0.0666 -0.0173
 3416SOL    HW221903   1.265   3.825   5.835 -1.0028  0.3060  0.4418
 3417SOL     OW21904   7.843   1.465   3.618  0.0585 -0.1146  0.3196
 3417SOL    HW121905   7.750   1.443   3.588  0.1082  0.3053 -0.1522
 3417SOL    HW221906   7.904   1.390   3.595 -0.1143 -0.2779  0.3919
 3418SOL     OW21907   0.667   7.671   1.243  0.1204 -0.6535  0.4461
 3418SOL    HW121908   0.608   7.641   1.318 -1.1958  0.2960 -0.1948
 3418SOL    HW221909   0.663   7.771   1.236  0.4477 -0.7174 -0.7042
 3419SOL     OW21910   0.738   6.147   3.255 -0.8558  0.5851 -0.1925
 3419SOL    HW121911   0.775   6.148   3.161  0.0748  1.0198  0.1691
 3419SOL    HW221912   0.638   6.145   3.251 -0.8127 -2.1786 -1.2061
 3420SOL     OW21913   4.575   3.211   1.142  0.4872  0.5265 -0.2808
 3420SOL    HW121914   4.651   3.236   1.201  0.9007  1.0040 -1.0068
 3420SOL    HW221915   4.492   3.259   1.171  0.1802 -0.8926  1.2377
 3421SOL     OW21916   8.122   5.488   7.169  0.5651  0.6451 -0.2952
 3421SOL    HW121917   8.153   5.398   7.201 -1.2436  0.3823  0.7991
 3421SOL    HW221918   8.024   5.498   7.187  0.7393  2.8376 -0.4192
 3422SOL     OW21919   4.695   2.932   7.912 -0.2233 -0.4805 -0.4375
 3422SOL    HW121920   4.656   2.846   7.877  0.1613 -0.4993 -0.8167
 3422SOL    HW221921   4.622   2.998   7.926 -0.7370 -1.4072  1.4004
 3423SOL     OW21922   1.335   0.784   2.773  0.0091 -0.3109  0.0159
 3423SOL    HW121923   1.265   0.783   2.845 -1.3881 -0.6506 -1.3180
 3423SOL    HW221924   1.387   0.869   2.778 -1.6948  0.7511 -0.0929
 3424SOL     OW21925   9.537   1.261   1.976 -0.2548  0.1958  0.0118
 3424SOL    HW121926   9.441   1.253   2.002 -0.4490 -0.6190 -0.9475
 3424SOL    HW221927   9.573   1.349   2.008 -0.7710 -0.3277  2.0997
 3425SOL     OW21928   4.694   4.289   0.878 -0.3691 -0.0669  0.0176
 3425SOL    HW121929   4.680   4.311   0.974 -0.6475  1.3285 -0.3292
 3425SOL    HW221930   4.617   4.235   0.844 -0.6852  0.1779  0.3443
 3426SOL     OW21931   8.973   8.279   0.443 -0.0528 -0.4039 -0.4373
 3426SOL    HW121932   9.065   8.279   0.406 -0.1072 -0.8960 -0.5709
 3426SOL    HW221933   8.954   8.368   0.485  0.8852 -0.7098  0.6204
 3427SOL     OW21934   6.439   7.544   2.894 -0.4768 -0.2642 -0.1932
 3427SOL    HW121935   6.466   7.583   2.982 -0.0739  0.2927 -0.5562
 3427SOL    HW221936   6.340   7.547   2.884 -0.4767  0.2953 -0.0412
 3428SOL     OW21937   8.506   8.139   7.171  0.0252  0.5811  0.3039
 3428SOL    HW121938   8.558   8.138   7.256  0.9399 -1.2840 -0.2514
 3428SOL    HW221939   8.409   8.151   7.191  0.3069  0.8463  1.5525
 3429SOL     OW21940   3.126   7.789   7.737 -0.0778 -0.0953  0.1955
 3429SOL    HW121941   3.226   7.788   7.734 -0.0443 -1.0966  1.1969
 3429SOL    HW221942   3.096   7.830   7.824 -0.5171 -0.4868  0.2294
 3430SOL     OW21943   5.215   4.555   7.314  0.1504  0.5125  0.3578
 3430SOL    HW121944   5.179   4.584   7.225  1.5628 -0.8031 -0.6670
 3430SOL    HW221945   5.290   4.615   7.341 -0.4145  1.0408  0.7849
 3431SOL     OW21946   8.222   7.432   1.248  0.0981 -0.5274  0.0782
 3431SOL    HW121947   8.203   7.502   1.179 -2.3361 -0.1898  1.0454
 3431SOL    HW221948   8.236   7.344   1.203 -1.3435 -0.2873 -0.8515
 3432SOL     OW21949   7.426   5.303   7.875  0.7037  0.1281  0.1300
 3432SOL    HW121950   7.498   5.370   7.857 -0.1738  1.1372  0.3340
 3432SOL    HW221951   7.370   5.291   7.793 -0.1135  0.8455  0.5750
 3433SOL     OW21952   5.936   9.915   0.960 -0.2352  0.9834  0.3238
 3433SOL    HW121953   5.880   9.972   1.020 -0.4191  1.4201 -0.2566
 3433SOL    HW221954   5.878   9.848   0.914  0.2281 -0.8136  2.2946
 3434SOL     OW21955   3.097   4.207   3.118  0.7347  0.0542  0.0162
 3434SOL    HW121956   3.118   4.111   3.098  0.1294  0.2910 -1.9186
 3434SOL    HW221957   3.015   4.235   3.067  0.0834  1.2280  1.6296
 3435SOL     OW21958   9.132   6.036   5.232 -0.7466 -0.3010 -0.3065
 3435SOL    HW121959   9.038   6.023   5.266 -0.5361 -0.3979  0.2408
 3435SOL    HW221960   9.130   6.095   5.152 -1.1329  0.8549  0.5398
 3436SOL     OW21961   1.560   8.754   3.682  0.0941 -0.4507  0.5737
 3436SOL    HW121962   1.517   8.664   3.688  0.6901 -0.6747  1.4986
 3436SOL    HW221963   1.488   8.824   3.679 -0.3596 -0.7383  3.5072
 3437SOL     OW21964   1.773   4.822   4.552 -0.3562  0.5365  0.3515
 3437SOL    HW121965   1.758   4.870   4.638 -1.5987  1.1123 -0.1802
 3437SOL    HW221966   1.869   4.831   4.525 -0.1415  1.0136  1.2694
 3438SOL     OW21967   9.969   2.761   3.276  0.6418 -0.1466  0.2155
 3438SOL    HW121968  10.063   2.742   3.305  0.1320 -1.3088  1.1303
 3438SOL    HW221969   9.971   2.812   3.190  2.1110 -0.0873  0.2698
 3439SOL     OW21970   2.546   8.547   0.847 -0.0945  0.1397 -0.0325
 3439SOL    HW121971   2.518   8.475   0.782 -0.5804  0.5381 -0.2649
 3439SOL    HW221972   2.598   8.617   0.798  1.1490 -0.4967  0.3590
 3440SOL     OW21973   4.472   2.701   2.758  0.4504  0.2470 -0.1972
 3440SOL    HW121974   4.453   2.785   2.709  2.9109  0.1737 -1.3877
 3440SOL    HW221975   4.478   2.625   2.693 -0.2934 -0.5882  0.6954
 3441SOL     OW21976   7.595   1.185   6.791  0.0201  0.2679  0.3464
 3441SOL    HW121977   7.588   1.159   6.695 -2.6401 -0.5052  0.7179
 3441SOL    HW221978   7.563   1.279   6.803  0.4829  0.4137  0.4809
 3442SOL     OW21979   7.683   8.993   5.880  0.7870 -0.3575 -0.3595
 3442SOL    HW121980   7.691   8.937   5.799  1.9934  0.7400 -1.0216
 3442SOL    HW221981   7.664   8.935   5.960 -1.1141 -1.3611 -1.5116
 3443SOL     OW21982   8.683   8.091   7.548 -0.0960  0.2015  0.1863
 3443SOL    HW121983   8.738   8.151   7.490  1.2900 -0.5629  0.6802
 3443SOL    HW221984   8.677   8.000   7.506  2.0619 -0.7656  1.8052
 3444SOL     OW21985   6.304   4.809   1.136 -0.3053  0.3386 -0.0720
 3444SOL    HW121986   6.302   4.906   1.158  0.1685  0.3754 -0.1878
 3444SOL    HW221987   6.362   4.793   1.056 -1.2269  0.0814 -0.6957
 3445SOL     OW21988   0.055   7.590   6.709  0.1400  0.1002 -0.1771
 3445SOL    HW121989   0.138   7.560   6.662  0.0993  1.4178 -1.0861
 3445SOL    HW221990   0.069   7.681   6.748 -0.0693 -0.6625  1.7690
 3446SOL     OW21991   2.653   1.130   3.243  0.0153 -0.1147 -0.1143
 3446SOL    HW121992   2.750   1.105   3.242  0.5556  1.8858  0.1393
 3446SOL    HW221993   2.609   1.100   3.158  0.4712 -2.4408  0.4462
 3447SOL     OW21994   8.728   0.502   6.788 -0.2439  0.1565 -0.0593
 3447SOL    HW121995   8.765   0.591   6.763  1.3209 -0.0775  1.2785
 3447SOL    HW221996   8.802   0.434   6.788 -1.3903 -1.1195 -0.9344
 3448SOL     OW21997   9.222   8.496   5.953  0.0166 -0.1319  0.0368
 3448SOL    HW121998   9.299   8.512   5.890  0.4653  0.4145  0.7164
 3448SOL    HW221999   9.190   8.402   5.943  1.8048 -0.8552  0.8743
 3449SOL     OW22000   2.007   9.012   0.053 -0.1205 -0.5149  0.1197
 3449SOL    HW122001   1.978   9.068  -0.025  1.1436  0.6217  0.4613
 3449SOL    HW222002   2.084   8.954   0.026 -0.2599 -0.7800  0.2812
 3450SOL     OW22003   7.244   5.450   7.364 -0.1934 -0.6867  0.4181
 3450SOL    HW122004   7.174   5.517   7.390  0.2100  0.2325 -0.8594
 3450SOL    HW222005   7.324   5.497   7.328  0.6403 -1.7964  0.8088
 3451SOL     OW22006   4.116   9.096   5.455 -0.7764  0.3802  0.5527
 3451SOL    HW122007   4.181   9.115   5.528  0.8572 -0.4856 -0.6279
 3451SOL    HW222008   4.040   9.042   5.491  0.2265 -0.4052  1.5442
 3452SOL     OW22009   2.540   0.686   7.635 -0.0665  0.0443  0.0207
 3452SOL    HW122010   2.460   0.627   7.641  0.3259 -0.6079 -1.0176
 3452SOL    HW222011   2.515   0.772   7.590 -0.2372 -0.0612 -0.0839
 3453SOL     OW22012   2.206   9.710   2.384  0.7677  0.4506 -0.7307
 3453SOL    HW122013   2.195   9.757   2.296  0.4947  0.7397 -0.5451
 3453SOL    HW222014   2.298   9.729   2.420  0.7114  0.7263 -0.7276
 3454SOL     OW22015   8.682   3.151   2.521  0.4090  0.2316  0.1433
 3454SOL    HW122016   8.773   3.120   2.548  0.7426  0.3614 -0.8209
 3454SOL    HW222017   8.684   3.182   2.426 -0.1432  2.2896  0.7747
 3455SOL     OW22018   8.366   8.928   1.612  0.0745  0.4167 -0.1036
 3455SOL    HW122019   8.285   8.872   1.628  1.2387 -0.8206  1.5794
 3455SOL    HW222020   8.374   8.996   1.685  1.5305 -0.6414  0.7375
 3456SOL     OW22021   3.009   6.663   7.945  0.2385  0.0918  0.4027
 3456SOL    HW122022   2.982   6.606   8.023  0.3734 -0.1757  0.2531
 3456SOL    HW222023   2.952   6.639   7.866  0.5162 -0.0610  0.2505
 3457SOL     OW22024   3.154   9.301   2.303  0.2310  0.0195  0.1793
 3457SOL    HW122025   3.097   9.231   2.261  0.4832  0.5314 -1.0637
 3457SOL    HW222026   3.251   9.278   2.289  0.3339  1.6742 -2.1581
 3458SOL     OW22027   2.027   3.301   5.242  0.2050  0.0661  0.1825
 3458SOL    HW122028   2.082   3.217   5.244 -1.2471 -1.0063 -2.4170
 3458SOL    HW222029   1.942   3.285   5.292 -1.1530 -0.8653 -2.3408
 3459SOL     OW22030   8.775   2.204   5.712 -0.4574 -0.4020  0.1763
 3459SOL    HW122031   8.864   2.177   5.749 -0.2855 -0.2000 -0.0917
 3459SOL    HW222032   8.769   2.304   5.710  0.2560 -0.3894 -2.0768
 3460SOL     OW22033   9.706   8.025   5.733 -0.4050 -0.6666 -0.1848
 3460SOL    HW122034   9.793   8.052   5.692 -0.4025  1.3097  1.0817
 3460SOL    HW222035   9.630   8.051   5.672 -0.2527 -0.3030 -0.2165
 3461SOL     OW22036   6.242   4.053   0.481 -0.0678 -0.3121 -0.4216
 3461SOL    HW122037   6.316   4.120   0.474 -0.4015  0.1094  0.0677
 3461SOL    HW222038   6.279   3.964   0.502  0.3124 -0.1298 -0.3273
 3462SOL     OW22039   6.271   1.471   5.541  0.1030 -0.0153 -0.0309
 3462SOL    HW122040   6.335   1.400   5.571 -0.4368 -0.6392 -0.3330
 3462SOL    HW222041   6.276   1.549   5.603  0.2835 -0.5616  0.6461
 3463SOL     OW22042   1.846   0.474   7.835  0.2160 -0.2198 -0.0465
 3463SOL    HW122043   1.808   0.486   7.927 -0.1783  2.2207 -0.4995
 3463SOL    HW222044   1.802   0.395   7.792  0.8003 -1.7338  2.0314
 3464SOL     OW22045   9.792   2.359   1.481  0.1675 -0.5025 -0.2969
 3464SOL    HW122046   9.814   2.266   1.451 -0.4164 -1.1862  1.3217
 3464SOL    HW222047   9.764   2.357   1.577  2.3002  1.6676  0.3982
 3465SOL     OW22048   7.546   5.463   7.340 -0.3418  0.7874  0.1963
 3465SOL    HW122049   7.510   5.381   7.295  2.4128  1.1083 -2.7892
 3465SOL    HW222050   7.577   5.439   7.432 -0.2043 -1.3977 -0.3870
 3466SOL     OW22051   1.500   7.732   3.574  0.0947  0.1884 -0.1536
 3466SOL    HW122052   1.425   7.770   3.627  0.3296  0.6356 -0.1428
 3466SOL    HW222053   1.554   7.671   3.632 -1.5784 -1.9414 -0.7506
 3467SOL     OW22054   6.075   5.010   1.968 -0.0580  0.0557  0.3354
 3467SOL    HW122055   6.021   5.047   1.893  0.4159 -0.7674 -0.4340
 3467SOL    HW222056   6.106   4.918   1.943  2.1980  0.7473  0.4883
 3468SOL     OW22057   3.011   1.429   4.751 -0.6457 -0.4332  0.0534
 3468SOL    HW122058   2.992   1.366   4.826 -2.6341 -1.4158 -1.2295
 3468SOL    HW222059   3.005   1.380   4.664  0.2735  0.9869 -0.8204
 3469SOL     OW22060   9.667   3.980   3.097 -0.4338 -0.2807 -0.4949
 3469SOL    HW122061   9.573   4.008   3.077 -0.6873 -0.7181  0.0962
 3469SOL    HW222062   9.675   3.954   3.193  0.6623  1.2331 -0.1488
 3470SOL     OW22063   7.510   5.978   0.613  0.2525  0.1642  0.4809
 3470SOL    HW122064   7.558   6.028   0.685  0.3246 -0.7083  1.0554
 3470SOL    HW222065   7.546   6.004   0.524  1.7306 -0.3814  0.8952
 3471SOL     OW22066   9.691   0.356   1.053 -0.6389 -0.0723  0.5471
 3471SOL    HW122067   9.741   0.376   1.137 -0.2215 -0.3385  0.3632
 3471SOL    HW222068   9.661   0.442   1.011 -1.6800  0.0251  1.4672
 3472SOL     OW22069   3.208   8.159   1.419 -0.1085 -0.2123  0.4494
 3472SOL    HW122070   3.277   8.106   1.469  0.8270 -1.2806 -1.8842
 3472SOL    HW222071   3.250   8.243   1.385 -0.2585 -0.3096  0.0179
 3473SOL     OW22072   8.657   9.208   7.662  0.3419  0.2586  0.2961
 3473SOL    HW122073   8.558   9.197   7.654  0.5881 -0.3059 -2.1797
 3473SOL    HW222074   8.703   9.132   7.616  1.9423  0.2400  1.8678
 3474SOL     OW22075   1.580   6.410   7.193  0.6812  0.0394 -0.1386
 3474SOL    HW122076   1.657   6.365   7.149  1.6632  0.9245  0.6399
 3474SOL    HW222077   1.585   6.397   7.292 -0.7360 -0.7573 -0.1574
 3475SOL     OW22078   7.485   0.524   5.174 -0.1159  0.2840  0.3940
 3475SOL    HW122079   7.425   0.445   5.162 -0.1875  0.1813  1.3798
 3475SOL    HW222080   7.516   0.528   5.269  0.6300  0.9142  0.1279
 3476SOL     OW22081   4.685   6.013   2.662 -0.3782 -0.1729 -0.4970
 3476SOL    HW122082   4.661   6.088   2.724  0.3490 -0.7442  0.4850
 3476SOL    HW222083   4.718   5.935   2.715 -0.7424 -1.0464 -1.5410
 3477SOL     OW22084   1.444   0.459   5.280  0.1576  0.1288 -0.3614
 3477SOL    HW122085   1.390   0.514   5.216  1.9596  1.0747 -1.0997
 3477SOL    HW222086   1.470   0.373   5.237 -0.9958 -0.4632  0.1028
 3478SOL     OW22087   3.411   6.450   3.465 -0.1123 -0.1576 -0.8228
 3478SOL    HW122088   3.436   6.483   3.556 -1.7101  1.2984 -0.9056
 3478SOL    HW222089   3.374   6.525   3.411  2.1967 -0.6535 -3.2204
 3479SOL     OW22090   5.536   0.392   3.410 -0.0351 -0.3377 -0.3667
 3479SOL    HW122091   5.539   0.327   3.486  2.2338 -0.1550 -0.2562
 3479SOL    HW222092   5.569   0.348   3.327  3.0275  1.0107  0.0392
 3480SOL     OW22093   4.444   2.536   3.389  0.3485 -0.2650  0.3597
 3480SOL    HW122094   4.364   2.585   3.423  0.1763 -0.9800  1.0012
 3480SOL    HW222095   4.515   2.601   3.363 -0.9473  0.4334 -1.5115
 3481SOL     OW22096   8.254   4.246   7.716 -0.7723 -0.1740 -0.0627
 3481SOL    HW122097   8.325   4.199   7.768 -0.2950  0.0051 -0.5457
 3481SOL    HW222098   8.256   4.344   7.737 -0.4456 -0.0701 -0.5668
 3482SOL     OW22099   2.338   8.215   7.458  0.2416  0.2483  0.1428
 3482SOL    HW122100   2.433   8.230   7.486  0.3279  1.8611 -1.0099
 3482SOL    HW222101   2.335   8.186   7.363 -0.5530  2.2724 -0.4637
 3483SOL     OW22102   3.573   0.530   0.953  0.0865 -0.5357 -0.1437
 3483SOL    HW122103   3.488   0.478   0.948 -1.2837  1.5382  1.0382
 3483SOL    HW222104   3.638   0.482   1.013 -0.4047 -1.8822 -0.6682
 3484SOL     OW22105   0.501   1.305   4.124 -0.4818  0.3940 -0.1628
 3484SOL    HW122106   0.519   1.217   4.169 -3.7069 -0.2066  0.0957
 3484SOL    HW222107   0.583   1.362   4.129  0.4425 -1.0587  3.2737
 3485SOL     OW22108   8.536   4.269   6.002  0.4413  0.5258  0.1273
 3485SOL    HW122109   8.588   4.298   5.922  2.1749  1.4153  1.5401
 3485SOL    HW222110   8.496   4.179   5.986  1.2166  0.4666 -1.5216
 3486SOL     OW22111   6.741   1.091   2.988  0.3328 -0.1837  0.4189
 3486SOL    HW122112   6.825   1.059   3.030 -0.0388 -2.0584 -0.1893
 3486SOL    HW222113   6.669   1.097   3.058  0.3715 -0.8449  0.5214
 3487SOL     OW22114   4.812   0.008   3.765 -0.4084 -0.0673 -0.6494
 3487SOL    HW122115   4.734   0.041   3.818 -1.3671  0.4851 -2.3711
 3487SOL    HW222116   4.790  -0.082   3.727 -0.5571  0.4569 -1.8380
 3488SOL     OW22117   7.748   8.400   3.013  0.4877  0.0829  0.9417
 3488SOL    HW122118   7.662   8.362   2.978  1.5714 -1.5842 -0.0042
 3488SOL    HW222119   7.750   8.392   3.113  0.1353 -1.1600  0.8537
 3489SOL     OW22120   1.333   2.548   0.102 -0.4824  0.8057 -0.1321
 3489SOL    HW122121   1.254   2.486   0.100 -1.0867  1.4853  1.6942
 3489SOL    HW222122   1.403   2.514   0.038 -2.1941  0.1496 -1.7158
 3490SOL     OW22123   0.824   4.197   4.341 -0.3121  0.1032  0.3499
 3490SOL    HW122124   0.899   4.148   4.386 -0.0606  0.6332  0.5126
 3490SOL    HW222125   0.780   4.137   4.274  0.6288 -0.0254 -0.1600
 3491SOL     OW22126   7.148   1.379   5.459  0.5511  0.2880 -0.2109
 3491SOL    HW122127   7.196   1.374   5.371  3.0775  0.4600  1.1282
 3491SOL    HW222128   7.187   1.312   5.522 -1.4904 -0.0850  0.6841
 3492SOL     OW22129   8.541   6.973   7.234 -0.2164 -0.3068 -0.0731
 3492SOL    HW122130   8.594   6.937   7.311 -1.6818 -1.4314  0.4218
 3492SOL    HW222131   8.556   6.914   7.154 -1.2121 -0.9940  0.2433
 3493SOL     OW22132   1.946   3.117   2.221  0.2340  0.0257  0.4517
 3493SOL    HW122133   2.044   3.133   2.236  1.2714 -1.5477 -3.7656
 3493SOL    HW222134   1.935   3.044   2.153 -3.8125  2.9226 -2.2240
 3494SOL     OW22135   9.034   9.726   0.573 -0.4085 -0.4573 -0.2814
 3494SOL    HW122136   8.963   9.795   0.554 -0.0240 -0.1028 -0.4334
 3494SOL    HW222137   9.107   9.768   0.627 -0.3645 -0.8571 -0.0230
 3495SOL     OW22138   8.198   0.554   4.201 -0.1675 -0.1526 -0.1533
 3495SOL    HW122139   8.247   0.468   4.217 -0.1521 -0.2745 -0.8096
 3495SOL    HW222140   8.159   0.587   4.286  0.3461 -0.4943  0.2187
 3496SOL     OW22141   1.889   8.636   1.160 -0.8302 -0.3130 -0.3988
 3496SOL    HW122142   1.820   8.595   1.100 -1.0231 -1.6273  0.6949
 3496SOL    HW222143   1.869   8.611   1.255  0.5729  0.1288  0.0169
 3497SOL     OW22144   9.793   1.574   0.527 -0.0436 -0.0364 -0.1583
 3497SOL    HW122145   9.754   1.502   0.585 -0.2652 -1.0973 -1.5938
 3497SOL    HW222146   9.807   1.656   0.581  0.7054 -1.3193  1.6493
 3498SOL     OW22147   1.929   7.483   3.451 -0.1443  0.1644  0.0863
 3498SOL    HW122148   1.994   7.524   3.387  0.2479  2.2801  1.7374
 3498SOL    HW222149   1.841   7.529   3.443 -1.2148 -2.1600 -1.5872
 3499SOL     OW22150   4.141   2.384   6.527  0.4334  0.2614  0.2964
 3499SOL    HW122151   4.150   2.465   6.469  1.6580 -0.1170 -0.0692
 3499SOL    HW222152   4.101   2.410   6.615  1.0596  1.3131  0.2813
 3500SOL     OW22153   2.384   7.993   8.149 -0.3671  0.0730  0.0338
 3500SOL    HW122154   2.407   7.975   8.245  0.3793  1.8487  0.2121
 3500SOL    HW222155   2.340   7.912   8.109  1.0796 -1.3868  1.3226
 3501SOL     OW22156   9.787   1.047   7.411  0.0232 -0.3232  0.2787
 3501SOL    HW122157   9.757   0.955   7.387 -0.4788 -0.4419  1.3377
 3501SOL    HW222158   9.772   1.063   7.509  0.1435  0.8664  0.1135
 3502SOL     OW22159   0.375   6.129   6.429  0.7319 -0.7131 -0.1253
 3502SOL    HW122160   0.366   6.223   6.394  0.9793  0.5117  3.0118
 3502SOL    HW222161   0.285   6.095   6.456  0.8328 -0.9167 -0.0445
 3503SOL     OW22162   1.447   7.358   7.711 -0.4725 -0.0301 -0.1780
 3503SOL    HW122163   1.546   7.340   7.706 -0.5724 -0.6730  0.0411
 3503SOL    HW222164   1.398   7.286   7.663 -0.8243  0.4560 -0.5499
 3504SOL     OW22165   7.732   3.030   5.841 -0.5509 -0.2525  0.6248
 3504SOL    HW122166   7.678   3.111   5.868  0.4125  0.6891 -0.2194
 3504SOL    HW222167   7.801   3.011   5.910 -1.7311 -1.2487  1.5395
 3505SOL     OW22168   2.916   2.766   7.141  0.2986 -0.7965  0.0262
 3505SOL    HW122169   2.825   2.805   7.155  1.2078  1.3330  0.1876
 3505SOL    HW222170   2.934   2.757   7.042  0.7701  0.9041 -0.0549
 3506SOL     OW22171   9.879   8.995   0.840 -0.0742 -0.0844  0.4926
 3506SOL    HW122172   9.942   8.948   0.779 -0.0426 -2.5610  2.3266
 3506SOL    HW222173   9.788   9.000   0.797  0.9529  2.1385 -1.5134
 3507SOL     OW22174   1.411   4.025   6.071 -0.2979 -0.2864  0.0254
 3507SOL    HW122175   1.326   4.072   6.094 -0.2936 -0.1859 -0.1650
 3507SOL    HW222176   1.476   4.036   6.146 -0.3495 -0.1176  0.0455
 3508SOL     OW22177   8.786   6.701   4.327  0.7185 -0.3996 -0.1050
 3508SOL    HW122178   8.808   6.628   4.262  1.7633 -0.5884  0.4552
 3508SOL    HW222179   8.843   6.781   4.309  0.0632  0.0339 -0.2754
 3509SOL     OW22180   4.491   4.111   0.423  0.2715  0.0400  0.2837
 3509SOL    HW122181   4.551   4.086   0.348 -0.6005  2.5922 -1.3212
 3509SOL    HW222182   4.526   4.192   0.470 -1.3168  0.9104  0.0185
 3510SOL     OW22183   8.729   1.852   6.579  0.5360  0.1333 -0.4521
 3510SOL    HW122184   8.774   1.789   6.642  0.1074 -0.1032 -0.3754
 3510SOL    HW222185   8.673   1.917   6.631 -0.6009 -0.6776 -0.6240
 3511SOL     OW22186   3.058   8.064   4.124 -0.2683 -0.1890 -0.6399
 3511SOL    HW122187   3.123   8.046   4.050  0.0149  0.3875 -0.5279
 3511SOL    HW222188   2.997   8.139   4.097 -2.1641 -1.9746 -1.5604
 3512SOL     OW22189   2.287   5.052   4.795  0.5237  0.3189  0.0828
 3512SOL    HW122190   2.335   5.101   4.722 -1.5265  0.4296 -1.2277
 3512SOL    HW222191   2.195   5.090   4.805  0.3063 -0.6139  1.8107
 3513SOL     OW22192   5.245   9.314   5.813  0.2244 -0.0249 -0.4364
 3513SOL    HW122193   5.318   9.336   5.878 -1.7442 -0.9331  2.1625
 3513SOL    HW222194   5.195   9.398   5.789 -0.8814 -0.0812  1.5590
 3514SOL     OW22195   2.647   1.500   0.102 -0.2332 -0.9198 -0.3651
 3514SOL    HW122196   2.593   1.505   0.186 -0.4115  2.5884 -0.6206
 3514SOL    HW222197   2.735   1.545   0.116 -0.2547 -0.3077 -2.0514
 3515SOL     OW22198   4.215   1.000   7.073  0.3135  0.1178  0.4014
 3515SOL    HW122199   4.165   1.055   7.006 -0.3531 -0.1943  0.6425
 3515SOL    HW222200   4.207   0.903   7.048  1.5056  0.1230 -0.0382
 3516SOL     OW22201   8.412   1.005   4.819 -0.5890  0.0432 -0.1955
 3516SOL    HW122202   8.476   1.022   4.743  1.3459 -0.9578  1.1646
 3516SOL    HW222203   8.354   0.927   4.797  0.8378 -1.0557 -0.1403
 3517SOL     OW22204   9.020   5.571   0.371 -0.2427 -0.3459  0.0545
 3517SOL    HW122205   8.989   5.659   0.407  1.8053  0.2493  0.4232
 3517SOL    HW222206   9.019   5.573   0.271  1.5236  0.7387  0.0483
 3518SOL     OW22207   0.048   2.157   3.171  0.0090  0.1253 -0.0154
 3518SOL    HW122208   0.089   2.226   3.230 -0.3176  1.0423 -0.8419
 3518SOL    HW222209  -0.048   2.179   3.155 -0.1970 -0.7285  0.0221
 3519SOL     OW22210   0.692   6.513   4.807  0.0509  0.5359  0.0705
 3519SOL    HW122211   0.597   6.515   4.838 -0.6830 -2.3440 -1.7418
 3519SOL    HW222212   0.704   6.581   4.735 -1.0044  0.0954 -0.5466
 3520SOL     OW22213   6.470   1.650   0.406  0.4526  0.6876 -0.3193
 3520SOL    HW122214   6.416   1.566   0.416  1.3086  0.2356  0.5621
 3520SOL    HW222215   6.432   1.705   0.331 -0.0958 -0.4984 -0.9300
 3521SOL     OW22216   1.801   1.493   2.789  0.3250  0.3688 -0.8613
 3521SOL    HW122217   1.890   1.450   2.779  0.5999  1.3989 -3.1204
 3521SOL    HW222218   1.776   1.540   2.704 -0.6518  3.3594  0.9766
 3522SOL     OW22219   9.838   0.476   4.370 -0.0523 -0.4420 -0.2676
 3522SOL    HW122220   9.909   0.419   4.412 -1.3182 -1.4247  0.5638
 3522SOL    HW222221   9.866   0.572   4.375 -0.0928 -0.5307  2.7571
 3523SOL     OW22222   9.556   1.238   4.075  0.2622  0.3006 -0.3062
 3523SOL    HW122223   9.653   1.242   4.052  0.6338 -1.4537  0.9096
 3523SOL    HW222224   9.507   1.190   4.002  0.3216  0.9588 -0.7929
 3524SOL     OW22225   3.871   7.815   6.642  0.2650 -0.4416  0.7783
 3524SOL    HW122226   3.954   7.813   6.699  0.3618  1.5924  0.7607
 3524SOL    HW222227   3.897   7.830   6.547 -0.0365 -1.4973  0.5277
 3525SOL     OW22228   0.319   8.204   2.695  0.3504 -0.1810 -0.2091
 3525SOL    HW122229   0.386   8.210   2.769 -0.3348 -0.4602  0.4374
 3525SOL    HW222230   0.284   8.296   2.675 -0.7204 -0.3232  0.9817
 3526SOL     OW22231   8.880   5.083   3.547  0.1189 -0.0474  0.4204
 3526SOL    HW122232   8.947   5.031   3.494  1.8428  1.1999  1.3249
 3526SOL    HW222233   8.841   5.023   3.618  0.7097 -0.6351  0.2598
 3527SOL     OW22234   1.313   3.443   5.090 -0.1438  0.0435 -0.4021
 3527SOL    HW122235   1.233   3.454   5.031  1.2224  2.2401 -1.9031
 3527SOL    HW222236   1.392   3.487   5.047  1.2640  0.2082  2.2858
 3528SOL     OW22237   4.886   6.163   0.418 -0.2303  0.3261 -0.0501
 3528SOL    HW122238   4.911   6.072   0.450  0.4593  0.6579  0.3675
 3528SOL    HW222239   4.880   6.226   0.496  2.3476  1.3454 -0.6234
 3529SOL     OW22240   1.588   2.951   6.902 -0.2468 -0.0722  0.1157
 3529SOL    HW122241   1.653   2.911   6.966  0.7143  0.8973 -0.2417
 3529SOL    HW222242   1.625   2.948   6.810 -1.2854 -0.7236 -0.2896
 3530SOL     OW22243   5.987   9.082   2.553 -0.2033  0.8709 -0.0198
 3530SOL    HW122244   5.888   9.095   2.560 -0.2882 -0.7449  2.0651
 3530SOL    HW222245   6.031   9.121   2.634  0.7024 -0.1132 -0.0382
 3531SOL     OW22246   9.772   2.919   2.992 -0.0028 -0.2286 -0.3597
 3531SOL    HW122247   9.859   2.948   3.032 -0.0023 -2.1308  1.0830
 3531SOL    HW222248   9.728   2.997   2.949  0.9993  1.4242  1.5159
 3532SOL     OW22249   1.912   9.623   2.060  0.0002 -0.2435  0.1814
 3532SOL    HW122250   1.932   9.586   1.969 -0.9937 -0.5898  0.0921
 3532SOL    HW222251   1.937   9.556   2.129  2.2889  0.6669  0.2656
 3533SOL     OW22252   8.475   4.317   6.743  0.4994 -0.5562  0.0054
 3533SOL    HW122253   8.569   4.285   6.750  0.6933  0.2034  0.9529
 3533SOL    HW222254   8.440   4.340   6.834  0.0338  0.9646 -0.5349
 3534SOL     OW22255   7.629   4.214   2.394  0.6139  0.2079 -0.2634
 3534SOL    HW122256   7.688   4.261   2.328  1.4008  1.1675  1.0980
 3534SOL    HW222257   7.552   4.173   2.346  1.7800 -0.1039 -1.9408
 3535SOL     OW22258   0.967   2.262   6.438 -0.4291  0.7840 -0.2921
 3535SOL    HW122259   1.012   2.278   6.351 -0.1635 -0.5037 -0.3940
 3535SOL    HW222260   1.031   2.282   6.513 -0.0094 -0.0583 -0.4229
 3536SOL     OW22261   7.238   0.252   6.472 -0.8547  0.1848 -0.0965
 3536SOL    HW122262   7.238   0.184   6.398  1.4158  0.1424 -0.1067
 3536SOL    HW222263   7.213   0.341   6.435 -2.4535 -0.3695 -0.3642
 3537SOL     OW22264   6.599   4.645   7.039  0.8436 -0.0423  0.0091
 3537SOL    HW122265   6.644   4.556   7.050 -0.5022 -0.7701 -0.2132
 3537SOL    HW222266   6.523   4.652   7.105  1.2746  1.1689  0.3927
 3538SOL     OW22267   0.264   7.807   7.270  0.4903 -0.1846 -0.4936
 3538SOL    HW122268   0.261   7.723   7.215  1.4044 -0.8721  0.5035
 3538SOL    HW222269   0.314   7.790   7.355 -2.3061  0.4063  1.3407
 3539SOL     OW22270   4.445   0.433   5.079  0.1837  0.7774 -0.6321
 3539SOL    HW122271   4.476   0.338   5.067 -0.2580  0.5865 -0.2288
 3539SOL    HW222272   4.513   0.494   5.038  1.1166  0.3528  0.2615
 3540SOL     OW22273   9.983   0.287   0.684 -0.3658 -0.7649 -0.7005
 3540SOL    HW122274   9.927   0.239   0.751 -1.0999  3.3171  1.7733
 3540SOL    HW222275   9.930   0.361   0.642  1.6738  0.0881 -1.8770
 3541SOL     OW22276   1.307   7.000   7.749 -0.1450  0.3763 -0.6424
 3541SOL    HW122277   1.291   7.060   7.828  1.0535 -0.2534  0.0917
 3541SOL    HW222278   1.319   7.056   7.667  1.9763  1.2242  0.2062
 3542SOL     OW22279   5.229   1.302   3.674  0.3116 -0.1523  0.2952
 3542SOL    HW122280   5.146   1.319   3.620  0.2656 -0.4876  0.2597
 3542SOL    HW222281   5.274   1.389   3.694  0.7519 -0.0851 -0.9332
 3543SOL     OW22282   6.978   1.936   4.106 -0.7697  0.5155 -0.1003
 3543SOL    HW122283   7.028   1.852   4.086  0.2103  0.8511  0.8882
 3543SOL    HW222284   6.931   1.967   4.024 -1.1751 -1.0151 -0.4710
 3544SOL     OW22285   9.395   8.110   5.283 -0.1878 -0.4740 -0.4183
 3544SOL    HW122286   9.447   8.025   5.277  0.2864 -0.2174 -0.0022
 3544SOL    HW222287   9.328   8.103   5.356 -1.8942 -1.4189 -2.0256
 3545SOL     OW22288   1.709   5.992   0.961 -0.2479  0.1513  0.0633
 3545SOL    HW122289   1.803   5.985   0.994  2.0976  0.4475 -5.9221
 3545SOL    HW222290   1.684   6.089   0.952 -0.7425  0.0717  0.5302
 3546SOL     OW22291   1.508   9.690   7.322  0.6369 -0.0022 -0.4714
 3546SOL    HW122292   1.587   9.732   7.277  1.6330  0.1000  1.2992
 3546SOL    HW222293   1.455   9.638   7.256  0.8575  1.8792 -2.1796
 3547SOL     OW22294   5.346   8.809   6.308 -0.0048  0.0052 -0.3210
 3547SOL    HW122295   5.429   8.846   6.266 -0.0805  1.3075  0.6338
 3547SOL    HW222296   5.307   8.878   6.369 -3.1439  0.3299 -2.5947
 3548SOL     OW22297   3.448   9.068   5.559 -0.6439 -0.0968 -1.2820
 3548SOL    HW122298   3.498   9.074   5.646  1.0458  1.3444 -2.3204
 3548SOL    HW222299   3.466   9.149   5.504 -2.8137 -0.3361 -2.4313
 3549SOL     OW22300   2.251   6.455   0.693 -0.0103 -0.4936  0.1482
 3549SOL    HW122301   2.268   6.525   0.624 -1.9260 -0.1263  0.0092
 3549SOL    HW222302   2.182   6.487   0.757  0.5005 -1.5131  1.2287
 3550SOL     OW22303   9.756   0.458   0.306  0.1916 -0.2000 -0.4813
 3550SOL    HW122304   9.712   0.392   0.367 -2.4037  0.9904 -0.9997
 3550SOL    HW222305   9.771   0.415   0.217  0.9200 -0.8965 -0.0296
 3551SOL     OW22306   7.774   1.748   2.002  0.5615  0.1557  0.4318
 3551SOL    HW122307   7.838   1.818   1.971  1.1629  1.0105  3.3977
 3551SOL    HW222308   7.690   1.791   2.034 -0.0110 -0.6731  0.0706
 3552SOL     OW22309   3.447   6.765   4.834  0.0662  0.1098 -0.2191
 3552SOL    HW122310   3.384   6.745   4.759  0.6473  0.5586 -0.8408
 3552SOL    HW222311   3.410   6.838   4.891 -0.6717 -0.6632  0.3098
 3553SOL     OW22312   6.898   0.923   2.188 -0.4997 -0.3169  0.0280
 3553SOL    HW122313   6.829   0.989   2.215  1.3148  1.5686  0.1654
 3553SOL    HW222314   6.864   0.869   2.111 -1.8133  1.1055 -0.4124
 3554SOL     OW22315   9.845   2.865   2.411 -0.3894 -0.5679 -0.4415
 3554SOL    HW122316   9.843   2.766   2.397 -0.1694 -0.4635 -1.2258
 3554SOL    HW222317   9.916   2.905   2.354 -1.0116  0.1371 -0.7282
 3555SOL     OW22318   9.458   6.545   7.395  0.0417 -0.1892 -0.1210
 3555SOL    HW122319   9.368   6.503   7.391 -1.4295  2.6784  1.8135
 3555SOL    HW222320   9.499   6.527   7.485 -0.4214  2.0365  0.5693
 3556SOL     OW22321   6.478   4.841   0.551  0.0047 -0.1942 -0.1568
 3556SOL    HW122322   6.496   4.833   0.453 -1.1443 -0.9007 -0.3135
 3556SOL    HW222323   6.421   4.922   0.567  0.4731  0.1141 -0.0259
 3557SOL     OW22324   7.060   0.780   3.175 -0.2001 -0.3118  0.2523
 3557SOL    HW122325   7.031   0.848   3.242  0.0026  0.3758 -0.3569
 3557SOL    HW222326   7.084   0.695   3.222  0.7287  0.4273  1.1430
 3558SOL     OW22327   2.220   0.700   0.559  0.7171  0.1454 -0.1203
 3558SOL    HW122328   2.209   0.603   0.537 -0.2798  0.2288  0.0180
 3558SOL    HW222329   2.165   0.755   0.496 -0.0760  0.5304  0.9019
 3559SOL     OW22330   1.783   2.523   4.514  0.4511 -0.1838 -0.4696
 3559SOL    HW122331   1.685   2.502   4.509  0.3375  0.3266 -0.4330
 3559SOL    HW222332   1.819   2.493   4.602  0.7293 -2.0248 -1.1768
 3560SOL     OW22333   7.728   4.468   7.422 -0.4111  0.0493  0.4246
 3560SOL    HW122334   7.666   4.391   7.403 -1.7229  0.9893  0.8125
 3560SOL    HW222335   7.703   4.510   7.509 -0.0650  1.2697 -0.0556
 3561SOL     OW22336   4.522   0.156   2.145 -0.1616  0.1230  0.0535
 3561SOL    HW122337   4.620   0.138   2.155 -0.2700  0.9718  3.0044
 3561SOL    HW222338   4.502   0.249   2.173 -1.7458  0.1536 -1.1280
 3562SOL     OW22339   2.862   3.314   3.264  0.4702  0.1545 -0.7575
 3562SOL    HW122340   2.918   3.310   3.181  1.6112  0.7830 -0.0438
 3562SOL    HW222341   2.905   3.377   3.329 -1.0451  0.5650 -0.1534
 3563SOL     OW22342   0.898   2.028   6.168 -0.1826 -0.3431 -0.0504
 3563SOL    HW122343   0.824   1.961   6.174 -0.4212  0.0957  2.0467
 3563SOL    HW222344   0.966   2.010   6.239  0.9774  0.2016 -0.9928
 3564SOL     OW22345   9.593   0.002   2.160 -0.3961  0.2026  0.1882
 3564SOL    HW122346   9.672   0.031   2.213 -0.4070  0.6817 -0.0598
 3564SOL    HW222347   9.525  -0.040   2.222  0.7316 -1.7064  0.1755
 3565SOL     OW22348   3.790   3.388   7.531 -0.0064  0.4728 -0.1699
 3565SOL    HW122349   3.697   3.375   7.498 -0.0994 -0.0004  0.2705
 3565SOL    HW222350   3.790   3.453   7.607 -0.0871 -0.1614  0.3749
 3566SOL     OW22351   0.890   8.415   6.807 -0.4580 -0.0878 -0.2500
 3566SOL    HW122352   0.951   8.446   6.881 -0.4895  1.5843 -0.9000
 3566SOL    HW222353   0.886   8.315   6.807  2.1613 -0.2230 -0.0911
 3567SOL     OW22354   2.339   3.801   2.224 -0.1131 -0.1288 -0.0864
 3567SOL    HW122355   2.266   3.868   2.212  0.4991  0.6578  0.4752
 3567SOL    HW222356   2.420   3.832   2.174  0.2613 -0.2999  0.4129
 3568SOL     OW22357   2.834   5.601   3.821  0.2696 -0.4045 -0.0723
 3568SOL    HW122358   2.893   5.544   3.763  0.0557 -0.6577 -0.0421
 3568SOL    HW222359   2.875   5.691   3.832 -0.1448 -0.0477 -1.3752
 3569SOL     OW22360   8.573   5.894   5.854 -0.6189 -0.0547 -0.2338
 3569SOL    HW122361   8.612   5.868   5.766 -1.2606 -3.9875  0.5401
 3569SOL    HW222362   8.486   5.941   5.840 -0.0886  0.4764 -1.7441
 3570SOL     OW22363   8.353   4.505   5.334  0.6908 -0.5154 -0.2197
 3570SOL    HW122364   8.427   4.451   5.294  0.9897  0.0184 -0.3959
 3570SOL    HW222365   8.344   4.591   5.284  0.4558 -0.2400  0.2903
 3571SOL     OW22366   0.273   4.948   4.209  0.1417  0.3557  0.3636
 3571SOL    HW122367   0.207   4.888   4.253 -0.1254  0.8264  0.6173
 3571SOL    HW222368   0.331   4.895   4.148 -3.3556  0.5108 -3.3654
 3572SOL     OW22369   8.743   7.967   6.660 -0.1712  0.1249 -0.1273
 3572SOL    HW122370   8.823   7.929   6.616 -1.2056 -0.4724 -1.5226
 3572SOL    HW222371   8.750   8.067   6.662  0.0286  0.1371 -1.3602
 3573SOL     OW22372   1.240   9.012   6.379 -0.2584 -0.2738  0.6064
 3573SOL    HW122373   1.213   8.931   6.431 -1.7894 -0.2090 -0.0485
 3573SOL    HW222374   1.159   9.068   6.362  0.6996  1.1374  0.6034
 3574SOL     OW22375   2.207   0.220   3.596 -0.1065 -0.0628  0.6413
 3574SOL    HW122376   2.302   0.246   3.611 -0.1011 -1.1022  2.4934
 3574SOL    HW222377   2.187   0.224   3.498  1.9512 -0.2340  0.1925
 3575SOL     OW22378   0.727   5.735   2.238  0.0288 -0.5167 -0.1432
 3575SOL    HW122379   0.723   5.713   2.336  0.0527  1.2318  0.2590
 3575SOL    HW222380   0.822   5.749   2.211  0.0672 -1.4750 -0.5455
 3576SOL     OW22381   2.144   6.786   1.979  0.7768 -0.0599  0.1419
 3576SOL    HW122382   2.234   6.828   1.973  1.1569 -1.0402 -1.3422
 3576SOL    HW222383   2.081   6.830   1.915  0.4593 -0.0098  0.4831
 3577SOL     OW22384   7.557   9.945   1.162  0.8938 -0.3371  0.4054
 3577SOL    HW122385   7.555   9.961   1.261  0.8566 -1.8678  0.6730
 3577SOL    HW222386   7.552   9.846   1.145 -1.4453  0.0093 -1.1905
 3578SOL     OW22387   4.080   5.039   0.906  0.1103  0.1503  0.0033
 3578SOL    HW122388   3.988   5.008   0.928 -0.8168  2.2483 -0.7422
 3578SOL    HW222389   4.147   4.979   0.949 -1.6255  0.2635  3.0068
 3579SOL     OW22390   7.288   0.174   2.427  0.3733 -0.3914 -0.4376
 3579SOL    HW122391   7.265   0.082   2.459  2.0020 -1.2498 -1.6735
 3579SOL    HW222392   7.292   0.175   2.327  2.9900  0.3384 -0.3642
 3580SOL     OW22393   6.192   1.216   4.317 -0.0585  0.0431 -0.2806
 3580SOL    HW122394   6.186   1.218   4.417  0.2546 -1.1099 -0.2343
 3580SOL    HW222395   6.273   1.165   4.290 -1.7790 -2.2842 -1.1546
 3581SOL     OW22396   8.337   0.988   1.155  0.1802 -0.0502  0.0940
 3581SOL    HW122397   8.414   0.938   1.116 -0.9164 -2.4268  0.8741
 3581SOL    HW222398   8.366   1.031   1.241  0.2738 -2.1426  1.1326
 3582SOL     OW22399   5.146   4.199   0.616 -0.4564  0.1684 -0.3402
 3582SOL    HW122400   5.050   4.220   0.635 -0.0005  2.1863 -0.1911
 3582SOL    HW222401   5.164   4.210   0.519 -0.5073 -0.8217 -0.4697
 3583SOL     OW22402   5.208   0.865   4.073  0.0906  0.4820  0.4572
 3583SOL    HW122403   5.211   0.922   3.991  0.1697  0.4281  0.4221
 3583SOL    HW222404   5.299   0.865   4.116  0.6019 -1.1296 -0.5688
 3584SOL     OW22405   0.271   9.276   3.328  0.1535  0.0312 -0.3779
 3584SOL    HW122406   0.286   9.178   3.319 -0.4790 -0.2277  1.3186
 3584SOL    HW222407   0.173   9.295   3.332  0.3005  0.3269  3.3516
 3585SOL     OW22408   2.886   0.082   7.817 -0.0575 -0.0395  0.2329
 3585SOL    HW122409   2.860   0.051   7.909  0.4609  0.2301  0.4755
 3585SOL    HW222410   2.842   0.024   7.749  1.8869 -2.1349  0.6904
 3586SOL     OW22411   3.874   5.074   1.535  0.0109 -0.3154  0.0771
 3586SOL    HW122412   3.795   5.132   1.550 -0.4457 -1.0225  0.4246
 3586SOL    HW222413   3.844   4.980   1.519  0.7198 -0.3658 -0.9560
 3587SOL     OW22414   2.392   0.607   6.573  0.1349  0.1087 -0.3559
 3587SOL    HW122415   2.393   0.697   6.618  0.3336  0.0696 -0.2801
 3587SOL    HW222416   2.368   0.537   6.641 -0.7248  0.1889 -0.5747
 3588SOL     OW22417   2.539   9.979   4.741 -0.3941  0.1654 -0.5155
 3588SOL    HW122418   2.542   9.897   4.683 -2.9416  0.0191 -0.4810
 3588SOL    HW222419   2.448   9.988   4.781  0.6253  1.6081  1.5588
 3589SOL     OW22420   0.955   7.034   3.256 -0.2701  0.3856 -0.4143
 3589SOL    HW122421   0.875   6.988   3.294 -0.3770  1.6629  0.9720
 3589SOL    HW222422   0.938   7.132   3.252  1.1057  0.6375 -0.3913
 3590SOL     OW22423   0.395   7.819   8.011  0.0736 -0.0835  0.0200
 3590SOL    HW122424   0.349   7.742   8.053 -1.1200  0.3102 -0.5477
 3590SOL    HW222425   0.445   7.871   8.080 -0.4822 -0.4130  0.6684
 3591SOL     OW22426   3.578   3.858   5.164 -0.2257 -0.3005  0.7016
 3591SOL    HW122427   3.596   3.956   5.181  1.8385 -0.3354 -1.0108
 3591SOL    HW222428   3.630   3.829   5.084 -2.2709 -2.3897  0.1105
 3592SOL     OW22429   7.833   3.820   8.199  0.5076 -0.3919 -0.3531
 3592SOL    HW122430   7.863   3.725   8.208  2.6277  0.2163 -0.8615
 3592SOL    HW222431   7.793   3.833   8.108 -1.3946 -1.2094  0.3379
 3593SOL     OW22432   5.668   8.168   5.362 -0.8235 -0.8176 -0.3296
 3593SOL    HW122433   5.749   8.166   5.304 -0.1795 -0.9427  0.5741
 3593SOL    HW222434   5.645   8.076   5.393 -0.5332 -0.6221  0.4855
 3594SOL     OW22435   0.827   6.069   3.024 -0.7375  0.4022 -0.4534
 3594SOL    HW122436   0.743   6.033   2.983  0.2985 -0.3542 -1.9425
 3594SOL    HW222437   0.899   5.999   3.020 -0.4653  0.5009  2.2146
 3595SOL     OW22438   0.085   2.457   0.552 -0.6441  0.4679 -0.9232
 3595SOL    HW122439   0.146   2.514   0.497  0.6247  1.1092  1.0980
 3595SOL    HW222440   0.072   2.500   0.641  1.3640 -3.0082  1.1351
 3596SOL     OW22441   1.440   5.479   0.785 -0.0308 -0.6916  0.0320
 3596SOL    HW122442   1.410   5.394   0.742  0.7870 -1.2781  0.5997
 3596SOL    HW222443   1.529   5.464   0.829 -0.1773  0.2875  0.6727
 3597SOL     OW22444   0.526   3.178   6.357 -0.4897 -0.3456 -0.1203
 3597SOL    HW122445   0.486   3.254   6.408 -0.4055  0.3676 -1.1175
 3597SOL    HW222446   0.490   3.092   6.394  0.3163  0.0996  1.7894
 3598SOL     OW22447   1.733   1.180   4.635  0.1006  0.0529  0.2388
 3598SOL    HW122448   1.825   1.213   4.657  0.6238  0.2123 -2.0767
 3598SOL    HW222449   1.735   1.130   4.548 -2.1121  0.6376 -0.1859
 3599SOL     OW22450   9.159   8.418   5.279  0.0643  0.1268 -0.0450
 3599SOL    HW122451   9.068   8.450   5.254  0.3575  0.8560 -0.1858
 3599SOL    HW222452   9.209   8.491   5.326  0.8046 -0.0498 -0.5381
 3600SOL     OW22453   9.783   4.713   3.237  0.2208 -0.6489  0.3553
 3600SOL    HW122454   9.861   4.652   3.224  0.6906 -0.2114  1.0478
 3600SOL    HW222455   9.753   4.708   3.333 -0.4392 -0.6240  0.1507
 3601SOL     OW22456   1.372   8.480   2.157 -0.0080  0.0886  0.1307
 3601SOL    HW122457   1.383   8.405   2.223  0.6459  1.1785  1.2685
 3601SOL    HW222458   1.281   8.474   2.116 -0.0127 -1.2613  0.2962
 3602SOL     OW22459   1.408   9.192   5.849 -0.4408  0.5612 -0.1472
 3602SOL    HW122460   1.473   9.150   5.786 -1.0223 -0.4105 -0.1074
 3602SOL    HW222461   1.396   9.133   5.929 -1.2538  0.8116 -0.0833
 3603SOL     OW22462   1.911   4.587   6.168  0.4939 -0.9451  0.4071
 3603SOL    HW122463   1.864   4.553   6.087  0.4532 -0.2225  0.1281
 3603SOL    HW222464   1.852   4.650   6.218  1.1596 -0.0208  0.0425
 3604SOL     OW22465   4.525   8.438   2.625  0.5478  0.4536  0.1441
 3604SOL    HW122466   4.618   8.458   2.657  0.9429 -1.5880  0.3092
 3604SOL    HW222467   4.492   8.355   2.669 -0.2681 -0.4261 -2.0933
 3605SOL     OW22468   4.933   2.038   4.542 -0.0343 -0.0868 -0.4902
 3605SOL    HW122469   4.991   2.088   4.477  0.6109  0.7211  0.6994
 3605SOL    HW222470   4.932   2.085   4.630  0.6517 -2.1730  0.6855
 3606SOL     OW22471   1.046   3.615   1.989  0.5499 -0.3931  0.6219
 3606SOL    HW122472   1.038   3.516   1.991  0.0007 -0.3358  1.6532
 3606SOL    HW222473   1.136   3.642   2.022  1.6634 -0.6425 -2.0936
 3607SOL     OW22474   8.869   5.407   1.347 -1.1704  0.3968  0.2047
 3607SOL    HW122475   8.799   5.382   1.281 -0.2845 -1.2985 -0.1260
 3607SOL    HW222476   8.875   5.336   1.417  2.3149 -1.0848 -1.4668
 3608SOL     OW22477   2.921   1.694   5.894  0.1068  0.2615 -0.3350
 3608SOL    HW122478   2.922   1.610   5.840  1.3379 -0.8554  1.3966
 3608SOL    HW222479   2.826   1.716   5.919 -0.1976 -0.7339 -0.5958
 3609SOL     OW22480   7.589   1.876   8.091 -0.3155 -0.1814  0.1134
 3609SOL    HW122481   7.673   1.842   8.049  0.0235  2.2342 -1.2682
 3609SOL    HW222482   7.516   1.807   8.081  1.6033 -2.5754  1.9099
 3610SOL     OW22483   2.272   6.915   4.229 -0.3802 -0.1263 -0.1338
 3610SOL    HW122484   2.365   6.922   4.193 -0.3892 -0.5752 -0.2442
 3610SOL    HW222485   2.206   6.920   4.153 -0.5229  2.0543  0.1123
 3611SOL     OW22486   8.595   0.068   0.139 -0.0733  0.0295 -0.0035
 3611SOL    HW122487   8.629   0.031   0.052  1.3937 -0.7547  0.8800
 3611SOL    HW222488   8.510   0.022   0.164 -0.0705 -0.3142 -0.6177
 3612SOL     OW22489   2.514   8.387   2.895 -0.4169  0.9530  0.2371
 3612SOL    HW122490   2.537   8.448   2.971 -0.4033  1.5131 -0.2115
 3612SOL    HW222491   2.441   8.428   2.840 -0.4965  0.5058  0.0076
 3613SOL     OW22492   9.632   5.974   4.926 -0.2619 -0.3645  0.5084
 3613SOL    HW122493   9.713   6.001   4.873 -0.8891 -1.2640 -0.8978
 3613SOL    HW222494   9.592   5.892   4.888 -1.9277  0.1298  1.1461
 3614SOL     OW22495   8.328   2.710   5.394 -0.0691 -0.3355  0.1411
 3614SOL    HW122496   8.329   2.724   5.295 -0.9475  0.0889  0.1849
 3614SOL    HW222497   8.374   2.787   5.439  1.7553 -1.3029 -0.0064
 3615SOL     OW22498   7.713   1.052   0.047  0.2056  0.3319 -0.2198
 3615SOL    HW122499   7.666   1.137   0.069 -0.4447 -0.9857  3.8435
 3615SOL    HW222500   7.808   1.071   0.024  0.1344  2.1214  0.9078
 3616SOL     OW22501   1.926   3.971   4.794  0.0828  0.1624 -0.2713
 3616SOL    HW122502   1.990   3.906   4.754  0.9680  0.2158  1.0022
 3616SOL    HW222503   1.963   4.004   4.881 -1.1836  1.0188 -0.0443
 3617SOL     OW22504   0.013   3.618   0.118  0.2822 -0.6937  0.3583
 3617SOL    HW122505   0.041   3.542   0.177 -2.4610 -0.6803  1.7384
 3617SOL    HW222506  -0.003   3.700   0.174 -0.5218 -0.1571 -0.6410
 3618SOL     OW22507   9.887   1.345   4.665  0.0308 -0.0983 -0.7666
 3618SOL    HW122508   9.926   1.424   4.617  0.6519 -0.0225 -0.1541
 3618SOL    HW222509   9.794   1.330   4.634  0.2610  0.2479 -1.6385
 3619SOL     OW22510   5.135   8.487   5.644 -0.0323 -0.1671 -0.3201
 3619SOL    HW122511   5.060   8.422   5.629 -1.1580  0.4309  2.4659
 3619SOL    HW222512   5.106   8.558   5.708  3.1782 -0.4120  1.5266
 3620SOL     OW22513   0.065   7.407   0.302 -1.1702 -0.2987  0.1726
 3620SOL    HW122514   0.161   7.394   0.273 -1.7747  0.9118 -2.5299
 3620SOL    HW222515   0.019   7.318   0.302 -0.0779 -0.8806  1.4136
 3621SOL     OW22516   3.404   2.986   3.645  0.1574 -0.2862 -0.0003
 3621SOL    HW122517   3.318   3.035   3.655  0.4276  0.3989 -0.9964
 3621SOL    HW222518   3.480   3.046   3.672  0.3725 -0.6817  0.2816
 3622SOL     OW22519   2.011   1.254   7.366 -0.4402  0.0425  0.1617
 3622SOL    HW122520   1.926   1.210   7.394 -0.8621  0.2021 -0.8257
 3622SOL    HW222521   1.997   1.353   7.359 -0.2330  0.0486 -0.1940
 3623SOL     OW22522   1.154   1.582   6.928  0.0265 -0.4289 -0.0692
 3623SOL    HW122523   1.112   1.653   6.871  0.4414  0.0579  0.2300
 3623SOL    HW222524   1.201   1.516   6.869 -0.7726 -0.7322 -0.3778
 3624SOL     OW22525   9.692   6.306   1.888  0.0509 -0.1921 -0.5027
 3624SOL    HW122526   9.756   6.378   1.914  0.0775  0.1657 -1.5690
 3624SOL    HW222527   9.738   6.218   1.890 -0.4337 -0.4439  2.5870
 3625SOL     OW22528   9.702   6.624   5.602  0.2652 -0.1164 -0.1547
 3625SOL    HW122529   9.680   6.542   5.655 -0.1996 -1.1898 -1.9793
 3625SOL    HW222530   9.775   6.675   5.648  0.8610 -1.7816  0.7656
 3626SOL     OW22531   8.418   9.047   0.935 -0.1138  0.0895 -0.1787
 3626SOL    HW122532   8.342   9.001   0.982 -0.6000 -0.0903 -1.1294
 3626SOL    HW222533   8.432   9.005   0.845  2.7439 -1.5394  0.9406
 3627SOL     OW22534   7.454   7.708   3.343  0.3479 -0.3156  0.2325
 3627SOL    HW122535   7.458   7.627   3.285 -2.6104 -1.4427  1.5104
 3627SOL    HW222536   7.518   7.698   3.419 -0.0238 -1.4670  0.3977
 3628SOL     OW22537   7.591   4.259   7.640  0.6316 -0.3743  0.4789
 3628SOL    HW122538   7.665   4.274   7.706 -0.0063  0.3613  1.0465
 3628SOL    HW222539   7.536   4.342   7.633 -0.3968 -1.0550  0.3980
 3629SOL     OW22540   8.579   3.733   4.171  0.1359  0.8306 -0.0418
 3629SOL    HW122541   8.549   3.641   4.196  0.5918  1.0153  1.2454
 3629SOL    HW222542   8.514   3.773   4.107 -0.6819  0.0392  0.2829
 3630SOL     OW22543   4.659   9.848   0.714  0.0349 -0.1603 -0.2140
 3630SOL    HW122544   4.626   9.821   0.805 -1.1191 -0.0918 -0.6026
 3630SOL    HW222545   4.688   9.767   0.663 -2.2811 -0.5727 -0.9331
 3631SOL     OW22546   0.947   5.615   7.155 -0.4155  0.0556  0.8011
 3631SOL    HW122547   1.002   5.581   7.231  0.4285  0.9772  0.6114
 3631SOL    HW222548   0.971   5.563   7.072 -1.1378 -0.7605  1.0958
 3632SOL     OW22549   8.886   2.119   7.719 -0.2607  0.4095 -0.0246
 3632SOL    HW122550   8.929   2.202   7.755 -0.4504 -0.3223  1.9885
 3632SOL    HW222551   8.947   2.041   7.733 -1.0535 -0.1655  0.2818
 3633SOL     OW22552   7.511   2.822   5.854  0.4658 -0.0810  0.5460
 3633SOL    HW122553   7.579   2.888   5.823 -0.0589  0.0105 -0.4017
 3633SOL    HW222554   7.449   2.799   5.779 -0.5967 -0.1101  1.4154
 3634SOL     OW22555   9.531   7.285   0.444 -0.2805 -0.3255 -0.5358
 3634SOL    HW122556   9.506   7.255   0.352 -2.4574  0.3348 -0.1911
 3634SOL    HW222557   9.620   7.247   0.469 -0.2060 -1.4532 -2.4574
 3635SOL     OW22558   1.256   6.384   3.539  0.1966 -0.2647  0.1569
 3635SOL    HW122559   1.350   6.368   3.568  0.6711  2.6054  0.2646
 3635SOL    HW222560   1.220   6.464   3.586 -1.0631  0.8614 -2.6828
 3636SOL     OW22561   6.957   3.388   1.994 -0.6189 -1.0266 -0.0120
 3636SOL    HW122562   6.897   3.420   1.921  0.3011 -0.0701 -0.3517
 3636SOL    HW222563   7.012   3.311   1.960  0.4446 -0.0090 -0.6036
 3637SOL     OW22564   6.420   3.746   0.909  0.0686  0.1425 -0.0083
 3637SOL    HW122565   6.451   3.672   0.850  0.1123 -0.5087  0.8233
 3637SOL    HW222566   6.476   3.748   0.992  0.1166  1.1503 -0.0576
 3638SOL     OW22567   9.715   7.976   5.028  0.7166  0.4421 -0.3325
 3638SOL    HW122568   9.721   7.999   5.125  0.3618  1.3749 -0.5310
 3638SOL    HW222569   9.763   8.046   4.974 -0.0378  0.5218 -0.9103
 3639SOL     OW22570   4.596   3.183   5.202 -0.1080 -0.1257  0.2161
 3639SOL    HW122571   4.536   3.201   5.280  1.0309  0.8065  0.8844
 3639SOL    HW222572   4.643   3.096   5.216 -2.0811 -1.4015 -0.8159
 3640SOL     OW22573   0.518   7.111   7.935  0.0573  0.1699 -0.4773
 3640SOL    HW122574   0.420   7.102   7.920  0.3047 -0.9772 -1.5131
 3640SOL    HW222575   0.564   7.030   7.900  1.0331 -1.0691  3.3703
 3641SOL     OW22576   4.088   1.261   5.888 -0.5481  0.1582  0.1450
 3641SOL    HW122577   3.999   1.290   5.922  0.1540  1.2939  1.0567
 3641SOL    HW222578   4.140   1.218   5.963 -0.9135 -1.9318 -0.7589
 3642SOL     OW22579   0.087   8.122   4.729 -0.0618  0.0360  0.6939
 3642SOL    HW122580   0.145   8.137   4.649  1.2092 -1.5334  1.2893
 3642SOL    HW222581   0.094   8.201   4.790 -0.8788  1.1513 -0.6394
 3643SOL     OW22582   8.510   6.504   5.291  0.0001 -0.2180  0.2378
 3643SOL    HW122583   8.579   6.571   5.317 -0.0706 -0.1778  0.3204
 3643SOL    HW222584   8.535   6.415   5.330 -0.1510 -0.1404  0.5120
 3644SOL     OW22585   0.072   1.917   0.533  0.4040  0.1933  0.3736
 3644SOL    HW122586   0.103   1.847   0.469  1.1672 -1.0319  2.0454
 3644SOL    HW222587   0.004   1.975   0.489 -0.4121 -1.7415 -0.9836
 3645SOL     OW22588   0.610   2.813   6.150  0.1554 -0.0852  0.2507
 3645SOL    HW122589   0.584   2.848   6.240  0.7492  0.2022  0.3148
 3645SOL    HW222590   0.632   2.890   6.090  0.4537 -0.3107  0.0728
 3646SOL     OW22591   6.814   4.510   2.112 -0.5368 -0.0594  0.0994
 3646SOL    HW122592   6.773   4.587   2.063  0.9576  0.4645 -0.3715
 3646SOL    HW222593   6.883   4.544   2.176  0.4140 -1.0241 -0.3968
 3647SOL     OW22594   9.498   8.483   8.013 -0.0067 -0.0778  0.0457
 3647SOL    HW122595   9.477   8.422   8.089  2.1575  1.2032  1.7458
 3647SOL    HW222596   9.420   8.543   7.996 -0.1486  0.3207  1.9736
 3648SOL     OW22597   5.756   5.044   0.607  0.1230  0.2683 -0.7276
 3648SOL    HW122598   5.785   4.950   0.590 -0.5231  0.4154 -2.8212
 3648SOL    HW222599   5.668   5.043   0.654 -0.7349 -0.2060 -2.3015
 3649SOL     OW22600   6.240   8.233   6.333 -0.0378  0.0987 -0.4896
 3649SOL    HW122601   6.328   8.275   6.356  0.7194 -0.4780 -2.2301
 3649SOL    HW222602   6.226   8.239   6.234 -1.8445 -0.0452 -0.2529
 3650SOL     OW22603   1.055   9.863   1.555 -0.1631 -0.3896 -0.9690
 3650SOL    HW122604   1.081   9.907   1.468  1.4029  1.4873  0.4094
 3650SOL    HW222605   1.133   9.809   1.588 -0.5449 -0.5876 -0.4048
 3651SOL     OW22606   8.816   8.286   2.045 -0.8247  0.6112  0.2474
 3651SOL    HW122607   8.750   8.355   2.016 -2.1118 -1.4332 -1.7166
 3651SOL    HW222608   8.772   8.197   2.054  1.0451 -0.2161  1.7251
 3652SOL     OW22609   1.782   4.090   3.926  0.2058  0.2375 -0.0916
 3652SOL    HW122610   1.798   4.147   3.845  2.2952  1.6387  1.2464
 3652SOL    HW222611   1.717   4.137   3.987 -0.2917 -0.1691 -0.3043
 3653SOL     OW22612   0.085   3.319   2.392  0.0954  0.3229  0.7945
 3653SOL    HW122613  -0.004   3.280   2.371  0.2737  0.4414 -0.2112
 3653SOL    HW222614   0.072   3.404   2.444 -0.3195 -0.4875  2.0167
 3654SOL     OW22615   1.207   2.705   8.006  0.3913 -0.1563 -0.5924
 3654SOL    HW122616   1.210   2.763   7.924  2.0777  0.1364 -0.3486
 3654SOL    HW222617   1.301   2.687   8.037 -0.1848 -1.4494  0.4436
 3655SOL     OW22618   7.873   7.826   2.061 -0.1104  0.1439  0.1065
 3655SOL    HW122619   7.924   7.844   1.977 -0.8465 -2.5155 -0.9750
 3655SOL    HW222620   7.805   7.755   2.044  0.9275 -1.7609  3.3518
 3656SOL     OW22621   0.054   4.018   1.333  0.3325  0.1639  0.0257
 3656SOL    HW122622   0.152   4.026   1.352 -0.0367 -0.2929  2.3857
 3656SOL    HW222623   0.011   4.108   1.343  0.6255  0.5046 -1.7564
 3657SOL     OW22624   2.230   5.579   6.053 -0.3019  0.0580  0.4016
 3657SOL    HW122625   2.172   5.633   6.114  0.7874  0.5678  1.0032
 3657SOL    HW222626   2.246   5.630   5.968  0.0582  0.3471  0.6378
 3658SOL     OW22627   2.031   9.745   6.506  0.3189 -0.0314 -0.3509
 3658SOL    HW122628   2.062   9.667   6.451  1.1334 -0.0125  0.0727
 3658SOL    HW222629   2.085   9.826   6.482  0.5546  0.0196  0.3446
 3659SOL     OW22630   8.142   8.170   7.093 -0.8024  0.2826 -0.0642
 3659SOL    HW122631   8.136   8.231   7.172  1.2581  0.2635  0.1593
 3659SOL    HW222632   8.146   8.223   7.009 -0.0558  0.4358  0.0612
 3660SOL     OW22633   1.247   8.613   7.034  0.0261 -0.8507  0.1043
 3660SOL    HW122634   1.238   8.525   7.080 -1.3137 -0.8854 -0.2108
 3660SOL    HW222635   1.229   8.687   7.098 -1.1399 -0.8810 -0.1728
 3661SOL     OW22636   8.646   9.935   5.571  0.1647 -0.3038 -0.1248
 3661SOL    HW122637   8.555   9.939   5.611  0.5002  2.0507  0.4366
 3661SOL    HW222638   8.653  10.001   5.497  1.3254 -0.7047 -0.3810
 3662SOL     OW22639   2.916   3.565   5.019 -0.1558  0.3290  0.1355
 3662SOL    HW122640   2.925   3.490   5.084  1.2734  1.5458  1.3738
 3662SOL    HW222641   2.908   3.651   5.069 -0.5634  1.1267 -1.2907
 3663SOL     OW22642   7.443   4.274   5.427 -0.3270 -0.6030 -0.4613
 3663SOL    HW122643   7.489   4.360   5.448 -2.2590  0.6722 -1.2760
 3663SOL    HW222644   7.380   4.251   5.502  2.6978 -3.1889  1.4324
 3664SOL     OW22645   1.182   8.060   7.661  0.6453 -0.3043  0.3059
 3664SOL    HW122646   1.272   8.098   7.684  0.0505  0.1478  1.9816
 3664SOL    HW222647   1.110   8.119   7.700 -0.4047 -0.1752 -1.7769
 3665SOL     OW22648   1.413   2.765   4.946  0.2883 -0.0783  0.1120
 3665SOL    HW122649   1.459   2.840   4.898  0.0606 -0.1551 -0.2320
 3665SOL    HW222650   1.359   2.802   5.022 -1.8936  0.3999 -1.6185
 3666SOL     OW22651   0.083   0.884   1.899  0.5899  0.4896  0.3112
 3666SOL    HW122652   0.159   0.883   1.833 -0.0322  0.1376 -0.4019
 3666SOL    HW222653  -0.003   0.872   1.851  0.3230 -2.7992  1.4907
 3667SOL     OW22654   7.476   8.475   3.951 -0.4287 -0.0718 -0.7043
 3667SOL    HW122655   7.556   8.507   4.001 -2.1199  1.5007  1.0786
 3667SOL    HW222656   7.423   8.553   3.918 -2.3644 -1.0333  0.0170
 3668SOL     OW22657   0.334   1.578   3.386  0.7112 -0.5282 -0.1903
 3668SOL    HW122658   0.282   1.536   3.312 -0.3593  2.6507 -1.3229
 3668SOL    HW222659   0.432   1.562   3.371  0.4561 -0.6413 -1.8586
 3669SOL     OW22660   2.544   9.166   0.795  0.1736 -0.2902  0.3091
 3669SOL    HW122661   2.447   9.153   0.775  0.2380  1.3889 -1.2557
 3669SOL    HW222662   2.554   9.219   0.879 -0.2600 -0.1836  0.2950
 3670SOL     OW22663   3.919   4.809   2.236 -0.1925 -0.1139 -0.7320
 3670SOL    HW122664   4.014   4.781   2.247 -0.5167 -1.7658 -2.0259
 3670SOL    HW222665   3.915   4.895   2.186  0.5568 -0.8719 -2.1193
 3671SOL     OW22666   7.832   2.967   0.164  0.2075  0.2341  0.0071
 3671SOL    HW122667   7.846   3.056   0.208  1.2129 -0.0553  0.2856
 3671SOL    HW222668   7.846   2.976   0.065  1.5480  0.1418  0.1731
 3672SOL     OW22669   4.303   4.200   1.255 -0.0813 -0.1557 -0.1547
 3672SOL    HW122670   4.224   4.258   1.234  0.1064 -0.3287 -1.4071
 3672SOL    HW222671   4.274   4.122   1.310 -0.4396  0.8226  1.0550
 3673SOL     OW22672   0.872   9.243   6.116 -0.6497 -0.4217 -0.0449
 3673SOL    HW122673   0.840   9.259   6.210  0.2655  0.4503  0.1200
 3673SOL    HW222674   0.924   9.322   6.084  0.9686 -1.6232 -0.4668
 3674SOL     OW22675   4.220   2.214   5.726  0.5455  0.5167 -0.3465
 3674SOL    HW122676   4.267   2.196   5.813  1.6322  1.1730 -0.7852
 3674SOL    HW222677   4.224   2.132   5.669 -1.0931 -0.2619  0.6280
 3675SOL     OW22678   4.117   3.616   3.178 -0.1186 -0.5996 -0.0259
 3675SOL    HW122679   4.131   3.707   3.139 -0.3436 -0.3721  0.4149
 3675SOL    HW222680   4.190   3.555   3.147 -0.5053 -0.5213 -1.0837
 3676SOL     OW22681   9.767   9.011   1.220 -0.0129 -0.5674 -0.2884
 3676SOL    HW122682   9.793   8.937   1.158 -1.3864 -0.8857 -0.5066
 3676SOL    HW222683   9.691   8.980   1.278 -1.3679  1.0497 -1.1836
 3677SOL     OW22684   9.667   7.308   4.484  0.2494  0.2487  0.0757
 3677SOL    HW122685   9.583   7.303   4.539  0.3289 -1.1179  0.0896
 3677SOL    HW222686   9.691   7.404   4.468 -0.5911  0.6492  1.1772
 3678SOL     OW22687   6.759   0.509   2.337  0.1882 -0.0366  0.3081
 3678SOL    HW122688   6.705   0.550   2.410  0.2193 -1.1454  0.9702
 3678SOL    HW222689   6.721   0.535   2.248 -0.0400  1.0606  0.7194
 3679SOL     OW22690   8.814   8.407   7.757  0.3386  0.0966 -0.0018
 3679SOL    HW122691   8.906   8.435   7.786 -0.7506  2.1377  1.6130
 3679SOL    HW222692   8.798   8.313   7.785  1.2724  0.3157  1.3606
 3680SOL     OW22693   2.227   2.888   2.029  0.4777  0.2169  0.0861
 3680SOL    HW122694   2.208   2.981   1.997 -0.9620 -0.2470 -0.4317
 3680SOL    HW222695   2.225   2.887   2.129 -0.5029  0.5407  0.0737
 3681SOL     OW22696   3.561   2.796   0.457  0.5510 -0.5069  0.3096
 3681SOL    HW122697   3.562   2.706   0.414 -0.4331 -0.3666 -0.0274
 3681SOL    HW222698   3.476   2.808   0.508  0.8946  0.0417  0.7668
 3682SOL     OW22699   9.869   0.527   1.951 -0.2050 -0.2713  0.0021
 3682SOL    HW122700   9.876   0.517   1.852  2.1741 -1.2636  0.2362
 3682SOL    HW222701   9.897   0.442   1.995  1.7068  1.1284  1.5778
 3683SOL     OW22702   1.345   1.677   0.060 -0.4851  0.1512 -0.0716
 3683SOL    HW122703   1.380   1.583   0.053 -0.7675 -0.0367  0.8739
 3683SOL    HW222704   1.292   1.699  -0.021 -0.5085 -0.5532 -0.2564
 3684SOL     OW22705   1.650   4.451   3.843  0.0772  0.3476 -0.1949
 3684SOL    HW122706   1.608   4.384   3.781  2.0366  2.1089 -3.5976
 3684SOL    HW222707   1.729   4.410   3.888  1.3118  0.3242 -2.3207
 3685SOL     OW22708   1.921   1.184   2.335 -0.9115 -0.4151  0.4959
 3685SOL    HW122709   1.846   1.231   2.289 -0.0195  0.2231 -0.3184
 3685SOL    HW222710   1.940   1.229   2.422 -1.2338 -0.3769  0.5498
 3686SOL     OW22711   9.193   3.733   3.501 -0.1267  0.5134  0.2179
 3686SOL    HW122712   9.102   3.690   3.502 -0.4016  1.1095  1.0256
 3686SOL    HW222713   9.192   3.809   3.437 -1.2031  2.6518  2.6795
 3687SOL     OW22714   2.702   6.818   5.185  0.0348 -0.5603 -0.6087
 3687SOL    HW122715   2.644   6.891   5.148 -0.1574  0.3227  1.3919
 3687SOL    HW222716   2.785   6.858   5.225  0.1312 -1.4681  0.1209
 3688SOL     OW22717   9.011   7.739   7.769  0.5289  0.3300 -0.5105
 3688SOL    HW122718   9.086   7.785   7.722  0.0675  1.6747  0.0524
 3688SOL    HW222719   8.926   7.751   7.718  0.3660  0.2708 -0.2553
 3689SOL     OW22720   4.816   9.211   4.583  0.2418  0.1266  0.5627
 3689SOL    HW122721   4.886   9.242   4.519  2.0965 -1.7953  1.6022
 3689SOL    HW222722   4.801   9.282   4.652  0.9801  0.6577  0.1887
 3690SOL     OW22723   3.734   0.355   3.187 -0.2634 -0.0732 -0.0739
 3690SOL    HW122724   3.681   0.344   3.271 -0.2553 -3.4287 -0.4267
 3690SOL    HW222725   3.674   0.383   3.113 -0.8585 -0.1529  0.3755
 3691SOL     OW22726   1.604   5.738   0.974 -0.0795 -0.2069  0.0285
 3691SOL    HW122727   1.619   5.833   1.001  0.4312 -0.2913  0.0475
 3691SOL    HW222728   1.511   5.728   0.939 -0.4745  0.0703  0.9920
 3692SOL     OW22729   9.534   2.135   1.908  0.5906  0.4159  0.2380
 3692SOL    HW122730   9.455   2.075   1.890  0.0416  1.2477 -0.1976
 3692SOL    HW222731   9.614   2.079   1.928 -0.3359 -0.4421  1.7024
 3693SOL     OW22732   0.749   5.464   0.995 -0.3980  0.1840  0.4702
 3693SOL    HW122733   0.703   5.407   0.927  0.2588  0.3730 -0.1245
 3693SOL    HW222734   0.847   5.446   0.994 -0.5124 -0.6730  2.1741
 3694SOL     OW22735   1.441   0.504   4.731 -0.0720  0.1074 -0.2256
 3694SOL    HW122736   1.511   0.542   4.792  0.1133  0.3777 -0.6048
 3694SOL    HW222737   1.460   0.532   4.637 -1.0798  0.7782 -0.2438
 3695SOL     OW22738   0.685   8.028   7.095 -0.3300 -0.2273 -0.5763
 3695SOL    HW122739   0.700   8.127   7.102 -1.8051  0.1208 -2.1340
 3695SOL    HW222740   0.589   8.010   7.076  0.0560 -1.9432 -0.9610
 3696SOL     OW22741   6.707   0.240   4.466 -0.0485 -0.2642  0.5237
 3696SOL    HW122742   6.729   0.288   4.382  1.2227  1.1205  1.6145
 3696SOL    HW222743   6.744   0.147   4.463  2.4043  0.6766  0.6554
 3697SOL     OW22744   1.400   3.143   7.883 -0.4448 -0.5042 -0.3823
 3697SOL    HW122745   1.368   3.137   7.977 -1.0903  2.2256 -0.3734
 3697SOL    HW222746   1.491   3.185   7.881  0.3359 -2.1569 -0.8823
 3698SOL     OW22747   8.406   2.098   4.671  0.4553  0.2508 -0.2379
 3698SOL    HW122748   8.366   2.052   4.592  0.9355 -0.4490 -0.0753
 3698SOL    HW222749   8.505   2.110   4.657  0.4041  0.8563 -0.1013
 3699SOL     OW22750   1.445   3.157   5.651  0.0728 -0.4079 -0.4437
 3699SOL    HW122751   1.458   3.257   5.648  1.8689 -0.6320 -1.4048
 3699SOL    HW222752   1.347   3.136   5.651 -0.3296  1.3455 -1.0183
 3700SOL     OW22753   0.110   4.610   0.512  0.3184  0.4873 -0.3951
 3700SOL    HW122754   0.011   4.624   0.504  0.7781  3.5006 -1.4155
 3700SOL    HW222755   0.136   4.610   0.608 -0.7989 -1.6872 -0.0411
 3701SOL     OW22756   1.148   6.490   4.559 -0.8907 -0.1824  0.2291
 3701SOL    HW122757   1.053   6.463   4.545 -0.3085 -1.7079 -0.8384
 3701SOL    HW222758   1.207   6.438   4.498  0.7806 -0.2418  1.8595
 3702SOL     OW22759   0.773   6.142   5.457  0.6807  0.3325  0.0565
 3702SOL    HW122760   0.812   6.082   5.387  1.1313  0.2167  0.4030
 3702SOL    HW222761   0.787   6.237   5.431 -0.3306  0.2853 -0.6573
 3703SOL     OW22762   6.244   9.895   5.613 -0.1517 -0.2005 -0.0893
 3703SOL    HW122763   6.192   9.914   5.697 -1.4545  0.9012 -1.1325
 3703SOL    HW222764   6.303   9.816   5.629 -2.1241 -1.4837  1.1433
 3704SOL     OW22765   8.232   2.892   3.975  0.2807  0.0860  0.4225
 3704SOL    HW122766   8.262   2.798   3.962 -2.6802 -0.6019 -2.0712
 3704SOL    HW222767   8.212   2.908   4.072 -0.3191 -2.2109  0.7045
 3705SOL     OW22768   7.456   8.053   3.584 -0.2306 -0.2231  0.2049
 3705SOL    HW122769   7.541   8.007   3.612 -0.6531 -0.1322  1.6678
 3705SOL    HW222770   7.391   8.052   3.660 -1.1910  0.5648 -0.5944
 3706SOL     OW22771   3.048   9.161   2.538  0.0877  0.2027  0.2331
 3706SOL    HW122772   3.086   9.200   2.454  0.8055 -1.1693 -0.0948
 3706SOL    HW222773   2.955   9.128   2.520  0.0930  0.2710  0.0817
 3707SOL     OW22774   9.048   7.919   4.894 -0.3673  0.0930 -0.2313
 3707SOL    HW122775   9.070   7.853   4.966  0.3640 -1.0977 -1.5239
 3707SOL    HW222776   9.127   7.977   4.877 -0.4765  0.2497 -0.2092
 3708SOL     OW22777   0.135   8.353   6.057  0.4032  0.0015 -0.0711
 3708SOL    HW122778   0.093   8.267   6.029 -1.3410  0.1307  1.9673
 3708SOL    HW222779   0.088   8.429   6.011 -0.0863  0.0159  0.4436
 3709SOL     OW22780   1.188   9.366   6.672  0.5009 -0.1086  0.4912
 3709SOL    HW122781   1.243   9.434   6.624  0.5370 -0.8669 -0.5694
 3709SOL    HW222782   1.150   9.406   6.756  1.9143  0.6856  0.7569
 3710SOL     OW22783   9.095   4.272   0.106  0.0438 -0.3721  0.5829
 3710SOL    HW122784   9.111   4.194   0.045  0.5901  0.4442 -0.3423
 3710SOL    HW222785   9.013   4.256   0.160 -0.8104 -0.8582 -0.8226
 3711SOL     OW22786   1.186   3.462   3.744 -0.2959 -0.1377 -0.2734
 3711SOL    HW122787   1.161   3.389   3.681 -0.3941  0.4845 -0.9663
 3711SOL    HW222788   1.220   3.423   3.830  0.3808 -0.9896 -0.9265
 3712SOL     OW22789   1.739   1.595   0.244  0.2709  0.0993  0.3384
 3712SOL    HW122790   1.766   1.534   0.170  1.3536  0.9045  0.0596
 3712SOL    HW222791   1.796   1.677   0.242 -0.1603  0.4378  1.6393
 3713SOL     OW22792   2.688   8.846   5.465 -0.5092  0.5839  0.3479
 3713SOL    HW122793   2.718   8.752   5.449 -1.3412  0.2655  0.6403
 3713SOL    HW222794   2.764   8.899   5.503  0.5586  0.5550 -1.6766
 3714SOL     OW22795   1.007   2.020   2.590 -0.4379  0.7563 -0.7234
 3714SOL    HW122796   1.043   1.926   2.591 -0.0144  0.9161 -0.7752
 3714SOL    HW222797   1.064   2.077   2.649  1.5895  1.8136 -3.5863
 3715SOL     OW22798   5.840   0.034   3.826 -0.1145  0.4162  0.0655
 3715SOL    HW122799   5.748   0.019   3.791  0.1939 -0.2392 -0.4869
 3715SOL    HW222800   5.854   0.132   3.843 -1.1221  0.4380  0.7685
 3716SOL     OW22801   4.032   1.495   7.749  0.0886 -0.3265 -0.0811
 3716SOL    HW122802   4.120   1.535   7.721  1.8467 -2.8944  1.5566
 3716SOL    HW222803   3.981   1.561   7.803  1.7124  0.6705  0.2610
 3717SOL     OW22804   1.124   4.568   5.509 -0.0610  0.0854  0.1225
 3717SOL    HW122805   1.188   4.515   5.453  0.9381  1.7688 -0.3501
 3717SOL    HW222806   1.089   4.645   5.456 -4.4630 -2.1648 -0.4997
 3718SOL     OW22807   4.577   8.985   7.447 -0.5484 -0.3100 -0.4536
 3718SOL    HW122808   4.585   8.959   7.350  1.3583 -0.5262 -0.2575
 3718SOL    HW222809   4.499   8.937   7.487 -1.9966  0.5747 -2.1267
 3719SOL     OW22810   7.566   2.929   3.704  0.1690 -0.1514 -0.0597
 3719SOL    HW122811   7.657   2.960   3.731  0.6963 -1.5313 -0.1903
 3719SOL    HW222812   7.506   2.924   3.784  0.2491  0.6398  0.0458
 3720SOL     OW22813   2.098   3.978   8.207  0.0805  0.2181 -0.4590
 3720SOL    HW122814   2.095   3.915   8.284 -0.2790 -1.1156 -1.5480
 3720SOL    HW222815   2.043   4.060   8.229  1.5938  0.7632  1.4504
 3721SOL     OW22816   7.726   0.437   3.320 -0.4127  0.2424  0.2293
 3721SOL    HW122817   7.737   0.451   3.222 -3.3645 -1.4631 -0.4249
 3721SOL    HW222818   7.806   0.388   3.356 -0.6820 -1.9193 -1.9759
 3722SOL     OW22819   9.646   1.263   7.290  0.3106  0.0615 -0.0972
 3722SOL    HW122820   9.684   1.176   7.321 -0.0324 -0.9141 -2.3039
 3722SOL    HW222821   9.709   1.337   7.311  0.8480 -0.7769  1.3287
 3723SOL     OW22822   8.887   8.248   1.190  0.4882 -0.0268 -0.9052
 3723SOL    HW122823   8.834   8.283   1.112 -0.7845 -1.0405 -0.5094
 3723SOL    HW222824   8.942   8.170   1.160  2.3437  1.4754 -1.4871
 3724SOL     OW22825   7.787   3.384   7.873  0.0169 -0.1842 -0.3323
 3724SOL    HW122826   7.769   3.296   7.917  1.3899  0.6258  1.9406
 3724SOL    HW222827   7.884   3.391   7.851 -0.2535  0.3771 -1.3722
 3725SOL     OW22828   0.408   0.614   6.158 -0.8774 -0.1265  0.3098
 3725SOL    HW122829   0.422   0.515   6.165  1.2352  0.2741  2.1563
 3725SOL    HW222830   0.344   0.644   6.229 -0.7217  0.0029  0.3939
 3726SOL     OW22831   7.806   8.617   1.767  0.3370 -0.0509  0.1564
 3726SOL    HW122832   7.848   8.603   1.677 -1.3052 -2.0775 -0.3252
 3726SOL    HW222833   7.718   8.663   1.756 -1.0260 -2.5165  0.4735
 3727SOL     OW22834   4.292   1.742   3.348 -0.4820  0.2668  0.1964
 3727SOL    HW122835   4.349   1.733   3.430 -0.6990  2.3996  0.6021
 3727SOL    HW222836   4.265   1.651   3.317 -0.7912 -0.5566  2.7535
 3728SOL     OW22837   9.256   6.327   5.448  0.2980  0.4094 -0.0961
 3728SOL    HW122838   9.340   6.353   5.400  0.3476 -1.1442 -0.9009
 3728SOL    HW222839   9.244   6.228   5.440  1.0915 -0.1459  4.3289
 3729SOL     OW22840   2.395   0.210   6.738  0.1714 -0.2895 -0.1777
 3729SOL    HW122841   2.379   0.148   6.815 -1.2393 -0.2795 -0.4610
 3729SOL    HW222842   2.376   0.304   6.767  1.7831 -0.0328  0.0941
 3730SOL     OW22843   5.049   3.213   0.335 -0.5664 -0.1679 -0.1794
 3730SOL    HW122844   4.971   3.238   0.278  0.5619  1.6665 -0.9946
 3730SOL    HW222845   5.078   3.293   0.389  0.0835 -1.1203  0.9217
 3731SOL     OW22846   0.523   5.857   5.324  0.1274  0.0655 -0.7873
 3731SOL    HW122847   0.517   5.954   5.304  0.1248 -0.2095 -2.2004
 3731SOL    HW222848   0.438   5.812   5.295 -0.8845 -0.0020  2.1036
 3732SOL     OW22849   3.817   3.149   4.121 -0.0527  0.3465  0.3971
 3732SOL    HW122850   3.894   3.152   4.184  0.0668  0.2858  0.2536
 3732SOL    HW222851   3.774   3.059   4.125  1.4795 -0.4954 -1.4286
 3733SOL     OW22852   3.169   6.119   6.733  0.0637  0.0835  0.6012
 3733SOL    HW122853   3.228   6.038   6.728 -0.2205 -0.0720 -0.2476
 3733SOL    HW222854   3.073   6.091   6.731 -0.0345  0.4432  0.2272
 3734SOL     OW22855   9.441   5.632   1.937  0.7302 -0.1102  0.5861
 3734SOL    HW122856   9.349   5.593   1.937  0.4461  0.5515  1.8367
 3734SOL    HW222857   9.505   5.565   1.900 -0.4172 -0.1692 -1.3846
 3735SOL     OW22858   4.372   9.548   0.230 -0.0186 -0.1251  0.7962
 3735SOL    HW122859   4.297   9.500   0.275  0.1472 -0.8568  0.3099
 3735SOL    HW222860   4.376   9.520   0.134  0.6569  0.1759  0.7335
 3736SOL     OW22861   2.103   7.178   1.630  0.0636 -0.1656  0.4224
 3736SOL    HW122862   2.182   7.222   1.673  0.6247  0.5916 -1.3494
 3736SOL    HW222863   2.131   7.090   1.593  0.2948  0.4892 -0.9732
 3737SOL     OW22864   2.095   7.116   3.164 -0.4043  0.7474 -0.3820
 3737SOL    HW122865   2.161   7.171   3.215  0.4760  2.8862 -3.6309
 3737SOL    HW222866   2.013   7.171   3.148 -0.3187  0.4370 -1.9434
 3738SOL     OW22867   3.132   6.480   0.846 -0.5810 -0.2050  0.0457
 3738SOL    HW122868   3.150   6.569   0.803 -2.6236  0.6205  0.8331
 3738SOL    HW222869   3.217   6.444   0.885  0.2899  1.3511 -0.3620
 3739SOL     OW22870   0.019   1.683   7.688  0.4210 -0.4311  0.2674
 3739SOL    HW122871   0.109   1.724   7.698 -0.1967  0.9232  0.4253
 3739SOL    HW222872  -0.050   1.745   7.726 -0.7076 -0.7931 -1.1372
 3740SOL     OW22873   8.467   7.387   0.938  0.8987 -0.3070  0.4545
 3740SOL    HW122874   8.508   7.365   0.850 -1.4413  0.6571 -0.9269
 3740SOL    HW222875   8.395   7.321   0.960  0.5838  0.2150  1.0277
 3741SOL     OW22876   3.659   0.084   7.207 -0.0480 -0.4082 -0.3340
 3741SOL    HW122877   3.591   0.157   7.217  0.6153  0.6021 -2.8713
 3741SOL    HW222878   3.750   0.120   7.229  0.1185 -0.8393 -0.3053
 3742SOL     OW22879   9.629   9.977   4.270 -0.3258 -0.3809 -0.5543
 3742SOL    HW122880   9.724  10.008   4.271 -0.3993 -0.1626  0.0701
 3742SOL    HW222881   9.595   9.972   4.364 -1.1598  0.2354 -0.8213
 3743SOL     OW22882   1.274   1.729   7.809  0.3530 -0.3777 -0.4632
 3743SOL    HW122883   1.322   1.808   7.770 -0.3039  0.6933  0.8304
 3743SOL    HW222884   1.241   1.670   7.736 -0.4646  1.3492 -1.5326
 3744SOL     OW22885   8.984   3.136   4.641 -0.2268 -0.5727 -0.4851
 3744SOL    HW122886   9.073   3.173   4.615 -0.6764 -0.0438 -1.2589
 3744SOL    HW222887   8.953   3.180   4.725 -0.0189 -0.3488 -0.5259
 3745SOL     OW22888   9.448   8.610   2.441  0.8835  0.8069 -0.5550
 3745SOL    HW122889   9.542   8.579   2.428  0.4112 -1.2043  0.5491
 3745SOL    HW222890   9.390   8.570   2.371  0.2624 -0.9130  0.8948
 3746SOL     OW22891   9.893   9.228   1.056 -0.2167 -0.5391 -0.8190
 3746SOL    HW122892   9.926   9.152   1.000  1.6194  0.1077 -0.6406
 3746SOL    HW222893   9.876   9.196   1.149  2.5543 -0.3166 -0.1962
 3747SOL     OW22894   7.219   0.410   6.090 -0.1690 -0.0641  0.0030
 3747SOL    HW122895   7.218   0.409   6.190 -1.0641  0.1166 -0.0051
 3747SOL    HW222896   7.302   0.456   6.058 -0.9494  1.8302  0.6711
 3748SOL     OW22897   0.984   1.405   5.015 -0.2275 -0.2421  0.5801
 3748SOL    HW122898   0.958   1.361   4.929  0.3187 -0.0040  0.2913
 3748SOL    HW222899   1.061   1.356   5.056  0.8788  0.8543 -0.1157
 3749SOL     OW22900   7.122   2.153   8.074 -0.0004  0.5856  0.5210
 3749SOL    HW122901   7.126   2.113   7.982 -1.3269 -0.4519  0.9075
 3749SOL    HW222902   7.214   2.183   8.101  0.3780  1.0336 -1.1923
 3750SOL     OW22903   3.812   3.276   0.806 -0.3197  0.1264  0.0916
 3750SOL    HW122904   3.788   3.341   0.877  0.9061  1.8156 -0.9854
 3750SOL    HW222905   3.752   3.288   0.727 -2.0368 -2.1154  1.0223
 3751SOL     OW22906   6.079   3.092   0.682 -0.1694 -0.8526 -0.1068
 3751SOL    HW122907   6.025   3.023   0.729 -0.1585 -0.1202  0.9973
 3751SOL    HW222908   6.138   3.139   0.748 -0.0573  0.0996 -0.8724
 3752SOL     OW22909   9.536   6.557   4.012  0.2798 -0.2778 -0.0321
 3752SOL    HW122910   9.450   6.557   3.961  0.0612 -1.2048  0.3247
 3752SOL    HW222911   9.523   6.602   4.100 -0.0213 -0.9993  0.3007
 3753SOL     OW22912   1.303   2.257   5.212 -0.0847 -0.0376 -0.1170
 3753SOL    HW122913   1.314   2.222   5.119  0.4099  1.2250 -0.5464
 3753SOL    HW222914   1.389   2.251   5.261 -0.1630 -0.0249  0.0234
 3754SOL     OW22915   9.773   4.348   0.485 -0.5559 -0.1457  0.4800
 3754SOL    HW122916   9.808   4.440   0.501  0.8620 -0.2980 -1.6126
 3754SOL    HW222917   9.846   4.281   0.503 -1.4803 -0.8577  1.6734
 3755SOL     OW22918   7.638   4.851   1.877 -0.0628  0.4003 -0.5386
 3755SOL    HW122919   7.722   4.882   1.922 -1.4491 -1.2836  3.5052
 3755SOL    HW222920   7.621   4.755   1.901 -1.5864 -0.1807 -3.7652
 3756SOL     OW22921   1.060   4.211   5.639 -0.2717 -0.8279  0.0129
 3756SOL    HW122922   1.150   4.169   5.625 -0.9139 -1.9872 -0.7012
 3756SOL    HW222923   1.070   4.292   5.697  1.5938  0.5332 -2.1344
 3757SOL     OW22924   4.356   0.144   5.949 -0.2263 -0.1013  0.6018
 3757SOL    HW122925   4.308   0.059   5.971  1.9075 -0.8933  2.4622
 3757SOL    HW222926   4.455   0.126   5.945  0.1936  2.1430  0.1956
 3758SOL     OW22927   4.490   6.602   2.786 -0.3916  0.1592 -0.0742
 3758SOL    HW122928   4.513   6.657   2.866 -1.2290  0.4906 -0.0573
 3758SOL    HW222929   4.411   6.642   2.739  0.0449 -0.0770 -1.0226
 3759SOL     OW22930   6.898   3.718   1.392  0.0627 -0.7991 -0.1935
 3759SOL    HW122931   6.825   3.780   1.419 -0.7400 -1.8851  0.1984
 3759SOL    HW222932   6.968   3.716   1.463 -0.5126 -1.2584  0.3762
 3760SOL     OW22933   0.507   2.909   6.426 -0.0205 -0.1745 -0.4665
 3760SOL    HW122934   0.559   2.924   6.510 -1.9311  0.5175  0.6195
 3760SOL    HW222935   0.488   2.811   6.416  1.4788 -0.4385 -0.8890
 3761SOL     OW22936   1.358   8.579   4.417 -0.3792 -0.6206 -0.1574
 3761SOL    HW122937   1.291   8.527   4.469  0.3952  0.7648  2.3324
 3761SOL    HW222938   1.440   8.592   4.473 -0.2366  2.4924 -1.0073
 3762SOL     OW22939   9.842   1.888   7.077 -0.5338 -0.2659 -0.2881
 3762SOL    HW122940   9.778   1.859   7.149  1.1000 -1.8197  0.5724
 3762SOL    HW222941   9.921   1.827   7.076  0.7865  1.4143 -1.5806
 3763SOL     OW22942   3.467   5.250   4.876 -0.3727  0.4501 -0.0475
 3763SOL    HW122943   3.417   5.282   4.795 -2.2434  1.7351  1.5695
 3763SOL    HW222944   3.499   5.328   4.929  1.4536 -0.3812  0.1164
 3764SOL     OW22945   4.559   9.614   1.105 -0.3344  0.0195 -0.5462
 3764SOL    HW122946   4.589   9.667   1.185 -0.8157  0.5248 -0.6947
 3764SOL    HW222947   4.561   9.673   1.024 -2.5140  0.3106 -0.4197
 3765SOL     OW22948   5.388   8.372   1.996 -0.4519  0.4172 -0.0998
 3765SOL    HW122949   5.342   8.441   1.941 -1.7326  0.5037  1.0438
 3765SOL    HW222950   5.375   8.282   1.955  1.1076  0.8171 -1.5192
 3766SOL     OW22951   7.904   1.520   3.304 -0.3077  0.4353  0.8517
 3766SOL    HW122952   7.818   1.567   3.280 -0.9995 -0.5853  1.2966
 3766SOL    HW222953   7.906   1.503   3.403  1.4678  2.5233  1.2111
 3767SOL     OW22954   4.048   8.045   4.363 -0.5844  0.2450  0.5005
 3767SOL    HW122955   4.045   7.973   4.294 -0.3792  0.0135  0.7318
 3767SOL    HW222956   3.983   8.023   4.436 -0.3867  0.2032  0.6617
 3768SOL     OW22957   3.500   9.012   2.096 -0.5771 -0.1709 -0.0792
 3768SOL    HW122958   3.591   8.995   2.059 -0.1893  1.8354 -0.0865
 3768SOL    HW222959   3.446   8.928   2.090  0.9006 -1.0811 -1.0944
 3769SOL     OW22960   9.083   2.346   4.657  0.6922 -0.1014 -0.4820
 3769SOL    HW122961   9.007   2.404   4.687  0.4468 -0.7848  0.2374
 3769SOL    HW222962   9.075   2.256   4.699  1.2524 -0.5604 -1.3406
 3770SOL     OW22963   8.640   5.008   0.528  0.3486  0.0094  0.2906
 3770SOL    HW122964   8.614   4.974   0.618  2.1554 -0.8259  0.5120
 3770SOL    HW222965   8.643   4.933   0.462  1.9046  0.1299  0.2105
 3771SOL     OW22966   3.451   5.538   2.547  0.2300 -0.2465 -0.6083
 3771SOL    HW122967   3.541   5.496   2.532  0.5701 -0.2401  1.3542
 3771SOL    HW222968   3.400   5.484   2.614  0.4242  2.0631  1.4519
 3772SOL     OW22969   0.752   5.237   3.554  0.3907 -0.1311  0.0708
 3772SOL    HW122970   0.788   5.281   3.636  0.3091  1.4281 -0.7173
 3772SOL    HW222971   0.825   5.224   3.487  0.1082  0.2676 -0.3231
 3773SOL     OW22972   2.787   8.076   5.275 -0.0071 -0.0075 -0.3757
 3773SOL    HW122973   2.838   8.152   5.315  0.8666 -0.6582 -0.2242
 3773SOL    HW222974   2.848   7.997   5.266 -0.8046 -0.5672 -0.8817
 3774SOL     OW22975   6.496   6.343   5.814  0.0257 -0.3925 -0.1021
 3774SOL    HW122976   6.400   6.317   5.802  0.1119 -0.6399 -0.2492
 3774SOL    HW222977   6.511   6.436   5.779 -0.5634  0.3548  1.5418
 3775SOL     OW22978   0.145   1.926   4.039 -0.3310 -0.2315  0.4312
 3775SOL    HW122979   0.052   1.957   4.056 -0.7435 -0.7489 -0.8951
 3775SOL    HW222980   0.144   1.832   4.005  0.6714 -0.1822  0.2384
 3776SOL     OW22981   8.256   9.919   0.567 -0.5949 -0.3667 -0.3206
 3776SOL    HW122982   8.205   9.854   0.624 -1.2077 -0.3467 -0.8326
 3776SOL    HW222983   8.194   9.958   0.498 -0.6305  1.9603  0.9797
 3777SOL     OW22984   3.628   1.650   5.851 -0.1301  0.0150 -0.5326
 3777SOL    HW122985   3.530   1.667   5.842  0.1455  1.1251 -1.6338
 3777SOL    HW222986   3.662   1.608   5.768  0.0117 -2.0546  0.5419
 3778SOL     OW22987   7.144   2.442   4.420 -0.0476  0.2404  0.9425
 3778SOL    HW122988   7.083   2.394   4.357 -0.6002  0.8756  0.9877
 3778SOL    HW222989   7.158   2.386   4.502 -0.5380  0.0701  0.9132
 3779SOL     OW22990   2.704   4.217   6.730  0.3598  0.0278 -0.1201
 3779SOL    HW122991   2.741   4.309   6.716  1.2944 -0.0609  1.5821
 3779SOL    HW222992   2.729   4.185   6.821  0.8343 -2.3013 -1.0477
 3780SOL     OW22993   0.815   6.716   6.482 -0.0932 -0.0408 -0.5690
 3780SOL    HW122994   0.756   6.675   6.413 -0.7117  1.5967 -1.0423
 3780SOL    HW222995   0.802   6.815   6.482  1.0146  0.1193  0.8671
 3781SOL     OW22996   1.847   7.340   1.774 -0.6021  0.2556  0.0917
 3781SOL    HW122997   1.827   7.331   1.676 -0.2342  0.2339  0.0143
 3781SOL    HW222998   1.823   7.432   1.805 -0.2440  0.4325 -0.1409
 3782SOL     OW22999   2.325   5.076   0.656 -0.0474 -0.0568 -0.0623
 3782SOL    HW123000   2.314   5.115   0.564 -1.1580  1.6488  0.7665
 3782SOL    HW223001   2.406   5.115   0.699 -0.5126  0.4799  0.3343
 3783SOL     OW23002   3.061   7.692   2.564  0.0663 -0.6330  0.2512
 3783SOL    HW123003   3.040   7.790   2.564 -1.6736 -0.9858 -0.8078
 3783SOL    HW223004   3.006   7.645   2.633  0.7230 -0.9038  0.5963
 3784SOL     OW23005   2.760   3.379   4.759  0.0826 -0.0825  1.6396
 3784SOL    HW123006   2.806   3.422   4.836 -2.5175  0.3037  3.0301
 3784SOL    HW223007   2.702   3.304   4.792  0.4447 -1.1823 -0.1579
 3785SOL     OW23008   4.243   0.653   1.732  0.2116  0.0718  0.2687
 3785SOL    HW123009   4.207   0.564   1.760 -0.2904  0.0191 -0.5299
 3785SOL    HW223010   4.169   0.707   1.692  0.2753  1.2511  1.7123
 3786SOL     OW23011   9.538   5.599   2.269 -0.9707 -0.0569 -0.4043
 3786SOL    HW123012   9.438   5.595   2.274 -0.9475 -0.5817 -0.3213
 3786SOL    HW223013   9.576   5.599   2.362 -0.9479  1.6757 -0.4065
 3787SOL     OW23014   3.972   1.823   4.864  0.4456 -0.2917 -0.5685
 3787SOL    HW123015   4.014   1.781   4.945 -0.5156  0.2473  0.2292
 3787SOL    HW223016   3.961   1.921   4.879 -0.9765 -0.4077 -0.8030
 3788SOL     OW23017   2.120   4.778   0.573 -0.2401 -0.2276 -0.4862
 3788SOL    HW123018   2.045   4.721   0.540 -0.6087 -0.1692  0.2504
 3788SOL    HW223019   2.083   4.860   0.616  0.2975  0.7729 -1.8988
 3789SOL     OW23020   4.501   5.591   0.016  0.5821  0.5191  0.4924
 3789SOL    HW123021   4.479   5.628  -0.075  0.4320  0.4584  0.5032
 3789SOL    HW223022   4.585   5.633   0.049  0.5500  0.6614  0.3941
 3790SOL     OW23023   5.378   2.445   5.391  0.2175 -0.2524  0.0855
 3790SOL    HW123024   5.439   2.401   5.458  1.4591  0.9836 -0.1970
 3790SOL    HW223025   5.348   2.533   5.428 -0.9022 -0.5809 -0.0478
 3791SOL     OW23026   9.904   1.948   5.179  0.2899 -0.4766 -0.5561
 3791SOL    HW123027   9.969   1.909   5.244  0.2752  2.0344  1.0867
 3791SOL    HW223028   9.838   2.005   5.229 -0.9078 -0.0217 -2.5839
 3792SOL     OW23029   6.356   1.532   4.565 -0.0947 -0.5602  0.4931
 3792SOL    HW123030   6.444   1.485   4.556 -0.3821 -0.7144 -1.8915
 3792SOL    HW223031   6.366   1.628   4.540 -0.2485 -0.1269  2.0092
 3793SOL     OW23032   5.266   7.886   2.387 -0.3996 -0.3148  0.0229
 3793SOL    HW123033   5.269   7.979   2.349  0.5149  0.2366  1.4243
 3793SOL    HW223034   5.256   7.891   2.486 -2.2674 -1.7509 -0.0739
 3794SOL     OW23035   3.914   9.176   8.059 -0.0979  0.3410 -0.7213
 3794SOL    HW123036   3.832   9.232   8.069 -1.0868 -0.7673 -2.4325
 3794SOL    HW223037   3.974   9.219   7.991  0.3896  0.7284 -0.0545
 3795SOL     OW23038   4.683   3.490   5.949 -0.0274 -0.4309  0.3229
 3795SOL    HW123039   4.714   3.404   5.989  0.7631  0.0608  0.7788
 3795SOL    HW223040   4.762   3.543   5.920 -0.4979  0.2892  0.3494
 3796SOL     OW23041   6.839   8.285   5.808  0.0051  0.6292 -0.2210
 3796SOL    HW123042   6.782   8.319   5.883  0.3305 -0.6988  0.6417
 3796SOL    HW223043   6.909   8.353   5.786  0.4072  0.6829  1.2146
 3797SOL     OW23044   6.338   2.576   3.694 -0.8408  0.2284  0.2705
 3797SOL    HW123045   6.418   2.586   3.636  0.2176 -1.3902  1.4157
 3797SOL    HW223046   6.352   2.625   3.780 -0.3670 -1.4454  1.1648
 3798SOL     OW23047   1.578   4.546   6.199  0.6581  0.2278 -0.5267
 3798SOL    HW123048   1.557   4.578   6.106  2.3655 -1.4239 -1.5186
 3798SOL    HW223049   1.628   4.618   6.248 -1.3727  1.6169 -0.3849
 3799SOL     OW23050   3.078   5.184   2.908 -0.3910  0.3736 -0.4069
 3799SOL    HW123051   3.103   5.127   2.830 -1.6036 -0.7305  0.0029
 3799SOL    HW223052   3.038   5.127   2.980 -3.3067  1.9720 -0.7041
 3800SOL     OW23053   1.446   8.389   5.495 -0.2355  0.8907 -0.6178
 3800SOL    HW123054   1.490   8.353   5.413 -2.5786  0.3061 -1.6526
 3800SOL    HW223055   1.479   8.482   5.513  3.0912 -0.3474 -0.0336
 3801SOL     OW23056   7.328   3.518   5.591 -0.1832  0.3888 -0.3140
 3801SOL    HW123057   7.404   3.459   5.565 -1.0879 -0.5070 -0.9559
 3801SOL    HW223058   7.334   3.604   5.540  0.5318  0.4196 -0.1846
 3802SOL     OW23059   3.735   1.475   3.948 -0.4635  0.0403 -0.0442
 3802SOL    HW123060   3.793   1.516   4.018 -0.1849 -0.7489  0.1923
 3802SOL    HW223061   3.745   1.376   3.950 -0.3395  0.0118 -1.2972
 3803SOL     OW23062   7.589   1.046   4.802 -0.3358 -0.0297  0.4105
 3803SOL    HW123063   7.683   1.022   4.778 -0.2280  0.0066  0.7958
 3803SOL    HW223064   7.528   0.972   4.774 -0.3656  0.5585 -1.1307
 3804SOL     OW23065   1.669   1.585   0.633  0.0118  0.0700  0.6532
 3804SOL    HW123066   1.727   1.504   0.627 -1.2915 -0.9065  0.8268
 3804SOL    HW223067   1.618   1.596   0.548 -0.7921 -0.0553  1.1118
 3805SOL     OW23068   5.917   0.303   3.872  0.1671  0.0765 -0.1487
 3805SOL    HW123069   5.998   0.305   3.814  0.5694  1.1548  0.4234
 3805SOL    HW223070   5.945   0.288   3.967 -0.4358 -1.0834 -0.1487
 3806SOL     OW23071   5.907   5.498   0.167  0.9684 -0.9972  0.6285
 3806SOL    HW123072   5.851   5.444   0.104  0.8725  0.2003 -0.3351
 3806SOL    HW223073   5.917   5.449   0.253  0.6346 -2.4106 -0.1230
 3807SOL     OW23074   6.579   3.305   1.737  0.0110  0.1581  0.2633
 3807SOL    HW123075   6.497   3.249   1.728  1.2415 -1.5509 -0.6323
 3807SOL    HW223076   6.660   3.247   1.727  1.3230  2.0158 -0.1577
 3808SOL     OW23077   1.698   4.005   3.134 -0.1431  0.5976 -0.3558
 3808SOL    HW123078   1.688   3.969   3.226  0.8035 -0.0287 -0.4895
 3808SOL    HW223079   1.742   4.095   3.138  1.1425 -0.0131 -0.2639
 3809SOL     OW23080   9.369   8.040   3.497  0.1869 -0.5352  0.0184
 3809SOL    HW123081   9.348   7.944   3.479  0.2684 -0.3408 -1.1320
 3809SOL    HW223082   9.375   8.055   3.596  0.4288 -1.7656  0.1945
 3810SOL     OW23083   6.967   8.744   6.615 -0.2835 -0.0830  0.4682
 3810SOL    HW123084   7.053   8.789   6.592 -0.6542 -0.5131 -1.9780
 3810SOL    HW223085   6.913   8.804   6.674  0.4890  1.4241 -0.3111
 3811SOL     OW23086   0.587   4.629   3.779 -0.3298 -0.1129 -0.0966
 3811SOL    HW123087   0.521   4.554   3.788 -0.2123 -0.2368 -0.2795
 3811SOL    HW223088   0.663   4.613   3.842 -0.4078 -0.0400  0.0158
 3812SOL     OW23089   8.135   5.390   0.051  0.5875 -0.2077 -0.0485
 3812SOL    HW123090   8.219   5.440   0.073 -1.2773  3.1725 -0.2321
 3812SOL    HW223091   8.088   5.365   0.135 -0.0021  1.0596 -0.0037
 3813SOL     OW23092   7.940   5.304   0.268 -0.4144  0.0547 -0.1267
 3813SOL    HW123093   7.955   5.230   0.334  0.8786  1.0655  0.7377
 3813SOL    HW223094   7.878   5.273   0.196  0.6117 -2.0918 -0.1223
 3814SOL     OW23095   0.242   9.944   5.209 -0.0823  0.0060  0.4021
 3814SOL    HW123096   0.187   9.956   5.127 -0.2786 -1.4761  0.3047
 3814SOL    HW223097   0.266   9.848   5.220 -1.1351 -0.0390  2.7591
 3815SOL     OW23098   5.685   0.493   0.577  0.7183  0.7664  0.6493
 3815SOL    HW123099   5.606   0.514   0.520 -0.1216  1.5675  2.0703
 3815SOL    HW223100   5.676   0.400   0.614  2.0829 -0.3905 -1.8092
 3816SOL     OW23101   3.939   7.520   6.145 -0.0110  0.0590  0.3320
 3816SOL    HW123102   3.889   7.601   6.176 -0.0194 -0.0578  0.6217
 3816SOL    HW223103   3.935   7.515   6.045  0.4857  0.7383  0.2741
 3817SOL     OW23104   0.773   1.430   0.846 -0.6061  0.0373  0.0495
 3817SOL    HW123105   0.736   1.515   0.884  1.6054  0.2071  1.8809
 3817SOL    HW223106   0.853   1.451   0.790 -0.6376 -0.7795 -0.2997
 3818SOL     OW23107   5.619   3.797   8.183 -0.5981  0.1328  0.1115
 3818SOL    HW123108   5.544   3.757   8.235 -0.6952  0.0989 -0.0538
 3818SOL    HW223109   5.617   3.763   8.089 -0.2987  0.0290  0.1390
 3819SOL     OW23110   7.856   9.257   3.586  0.3054 -0.0461  0.1690
 3819SOL    HW123111   7.870   9.160   3.606  2.4094  0.5359  1.7144
 3819SOL    HW223112   7.801   9.298   3.658  0.5925  0.1956  0.2535
 3820SOL     OW23113   0.624   6.036   4.074 -0.5613 -0.1090 -0.0083
 3820SOL    HW123114   0.604   6.127   4.038 -1.5269 -0.9833 -1.7454
 3820SOL    HW223115   0.711   6.003   4.035  0.5791  0.6803  1.8161
 3821SOL     OW23116   0.152   6.053   1.622 -0.4573 -0.2957  0.3802
 3821SOL    HW123117   0.194   6.017   1.539 -0.8739 -0.4167  0.2193
 3821SOL    HW223118   0.216   6.114   1.668 -0.3245 -0.0140 -0.1740
 3822SOL     OW23119   5.058   0.457   0.993  0.4383 -0.0535 -0.1712
 3822SOL    HW123120   4.989   0.434   1.061  2.2898 -0.2315  1.6881
 3822SOL    HW223121   5.030   0.421   0.904 -2.9987  1.9002  0.0064
 3823SOL     OW23122   7.986   1.607   1.250 -0.5653 -0.3268 -0.3644
 3823SOL    HW123123   7.999   1.522   1.302 -0.2477 -0.0460  0.0108
 3823SOL    HW223124   8.039   1.680   1.292  0.2046 -0.2508 -1.4603
 3824SOL     OW23125   8.472   8.380   7.988  0.5566  0.1046  0.6872
 3824SOL    HW123126   8.407   8.304   7.983  0.3213  0.3975 -1.1226
 3824SOL    HW223127   8.544   8.367   7.919 -0.2415  2.1833 -0.6041
 3825SOL     OW23128   8.272   8.436   3.540 -0.4237  0.8890  0.2542
 3825SOL    HW123129   8.369   8.410   3.531 -0.6641  0.1924 -0.3944
 3825SOL    HW223130   8.246   8.492   3.462 -0.2222  2.1200  1.0571
 3826SOL     OW23131   9.748   7.187   3.902  0.7517 -0.5941 -0.7703
 3826SOL    HW123132   9.822   7.250   3.880  1.4221 -0.3812  1.8790
 3826SOL    HW223133   9.775   7.094   3.876  2.3503 -0.6478  0.9671
 3827SOL     OW23134   4.724   0.278   3.188  0.8824  0.7594 -0.3431
 3827SOL    HW123135   4.737   0.206   3.256  0.8822 -1.3720 -2.5386
 3827SOL    HW223136   4.656   0.344   3.222  0.2329 -0.7252  1.3303
 3828SOL     OW23137   0.587   0.520   2.312 -0.1620 -0.0372  0.2075
 3828SOL    HW123138   0.507   0.579   2.303 -0.3802 -0.0267  2.0830
 3828SOL    HW223139   0.568   0.431   2.271 -0.5863  0.4716 -0.7181
 3829SOL     OW23140   2.968   4.475   0.406 -0.2739 -0.7748  0.4034
 3829SOL    HW123141   2.884   4.508   0.451 -0.4959 -1.1876  0.2955
 3829SOL    HW223142   3.042   4.539   0.423 -1.0411  0.4969 -0.9510
 3830SOL     OW23143   1.082   3.225   6.989  0.2210 -0.0919 -0.4404
 3830SOL    HW123144   1.141   3.146   7.009  0.2357 -0.9871 -3.7895
 3830SOL    HW223145   1.011   3.231   7.059 -0.2012 -3.5231 -0.4513
 3831SOL     OW23146   8.668   2.129   4.556  0.5196  0.4175  0.1621
 3831SOL    HW123147   8.759   2.092   4.539  0.6154  0.7557 -0.0429
 3831SOL    HW223148   8.609   2.110   4.478 -0.0294 -1.1905  0.9239
 3832SOL     OW23149   5.398   1.459   7.018 -0.3136 -0.4977 -0.2296
 3832SOL    HW123150   5.350   1.545   7.039 -0.4290 -0.9374  1.4044
 3832SOL    HW223151   5.394   1.442   6.920 -0.7946  1.0739 -0.5029
 3833SOL     OW23152   0.919   8.324   5.786  0.1223  0.2127 -0.2802
 3833SOL    HW123153   0.959   8.305   5.696 -1.0016  1.4420 -1.0652
 3833SOL    HW223154   0.824   8.351   5.774  0.6473  2.7584  1.0499
 3834SOL     OW23155   4.048   4.100   5.023 -0.4412  0.0923  0.5345
 3834SOL    HW123156   3.964   4.154   5.011 -0.4877  0.5371  2.6118
 3834SOL    HW223157   4.062   4.083   5.120  1.0035 -1.4095  0.0751
 3835SOL     OW23158   1.840   0.101   0.157  0.0751  0.7663  0.2379
 3835SOL    HW123159   1.850   0.014   0.205 -0.5513  1.2557  1.2599
 3835SOL    HW223160   1.863   0.088   0.060 -1.0696 -0.7948  0.1486
 3836SOL     OW23161   9.997   1.335   3.149 -0.0383  0.0955 -0.1048
 3836SOL    HW123162  10.001   1.235   3.154 -0.0093 -0.0393 -2.1352
 3836SOL    HW223163   9.907   1.367   3.178 -0.1496 -0.5456  0.2575
 3837SOL     OW23164   1.406   2.670   3.815 -0.0149 -0.3580  0.3139
 3837SOL    HW123165   1.418   2.607   3.892  0.6998 -0.0641  0.4387
 3837SOL    HW223166   1.414   2.764   3.847  0.7995 -0.2476 -0.2187
 3838SOL     OW23167   4.590   0.212   5.219 -0.0091 -0.2368 -0.4368
 3838SOL    HW123168   4.642   0.131   5.244 -0.6541 -0.4848  0.1071
 3838SOL    HW223169   4.621   0.290   5.275 -1.9460 -0.9529  1.6910
 3839SOL     OW23170   9.936   5.748   7.477  0.3661 -0.8676  0.8186
 3839SOL    HW123171   9.898   5.830   7.432 -1.3397 -1.2018  1.6150
 3839SOL    HW223172   9.870   5.673   7.469  0.6668 -1.3288  2.6608
 3840SOL     OW23173   4.969   1.196   3.808 -0.0800  0.0137 -0.0143
 3840SOL    HW123174   5.038   1.125   3.795  1.4232  1.5018 -0.3516
 3840SOL    HW223175   4.978   1.265   3.736 -0.8739  1.0583  0.8648
 3841SOL     OW23176   5.767   3.759   1.654 -0.4018 -0.4649 -0.4438
 3841SOL    HW123177   5.796   3.756   1.750  0.1550 -1.4540 -0.6295
 3841SOL    HW223178   5.808   3.838   1.609  2.2657 -1.9551 -0.7546
 3842SOL     OW23179   5.933   7.362   4.614  0.2870 -0.1693 -0.1386
 3842SOL    HW123180   5.955   7.452   4.652  3.1865 -0.5811 -0.6593
 3842SOL    HW223181   5.838   7.360   4.585  0.4592  3.1358 -1.1664
 3843SOL     OW23182   3.680   5.042   7.470 -0.2583 -0.1746 -0.0401
 3843SOL    HW123183   3.678   4.974   7.396 -0.2666 -0.1285 -0.0828
 3843SOL    HW223184   3.587   5.065   7.497 -0.2544 -0.2189  0.0106
 3844SOL     OW23185   2.281   3.912   0.554  0.0803 -0.3437  0.7565
 3844SOL    HW123186   2.205   3.975   0.566  1.1515  0.9774  0.7110
 3844SOL    HW223187   2.248   3.828   0.511 -1.1357  0.6746 -0.3291
 3845SOL     OW23188   2.852   5.692   2.462  0.2527 -0.0136  0.7062
 3845SOL    HW123189   2.757   5.719   2.479 -0.1328  0.5931 -2.1605
 3845SOL    HW223190   2.914   5.747   2.517 -0.9870  0.6281  1.4591
 3846SOL     OW23191   9.257   0.574   7.223 -0.0638 -0.2036  0.0656
 3846SOL    HW123192   9.327   0.508   7.196 -0.5968 -0.0120 -1.8711
 3846SOL    HW223193   9.167   0.535   7.207 -0.3865  0.9169 -0.8950
 3847SOL     OW23194   9.159   3.097   7.133 -0.2647  0.4233 -0.1318
 3847SOL    HW123195   9.099   3.041   7.076 -0.4488  0.5969 -0.1086
 3847SOL    HW223196   9.149   3.193   7.108 -0.5005  0.5223  0.3309
 3848SOL     OW23197   8.931   0.671   1.794 -0.0603 -0.0229 -0.2282
 3848SOL    HW123198   8.911   0.628   1.706 -0.9469 -1.6720  0.7519
 3848SOL    HW223199   8.909   0.607   1.868  0.6680  1.3421  1.1930
 3849SOL     OW23200   8.839   5.262   2.041  0.1340 -0.3550  0.2968
 3849SOL    HW123201   8.926   5.227   2.077 -0.5895 -0.4799  1.9828
 3849SOL    HW223202   8.814   5.211   1.959  1.9197  0.0440 -0.5138
 3850SOL     OW23203   0.619   7.980   6.703 -0.8945  0.1968  0.5068
 3850SOL    HW123204   0.574   8.062   6.740 -1.4648  1.0977 -2.0724
 3850SOL    HW223205   0.605   7.976   6.604  1.0789 -1.8329  0.2644
 3851SOL     OW23206   6.668   9.667   6.532 -0.3885 -0.1555 -0.2579
 3851SOL    HW123207   6.694   9.764   6.527 -1.2532  0.2307  2.2129
 3851SOL    HW223208   6.588   9.652   6.474 -2.1404  1.3010  1.7124
 3852SOL     OW23209   6.261   6.605   1.109 -0.3342 -0.3622  0.8408
 3852SOL    HW123210   6.232   6.582   1.016 -1.6277  0.3828  1.0470
 3852SOL    HW223211   6.344   6.554   1.132  2.0096  2.0575 -1.9749
 3853SOL     OW23212   0.125   2.365   3.334  0.8536  0.5779  0.0647
 3853SOL    HW123213   0.185   2.415   3.271 -0.5787  2.5782  0.2301
 3853SOL    HW223214   0.117   2.417   3.419  0.5427 -0.7167  0.8274
 3854SOL     OW23215   6.226   5.216   0.268  0.0669 -0.0940  0.3382
 3854SOL    HW123216   6.323   5.198   0.254 -0.1863 -0.4128 -1.1138
 3854SOL    HW223217   6.180   5.132   0.297  0.3401  0.2215  1.6998
 3855SOL     OW23218   9.983   3.535   7.881 -0.2699 -0.2801 -0.1590
 3855SOL    HW123219   9.940   3.615   7.840  1.3604  0.8681  0.2987
 3855SOL    HW223220  10.023   3.478   7.810 -0.4677 -0.1079 -0.4070
 3856SOL     OW23221   7.958   2.592   1.782 -0.2743 -0.6365  0.0319
 3856SOL    HW123222   7.943   2.493   1.784  1.5432 -0.9391 -0.7866
 3856SOL    HW223223   7.938   2.626   1.690  1.9071 -0.7099 -0.4824
 3857SOL     OW23224   5.344   0.572   7.595  0.0769  0.1164 -0.4968
 3857SOL    HW123225   5.369   0.540   7.687 -0.3482 -0.0999 -0.4540
 3857SOL    HW223226   5.426   0.602   7.546  0.2892  0.3811  0.0105
 3858SOL     OW23227   2.435   7.128   6.259 -0.4659  0.0416 -0.4538
 3858SOL    HW123228   2.439   7.066   6.181 -0.6428  0.3658 -0.7179
 3858SOL    HW223229   2.396   7.216   6.231  0.2033  0.4286 -0.1786
 3859SOL     OW23230   2.777   2.907   5.021  0.2862  0.3637 -0.2024
 3859SOL    HW123231   2.753   2.957   5.104 -0.8243  0.8238 -0.7802
 3859SOL    HW223232   2.780   2.809   5.041 -1.2568  0.3602  0.1083
 3860SOL     OW23233   2.593   4.308   6.407 -0.1499 -0.0729  0.0551
 3860SOL    HW123234   2.553   4.225   6.367  0.5892 -0.4783  0.1377
 3860SOL    HW223235   2.530   4.346   6.474 -0.0095 -1.2246  0.8660
 3861SOL     OW23236   9.931   0.751   3.528 -0.5369 -0.2039  0.4605
 3861SOL    HW123237   9.978   0.772   3.614 -0.0117 -2.0988  0.6546
 3861SOL    HW223238   9.857   0.687   3.545  0.2769 -1.4602 -0.6494
 3862SOL     OW23239   2.048   8.769   0.979  0.4864  0.1965  0.3232
 3862SOL    HW123240   1.997   8.697   1.026  0.1680  0.1758 -0.0481
 3862SOL    HW223241   2.098   8.825   1.046  0.6989 -0.3416  0.6160
 3863SOL     OW23242   6.878   6.721   4.995 -0.4311  0.6048  0.1382
 3863SOL    HW123243   6.801   6.725   4.932 -0.0785 -0.7054 -0.4032
 3863SOL    HW223244   6.930   6.807   4.989 -0.8644  0.8156 -0.7525
 3864SOL     OW23245   5.603   0.392   2.832  0.2112  0.8368  0.1028
 3864SOL    HW123246   5.638   0.397   2.738 -0.7392 -1.4427 -0.3954
 3864SOL    HW223247   5.546   0.311   2.842 -1.5894  2.2923  2.0438
 3865SOL     OW23248   5.520   9.058   3.115 -0.0098 -0.3345  0.1703
 3865SOL    HW123249   5.584   8.981   3.113  1.7222  1.0583 -0.1284
 3865SOL    HW223250   5.440   9.034   3.170  0.3407 -2.4428 -0.1946
 3866SOL     OW23251   2.154   0.794   1.279  0.2174 -0.3979 -0.2284
 3866SOL    HW123252   2.118   0.827   1.367 -0.3901  0.1074 -0.6618
 3866SOL    HW223253   2.179   0.872   1.222  1.0742 -0.7353 -0.3203
 3867SOL     OW23254   9.631   4.824   3.510  0.9025 -0.5055 -0.1716
 3867SOL    HW123255   9.615   4.765   3.590 -0.2648  1.1942  0.8775
 3867SOL    HW223256   9.574   4.906   3.517  1.5013  0.1158 -2.2940
 3868SOL     OW23257   3.095   5.395   1.279  0.4985  0.3524 -0.2491
 3868SOL    HW123258   3.141   5.483   1.272 -2.3867  2.1373  1.8492
 3868SOL    HW223259   3.105   5.360   1.373 -1.6160  0.3725  0.0093
 3869SOL     OW23260   1.139   4.376   7.185  0.3059 -0.2087 -0.1122
 3869SOL    HW123261   1.151   4.400   7.089  0.7587 -0.3553 -0.0955
 3869SOL    HW223262   1.178   4.449   7.242 -0.6906  0.2646 -0.0269
 3870SOL     OW23263   7.523   1.027   7.898 -0.3893  0.0852  0.5927
 3870SOL    HW123264   7.551   0.964   7.825 -0.7103  0.7805 -0.1394
 3870SOL    HW223265   7.602   1.048   7.956 -0.0991 -0.3653  0.3666
 3871SOL     OW23266   7.721   7.641   2.931  1.3926  0.3570  0.4004
 3871SOL    HW123267   7.700   7.712   2.998 -1.3100  1.0858 -1.1620
 3871SOL    HW223268   7.766   7.683   2.852  0.7382  0.1747 -0.0700
 3872SOL     OW23269   0.429   0.069   1.071 -0.2035 -0.3678  0.1578
 3872SOL    HW123270   0.390  -0.023   1.069 -0.1054 -0.3954 -0.5497
 3872SOL    HW223271   0.471   0.085   1.161  0.9321 -1.4944 -0.1538
 3873SOL     OW23272   9.480   7.173   0.706  0.8533 -0.2319 -0.3215
 3873SOL    HW123273   9.517   7.213   0.622 -1.2312  1.6397 -0.3872
 3873SOL    HW223274   9.397   7.122   0.685  0.0739  0.6255  0.6585
 3874SOL     OW23275   2.400   8.713   2.261 -0.3443 -0.1165  0.2654
 3874SOL    HW123276   2.357   8.804   2.257 -1.3653 -0.5916  0.0826
 3874SOL    HW223277   2.329   8.644   2.275  0.5748 -0.7735  1.7703
 3875SOL     OW23278   8.877   9.590   7.903  0.0595 -0.6078 -0.3285
 3875SOL    HW123279   8.841   9.499   7.885  0.7271 -0.5479 -2.0588
 3875SOL    HW223280   8.963   9.603   7.853 -0.2992  1.1534 -0.5301
 3876SOL     OW23281   2.447   6.735   6.591  0.3538  0.3911 -0.4105
 3876SOL    HW123282   2.399   6.651   6.562  1.4587 -0.2732 -0.3303
 3876SOL    HW223283   2.411   6.813   6.539  1.3279 -0.5782 -2.5864
 3877SOL     OW23284   9.126   0.241   1.852 -0.4100  0.2538 -0.1027
 3877SOL    HW123285   9.053   0.270   1.791 -1.4851  1.3469  1.6797
 3877SOL    HW223286   9.110   0.146   1.881 -1.1781  0.5343  0.3818
 3878SOL     OW23287   3.485   4.941   0.657 -0.0529 -0.1547  0.3093
 3878SOL    HW123288   3.436   4.879   0.595 -1.1828  0.3289  0.7053
 3878SOL    HW223289   3.581   4.948   0.628 -0.5160 -0.1069 -1.2665
 3879SOL     OW23290   1.330   7.608   0.038 -0.5490 -0.2230  0.2025
 3879SOL    HW123291   1.337   7.520  -0.011 -1.5738 -0.4835  0.5092
 3879SOL    HW223292   1.236   7.622   0.067 -0.6791  1.6692 -1.0968
 3880SOL     OW23293   4.199   8.217   5.781  0.6494  0.4455 -0.5458
 3880SOL    HW123294   4.233   8.125   5.759  0.2496  0.5800 -1.7788
 3880SOL    HW223295   4.276   8.280   5.786  0.9993 -0.0814  1.0054
 3881SOL     OW23296   3.038   4.178   4.985  0.0491 -0.1869  0.4840
 3881SOL    HW123297   3.102   4.255   4.974 -0.9560  0.4846 -0.7971
 3881SOL    HW223298   3.078   4.095   4.947  0.6309 -0.0279  0.7443
 3882SOL     OW23299   0.627   9.250   7.951 -0.0004  0.0415  0.3140
 3882SOL    HW123300   0.672   9.328   7.994 -0.2455  1.4173 -1.8983
 3882SOL    HW223301   0.691   9.173   7.949  0.9082  0.7662  0.7583
 3883SOL     OW23302   8.166   7.894   1.236  0.1686  0.4112  0.1768
 3883SOL    HW123303   8.247   7.943   1.267  0.0262 -1.0220  2.9874
 3883SOL    HW223304   8.177   7.868   1.140  3.0627  0.2255  0.5141
 3884SOL     OW23305   8.063   2.397   4.264  0.3514 -0.2190 -0.4110
 3884SOL    HW123306   8.005   2.318   4.243 -0.1046  0.0091 -0.0241
 3884SOL    HW223307   8.005   2.478   4.279  0.7717  0.0224 -0.0804
 3885SOL     OW23308   5.745   7.174   1.638  0.0397 -0.3155 -0.1247
 3885SOL    HW123309   5.651   7.205   1.648  0.0859 -0.1450 -0.2064
 3885SOL    HW223310   5.748   7.074   1.641 -0.2690 -0.3623 -1.0982
 3886SOL     OW23311   7.738   2.256   5.592 -0.3100  0.1144 -0.5562
 3886SOL    HW123312   7.828   2.247   5.634 -0.0682  2.4240 -0.5161
 3886SOL    HW223313   7.749   2.268   5.493 -0.6723 -1.3063 -0.7740
 3887SOL     OW23314   0.412   9.354   5.865  0.2150 -0.2800  0.4274
 3887SOL    HW123315   0.341   9.405   5.914 -0.2398  0.6572 -1.1922
 3887SOL    HW223316   0.425   9.265   5.909 -0.1986  0.5272  2.2342
 3888SOL     OW23317   9.345   5.018   6.440 -0.4339  0.3478 -0.0774
 3888SOL    HW123318   9.362   5.072   6.357  2.7911  0.7766  0.7971
 3888SOL    HW223319   9.407   5.048   6.512 -0.0529 -3.0907  1.1053
 3889SOL     OW23320   0.902   1.942   4.201 -0.1206  0.1003 -0.3446
 3889SOL    HW123321   0.821   1.949   4.143  0.5361 -1.0213 -1.4242
 3889SOL    HW223322   0.874   1.921   4.295 -1.0861 -0.1953 -0.6879
 3890SOL     OW23323   9.946   5.793   4.619  0.4136  0.0460 -0.0713
 3890SOL    HW123324   9.877   5.743   4.672 -1.9630  2.1892 -1.0058
 3890SOL    HW223325   9.990   5.860   4.678 -1.5796  1.7975 -0.4998
 3891SOL     OW23326   3.566   0.334   3.409 -0.1017  0.9511  0.1068
 3891SOL    HW123327   3.569   0.243   3.452 -0.5098  1.0248  0.2891
 3891SOL    HW223328   3.517   0.328   3.322  1.7600  0.5564 -0.9481
 3892SOL     OW23329   7.914   5.410   8.077 -0.2478  0.5100  0.2818
 3892SOL    HW123330   7.963   5.408   8.164 -0.6206  3.7687  0.6039
 3892SOL    HW223331   7.978   5.426   8.002  0.3094 -3.8935 -0.3105
 3893SOL     OW23332   3.461   6.150   2.906 -0.1127  0.6954 -0.0042
 3893SOL    HW123333   3.531   6.155   2.835  0.0175  1.5673  0.1798
 3893SOL    HW223334   3.493   6.093   2.981 -0.8473 -1.4647 -1.3127
 3894SOL     OW23335   3.745   3.250   1.638  0.2486  0.2663  0.1029
 3894SOL    HW123336   3.722   3.185   1.711 -0.5418  0.7629  0.2957
 3894SOL    HW223337   3.751   3.342   1.675  1.0762  0.3549 -0.2313
 3895SOL     OW23338   2.052   4.277   7.850  0.4131 -0.9888  0.7139
 3895SOL    HW123339   1.985   4.304   7.918 -0.5324  0.2131 -0.6471
 3895SOL    HW223340   2.124   4.347   7.846 -0.0919 -0.5023 -0.2265
 3896SOL     OW23341   8.193   8.106   0.750  0.0663  0.4771  0.0621
 3896SOL    HW123342   8.202   8.204   0.731  0.6215  0.7423  1.5658
 3896SOL    HW223343   8.283   8.063   0.747  0.0975  0.4160  1.3906
 3897SOL     OW23344   3.153   3.159   7.501 -1.2049  0.0064  0.1265
 3897SOL    HW123345   3.114   3.245   7.532 -0.1335  0.3885  0.4415
 3897SOL    HW223346   3.203   3.116   7.577  0.8157  0.5878 -0.8375
 3898SOL     OW23347   1.894   3.997   7.783 -0.1341 -0.0854 -0.0130
 3898SOL    HW123348   1.988   3.994   7.816  0.1713 -0.2903 -0.8712
 3898SOL    HW223349   1.834   3.946   7.845  0.2491  0.3912  0.7501
 3899SOL     OW23350   1.349   5.559   2.458 -0.4601  0.2461 -0.2623
 3899SOL    HW123351   1.440   5.595   2.478 -1.4422  2.6240  0.0307
 3899SOL    HW223352   1.323   5.494   2.530  0.1435  1.1334  0.7693
 3900SOL     OW23353   6.775   7.885   3.894 -0.2861  0.2230  0.6787
 3900SOL    HW123354   6.720   7.940   3.957  2.0748  0.6856  2.3982
 3900SOL    HW223355   6.720   7.860   3.815 -2.9189  0.7949  2.2729
 3901SOL     OW23356   2.626   7.132   2.668 -0.1681  0.2530 -0.2160
 3901SOL    HW123357   2.684   7.056   2.642 -0.2231  0.1786 -0.1206
 3901SOL    HW223358   2.651   7.213   2.614  1.4261  0.7841  1.2582
 3902SOL     OW23359   5.722   1.152   6.096  0.2842  0.4746  0.2095
 3902SOL    HW123360   5.781   1.196   6.028  1.1696 -1.6553 -0.4596
 3902SOL    HW223361   5.710   1.213   6.174  0.9192  2.1432 -0.9597
 3903SOL     OW23362   7.872   5.031   5.805 -0.4405 -0.2737  0.4548
 3903SOL    HW123363   7.808   5.046   5.881 -0.1773 -1.0625  0.8387
 3903SOL    HW223364   7.852   4.943   5.762  0.8212 -0.8620  1.0233
 3904SOL     OW23365   9.759   2.217   3.531  0.1903 -0.0617 -0.0220
 3904SOL    HW123366   9.803   2.127   3.533 -0.0533 -0.1523  1.6531
 3904SOL    HW223367   9.818   2.283   3.577  0.4013  0.6620 -1.3144
 3905SOL     OW23368   2.040   4.843   4.514 -0.2116  0.1051  0.2193
 3905SOL    HW123369   2.132   4.861   4.549  0.1087  1.7964 -1.3688
 3905SOL    HW223370   2.041   4.764   4.452  0.5893  1.2611 -1.2867
 3906SOL     OW23371   6.201   8.609   3.160  0.1329  0.3523  0.0515
 3906SOL    HW123372   6.253   8.675   3.216  1.8069  0.2825 -1.3977
 3906SOL    HW223373   6.253   8.524   3.151 -0.6428 -0.0544 -0.6641
 3907SOL     OW23374   1.223   5.821   7.989 -0.1775 -0.2162 -0.3243
 3907SOL    HW123375   1.269   5.865   7.912 -0.8010 -0.5394 -0.8833
 3907SOL    HW223376   1.127   5.806   7.967 -0.9493  1.8897  1.4289
 3908SOL     OW23377   7.413   0.057   3.132 -0.1624 -0.0362  0.4944
 3908SOL    HW123378   7.335   0.018   3.083  0.0515 -0.8190  0.7709
 3908SOL    HW223379   7.385   0.078   3.226  0.0604 -0.6891  0.7127
 3909SOL     OW23380   1.792   0.363   4.895  0.2246 -0.3314 -0.6377
 3909SOL    HW123381   1.753   0.271   4.901  1.2918 -0.7597 -0.0719
 3909SOL    HW223382   1.866   0.372   4.962 -1.4211  1.7357  0.9426
 3910SOL     OW23383   3.421   3.018   3.353 -0.2363 -0.4121  0.9520
 3910SOL    HW123384   3.391   2.984   3.264  1.1514 -0.4078  0.4719
 3910SOL    HW223385   3.381   2.962   3.425  0.6678 -2.0341  0.2343
 3911SOL     OW23386   3.713   3.757   7.275  0.1976 -0.3675 -0.1870
 3911SOL    HW123387   3.648   3.759   7.351  1.1623 -0.5203  0.6472
 3911SOL    HW223388   3.673   3.706   7.199 -0.3090 -1.2417  0.6505
 3912SOL     OW23389   0.698   9.777   2.402 -0.7836  0.6748  0.0037
 3912SOL    HW123390   0.712   9.688   2.359  2.6678  1.0791  0.1255
 3912SOL    HW223391   0.639   9.833   2.344 -1.1685 -0.9198 -1.1679
 3913SOL     OW23392   3.349   2.308   2.924 -0.0552 -0.5164  0.3671
 3913SOL    HW123393   3.395   2.220   2.937  0.7410 -0.0027  1.0651
 3913SOL    HW223394   3.349   2.359   3.010 -0.6707  0.0914  0.0104
 3914SOL     OW23395   2.157   5.881   0.975  0.8429 -0.6290 -0.2215
 3914SOL    HW123396   2.079   5.933   1.009  0.1433 -2.0703  0.4091
 3914SOL    HW223397   2.242   5.925   1.004  0.2545 -1.0492  2.2418
 3915SOL     OW23398   7.494   9.053   5.470  0.0394 -0.3322 -0.6547
 3915SOL    HW123399   7.509   8.954   5.474 -1.7378 -0.5705  0.8373
 3915SOL    HW223400   7.530   9.096   5.552  0.0716  0.1483 -0.9209
 3916SOL     OW23401   3.828   6.256   7.720  0.3753 -0.0833  0.1880
 3916SOL    HW123402   3.763   6.219   7.654  0.7389 -0.2196 -0.0924
 3916SOL    HW223403   3.784   6.329   7.773 -0.1388 -0.4601  0.2898
 3917SOL     OW23404   7.466   8.918   4.458 -0.2072  0.5548  0.4804
 3917SOL    HW123405   7.557   8.875   4.460 -1.7088 -2.7881  0.6338
 3917SOL    HW223406   7.437   8.938   4.552  0.1781  1.2212  0.4596
 3918SOL     OW23407   1.452   6.309   8.049 -0.1432  0.5879 -0.0470
 3918SOL    HW123408   1.546   6.343   8.044 -0.6148  1.6255 -2.6411
 3918SOL    HW223409   1.403   6.335   7.966 -2.4728 -0.7257  0.8800
 3919SOL     OW23410   5.835   2.238   4.491 -0.0030  1.1505 -0.5967
 3919SOL    HW123411   5.922   2.282   4.513  0.6610 -0.0445 -0.7848
 3919SOL    HW223412   5.835   2.212   4.395  0.8389 -1.9602  0.2036
 3920SOL     OW23413   6.509   4.544   1.451 -0.3402  0.1458  0.0234
 3920SOL    HW123414   6.562   4.597   1.385 -0.7256  0.9853  0.3885
 3920SOL    HW223415   6.564   4.467   1.484  0.5398  0.8250  0.1475
 3921SOL     OW23416   6.079   3.589   1.769  0.3654  0.3438 -0.8631
 3921SOL    HW123417   6.001   3.569   1.828  1.6799 -0.5456  0.6305
 3921SOL    HW223418   6.113   3.504   1.729  1.9857  0.3877  0.3524
 3922SOL     OW23419   3.700   0.637   2.651  0.0522 -0.4466 -0.2978
 3922SOL    HW123420   3.637   0.702   2.610  1.0447  1.4947  1.1890
 3922SOL    HW223421   3.649   0.561   2.691 -1.2953  0.6641  0.1168
 3923SOL     OW23422   0.753   4.589   4.846 -0.1684  0.7534 -0.1932
 3923SOL    HW123423   0.781   4.683   4.830 -0.0840  0.6355 -0.7501
 3923SOL    HW223424   0.816   4.527   4.799  0.1098  0.3968  0.6409
 3924SOL     OW23425   1.818   9.146   0.243 -1.0048  0.1878  0.0144
 3924SOL    HW123426   1.900   9.150   0.186 -0.7496  1.5577  0.4429
 3924SOL    HW223427   1.844   9.153   0.339 -1.7066  2.2026  0.0830
 3925SOL     OW23428   3.377   0.400   2.385 -0.1397  0.3707 -0.0184
 3925SOL    HW123429   3.386   0.388   2.286  0.5201 -3.2220  0.4007
 3925SOL    HW223430   3.304   0.342   2.419  0.9549  0.0477  1.8516
 3926SOL     OW23431   8.964   0.395   0.865 -0.1612 -0.3629 -0.1345
 3926SOL    HW123432   8.959   0.361   0.772  0.0565  0.7778 -0.5744
 3926SOL    HW223433   8.878   0.374   0.913 -0.9546  0.5278 -1.1222
 3927SOL     OW23434   0.662   7.462   6.218 -0.1688 -0.1917 -0.1142
 3927SOL    HW123435   0.577   7.504   6.249 -0.1240 -0.8615  0.9371
 3927SOL    HW223436   0.739   7.504   6.265  0.0840  0.3333 -0.9780
 3928SOL     OW23437   4.877   1.264   7.285 -0.3237 -0.2451  0.4478
 3928SOL    HW123438   4.852   1.313   7.202 -1.3450  0.5657  1.2174
 3928SOL    HW223439   4.977   1.262   7.294 -0.2623  1.9109  0.5035
 3929SOL     OW23440   5.303   5.494   1.967 -0.7811  0.4432 -0.1128
 3929SOL    HW123441   5.370   5.440   2.018 -1.8747 -1.1288 -0.2999
 3929SOL    HW223442   5.323   5.487   1.869 -0.0039  1.6609 -0.0555
 3930SOL     OW23443   0.406   6.807   0.590  0.0708 -0.3995 -0.0027
 3930SOL    HW123444   0.354   6.889   0.567 -0.9461 -0.5055  1.8287
 3930SOL    HW223445   0.356   6.726   0.561 -0.6990 -0.4884  1.4867
 3931SOL     OW23446   8.018   4.419   3.971 -0.7323  0.4011 -0.6939
 3931SOL    HW123447   8.047   4.445   3.878  1.7790  1.0217  0.2177
 3931SOL    HW223448   8.041   4.493   4.035  0.7471 -1.4214  0.9500
 3932SOL     OW23449   0.381   8.469   7.182  0.1118  0.3909  0.2215
 3932SOL    HW123450   0.393   8.514   7.094 -3.7947  0.7625 -0.1798
 3932SOL    HW223451   0.318   8.522   7.239  1.3994 -0.6400  2.6751
 3933SOL     OW23452   5.414   5.138   8.047  0.1468 -0.3548 -0.3881
 3933SOL    HW123453   5.400   5.058   7.989 -0.0112  1.1609 -2.4835
 3933SOL    HW223454   5.388   5.116   8.141 -1.4077 -2.2845 -1.2351
 3934SOL     OW23455   3.683   5.385   6.494 -0.3480  0.0885  0.7821
 3934SOL    HW123456   3.740   5.467   6.484  2.7690 -1.9067  1.5327
 3934SOL    HW223457   3.672   5.363   6.591 -0.5790 -0.7965  0.5606
 3935SOL     OW23458   2.319   8.231   4.128  0.0212  0.1947 -0.2107
 3935SOL    HW123459   2.265   8.185   4.198  0.4364 -1.0476 -0.7012
 3935SOL    HW223460   2.416   8.221   4.148  0.1449 -0.2369 -1.0058
 3936SOL     OW23461   2.245   2.700   5.455  0.1724  0.5396 -0.1870
 3936SOL    HW123462   2.185   2.648   5.515  0.8538 -0.0954 -0.0460
 3936SOL    HW223463   2.314   2.639   5.415  1.0833  1.3587  0.1162
 3937SOL     OW23464   2.177   8.171   2.889 -0.3538  0.2420 -0.0515
 3937SOL    HW123465   2.095   8.224   2.867  1.0183  1.5533 -2.1557
 3937SOL    HW223466   2.259   8.227   2.873  0.9930 -1.1124  1.7782
 3938SOL     OW23467   1.603   6.562   4.785 -0.7164  0.5564 -0.1852
 3938SOL    HW123468   1.695   6.538   4.814 -0.6496  1.0421  0.0149
 3938SOL    HW223469   1.556   6.481   4.750  0.3016  0.5940 -1.7027
 3939SOL     OW23470   2.765   5.891   4.913  0.4020  0.2135  0.2633
 3939SOL    HW123471   2.690   5.842   4.867  0.7280  0.5975 -0.6866
 3939SOL    HW223472   2.745   5.989   4.914  1.0596  0.3555 -0.3095
 3940SOL     OW23473   5.195   7.357   2.522  0.4472 -0.2861  0.4199
 3940SOL    HW123474   5.261   7.371   2.596  1.6173 -1.0350 -0.4644
 3940SOL    HW223475   5.228   7.284   2.462 -1.0892 -0.5136 -0.1550
 3941SOL     OW23476   7.998   9.639   2.768 -0.6811  0.8024  0.3656
 3941SOL    HW123477   8.010   9.651   2.867  0.5668 -0.1162  0.3310
 3941SOL    HW223478   7.966   9.726   2.729  0.0804  1.5594  1.3720
 3942SOL     OW23479   4.785   8.247   2.931  0.4105  0.5573 -0.3435
 3942SOL    HW123480   4.778   8.342   2.960 -0.4428  0.0420  1.1916
 3942SOL    HW223481   4.877   8.229   2.895  1.1521  1.5028  1.0444
 3943SOL     OW23482   2.689   0.085   0.667  0.5300 -0.5516  0.1506
 3943SOL    HW123483   2.760   0.020   0.696  0.1287 -1.1930 -0.2854
 3943SOL    HW223484   2.637   0.115   0.747  1.2335 -0.1473  0.4598
 3944SOL     OW23485   2.578   5.923   5.906 -0.4747 -0.0944  0.2029
 3944SOL    HW123486   2.665   5.909   5.859 -0.2364  0.2254  0.5399
 3944SOL    HW223487   2.586   5.891   6.001 -0.9531 -0.7482  0.0293
 3945SOL     OW23488   1.506   4.450   2.597 -0.5392  0.6996 -0.1476
 3945SOL    HW123489   1.418   4.447   2.643 -0.0434 -0.1936  0.7625
 3945SOL    HW223490   1.521   4.365   2.547  0.7840 -0.1382  1.5905
 3946SOL     OW23491   4.300   4.664   7.930 -0.8644  0.5668 -0.0673
 3946SOL    HW123492   4.202   4.671   7.945 -0.7717  1.3572  0.2053
 3946SOL    HW223493   4.318   4.644   7.834 -1.3280 -0.5730  0.0824
 3947SOL     OW23494   0.515   2.585   2.516 -0.2626 -0.4325  0.3933
 3947SOL    HW123495   0.423   2.610   2.547 -0.7224 -1.3728 -0.1825
 3947SOL    HW223496   0.533   2.628   2.428  0.3455  0.7758  1.0977
 3948SOL     OW23497   1.292   4.106   7.491  0.0516  0.2442  0.3394
 3948SOL    HW123498   1.382   4.095   7.448  0.1251 -1.2055  0.8416
 3948SOL    HW223499   1.304   4.123   7.589 -0.1677  1.9800  0.0749
 3949SOL     OW23500   2.742   9.110   3.802  1.0279 -0.2032  0.0576
 3949SOL    HW123501   2.716   9.205   3.817 -1.9079 -0.9783  0.2306
 3949SOL    HW223502   2.762   9.095   3.706  1.1471  0.4953 -0.0296
 3950SOL     OW23503   9.289   5.590   2.636  0.3039 -0.2188  0.8022
 3950SOL    HW123504   9.342   5.674   2.641 -0.4141  0.3021 -0.2202
 3950SOL    HW223505   9.201   5.603   2.681 -0.8944  0.4389 -1.6377
 3951SOL     OW23506   8.332   5.494   4.519  0.2948  0.7198 -0.1510
 3951SOL    HW123507   8.415   5.545   4.496  0.1103  1.2085  0.2538
 3951SOL    HW223508   8.258   5.558   4.540 -1.0897  0.3518 -3.5463
 3952SOL     OW23509   3.377   3.012   2.327 -0.0817 -0.2740  0.0916
 3952SOL    HW123510   3.393   2.918   2.296 -1.0260 -0.5185  0.3166
 3952SOL    HW223511   3.323   3.010   2.411 -1.1709  0.5108 -0.5738
 3953SOL     OW23512   8.428   7.830   0.973 -0.1115  0.1204 -0.0774
 3953SOL    HW123513   8.466   7.816   0.881 -0.0756  1.1921 -0.2326
 3953SOL    HW223514   8.446   7.750   1.029  1.9717  0.3924 -0.3057
 3954SOL     OW23515   4.966   7.610   1.834  0.1675  0.4238  0.0858
 3954SOL    HW123516   4.934   7.671   1.761  0.1473  0.8974  0.4877
 3954SOL    HW223517   4.908   7.621   1.915 -0.8176 -1.2750 -0.3559
 3955SOL     OW23518   0.100   9.560   6.608 -0.1803  0.0171 -0.1657
 3955SOL    HW123519   0.088   9.652   6.570  0.7644 -0.8464 -2.6657
 3955SOL    HW223520   0.014   9.511   6.605 -0.6279  0.7284  0.9305
 3956SOL     OW23521   1.490   7.806   2.613 -0.4417  0.3538 -0.1484
 3956SOL    HW123522   1.409   7.803   2.672  1.4819 -0.8216  2.5185
 3956SOL    HW223523   1.554   7.874   2.647  1.4088 -1.4679  0.1261
 3957SOL     OW23524   9.759   0.827   0.972 -0.2686 -0.7222  0.1464
 3957SOL    HW123525   9.802   0.753   0.922 -0.7774 -1.9596  1.5139
 3957SOL    HW223526   9.813   0.851   1.053 -0.3782  0.0309  0.0073
 3958SOL     OW23527   0.363   0.838   2.717  0.1852  0.8716  0.0562
 3958SOL    HW123528   0.372   0.801   2.809 -0.9277  0.8024  0.1378
 3958SOL    HW223529   0.454   0.858   2.681  0.7864 -1.4299  0.2053
 3959SOL     OW23530   3.876   0.513   2.994 -0.2239 -0.7145  0.4175
 3959SOL    HW123531   3.869   0.515   3.094 -0.2563  0.1199  0.3991
 3959SOL    HW223532   3.814   0.582   2.955 -1.1854 -1.9230 -0.2319
 3960SOL     OW23533   7.695   0.669   7.262 -0.5372  0.0656  0.1196
 3960SOL    HW123534   7.745   0.636   7.182 -0.2728 -0.7997  0.6381
 3960SOL    HW223535   7.647   0.754   7.239 -1.3494 -0.7581 -1.2668
 3961SOL     OW23536   2.727   9.298   7.799  0.5489  0.6688  0.1104
 3961SOL    HW123537   2.824   9.320   7.804  0.6666  0.5829 -1.4443
 3961SOL    HW223538   2.676   9.354   7.863  1.5183  1.3898  0.2483
 3962SOL     OW23539   5.682   9.745   4.962  0.2489 -0.0598 -0.4512
 3962SOL    HW123540   5.781   9.738   4.952  0.1161  0.3114 -2.1292
 3962SOL    HW223541   5.653   9.695   5.044  1.7633 -0.5507 -0.2054
 3963SOL     OW23542   8.785   1.461   0.150  0.0104 -0.4152  1.0762
 3963SOL    HW123543   8.814   1.409   0.230  3.0110  1.1606  1.0705
 3963SOL    HW223544   8.806   1.558   0.163 -0.0331 -0.0379 -1.3439
 3964SOL     OW23545   0.164   1.802   3.399  0.9538  0.0295  0.0710
 3964SOL    HW123546   0.106   1.823   3.320 -1.3856 -0.4667  1.5936
 3964SOL    HW223547   0.227   1.728   3.375  0.8160  0.3988 -1.5401
 3965SOL     OW23548   3.827   1.247   4.555 -0.1346 -0.5693 -0.0822
 3965SOL    HW123549   3.886   1.295   4.491  1.0126 -1.1256  0.5245
 3965SOL    HW223550   3.776   1.175   4.507  2.0218 -2.1402 -0.0971
 3966SOL     OW23551   2.646   5.763   2.079  0.0647  0.3088  0.3309
 3966SOL    HW123552   2.703   5.769   1.997 -1.2514  0.8370 -0.5735
 3966SOL    HW223553   2.663   5.841   2.138 -2.0997  2.2813 -1.5377
 3967SOL     OW23554   7.770   3.281   6.149 -0.4852 -0.4561  0.0957
 3967SOL    HW123555   7.777   3.258   6.246 -0.9341  1.2731  0.5596
 3967SOL    HW223556   7.853   3.327   6.119 -0.8470  0.1667  0.0139
 3968SOL     OW23557   7.319   1.384   3.787 -0.2615  0.0619 -0.1128
 3968SOL    HW123558   7.406   1.427   3.810 -1.5218  2.1706  0.8215
 3968SOL    HW223559   7.325   1.286   3.806  1.8332  0.2013  0.1178
 3969SOL     OW23560   5.006   9.316   3.807 -0.1716 -0.1144 -0.3609
 3969SOL    HW123561   5.043   9.302   3.715  0.4134 -0.5835 -0.0553
 3969SOL    HW223562   5.069   9.277   3.875 -0.5116  0.3836  0.2496
 3970SOL     OW23563   8.168   2.047   3.319 -0.0439  0.4179  0.0880
 3970SOL    HW123564   8.098   1.975   3.318  1.6914 -1.2978 -1.3254
 3970SOL    HW223565   8.176   2.085   3.411 -1.9933 -0.1581  0.5306
 3971SOL     OW23566   9.395   6.298   7.570 -0.0875  0.2493 -0.2493
 3971SOL    HW123567   9.399   6.201   7.596 -1.0365  0.8056  2.1492
 3971SOL    HW223568   9.311   6.338   7.608  0.3926  2.0479 -1.0832
 3972SOL     OW23569   7.489   2.748   0.540 -0.2255 -0.0413 -0.0604
 3972SOL    HW123570   7.423   2.823   0.542 -0.1042  0.1079 -1.2390
 3972SOL    HW223571   7.546   2.756   0.458  1.1111 -0.2935  0.8376
 3973SOL     OW23572   7.626   5.859   4.337  0.3762  0.2109  0.2246
 3973SOL    HW123573   7.562   5.924   4.378 -1.0108 -0.1745 -1.3083
 3973SOL    HW223574   7.719   5.881   4.368 -0.2880  1.7782  1.1870
 3974SOL     OW23575   2.263   6.291   0.380  0.3645  0.1328 -0.2754
 3974SOL    HW123576   2.285   6.376   0.427 -1.9532  0.6367 -0.0217
 3974SOL    HW223577   2.164   6.284   0.369  0.5319 -2.4629 -0.4419
 3975SOL     OW23578   9.306   0.632   1.370  0.0161  0.3627 -0.1894
 3975SOL    HW123579   9.282   0.690   1.448 -0.6076  0.0450 -0.1372
 3975SOL    HW223580   9.286   0.681   1.285 -1.6544 -0.2048 -0.1520
 3976SOL     OW23581   8.584   2.603   3.930 -0.0715 -0.4648  0.0665
 3976SOL    HW123582   8.678   2.578   3.906 -0.0332  0.7267 -1.0874
 3976SOL    HW223583   8.585   2.660   4.012  0.3077  0.4486 -0.5695
 3977SOL     OW23584   7.251   3.295   2.111  0.0079 -0.1453 -0.0694
 3977SOL    HW123585   7.343   3.262   2.091 -0.0639 -0.5715  0.2786
 3977SOL    HW223586   7.188   3.263   2.041  0.0144 -0.3873  0.0345
 3978SOL     OW23587   5.656   3.817   0.305  0.2476  0.2617 -0.0913
 3978SOL    HW123588   5.601   3.898   0.327 -0.6553 -0.5082  0.5317
 3978SOL    HW223589   5.660   3.757   0.385  2.0453  0.3191 -0.1055
 3979SOL     OW23590   0.395   3.409   3.832 -0.0138  0.2366 -0.0896
 3979SOL    HW123591   0.488   3.395   3.799 -0.4786 -0.5936 -1.0651
 3979SOL    HW223592   0.376   3.344   3.905 -0.3422 -0.6318 -0.9386
 3980SOL     OW23593   2.590   3.181   3.254  0.7333  0.2692 -0.5472
 3980SOL    HW123594   2.655   3.257   3.258 -1.4867  2.2231 -0.3529
 3980SOL    HW223595   2.604   3.130   3.170  2.2840  0.8691 -0.6719
 3981SOL     OW23596   3.520   2.792   7.761  0.4657  0.0494  0.3072
 3981SOL    HW123597   3.482   2.708   7.722 -1.5666  0.9192  0.3381
 3981SOL    HW223598   3.470   2.815   7.845  0.7878  1.4465  0.1250
 3982SOL     OW23599   8.950   6.338   2.210 -0.3881 -0.0030  0.3687
 3982SOL    HW123600   9.018   6.380   2.271  0.8484 -0.8849 -0.3623
 3982SOL    HW223601   8.976   6.356   2.115 -1.1637 -0.3814  0.0852
 3983SOL     OW23602   0.122   3.912   4.290  0.1338  0.4055 -0.0183
 3983SOL    HW123603   0.094   3.877   4.380  0.1668  2.3205  0.7623
 3983SOL    HW223604   0.157   4.005   4.300  0.8688  0.3510 -1.9209
 3984SOL     OW23605   3.902   0.192   3.362 -0.9685 -0.4038  0.2949
 3984SOL    HW123606   3.855   0.236   3.285 -0.8637 -1.3814 -0.3382
 3984SOL    HW223607   3.837   0.175   3.436 -1.0751  0.5295  0.4196
 3985SOL     OW23608   0.937   9.247   0.537 -0.1448  0.4082 -0.7464
 3985SOL    HW123609   0.932   9.313   0.612 -2.4645  2.4318 -2.5809
 3985SOL    HW223610   1.021   9.193   0.545  0.7722  2.1417  1.9747
 3986SOL     OW23611   1.328   9.688   2.931 -0.4861  0.4657 -0.4547
 3986SOL    HW123612   1.383   9.749   2.874 -1.4936  1.9577  0.1749
 3986SOL    HW223613   1.297   9.736   3.013 -1.3778 -0.8534  0.0028
 3987SOL     OW23614   3.694   1.023   1.554  0.7803  0.0699 -0.2206
 3987SOL    HW123615   3.676   1.095   1.622 -1.1739 -1.2093  0.6569
 3987SOL    HW223616   3.660   1.053   1.465 -1.6903 -0.4457  0.4989
 3988SOL     OW23617   1.688   3.428   2.213  0.3681 -0.3901 -0.1405
 3988SOL    HW123618   1.662   3.517   2.176 -0.8609 -0.4407  0.5918
 3988SOL    HW223619   1.755   3.385   2.152  2.5745  1.9181  0.5613
 3989SOL     OW23620   1.794   6.231   2.556 -0.1898 -0.0456 -0.1798
 3989SOL    HW123621   1.832   6.179   2.479 -1.0682 -0.2042 -0.5033
 3989SOL    HW223622   1.752   6.169   2.622 -0.4014  0.1781 -0.1008
 3990SOL     OW23623   1.690   0.750   6.502  0.1721 -0.1020 -0.3056
 3990SOL    HW123624   1.747   0.797   6.434 -0.1887  0.7440 -0.0297
 3990SOL    HW223625   1.687   0.805   6.586 -0.4220 -0.5258 -0.0490
 3991SOL     OW23626   3.164   6.553   1.747 -0.2812  0.3293 -0.2214
 3991SOL    HW123627   3.213   6.591   1.825 -0.1772  0.5004 -0.3686
 3991SOL    HW223628   3.223   6.557   1.666 -0.5973  0.6930 -0.4354
 3992SOL     OW23629   4.599   9.475   4.465 -0.0188 -0.0847  0.3679
 3992SOL    HW123630   4.551   9.480   4.553  1.0911 -1.2533  1.0648
 3992SOL    HW223631   4.612   9.567   4.429 -1.7604  0.3079  0.7249
 3993SOL     OW23632   9.822   9.427   3.707  0.6877 -0.0164  0.2687
 3993SOL    HW123633   9.909   9.411   3.662  0.5264  0.4647 -0.2259
 3993SOL    HW223634   9.831   9.409   3.805  1.3250 -0.0323  0.2090
 3994SOL     OW23635   4.676   2.028   4.251 -0.5200 -0.4030 -0.0653
 3994SOL    HW123636   4.703   1.932   4.256  0.3384 -0.0761  1.7740
 3994SOL    HW223637   4.715   2.070   4.168  0.5912 -1.1826  0.0578
 3995SOL     OW23638   2.131   6.117   1.278  0.3392  0.6452 -0.8320
 3995SOL    HW123639   2.177   6.162   1.202  2.2927  0.4590  0.2271
 3995SOL    HW223640   2.196   6.061   1.329 -1.0511  0.3935  0.7138
 3996SOL     OW23641   3.208   0.927   5.436 -0.7545 -0.0385 -0.0232
 3996SOL    HW123642   3.176   0.924   5.342 -0.1087 -1.1758 -0.2081
 3996SOL    HW223643   3.292   0.873   5.445  0.3475  1.7520  0.7615
 3997SOL     OW23644   4.717   1.507   5.015 -0.1812  0.7119 -1.0861
 3997SOL    HW123645   4.683   1.548   5.099 -1.5516 -0.6205 -0.9657
 3997SOL    HW223646   4.759   1.419   5.035  2.6551  1.9416 -1.3566
 3998SOL     OW23647   2.887   4.275   2.966 -0.2390 -0.0966  0.2343
 3998SOL    HW123648   2.914   4.363   2.927 -2.9118  0.9448  0.6667
 3998SOL    HW223649   2.849   4.216   2.895 -0.2784 -0.1758  0.3204
 3999SOL     OW23650   9.408   9.025   5.935 -0.2029 -0.0885  0.3330
 3999SOL    HW123651   9.449   9.071   5.857 -2.2449  0.0376 -0.7043
 3999SOL    HW223652   9.356   9.091   5.989 -1.5700 -0.7947 -0.0981
 4000SOL     OW23653   7.406   0.360   0.339  0.6107 -0.1672  0.2974
 4000SOL    HW123654   7.431   0.263   0.341 -1.0816 -0.6066  1.0881
 4000SOL    HW223655   7.391   0.388   0.245 -1.9899 -1.5317  0.2469
 4001SOL     OW23656   9.152   6.376   7.620 -0.2580 -0.4166 -0.1981
 4001SOL    HW123657   9.153   6.463   7.669 -0.0700  0.0509 -1.0008
 4001SOL    HW223658   9.066   6.328   7.636 -1.0853  0.7247 -1.1051
 4002SOL     OW23659   0.993   2.715   6.456 -0.3563  0.1077 -0.2929
 4002SOL    HW123660   0.903   2.680   6.431  0.2038 -0.9954 -0.7623
 4002SOL    HW223661   1.036   2.757   6.376 -0.4699  0.6995 -0.0515
 4003SOL     OW23662   8.593   0.996   0.778 -0.5295  0.3191  0.0575
 4003SOL    HW123663   8.531   1.027   0.850 -2.0529 -0.2670 -0.9605
 4003SOL    HW223664   8.631   0.907   0.802 -1.1756  0.0425  0.0646
 4004SOL     OW23665   2.058   7.016   4.073 -0.3488 -0.1598  0.0226
 4004SOL    HW123666   2.109   7.100   4.054 -1.9323  0.9525  0.5924
 4004SOL    HW223667   1.990   7.034   4.144  1.3318 -2.7144  2.3556
 4005SOL     OW23668   3.708   3.917   3.901 -0.3100  0.1695  0.5481
 4005SOL    HW123669   3.778   3.986   3.918 -0.3515  0.1704  0.7123
 4005SOL    HW223670   3.618   3.956   3.920 -0.3277  0.0442  0.7240
 4006SOL     OW23671   9.166   5.447   4.553  0.5587 -0.4800 -0.5872
 4006SOL    HW123672   9.184   5.482   4.645 -3.2479  0.4473 -0.1123
 4006SOL    HW223673   9.181   5.519   4.486  0.1269 -0.1945 -0.3730
 4007SOL     OW23674   8.050   1.695   2.430 -0.0601 -0.5953 -0.1126
 4007SOL    HW123675   8.125   1.675   2.493  1.6527  1.0274 -1.5736
 4007SOL    HW223676   7.967   1.712   2.482  0.8391 -1.2899  1.6082
 4008SOL     OW23677   0.480   8.624   3.327 -0.1110  0.3631 -0.1779
 4008SOL    HW123678   0.407   8.556   3.333  0.7592 -0.4466  1.3740
 4008SOL    HW223679   0.516   8.625   3.234  0.8277 -2.3272  0.1168
 4009SOL     OW23680   9.319   9.717   0.925  0.0429 -0.1138 -0.2467
 4009SOL    HW123681   9.268   9.736   1.009 -0.8530 -2.5639 -0.1873
 4009SOL    HW223682   9.310   9.795   0.863 -1.4540  0.6476  0.8799
 4010SOL     OW23683   4.587   4.067   6.579  0.2992  0.1148 -0.2328
 4010SOL    HW123684   4.540   4.043   6.494  0.0395  1.5382 -0.5012
 4010SOL    HW223685   4.679   4.028   6.579  1.3880  2.5330 -2.4822
 4011SOL     OW23686   6.770   7.881   3.333 -0.6710 -0.0254 -0.2402
 4011SOL    HW123687   6.800   7.890   3.428 -0.2422 -0.4179 -0.3401
 4011SOL    HW223688   6.786   7.788   3.302 -0.3255  0.2452 -0.8719
 4012SOL     OW23689   2.299   9.098   0.678 -0.1285  0.0683  0.0032
 4012SOL    HW123690   2.316   9.168   0.609  0.5502 -0.5210 -0.4251
 4012SOL    HW223691   2.214   9.050   0.656  1.7602 -2.3620 -2.3049
 4013SOL     OW23692   9.704   4.750   2.681 -0.3705  0.1837  0.4303
 4013SOL    HW123693   9.670   4.686   2.612 -1.2193  1.1958 -0.1010
 4013SOL    HW223694   9.798   4.775   2.660  0.0793 -1.1337  0.8271
 4014SOL     OW23695   1.525   5.051   4.592 -0.2476  0.0188  0.0210
 4014SOL    HW123696   1.586   5.066   4.514  0.0632 -1.2715  0.0079
 4014SOL    HW223697   1.568   5.085   4.676 -1.0254  2.3861 -0.5054
 4015SOL     OW23698   6.925   0.766   5.035 -0.6210  0.4600 -0.3749
 4015SOL    HW123699   7.016   0.807   5.032  0.4932 -1.9867 -1.1205
 4015SOL    HW223700   6.888   0.758   4.943 -0.0303 -1.8643 -0.4380
 4016SOL     OW23701   9.556   8.085   6.719  0.0700 -0.3780 -0.4831
 4016SOL    HW123702   9.628   8.132   6.668 -0.0312  0.2288 -0.0737
 4016SOL    HW223703   9.595   8.046   6.802 -0.2254  0.6497  0.1493
 4017SOL     OW23704   7.228   8.348   6.383  0.2722  0.4598 -0.0313
 4017SOL    HW123705   7.252   8.266   6.436  0.4480  0.4670 -0.1006
 4017SOL    HW223706   7.159   8.401   6.434  0.5207  0.5242  0.2389
 4018SOL     OW23707   6.756   9.833   4.177 -0.0185  0.0262 -0.3197
 4018SOL    HW123708   6.797   9.775   4.107 -0.8827  0.6689 -1.3802
 4018SOL    HW223709   6.770   9.929   4.154  0.8776  0.2511  1.1080
 4019SOL     OW23710   6.130   9.961   5.180  0.0995 -0.4717  0.8827
 4019SOL    HW123711   6.174   9.872   5.174  0.5705 -0.2959  1.5902
 4019SOL    HW223712   6.149  10.001   5.270  1.5240  1.1957 -0.1354
 4020SOL     OW23713   1.435   9.462   6.251 -0.1188  0.0665  0.2149
 4020SOL    HW123714   1.402   9.554   6.273 -1.2074  0.1310 -1.5826
 4020SOL    HW223715   1.421   9.402   6.330  1.8576  1.7289  1.8982
 4021SOL     OW23716   7.684   1.766   0.375 -0.3158 -0.4915  0.1268
 4021SOL    HW123717   7.714   1.860   0.390 -1.1639 -0.3523  1.0782
 4021SOL    HW223718   7.668   1.751   0.277 -2.9984  1.2687  0.2427
 4022SOL     OW23719   2.230   7.873   7.812  0.1859 -0.0339 -0.2725
 4022SOL    HW123720   2.239   7.858   7.910 -0.9015 -0.9208 -0.2948
 4022SOL    HW223721   2.292   7.946   7.783  0.6225  0.1224  1.0421
 4023SOL     OW23722   7.060   6.608   6.976 -0.7304  0.0049 -0.4906
 4023SOL    HW123723   7.057   6.677   6.903 -0.1458  0.7033  0.1385
 4023SOL    HW223724   7.006   6.528   6.948 -0.3447  0.1727 -1.7741
 4024SOL     OW23725   0.614   7.598   4.299 -0.0864  0.1583  0.3170
 4024SOL    HW123726   0.621   7.541   4.380  1.1128 -0.0674  0.0644
 4024SOL    HW223727   0.700   7.646   4.284 -0.1544 -0.0956 -1.0275
 4025SOL     OW23728   6.750   2.278   4.002  0.5365  0.3387 -0.4026
 4025SOL    HW123729   6.656   2.305   4.021  0.7141  1.2559 -0.8145
 4025SOL    HW223730   6.808   2.359   4.000  1.4461 -0.2751  0.4505
 4026SOL     OW23731   4.103   3.417   1.282 -0.8092 -0.1868  0.3432
 4026SOL    HW123732   4.128   3.366   1.200 -0.5269  1.2201 -0.4714
 4026SOL    HW223733   4.004   3.431   1.284 -0.5622  1.9986 -1.1250
 4027SOL     OW23734   8.268   2.998   2.038 -0.1439 -0.5204 -0.2978
 4027SOL    HW123735   8.251   2.999   2.137  0.7743 -0.0270 -0.1369
 4027SOL    HW223736   8.182   3.015   1.989 -0.1211  2.2792  0.5016
 4028SOL     OW23737   3.045   5.938   3.212 -0.1380  0.2100 -0.0632
 4028SOL    HW123738   2.983   5.928   3.290 -0.1896  0.1225 -0.1157
 4028SOL    HW223739   3.025   6.023   3.163 -0.4235  0.0260 -0.2664
 4029SOL     OW23740   1.797   9.174   5.480 -0.0147 -0.1134  0.0013
 4029SOL    HW123741   1.717   9.178   5.421  1.0343  0.0128 -1.4282
 4029SOL    HW223742   1.803   9.257   5.534 -1.2011 -0.4020  0.5982
 4030SOL     OW23743   4.522   1.902   5.861 -0.2858  0.0427 -0.7026
 4030SOL    HW123744   4.436   1.864   5.826 -0.8472 -0.2066  0.9253
 4030SOL    HW223745   4.513   1.920   5.959  2.1626 -1.8344 -0.0871
 4031SOL     OW23746   1.752   1.501   4.433 -0.3256 -0.3289 -0.3534
 4031SOL    HW123747   1.839   1.463   4.403 -0.0362 -0.4561  0.6239
 4031SOL    HW223748   1.767   1.594   4.467 -0.4582 -0.6064  0.4616
 4032SOL     OW23749   8.475   5.857   3.609 -0.5211 -0.4468  0.1994
 4032SOL    HW123750   8.448   5.815   3.696  1.0178  0.9043  1.3645
 4032SOL    HW223751   8.414   5.933   3.588 -0.8215 -0.6991  0.1533
 4033SOL     OW23752   7.556   1.088   5.069  0.4761 -0.0173  0.1498
 4033SOL    HW123753   7.464   1.124   5.085  0.8995  0.9711  0.4278
 4033SOL    HW223754   7.567   1.066   4.972  0.2675  0.8025 -0.0620
 4034SOL     OW23755   3.789   3.443   5.553  0.3966  0.2619  0.2421
 4034SOL    HW123756   3.770   3.511   5.483  2.9204  0.7719  0.0085
 4034SOL    HW223757   3.709   3.386   5.566 -1.0208  1.8813 -1.1208
 4035SOL     OW23758   3.742   1.947   4.537  0.1205  0.4472  0.1043
 4035SOL    HW123759   3.706   2.010   4.606  1.9147 -0.4026  1.8912
 4035SOL    HW223760   3.741   1.854   4.574  2.0023  0.1129 -0.6409
 4036SOL     OW23761   5.208   6.057   0.607 -0.5943 -0.1473  0.8560
 4036SOL    HW123762   5.182   6.034   0.701  0.2615 -0.3477  1.0462
 4036SOL    HW223763   5.256   5.980   0.566 -1.5249 -0.3042  0.0299
 4037SOL     OW23764   4.250   9.252   6.291 -0.4475  0.1521  0.0776
 4037SOL    HW123765   4.343   9.243   6.328 -0.9808 -2.5578  0.9014
 4037SOL    HW223766   4.194   9.304   6.355 -0.6470 -2.1378  1.8280
 4038SOL     OW23767   7.977   5.543   1.552  0.5032  0.1095  0.4074
 4038SOL    HW123768   8.016   5.596   1.628 -0.9067 -1.9065  2.6247
 4038SOL    HW223769   7.878   5.537   1.563  0.2562 -0.0944 -1.7233
 4039SOL     OW23770   0.025   5.463   3.073  0.2588 -0.0535 -0.4994
 4039SOL    HW123771  -0.070   5.489   3.090 -0.3407 -1.8810 -0.9309
 4039SOL    HW223772   0.085   5.538   3.099 -1.2481  0.7980  0.6119
 4040SOL     OW23773   8.947   3.598   3.513  0.2401 -0.0763 -0.2575
 4040SOL    HW123774   8.854   3.589   3.480  1.1246 -0.1762 -2.7851
 4040SOL    HW223775   8.977   3.510   3.552 -0.0901 -0.5923 -1.1554
 4041SOL     OW23776   9.047   1.916   3.049 -1.0700 -1.0222 -0.0373
 4041SOL    HW123777   8.966   1.975   3.059 -1.8129 -1.7488 -1.6101
 4041SOL    HW223778   9.102   1.947   2.972 -0.1271 -0.8594  0.7021
 4042SOL     OW23779   3.267   4.852   3.768 -0.3317 -0.2119 -0.1762
 4042SOL    HW123780   3.323   4.770   3.785  0.1173 -0.3610 -2.2550
 4042SOL    HW223781   3.235   4.851   3.673 -0.3318  2.0303 -0.2121
 4043SOL     OW23782   4.657   9.520   5.723  0.3627 -0.1018 -0.3536
 4043SOL    HW123783   4.700   9.505   5.634  0.5451  1.1154 -0.4824
 4043SOL    HW223784   4.725   9.507   5.795  0.9737  1.7858 -0.5553
 4044SOL     OW23785   7.730   8.853   5.655 -0.0040 -0.4409 -0.4749
 4044SOL    HW123786   7.666   8.803   5.596  2.0347 -1.9102 -1.4881
 4044SOL    HW223787   7.812   8.875   5.604  0.3136  1.5018  0.8058
 4045SOL     OW23788   3.541   1.811   0.505 -0.1970  0.0242 -0.3494
 4045SOL    HW123789   3.635   1.790   0.481 -0.2837  0.2728 -0.9385
 4045SOL    HW223790   3.514   1.897   0.461  0.2153  1.4676  2.1369
 4046SOL     OW23791   5.019   0.793   4.686  0.3372 -0.3448 -0.4185
 4046SOL    HW123792   5.002   0.709   4.739 -1.0975  0.1810 -0.0200
 4046SOL    HW223793   5.050   0.769   4.595 -2.5350 -1.4055 -1.1774
 4047SOL     OW23794   5.309   1.188   7.080 -0.7895 -0.0689  0.5133
 4047SOL    HW123795   5.319   1.146   6.990 -0.1473  0.2380  0.4374
 4047SOL    HW223796   5.320   1.287   7.073 -3.3377  0.2575  0.5310
 4048SOL     OW23797   2.927   6.779   4.912  0.1471  0.1032  0.3924
 4048SOL    HW123798   2.860   6.852   4.898 -0.0963  0.0653  1.3209
 4048SOL    HW223799   2.899   6.698   4.861 -1.9027 -0.7629  2.7848
 4049SOL     OW23800   1.478   7.300   3.333 -0.2530 -0.4754 -0.2958
 4049SOL    HW123801   1.429   7.234   3.275 -1.1182 -0.5384  0.5007
 4049SOL    HW223802   1.415   7.368   3.367  0.3529 -0.1438  0.1740
 4050SOL     OW23803   7.196   5.314   6.996 -0.2662  0.2735  0.3017
 4050SOL    HW123804   7.120   5.283   6.938 -1.5619  1.7510  1.1389
 4050SOL    HW223805   7.277   5.329   6.939 -0.1037 -2.8187 -0.3766
 4051SOL     OW23806   5.552   0.509   4.883  0.2412 -0.2154  0.2197
 4051SOL    HW123807   5.621   0.447   4.920  0.0366 -0.3311  0.4102
 4051SOL    HW223808   5.465   0.461   4.877 -0.0371  0.2108  0.8583
 4052SOL     OW23809   5.993   0.504   4.942  0.3870  0.3246  0.0429
 4052SOL    HW123810   5.907   0.454   4.929  0.1129  0.5844  0.8189
 4052SOL    HW223811   5.976   0.583   5.001  1.2913  0.0370  0.6897
 4053SOL     OW23812   8.104   9.948   1.529 -0.0654  0.3638 -0.0162
 4053SOL    HW123813   8.059   9.922   1.443 -1.0542  0.2285  0.5388
 4053SOL    HW223814   8.178  10.013   1.509 -1.0821  1.2810 -0.8356
 4054SOL     OW23815   5.010   0.005   2.037 -0.1875  0.4281  0.7230
 4054SOL    HW123816   4.937   0.052   2.086 -0.3976  0.0520  0.7735
 4054SOL    HW223817   4.980  -0.016   1.944  0.4451  1.7193  0.2205
 4055SOL     OW23818   1.554   2.207   3.408  0.3695 -0.3900  0.1419
 4055SOL    HW123819   1.479   2.160   3.361  0.5239 -0.1631 -0.3353
 4055SOL    HW223820   1.519   2.260   3.485  0.1031 -0.6918  0.2267
 4056SOL     OW23821   2.266   7.689   7.243 -0.0489  0.0280  0.3629
 4056SOL    HW123822   2.215   7.766   7.280  2.4805  1.4252  1.0600
 4056SOL    HW223823   2.318   7.645   7.316  2.5112  0.8422 -0.8888
 4057SOL     OW23824   4.328   9.075   4.081  0.1351 -0.4186 -0.2627
 4057SOL    HW123825   4.396   9.002   4.091 -1.0545 -1.9780 -3.0998
 4057SOL    HW223826   4.373   9.157   4.046  1.1605 -0.3621  1.1649
 4058SOL     OW23827   7.007   1.355   4.031  0.1447 -0.0068  0.6661
 4058SOL    HW123828   7.086   1.398   4.075 -0.0836  0.0351  1.0298
 4058SOL    HW223829   6.959   1.422   3.975  0.3635 -0.0317  0.4438
 4059SOL     OW23830   5.128   1.599   7.674 -0.4585 -0.4091 -0.0042
 4059SOL    HW123831   5.215   1.614   7.722 -0.6113 -0.3904  0.2682
 4059SOL    HW223832   5.112   1.501   7.663 -0.8846 -0.4370  0.8327
 4060SOL     OW23833   9.048   4.382   6.636  0.0935  0.4227 -0.2573
 4060SOL    HW123834   8.998   4.298   6.617 -0.2306  0.3921  0.7175
 4060SOL    HW223835   8.983   4.456   6.657  0.4120  0.6559 -0.0801
 4061SOL     OW23836   9.348   1.219   7.506  0.2166  0.1636  0.0282
 4061SOL    HW123837   9.369   1.124   7.485  0.2399  0.2937 -0.5344
 4061SOL    HW223838   9.249   1.231   7.507  0.2148  0.1374  0.1054
 4062SOL     OW23839   0.099   1.580   1.878 -0.1900  0.6667 -0.2098
 4062SOL    HW123840   0.116   1.589   1.976  1.3284  2.3954 -0.6097
 4062SOL    HW223841   0.129   1.489   1.848  1.0737  0.7899  0.6067
 4063SOL     OW23842   3.058   4.978   5.682 -0.1139  0.0528 -0.2546
 4063SOL    HW123843   3.111   5.019   5.607 -0.9281 -1.4646 -1.6976
 4063SOL    HW223844   3.077   4.880   5.686 -0.6905 -0.0131  1.0280
 4064SOL     OW23845   1.485   8.305   1.232 -0.1961  0.1765 -0.4234
 4064SOL    HW123846   1.436   8.360   1.164  1.2166  0.5943 -1.1266
 4064SOL    HW223847   1.441   8.317   1.321  0.8188  3.5255 -0.2839
 4065SOL     OW23848   4.192   8.349   3.766  0.0334  0.2503  0.4625
 4065SOL    HW123849   4.156   8.331   3.857 -3.4540 -0.0892 -0.8997
 4065SOL    HW223850   4.173   8.444   3.740 -0.4949 -0.1166 -0.5359
 4066SOL     OW23851   7.222   2.551   1.652 -0.0656  0.0546 -0.0693
 4066SOL    HW123852   7.210   2.468   1.598  0.7858  0.4345 -0.8339
 4066SOL    HW223853   7.278   2.531   1.732 -0.8646 -0.3756  0.3949
 4067SOL     OW23854   3.181   9.930   0.254 -0.7643  0.1068 -0.5361
 4067SOL    HW123855   3.121   9.859   0.216 -0.7350 -0.3704  0.2901
 4067SOL    HW223856   3.161  10.018   0.210 -1.1227 -0.3221 -1.2383
 4068SOL     OW23857   3.443   9.014   1.393 -0.4920 -0.3118  0.3745
 4068SOL    HW123858   3.362   9.003   1.336 -0.0527 -1.0275 -0.1114
 4068SOL    HW223859   3.490   9.099   1.368 -0.4633 -0.4760 -0.1212
 4069SOL     OW23860   1.887   8.185   5.130  0.1376  1.0496  0.1389
 4069SOL    HW123861   1.954   8.181   5.056 -0.6374  0.2663 -0.5245
 4069SOL    HW223862   1.933   8.212   5.215  1.0194  1.9995 -0.6291
 4070SOL     OW23863   3.294   5.344   2.720  0.0705 -0.2798  0.7238
 4070SOL    HW123864   3.198   5.349   2.746 -0.2330 -0.6695 -0.2811
 4070SOL    HW223865   3.309   5.264   2.662  0.8693  0.1128  0.3735
 4071SOL     OW23866   8.259   1.491   0.417 -0.2435  0.5107 -0.0207
 4071SOL    HW123867   8.346   1.540   0.419  0.2698 -0.3755 -0.2767
 4071SOL    HW223868   8.215   1.498   0.507  0.7511 -0.1831  0.5402
 4072SOL     OW23869   6.719   1.648   5.889  0.3392  0.2916 -0.3302
 4072SOL    HW123870   6.750   1.650   5.984 -1.9601  0.8390  0.4471
 4072SOL    HW223871   6.619   1.644   5.887  0.4057 -0.7862 -2.7320
 4073SOL     OW23872   1.772   9.740   6.166 -0.7097  0.2181  0.0484
 4073SOL    HW123873   1.807   9.793   6.243  0.7781 -1.9442  0.8959
 4073SOL    HW223874   1.673   9.755   6.158 -0.6130  1.7202  1.3386
 4074SOL     OW23875   0.403   8.445   2.337 -0.1240 -0.5713  0.1590
 4074SOL    HW123876   0.459   8.367   2.312 -1.9193 -2.3571  1.4585
 4074SOL    HW223877   0.458   8.512   2.387  1.1397 -1.6684  0.2445
 4075SOL     OW23878   9.533   4.306   2.800  0.2077 -0.0240 -0.0054
 4075SOL    HW123879   9.554   4.314   2.898 -0.9614  2.5874  0.0791
 4075SOL    HW223880   9.615   4.327   2.746  0.3637  0.4361  0.4040
 4076SOL     OW23881   1.804   1.843   5.973 -0.1962 -0.4598 -0.2872
 4076SOL    HW123882   1.842   1.919   5.921  0.3985 -0.4999  0.0878
 4076SOL    HW223883   1.719   1.873   6.017  0.7121  0.3887  0.9120
 4077SOL     OW23884   1.291   3.630   4.427 -0.0635 -0.4640  0.1036
 4077SOL    HW123885   1.267   3.660   4.334  0.5128  1.4144  0.5340
 4077SOL    HW223886   1.245   3.544   4.448 -2.3892  0.5064 -0.9170
 4078SOL     OW23887   8.305   2.414   4.525  0.4334 -0.2667  0.4871
 4078SOL    HW123888   8.285   2.497   4.578  0.3151 -0.1882  0.3201
 4078SOL    HW223889   8.225   2.390   4.470  1.5434  1.2676 -1.8354
 4079SOL     OW23890   0.652   4.749   7.032  0.2701  0.0222  0.1002
 4079SOL    HW123891   0.641   4.661   7.077 -1.6982 -0.1791 -0.7258
 4079SOL    HW223892   0.601   4.819   7.082 -0.5606  0.1235 -0.8778
 4080SOL     OW23893   4.172   1.307   6.770 -0.3233 -0.3272 -0.1194
 4080SOL    HW123894   4.229   1.353   6.838  0.3887 -1.4407  0.0342
 4080SOL    HW223895   4.091   1.269   6.814  0.9078 -2.4047  0.3872
 4081SOL     OW23896   8.778   5.975   7.608  0.3259 -0.0553  0.1166
 4081SOL    HW123897   8.846   5.908   7.637  0.0152 -0.1648  0.5800
 4081SOL    HW223898   8.783   5.986   7.508  0.8525 -0.2460  0.1191
 4082SOL     OW23899   0.950   4.769   3.049  0.4464 -0.1866  0.2832
 4082SOL    HW123900   0.926   4.694   2.987  2.1131 -0.1312 -0.4596
 4082SOL    HW223901   0.914   4.855   3.013 -0.8058 -0.5138  0.7368
 4083SOL     OW23902   1.052   1.650   1.354 -0.7183  0.7804 -0.1274
 4083SOL    HW123903   0.987   1.632   1.280  0.9243  1.1245 -1.6908
 4083SOL    HW223904   1.121   1.715   1.322 -1.3688  2.8032  2.5109
 4084SOL     OW23905   8.342   5.881   2.607 -0.3362  0.2766  0.0372
 4084SOL    HW123906   8.334   5.848   2.701 -0.3408  0.7265  0.1974
 4084SOL    HW223907   8.414   5.951   2.603 -1.3644  1.3625  0.0164
 4085SOL     OW23908   8.442   4.041   6.678 -0.0787  0.0032  0.4142
 4085SOL    HW123909   8.430   4.130   6.722 -0.8596 -0.2428  0.7082
 4085SOL    HW223910   8.423   4.049   6.580  1.0996  0.4270  0.2122
 4086SOL     OW23911   0.796   2.009   3.250  0.3900 -0.1008  0.0440
 4086SOL    HW123912   0.842   1.943   3.190 -1.1292 -0.3118 -0.9188
 4086SOL    HW223913   0.697   1.992   3.248  0.0133  2.0169  0.0028
 4087SOL     OW23914   4.983   1.626   3.589 -0.4939  0.0844 -0.2523
 4087SOL    HW123915   4.921   1.685   3.640  1.0120  1.4960  0.0057
 4087SOL    HW223916   4.990   1.657   3.494  0.3534  0.3735 -0.1029
 4088SOL     OW23917   8.226   1.379   2.600 -0.7080  0.0126 -0.3469
 4088SOL    HW123918   8.298   1.352   2.536  1.3749  0.1984  1.8186
 4088SOL    HW223919   8.236   1.327   2.685 -0.7695  2.7215  1.3896
 4089SOL     OW23920   3.441   4.497   1.416  0.0813 -0.4219  0.0886
 4089SOL    HW123921   3.402   4.415   1.375  0.1598  0.2017 -1.2688
 4089SOL    HW223922   3.532   4.513   1.377 -0.0384  0.4495  0.1642
 4090SOL     OW23923   2.589   4.726   1.104 -0.4154 -0.1888  0.2123
 4090SOL    HW123924   2.580   4.663   1.181 -1.3085  1.7014  1.7172
 4090SOL    HW223925   2.624   4.814   1.137  2.1383 -0.2963 -2.0606
 4091SOL     OW23926   0.325   2.740   5.893 -0.3981  0.1703 -0.1930
 4091SOL    HW123927   0.381   2.817   5.863 -0.2488 -0.6943 -2.1738
 4091SOL    HW223928   0.267   2.709   5.818  0.3269 -2.3385  0.2345
 4092SOL     OW23929   9.702   5.208   5.492 -0.0514 -0.0472  0.0762
 4092SOL    HW123930   9.626   5.167   5.542  0.8761 -1.0810  0.6703
 4092SOL    HW223931   9.778   5.226   5.555  0.5219  0.1683 -0.6624
 4093SOL     OW23932   0.765   5.544   2.868 -0.2374 -0.5310  0.1241
 4093SOL    HW123933   0.855   5.502   2.864 -0.0501 -0.2576  1.2160
 4093SOL    HW223934   0.724   5.544   2.777  0.5805 -1.2667 -0.2541
 4094SOL     OW23935   2.439   1.236   6.478  0.1280 -0.2631 -0.2591
 4094SOL    HW123936   2.358   1.196   6.519 -0.3030  0.0642 -0.7843
 4094SOL    HW223937   2.439   1.335   6.493  1.4503 -0.5182  1.4848
 4095SOL     OW23938   0.331   1.624   5.395  0.7895 -1.2280  0.0415
 4095SOL    HW123939   0.409   1.601   5.337  1.9731 -1.4259  1.6912
 4095SOL    HW223940   0.302   1.542   5.446 -0.9127 -1.3217 -1.0068
 4096SOL     OW23941   3.448   4.532   6.819 -0.0661  0.4695  0.7162
 4096SOL    HW123942   3.539   4.556   6.852  0.2255 -0.8795  0.9273
 4096SOL    HW223943   3.385   4.607   6.838  1.2017  1.8001 -0.3049
 4097SOL     OW23944   5.768   8.266   4.053  0.2175 -0.6069  0.2125
 4097SOL    HW123945   5.736   8.270   3.958 -0.4002 -1.8057  0.3586
 4097SOL    HW223946   5.868   8.265   4.053  0.2441 -2.7557 -0.5792
 4098SOL     OW23947   9.674   9.735   3.767 -0.0735 -0.4958 -0.2365
 4098SOL    HW123948   9.633   9.725   3.858 -0.7604  0.8714 -0.3736
 4098SOL    HW223949   9.753   9.674   3.759  0.4528 -0.0826  1.5392
 4099SOL     OW23950   9.614   0.662   1.381  0.2388  0.1451  0.1581
 4099SOL    HW123951   9.614   0.667   1.481  0.7015  3.9532  0.0321
 4099SOL    HW223952   9.520   0.654   1.348  0.0124 -0.1291  0.8521
 4100SOL     OW23953   4.330   7.089   3.573 -0.4332  0.1221 -0.1208
 4100SOL    HW123954   4.287   7.000   3.567  0.1192 -0.2703  1.3550
 4100SOL    HW223955   4.352   7.109   3.669  0.8272  1.1679 -0.6064
 4101SOL     OW23956   8.782   3.037   0.317  0.2548 -0.2235 -0.1389
 4101SOL    HW123957   8.697   3.041   0.370 -0.5466 -0.1690 -1.4019
 4101SOL    HW223958   8.814   3.131   0.300  0.2524 -0.2264 -0.1603
 4102SOL     OW23959   1.904   9.663   5.932  0.3738 -0.1353  0.3111
 4102SOL    HW123960   1.874   9.738   5.990  1.8977  1.4056 -0.8523
 4102SOL    HW223961   1.975   9.611   5.980 -0.4202 -0.6264  0.9687
 4103SOL     OW23962   2.297   1.332   7.271 -0.0428  0.3869  0.1455
 4103SOL    HW123963   2.275   1.427   7.293 -1.6949  0.4744 -1.6270
 4103SOL    HW223964   2.213   1.277   7.275  1.0535 -1.1946  2.0454
 4104SOL     OW23965   3.580   2.732   5.898  0.6115 -0.0133 -0.4184
 4104SOL    HW123966   3.581   2.828   5.869  0.8362 -0.2164 -1.0694
 4104SOL    HW223967   3.507   2.719   5.966  0.8110  0.6959 -0.0620
 4105SOL     OW23968   2.963   9.576   0.409  0.0458 -0.0977 -0.7653
 4105SOL    HW123969   2.990   9.485   0.439 -0.7990  0.5825  2.2830
 4105SOL    HW223970   2.863   9.581   0.406 -0.0797  2.0070  3.6248
 4106SOL     OW23971   1.628   5.803   1.646  0.4684  0.4371 -0.4879
 4106SOL    HW123972   1.590   5.724   1.597  0.0935  0.7583 -0.7156
 4106SOL    HW223973   1.727   5.800   1.640  0.4275  0.4641 -1.2549
 4107SOL     OW23974   4.990   9.330   6.050  0.1620  0.3555  0.4428
 4107SOL    HW123975   5.061   9.259   6.047 -0.0230  0.2205 -1.5749
 4107SOL    HW223976   4.917   9.301   6.112  1.4588  0.1083  1.8724
 4108SOL     OW23977   2.588   2.815   6.130  0.2768  0.1968  0.0320
 4108SOL    HW123978   2.528   2.842   6.055 -0.1431  0.1448  0.3490
 4108SOL    HW223979   2.534   2.799   6.213  0.9825  2.6614  1.0136
 4109SOL     OW23980   2.360   4.283   6.029 -0.2477  0.4887  0.2130
 4109SOL    HW123981   2.300   4.205   6.046  0.1646  0.4231  1.4080
 4109SOL    HW223982   2.425   4.260   5.956  1.3004 -1.0869  2.0425
 4110SOL     OW23983   8.653   2.653   1.680 -0.3681 -0.0045 -0.0636
 4110SOL    HW123984   8.566   2.657   1.630 -0.6652  0.7754  0.4977
 4110SOL    HW223985   8.652   2.574   1.741 -2.0233  1.7584  2.3075
 4111SOL     OW23986   0.932   5.534   5.079 -0.2521 -0.1268 -0.5938
 4111SOL    HW123987   1.024   5.496   5.069  0.3668  0.4511  2.4956
 4111SOL    HW223988   0.870   5.489   5.015  2.0304 -0.9417 -2.3029
 4112SOL     OW23989   4.223   3.015   3.759  0.7356 -0.0107 -0.4508
 4112SOL    HW123990   4.316   3.042   3.737  0.6962  1.1336  0.7183
 4112SOL    HW223991   4.208   3.022   3.858 -0.0972 -1.7533 -0.4254
 4113SOL     OW23992   6.233   2.165   3.831 -0.1100 -0.2109  0.2230
 4113SOL    HW123993   6.142   2.172   3.873 -0.6966  0.6290 -1.1335
 4113SOL    HW223994   6.240   2.079   3.782 -1.4316  1.1219 -2.4391
 4114SOL     OW23995   1.401   3.704   3.117 -0.3043  0.0552 -0.3969
 4114SOL    HW123996   1.433   3.766   3.047 -0.5116  1.3957  0.6696
 4114SOL    HW223997   1.375   3.756   3.199  1.1240 -1.5556  1.1427
 4115SOL     OW23998   5.664   1.828   0.129 -0.3633  0.4892 -0.1547
 4115SOL    HW123999   5.595   1.765   0.165 -1.7742  1.7053 -0.6984
 4115SOL    HW224000   5.717   1.865   0.205 -2.4291  1.9998  0.6028
 4116SOL     OW24001   7.983   8.756   5.922 -0.5391  0.7745 -0.2890
 4116SOL    HW124002   7.994   8.756   6.021 -1.5146 -1.8397 -0.1605
 4116SOL    HW224003   8.062   8.711   5.880 -0.4872  1.2111 -0.6620
 4117SOL     OW24004   4.821   0.683   6.446  0.3955 -0.0036 -0.1156
 4117SOL    HW124005   4.848   0.739   6.524  0.9486 -0.6223  0.1396
 4117SOL    HW224006   4.801   0.742   6.368  0.7377  0.5615  0.2217
 4118SOL     OW24007   0.921   5.326   4.809 -0.0172  0.1065 -0.0509
 4118SOL    HW124008   0.891   5.422   4.806  0.4195  0.2446  0.0041
 4118SOL    HW224009   0.877   5.275   4.736  0.2188  0.4849 -0.4619
 4119SOL     OW24010   4.772   0.928   0.606  0.5629  0.6164 -0.2992
 4119SOL    HW124011   4.740   1.015   0.643  1.3336  0.2427  1.2761
 4119SOL    HW224012   4.739   0.918   0.512 -2.7880  0.8300  0.8185
 4120SOL     OW24013   3.110   1.395   0.054  0.2529  0.2208 -0.2001
 4120SOL    HW124014   3.039   1.465   0.051 -0.1506 -0.0996  1.3328
 4120SOL    HW224015   3.157   1.390  -0.034  1.0473  3.1927  0.0053
 4121SOL     OW24016   3.214   7.358   4.811 -0.0650 -0.1264  0.4473
 4121SOL    HW124017   3.214   7.436   4.873  0.4652 -0.1172  0.4417
 4121SOL    HW224018   3.294   7.301   4.830  0.6769  0.4309 -0.9275
 4122SOL     OW24019   3.002   7.333   3.585  0.1996 -0.3534 -0.4314
 4122SOL    HW124020   3.069   7.395   3.625  0.2047 -0.5301 -0.1624
 4122SOL    HW224021   3.048   7.273   3.519 -0.0041  0.6455 -1.4863
 4123SOL     OW24022   4.274   1.672   0.708 -0.2126  0.2536  0.0293
 4123SOL    HW124023   4.313   1.763   0.691  0.7324 -0.1186  0.1412
 4123SOL    HW224024   4.222   1.673   0.793  0.0605  0.6207  0.1953
 4124SOL     OW24025   2.422   9.587   6.095 -0.4463 -0.1938 -0.2001
 4124SOL    HW124026   2.451   9.492   6.103  1.7098  0.5652  1.7282
 4124SOL    HW224027   2.417   9.628   6.186 -1.5530  1.4919 -0.9915
 4125SOL     OW24028   3.156   5.648   4.223  0.3216  0.1886 -0.9760
 4125SOL    HW124029   3.255   5.628   4.219  0.2023 -0.5019 -0.5963
 4125SOL    HW224030   3.109   5.590   4.156 -0.0369 -0.8505  0.1580
 4126SOL     OW24031   7.678   2.951   3.007 -0.1380  0.2981  0.3512
 4126SOL    HW124032   7.620   2.994   3.077  1.6433  3.7261 -0.1904
 4126SOL    HW224033   7.772   2.944   3.041  0.4853  0.8288 -1.2162
 4127SOL     OW24034   8.552   3.652   5.424 -0.1739 -0.4482 -0.2054
 4127SOL    HW124035   8.650   3.630   5.422  0.0036  0.3915 -3.3894
 4127SOL    HW224036   8.513   3.636   5.333 -2.3038  2.2129  0.1968
 4128SOL     OW24037   0.047   8.951   4.145  0.3936  0.2065 -0.2032
 4128SOL    HW124038   0.004   8.864   4.170  0.4956  0.9548  2.6818
 4128SOL    HW224039  -0.020   9.008   4.098 -0.0656 -0.8586 -0.8859
 4129SOL     OW24040   0.397   2.279   7.985 -0.2769 -0.2035  0.1755
 4129SOL    HW124041   0.350   2.293   7.898 -0.1086 -1.2031 -0.0815
 4129SOL    HW224042   0.336   2.230   8.048 -0.2557  0.1651  0.4822
 4130SOL     OW24043   8.321   0.026   2.575  0.5052  0.4897 -0.1348
 4130SOL    HW124044   8.354   0.091   2.507 -0.2969  1.8235  0.7263
 4130SOL    HW224045   8.358   0.049   2.665  0.3468 -0.3489  0.1551
 4131SOL     OW24046   9.427   9.540   2.534  0.1671 -0.0515 -0.0131
 4131SOL    HW124047   9.452   9.457   2.585  1.2453  0.9704  1.1676
 4131SOL    HW224048   9.508   9.599   2.525 -0.3672  0.4575 -1.6478
 4132SOL     OW24049   4.320   3.388   5.678  0.1795 -0.3474  0.5276
 4132SOL    HW124050   4.389   3.445   5.722  0.7139 -0.6373  0.0781
 4132SOL    HW224051   4.233   3.397   5.726  0.5280  0.0345  1.0891
 4133SOL     OW24052   8.814   0.060   1.781  0.7040  0.1244  0.1621
 4133SOL    HW124053   8.882   0.008   1.730  2.2325  2.5647 -0.3389
 4133SOL    HW224054   8.850   0.082   1.872 -0.1840 -0.2253  0.6044
 4134SOL     OW24055   0.478   7.918   3.746  0.3223  0.5842  0.0444
 4134SOL    HW124056   0.436   8.009   3.739  0.7158  0.7291 -0.4502
 4134SOL    HW224057   0.550   7.921   3.815 -0.2391  0.4234  0.6498
 4135SOL     OW24058   4.443   6.527   3.227  0.7785  0.0848  0.4407
 4135SOL    HW124059   4.467   6.473   3.309 -1.8220 -1.4183  0.2643
 4135SOL    HW224060   4.405   6.615   3.255  1.9776  0.4948  0.7990
 4136SOL     OW24061   3.251   8.874   8.013 -0.2734 -0.5910 -0.2035
 4136SOL    HW124062   3.201   8.955   8.044 -1.2023 -2.0590  2.3628
 4136SOL    HW224063   3.190   8.816   7.959  0.0158 -0.1659 -0.9796
 4137SOL     OW24064   4.779   3.530   5.522  0.2730  0.4240  0.3077
 4137SOL    HW124065   4.681   3.547   5.515  0.0213 -0.8068  0.6822
 4137SOL    HW224066   4.810   3.480   5.441  0.8549  1.9179 -0.4219
 4138SOL     OW24067   3.923   8.749   1.655 -0.1664  0.1879 -0.0044
 4138SOL    HW124068   3.998   8.684   1.645 -0.9510 -0.4289 -1.9369
 4138SOL    HW224069   3.872   8.729   1.739 -0.5374 -1.8245 -0.6951
 4139SOL     OW24070   5.656   7.192   4.717  0.3569 -0.2469  0.4951
 4139SOL    HW124071   5.558   7.208   4.716  0.6205  1.5280  1.8722
 4139SOL    HW224072   5.678   7.126   4.789  0.0269 -1.9386 -0.8959
 4140SOL     OW24073   2.715   6.140   8.172 -0.6272  0.4921  0.2549
 4140SOL    HW124074   2.643   6.204   8.200 -0.8715  0.6695 -0.7634
 4140SOL    HW224075   2.674   6.056   8.138 -0.3389  0.4355  0.0424
 4141SOL     OW24076   2.894   9.400   1.412 -0.0522 -0.5614 -0.3555
 4141SOL    HW124077   2.932   9.489   1.436  0.3967 -0.8960  0.2136
 4141SOL    HW224078   2.823   9.375   1.478  0.0652 -0.7736 -0.3076
 4142SOL     OW24079   1.455   2.002   5.443  0.3490  0.4369  0.2102
 4142SOL    HW124080   1.361   2.032   5.461 -0.5456 -1.6942 -0.7673
 4142SOL    HW224081   1.482   1.936   5.514  1.1952  1.2012  0.6040
 4143SOL     OW24082   4.818   4.029   6.002  0.5650  0.0842 -0.3743
 4143SOL    HW124083   4.882   3.954   6.019  0.6367  0.0274 -0.8778
 4143SOL    HW224084   4.842   4.073   5.915  0.1391  0.2896 -0.3853
 4144SOL     OW24085   2.207   8.759   3.403 -0.1638 -0.1680 -0.5252
 4144SOL    HW124086   2.235   8.673   3.445  0.4117 -0.1496 -0.8692
 4144SOL    HW224087   2.162   8.740   3.315 -0.3322 -0.1351 -0.4467
 4145SOL     OW24088   8.270   2.066   7.940 -0.4673 -0.0732  0.1349
 4145SOL    HW124089   8.259   2.050   8.038 -1.3869  0.1805  0.0758
 4145SOL    HW224090   8.367   2.078   7.919 -0.1463 -1.4525  0.8075
 4146SOL     OW24091   2.196   7.000   2.804 -0.1633  0.3749  0.2132
 4146SOL    HW124092   2.252   7.000   2.887  0.5220  2.4660 -0.1948
 4146SOL    HW224093   2.182   6.907   2.772  0.7672 -0.3513  1.8836
 4147SOL     OW24094   6.519   6.231   0.023 -0.1116  0.1549 -0.4003
 4147SOL    HW124095   6.596   6.251  -0.038 -0.5770 -0.5107 -1.2208
 4147SOL    HW224096   6.552   6.180   0.103  0.5752  1.4293  0.1504
 4148SOL     OW24097   4.804   2.439   0.161  0.6879 -0.3922  0.1964
 4148SOL    HW124098   4.803   2.519   0.221  1.2835 -1.7161  2.0290
 4148SOL    HW224099   4.898   2.413   0.139  0.5430 -1.2200  0.5087
 4149SOL     OW24100   9.551   3.815   5.195 -0.3216  0.1760 -0.0032
 4149SOL    HW124101   9.465   3.862   5.174 -0.1893  0.8540  0.9365
 4149SOL    HW224102   9.549   3.722   5.157 -0.9931  0.5920 -0.9925
 4150SOL     OW24103   3.428   7.491   5.173 -0.0007 -0.0914 -1.1903
 4150SOL    HW124104   3.329   7.495   5.159  0.1739 -0.7283 -2.6334
 4150SOL    HW224105   3.451   7.538   5.259 -1.8206 -2.3424  0.5802
 4151SOL     OW24106   9.832   8.820   8.090 -0.3121  0.5790 -0.4964
 4151SOL    HW124107   9.901   8.871   8.040  1.0464  1.4407  2.1885
 4151SOL    HW224108   9.777   8.882   8.145 -2.3398 -0.2596 -1.5151
 4152SOL     OW24109   6.202   7.229   5.477  0.6854  0.7151  0.2328
 4152SOL    HW124110   6.174   7.178   5.396  0.4673 -0.3480  0.9682
 4152SOL    HW224111   6.144   7.205   5.555  1.0949  1.4797  0.7955
 4153SOL     OW24112   4.296   5.736   0.116  0.1820  0.3255  0.1372
 4153SOL    HW124113   4.365   5.794   0.159 -0.2991 -0.6604  2.3012
 4153SOL    HW224114   4.341   5.661   0.067  0.6502 -1.6247  3.4245
 4154SOL     OW24115   9.736   1.190   6.993  0.4422  0.3037  0.6348
 4154SOL    HW124116   9.680   1.136   7.056  0.1739  0.3965  0.4766
 4154SOL    HW224117   9.727   1.287   7.015  0.0202  0.3654  0.1862
 4155SOL     OW24118   2.363   4.845   6.982  0.6130 -0.7508  0.2221
 4155SOL    HW124119   2.421   4.902   7.040 -0.0187 -1.9098  2.0405
 4155SOL    HW224120   2.267   4.867   6.997  0.4709 -0.1624 -1.3733
 4156SOL     OW24121   2.350   3.694   4.185 -0.0917  0.0422 -0.2954
 4156SOL    HW124122   2.346   3.596   4.166 -0.9482 -0.0173  0.1462
 4156SOL    HW224123   2.442   3.719   4.215  0.3102 -0.5033 -1.0543
 4157SOL     OW24124   3.162   1.732   7.792 -0.5941 -0.1711 -0.0014
 4157SOL    HW124125   3.243   1.675   7.807 -0.0862  0.2786 -1.0158
 4157SOL    HW224126   3.083   1.689   7.837  0.7597  0.9269  3.5585
 4158SOL     OW24127   2.226   9.740   2.798 -0.2429  0.0093  0.2024
 4158SOL    HW124128   2.143   9.795   2.789 -1.1116 -1.4216 -0.7517
 4158SOL    HW224129   2.301   9.784   2.748 -1.1265 -0.0444 -1.2052
 4159SOL     OW24130   7.351   8.044   3.863 -0.6474  0.0817  1.0085
 4159SOL    HW124131   7.422   8.110   3.890 -0.8741 -0.4193  2.9157
 4159SOL    HW224132   7.271   8.056   3.922 -1.3843 -0.7009  0.1781
 4160SOL     OW24133   5.362   0.296   3.129 -0.5658  0.6904 -0.3509
 4160SOL    HW124134   5.322   0.373   3.079  0.7797  2.2351  0.8942
 4160SOL    HW224135   5.345   0.307   3.227  0.3307 -0.1797 -0.0845
 4161SOL     OW24136   6.420   9.920   1.051 -0.1396 -0.0326 -0.4824
 4161SOL    HW124137   6.337   9.866   1.061 -1.4790  1.7994 -1.4468
 4161SOL    HW224138   6.489   9.866   1.002 -0.3419 -1.9512  1.2637
 4162SOL     OW24139   2.591   1.752   3.365  0.2008  0.4831 -0.0382
 4162SOL    HW124140   2.560   1.686   3.433 -0.6555  1.0448  0.1268
 4162SOL    HW224141   2.688   1.740   3.348  0.5696  0.7792  1.7813
 4163SOL     OW24142   9.345   1.129   0.569  0.2068  0.0859 -0.0125
 4163SOL    HW124143   9.270   1.195   0.560  0.6480  0.5896  0.0003
 4163SOL    HW224144   9.404   1.156   0.645 -0.2362 -0.9407  0.7109
 4164SOL     OW24145   6.159   1.619   5.361  0.1540  0.5550 -0.4364
 4164SOL    HW124146   6.196   1.564   5.437 -0.5827  0.5180 -0.1033
 4164SOL    HW224147   6.114   1.558   5.296  1.0564  0.5532 -1.0655
 4165SOL     OW24148   6.753   0.869   8.033  0.2084  0.0626 -0.0958
 4165SOL    HW124149   6.698   0.897   7.955  0.9187 -0.5950 -0.8362
 4165SOL    HW224150   6.792   0.778   8.017  2.9118  1.1948 -0.3427
 4166SOL     OW24151   0.549   7.188   4.604 -0.1674 -0.0144  0.5052
 4166SOL    HW124152   0.474   7.148   4.550 -1.3134  0.1995  1.9087
 4166SOL    HW224153   0.515   7.214   4.694  0.6652  3.6607 -0.1404
 4167SOL     OW24154   3.808   8.021   7.321  0.1241 -0.1263  0.1475
 4167SOL    HW124155   3.908   8.023   7.311 -0.0367 -1.0300 -1.8583
 4167SOL    HW224156   3.775   8.112   7.346  1.3807  0.3633  0.0602
 4168SOL     OW24157   1.804   1.631   4.879  0.3255 -0.1330 -0.2125
 4168SOL    HW124158   1.847   1.669   4.798 -1.3332  0.2267 -0.9520
 4168SOL    HW224159   1.871   1.626   4.953  1.0674  2.4982 -0.6556
 4169SOL     OW24160   0.051   4.264   7.200  0.0831  0.0617 -0.2413
 4169SOL    HW124161  -0.043   4.234   7.214 -0.0784 -0.1048 -1.5918
 4169SOL    HW224162   0.113   4.187   7.215 -0.1453 -0.3238 -1.2291
 4170SOL     OW24163   2.273   0.078   7.586  0.4609  0.3560 -0.3842
 4170SOL    HW124164   2.217   0.095   7.668  2.2219 -1.1239  1.1596
 4170SOL    HW224165   2.365   0.114   7.601  1.1553 -1.0769 -1.2175
 4171SOL     OW24166   2.954   9.275   1.766  0.1878 -0.7007  0.2514
 4171SOL    HW124167   2.996   9.366   1.767  1.4987 -1.2570 -1.4488
 4171SOL    HW224168   2.998   9.217   1.834 -0.1669 -0.2674  0.8484
 4172SOL     OW24169   2.155   9.453   0.825 -0.2288  0.3049  0.3854
 4172SOL    HW124170   2.100   9.533   0.799  0.9029  0.6066 -1.1587
 4172SOL    HW224171   2.097   9.371   0.825 -0.9381  0.8011 -0.0929
 4173SOL     OW24172   9.225   7.576   3.331  0.2350 -0.1830  0.2121
 4173SOL    HW124173   9.296   7.571   3.261 -0.2378 -1.6222 -0.1686
 4173SOL    HW224174   9.207   7.485   3.368  0.8130  0.6250  2.5501
 4174SOL     OW24175   7.468   4.402   7.963 -0.1406 -0.4590 -0.5878
 4174SOL    HW124176   7.449   4.308   7.991 -0.4932 -0.2248 -0.0315
 4174SOL    HW224177   7.446   4.412   7.866  1.2419 -1.3182 -1.0006
 4175SOL     OW24178   7.753   5.982   2.398  0.4021 -0.6760 -0.3886
 4175SOL    HW124179   7.780   5.911   2.463 -2.1522 -0.5991  0.8213
 4175SOL    HW224180   7.720   5.940   2.313 -0.8820 -0.9648  0.2374
 4176SOL     OW24181   2.102   0.133   1.390 -0.3201 -0.2530  0.0504
 4176SOL    HW124182   2.080   0.063   1.321 -1.2884  0.8178 -0.7331
 4176SOL    HW224183   2.164   0.200   1.350 -1.8401  1.0377 -0.1555
 4177SOL     OW24184   3.423   3.078   1.208 -0.0430 -0.2915  0.1517
 4177SOL    HW124185   3.433   3.153   1.142 -1.5710 -1.2833 -1.2553
 4177SOL    HW224186   3.466   3.104   1.294  1.5998  1.2144 -1.0847
 4178SOL     OW24187   5.841   0.883   4.857  0.1649 -0.2224  0.4791
 4178SOL    HW124188   5.779   0.811   4.828  0.7057 -0.1519 -0.8821
 4178SOL    HW224189   5.910   0.899   4.786  1.3445  0.1548  1.6808
 4179SOL     OW24190   3.958   7.926   4.107  0.1480  0.8293 -0.2710
 4179SOL    HW124191   4.058   7.928   4.115  0.0850  2.0679  0.3386
 4179SOL    HW224192   3.931   7.975   4.024  0.0809 -0.1454 -0.8292
 4180SOL     OW24193   1.727   6.198   7.814 -0.6158 -0.5165  0.1181
 4180SOL    HW124194   1.792   6.271   7.836  0.6516 -1.4622 -0.4515
 4180SOL    HW224195   1.650   6.236   7.764  0.6929  0.2305 -1.3788
 4181SOL     OW24196   2.211   4.867   2.931  0.2320  0.3610  0.0050
 4181SOL    HW124197   2.284   4.936   2.926 -0.6588  1.3064 -0.0718
 4181SOL    HW224198   2.214   4.822   3.020  0.8162  0.4969  0.0579
 4182SOL     OW24199   7.702   0.791   1.562 -0.0959  0.0331  0.0662
 4182SOL    HW124200   7.673   0.696   1.569  0.8320 -0.2729 -0.2227
 4182SOL    HW224201   7.623   0.851   1.579 -0.2866 -0.7611  2.1453
 4183SOL     OW24202   5.054   9.945   6.041  0.2544 -0.0723 -0.2070
 4183SOL    HW124203   4.987   9.992   5.983 -0.7258 -0.2409  0.7857
 4183SOL    HW224204   5.146   9.967   6.008 -0.1927  2.1155 -0.1300
 4184SOL     OW24205   5.554   9.851   2.621  0.0895 -0.5546 -0.0214
 4184SOL    HW124206   5.612   9.857   2.540 -1.1656  0.2510 -0.8913
 4184SOL    HW224207   5.594   9.788   2.687  0.3022 -2.5182 -1.9678
 4185SOL     OW24208   2.090   8.619   5.469  0.0642 -0.0812 -1.0248
 4185SOL    HW124209   2.064   8.632   5.374  0.0001  3.0912 -0.6301
 4185SOL    HW224210   2.010   8.634   5.528  0.7218  0.7684 -0.3342
 4186SOL     OW24211   9.895   7.089   8.046  0.0505  0.4149  0.2063
 4186SOL    HW124212   9.974   7.032   8.022 -1.0127 -0.4858 -1.2526
 4186SOL    HW224213   9.847   7.048   8.124 -1.1543 -1.1574 -1.3237
 4187SOL     OW24214   5.405   8.192   3.666  0.3805  0.2195 -0.9120
 4187SOL    HW124215   5.382   8.212   3.572 -1.4886 -2.9967 -1.2223
 4187SOL    HW224216   5.481   8.126   3.669  0.2326  0.0662 -0.2000
 4188SOL     OW24217   9.986   8.300   4.131 -0.6026 -0.2358  0.0138
 4188SOL    HW124218  10.014   8.217   4.181 -0.6996  0.3935  1.1254
 4188SOL    HW224219  10.010   8.381   4.184 -2.0813  0.4038 -0.2716
 4189SOL     OW24220   0.268   3.121   2.222  0.0274  0.1211 -0.2871
 4189SOL    HW124221   0.362   3.121   2.255 -0.3343 -0.2723  0.7784
 4189SOL    HW224222   0.218   3.197   2.263  0.1057  0.8677 -1.5438
 4190SOL     OW24223   0.427   1.736   3.630  0.4916  0.1441 -0.3890
 4190SOL    HW124224   0.350   1.702   3.576 -0.1277 -0.3943  0.8232
 4190SOL    HW224225   0.399   1.819   3.679  0.6919 -0.0296  0.0227
 4191SOL     OW24226   2.964   3.137   0.092 -0.0215 -0.0390  0.5927
 4191SOL    HW124227   2.929   3.083   0.015  0.9721 -0.0928  0.1697
 4191SOL    HW224228   2.950   3.086   0.177 -1.4105  0.1574  0.4976
 4192SOL     OW24229   3.780   0.007   1.953  0.0387  0.2191 -0.5139
 4192SOL    HW124230   3.809   0.038   1.862  3.6256  0.8995  0.7547
 4192SOL    HW224231   3.749   0.086   2.007  2.5044  0.6334  0.3847
 4193SOL     OW24232   9.527   5.284   1.729  0.5475  0.2902 -0.0709
 4193SOL    HW124233   9.559   5.367   1.685  1.1808  0.3420  0.4765
 4193SOL    HW224234   9.444   5.252   1.684  0.7112  0.8107 -0.7456
 4194SOL     OW24235   8.649   2.302   0.373 -0.4583 -0.2619  0.2495
 4194SOL    HW124236   8.649   2.395   0.412 -0.4845  0.3102 -1.0951
 4194SOL    HW224237   8.571   2.293   0.311 -0.7018 -1.3369  0.7064
 4195SOL     OW24238   4.218   4.018   0.761  0.0166 -0.3964  0.1099
 4195SOL    HW124239   4.304   3.974   0.785  0.1123 -1.2933 -1.7289
 4195SOL    HW224240   4.163   4.033   0.843  2.2745  0.9839  1.4020
 4196SOL     OW24241   4.235   9.018   0.127 -0.5602 -0.2101  0.4401
 4196SOL    HW124242   4.278   8.937   0.166  1.0092 -0.2437 -1.2790
 4196SOL    HW224243   4.256   9.098   0.183 -1.0360 -0.7830  1.4336
 4197SOL     OW24244   3.727   4.439   1.065  0.1911  0.4219 -0.5078
 4197SOL    HW124245   3.747   4.365   1.128  1.7546 -0.5117 -2.0465
 4197SOL    HW224246   3.647   4.415   1.009 -0.5318  0.7801  0.3682
 4198SOL     OW24247   0.192   8.347   2.922  0.1396 -0.1559  0.4395
 4198SOL    HW124248   0.193   8.421   2.854  0.2675 -0.7831 -0.2437
 4198SOL    HW224249   0.114   8.286   2.903 -0.1313 -0.0390  1.1708
 4199SOL     OW24250   7.613   7.377   5.773 -1.3075 -0.0144 -0.1948
 4199SOL    HW124251   7.633   7.290   5.727  0.4696  0.4808 -0.3666
 4199SOL    HW224252   7.584   7.359   5.867 -0.3678 -0.7584 -0.0455
 4200SOL     OW24253   6.790   2.165   1.072 -0.2778  0.5890  0.4144
 4200SOL    HW124254   6.850   2.244   1.062  0.3549  0.0490 -0.1564
 4200SOL    HW224255   6.709   2.176   1.014 -0.7875  1.3726  1.2759
 4201SOL     OW24256   6.700   7.946   5.204 -0.8445  0.0531 -0.0685
 4201SOL    HW124257   6.633   8.020   5.196 -1.5965 -0.3091  2.4989
 4201SOL    HW224258   6.779   7.978   5.256 -0.8293 -0.7080  0.3916
 4202SOL     OW24259   1.240   2.020   7.516  0.0580  0.1704 -0.1157
 4202SOL    HW124260   1.311   2.042   7.448  1.6484 -1.5333  0.9411
 4202SOL    HW224261   1.204   1.929   7.498 -0.4701  0.2483  0.5234
 4203SOL     OW24262   7.611   3.607   3.938 -0.0098 -0.3994 -0.4447
 4203SOL    HW124263   7.593   3.703   3.917 -1.0658 -0.5190 -0.1149
 4203SOL    HW224264   7.539   3.550   3.898 -1.0273 -0.7937  1.8759
 4204SOL     OW24265   7.865   1.046   2.034  0.1166 -0.1270  0.7840
 4204SOL    HW124266   7.816   0.975   2.084  1.0761  0.2216  2.2311
 4204SOL    HW224267   7.957   1.056   2.071  0.0591  1.7398  0.4691
 4205SOL     OW24268   6.698   9.882   1.445 -0.5365 -0.1902 -0.4792
 4205SOL    HW124269   6.735   9.850   1.358  0.6372  0.2550 -0.1487
 4205SOL    HW224270   6.600   9.900   1.434 -0.4554 -0.3805 -1.6381
 4206SOL     OW24271   4.793   4.577   0.872  0.4280  0.3408 -0.4448
 4206SOL    HW124272   4.778   4.481   0.895  1.0706  0.5154  0.7394
 4206SOL    HW224273   4.879   4.586   0.823  0.5217  0.3498 -0.2795
 4207SOL     OW24274   0.615   2.114   0.035 -0.2087  0.2174 -0.0736
 4207SOL    HW124275   0.521   2.080   0.027  0.1168 -0.7144  0.0422
 4207SOL    HW224276   0.654   2.085   0.122 -0.4004  2.0857  0.6612
 4208SOL     OW24277   8.493   9.675   4.775 -0.0954  0.1523  0.3649
 4208SOL    HW124278   8.437   9.722   4.843 -0.8320  0.6008 -0.5363
 4208SOL    HW224279   8.589   9.700   4.787  0.1180 -1.6924  2.8065
 4209SOL     OW24280   0.784   2.492   7.092 -0.0987  0.1563  0.0830
 4209SOL    HW124281   0.871   2.458   7.057 -1.5084 -2.3599 -1.1170
 4209SOL    HW224282   0.722   2.512   7.016 -1.1460  0.3313  0.9523
 4210SOL     OW24283   7.924   4.996   2.574 -0.0008 -0.2691  0.3435
 4210SOL    HW124284   7.937   5.003   2.475 -0.7342 -0.3203  0.2371
 4210SOL    HW224285   7.836   5.038   2.598 -0.4873 -1.5205  0.7850
 4211SOL     OW24286   1.504   2.346   5.936 -0.3533  0.3198 -0.0331
 4211SOL    HW124287   1.533   2.438   5.962  0.4247  0.6500 -1.9409
 4211SOL    HW224288   1.422   2.321   5.986 -0.0027  1.6580  1.2438
 4212SOL     OW24289   8.868   4.562   7.238  0.0214 -0.1043 -0.1614
 4212SOL    HW124290   8.831   4.597   7.152  1.8474 -0.0142 -0.9342
 4212SOL    HW224291   8.913   4.636   7.288 -1.3461 -0.0790  1.0539
 4213SOL     OW24292   2.861   2.483   7.078 -0.2006  0.5990  0.2861
 4213SOL    HW124293   2.810   2.559   7.039 -3.1328 -0.5222  1.7459
 4213SOL    HW224294   2.879   2.414   7.008 -0.6385  1.0492 -0.2676
 4214SOL     OW24295   4.138   2.688   8.069 -0.1380  0.3147  0.3984
 4214SOL    HW124296   4.223   2.729   8.034 -1.0158  1.0877 -0.8429
 4214SOL    HW224297   4.154   2.591   8.088  1.0936  0.5129  0.4306
 4215SOL     OW24298   1.410   4.346   1.849 -0.5272 -0.0979  0.1880
 4215SOL    HW124299   1.363   4.347   1.761  0.8720 -1.6264 -0.6081
 4215SOL    HW224300   1.358   4.291   1.915 -1.3796  0.7308  0.2165
 4216SOL     OW24301   3.105   4.211   6.748  0.1208 -1.4518  0.1777
 4216SOL    HW124302   3.091   4.253   6.838  0.2647 -0.1515 -0.4022
 4216SOL    HW224303   3.191   4.244   6.709 -0.8457 -0.5854 -1.2370
 4217SOL     OW24304   4.764   3.494   0.230  0.2124  0.2274 -0.2932
 4217SOL    HW124305   4.836   3.558   0.203  2.0549 -1.7770 -0.2104
 4217SOL    HW224306   4.774   3.472   0.327 -1.0064  0.5186 -0.0894
 4218SOL     OW24307   4.618   1.366   6.371  0.0145 -0.0008  0.2621
 4218SOL    HW124308   4.619   1.363   6.271  0.9377 -2.2763  0.3112
 4218SOL    HW224309   4.598   1.275   6.406  1.9532  0.2654  2.1567
 4219SOL     OW24310   3.186   9.162   5.572  0.2288 -1.1605 -0.2620
 4219SOL    HW124311   3.131   9.188   5.493 -0.1981  1.7653  0.9035
 4219SOL    HW224312   3.283   9.161   5.547  0.1387  0.3358 -0.6996
 4220SOL     OW24313   8.239   8.004   5.751 -0.4828 -0.3694  0.4931
 4220SOL    HW124314   8.141   8.022   5.757 -0.5176 -0.3876  0.0382
 4220SOL    HW224315   8.257   7.945   5.672  0.0406  0.7889 -0.2725
 4221SOL     OW24316   0.739   7.268   0.421 -0.7326 -0.3261 -0.2181
 4221SOL    HW124317   0.693   7.223   0.345 -0.3310 -1.0347 -0.0401
 4221SOL    HW224318   0.806   7.206   0.462  0.9002  0.9216 -0.9232
 4222SOL     OW24319   1.058   9.762   6.606  0.1929 -0.0446  0.2581
 4222SOL    HW124320   1.120   9.777   6.530  0.1046  0.0931  0.2136
 4222SOL    HW224321   1.053   9.845   6.662  0.5425 -0.2662  0.6196
 4223SOL     OW24322   2.381   2.462   2.288 -0.1405 -0.7065  0.2978
 4223SOL    HW124323   2.293   2.505   2.304  0.4373  0.7118 -0.2433
 4223SOL    HW224324   2.409   2.476   2.192  0.1892 -2.0445  0.1840
 4224SOL     OW24325   1.873   5.415   3.768 -0.0537 -0.0818  0.3474
 4224SOL    HW124326   1.845   5.331   3.720  1.2536 -1.0133  1.1804
 4224SOL    HW224327   1.886   5.488   3.701  3.3034 -1.7809 -0.9597
 4225SOL     OW24328   0.713   7.325   5.613 -0.4060 -0.2611 -0.0213
 4225SOL    HW124329   0.749   7.256   5.551 -2.1255 -1.9802  0.8215
 4225SOL    HW224330   0.729   7.416   5.576  1.0287 -1.1610 -1.6309
 4226SOL     OW24331   0.704   5.950   4.719 -0.3407 -0.3802  0.3154
 4226SOL    HW124332   0.768   5.916   4.787 -0.3608 -0.8366  0.1058
 4226SOL    HW224333   0.731   5.919   4.628 -0.0475  0.6204  0.0482
 4227SOL     OW24334   6.904   0.379   4.882  0.2989 -0.2600 -0.1297
 4227SOL    HW124335   6.965   0.369   4.961  0.0708  1.0426  0.2220
 4227SOL    HW224336   6.957   0.376   4.798  0.5556 -1.5800  0.0695
 4228SOL     OW24337   2.675   2.709   6.467  0.4804 -0.6490  0.0614
 4228SOL    HW124338   2.627   2.786   6.424  0.3593 -1.3939 -1.1898
 4228SOL    HW224339   2.773   2.720   6.455  0.5138 -0.1441  0.8269
 4229SOL     OW24340   3.491   8.434   3.232  0.1066 -0.2350  0.5611
 4229SOL    HW124341   3.444   8.448   3.319 -2.7619  0.2896 -1.0156
 4229SOL    HW224342   3.428   8.394   3.166  2.6864 -2.1177 -0.8527
 4230SOL     OW24343   6.886   3.552   7.972 -0.3776 -0.5368 -0.1274
 4230SOL    HW124344   6.811   3.618   7.972 -0.6975 -0.8139 -2.8273
 4230SOL    HW224345   6.973   3.601   7.969 -0.5218 -0.2279  0.5941
 4231SOL     OW24346   5.795   8.529   6.448  0.0029  0.3751 -0.4001
 4231SOL    HW124347   5.782   8.598   6.519 -1.8776 -0.1653 -0.1988
 4231SOL    HW224348   5.884   8.485   6.461 -0.1300  0.5714  1.3777
 4232SOL     OW24349   1.540   2.821   7.606 -0.1078  0.3664  0.0612
 4232SOL    HW124350   1.622   2.778   7.567 -0.5241 -0.2292 -0.1847
 4232SOL    HW224351   1.500   2.883   7.538 -0.2440  0.1316 -0.0747
 4233SOL     OW24352   2.145   2.352   1.972  0.1477 -0.1540  0.7701
 4233SOL    HW124353   2.058   2.311   2.002  0.1337 -0.6967 -0.0031
 4233SOL    HW224354   2.126   2.427   1.909  0.2770 -1.0299 -0.3149
 4234SOL     OW24355   9.513   2.992   2.734  0.2453  0.1654  0.0732
 4234SOL    HW124356   9.592   3.054   2.739 -0.1755  0.7817 -0.8512
 4234SOL    HW224357   9.538   2.911   2.682  0.4730  0.0393  0.3736
 4235SOL     OW24358   7.628   1.705   4.915 -0.4051 -0.2721  0.1983
 4235SOL    HW124359   7.726   1.687   4.909 -0.4888 -0.4616 -0.7097
 4235SOL    HW224360   7.587   1.646   4.985  0.0086 -0.7206  0.0659
 4236SOL     OW24361   0.032   7.018   3.388  0.2908  0.4153  0.0247
 4236SOL    HW124362   0.022   7.086   3.460 -1.3074  1.1784 -0.8917
 4236SOL    HW224363   0.033   6.926   3.428  2.8782  0.9501  1.3136
 4237SOL     OW24364   1.134   4.394   5.841 -0.0138  0.1963 -0.2088
 4237SOL    HW124365   1.068   4.352   5.904  0.5156  1.0886  0.9706
 4237SOL    HW224366   1.085   4.451   5.776 -0.4733  0.3060  0.2238
 4238SOL     OW24367   0.304   7.309   6.392  0.4855 -0.3106 -0.0556
 4238SOL    HW124368   0.340   7.231   6.341 -1.8026 -0.6265 -1.2670
 4238SOL    HW224369   0.220   7.282   6.440  0.4083  1.0576  0.6106
 4239SOL     OW24370   1.287   3.854   1.146  0.4100  0.2880 -0.0804
 4239SOL    HW124371   1.237   3.921   1.090  2.1127  0.6413 -1.2278
 4239SOL    HW224372   1.382   3.883   1.154  0.8302 -1.2689  0.6393
 4240SOL     OW24373   2.769   4.036   5.431  0.1701  0.0923  0.3182
 4240SOL    HW124374   2.808   4.046   5.340  2.6724 -0.6558  1.2711
 4240SOL    HW224375   2.719   3.950   5.436 -1.5348  0.9893 -0.8686
 4241SOL     OW24376   4.560   9.308   5.926 -0.3609  0.1247  0.9881
 4241SOL    HW124377   4.590   9.213   5.920  0.8418  0.5134  0.6972
 4241SOL    HW224378   4.604   9.362   5.853 -0.0494  1.1538  1.9216
 4242SOL     OW24379   7.318   3.573   4.687 -0.7328 -0.1295 -0.1999
 4242SOL    HW124380   7.403   3.554   4.736 -2.2217 -1.3496  1.9891
 4242SOL    HW224381   7.338   3.586   4.589  1.9304 -0.4871  0.2640
 4243SOL     OW24382   0.880   4.333   7.361  0.3362 -0.2519  0.3078
 4243SOL    HW124383   0.910   4.369   7.449  1.5686 -3.1116  1.1174
 4243SOL    HW224384   0.959   4.320   7.302  0.0782 -2.5185  0.4079
 4244SOL     OW24385   4.438   3.988   6.794  0.2889 -0.5195  0.7144
 4244SOL    HW124386   4.459   4.043   6.713 -0.4283  0.1096  0.9476
 4244SOL    HW224387   4.410   3.896   6.767 -0.8534 -0.0269  0.1956
 4245SOL     OW24388   9.564   1.586   0.921  0.5013 -0.4766  0.4650
 4245SOL    HW124389   9.601   1.676   0.944 -1.7883  0.2502  1.4475
 4245SOL    HW224390   9.475   1.575   0.965  0.2287 -2.7665 -0.6187
 4246SOL     OW24391   1.802   2.655   1.929 -0.2338 -0.3113  0.1791
 4246SOL    HW124392   1.872   2.713   1.887  0.0956 -2.5744 -2.5422
 4246SOL    HW224393   1.712   2.683   1.895 -0.1683 -0.6858 -0.3136
 4247SOL     OW24394   8.373   0.874   5.753  0.7154  0.0365  0.3101
 4247SOL    HW124395   8.286   0.829   5.775  0.0949  0.8116 -0.5245
 4247SOL    HW224396   8.391   0.864   5.655  2.1240 -1.0772  0.6711
 4248SOL     OW24397   2.321   6.568   3.116  0.1524  0.6171 -0.2138
 4248SOL    HW124398   2.295   6.487   3.169 -0.1982 -0.0652 -1.4195
 4248SOL    HW224399   2.242   6.629   3.107 -0.3185 -0.1754 -1.5714
 4249SOL     OW24400   4.498   6.945   2.525 -0.5114  0.1615  0.2470
 4249SOL    HW124401   4.564   6.991   2.466 -0.9842  0.6405  0.0905
 4249SOL    HW224402   4.545   6.907   2.605  0.0626 -0.1308 -0.2257
 4250SOL     OW24403   1.197   6.952   3.982 -0.2968 -0.1322 -0.0032
 4250SOL    HW124404   1.196   7.050   4.002  0.2308 -0.5076  1.9631
 4250SOL    HW224405   1.104   6.921   3.962 -0.3487  0.9160 -1.5006
 4251SOL     OW24406   9.168   9.064   2.288  0.0045  0.7809 -0.1207
 4251SOL    HW124407   9.224   9.006   2.228  1.5967  1.5685  0.5964
 4251SOL    HW224408   9.197   9.052   2.383 -1.4765  0.7229  0.3459
 4252SOL     OW24409   5.753   0.330   5.029  0.3244  0.4852 -0.4967
 4252SOL    HW124410   5.825   0.272   5.066  0.3719 -0.4146 -1.9498
 4252SOL    HW224411   5.665   0.304   5.068  0.2186 -1.1922 -1.7950
 4253SOL     OW24412   2.851   8.161   1.234  0.3077  0.2223 -0.1087
 4253SOL    HW124413   2.905   8.227   1.285  1.1189 -0.1176 -0.5223
 4253SOL    HW224414   2.777   8.208   1.186 -0.1364  0.6071  0.9533
 4254SOL     OW24415   5.514   8.973   5.233  0.1603  0.6713 -0.1574
 4254SOL    HW124416   5.516   9.066   5.271 -0.8062  0.4175  0.5332
 4254SOL    HW224417   5.553   8.909   5.299 -1.1792  0.2843  0.2831
 4255SOL     OW24418   5.635   8.312   3.097  0.3483  0.1736 -0.3641
 4255SOL    HW124419   5.729   8.346   3.100 -0.2628  2.1259 -1.7946
 4255SOL    HW224420   5.628   8.238   3.031  0.8699  0.0546 -0.2877
 4256SOL     OW24421   3.313   2.719   3.645 -0.0293  0.1071  0.7479
 4256SOL    HW124422   3.370   2.648   3.687 -0.0311 -1.0936 -1.2221
 4256SOL    HW224423   3.354   2.809   3.663  2.7148 -0.7355 -0.8120
 4257SOL     OW24424   1.714   5.213   6.882 -0.0990  0.1798  0.0233
 4257SOL    HW124425   1.625   5.168   6.875  0.8462 -2.1397  1.9345
 4257SOL    HW224426   1.722   5.258   6.971 -0.1378  2.2096 -0.9714
 4258SOL     OW24427   7.589   4.663   5.867 -0.3865  0.7117 -0.0917
 4258SOL    HW124428   7.663   4.596   5.866  0.5941  1.7918 -0.9051
 4258SOL    HW224429   7.519   4.635   5.801  0.4049  0.8991 -1.0273
 4259SOL     OW24430   2.227   1.216   0.566 -0.3266 -0.0096 -0.1093
 4259SOL    HW124431   2.256   1.135   0.617 -1.4110  1.0589  2.2582
 4259SOL    HW224432   2.231   1.196   0.468  0.8127 -2.4370  0.3872
 4260SOL     OW24433   0.248   4.413   4.875  0.0682  0.4273 -0.8787
 4260SOL    HW124434   0.299   4.329   4.854  2.5437  1.7252 -0.2541
 4260SOL    HW224435   0.272   4.484   4.809  1.6070  2.0466  1.3753
 4261SOL     OW24436   5.820   9.381   6.967 -0.0864 -0.4669  0.1147
 4261SOL    HW124437   5.891   9.367   7.036  0.8882 -0.0110 -0.7735
 4261SOL    HW224438   5.732   9.349   7.002  0.6514 -1.5188  1.0438
 4262SOL     OW24439   1.707   5.340   6.307 -0.2910 -0.1131 -0.2069
 4262SOL    HW124440   1.611   5.323   6.331  0.2624 -2.0661  0.7270
 4262SOL    HW224441   1.757   5.254   6.308  1.8475  1.1157  0.9311
 4263SOL     OW24442   7.730   6.518   3.939 -0.7809 -0.2743 -0.5114
 4263SOL    HW124443   7.658   6.540   3.873 -0.7108 -1.2960 -0.9255
 4263SOL    HW224444   7.769   6.429   3.917  1.1804  0.6324 -0.7818
 4264SOL     OW24445   2.476   0.881   6.261 -0.0471  0.5907  0.1525
 4264SOL    HW124446   2.449   0.786   6.271 -3.2518  1.4955  0.7381
 4264SOL    HW224447   2.504   0.917   6.350  2.1334 -0.0595 -0.2569
 4265SOL     OW24448   8.944   4.718   4.313  0.3054  0.0872 -0.2088
 4265SOL    HW124449   8.904   4.730   4.222  3.5986  1.3762 -1.5918
 4265SOL    HW224450   8.964   4.808   4.353  1.7425 -0.4946  0.4271
 4266SOL     OW24451   8.455   0.792   3.445 -1.2802  0.5458 -0.1077
 4266SOL    HW124452   8.436   0.753   3.535  0.3268 -0.5849 -0.2304
 4266SOL    HW224453   8.485   0.887   3.456  0.6401 -0.1247  0.7301
 4267SOL     OW24454   6.940   8.290   4.794  0.3415 -0.3211  0.3982
 4267SOL    HW124455   7.001   8.213   4.776 -0.7396 -1.2075  0.4869
 4267SOL    HW224456   6.860   8.258   4.846 -0.2200  0.8121  0.2489
 4268SOL     OW24457   2.102   8.125   2.266 -0.4809 -0.2622 -0.0046
 4268SOL    HW124458   2.018   8.120   2.210  1.0832  1.5911 -2.6398
 4268SOL    HW224459   2.151   8.038   2.259  0.0719  0.1923 -2.2109
 4269SOL     OW24460   3.621   4.291   6.227  0.2059  0.3210  0.2139
 4269SOL    HW124461   3.685   4.368   6.230  1.5779 -0.8456  1.6433
 4269SOL    HW224462   3.571   4.287   6.314 -0.5662  0.1918 -0.2367
 4270SOL     OW24463   1.741   7.883   3.615  0.5066 -0.3148  0.2206
 4270SOL    HW124464   1.676   7.808   3.630  0.9743 -0.9268 -0.7441
 4270SOL    HW224465   1.824   7.866   3.667 -0.1836  0.5883  1.6447
 4271SOL     OW24466   8.760   9.824   2.363 -0.2411 -0.4090  0.4443
 4271SOL    HW124467   8.776   9.918   2.395  0.9441 -0.7636  0.9156
 4271SOL    HW224468   8.844   9.788   2.322 -1.1683 -0.6689 -1.3120
 4272SOL     OW24469   7.110   7.436   6.388 -0.4049 -0.7558  0.1607
 4272SOL    HW124470   7.141   7.415   6.481 -2.9981 -1.7933  0.8618
 4272SOL    HW224471   7.171   7.393   6.322  1.3161 -0.2446  1.3779
 4273SOL     OW24472   6.717   8.832   6.445 -0.0066  0.1142  0.0138
 4273SOL    HW124473   6.800   8.789   6.480  0.6003  1.9696  0.8939
 4273SOL    HW224474   6.674   8.886   6.517 -1.6956 -0.3821 -0.5974
 4274SOL     OW24475   5.008   0.882   5.961 -0.2665  0.0313  0.5674
 4274SOL    HW124476   5.051   0.955   6.015 -1.9717 -1.0147  3.4557
 4274SOL    HW224477   4.928   0.918   5.914 -0.3701  0.3146  0.9568
 4275SOL     OW24478   5.987   5.874   8.158  0.0825  0.1006  1.2424
 4275SOL    HW124479   5.931   5.957   8.166  1.0956  0.7881  1.3328
 4275SOL    HW224480   6.084   5.899   8.163  0.4307 -0.9502  0.1009
 4276SOL     OW24481   1.435   6.121   5.026  0.6620 -0.4719  0.1551
 4276SOL    HW124482   1.411   6.043   5.083  0.9939 -1.8503 -1.5259
 4276SOL    HW224483   1.421   6.206   5.077 -4.5762 -1.3225  0.4224
 4277SOL     OW24484   8.765   4.105   5.053 -0.5309 -0.1742 -0.2577
 4277SOL    HW124485   8.674   4.124   5.018 -0.5099 -1.3971 -1.0234
 4277SOL    HW224486   8.810   4.038   4.993  1.1393  0.9572 -0.2942
 4278SOL     OW24487   7.564   8.335   5.049 -0.0174  0.0158  0.3090
 4278SOL    HW124488   7.571   8.401   4.974 -0.3195  0.3038  0.5299
 4278SOL    HW224489   7.498   8.369   5.116  0.3518 -0.1739  0.7714
 4279SOL     OW24490   6.334   0.975   0.648  0.3323  0.2360 -0.6902
 4279SOL    HW124491   6.306   1.071   0.643 -0.6421 -0.0132 -0.3606
 4279SOL    HW224492   6.430   0.969   0.675 -0.1309  1.1008  1.2524
 4280SOL     OW24493   9.576   3.585   4.400 -0.2370 -0.5925 -0.4501
 4280SOL    HW124494   9.610   3.606   4.309  0.1508 -3.5741 -1.0460
 4280SOL    HW224495   9.612   3.497   4.429  1.0825  1.0879  3.3617
 4281SOL     OW24496   8.899   8.370   5.821 -0.2922  0.2040 -0.2239
 4281SOL    HW124497   8.802   8.379   5.796 -0.3110 -2.1045 -1.0399
 4281SOL    HW224498   8.943   8.460   5.816 -2.3207  1.2284 -0.1145
 4282SOL     OW24499   8.063   3.371   4.506  0.2048 -0.1441 -0.1362
 4282SOL    HW124500   8.075   3.389   4.604  0.5854 -0.2146 -0.1703
 4282SOL    HW224501   8.152   3.376   4.460 -0.0893  0.7511 -0.6190
 4283SOL     OW24502   1.625   3.514   4.443 -0.4115  0.0021 -0.6325
 4283SOL    HW124503   1.554   3.530   4.511  1.1822 -2.5527  1.7363
 4283SOL    HW224504   1.596   3.439   4.383  0.0254 -0.6964  0.0152
 4284SOL     OW24505   8.796   2.539   6.810 -0.2630 -0.1328 -0.3979
 4284SOL    HW124506   8.811   2.495   6.722 -0.8995  0.0721 -0.6068
 4284SOL    HW224507   8.712   2.594   6.807  0.6236  1.2727 -0.2213
 4285SOL     OW24508   5.631   9.332   5.881 -0.6232  0.3321 -0.2187
 4285SOL    HW124509   5.596   9.426   5.886 -0.7716  0.3543 -1.4886
 4285SOL    HW224510   5.611   9.294   5.790 -0.3498 -0.8443  0.2095
 4286SOL     OW24511   1.087   6.099   5.188  0.6757 -0.0004  0.0043
 4286SOL    HW124512   0.991   6.076   5.177  0.6497  0.8258 -1.7060
 4286SOL    HW224513   1.115   6.082   5.282 -0.8248 -1.3755  0.2218
 4287SOL     OW24514   5.853   5.057   1.381 -0.1899 -0.2528 -0.0794
 4287SOL    HW124515   5.870   4.959   1.398 -0.4454 -0.1220  0.9944
 4287SOL    HW224516   5.777   5.067   1.318  0.2196 -0.7629 -0.6565
 4288SOL     OW24517   9.553   6.095   2.035  0.2872 -0.4289  1.1458
 4288SOL    HW124518   9.517   6.156   1.964 -0.0635 -0.8782  0.9405
 4288SOL    HW224519   9.552   6.144   2.123  0.3859  0.0025  0.9075
 4289SOL     OW24520   7.411   2.104   3.545  0.2518 -0.1971  0.1326
 4289SOL    HW124521   7.394   2.150   3.457  0.0492  1.1401  0.8590
 4289SOL    HW224522   7.405   2.005   3.532 -1.5175  0.0297 -1.0069
 4290SOL     OW24523   8.428   0.090   7.566 -0.1172  0.3410  0.3589
 4290SOL    HW124524   8.497   0.026   7.531 -2.2057 -1.3316 -0.8333
 4290SOL    HW224525   8.363   0.041   7.623 -0.2046  1.9477  1.6762
 4291SOL     OW24526   1.751   2.901   2.365  0.2010 -0.0315  0.0110
 4291SOL    HW124527   1.736   2.807   2.395  0.3140  0.0615  0.3593
 4291SOL    HW224528   1.767   2.902   2.266  1.7059 -0.5517  0.2340
 4292SOL     OW24529   6.995   8.483   5.734 -0.5226 -0.2679  0.4424
 4292SOL    HW124530   7.064   8.453   5.668  1.8065 -0.4859  2.8924
 4292SOL    HW224531   6.963   8.575   5.709  0.4116 -0.3072 -0.9400
 4293SOL     OW24532   5.118   2.012   7.380 -0.7026 -0.2160 -0.5176
 4293SOL    HW124533   5.081   2.088   7.434 -1.4504 -0.9913  0.0652
 4293SOL    HW224534   5.081   1.925   7.414 -0.0178 -0.8285 -1.3159
 4294SOL     OW24535   9.510   3.385   0.910 -0.4047 -0.0797  0.2745
 4294SOL    HW124536   9.470   3.437   0.986 -0.7842  0.4908 -0.3072
 4294SOL    HW224537   9.575   3.444   0.862  0.1530 -0.5805  0.4133
 4295SOL     OW24538   1.215   6.976   3.225 -0.0852  0.1867  0.3327
 4295SOL    HW124539   1.253   6.977   3.318  0.6553  0.6161  0.0277
 4295SOL    HW224540   1.122   7.015   3.227  0.7833  2.3446  0.5348
 4296SOL     OW24541   8.546   2.268   3.059  0.6285 -0.0086  0.5338
 4296SOL    HW124542   8.636   2.240   3.094  1.1779  0.4766 -0.4734
 4296SOL    HW224543   8.557   2.347   2.998 -0.2425 -1.1961 -1.1954
 4297SOL     OW24544   1.657   3.433   7.229 -0.6713  0.6309  0.3720
 4297SOL    HW124545   1.563   3.414   7.201 -0.4212 -0.2041  0.0818
 4297SOL    HW224546   1.716   3.436   7.148 -0.5466  1.7442  0.5001
 4298SOL     OW24547   3.331   9.437   2.124  0.1244  0.0339 -0.1777
 4298SOL    HW124548   3.303   9.422   2.029 -0.2344 -0.6456  0.0354
 4298SOL    HW224549   3.330   9.535   2.143 -0.5950  0.1153 -0.6282
 4299SOL     OW24550   0.487   6.222   1.165  0.1565  0.1316  0.2177
 4299SOL    HW124551   0.537   6.153   1.218  0.3888  0.1435  0.0184
 4299SOL    HW224552   0.546   6.254   1.090  1.4551  3.2226  2.4773
 4300SOL     OW24553   4.102   5.530   6.784  0.0078 -0.7032 -0.4843
 4300SOL    HW124554   4.202   5.539   6.790  0.1129 -1.7681 -0.6061
 4300SOL    HW224555   4.075   5.439   6.815 -1.1277  0.2987  1.5825
 4301SOL     OW24556   8.027   1.634   1.657 -0.2582 -0.2992  0.2437
 4301SOL    HW124557   8.001   1.707   1.720 -0.7280 -0.1241 -0.1462
 4301SOL    HW224558   7.961   1.630   1.581  0.5363 -0.2243 -0.4616
 4302SOL     OW24559   3.486   0.872   1.897 -0.2690 -0.3065  0.2399
 4302SOL    HW124560   3.478   0.783   1.942 -0.0589 -0.5445 -0.1924
 4302SOL    HW224561   3.420   0.879   1.822  0.4226 -0.5076 -0.3961
 4303SOL     OW24562   1.236   1.866   1.686  0.5859 -0.1138 -0.5565
 4303SOL    HW124563   1.293   1.912   1.618  0.5336  0.3653 -0.2713
 4303SOL    HW224564   1.140   1.887   1.670  0.6330  0.6228  0.1443
 4304SOL     OW24565   3.592   4.634   4.779  0.2241  0.3807  0.1807
 4304SOL    HW124566   3.616   4.727   4.753 -1.1854  0.2567 -1.6440
 4304SOL    HW224567   3.672   4.588   4.819  1.1965  2.0141  0.1408
 4305SOL     OW24568   4.497   7.877   6.825 -0.1816 -0.2906 -0.0957
 4305SOL    HW124569   4.571   7.878   6.758 -0.0432 -0.7772  0.0497
 4305SOL    HW224570   4.410   7.894   6.779  0.1232  1.2087 -0.1339
 4306SOL     OW24571   0.130   3.316   0.986  0.2749 -0.0278  0.5193
 4306SOL    HW124572   0.228   3.330   0.981  0.0336  0.8815 -2.4622
 4306SOL    HW224573   0.101   3.254   0.913 -1.1106 -1.9019  2.5983
 4307SOL     OW24574   0.456   5.730   7.557 -0.2592 -0.3076  0.2134
 4307SOL    HW124575   0.406   5.644   7.550 -0.0374 -0.3417 -1.0256
 4307SOL    HW224576   0.542   5.714   7.607 -0.9849 -0.4523  1.4459
 4308SOL     OW24577   1.829   6.601   4.965  0.4892  0.3649 -0.1011
 4308SOL    HW124578   1.896   6.674   4.974  0.4927  0.2652  0.6481
 4308SOL    HW224579   1.763   6.606   5.040 -0.7981  0.9274 -1.2409
 4309SOL     OW24580   8.117   6.033   7.712  0.0682 -0.3677  0.0639
 4309SOL    HW124581   8.119   5.958   7.778 -0.7631  1.3939  2.1392
 4309SOL    HW224582   8.204   6.083   7.716 -1.0425  1.4717  1.9111
 4310SOL     OW24583   3.793   3.854   1.776  0.1600  0.5096  0.0080
 4310SOL    HW124584   3.757   3.885   1.864 -1.2037 -1.5572  0.2166
 4310SOL    HW224585   3.717   3.841   1.712  1.0913  1.4621 -1.3066
 4311SOL     OW24586   1.790   1.804   4.468 -0.4641 -0.4102 -0.9823
 4311SOL    HW124587   1.712   1.856   4.434 -0.9649 -0.9932 -0.7326
 4311SOL    HW224588   1.855   1.790   4.393 -2.3007 -3.0490 -2.1838
 4312SOL     OW24589   8.630   9.371   2.597 -0.4307  0.2381  0.2461
 4312SOL    HW124590   8.546   9.348   2.547 -0.6046  1.5785 -0.1145
 4312SOL    HW224591   8.646   9.470   2.591  2.0840 -0.2024 -1.1495
 4313SOL     OW24592   0.315   9.930   3.836  0.3563 -0.2083 -0.1410
 4313SOL    HW124593   0.371   9.856   3.800 -0.8303 -1.5627  0.7283
 4313SOL    HW224594   0.355   9.964   3.922  0.6102 -0.2021 -0.2611
 4314SOL     OW24595   6.238   4.949   7.489  0.6787 -0.4094  0.4144
 4314SOL    HW124596   6.163   5.011   7.510  1.3829  0.5572  0.1281
 4314SOL    HW224597   6.219   4.859   7.527 -0.8361 -0.3027 -0.0623
 4315SOL     OW24598   2.811   0.193   7.440 -0.1416 -0.1776 -0.4117
 4315SOL    HW124599   2.728   0.205   7.495  0.7033  0.3294  0.7753
 4315SOL    HW224600   2.841   0.281   7.404 -0.3483 -0.4205 -1.1867
 4316SOL     OW24601   3.938   0.736   4.728 -0.5989 -0.1325 -0.1169
 4316SOL    HW124602   3.845   0.750   4.694 -0.6110 -0.3968 -0.1902
 4316SOL    HW224603   4.001   0.732   4.651 -0.8895 -2.8775 -0.2598
 4317SOL     OW24604   1.502   4.273   3.703  0.0068  0.2621 -0.0768
 4317SOL    HW124605   1.478   4.183   3.740  0.8913 -0.3642 -1.0083
 4317SOL    HW224606   1.472   4.279   3.608  0.1094  0.8934 -0.0748
 4318SOL     OW24607   4.097   5.387   7.972 -0.0288  0.3975  0.0391
 4318SOL    HW124608   4.052   5.358   8.057 -0.1640  2.0961  0.5522
 4318SOL    HW224609   4.032   5.379   7.896 -0.8160  1.6120  0.5724
 4319SOL     OW24610   1.151   2.966   5.918  0.5233  0.0992 -0.2961
 4319SOL    HW124611   1.183   3.025   5.992 -0.5992  0.1319  0.1744
 4319SOL    HW224612   1.152   2.871   5.948 -0.2746  0.1460 -0.1049
 4320SOL     OW24613   0.260   8.464   1.873 -0.1356 -0.4598  0.5963
 4320SOL    HW124614   0.359   8.474   1.878 -0.3745  2.9956 -0.2450
 4320SOL    HW224615   0.237   8.389   1.811  1.9055 -2.0105  1.6312
 4321SOL     OW24616   4.198   2.225   7.784  0.1574 -0.0327  0.6105
 4321SOL    HW124617   4.151   2.313   7.785 -1.1044 -0.6881  2.3666
 4321SOL    HW224618   4.132   2.151   7.769  1.0153 -0.7680  0.3723
 4322SOL     OW24619   0.940   2.760   5.388  0.7684  0.0511  0.2561
 4322SOL    HW124620   0.923   2.822   5.312  0.3007 -0.3043  0.0634
 4322SOL    HW224621   1.021   2.790   5.439  1.0615  0.3106 -0.3573
 4323SOL     OW24622   7.955   0.801   4.290 -0.2274  0.5564  0.2231
 4323SOL    HW124623   7.878   0.863   4.304 -2.1467 -1.3029 -1.9253
 4323SOL    HW224624   7.977   0.795   4.193  0.0165 -2.0103  0.4019
 4324SOL     OW24625   4.663   1.717   0.248  0.2843 -0.0906  0.2352
 4324SOL    HW124626   4.698   1.780   0.178  1.6515  0.2883  1.2459
 4324SOL    HW224627   4.668   1.761   0.338 -0.7581 -0.8553  0.6714
 4325SOL     OW24628   9.399   7.890   6.565 -0.4017 -0.8820  0.1293
 4325SOL    HW124629   9.321   7.871   6.625 -0.4894  1.0612  0.6959
 4325SOL    HW224630   9.461   7.954   6.612 -0.1033  0.0843 -1.5574
 4326SOL     OW24631   8.019   7.346   4.525  0.2609  0.0940 -0.6576
 4326SOL    HW124632   8.027   7.262   4.578  1.1504 -0.2797 -1.3702
 4326SOL    HW224633   7.940   7.398   4.557  0.4339 -0.4060  0.6337
 4327SOL     OW24634   2.919   0.309   1.152 -0.2879 -0.2020  0.0203
 4327SOL    HW124635   2.841   0.333   1.210 -1.8335 -2.7887 -0.9286
 4327SOL    HW224636   2.900   0.224   1.103  2.1413  0.4258 -2.1336
 4328SOL     OW24637   0.836   0.882   1.967 -0.0491 -0.0025  0.1974
 4328SOL    HW124638   0.777   0.919   1.895 -0.4411  0.5401  0.7912
 4328SOL    HW224639   0.927   0.863   1.930 -0.8872 -1.8647 -1.0120
 4329SOL     OW24640   3.413   8.012   2.229  0.1859  0.1376 -0.5070
 4329SOL    HW124641   3.447   8.064   2.307  0.3383 -1.0760  0.2440
 4329SOL    HW224642   3.314   7.999   2.239  0.3768 -0.9755  0.0756
 4330SOL     OW24643   2.372   2.603   3.572  0.3009 -0.0457 -0.5159
 4330SOL    HW124644   2.451   2.663   3.581  0.4073 -0.0658 -1.3074
 4330SOL    HW224645   2.289   2.659   3.564  0.2630 -0.0226 -0.0036
 4331SOL     OW24646   1.577   0.494   6.547 -0.8303  0.2634 -0.1524
 4331SOL    HW124647   1.617   0.576   6.508 -0.3758  0.0006 -0.2502
 4331SOL    HW224648   1.479   0.506   6.559 -1.1613 -0.0626 -2.4164
 4332SOL     OW24649   3.715   8.952   6.473  0.0537  0.3515 -0.6456
 4332SOL    HW124650   3.794   9.009   6.451  1.4400 -1.1917  0.2204
 4332SOL    HW224651   3.672   8.985   6.557  1.1049 -0.1013  0.0867
 4333SOL     OW24652   9.725   0.222   1.471  0.4243 -0.4635 -0.4253
 4333SOL    HW124653   9.690   0.191   1.559 -1.0971  0.6150 -0.6331
 4333SOL    HW224654   9.786   0.152   1.433 -1.0050 -2.0928  0.2228
 4334SOL     OW24655   0.237   2.555   3.815  0.0369  0.0322  0.1481
 4334SOL    HW124656   0.143   2.564   3.848 -0.0445  0.2915 -0.1535
 4334SOL    HW224657   0.237   2.546   3.716  0.2124 -1.8706  0.3029
 4335SOL     OW24658   1.690   3.385   4.759  0.0707 -0.1684 -0.4986
 4335SOL    HW124659   1.673   3.380   4.857 -1.1083  1.6688 -0.5848
 4335SOL    HW224660   1.604   3.375   4.709  0.5829 -0.5230 -1.3220
 4336SOL     OW24661   0.996   4.732   0.162 -0.1329  0.2538 -0.3195
 4336SOL    HW124662   0.994   4.633   0.180  1.1369 -0.2512 -2.7580
 4336SOL    HW224663   0.996   4.781   0.249 -0.4669 -1.8901  0.9463
 4337SOL     OW24664   7.939   8.570   5.384  0.1979  0.4550  0.1271
 4337SOL    HW124665   7.854   8.574   5.437 -0.1728  1.2001 -0.5109
 4337SOL    HW224666   7.961   8.662   5.350  0.0254 -0.1485 -1.6565
 4338SOL     OW24667   0.379   6.213   4.657  0.3175  0.2066  0.1061
 4338SOL    HW124668   0.391   6.187   4.562  0.8352  0.4589  0.1019
 4338SOL    HW224669   0.427   6.149   4.716 -0.7860 -0.4970  0.2537
 4339SOL     OW24670   9.852   9.722   3.443 -0.3627 -0.4668 -0.1158
 4339SOL    HW124671   9.848   9.794   3.512 -3.3479  0.6722 -1.3972
 4339SOL    HW224672   9.786   9.650   3.466 -2.5488  0.6937 -2.5501
 4340SOL     OW24673   7.921   8.017   6.615 -0.2168  0.2543 -0.0292
 4340SOL    HW124674   7.968   8.029   6.702 -0.0120  0.4137 -0.1633
 4340SOL    HW224675   7.823   8.034   6.627 -0.1214  0.7400  0.0664
 4341SOL     OW24676   6.270   3.654   1.420  0.4468  0.5701  0.1982
 4341SOL    HW124677   6.313   3.581   1.473 -1.3360 -0.5430  0.1572
 4341SOL    HW224678   6.194   3.693   1.473  1.1992  2.2062  0.0983
 4342SOL     OW24679   8.381   7.424   0.055 -0.2175  0.1149  0.2549
 4342SOL    HW124680   8.391   7.517   0.018  1.5875  0.2417  1.0188
 4342SOL    HW224681   8.304   7.422   0.118 -0.7467  0.9183 -0.3567
 4343SOL     OW24682   0.351   1.479   0.952 -0.0957  0.4119  0.0880
 4343SOL    HW124683   0.393   1.419   0.884  1.6117  1.7270 -0.0526
 4343SOL    HW224684   0.319   1.425   1.029  0.6323 -0.7722 -0.4191
 4344SOL     OW24685   7.664   6.435   4.729 -0.3352  0.2667  0.3622
 4344SOL    HW124686   7.586   6.382   4.759 -0.2015  0.1395  0.4852
 4344SOL    HW224687   7.743   6.414   4.787 -0.0825  0.0300 -0.0675
 4345SOL     OW24688   9.898   4.426   3.644 -0.8403  0.4023  0.5849
 4345SOL    HW124689   9.943   4.357   3.701 -0.4319  0.9170  0.8925
 4345SOL    HW224690   9.812   4.454   3.687 -1.5298 -0.6641 -0.0595
 4346SOL     OW24691   8.710   5.615   0.176 -0.4749 -0.1487 -0.8661
 4346SOL    HW124692   8.777   5.543   0.162 -0.1684 -0.4148  1.8163
 4346SOL    HW224693   8.715   5.680   0.100  1.3497 -1.2781 -1.7452
 4347SOL     OW24694   8.442   6.977   4.516 -0.2274  0.1442  0.0291
 4347SOL    HW124695   8.423   7.071   4.485  1.6861  0.3458 -0.6160
 4347SOL    HW224696   8.479   6.924   4.440 -0.4483 -0.8901  0.6332
 4348SOL     OW24697   4.466   3.293   3.400  0.0887 -0.0966 -0.5239
 4348SOL    HW124698   4.393   3.329   3.459  0.3243  1.5860 -1.2115
 4348SOL    HW224699   4.477   3.195   3.416  0.5879  0.4231  2.6802
 4349SOL     OW24700   0.649   1.443   6.161 -0.3380 -0.5750 -0.6033
 4349SOL    HW124701   0.602   1.427   6.074 -1.2491  1.8394 -0.6039
 4349SOL    HW224702   0.727   1.504   6.146  0.1910 -1.0700  0.1027
 4350SOL     OW24703   7.784   5.773   2.691 -0.3222 -0.5302  0.7312
 4350SOL    HW124704   7.806   5.859   2.737 -0.8265 -0.1607  0.2930
 4350SOL    HW224705   7.853   5.753   2.622 -0.5336 -0.1581  0.4088
 4351SOL     OW24706   8.204   1.511   7.906  0.6524 -0.1588  0.0763
 4351SOL    HW124707   8.252   1.535   7.991  1.2497 -1.4501  0.1132
 4351SOL    HW224708   8.158   1.592   7.870  1.5699  0.7348  0.8818
 4352SOL     OW24709   3.037   3.645   6.334 -0.1314  0.3631  0.3385
 4352SOL    HW124710   2.991   3.732   6.317 -0.2273  0.4510  1.0275
 4352SOL    HW224711   3.101   3.626   6.259 -1.6137  0.0199 -0.8620
 4353SOL     OW24712   3.736   6.788   1.496 -0.5891 -0.8688 -0.5659
 4353SOL    HW124713   3.708   6.736   1.577 -2.1748  0.3465 -0.3235
 4353SOL    HW224714   3.658   6.839   1.460  1.0953  2.0831 -0.2440
 4354SOL     OW24715   1.217   4.159   0.396  0.5988  0.4960 -0.2681
 4354SOL    HW124716   1.196   4.203   0.309  1.0041  0.5738 -0.3260
 4354SOL    HW224717   1.223   4.060   0.383 -3.4508  0.0645  0.4410
 4355SOL     OW24718   7.143   3.663   7.971  0.0924 -0.0648  0.0881
 4355SOL    HW124719   7.179   3.683   8.063  0.8447  0.3410 -0.2850
 4355SOL    HW224720   7.208   3.604   7.923 -1.3141 -2.0333  0.5694
 4356SOL     OW24721   6.974   7.310   5.507  0.1099 -0.0565 -0.0879
 4356SOL    HW124722   6.963   7.308   5.408  3.0666  0.6650 -0.4713
 4356SOL    HW224723   6.896   7.263   5.550 -1.1130 -0.5365 -2.7214
 4357SOL     OW24724   3.107   7.630   5.976  0.3675  0.5695 -0.2513
 4357SOL    HW124725   3.166   7.647   6.055 -0.5268 -0.5386  0.6593
 4357SOL    HW224726   3.116   7.535   5.947  0.9996  1.0627 -1.7624
 4358SOL     OW24727   3.483   3.250   5.120 -0.0441  0.1458  0.0182
 4358SOL    HW124728   3.473   3.337   5.168 -0.5451  0.0308  0.1274
 4358SOL    HW224729   3.405   3.191   5.141 -0.1073 -0.0299 -0.6825
 4359SOL     OW24730   0.365   6.414   2.486  0.1361 -0.5558 -0.2032
 4359SOL    HW124731   0.412   6.388   2.570 -0.9169 -0.8090  0.3238
 4359SOL    HW224732   0.432   6.439   2.416  1.0034  2.4178  1.5972
 4360SOL     OW24733   3.046   3.247   1.653  0.1889  0.0927  0.5843
 4360SOL    HW124734   3.103   3.326   1.676 -0.5375  1.1821 -1.2397
 4360SOL    HW224735   2.951   3.267   1.679 -0.0182 -0.1322  0.0043
 4361SOL     OW24736   2.058   6.590   0.872 -0.1476  0.3941 -0.3784
 4361SOL    HW124737   1.969   6.578   0.828 -1.0397  3.1589  0.5916
 4361SOL    HW224738   2.046   6.597   0.971  1.2838 -0.2000 -0.1448
 4362SOL     OW24739   4.656   5.029   0.156  0.2867 -0.0248 -0.2589
 4362SOL    HW124740   4.594   4.978   0.217  0.7108 -1.9789 -1.4145
 4362SOL    HW224741   4.751   5.007   0.179  0.4781  0.3661 -0.6812
 4363SOL     OW24742   6.742   4.239   2.164  0.0288 -0.2202 -0.3626
 4363SOL    HW124743   6.805   4.198   2.231 -0.3240 -0.8123 -0.3921
 4363SOL    HW224744   6.767   4.335   2.150  1.8811 -0.8263 -1.5108
 4364SOL     OW24745   3.037   5.989   2.140 -0.0243 -0.3814 -0.3910
 4364SOL    HW124746   2.950   6.031   2.168  0.7279  1.3243 -0.5298
 4364SOL    HW224747   3.019   5.924   2.065 -0.8966  1.8942 -2.2387
 4365SOL     OW24748   7.775   2.619   5.301  0.0048  0.6819  0.3933
 4365SOL    HW124749   7.701   2.661   5.248 -0.8458  0.0866  1.0830
 4365SOL    HW224750   7.834   2.566   5.240 -1.5088 -0.7676  0.1404
 4366SOL     OW24751   5.160   8.824   5.046  0.1486 -0.2895  0.7698
 4366SOL    HW124752   5.202   8.737   5.072 -0.2635 -0.2041  1.7273
 4366SOL    HW224753   5.062   8.809   5.029 -0.1362  0.1990  1.9906
 4367SOL     OW24754   1.522   3.591   0.532 -0.3070  0.4896 -0.0400
 4367SOL    HW124755   1.550   3.652   0.457 -0.7923  0.8881  0.0985
 4367SOL    HW224756   1.430   3.557   0.514  1.0231 -2.4583 -1.5236
 4368SOL     OW24757   6.884   3.689   0.848  0.0546 -0.3094 -0.0105
 4368SOL    HW124758   6.853   3.726   0.935  0.0754  0.8525 -0.4883
 4368SOL    HW224759   6.844   3.740   0.772  1.4110 -0.1632 -0.6627
 4369SOL     OW24760   7.911   8.023   1.302  0.0423 -0.0259  0.2303
 4369SOL    HW124761   7.827   7.978   1.270 -1.7498  2.0162  1.9160
 4369SOL    HW224762   7.989   7.963   1.284 -1.4594 -1.0725 -3.3532
 4370SOL     OW24763   8.399   8.088   4.225 -0.7870  0.2664 -0.4015
 4370SOL    HW124764   8.429   8.172   4.181 -1.7515 -0.4968 -2.6624
 4370SOL    HW224765   8.478   8.030   4.243 -0.2548  1.0730 -0.1288
 4371SOL     OW24766   2.893   8.270   6.980  0.5418  0.2197 -0.5051
 4371SOL    HW124767   2.934   8.188   7.020  2.2247  1.8379  1.2058
 4371SOL    HW224768   2.796   8.274   7.003  0.1739 -1.8931 -1.6375
 4372SOL     OW24769   2.672   9.853   6.222 -0.0652 -0.8640 -0.3810
 4372SOL    HW124770   2.748   9.855   6.286 -1.0431 -0.8235  0.7986
 4372SOL    HW224771   2.649   9.759   6.199  0.6167 -0.8632 -1.0792
 4373SOL     OW24772   0.337   9.927   4.698  0.3695  0.0578  0.3351
 4373SOL    HW124773   0.363  10.017   4.733 -2.1404 -0.2399  3.1302
 4373SOL    HW224774   0.290   9.938   4.610  1.0840  1.3664  0.1030
 4374SOL     OW24775   2.021   9.777   3.236  0.6943 -0.0242 -0.1396
 4374SOL    HW124776   2.015   9.817   3.328 -0.7248 -0.8186  0.1254
 4374SOL    HW224777   1.941   9.719   3.220  0.3895  0.9512 -2.2759
 4375SOL     OW24778   1.263   5.872   7.472 -0.0730  0.4219  0.0645
 4375SOL    HW124779   1.276   5.924   7.387 -0.2961  1.4227  0.6237
 4375SOL    HW224780   1.168   5.881   7.502  0.2723  1.0061  1.0073
 4376SOL     OW24781   2.087   3.289   4.100 -0.2420 -0.9977  0.5973
 4376SOL    HW124782   2.000   3.337   4.087  0.0915 -0.5428  0.0318
 4376SOL    HW224783   2.089   3.249   4.192  0.2100  1.5671  1.7212
 4377SOL     OW24784   9.841   9.145   7.056 -0.5037  0.2243  0.1444
 4377SOL    HW124785   9.814   9.214   7.122 -2.5342 -0.3116 -0.0966
 4377SOL    HW224786   9.792   9.159   6.970 -0.3050 -1.0130 -0.1858
 4378SOL     OW24787   8.035   0.380   5.470  0.1332 -0.2095  0.4320
 4378SOL    HW124788   8.018   0.313   5.398 -0.1124 -1.2130  1.3962
 4378SOL    HW224789   8.104   0.446   5.440  0.8499 -1.2812 -0.3061
 4379SOL     OW24790   1.963   0.398   1.182  0.5321 -0.5009  0.3228
 4379SOL    HW124791   1.967   0.379   1.281 -1.4843  2.3201  1.0082
 4379SOL    HW224792   1.867   0.394   1.152  1.2661 -2.6512 -1.8415
 4380SOL     OW24793   1.383   9.711   6.295 -0.7479 -0.0502  0.1589
 4380SOL    HW124794   1.427   9.759   6.219 -1.3928  0.7577  0.2802
 4380SOL    HW224795   1.401   9.760   6.380 -1.1086 -0.2243  0.3379
 4381SOL     OW24796   9.674   6.176   6.917  1.0518 -0.0022  0.6821
 4381SOL    HW124797   9.732   6.120   6.858  0.9470 -0.8622  1.3884
 4381SOL    HW224798   9.592   6.123   6.941  0.0333  1.1469 -0.2060
 4382SOL     OW24799   8.094   7.161   7.533 -0.2572 -0.1329 -0.2878
 4382SOL    HW124800   8.077   7.075   7.485  1.3678  0.2185 -1.5543
 4382SOL    HW224801   8.185   7.159   7.574 -0.6087  0.6031  0.5568
 4383SOL     OW24802   0.079   7.277   5.287  0.7723 -0.0819  0.7015
 4383SOL    HW124803   0.010   7.210   5.315 -1.2396  1.2273 -0.9185
 4383SOL    HW224804   0.148   7.286   5.359 -0.0094 -2.4015  1.8028
 4384SOL     OW24805   1.146   2.143   1.556  0.2757  0.2453 -0.5310
 4384SOL    HW124806   1.185   2.198   1.630 -0.7653  0.5887 -0.2168
 4384SOL    HW224807   1.216   2.121   1.489  0.8745  1.2904 -0.2512
 4385SOL     OW24808   0.690   4.812   3.419 -0.1556  0.3664 -0.1568
 4385SOL    HW124809   0.702   4.723   3.463  0.9035  0.3407 -0.4629
 4385SOL    HW224810   0.608   4.810   3.362  0.0297 -0.5201 -0.4049
 4386SOL     OW24811   7.166   2.157   2.699 -0.3742  0.2214  0.2992
 4386SOL    HW124812   7.241   2.196   2.646 -0.2960  0.0655  0.2930
 4386SOL    HW224813   7.138   2.070   2.658 -0.3022  0.0916  0.5200
 4387SOL     OW24814   9.787   5.742   3.530  0.3807  0.4806  0.0011
 4387SOL    HW124815   9.779   5.811   3.457 -0.2815 -0.7509 -1.1154
 4387SOL    HW224816   9.701   5.692   3.537 -0.0780  1.5912  2.6833
 4388SOL     OW24817   5.459   9.406   1.216  0.3833  0.3148  0.1569
 4388SOL    HW124818   5.507   9.455   1.142 -1.0138  0.2380 -0.8103
 4388SOL    HW224819   5.361   9.420   1.207  0.1790 -0.0285  1.7913
 4389SOL     OW24820   1.515   6.982   0.445 -0.0617 -0.1587  0.3385
 4389SOL    HW124821   1.481   7.075   0.434  0.7099 -0.0839 -1.5750
 4389SOL    HW224822   1.531   6.941   0.355 -0.4291 -2.1607  1.1464
 4390SOL     OW24823   0.359   6.334   3.432 -0.0994 -0.1459  0.2681
 4390SOL    HW124824   0.387   6.430   3.423 -0.2292 -0.1833 -0.5655
 4390SOL    HW224825   0.259   6.328   3.432 -0.0935 -0.3694 -0.7352
 4391SOL     OW24826   0.216   6.152   1.134 -0.1580 -0.2179 -0.2898
 4391SOL    HW124827   0.199   6.127   1.039 -0.8581  1.2253 -0.5582
 4391SOL    HW224828   0.315   6.157   1.149 -0.0141 -2.0147 -0.5037
 4392SOL     OW24829   5.538   6.713   0.688 -0.0393 -0.3432 -0.6161
 4392SOL    HW124830   5.544   6.631   0.631 -0.1827 -0.4915 -0.4176
 4392SOL    HW224831   5.590   6.699   0.772 -1.1556 -0.7359  0.0263
 4393SOL     OW24832   2.159   8.954   7.161  0.3003 -0.0822 -0.2643
 4393SOL    HW124833   2.250   8.977   7.128  0.6706 -1.5490 -0.3026
 4393SOL    HW224834   2.166   8.888   7.235 -0.7322 -0.1822 -0.2424
 4394SOL     OW24835   6.595   1.823   4.863  0.2842  0.2069 -0.3045
 4394SOL    HW124836   6.552   1.856   4.947  1.3269  0.5627  0.0949
 4394SOL    HW224837   6.604   1.724   4.868  2.1068  0.3968  0.8685
 4395SOL     OW24838   3.099   3.273   4.846 -0.1267  0.2971 -0.1173
 4395SOL    HW124839   3.057   3.354   4.803 -0.0020  1.0809  1.2292
 4395SOL    HW224840   3.197   3.273   4.827 -0.0009  0.8712  0.5102
 4396SOL     OW24841   9.883   2.535   5.110 -0.0652 -0.3848  0.3849
 4396SOL    HW124842   9.945   2.613   5.118  0.7118 -1.0111  0.5353
 4396SOL    HW224843   9.801   2.563   5.060  0.8325  0.1740 -0.8027
 4397SOL     OW24844   9.369   6.594   2.103  0.3937 -0.1043  0.2701
 4397SOL    HW124845   9.364   6.562   2.009 -0.7028 -0.6611  0.5037
 4397SOL    HW224846   9.454   6.562   2.145  0.7322 -0.1275 -0.4325
 4398SOL     OW24847   1.931   7.544   6.956  0.1310  0.0021 -0.0001
 4398SOL    HW124848   1.946   7.624   7.013 -2.6696  0.4451  0.1808
 4398SOL    HW224849   1.951   7.567   6.860  1.6068  0.2057  0.3430
 4399SOL     OW24850   2.651   4.979   6.179  0.0265 -0.4391  0.0130
 4399SOL    HW124851   2.578   4.911   6.181  0.4700 -0.9434 -0.8659
 4399SOL    HW224852   2.617   5.065   6.218 -0.5394 -1.1419  1.1091
 4400SOL     OW24853   8.213   5.209   3.753 -0.0407  0.0716  0.2847
 4400SOL    HW124854   8.245   5.210   3.848 -0.3730 -1.1464  0.4163
 4400SOL    HW224855   8.183   5.117   3.729  1.0210  0.1301 -1.3398
 4401SOL     OW24856   9.935   9.396   4.754  0.5957  0.3210 -0.1967
 4401SOL    HW124857   9.849   9.408   4.704  0.2749  1.5655  0.6451
 4401SOL    HW224858   9.932   9.449   4.838  1.5288 -0.9943  0.6722
 4402SOL     OW24859   7.442   9.871   1.428  0.1735  0.8054 -0.3185
 4402SOL    HW124860   7.465   9.950   1.485 -0.9922  1.4624 -0.7450
 4402SOL    HW224861   7.460   9.787   1.480 -0.8028  1.3858  0.9971
 4403SOL     OW24862   1.569   8.101   6.683  0.3563 -0.2674  0.6213
 4403SOL    HW124863   1.583   8.055   6.771 -0.9277  0.2798  1.1246
 4403SOL    HW224864   1.473   8.092   6.656  0.7425 -0.4360 -0.7352
 4404SOL     OW24865   4.599   8.163   0.528 -0.1684 -0.7111  0.5158
 4404SOL    HW124866   4.603   8.067   0.500  0.5006 -0.4890 -0.1611
 4404SOL    HW224867   4.687   8.189   0.569 -0.4480 -0.4678  0.9607
 4405SOL     OW24868   3.381   3.297   2.366  0.2149 -0.2480  0.1950
 4405SOL    HW124869   3.389   3.204   2.329 -2.1533  0.0422 -1.1202
 4405SOL    HW224870   3.427   3.361   2.305  0.2251 -0.3228  0.1238
 4406SOL     OW24871   6.562   4.831   6.842 -0.4927  0.2566  0.1319
 4406SOL    HW124872   6.574   4.754   6.904 -1.1606  0.9743  1.1687
 4406SOL    HW224873   6.464   4.850   6.832 -0.3592  0.5224 -0.6738
 4407SOL     OW24874   6.198   3.079   0.098  0.0862  0.2785  0.0319
 4407SOL    HW124875   6.212   3.155   0.035  0.7689  1.4036  1.5124
 4407SOL    HW224876   6.101   3.053   0.098 -0.4251  2.1104  0.5824
 4408SOL     OW24877   9.838   6.293   7.914  0.7495 -0.1599 -0.0613
 4408SOL    HW124878   9.870   6.245   7.995  1.0730  0.4826  0.1986
 4408SOL    HW224879   9.762   6.243   7.873 -1.3572  0.9912  2.2946
 4409SOL     OW24880   2.193   7.292   7.021  0.3537  0.0351 -0.0528
 4409SOL    HW124881   2.178   7.310   7.118  0.0551 -1.2538  0.1534
 4409SOL    HW224882   2.105   7.291   6.973  0.5713  1.5222 -0.4970
 4410SOL     OW24883   4.250   3.215   7.973  0.6348 -0.0178  0.1724
 4410SOL    HW124884   4.191   3.150   8.021  1.5696 -0.3978  0.8127
 4410SOL    HW224885   4.233   3.308   8.009 -0.2374  0.0096 -0.2951
 4411SOL     OW24886   4.254   1.861   3.064 -0.2907  0.0668 -0.2616
 4411SOL    HW124887   4.252   1.855   3.164 -0.5561 -0.2583 -0.2818
 4411SOL    HW224888   4.279   1.953   3.036  0.4666 -0.0220  0.1047
 4412SOL     OW24889   0.248   5.240   7.457 -0.2628  0.4464 -0.3431
 4412SOL    HW124890   0.225   5.240   7.360  2.0167 -0.8025 -0.9043
 4412SOL    HW224891   0.169   5.207   7.510 -0.9256 -0.5631 -1.9305
 4413SOL     OW24892   1.503   4.405   6.966  0.7852  0.0620  0.1965
 4413SOL    HW124893   1.518   4.307   6.978  3.2852  0.5659  1.6083
 4413SOL    HW224894   1.568   4.441   6.899  0.1056  0.8088 -0.0684
 4414SOL     OW24895   8.294   4.476   5.849 -0.3680  0.0276 -0.8263
 4414SOL    HW124896   8.325   4.513   5.761  0.9632  0.9671  0.0300
 4414SOL    HW224897   8.291   4.376   5.843 -0.1041  0.0717 -1.8808
 4415SOL     OW24898   3.517   7.348   3.575  0.3977 -0.4749 -0.2540
 4415SOL    HW124899   3.457   7.275   3.607 -0.2683  0.1264 -0.0930
 4415SOL    HW224900   3.480   7.388   3.491  0.1161  0.4426  0.2902
 4416SOL     OW24901   8.249   7.584   3.856 -0.8746  0.0779  0.2261
 4416SOL    HW124902   8.221   7.646   3.930  2.4794  0.0642  1.5942
 4416SOL    HW224903   8.268   7.638   3.773 -3.6364  0.1960 -0.3975
 4417SOL     OW24904   9.595   9.601   4.936  0.1018 -0.0392 -0.4745
 4417SOL    HW124905   9.562   9.677   4.879  0.3394  0.6739  0.3188
 4417SOL    HW224906   9.539   9.594   5.018  1.3606  0.6299  0.4663
 4418SOL     OW24907   8.369   8.250   1.788  0.3929  0.6721  0.4389
 4418SOL    HW124908   8.318   8.242   1.702 -0.1608 -0.1628  0.8370
 4418SOL    HW224909   8.306   8.239   1.865  1.3017 -1.3500  0.9353
 4419SOL     OW24910   2.776   5.182   7.629  0.6295  0.1424 -0.2696
 4419SOL    HW124911   2.717   5.204   7.706 -0.0685 -0.5953 -0.5777
 4419SOL    HW224912   2.758   5.245   7.554 -0.5612 -0.7576 -0.7523
 4420SOL     OW24913   2.118   3.436   1.934  0.1708  0.4622 -0.2015
 4420SOL    HW124914   2.211   3.418   1.901 -0.3993 -0.8515 -1.1141
 4420SOL    HW224915   2.122   3.506   2.005  2.1472 -1.3295  1.5340
 4421SOL     OW24916   8.277   8.741   2.804  0.0729  0.4880  0.0836
 4421SOL    HW124917   8.183   8.753   2.838 -0.1893  1.4710 -0.9586
 4421SOL    HW224918   8.285   8.784   2.714  1.5470  0.4601  0.2006
 4422SOL     OW24919   6.129   6.806   4.334  0.4039  0.0573 -0.4890
 4422SOL    HW124920   6.142   6.905   4.332  1.2181 -0.0325  0.0621
 4422SOL    HW224921   6.153   6.771   4.424 -1.1091 -0.4918 -0.2873
 4423SOL     OW24922   6.520   2.235   5.378 -0.0360 -0.6833  0.1357
 4423SOL    HW124923   6.609   2.280   5.371 -2.1170  3.4967 -1.2537
 4423SOL    HW224924   6.477   2.256   5.465 -0.7640 -0.5222 -0.2533
 4424SOL     OW24925   5.810   2.068   5.454 -0.2868  0.2106 -0.4338
 4424SOL    HW124926   5.779   2.158   5.422  0.6583  1.1211  1.1035
 4424SOL    HW224927   5.869   2.081   5.534  0.8752 -1.7152 -0.9718
 4425SOL     OW24928   1.433   2.208   7.847 -0.3181  0.0879 -0.1979
 4425SOL    HW124929   1.496   2.255   7.786 -1.3345  0.5187 -0.9251
 4425SOL    HW224930   1.410   2.267   7.924  0.5270 -0.2483  0.3235
 4426SOL     OW24931   1.612   6.061   7.536  0.1833  0.4026 -0.6621
 4426SOL    HW124932   1.614   5.992   7.609 -0.7111  0.2225 -0.8033
 4426SOL    HW224933   1.579   6.148   7.573 -1.0749  0.0914 -1.0221
 4427SOL     OW24934   0.412   5.522   2.723 -0.1968  0.3388 -0.9874
 4427SOL    HW124935   0.358   5.443   2.753  0.7389 -0.5505 -1.6181
 4427SOL    HW224936   0.362   5.571   2.651 -0.8058  0.3595 -0.5560
 4428SOL     OW24937   8.464   2.793   8.105 -0.6976 -0.8370 -0.1351
 4428SOL    HW124938   8.390   2.749   8.156 -1.7981  1.0762 -0.0209
 4428SOL    HW224939   8.539   2.815   8.167 -1.4644  0.2588  0.4188
 4429SOL     OW24940   0.061   1.468   0.411 -0.8157 -0.5922 -0.0117
 4429SOL    HW124941  -0.036   1.489   0.397 -0.7537 -0.2412  0.0801
 4429SOL    HW224942   0.076   1.439   0.505 -0.9959 -1.6153 -0.2866
 4430SOL     OW24943   8.230   2.151   2.860  0.0212 -0.3123  0.4617
 4430SOL    HW124944   8.316   2.163   2.811  0.2571  2.0858  1.3918
 4430SOL    HW224945   8.225   2.218   2.934 -2.4405 -0.7174  0.6881
 4431SOL     OW24946   8.468   4.007   7.576  0.1967  0.3026 -0.3883
 4431SOL    HW124947   8.476   4.059   7.661 -0.3100 -1.3005  0.6617
 4431SOL    HW224948   8.402   4.052   7.516 -0.0581  1.0051  0.4061
 4432SOL     OW24949   1.168   0.715   7.021  0.5551  0.0064  0.0910
 4432SOL    HW124950   1.252   0.768   7.017  0.7694 -0.2953  0.6115
 4432SOL    HW224951   1.189   0.617   7.023  0.3297 -0.0476  3.0996
 4433SOL     OW24952   4.080   1.967   7.295  0.1267  0.5300  0.0437
 4433SOL    HW124953   4.164   2.013   7.268  0.4788  0.2535  0.6742
 4433SOL    HW224954   4.012   2.036   7.322  0.2642  0.7319 -0.1233
 4434SOL     OW24955   2.865   1.256   5.585  0.6868 -0.6047 -0.4987
 4434SOL    HW124956   2.825   1.165   5.572 -0.0041 -0.4535  0.5413
 4434SOL    HW224957   2.959   1.256   5.550  2.3335 -3.0316  3.5408
 4435SOL     OW24958   7.958   8.078   3.913 -0.4846 -0.0670 -0.4308
 4435SOL    HW124959   7.882   8.135   3.944 -0.7774  0.6359 -2.3815
 4435SOL    HW224960   8.037   8.095   3.971 -1.9477 -1.2305  1.9878
 4436SOL     OW24961   3.546   9.231   3.723  0.1232  0.1714 -0.4191
 4436SOL    HW124962   3.543   9.169   3.802  0.1365  1.1638  0.3695
 4436SOL    HW224963   3.530   9.179   3.639  1.7873 -1.1832  0.0730
 4437SOL     OW24964   4.658   2.924   2.146 -0.0014  0.3825  0.3522
 4437SOL    HW124965   4.685   2.850   2.085  0.8713  1.6530 -0.8429
 4437SOL    HW224966   4.593   2.890   2.214 -1.4648 -0.9325 -1.6621
 4438SOL     OW24967   3.487   6.847   3.666 -0.0487 -0.3095 -0.0267
 4438SOL    HW124968   3.532   6.934   3.683 -0.1765 -0.3975  0.7628
 4438SOL    HW224969   3.541   6.794   3.600 -0.8957  1.0872 -1.8674
 4439SOL     OW24970   0.075   1.528   2.917  0.2433  0.2994 -0.2863
 4439SOL    HW124971   0.149   1.467   2.887 -0.5582  0.5562 -2.8973
 4439SOL    HW224972   0.034   1.491   3.000  0.6650 -2.0409 -1.0645
 4440SOL     OW24973   2.098   4.947   7.362  0.1747 -0.0857 -0.1929
 4440SOL    HW124974   2.190   4.919   7.388  0.0767 -0.2875 -0.0539
 4440SOL    HW224975   2.047   4.867   7.328  1.1171  0.6392 -3.4579
 4441SOL     OW24976   8.072   6.460   4.276 -0.3108 -0.0990 -0.0588
 4441SOL    HW124977   8.060   6.541   4.334 -0.6051 -0.4616  0.3833
 4441SOL    HW224978   8.134   6.396   4.322 -0.6208 -0.4286 -0.1027
 4442SOL     OW24979   6.581   3.059   0.108 -0.7331  0.1681 -0.2935
 4442SOL    HW124980   6.586   3.096   0.201  2.1929  0.5923 -0.5538
 4442SOL    HW224981   6.512   2.987   0.104 -0.8763  0.1219  2.2353
 4443SOL     OW24982   3.378   0.642   2.057 -1.0624  0.3162  0.3858
 4443SOL    HW124983   3.367   0.549   2.093 -0.8680  0.7160  1.5210
 4443SOL    HW224984   3.290   0.674   2.020 -1.2676 -0.1178  0.4927
 4444SOL     OW24985   7.536   5.960   1.837  0.6093  0.7248  0.0049
 4444SOL    HW124986   7.487   6.046   1.852 -4.5143 -1.8252 -1.2793
 4444SOL    HW224987   7.589   5.967   1.753 -1.3246  2.0226 -1.1464
 4445SOL     OW24988   3.075   8.929   0.458  0.0762  0.2050 -0.3806
 4445SOL    HW124989   3.128   8.925   0.373 -0.1935  1.6042 -0.6164
 4445SOL    HW224990   3.008   9.002   0.452 -1.1457 -0.8298  0.3595
 4446SOL     OW24991   2.809   5.262   2.619  0.0868 -0.0166 -1.0462
 4446SOL    HW124992   2.743   5.311   2.561 -0.0401  0.7045 -0.3083
 4446SOL    HW224993   2.816   5.167   2.588 -1.2617 -0.0936 -1.1798
 4447SOL     OW24994   4.774   3.950   1.377  0.0387  0.8019  0.0579
 4447SOL    HW124995   4.763   3.851   1.371 -0.6558  0.8453  0.6498
 4447SOL    HW224996   4.687   3.995   1.360 -0.2051  1.2147  2.2541
 4448SOL     OW24997   4.766   9.496   5.494  0.3257  0.1504  0.9321
 4448SOL    HW124998   4.842   9.440   5.460 -0.9324 -0.5099 -0.8676
 4448SOL    HW224999   4.742   9.566   5.427 -1.1992 -0.1954  1.0803
 4449SOL     OW25000   5.127   4.872   6.868  0.5168 -0.0574  0.0218
 4449SOL    HW125001   5.092   4.845   6.778  0.6521 -1.4337  0.3581
 4449SOL    HW225002   5.101   4.966   6.888 -1.7949 -0.5817 -0.3284
 4450SOL     OW25003   2.438   9.228   5.872 -0.1804  0.3774  0.3545
 4450SOL    HW125004   2.344   9.259   5.886 -0.5042 -0.0608 -0.8600
 4450SOL    HW225005   2.489   9.238   5.958 -1.0881  1.4404  0.7779
 4451SOL     OW25006   9.634   2.815   8.099  0.0932 -0.3539  0.5433
 4451SOL    HW125007   9.687   2.892   8.134  1.4100 -1.4931  1.1077
 4451SOL    HW225008   9.670   2.730   8.137 -0.6567 -1.3382 -0.8936
 4452SOL     OW25009   6.150   5.563   0.469 -0.3495 -0.0371  0.0154
 4452SOL    HW125010   6.212   5.487   0.486 -1.6589 -0.9036  1.0245
 4452SOL    HW225011   6.119   5.560   0.374  0.6366  0.0348 -0.3212
 4453SOL     OW25012   3.520   2.191   7.748  0.0427 -0.2593 -0.1272
 4453SOL    HW125013   3.465   2.127   7.694  0.4007 -1.9892  1.4811
 4453SOL    HW225014   3.576   2.246   7.687 -1.9016  0.0780 -1.6776
 4454SOL     OW25015   6.599   9.184   4.544 -0.0902  0.7302  0.3812
 4454SOL    HW125016   6.540   9.108   4.570  0.2552  0.4145  0.2301
 4454SOL    HW225017   6.543   9.266   4.531 -0.5832  0.2924 -0.3385
 4455SOL     OW25018   7.249   0.373   1.655  0.1128  0.3577  0.0267
 4455SOL    HW125019   7.228   0.292   1.599 -0.6538  0.9127 -0.5019
 4455SOL    HW225020   7.304   0.345   1.734 -0.1661 -0.6846 -0.1325
 4456SOL     OW25021   4.282   3.759   4.418  0.3798 -0.3471 -0.2712
 4456SOL    HW125022   4.281   3.837   4.354  0.1321  0.2947  0.5065
 4456SOL    HW225023   4.271   3.674   4.366 -2.1081  0.3034 -0.8841
 4457SOL     OW25024   9.603   3.922   7.616  0.3732 -0.5710  0.3198
 4457SOL    HW125025   9.630   3.889   7.526  0.5380  2.1475 -0.6962
 4457SOL    HW225026   9.681   3.964   7.662 -0.5326  1.4744  0.0872
 4458SOL     OW25027   3.402   2.124   0.570 -0.5813 -0.3733 -0.5772
 4458SOL    HW125028   3.496   2.151   0.587 -0.3706 -1.2450 -0.3577
 4458SOL    HW225029   3.395   2.083   0.479 -1.1903  1.7817 -1.5399
 4459SOL     OW25030   6.897   0.620   5.250 -0.3255  0.0984 -0.0834
 4459SOL    HW125031   6.920   0.670   5.166  2.3979 -0.7375  0.1090
 4459SOL    HW225032   6.942   0.664   5.328 -0.0478 -1.1030  0.4401
 4460SOL     OW25033   0.593   1.775   2.262 -0.2918 -0.0782  0.0003
 4460SOL    HW125034   0.642   1.696   2.226 -1.0414 -0.2572 -0.6310
 4460SOL    HW225035   0.659   1.844   2.292  0.3329 -0.0680 -1.3908
 4461SOL     OW25036   3.563   4.620   3.177  0.7395  0.1146  0.1119
 4461SOL    HW125037   3.614   4.680   3.115 -1.0500  1.4314 -0.1381
 4461SOL    HW225038   3.541   4.534   3.131 -0.8250  1.1946 -1.2319
 4462SOL     OW25039   4.383   2.686   7.180 -0.1651  0.3213  0.1513
 4462SOL    HW125040   4.432   2.615   7.230  1.6422 -0.7460 -3.0118
 4462SOL    HW225041   4.305   2.646   7.133 -0.0956  0.7484 -0.3295
 4463SOL     OW25042   6.066   7.578   4.762  0.1072  0.2685  0.5758
 4463SOL    HW125043   6.081   7.612   4.855  0.9434  2.6330 -0.3826
 4463SOL    HW225044   6.141   7.607   4.703 -0.8861 -0.4001 -1.0653
 4464SOL     OW25045   1.397   6.604   7.019  0.1212 -0.0571  0.1146
 4464SOL    HW125046   1.401   6.608   7.119 -1.2288 -2.5870  0.3106
 4464SOL    HW225047   1.468   6.541   6.986 -0.2512 -0.1905 -0.4331
 4465SOL     OW25048   3.718   2.948   2.484  0.3639 -0.0773 -0.4306
 4465SOL    HW125049   3.639   2.971   2.541 -0.4992  0.5272 -1.8415
 4465SOL    HW225050   3.785   2.896   2.538 -1.1933 -0.9816  0.6659
 4466SOL     OW25051   3.471   4.805   7.941 -0.2644 -0.5248  0.3408
 4466SOL    HW125052   3.462   4.833   7.845 -1.7335 -0.6061  0.4317
 4466SOL    HW225053   3.532   4.867   7.989 -0.7286  0.4443 -0.2964
 4467SOL     OW25054   9.661   2.255   5.668  0.0103 -0.0039  0.4095
 4467SOL    HW125055   9.588   2.323   5.660 -0.1462 -0.2574 -0.3751
 4467SOL    HW225056   9.624   2.172   5.712 -0.3380 -0.3622 -0.5461
 4468SOL     OW25057   2.927   8.735   8.140  0.1224 -0.0348 -0.4662
 4468SOL    HW125058   2.957   8.828   8.116  1.1989 -0.5737 -1.2556
 4468SOL    HW225059   3.005   8.673   8.135 -0.3031 -0.7425  1.3698
 4469SOL     OW25060   7.265   8.352   5.843  0.7184 -0.2681  0.0638
 4469SOL    HW125061   7.346   8.339   5.901  0.6655  0.9356  0.4327
 4469SOL    HW225062   7.197   8.406   5.893  0.4068  0.2237 -0.8786
 4470SOL     OW25063   7.896   6.262   7.207  0.4332  0.0697 -0.1233
 4470SOL    HW125064   7.825   6.212   7.256  0.2015  0.5207  0.0015
 4470SOL    HW225065   7.854   6.332   7.149  0.7701  0.3390 -0.0499
 4471SOL     OW25066   2.910   1.303   1.277 -0.0183 -0.6914 -0.2902
 4471SOL    HW125067   3.006   1.326   1.269  0.0049 -1.0491 -1.2009
 4471SOL    HW225068   2.898   1.227   1.342  0.4049 -1.1776 -0.7770
 4472SOL     OW25069   4.591   0.345   2.655 -0.1158 -0.1969 -0.2117
 4472SOL    HW125070   4.527   0.268   2.656  0.9743 -1.1081 -0.7434
 4472SOL    HW225071   4.620   0.364   2.562 -1.5297  1.8356 -0.2647
 4473SOL     OW25072   8.796   8.848   2.918  0.2802 -0.3452  0.1525
 4473SOL    HW125073   8.702   8.812   2.919 -0.1935  0.8785 -0.4730
 4473SOL    HW225074   8.858   8.777   2.953 -0.2616 -2.8330 -3.6425
 4474SOL     OW25075   9.351   9.542   0.583  0.0491  0.4902  0.2673
 4474SOL    HW125076   9.318   9.467   0.641 -0.9194  0.4365 -0.3448
 4474SOL    HW225077   9.420   9.595   0.633  2.4429 -2.1613 -0.1016
 4475SOL     OW25078   1.188   0.201   6.969 -0.5151  0.2749  0.4831
 4475SOL    HW125079   1.130   0.171   7.045 -1.2986  1.9774  0.5930
 4475SOL    HW225080   1.140   0.185   6.882 -0.8725  1.0698  0.5330
 4476SOL     OW25081   9.964   9.162   3.852  0.0465 -0.7067 -0.2686
 4476SOL    HW125082   9.916   9.125   3.773  0.2266  0.1628 -0.7974
 4476SOL    HW225083   9.912   9.141   3.935 -1.9029  1.2314 -0.9341
 4477SOL     OW25084   4.248   5.668   1.706  0.1189  0.9556 -0.1052
 4477SOL    HW125085   4.267   5.587   1.650  0.8746  0.4218  0.9139
 4477SOL    HW225086   4.279   5.652   1.800 -0.7373  2.0105  0.3698
 4478SOL     OW25087   2.511   7.340   3.114 -0.0056  0.1079 -0.1098
 4478SOL    HW125088   2.575   7.277   3.069 -0.0000  0.1416 -0.1482
 4478SOL    HW225089   2.453   7.289   3.177 -0.8439 -0.1326 -1.0650
 4479SOL     OW25090   7.895   0.670   5.799  0.5086 -0.1336  0.3544
 4479SOL    HW125091   7.958   0.705   5.730  1.2518 -1.3964  0.3837
 4479SOL    HW225092   7.852   0.586   5.765 -0.7265  0.3904  0.5747
 4480SOL     OW25093   7.112   6.478   6.235 -0.2582 -0.2525  0.0061
 4480SOL    HW125094   7.093   6.413   6.308 -2.2972  0.9421  0.5952
 4480SOL    HW225095   7.198   6.525   6.253 -0.0637 -0.9535  0.9167
 4481SOL     OW25096   2.891   0.357   4.102  0.0736 -0.6075 -0.4507
 4481SOL    HW125097   2.854   0.346   4.194  0.8563  1.2789  0.1073
 4481SOL    HW225098   2.991   0.365   4.106 -0.0686  2.0635 -1.1730
 4482SOL     OW25099   3.398   9.735   0.342  0.1620 -0.0782  0.5550
 4482SOL    HW125100   3.317   9.773   0.298  0.4959  0.7598  0.6525
 4482SOL    HW225101   3.396   9.635   0.335 -2.2681 -0.2620  2.8989
 4483SOL     OW25102   1.551   8.502   3.473  0.3851  0.0829 -0.3890
 4483SOL    HW125103   1.535   8.405   3.458  0.1909 -0.1211  1.1283
 4483SOL    HW225104   1.495   8.535   3.549  1.1141  1.1826 -0.3071
 4484SOL     OW25105   3.117   3.209   1.388  0.0005  0.7421 -0.0740
 4484SOL    HW125106   3.070   3.239   1.471 -0.1831 -0.9862  0.4625
 4484SOL    HW225107   3.212   3.243   1.390  0.3720 -0.3025  1.4465
 4485SOL     OW25108   4.321   5.443   1.565 -0.5381  0.4075  0.1239
 4485SOL    HW125109   4.407   5.470   1.520 -0.9908 -0.2021 -1.1349
 4485SOL    HW225110   4.311   5.343   1.558 -1.2661  0.4655  0.4063
 4486SOL     OW25111   9.491   8.460   6.980  0.2270  0.6071 -0.8679
 4486SOL    HW125112   9.459   8.531   6.918 -0.5333  1.5220  0.5729
 4486SOL    HW225113   9.583   8.432   6.952 -0.2464  0.7130 -2.6473
 4487SOL     OW25114   5.296   6.248   0.922  0.3075  0.0206 -0.2735
 4487SOL    HW125115   5.367   6.306   0.959 -0.3742 -0.4502  1.8126
 4487SOL    HW225116   5.214   6.302   0.904  0.0146 -0.0880  0.7021
 4488SOL     OW25117   1.474   6.610   3.770 -0.9462 -0.3294 -0.2310
 4488SOL    HW125118   1.435   6.518   3.758 -0.4738 -0.6856  0.9172
 4488SOL    HW225119   1.564   6.614   3.726 -0.8963 -0.4682 -0.1419
 4489SOL     OW25120   3.173   1.477   0.761  0.4009 -0.7381 -0.3167
 4489SOL    HW125121   3.078   1.508   0.753  0.2465 -1.0745  0.2207
 4489SOL    HW225122   3.179   1.405   0.829  1.0613 -0.6568 -0.2881
 4490SOL     OW25123   7.240   2.069   4.184 -0.2984  0.7237  0.0927
 4490SOL    HW125124   7.151   2.024   4.198  0.6006 -0.9621  0.5218
 4490SOL    HW225125   7.227   2.153   4.132 -1.8303 -0.8715 -2.1747
 4491SOL     OW25126   7.936   6.110   6.803 -0.1144  0.1299  0.6410
 4491SOL    HW125127   7.853   6.140   6.756 -1.8169 -2.0607  2.1630
 4491SOL    HW225128   7.968   6.024   6.763 -0.4280 -0.6985  2.1138
 4492SOL     OW25129   3.515   4.273   5.691 -0.5118  0.1245 -0.0468
 4492SOL    HW125130   3.495   4.367   5.665 -2.7125 -0.7564 -1.6623
 4492SOL    HW225131   3.463   4.249   5.773  0.6954  0.5547  0.8610
 4493SOL     OW25132   0.310   9.808   1.062 -0.0236 -0.1332 -0.3573
 4493SOL    HW125133   0.287   9.789   1.158  0.1164  0.2040 -0.2576
 4493SOL    HW225134   0.241   9.869   1.023  0.3889  0.4198 -0.2237
 4494SOL     OW25135   3.433   9.403   3.354 -0.2626  0.0206  0.1406
 4494SOL    HW125136   3.426   9.367   3.261  0.8822  1.3651 -0.4786
 4494SOL    HW225137   3.470   9.332   3.414  2.7123  0.3743 -1.2164
 4495SOL     OW25138   7.630   8.976   1.455  0.3293  0.0688  0.4359
 4495SOL    HW125139   7.623   8.956   1.357 -0.2933  0.2757  0.4351
 4495SOL    HW225140   7.717   8.943   1.490  0.1344 -0.8961  0.0187
 4496SOL     OW25141   3.031   0.955   1.289  0.1105 -0.5174  0.2330
 4496SOL    HW125142   2.971   1.013   1.344  0.8814 -2.3114  3.0181
 4496SOL    HW225143   2.976   0.891   1.236 -0.5814  0.5845 -0.4115
 4497SOL     OW25144   1.584   1.597   5.808 -0.0981 -0.8100 -0.2461
 4497SOL    HW125145   1.626   1.577   5.719  3.2729  0.0265  1.1001
 4497SOL    HW225146   1.620   1.534   5.877  0.6438  1.3793  1.4029
 4498SOL     OW25147   2.075   1.780   6.067  0.1621 -0.1173  0.2142
 4498SOL    HW125148   1.980   1.811   6.073 -0.6212 -2.1665 -1.0505
 4498SOL    HW225149   2.087   1.696   6.120  1.5015  0.5801  1.0627
 4499SOL     OW25150   6.145   7.975   4.639 -0.2411 -0.3410 -0.1965
 4499SOL    HW125151   6.110   7.901   4.582  0.7178 -1.3886  0.5487
 4499SOL    HW225152   6.160   7.942   4.732 -1.0163  1.1328  0.4729
 4500SOL     OW25153   3.658   6.596   4.852  0.3556 -0.4442  0.3970
 4500SOL    HW125154   3.576   6.646   4.825 -0.6544 -3.4311 -2.3591
 4500SOL    HW225155   3.703   6.644   4.927 -2.1982  2.8944 -0.1004
 4501SOL     OW25156   9.301   0.847   2.163 -0.2294 -0.3420 -0.3173
 4501SOL    HW125157   9.349   0.898   2.234 -1.0435 -0.1887  0.1368
 4501SOL    HW225158   9.363   0.826   2.088  0.1117  1.3164 -0.5103
 4502SOL     OW25159   2.339   4.680   7.235  0.5950  0.5881 -0.1717
 4502SOL    HW125160   2.297   4.673   7.145  0.7384  0.9988 -0.2729
 4502SOL    HW225161   2.343   4.777   7.262  1.3890  0.5396 -0.1190
 4503SOL     OW25162   3.321   7.272   6.937 -0.5990  0.2358  0.2751
 4503SOL    HW125163   3.357   7.332   7.009 -0.3737 -1.1473  1.3212
 4503SOL    HW225164   3.222   7.278   6.935 -0.5761  0.6955  0.3159
 4504SOL     OW25165   4.308   9.041   0.854 -0.3667  0.4602  0.4129
 4504SOL    HW125166   4.309   9.125   0.908  1.1835  1.5321 -1.1834
 4504SOL    HW225167   4.298   9.065   0.757 -2.1445 -1.3524  0.1198
 4505SOL     OW25168   3.833   9.106   6.805  0.0371  0.3705 -0.1994
 4505SOL    HW125169   3.910   9.077   6.749 -0.7557 -0.8059 -0.6967
 4505SOL    HW225170   3.747   9.085   6.758 -0.5990  2.8626 -0.2533
 4506SOL     OW25171   2.131   5.591   3.488 -0.3093  0.3749  0.6057
 4506SOL    HW125172   2.184   5.669   3.456  0.7759 -0.3522  0.5812
 4506SOL    HW225173   2.193   5.515   3.509 -1.4045 -0.7288 -0.0886
 4507SOL     OW25174   2.969   5.778   8.045  0.3062 -0.2900  0.2029
 4507SOL    HW125175   3.017   5.848   7.991 -0.0934 -0.4480 -0.3612
 4507SOL    HW225176   3.017   5.691   8.034  1.0865 -0.0071  1.2937
 4508SOL     OW25177   0.662   0.428   4.769 -0.5222 -0.1904 -0.4663
 4508SOL    HW125178   0.595   0.501   4.784 -1.7199 -1.1871 -0.8628
 4508SOL    HW225179   0.678   0.380   4.855 -0.2331  0.1090 -0.3504
 4509SOL     OW25180   4.916   2.333   6.088 -0.7134  0.0050 -0.2781
 4509SOL    HW125181   4.848   2.350   6.017 -0.2403  0.1302 -0.7063
 4509SOL    HW225182   4.925   2.235   6.104  1.0835 -0.2068 -2.2908
 4510SOL     OW25183   1.174   7.846   7.231 -0.3222 -0.1020  0.1026
 4510SOL    HW125184   1.138   7.815   7.143  1.8798 -0.5902 -0.6403
 4510SOL    HW225185   1.219   7.771   7.278 -0.4969  0.4372  1.1589
 4511SOL     OW25186   2.026   1.591   5.810 -0.4016 -0.8121 -0.2058
 4511SOL    HW125187   1.967   1.645   5.750  0.3999 -0.7433 -0.9480
 4511SOL    HW225188   2.066   1.650   5.880  0.5432 -0.4229 -1.0696
 4512SOL     OW25189   8.580   3.945   2.805  0.6671 -0.1132 -0.3229
 4512SOL    HW125190   8.589   4.026   2.863 -1.7150 -0.1079  0.0884
 4512SOL    HW225191   8.649   3.948   2.733  1.0407  1.9448  0.0913
 4513SOL     OW25192   2.166   0.052   5.795 -0.3042  0.5828  0.1941
 4513SOL    HW125193   2.101   0.120   5.830 -0.4149 -0.1838  1.5103
 4513SOL    HW225194   2.137   0.022   5.704 -0.8207  1.5362  0.0394
 4514SOL     OW25195   3.209   1.541   0.499 -0.3305  0.1701 -0.2742
 4514SOL    HW125196   3.113   1.543   0.468 -0.8390 -0.4166  1.2277
 4514SOL    HW225197   3.212   1.521   0.596  1.3689 -0.5995 -0.4719
 4515SOL     OW25198   9.858   1.511   2.283  0.0052  0.2704 -0.1108
 4515SOL    HW125199   9.804   1.586   2.321 -1.0736  0.9118 -2.7999
 4515SOL    HW225200   9.816   1.424   2.308 -0.9092  0.6859 -0.1816
 4516SOL     OW25201   2.564   3.686   2.678 -0.2381 -0.5011 -0.3495
 4516SOL    HW125202   2.544   3.595   2.642 -0.3175 -0.6941  0.1815
 4516SOL    HW225203   2.625   3.734   2.615 -1.8634 -0.1368 -1.6859
 4517SOL     OW25204   8.299   9.702   2.830 -0.3922 -0.4195  0.2054
 4517SOL    HW125205   8.372   9.762   2.798 -1.1453  0.3727 -0.0535
 4517SOL    HW225206   8.224   9.704   2.764 -1.2362 -0.1213  1.1601
 4518SOL     OW25207   0.294   4.903   1.512 -0.2061  0.0869 -0.4091
 4518SOL    HW125208   0.363   4.937   1.576  0.2599  0.9837 -1.3678
 4518SOL    HW225209   0.301   4.804   1.505 -1.0233 -0.1629  1.7865
 4519SOL     OW25210   3.928   4.349   2.487 -0.3542 -0.3014 -0.2682
 4519SOL    HW125211   4.015   4.396   2.472 -1.1399  1.2096 -0.1941
 4519SOL    HW225212   3.940   4.278   2.557  0.9674 -0.5889 -0.7666
 4520SOL     OW25213   3.275   8.657   5.745  0.1855  0.1036 -0.6689
 4520SOL    HW125214   3.274   8.698   5.654  0.7849  1.7396  0.0433
 4520SOL    HW225215   3.190   8.678   5.793  0.8299  1.2469 -0.0000
 4521SOL     OW25216   8.471   4.909   7.914  0.1803  0.2323  0.4189
 4521SOL    HW125217   8.388   4.934   7.863  0.2152  1.3833  0.9158
 4521SOL    HW225218   8.519   4.836   7.865  0.1253  1.1980 -1.1046
 4522SOL     OW25219   0.575   6.371   5.145  0.0254  0.3545 -0.2246
 4522SOL    HW125220   0.620   6.442   5.200 -2.0876  1.6326 -0.1073
 4522SOL    HW225221   0.540   6.411   5.061 -3.0159 -0.0686  0.7832
 4523SOL     OW25222   0.868   7.317   6.881  0.1980 -0.7320  0.3250
 4523SOL    HW125223   0.966   7.315   6.896 -0.1718 -0.6388  3.0136
 4523SOL    HW225224   0.824   7.248   6.938 -1.3661 -0.3487 -0.3775
 4524SOL     OW25225   8.983   7.851   2.589  0.1178 -0.2313  0.1275
 4524SOL    HW125226   9.056   7.878   2.652 -1.8988  2.1878  1.5365
 4524SOL    HW225227   8.928   7.779   2.630 -1.1063  1.2428  1.1526
 4525SOL     OW25228   0.140   1.944   7.493  0.9795 -0.1830  0.0257
 4525SOL    HW125229   0.184   1.902   7.573  1.6262  2.5164  1.1472
 4525SOL    HW225230   0.043   1.961   7.515  1.4641  1.7662  0.7723
 4526SOL     OW25231   2.363   5.692   2.987  0.0244 -0.3296 -0.3864
 4526SOL    HW125232   2.462   5.684   2.977 -0.1501 -2.4523 -0.6793
 4526SOL    HW225233   2.322   5.719   2.900  0.3528  0.6633 -0.2342
 4527SOL     OW25234   0.686   7.691   6.372 -0.2631 -0.1241 -0.4243
 4527SOL    HW125235   0.772   7.726   6.411 -0.9088  2.2892 -1.0921
 4527SOL    HW225236   0.663   7.744   6.290 -2.4033 -0.7501 -0.2371
 4528SOL     OW25237   0.064   3.385   1.912 -0.0542  0.4339 -0.0907
 4528SOL    HW125238  -0.016   3.392   1.853  0.7010  1.6234 -0.9843
 4528SOL    HW225239   0.096   3.290   1.913 -1.2036  0.0361 -0.0732
 4529SOL     OW25240   7.510   3.138   4.498  0.2536  0.0606 -0.4500
 4529SOL    HW125241   7.423   3.168   4.460 -1.0181 -0.8583  1.6337
 4529SOL    HW225242   7.505   3.041   4.520  1.7515  0.0341 -0.1850
 4530SOL     OW25243   1.383   5.275   5.020  0.0786 -0.0241  0.9339
 4530SOL    HW125244   1.453   5.263   4.949  1.0014  0.1276  1.7992
 4530SOL    HW225245   1.413   5.229   5.103 -0.5225  0.6774  1.5401
 4531SOL     OW25246   6.761   0.497   3.897 -0.1337 -0.1772 -0.3681
 4531SOL    HW125247   6.781   0.593   3.876 -1.8196  1.3855  4.3395
 4531SOL    HW225248   6.830   0.462   3.960 -1.1287 -1.0369  0.2664
 4532SOL     OW25249   1.514   6.876   0.174  0.4356 -0.5070 -0.7334
 4532SOL    HW125250   1.494   6.799   0.236 -0.9111  1.1024  0.9011
 4532SOL    HW225251   1.428   6.917   0.144  1.1318 -0.2279 -2.3650
 4533SOL     OW25252   1.670   2.231   7.652  0.7120 -0.5228  0.4767
 4533SOL    HW125253   1.643   2.237   7.556 -0.1253  1.3006  0.7962
 4533SOL    HW225254   1.738   2.302   7.672  0.1170 -0.2198  1.4662
 4534SOL     OW25255   6.098   0.689   3.178  0.3460 -0.0281 -0.5717
 4534SOL    HW125256   6.048   0.764   3.221 -0.3466  0.0052 -1.4127
 4534SOL    HW225257   6.185   0.675   3.226  0.1129  0.7607  0.1039
 4535SOL     OW25258   2.016   4.688   7.123  0.0582  0.6868 -0.5867
 4535SOL    HW125259   2.007   4.780   7.085 -0.1910  0.5715 -0.8057
 4535SOL    HW225260   2.065   4.630   7.058  0.9247  0.8755 -0.1043
 4536SOL     OW25261   9.175   6.526   3.404 -0.4084  0.5455  0.1212
 4536SOL    HW125262   9.108   6.512   3.331  0.3100 -2.5745 -0.0040
 4536SOL    HW225263   9.127   6.539   3.491 -1.2171 -1.2178 -0.0362
 4537SOL     OW25264   3.457   9.434   0.336 -0.9657  0.2233  0.0867
 4537SOL    HW125265   3.447   9.339   0.364 -0.5593  0.0268 -0.4241
 4537SOL    HW225266   3.486   9.437   0.240  2.7541  0.7933  1.1761
 4538SOL     OW25267   8.134   8.644   3.985 -0.2622  0.2229  0.5082
 4538SOL    HW125268   8.173   8.569   4.037  0.3620  0.9102  1.0466
 4538SOL    HW225269   8.206   8.709   3.960 -0.9635  1.2360  1.0587
 4539SOL     OW25270   0.934   7.163   6.226 -0.1900  0.3674 -0.3409
 4539SOL    HW125271   0.988   7.119   6.298 -0.3633  0.6755 -0.0230
 4539SOL    HW225272   0.995   7.215   6.166  0.1205 -0.9896 -1.2190
 4540SOL     OW25273   3.034   2.503   0.611 -0.5069 -0.4605 -0.5400
 4540SOL    HW125274   3.015   2.597   0.584 -0.4921 -0.1478  0.5073
 4540SOL    HW225275   3.121   2.474   0.571  0.8722  0.9242  1.3745
 4541SOL     OW25276   2.450   6.791   8.023 -0.1094 -0.0939  0.2926
 4541SOL    HW125277   2.542   6.805   8.060  0.3532 -1.4531 -0.3344
 4541SOL    HW225278   2.383   6.831   8.086  0.9276  1.4949  0.4377
 4542SOL     OW25279   8.718   9.340   3.831 -0.1890  0.0439  0.1324
 4542SOL    HW125280   8.630   9.385   3.848 -1.0616 -1.6745  0.2940
 4542SOL    HW225281   8.758   9.373   3.746 -1.0972  0.6890 -0.0404
 4543SOL     OW25282   0.371   8.367   3.146 -0.7908  0.0130  0.6387
 4543SOL    HW125283   0.299   8.358   3.078 -2.3699  2.7233  1.8588
 4543SOL    HW225284   0.460   8.360   3.101 -1.8064  0.2583 -1.4700
 4544SOL     OW25285   3.134   4.639   6.685 -0.2366 -0.0933 -0.2163
 4544SOL    HW125286   3.122   4.589   6.771 -0.0796  0.2447  0.0075
 4544SOL    HW225287   3.093   4.588   6.610  0.4732 -0.8663 -0.0926
 4545SOL     OW25288   9.536   3.714   6.182 -0.0841 -0.1971  0.1138
 4545SOL    HW125289   9.601   3.787   6.159 -1.0787  1.0139  1.1009
 4545SOL    HW225290   9.505   3.725   6.276  0.5440 -2.5237  0.6251
 4546SOL     OW25291   7.350   9.323   3.883 -0.1892  0.1149 -0.6326
 4546SOL    HW125292   7.264   9.294   3.841 -1.2930 -0.4289  1.8612
 4546SOL    HW225293   7.330   9.389   3.956  1.4174 -0.7089  0.5829
 4547SOL     OW25294   6.382   0.590   5.739  0.8511 -0.0379 -0.2163
 4547SOL    HW125295   6.379   0.506   5.686  3.7582  0.2070 -0.8644
 4547SOL    HW225296   6.393   0.568   5.836  1.4581 -0.4210 -0.3716
 4548SOL     OW25297   1.892   9.160   4.360 -0.3797 -0.1631 -0.0181
 4548SOL    HW125298   1.948   9.078   4.351 -0.4993 -0.0840 -1.5761
 4548SOL    HW225299   1.950   9.241   4.355 -0.4970 -0.1088 -0.5397
 4549SOL     OW25300   1.247   3.384   3.303 -0.0268 -0.1679  0.1201
 4549SOL    HW125301   1.172   3.353   3.362 -0.4580 -2.2941 -1.5119
 4549SOL    HW225302   1.275   3.310   3.243  2.1743  1.1904 -0.5621
 4550SOL     OW25303   1.353   6.291   7.315 -0.0172 -0.5215  0.2742
 4550SOL    HW125304   1.357   6.380   7.360 -1.3471  0.1525 -0.8944
 4550SOL    HW225305   1.385   6.299   7.221 -0.6542 -1.1672 -0.0071
 4551SOL     OW25306   2.729   8.221   6.229 -0.4852 -0.0437 -0.2346
 4551SOL    HW125307   2.795   8.282   6.273 -0.7710 -0.3990  0.6924
 4551SOL    HW225308   2.692   8.265   6.147  3.1575 -1.0191 -2.5269
 4552SOL     OW25309   2.978   3.001   0.348 -0.2200 -0.5737  0.7561
 4552SOL    HW125310   3.053   2.951   0.305 -0.9708 -1.7787  0.8192
 4552SOL    HW225311   3.015   3.066   0.414  0.7790 -1.0324  0.6582
 4553SOL     OW25312   4.045   2.060   2.544 -0.0870  0.2670 -0.2509
 4553SOL    HW125313   4.115   2.131   2.551  0.1299 -0.0064  0.4077
 4553SOL    HW225314   3.975   2.074   2.613  1.7090 -2.0447  2.1396
 4554SOL     OW25315   0.910   5.928   3.321  0.3737  0.3400  0.1856
 4554SOL    HW125316   0.856   6.007   3.291  3.1727  1.5538 -1.9225
 4554SOL    HW225317   0.887   5.849   3.264 -0.7051  0.2608  0.7175
 4555SOL     OW25318   7.144   7.588   2.737  0.1514  0.3337 -0.8487
 4555SOL    HW125319   7.160   7.659   2.805 -0.5592  0.2418 -0.5801
 4555SOL    HW225320   7.198   7.607   2.655 -0.2249  1.3111 -0.8705
 4556SOL     OW25321   8.291   0.544   6.988  0.4382 -0.2282  0.2783
 4556SOL    HW125322   8.307   0.559   6.890  1.9857  1.4836  0.7493
 4556SOL    HW225323   8.212   0.598   7.017 -0.0321 -0.7478 -0.0291
 4557SOL     OW25324   1.980   7.211   0.564  0.0044 -0.7410  0.1463
 4557SOL    HW125325   1.906   7.273   0.591 -1.3564 -1.6853 -1.3209
 4557SOL    HW225326   2.014   7.163   0.644 -1.2399 -0.5770  0.7853
 4558SOL     OW25327   1.168   3.672   0.459 -0.0631 -0.0118  0.5673
 4558SOL    HW125328   1.232   3.596   0.457  3.0304  2.5042  0.3865
 4558SOL    HW225329   1.110   3.665   0.541  1.7040 -1.3262  1.7306
 4559SOL     OW25330   6.128   4.094   7.657 -0.5686  0.0095 -0.4041
 4559SOL    HW125331   6.035   4.074   7.685 -1.6822  0.1923 -3.7027
 4559SOL    HW225332   6.130   4.178   7.603  1.6050  0.3591  0.1545
 4560SOL     OW25333   1.532   7.788   8.159 -0.0442  0.3148 -0.9789
 4560SOL    HW125334   1.505   7.871   8.110  0.1096  0.4103 -0.9015
 4560SOL    HW225335   1.453   7.752   8.209 -0.0875  0.4664 -0.9379
 4561SOL     OW25336   4.714   7.618   1.638 -0.2912  0.5971  0.3727
 4561SOL    HW125337   4.685   7.688   1.703 -0.5337  0.8745 -0.0357
 4561SOL    HW225338   4.795   7.650   1.588 -1.4041  1.2887 -1.0156
 4562SOL     OW25339   8.163   1.129   6.324  0.0356  0.5326 -0.3318
 4562SOL    HW125340   8.177   1.039   6.283 -0.1345  0.3294  0.0514
 4562SOL    HW225341   8.073   1.132   6.368  1.1676 -0.0954  2.1605
 4563SOL     OW25342   3.332   0.241   2.773  0.0255 -0.2737  0.0613
 4563SOL    HW125343   3.333   0.141   2.768 -1.6952 -0.2802 -0.2233
 4563SOL    HW225344   3.292   0.279   2.690 -1.0496  0.5938  0.9669
 4564SOL     OW25345   5.099   8.257   6.858  0.0617  0.1555  0.0092
 4564SOL    HW125346   5.087   8.208   6.772 -0.9158 -0.4780  0.4935
 4564SOL    HW225347   5.076   8.197   6.934 -1.0906  1.3181  0.6108
 4565SOL     OW25348   2.116   9.024   1.140  0.2601  0.2743  0.2692
 4565SOL    HW125349   2.197   9.052   1.089 -0.5464  0.4703 -0.9411
 4565SOL    HW225350   2.042   9.090   1.123 -0.3688 -0.3016  0.7513
 4566SOL     OW25351   0.638   6.917   5.300  0.3583  0.1658  0.2612
 4566SOL    HW125352   0.681   6.904   5.211  0.5706  1.3441  0.1813
 4566SOL    HW225353   0.578   6.997   5.297 -0.6769 -0.5687  0.7969
 4567SOL     OW25354   8.085   1.502   0.658  0.4114 -0.0675  0.9618
 4567SOL    HW125355   8.051   1.442   0.586 -0.1186  1.3239  0.0262
 4567SOL    HW225356   8.059   1.465   0.747 -1.8910 -0.0607  0.3320
 4568SOL     OW25357   1.012   3.457   7.519 -0.1340 -0.4333  0.9597
 4568SOL    HW125358   1.006   3.557   7.513 -1.1473 -0.4358  1.9484
 4568SOL    HW225359   1.006   3.429   7.614  0.0937 -1.4541  0.6747
 4569SOL     OW25360   2.743   6.212   2.617  0.2317  0.0320  0.2967
 4569SOL    HW125361   2.828   6.170   2.584 -1.1651 -1.6229 -1.3801
 4569SOL    HW225362   2.676   6.140   2.637 -0.0904  1.2146  3.6320
 4570SOL     OW25363   3.283   1.917   7.081 -0.4174  0.3726 -0.0138
 4570SOL    HW125364   3.351   1.845   7.065  0.1030  1.3249 -2.4301
 4570SOL    HW225365   3.317   2.003   7.041 -2.6674  1.0508 -0.4990
 4571SOL     OW25366   8.043   0.527   2.266 -0.0324  0.1994 -0.2325
 4571SOL    HW125367   7.967   0.463   2.255  0.2385 -0.2081  0.1905
 4571SOL    HW225368   8.075   0.558   2.177 -1.2296  1.0140 -0.3797
 4572SOL     OW25369   2.704   9.016   7.461  0.2158  0.0502 -0.1375
 4572SOL    HW125370   2.635   9.063   7.516  0.3362  1.9042 -1.5209
 4572SOL    HW225371   2.795   9.037   7.496  0.1858 -0.5676  0.3107
 4573SOL     OW25372   8.013   3.655   0.469 -0.0826  0.0077  0.0981
 4573SOL    HW125373   7.928   3.602   0.473 -0.6823  0.9295 -0.1419
 4573SOL    HW225374   8.091   3.593   0.462 -0.8463 -0.8192 -1.4774
 4574SOL     OW25375   0.043   2.180   2.707  0.0594 -0.0947 -0.0403
 4574SOL    HW125376   0.057   2.081   2.709  1.6271  0.0667 -2.1024
 4574SOL    HW225377   0.077   2.217   2.621  1.8488  2.5958  1.7584
 4575SOL     OW25378   3.772   8.956   2.046  0.6952 -0.1989 -0.1122
 4575SOL    HW125379   3.760   9.048   2.083 -1.2407 -1.3900  2.3604
 4575SOL    HW225380   3.868   8.930   2.050  1.0665  1.2327  0.3413
 4576SOL     OW25381   7.195   8.351   5.519  0.0891  0.7004 -0.1634
 4576SOL    HW125382   7.136   8.299   5.457 -1.3138 -0.5107  2.1162
 4576SOL    HW225383   7.262   8.289   5.561  0.2817  1.2784  0.4018
 4577SOL     OW25384   5.032   9.803   3.485 -0.4037 -0.8074 -0.4137
 4577SOL    HW125385   5.034   9.715   3.532  0.4318 -0.2305  0.6628
 4577SOL    HW225386   5.118   9.851   3.502 -0.6372 -0.0216 -1.4487
 4578SOL     OW25387   5.797   6.354   0.463  0.1474 -0.4659 -0.5825
 4578SOL    HW125388   5.791   6.320   0.369 -0.6586 -0.6101 -0.4862
 4578SOL    HW225389   5.713   6.330   0.512  0.1465  0.4805 -0.1163
 4579SOL     OW25390   8.253   6.802   1.220 -0.0632  0.3337 -0.0936
 4579SOL    HW125391   8.256   6.721   1.278  2.6753 -0.7426 -1.6176
 4579SOL    HW225392   8.184   6.790   1.149  0.2598 -0.6396 -0.2518
 4580SOL     OW25393   5.877   9.262   3.994  0.2480 -0.0432 -0.1870
 4580SOL    HW125394   5.976   9.274   3.990  0.4348 -1.4507 -0.2923
 4580SOL    HW225395   5.835   9.305   3.914  0.8065  0.3340 -0.2802
 4581SOL     OW25396   9.471   3.026   6.870  0.1342  0.0082 -0.4919
 4581SOL    HW125397   9.448   2.937   6.909  2.5707  0.3499  1.9123
 4581SOL    HW225398   9.454   3.025   6.771 -0.2247 -2.9923 -0.4419
 4582SOL     OW25399   3.656   4.079   6.587 -0.0068 -0.5217  0.8621
 4582SOL    HW125400   3.579   4.038   6.637 -0.3554  0.6197  1.2590
 4582SOL    HW225401   3.739   4.028   6.608 -0.4119 -0.9429  1.4749
 4583SOL     OW25402   3.338   5.803   6.985 -0.0015  0.0438  0.1067
 4583SOL    HW125403   3.417   5.783   7.043 -0.1068 -4.8875 -1.2239
 4583SOL    HW225404   3.256   5.763   7.027 -0.7568 -0.0379 -1.4370
 4584SOL     OW25405   9.588   0.903   1.221 -0.4251 -0.5747  0.1347
 4584SOL    HW125406   9.608   0.811   1.253  2.4305  0.1762  0.7063
 4584SOL    HW225407   9.591   0.906   1.121  0.5029 -0.9051  0.1482
 4585SOL     OW25408   0.703   5.155   1.094  0.4384 -0.0823 -0.3722
 4585SOL    HW125409   0.651   5.069   1.096  1.0501 -0.4420  3.9861
 4585SOL    HW225410   0.659   5.222   1.154  3.7947  0.3017  1.7877
 4586SOL     OW25411   5.788   2.242   0.111 -0.0261  0.0492  0.7165
 4586SOL    HW125412   5.784   2.341   0.094  2.7656  0.0979  0.1112
 4586SOL    HW225413   5.875   2.219   0.153  1.1686 -2.6687 -3.0082
 4587SOL     OW25414   9.797   4.610   1.993  0.0124 -0.1986  0.1481
 4587SOL    HW125415   9.707   4.590   1.955  0.1206  0.8413 -0.6799
 4587SOL    HW225416   9.864   4.612   1.919  0.3971  0.8840  0.5226
 4588SOL     OW25417   9.781   2.368   6.208  0.1095 -0.3825 -0.2021
 4588SOL    HW125418   9.732   2.455   6.222 -2.4487 -1.6996 -0.6870
 4588SOL    HW225419   9.849   2.380   6.136  2.1246  2.0906  2.0147
 4589SOL     OW25420   8.532   9.407   5.036 -0.6461  0.4483  0.7281
 4589SOL    HW125421   8.501   9.345   5.108 -2.9248  0.7967  0.0781
 4589SOL    HW225422   8.453   9.442   4.986  0.7651  2.1128 -0.3767
 4590SOL     OW25423   4.653   0.995   3.603 -0.5562 -0.3165  0.2187
 4590SOL    HW125424   4.569   0.995   3.549 -0.5670 -0.7087  0.2354
 4590SOL    HW225425   4.731   0.972   3.544 -0.1226  2.3154 -0.3104
 4591SOL     OW25426   9.806   6.965   4.728 -0.1388 -0.3689  0.3867
 4591SOL    HW125427   9.881   6.957   4.794  0.1208  2.4418  0.4783
 4591SOL    HW225428   9.727   6.916   4.762  0.8229 -1.1441  1.5514
 4592SOL     OW25429   4.274   6.721   3.786 -0.4582 -0.0925 -0.0123
 4592SOL    HW125430   4.355   6.704   3.843 -0.5662  0.0564  0.1818
 4592SOL    HW225431   4.225   6.635   3.772 -1.6289  0.2377  1.9039
 4593SOL     OW25432   0.929   3.161   1.174 -0.3679  0.5925 -0.0994
 4593SOL    HW125433   0.897   3.091   1.238 -0.6649 -0.0589 -0.9532
 4593SOL    HW225434   0.952   3.244   1.225 -0.8781  0.1825  0.8189
 4594SOL     OW25435   9.733   8.865   4.589  0.7141  1.0897  0.1187
 4594SOL    HW125436   9.784   8.794   4.639  0.8815  1.6094  0.6948
 4594SOL    HW225437   9.763   8.867   4.494  0.2109 -0.0859 -0.0639
 4595SOL     OW25438   3.023   3.291   3.543 -0.6060  0.4094  0.4996
 4595SOL    HW125439   2.926   3.310   3.531 -0.2109  0.8378 -2.3221
 4595SOL    HW225440   3.073   3.377   3.553  0.1172  0.5083 -3.5163
 4596SOL     OW25441   5.357   8.117   2.211  0.1287  0.0487 -0.0397
 4596SOL    HW125442   5.432   8.065   2.170 -1.5009 -0.4014 -2.5858
 4596SOL    HW225443   5.382   8.213   2.216  0.6899 -0.0102 -1.3899
 4597SOL     OW25444   4.539   1.866   1.352  0.5095  0.0883  0.2660
 4597SOL    HW125445   4.478   1.942   1.374  0.4281 -0.7739  3.2102
 4597SOL    HW225446   4.500   1.780   1.386  1.3159 -1.0884 -1.6791
 4598SOL     OW25447   8.687   2.132   2.747 -0.0205  0.0593  0.0573
 4598SOL    HW125448   8.729   2.053   2.702  0.5438  0.3844  0.0031
 4598SOL    HW225449   8.591   2.138   2.721  0.0804 -0.2658 -0.4029
 4599SOL     OW25450   1.158   6.302   2.251 -0.1578  0.0201 -0.1923
 4599SOL    HW125451   1.221   6.289   2.175 -0.6414  2.4765 -1.0284
 4599SOL    HW225452   1.084   6.234   2.246  0.4920 -0.6083 -1.1976
 4600SOL     OW25453   6.055   0.755   2.769  0.1742  0.0826  0.0735
 4600SOL    HW125454   6.078   0.823   2.838  0.0820  0.5697 -0.3694
 4600SOL    HW225455   6.136   0.731   2.716  0.0367  0.4895 -0.3306
 4601SOL     OW25456   5.604   8.803   4.489 -0.0895  0.0281 -0.0622
 4601SOL    HW125457   5.549   8.885   4.475 -1.3726 -0.6920  0.6326
 4601SOL    HW225458   5.625   8.762   4.401  0.0103  0.7422 -0.3771
 4602SOL     OW25459   1.114   6.153   5.707  0.7549  0.1283 -0.3143
 4602SOL    HW125460   1.015   6.143   5.704  0.7459 -0.0577  0.6783
 4602SOL    HW225461   1.145   6.202   5.625  0.0074 -1.1196 -1.3514
 4603SOL     OW25462   9.674   3.321   5.186 -0.3861 -0.1896 -0.2353
 4603SOL    HW125463   9.617   3.247   5.222 -0.6487 -0.7439 -1.7597
 4603SOL    HW225464   9.760   3.324   5.236  0.0110 -2.1455 -0.7691
 4604SOL     OW25465   4.363   7.902   6.105  0.3978  0.2992 -0.4108
 4604SOL    HW125466   4.437   7.915   6.172 -0.0880 -2.3918  0.7203
 4604SOL    HW225467   4.283   7.863   6.151 -0.3681 -0.4804 -2.3451
 4605SOL     OW25468   2.668   7.798   2.504 -0.2458  0.0635 -0.5575
 4605SOL    HW125469   2.726   7.881   2.505  0.4305 -0.4051 -0.4153
 4605SOL    HW225470   2.694   7.741   2.426  0.9719 -1.1900  0.7501
 4606SOL     OW25471   7.577   2.884   1.998 -0.2484  0.0656  0.1017
 4606SOL    HW125472   7.580   2.827   1.916 -1.8517  0.7434 -0.4465
 4606SOL    HW225473   7.663   2.874   2.049 -0.0228 -1.8793 -0.6187
 4607SOL     OW25474   2.661   3.108   0.313  0.5170 -0.6276 -0.0584
 4607SOL    HW125475   2.688   3.203   0.305  2.1467 -0.9569  1.2199
 4607SOL    HW225476   2.735   3.055   0.355 -1.6230 -1.7885  2.4777
 4608SOL     OW25477   0.724   1.106   6.745 -0.2000  0.7277 -0.6503
 4608SOL    HW125478   0.649   1.103   6.811 -1.2324  0.8284 -1.7950
 4608SOL    HW225479   0.708   1.039   6.673  0.3648  1.3451 -1.3692
 4609SOL     OW25480   8.058   1.118   3.973 -0.1024 -0.2948  0.2256
 4609SOL    HW125481   8.061   1.180   3.895 -4.9718  3.8185  2.9795
 4609SOL    HW225482   7.978   1.058   3.966  0.5675 -1.3169  1.0922
 4610SOL     OW25483   0.014   9.342   4.306 -0.2533  0.0921 -0.2033
 4610SOL    HW125484   0.041   9.386   4.392 -0.2369  0.7585 -0.5453
 4610SOL    HW225485   0.075   9.373   4.233 -0.0239 -0.7699 -0.3817
 4611SOL     OW25486   5.009   2.673   5.330 -0.1557  0.2232 -0.0927
 4611SOL    HW125487   4.929   2.684   5.389 -0.0256 -0.3933  0.2067
 4611SOL    HW225488   5.007   2.581   5.289  0.3398  0.2458 -0.1705
 4612SOL     OW25489   4.350   0.474   0.353 -0.2148  0.0117  0.5026
 4612SOL    HW125490   4.381   0.459   0.259 -0.8392  0.2706  0.2482
 4612SOL    HW225491   4.251   0.489   0.353 -0.1421  0.5122  1.1489
 4613SOL     OW25492   5.973   1.004   3.286 -0.1173 -0.0198 -0.1885
 4613SOL    HW125493   6.025   1.088   3.269  0.7524 -0.5733 -0.2453
 4613SOL    HW225494   5.949   0.999   3.383  0.2575  0.0523 -0.0903
 4614SOL     OW25495   3.226   1.390   8.003 -0.2874  0.2606 -0.1885
 4614SOL    HW125496   3.291   1.430   7.938  0.4912  2.0270  1.6254
 4614SOL    HW225497   3.139   1.373   7.956  0.8977 -0.4986 -2.2019
 4615SOL     OW25498   2.955   0.765   4.441 -0.5337  0.7955  0.0662
 4615SOL    HW125499   2.923   0.740   4.532 -1.2877  1.9799  0.1469
 4615SOL    HW225500   2.918   0.700   4.374 -1.1922  0.7769  0.4367
 4616SOL     OW25501   1.311   5.106   1.471  0.3351 -0.4487  0.1267
 4616SOL    HW125502   1.318   5.199   1.507  0.8055 -0.7180  0.7254
 4616SOL    HW225503   1.398   5.078   1.432  0.0272 -0.4231 -0.5945
 4617SOL     OW25504   1.118   5.381   2.241 -0.4221 -0.4146 -0.4814
 4617SOL    HW125505   1.118   5.466   2.293  1.2239 -0.8261  0.2072
 4617SOL    HW225506   1.100   5.304   2.302 -0.1474 -0.7378 -0.8072
 4618SOL     OW25507   1.985   1.340   1.196  0.2757 -0.5190  0.0452
 4618SOL    HW125508   2.082   1.323   1.213  0.5666 -1.2463 -2.1436
 4618SOL    HW225509   1.930   1.270   1.240  0.7565 -0.2971  1.0107
 4619SOL     OW25510   0.848   6.011   4.416  0.2452 -0.3118 -0.1716
 4619SOL    HW125511   0.880   6.075   4.347  2.2071  0.3777  1.3293
 4619SOL    HW225512   0.891   6.032   4.504 -3.4312 -0.1719  1.6489
 4620SOL     OW25513   9.922   0.131   4.445  0.6261 -0.2308 -0.7584
 4620SOL    HW125514   9.917   0.183   4.530  1.2015  0.5903 -1.2130
 4620SOL    HW225515  10.006   0.076   4.445  0.9330  0.2268 -1.0364
 4621SOL     OW25516   8.691   7.667   0.893  0.1361 -0.0646 -0.2683
 4621SOL    HW125517   8.669   7.701   0.984  0.7216 -0.8664  0.1821
 4621SOL    HW225518   8.748   7.584   0.901  0.3769 -0.0152 -1.3571
 4622SOL     OW25519   8.578   8.287   0.896  0.7791  0.3444  0.2310
 4622SOL    HW125520   8.565   8.377   0.854  0.5047  0.4982  0.6401
 4622SOL    HW225521   8.674   8.260   0.890  0.6823  0.2152 -0.7993
 4623SOL     OW25522   3.483   7.553   4.185  0.4076  0.1242 -0.4547
 4623SOL    HW125523   3.574   7.545   4.226 -0.2123  0.5141  1.0650
 4623SOL    HW225524   3.443   7.642   4.210  0.1833  0.5504 -2.2979
 4624SOL     OW25525   8.488   2.856   1.963  0.4505 -0.4388 -0.2547
 4624SOL    HW125526   8.419   2.786   1.945 -0.2898 -0.1106  1.2589
 4624SOL    HW225527   8.444   2.940   1.995  1.4676  0.1438 -0.3561
 4625SOL     OW25528   3.958   8.841   5.082  0.4807  0.2322  0.1158
 4625SOL    HW125529   4.031   8.878   5.140  0.5734  0.3942 -0.1054
 4625SOL    HW225530   3.956   8.742   5.091  0.2421  0.2831  0.7013
 4626SOL     OW25531   8.944   4.901   2.834 -0.3178 -0.2386  0.3436
 4626SOL    HW125532   8.888   4.923   2.754 -0.3922  2.1747  1.0194
 4626SOL    HW225533   9.035   4.940   2.824 -0.0024 -0.7967  0.9782
 4627SOL     OW25534   1.261   3.237   0.270  0.2391 -0.4938 -0.2424
 4627SOL    HW125535   1.311   3.240   0.183 -1.4088 -1.9818 -1.2568
 4627SOL    HW225536   1.248   3.142   0.298 -0.0700 -0.0470  1.1719
 4628SOL     OW25537   3.228   9.783   3.599  0.1681  0.1767  0.2907
 4628SOL    HW125538   3.306   9.723   3.579 -0.4360 -0.9075  1.1225
 4628SOL    HW225539   3.153   9.728   3.636 -0.5052  1.4133  0.7732
 4629SOL     OW25540   9.786   1.963   1.755  0.5302  0.2413 -0.0626
 4629SOL    HW125541   9.855   2.036   1.746  0.0489  0.7096  0.0197
 4629SOL    HW225542   9.779   1.936   1.851  1.1277 -0.3253 -0.1744
 4630SOL     OW25543   9.283   8.939   4.022 -0.1376 -0.1817 -0.0017
 4630SOL    HW125544   9.286   9.016   4.086  2.8017  0.6896 -1.0865
 4630SOL    HW225545   9.189   8.906   4.013 -0.9360  1.0980  3.0491
 4631SOL     OW25546   2.878   2.060   3.264  0.6093  0.5322  0.1210
 4631SOL    HW125547   2.781   2.061   3.290  0.3700  0.4709 -0.7195
 4631SOL    HW225548   2.930   2.117   3.327 -0.3376  2.3939 -0.7296
 4632SOL     OW25549   4.615   8.625   1.702  0.4705  0.3601 -0.2045
 4632SOL    HW125550   4.693   8.580   1.745  0.7918 -0.9451 -2.0415
 4632SOL    HW225551   4.601   8.585   1.611 -1.4639  1.5607 -0.4525
 4633SOL     OW25552   1.579   4.735   7.475 -0.1434  0.7602 -0.3705
 4633SOL    HW125553   1.510   4.704   7.408 -1.4513 -1.5194  1.9219
 4633SOL    HW225554   1.653   4.668   7.479 -0.8344  0.0534  1.4943
 4634SOL     OW25555   1.465   4.843   3.117  0.4916  0.5808 -0.3204
 4634SOL    HW125556   1.426   4.783   3.187 -0.6649  1.3770 -0.2685
 4634SOL    HW225557   1.555   4.808   3.090  0.2082 -0.6896  0.3212
 4635SOL     OW25558   4.546   1.533   6.662 -0.2391 -0.2830  0.7254
 4635SOL    HW125559   4.499   1.606   6.713 -1.9711 -0.2507 -0.8512
 4635SOL    HW225560   4.503   1.445   6.684 -0.5772 -0.3465 -0.1921
 4636SOL     OW25561   8.932   8.607   4.848  0.3124 -0.1152  0.3048
 4636SOL    HW125562   8.946   8.512   4.818  0.4188 -0.1890  0.5854
 4636SOL    HW225563   9.010   8.636   4.903  0.6055  0.3766 -0.3830
 4637SOL     OW25564   4.278   2.231   2.614  0.4113  0.0264  0.0330
 4637SOL    HW125565   4.310   2.290   2.688 -0.0472  0.1312  0.1521
 4637SOL    HW225566   4.344   2.233   2.539  1.2474 -0.6647  0.7329
 4638SOL     OW25567   3.262   1.250   5.288 -0.2092 -1.2905 -0.0965
 4638SOL    HW125568   3.340   1.189   5.275  0.2441 -0.8170  0.3703
 4638SOL    HW225569   3.222   1.273   5.200 -0.4217 -2.3128 -0.2752
 4639SOL     OW25570   3.184   3.914   1.810 -0.2328 -0.1739 -0.0161
 4639SOL    HW125571   3.086   3.895   1.804 -0.0773 -0.6733 -1.0808
 4639SOL    HW225572   3.204   3.955   1.899 -1.3687 -0.2837  0.3055
 4640SOL     OW25573   7.961   1.175   4.528  0.4064 -0.3879  0.1925
 4640SOL    HW125574   7.896   1.251   4.537 -1.4567 -1.9661  0.5565
 4640SOL    HW225575   7.985   1.162   4.432 -0.0757  0.0068  0.0179
 4641SOL     OW25576   9.489   8.147   6.339  0.2783 -0.3869  0.0813
 4641SOL    HW125577   9.409   8.175   6.285  0.3015  1.1447  0.8240
 4641SOL    HW225578   9.462   8.074   6.402 -0.0621 -1.2427 -1.0282
 4642SOL     OW25579   4.382   0.199   1.109 -0.5924  0.2431 -0.3701
 4642SOL    HW125580   4.303   0.262   1.106 -0.3101  0.6932  1.0348
 4642SOL    HW225581   4.457   0.243   1.158 -0.4895 -1.2926  0.9055
 4643SOL     OW25582   3.586   4.743   5.953  0.0093 -0.1553  0.1974
 4643SOL    HW125583   3.626   4.791   6.031  0.7172  0.7086 -0.6835
 4643SOL    HW225584   3.643   4.665   5.928  0.0407 -0.1455  0.2386
 4644SOL     OW25585   7.020   5.649   0.082 -0.1079  0.6860  0.1103
 4644SOL    HW125586   7.000   5.677  -0.012  1.3242  0.0015 -0.3989
 4644SOL    HW225587   6.946   5.681   0.142 -0.9871  1.2038 -1.2211
 4645SOL     OW25588   5.441   1.152   4.889  0.2031 -0.0520  0.1210
 4645SOL    HW125589   5.529   1.160   4.936 -0.3340 -1.6755  1.4709
 4645SOL    HW225590   5.439   1.068   4.835  0.9989  2.0451 -3.2966
 4646SOL     OW25591   7.662   5.589   3.499  0.2990  0.2557 -0.2009
 4646SOL    HW125592   7.598   5.660   3.471 -0.2416 -0.0815  0.1812
 4646SOL    HW225593   7.627   5.542   3.580  0.1468 -1.1665 -1.0800
 4647SOL     OW25594   9.665   6.498   2.157 -0.1432  0.1410  0.0716
 4647SOL    HW125595   9.702   6.524   2.247 -0.7939  0.0224  0.3778
 4647SOL    HW225596   9.633   6.404   2.160  0.3988 -0.0613 -0.4703
 4648SOL     OW25597   4.698   8.834   7.895 -0.7073 -0.3394 -1.0208
 4648SOL    HW125598   4.609   8.873   7.918  0.4286  2.2449 -0.8264
 4648SOL    HW225599   4.715   8.845   7.797  0.1470  0.8642 -0.7540
 4649SOL     OW25600   0.724   2.204   3.082  0.4384  0.0489 -0.6337
 4649SOL    HW125601   0.637   2.250   3.101  1.4207  1.5865  0.2588
 4649SOL    HW225602   0.746   2.142   3.158 -0.1611 -0.7697 -1.1313
 4650SOL     OW25603   3.434   7.104   5.773 -0.1329 -0.4419 -0.1714
 4650SOL    HW125604   3.530   7.077   5.772 -0.3408 -1.1806 -0.4760
 4650SOL    HW225605   3.377   7.024   5.757 -0.8513 -0.1845  1.1011
 4651SOL     OW25606   7.761   7.937   6.046 -0.1151 -0.0559 -0.7827
 4651SOL    HW125607   7.813   7.877   5.985 -0.3817 -1.3121  0.1919
 4651SOL    HW225608   7.664   7.933   6.023 -0.2044 -0.4577 -0.3558
 4652SOL     OW25609   3.713   3.706   3.372  1.0415 -0.3777  0.7430
 4652SOL    HW125610   3.619   3.696   3.340  1.6610 -0.5740 -1.0332
 4652SOL    HW225611   3.716   3.775   3.444 -0.6220 -1.1200  1.5613
 4653SOL     OW25612   5.269   9.618   1.571 -0.9159 -0.4315 -0.3026
 4653SOL    HW125613   5.270   9.602   1.670 -0.1514 -0.0515 -0.2434
 4653SOL    HW225614   5.225   9.705   1.552 -0.3810 -0.1490 -0.2417
 4654SOL     OW25615   4.818   4.392   4.830  0.4061 -0.4663 -0.3708
 4654SOL    HW125616   4.727   4.352   4.838  1.2943 -2.5601 -0.3381
 4654SOL    HW225617   4.869   4.378   4.915  1.2764 -0.6602 -0.9159
 4655SOL     OW25618   0.676   8.937   3.410  0.1182 -0.0466 -0.3731
 4655SOL    HW125619   0.605   9.007   3.402 -0.8728 -0.9440  0.4728
 4655SOL    HW225620   0.691   8.915   3.506  1.7567  0.3298 -0.5138
 4656SOL     OW25621   1.859   0.483   5.798  0.7191 -0.0395 -0.1723
 4656SOL    HW125622   1.908   0.569   5.781  0.0019  0.1765 -1.1900
 4656SOL    HW225623   1.776   0.481   5.743 -0.7564 -0.1179  1.9979
 4657SOL     OW25624   8.489   1.661   0.412  0.0345 -0.9592 -0.5248
 4657SOL    HW125625   8.533   1.692   0.328  1.6872 -0.2071  0.6028
 4657SOL    HW225626   8.415   1.724   0.436  1.6550  0.6761  0.3051
 4658SOL     OW25627   9.535   8.827   0.457 -0.9070  0.2355 -0.3979
 4658SOL    HW125628   9.455   8.843   0.399 -0.1833 -0.2814 -1.5516
 4658SOL    HW225629   9.506   8.786   0.544 -2.0413  1.4080 -0.2018
 4659SOL     OW25630   0.882   4.332   3.554 -0.6383  0.4840  0.3254
 4659SOL    HW125631   0.976   4.319   3.523 -0.4115  2.0427  0.3315
 4659SOL    HW225632   0.866   4.279   3.637 -0.1581 -0.7947 -0.3835
 4660SOL     OW25633   9.350   0.898   5.672 -0.6551  0.2428 -0.0192
 4660SOL    HW125634   9.313   0.810   5.700  0.3507 -0.5965 -1.2913
 4660SOL    HW225635   9.357   0.958   5.753 -0.7077 -1.0617  0.9685
 4661SOL     OW25636   1.719   9.325   1.646  0.1115 -0.3239  0.5445
 4661SOL    HW125637   1.724   9.342   1.548  0.7597 -1.3833  0.3771
 4661SOL    HW225638   1.626   9.299   1.672 -0.6714  2.4907  0.6626
 4662SOL     OW25639   1.576   0.402   2.111 -0.2349 -0.1314  0.5569
 4662SOL    HW125640   1.538   0.489   2.143 -1.2912  0.1845 -1.4587
 4662SOL    HW225641   1.560   0.332   2.180 -0.2936  1.0426  1.7608
 4663SOL     OW25642   0.799   7.802   4.453 -0.3437 -0.3271 -0.0940
 4663SOL    HW125643   0.782   7.898   4.431 -0.9815 -0.0182  1.6583
 4663SOL    HW225644   0.798   7.790   4.553 -2.2839 -2.5003 -0.3272
 4664SOL     OW25645   0.987   0.996   7.370  0.0467 -0.1458  0.3013
 4664SOL    HW125646   1.024   0.904   7.361 -0.3420 -0.2699 -0.0258
 4664SOL    HW225647   1.044   1.060   7.319 -0.3990 -0.3937 -0.5234
 4665SOL     OW25648   8.304   1.582   3.186 -0.0231  0.0368 -0.1260
 4665SOL    HW125649   8.369   1.535   3.126  0.1239  0.0782  0.0005
 4665SOL    HW225650   8.295   1.532   3.272 -2.0863 -1.3878 -1.1226
 4666SOL     OW25651   8.078   1.800   2.845  0.0359  0.1194  0.0844
 4666SOL    HW125652   8.070   1.737   2.923  0.3957  0.5187  0.4502
 4666SOL    HW225653   8.122   1.753   2.769  1.9257  0.4219  0.9497
 4667SOL     OW25654   1.391   9.165   4.630  0.0547  0.3848 -0.4381
 4667SOL    HW125655   1.329   9.106   4.682 -1.6382  2.4952  0.0216
 4667SOL    HW225656   1.485   9.145   4.656 -0.4966 -1.9826 -0.1832
 4668SOL     OW25657   1.628   0.323   4.112 -0.0073  0.4269  0.7782
 4668SOL    HW125658   1.720   0.359   4.130  0.7987 -0.9476 -0.4369
 4668SOL    HW225659   1.594   0.277   4.194  0.9053 -0.0964  0.8785
 4669SOL     OW25660   6.054   7.959   5.112 -0.4479 -0.1735 -0.2937
 4669SOL    HW125661   6.088   7.984   5.202  1.8925 -2.9829 -0.3131
 4669SOL    HW225662   6.123   7.978   5.043 -1.4819  0.1838 -1.2604
 4670SOL     OW25663   0.083   8.097   8.169 -0.6046  0.6191  0.0903
 4670SOL    HW125664   0.064   8.188   8.132 -0.5394  0.7112  0.2892
 4670SOL    HW225665   0.097   8.033   8.093 -0.1655  0.8746 -0.0478
 4671SOL     OW25666   9.925   4.563   7.751 -0.0641 -0.3009 -0.0609
 4671SOL    HW125667   9.983   4.542   7.672  0.3373  0.0586  0.1340
 4671SOL    HW225668   9.881   4.480   7.783  0.7127 -0.6616  0.0841
 4672SOL     OW25669   5.500   0.761   3.628 -0.1810 -0.0393  0.1261
 4672SOL    HW125670   5.437   0.683   3.623 -0.1576  0.0273 -2.1056
 4672SOL    HW225671   5.590   0.733   3.594 -0.6986  1.4044 -2.6475
 4673SOL     OW25672   2.671   6.710   6.415  0.1853 -0.2163 -0.5041
 4673SOL    HW125673   2.587   6.696   6.467  0.8782 -0.7101  0.4887
 4673SOL    HW225674   2.648   6.722   6.318 -1.2865  2.5387  0.1000
 4674SOL     OW25675   1.177   3.687   0.858  0.6254 -0.0791  0.5726
 4674SOL    HW125676   1.270   3.684   0.893  0.9931 -1.1444 -0.4500
 4674SOL    HW225677   1.129   3.603   0.885 -0.0834  0.5266  1.2132
 4675SOL     OW25678   6.377   2.703   5.067  0.1828  0.2642  0.2083
 4675SOL    HW125679   6.413   2.679   4.977  1.1003 -0.1510  0.6792
 4675SOL    HW225680   6.444   2.679   5.137 -0.8571 -0.1399  1.0706
 4676SOL     OW25681   0.817   2.554   4.359  0.2517 -0.5746  0.4186
 4676SOL    HW125682   0.718   2.560   4.373  0.1107 -0.6325 -0.4774
 4676SOL    HW225683   0.835   2.506   4.272  1.0476  0.2455  0.1215
 4677SOL     OW25684   3.504   3.225   3.507 -0.1893  0.0344 -0.5928
 4677SOL    HW125685   3.479   3.154   3.441  1.0962  0.3243 -1.4175
 4677SOL    HW225686   3.573   3.189   3.570  0.6355  0.6100 -1.1585
 4678SOL     OW25687   8.343   8.110   6.549  0.0768 -0.0642  0.5902
 4678SOL    HW125688   8.339   8.010   6.554  0.8182 -0.0695  1.1050
 4678SOL    HW225689   8.407   8.137   6.477 -0.2635  0.0430  0.3254
 4679SOL     OW25690   9.232   2.429   0.345 -0.6824  0.0368  0.2822
 4679SOL    HW125691   9.295   2.378   0.287 -1.1113 -0.3271  0.1277
 4679SOL    HW225692   9.176   2.489   0.288 -0.3305  0.5157  0.4412
 4680SOL     OW25693   8.924   1.506   6.192  0.0905 -0.1702  0.3288
 4680SOL    HW125694   9.002   1.509   6.254 -0.6693 -0.8757  1.3393
 4680SOL    HW225695   8.911   1.412   6.159 -0.5801 -0.1431  0.5020
 4681SOL     OW25696   4.967   2.639   7.834 -0.3265 -0.3436  0.0605
 4681SOL    HW125697   4.918   2.555   7.814 -0.9094  0.3175 -1.3512
 4681SOL    HW225698   4.908   2.702   7.884 -0.6620  0.1126 -0.8875
 4682SOL     OW25699   2.876   6.809   0.638  0.1532  0.1654  0.2147
 4682SOL    HW125700   2.784   6.845   0.650  0.7140  1.4043  0.8318
 4682SOL    HW225701   2.874   6.734   0.571 -1.0543  1.2329 -0.9778
 4683SOL     OW25702   2.930   8.702   2.695  0.3889  0.6207 -0.3111
 4683SOL    HW125703   2.975   8.762   2.628  1.4371  0.3186  0.1071
 4683SOL    HW225704   2.997   8.672   2.763 -0.2223 -0.6732 -0.2589
 4684SOL     OW25705   1.920   3.979   4.323  0.1008 -0.0004  0.0343
 4684SOL    HW125706   1.848   4.007   4.386  1.0459  1.9728  0.2843
 4684SOL    HW225707   1.880   3.926   4.248 -1.4360  0.0865  0.7734
 4685SOL     OW25708   1.722   4.733   6.337  0.5155  0.4513 -0.0535
 4685SOL    HW125709   1.805   4.762   6.384  1.2971 -0.4853 -0.8541
 4685SOL    HW225710   1.661   4.811   6.327  0.9707  0.9799  1.2051
 4686SOL     OW25711   9.974   4.599   4.032 -0.2379  0.1933 -0.3304
 4686SOL    HW125712   9.978   4.668   4.105  0.9219 -0.8297  0.5728
 4686SOL    HW225713  10.039   4.623   3.961  0.1864  0.0036 -0.0038
 4687SOL     OW25714   5.480   9.453   4.625 -0.3639 -0.1165  0.2279
 4687SOL    HW125715   5.420   9.393   4.677 -0.4959 -0.7865 -0.6929
 4687SOL    HW225716   5.495   9.538   4.676  1.8690 -1.9497  2.7262
 4688SOL     OW25717   2.109   7.970   6.446  0.0660 -0.3981  0.2507
 4688SOL    HW125718   2.189   7.916   6.472 -0.1722 -0.6241  0.5260
 4688SOL    HW225719   2.047   7.915   6.390 -0.1792 -0.4155  0.5352
 4689SOL     OW25720   1.854   0.283   7.509  0.7456  0.3833  0.0482
 4689SOL    HW125721   1.824   0.211   7.447 -0.2636 -0.3777  1.4068
 4689SOL    HW225722   1.774   0.322   7.556  1.1880  2.8356 -1.1271
 4690SOL     OW25723   9.557   5.726   1.138  0.0089  0.0756 -0.4929
 4690SOL    HW125724   9.517   5.756   1.051  0.3993 -0.5963 -0.9100
 4690SOL    HW225725   9.629   5.791   1.165 -2.3228  2.1028  1.0108
 4691SOL     OW25726   2.427   1.432   3.231 -0.4936 -0.0840  0.4823
 4691SOL    HW125727   2.416   1.482   3.145  0.8514 -0.6757 -0.0413
 4691SOL    HW225728   2.439   1.335   3.212  0.0972 -0.1861  1.3267
 4692SOL     OW25729   0.957   7.400   5.322 -0.0733 -0.4549 -0.5266
 4692SOL    HW125730   0.911   7.318   5.288  0.0293 -0.4986 -0.5603
 4692SOL    HW225731   1.036   7.420   5.264 -1.0595  0.6338 -1.5514
 4693SOL     OW25732   9.144   9.842   3.462 -0.2622 -0.5064 -0.0712
 4693SOL    HW125733   9.167   9.934   3.429 -1.1777 -0.7214 -1.3723
 4693SOL    HW225734   9.215   9.778   3.434 -0.7011 -0.5677 -1.0850
 4694SOL     OW25735   2.628   7.120   2.966 -0.3482 -0.0389 -0.6129
 4694SOL    HW125736   2.594   7.130   2.872  0.3233 -1.8708 -1.0789
 4694SOL    HW225737   2.726   7.140   2.968 -0.5595  0.9357 -0.1206
 4695SOL     OW25738   9.734   5.963   7.976 -0.1673 -0.2384  0.1112
 4695SOL    HW125739   9.821   5.949   8.024  1.2429 -0.1179 -2.2788
 4695SOL    HW225740   9.706   5.879   7.931 -1.3586 -0.3012  0.9491
 4696SOL     OW25741   8.130   2.185   7.352  0.3857 -0.5700 -0.0979
 4696SOL    HW125742   8.095   2.152   7.440  0.0066  1.3138  0.4693
 4696SOL    HW225743   8.120   2.284   7.347  0.8908 -0.5984 -2.0612
 4697SOL     OW25744   0.327   2.576   0.880  0.1746 -0.4298  0.1109
 4697SOL    HW125745   0.268   2.498   0.862 -2.0347  1.2807 -0.1881
 4697SOL    HW225746   0.351   2.620   0.794 -1.2770  1.1576  0.5059
 4698SOL     OW25747   9.533   1.279   2.669  0.1265  0.3188 -0.2035
 4698SOL    HW125748   9.499   1.347   2.604 -1.9783 -0.4062  0.0979
 4698SOL    HW225749   9.549   1.323   2.758 -1.1958  0.4531 -0.0204
 4699SOL     OW25750   0.583   2.887   6.899 -0.3456 -0.0265  0.5612
 4699SOL    HW125751   0.604   2.923   6.808 -0.7021 -0.9623  0.1053
 4699SOL    HW225752   0.484   2.876   6.908 -0.2136 -1.2674  0.5501
 4700SOL     OW25753   8.373   4.586   5.611  0.1637 -0.4179  0.1876
 4700SOL    HW125754   8.362   4.530   5.529  0.1568  0.7708 -0.6344
 4700SOL    HW225755   8.450   4.649   5.599  1.6173 -1.7908  1.9906
 4701SOL     OW25756   2.458   9.221   1.986  0.3792 -0.5042 -0.4708
 4701SOL    HW125757   2.503   9.176   1.908  0.0308  1.0756 -1.5909
 4701SOL    HW225758   2.368   9.255   1.958 -0.0149 -0.4797  0.7983
 4702SOL     OW25759   7.765   2.457   1.328  0.6501 -0.2385 -0.5587
 4702SOL    HW125760   7.847   2.481   1.379  0.9704 -1.2998 -0.5506
 4702SOL    HW225761   7.779   2.475   1.231  1.5621 -2.0515 -0.7959
 4703SOL     OW25762   5.626   1.157   7.316  0.3775  0.3379 -0.0273
 4703SOL    HW125763   5.673   1.180   7.231 -0.5483  1.1686 -0.3227
 4703SOL    HW225764   5.619   1.238   7.374 -2.6988  0.8062 -0.9723
 4704SOL     OW25765   8.774   4.697   2.253  0.0616 -0.0984 -0.5368
 4704SOL    HW125766   8.761   4.637   2.331 -0.2973 -1.6390 -1.7497
 4704SOL    HW225767   8.828   4.777   2.280  0.6255 -1.0158  1.0684
 4705SOL     OW25768   9.541   2.333   5.136  0.0751  0.2470  0.0403
 4705SOL    HW125769   9.588   2.404   5.083  0.5997 -1.2590 -1.5784
 4705SOL    HW225770   9.601   2.254   5.145 -1.3270 -0.8536 -0.1117
 4706SOL     OW25771   2.266   8.293   8.061  0.7952  0.0817 -0.4368
 4706SOL    HW125772   2.316   8.336   7.985  2.2165  1.3873  1.2134
 4706SOL    HW225773   2.306   8.204   8.081  1.0873  0.1870 -0.5446
 4707SOL     OW25774   3.986   9.154   0.122 -0.5776  0.4233  0.2733
 4707SOL    HW125775   3.947   9.142   0.030  0.3164 -0.7924  0.0437
 4707SOL    HW225776   4.064   9.093   0.133  2.8513  4.5315 -0.1085
 4708SOL     OW25777   0.166   8.570   6.549 -0.0265  0.4773  0.1355
 4708SOL    HW125778   0.070   8.544   6.541  0.1490 -0.7411  1.8743
 4708SOL    HW225779   0.198   8.553   6.642  1.4956  2.2193 -0.0398
 4709SOL     OW25780   2.273   7.013   5.814  0.2980 -0.5583 -0.1570
 4709SOL    HW125781   2.175   7.011   5.836  0.2186 -0.3446 -0.4856
 4709SOL    HW225782   2.305   6.921   5.794  0.1654 -0.6310 -0.0350
 4710SOL     OW25783   9.536   8.273   0.417 -0.9550  0.3899 -0.1271
 4710SOL    HW125784   9.560   8.369   0.405  2.0920 -0.4379 -1.0220
 4710SOL    HW225785   9.498   8.237   0.332 -0.0567  0.2567 -0.4780
 4711SOL     OW25786   8.108   8.509   7.009  0.2276  0.3891 -0.2134
 4711SOL    HW125787   8.139   8.517   7.103  0.3524  2.1592 -0.3919
 4711SOL    HW225788   8.187   8.516   6.947  0.2037 -1.2059 -0.4462
 4712SOL     OW25789   3.971   5.282   0.686 -0.0022 -0.0720 -0.3720
 4712SOL    HW125790   4.030   5.282   0.606  2.2612  1.6162  1.2363
 4712SOL    HW225791   3.993   5.204   0.745  0.4984  0.4361  0.1220
 4713SOL     OW25792   3.597   5.409   3.381  0.1472  0.1447 -0.4726
 4713SOL    HW125793   3.501   5.418   3.353  0.1127  1.5074  0.0445
 4713SOL    HW225794   3.605   5.335   3.447 -0.2031 -1.3298 -2.0444
 4714SOL     OW25795   0.372   3.505   7.231  0.2635 -0.0087  0.8079
 4714SOL    HW125796   0.430   3.424   7.246  0.4911 -0.1995 -0.9891
 4714SOL    HW225797   0.380   3.534   7.135 -0.4868  1.6284  1.2327
 4715SOL     OW25798   2.689   1.092   4.828  0.0314  0.4216 -0.4119
 4715SOL    HW125799   2.641   1.137   4.903  0.5317 -0.0935  0.2256
 4715SOL    HW225800   2.698   1.156   4.751 -2.1809  0.3534 -0.7783
 4716SOL     OW25801   1.745   6.977   5.937 -0.0526 -0.7032  0.0440
 4716SOL    HW125802   1.756   6.949   6.032  1.0872 -1.4349 -0.2853
 4716SOL    HW225803   1.733   6.895   5.880 -0.4575 -0.2889 -0.4646
 4717SOL     OW25804   7.577   0.630   6.157  0.6523  0.1254  0.0424
 4717SOL    HW125805   7.482   0.658   6.150  0.6603  0.0839 -0.2144
 4717SOL    HW225806   7.597   0.560   6.089  0.7347 -0.2285  0.4229
 4718SOL     OW25807   8.705   2.700   3.394 -0.1584 -0.1895  0.7356
 4718SOL    HW125808   8.755   2.754   3.463 -0.2127 -1.8762  2.1396
 4718SOL    HW225809   8.715   2.603   3.415 -0.6383 -0.7114 -1.3605
 4719SOL     OW25810   0.080   4.718   2.570 -0.6113  0.5230  0.0586
 4719SOL    HW125811   0.121   4.672   2.648  1.1363  0.0285 -1.1263
 4719SOL    HW225812   0.065   4.814   2.592 -0.0904  0.3977  0.9752
 4720SOL     OW25813   8.173   9.623   4.672 -0.1623 -0.5093 -0.0171
 4720SOL    HW125814   8.155   9.720   4.655 -0.9645 -0.6653 -0.0703
 4720SOL    HW225815   8.224   9.585   4.596 -0.8454 -0.4036 -0.5305
 4721SOL     OW25816   7.036   7.803   5.909  0.1410  0.4099  0.5044
 4721SOL    HW125817   7.047   7.840   5.817 -1.0483  1.0069  0.5904
 4721SOL    HW225818   6.973   7.860   5.961  0.0314 -0.4742  1.3755
 4722SOL     OW25819   9.413   0.838   1.898  0.3503 -0.0329  0.2918
 4722SOL    HW125820   9.458   0.781   1.829 -0.8942  1.0956 -1.5134
 4722SOL    HW225821   9.329   0.877   1.859 -0.0239  1.1801  2.2343
 4723SOL     OW25822   1.312   7.985   7.418  0.2877 -0.2403 -0.2892
 4723SOL    HW125823   1.260   8.009   7.500  0.0334 -2.6114  0.2822
 4723SOL    HW225824   1.250   7.954   7.346  0.5754  1.1141 -1.1422
 4724SOL     OW25825   8.863   2.150   3.677 -0.2961  0.5344 -0.5632
 4724SOL    HW125826   8.787   2.212   3.699 -0.3304  0.0681  0.6683
 4724SOL    HW225827   8.914   2.187   3.599 -1.0056  1.5241 -0.5737
 4725SOL     OW25828   6.938   7.395   4.851 -0.7613 -0.0265 -0.4648
 4725SOL    HW125829   6.909   7.422   4.943 -1.0131 -1.7024 -0.0373
 4725SOL    HW225830   6.867   7.421   4.785 -1.2995 -0.2462  0.0232
 4726SOL     OW25831   8.250   2.359   0.659  0.0529 -0.0611  0.2649
 4726SOL    HW125832   8.200   2.321   0.581 -0.5258  0.8467  0.1845
 4726SOL    HW225833   8.186   2.378   0.733  0.4966 -0.2567  0.7003
 4727SOL     OW25834   3.825   3.933   3.089 -0.6070  0.4568 -0.2754
 4727SOL    HW125835   3.831   3.922   2.990 -1.0546 -0.5770 -0.1880
 4727SOL    HW225836   3.734   3.906   3.120 -0.1079 -0.2676  0.5616
 4728SOL     OW25837   8.068   1.099   4.293 -0.3652  0.5665 -0.0848
 4728SOL    HW125838   8.068   1.078   4.195 -1.8021  1.6198 -0.3289
 4728SOL    HW225839   8.129   1.036   4.340 -2.8268 -2.7106 -1.0909
 4729SOL     OW25840   9.417   2.905   4.047 -0.1416 -0.0171 -0.0536
 4729SOL    HW125841   9.438   2.871   3.956 -1.4838 -0.1633 -0.3293
 4729SOL    HW225842   9.345   2.848   4.088 -0.9343  1.2148  0.3025
 4730SOL     OW25843   1.915   6.507   3.767 -0.2720 -0.1955  0.4711
 4730SOL    HW125844   1.861   6.424   3.758  0.4361 -0.7217  0.9826
 4730SOL    HW225845   1.854   6.585   3.780 -0.9209 -0.7067  0.5349
 4731SOL     OW25846   2.967   7.751   2.877 -0.5098 -0.2621  0.6451
 4731SOL    HW125847   2.901   7.819   2.846 -0.9234  0.2025  2.4867
 4731SOL    HW225848   2.922   7.685   2.937  0.3108 -1.0056  0.4632
 4732SOL     OW25849   8.660   9.220   2.796  0.3735  0.5523 -0.7363
 4732SOL    HW125850   8.613   9.211   2.884  0.0056 -1.8099 -1.1397
 4732SOL    HW225851   8.636   9.307   2.754 -2.3033  0.1616 -0.1228
 4733SOL     OW25852   1.605   3.736   4.278 -0.4716  0.2285  0.7251
 4733SOL    HW125853   1.626   3.661   4.341 -0.9645 -0.9273 -0.4578
 4733SOL    HW225854   1.683   3.750   4.216 -1.3650 -1.0753 -0.7502
 4734SOL     OW25855   2.775   3.546   1.126 -0.2672  1.2054 -0.2748
 4734SOL    HW125856   2.815   3.479   1.189  1.1371 -0.0767 -2.4457
 4734SOL    HW225857   2.690   3.510   1.089 -0.7077  1.6372  0.3081
 4735SOL     OW25858   9.346   2.048   0.171 -0.4413  0.1983 -0.3454
 4735SOL    HW125859   9.403   2.030   0.090 -0.7492  2.2185 -1.0358
 4735SOL    HW225860   9.396   2.106   0.234 -0.4096 -0.9444  0.6962
 4736SOL     OW25861   7.683   5.763   6.715 -0.1194 -0.1869 -0.0973
 4736SOL    HW125862   7.661   5.771   6.812  0.0923 -1.9136  0.1118
 4736SOL    HW225863   7.779   5.736   6.704  0.4327  1.9730 -0.8555
 4737SOL     OW25864   0.272   6.327   5.205  0.6776  0.0836  0.0713
 4737SOL    HW125865   0.370   6.337   5.224  0.7486 -0.4023 -0.0408
 4737SOL    HW225866   0.260   6.289   5.113  0.4016 -0.8579  0.5048
 4738SOL     OW25867   0.925   7.778   3.755 -0.2821  0.2306  0.1468
 4738SOL    HW125868   0.870   7.804   3.676 -0.3523  2.0467  0.7475
 4738SOL    HW225869   0.962   7.686   3.742 -1.4597 -0.0526 -1.3396
 4739SOL     OW25870   5.082   1.583   8.201  0.7947  0.0971  0.3640
 4739SOL    HW125871   5.054   1.531   8.281 -0.5957  1.8133  1.0085
 4739SOL    HW225872   5.176   1.615   8.213  1.6987 -2.2905 -0.0785
 4740SOL     OW25873   8.036   1.642   3.998 -0.1668  0.1682 -0.0668
 4740SOL    HW125874   8.081   1.555   4.016 -1.0863 -0.4931 -0.9136
 4740SOL    HW225875   8.077   1.685   3.917 -0.0392  0.3015  0.0671
 4741SOL     OW25876   7.972   8.041   5.678 -0.0867  0.1799  0.3881
 4741SOL    HW125877   7.896   8.001   5.627 -0.0540 -0.6615  1.0044
 4741SOL    HW225878   7.953   8.138   5.695 -1.1496 -0.0884  0.7750
 4742SOL     OW25879   4.055   1.885   2.875 -0.5253 -0.0178 -0.1934
 4742SOL    HW125880   4.135   1.870   2.933 -0.6425  0.3996  0.0832
 4742SOL    HW225881   3.982   1.927   2.930 -0.1748  1.6306 -0.9679
 4743SOL     OW25882   0.529   6.723   2.316  0.3800 -0.1737  0.3261
 4743SOL    HW125883   0.541   6.741   2.413 -0.3751  0.8331  0.2376
 4743SOL    HW225884   0.517   6.625   2.301  0.3120 -0.3084  1.2610
 4744SOL     OW25885   6.869   9.834   2.946  0.5657 -0.4317 -0.5645
 4744SOL    HW125886   6.774   9.862   2.961  1.1159  1.4998 -0.5455
 4744SOL    HW225887   6.880   9.802   2.852 -0.4332 -2.1135 -0.1266
 4745SOL     OW25888   5.200   2.387   0.867  0.7640 -0.0983  0.6220
 4745SOL    HW125889   5.131   2.454   0.840  0.7423 -0.9377 -1.5108
 4745SOL    HW225890   5.164   2.328   0.939 -0.4535  0.0110  0.1080
 4746SOL     OW25891   2.553   7.088   7.714 -0.2295  0.0093  0.2844
 4746SOL    HW125892   2.504   7.113   7.631 -2.2714 -1.7893  0.8918
 4746SOL    HW225893   2.600   7.168   7.750 -3.2469  2.0190 -0.0215
 4747SOL     OW25894   3.133   5.880   0.167 -0.6292  0.1185 -0.1605
 4747SOL    HW125895   3.083   5.835   0.241  0.4316 -2.6962 -1.1032
 4747SOL    HW225896   3.083   5.962   0.138 -1.5611  0.7263  2.9627
 4748SOL     OW25897   3.841   3.778   5.855  0.0487  0.4212 -0.0111
 4748SOL    HW125898   3.909   3.839   5.897  0.8816 -0.1418 -0.5440
 4748SOL    HW225899   3.886   3.716   5.791 -0.9028 -0.2705 -0.0214
 4749SOL     OW25900   7.479   3.164   2.002  0.2037  0.4414 -0.0645
 4749SOL    HW125901   7.516   3.072   2.010  1.5263  0.9672 -0.0051
 4749SOL    HW225902   7.442   3.178   1.910 -0.9803 -0.4957  0.2620
 4750SOL     OW25903   1.830   5.866   5.870  0.0100  0.2752  0.6983
 4750SOL    HW125904   1.788   5.833   5.786  0.5928 -1.6904  1.1750
 4750SOL    HW225905   1.927   5.882   5.856  0.2537 -0.7401  1.1819
 4751SOL     OW25906   1.747   6.408   6.133  0.0494 -0.3477  0.4564
 4751SOL    HW125907   1.765   6.380   6.039  0.1615  0.1191  0.3393
 4751SOL    HW225908   1.718   6.504   6.135 -0.5297 -0.5225  0.8352
 4752SOL     OW25909   4.171   4.602   0.047 -0.0971 -0.3125  0.2491
 4752SOL    HW125910   4.100   4.563   0.106 -0.2308 -0.8843 -0.2882
 4752SOL    HW225911   4.231   4.529   0.013  0.0683  0.0310 -0.2074
 4753SOL     OW25912   7.816   4.243   3.499  0.3894 -0.2727  0.1816
 4753SOL    HW125913   7.770   4.331   3.510  0.2828 -0.3254  0.1509
 4753SOL    HW225914   7.797   4.207   3.408  1.2166  0.1287 -0.1630
 4754SOL     OW25915   6.847   6.803   6.026 -0.4153 -0.2704 -0.0780
 4754SOL    HW125916   6.859   6.844   6.117 -0.9496  1.2292 -0.6704
 4754SOL    HW225917   6.893   6.860   5.958 -1.4989 -0.4487 -0.9666
 4755SOL     OW25918   0.738   7.642   3.228  0.1315 -0.5341  0.1319
 4755SOL    HW125919   0.663   7.668   3.168 -1.6280 -2.0591  1.6411
 4755SOL    HW225920   0.770   7.550   3.204  0.8655 -0.2836  0.1348
 4756SOL     OW25921   0.160   9.578   2.629 -0.2557  0.1756 -0.2979
 4756SOL    HW125922   0.180   9.494   2.680  1.8242  1.8456  1.7336
 4756SOL    HW225923   0.227   9.589   2.557 -0.0664  0.4892 -0.0729
 4757SOL     OW25924   1.192   0.650   0.119  0.4025 -0.6875 -0.3393
 4757SOL    HW125925   1.250   0.569   0.115  2.7408  0.8969  0.3396
 4757SOL    HW225926   1.248   0.730   0.142 -1.8481  1.1276 -0.9820
 4758SOL     OW25927   7.320   8.913   4.711  0.3148 -0.0606  0.0153
 4758SOL    HW125928   7.323   8.869   4.801 -1.0132 -0.8220 -0.3078
 4758SOL    HW225929   7.270   8.999   4.719  1.4422  0.5842  0.2910
 4759SOL     OW25930   9.268   3.616   3.267  0.0638  0.1298  0.0542
 4759SOL    HW125931   9.258   3.713   3.293 -2.0163 -0.1698  0.4776
 4759SOL    HW225932   9.211   3.597   3.187 -0.5607 -1.0277  0.7607
 4760SOL     OW25933   8.410   2.215   6.476  0.3016 -0.6609 -0.5600
 4760SOL    HW125934   8.382   2.138   6.420  0.3003 -0.7853 -0.3867
 4760SOL    HW225935   8.330   2.269   6.502  0.3821 -0.1216 -1.3818
 4761SOL     OW25936   8.146   9.890   4.640 -0.3185  1.1074 -0.0054
 4761SOL    HW125937   8.135   9.965   4.704  1.0768  2.1498 -0.9592
 4761SOL    HW225938   8.225   9.907   4.581  0.9847 -1.8206  0.7875
 4762SOL     OW25939   8.723   9.291   7.161 -0.2856 -0.3826  0.3173
 4762SOL    HW125940   8.715   9.191   7.165  0.0100 -0.3927  0.7396
 4762SOL    HW225941   8.804   9.320   7.214  0.4352 -0.0250 -0.9641
 4763SOL     OW25942   3.722   6.462   4.615 -0.3558  0.7112 -0.3281
 4763SOL    HW125943   3.715   6.515   4.699 -0.6020 -0.2503  0.2624
 4763SOL    HW225944   3.774   6.378   4.633 -2.1301 -0.4711 -0.6536
 4764SOL     OW25945   0.584   9.777   4.645  0.0449  0.1848  0.1833
 4764SOL    HW125946   0.633   9.799   4.560 -1.0759 -1.1939 -0.8445
 4764SOL    HW225947   0.505   9.837   4.653 -0.7128 -0.6972 -0.5470
 4765SOL     OW25948   1.504   3.210   3.417 -0.1289  0.1665  0.0178
 4765SOL    HW125949   1.574   3.178   3.353  0.1437 -1.6228  1.1706
 4765SOL    HW225950   1.545   3.276   3.480  0.2244  0.0409 -0.0775
 4766SOL     OW25951   0.338   5.464   0.527 -0.0705  0.0517  0.6665
 4766SOL    HW125952   0.334   5.387   0.463  0.4668  0.3055  0.3222
 4766SOL    HW225953   0.252   5.515   0.523 -0.6469 -0.8568  1.3116
 4767SOL     OW25954   9.002   6.857   4.776  0.2289  0.5827  0.3653
 4767SOL    HW125955   9.018   6.790   4.848 -0.3050  0.2154  0.1495
 4767SOL    HW225956   9.031   6.948   4.807  2.9319 -0.0897 -0.1131
 4768SOL     OW25957   0.643   1.862   5.925  0.3372  0.2431  0.3467
 4768SOL    HW125958   0.701   1.851   6.006  1.7617 -0.4334 -0.7222
 4768SOL    HW225959   0.656   1.783   5.865 -1.5198  0.2171 -0.0461
 4769SOL     OW25960   8.719   1.442   6.764 -0.5007  0.7508 -0.4191
 4769SOL    HW125961   8.752   1.369   6.824 -1.0798  0.9073  0.0999
 4769SOL    HW225962   8.683   1.403   6.680  0.4437  0.5378 -0.7246
 4770SOL     OW25963   3.788   7.153   2.738 -0.4494 -0.1490  0.0443
 4770SOL    HW125964   3.873   7.184   2.694  0.3282 -1.8433  0.3514
 4770SOL    HW225965   3.800   7.149   2.837 -1.1007  0.2259  0.1466
 4771SOL     OW25966   8.502   6.271   5.859 -0.2255  0.0218 -0.3027
 4771SOL    HW125967   8.459   6.192   5.904  0.5217  0.0338  0.4468
 4771SOL    HW225968   8.493   6.352   5.918 -0.3305  0.3247 -0.7347
 4772SOL     OW25969   6.967   8.638   4.479  0.5467  0.1406  0.4681
 4772SOL    HW125970   6.951   8.732   4.510 -1.1302  0.0313 -0.0138
 4772SOL    HW225971   6.912   8.575   4.534 -0.3927 -0.2965 -0.9475
 4773SOL     OW25972   4.321   0.814   2.544 -0.2149  0.0454 -0.4125
 4773SOL    HW125973   4.411   0.806   2.502  0.9690  0.1186  2.0249
 4773SOL    HW225974   4.281   0.723   2.555 -1.5642  0.1663 -3.7495
 4774SOL     OW25975   7.135   2.284   4.647 -0.8860 -0.2910 -0.0651
 4774SOL    HW125976   7.189   2.205   4.618 -1.1440 -0.6705  0.4634
 4774SOL    HW225977   7.065   2.254   4.712 -1.0806  0.3519  0.0283
 4775SOL     OW25978   1.756   3.100   7.385  0.0592  0.3254 -0.4965
 4775SOL    HW125979   1.783   3.197   7.387  2.3310 -0.2861 -0.0444
 4775SOL    HW225980   1.672   3.088   7.437  0.5613  1.8443  0.7002
 4776SOL     OW25981   6.672   4.681   1.021 -0.1077  0.4235  0.9128
 4776SOL    HW125982   6.631   4.595   0.989 -0.2201  1.2529 -1.2367
 4776SOL    HW225983   6.653   4.692   1.118  0.3664 -2.2526  1.3742
 4777SOL     OW25984   3.255   9.304   1.581  0.2148  0.1653 -0.7207
 4777SOL    HW125985   3.263   9.326   1.484 -1.1879  2.2251 -0.4027
 4777SOL    HW225986   3.181   9.238   1.594 -0.3442  0.7468 -0.9379
 4778SOL     OW25987   3.374   3.634   3.083  0.6833 -0.0247 -0.7536
 4778SOL    HW125988   3.452   3.597   3.133  0.8408 -0.5107 -1.3543
 4778SOL    HW225989   3.360   3.582   2.999 -1.3860 -1.1301  0.2219
 4779SOL     OW25990   0.370   0.974   4.967  0.1182  0.1841 -0.2842
 4779SOL    HW125991   0.361   1.058   4.913  2.0386  0.7696  0.2581
 4779SOL    HW225992   0.351   0.994   5.063  1.2911  0.1717 -0.0420
 4780SOL     OW25993   2.409   6.951   7.347 -0.0988 -0.5790 -0.4231
 4780SOL    HW125994   2.374   6.982   7.258 -0.3408 -0.9599 -0.4614
 4780SOL    HW225995   2.409   7.028   7.411 -1.1388 -0.6032 -0.3875
 4781SOL     OW25996   2.799   1.463   1.997 -0.1587  0.3320  0.0228
 4781SOL    HW125997   2.804   1.487   2.094 -0.0399  0.9319 -0.1338
 4781SOL    HW225998   2.705   1.435   1.975 -0.5610  1.6876 -0.0364
 4782SOL     OW25999   4.090   8.972   4.043  0.5778 -0.2924  0.3953
 4782SOL    HW126000   4.067   8.888   3.995  0.8362 -0.8894  1.3125
 4782SOL    HW226001   4.178   9.006   4.010  0.4540 -0.3594 -0.0035
 4783SOL     OW26002   3.232   8.321   7.215  0.1365  0.2197 -0.1296
 4783SOL    HW126003   3.299   8.251   7.192  1.3052  1.8723 -2.0015
 4783SOL    HW226004   3.247   8.352   7.309 -0.2466 -1.8281  0.6318
 4784SOL     OW26005   7.603   2.094   2.256 -0.5520  0.9296  0.3209
 4784SOL    HW126006   7.621   2.087   2.354  1.0558  1.9268  0.0988
 4784SOL    HW226007   7.617   2.188   2.226  0.4650  0.3094 -1.1639
 4785SOL     OW26008   4.225   0.665   1.188  0.4035  0.2173  0.1888
 4785SOL    HW126009   4.315   0.696   1.158  0.3985 -0.7123 -0.8408
 4785SOL    HW226010   4.190   0.726   1.258  1.1651  1.4803 -0.5116
 4786SOL     OW26011   2.373   6.399   1.376  0.4563 -0.1442 -0.5702
 4786SOL    HW126012   2.419   6.472   1.427 -0.3771 -0.1894  0.2588
 4786SOL    HW226013   2.290   6.435   1.334  0.0081 -0.6429 -0.1017
 4787SOL     OW26014   1.840   5.521   4.555  0.3424  0.0173 -0.8576
 4787SOL    HW126015   1.936   5.542   4.571  0.7262 -2.7951  0.8368
 4787SOL    HW226016   1.827   5.492   4.460  0.6893  2.7609 -1.7758
 4788SOL     OW26017   6.501   7.444   5.239  0.7208  0.1449  0.2661
 4788SOL    HW126018   6.482   7.452   5.337 -1.3674  0.2266 -0.1090
 4788SOL    HW226019   6.553   7.360   5.222  0.8855 -0.0000  1.4263
 4789SOL     OW26020   8.380   4.913   1.098  0.4067  0.2787  0.0430
 4789SOL    HW126021   8.344   4.923   1.005 -0.2916  0.2031  0.3049
 4789SOL    HW226022   8.317   4.859   1.153  1.4717 -0.8559  0.1882
 4790SOL     OW26023   3.433   8.024   1.571  0.2844  0.0914 -0.1461
 4790SOL    HW126024   3.457   7.930   1.546 -0.5472 -0.0259 -0.4888
 4790SOL    HW226025   3.429   8.031   1.671  1.0707 -0.0514 -0.0962
 4791SOL     OW26026   6.649   8.552   6.696 -0.1375  0.4385 -0.3624
 4791SOL    HW126027   6.652   8.651   6.685  0.4849  0.3382 -1.1525
 4791SOL    HW226028   6.632   8.530   6.792  1.7434  1.3010  0.1879
 4792SOL     OW26029   2.354   4.599   1.827  0.4192 -0.7819 -0.3428
 4792SOL    HW126030   2.444   4.627   1.861 -0.4612  0.8683  0.6688
 4792SOL    HW226031   2.355   4.600   1.727  0.9343  1.2349 -0.3419
 4793SOL     OW26032   9.135   1.758   2.212  0.2584  0.2437  0.1932
 4793SOL    HW126033   9.228   1.722   2.216  0.2180  0.1532  0.2898
 4793SOL    HW226034   9.087   1.739   2.298  0.1108  0.1856  0.0990
 4794SOL     OW26035   0.216   3.644   0.373 -0.3391  0.3982  0.0246
 4794SOL    HW126036   0.202   3.644   0.472  0.0829  0.4804  0.0857
 4794SOL    HW226037   0.294   3.586   0.350 -0.8018 -0.0972 -0.3151
 4795SOL     OW26038   3.731   8.140   3.719  0.1888  0.4219 -0.2199
 4795SOL    HW126039   3.815   8.087   3.731 -0.5767 -0.7016  0.2289
 4795SOL    HW226040   3.752   8.238   3.728  1.2344  0.0958  1.0873
 4796SOL     OW26041   8.850   1.409   4.915 -0.0724  0.0902 -0.7677
 4796SOL    HW126042   8.776   1.414   4.848 -0.4890 -0.5793 -0.3625
 4796SOL    HW226043   8.859   1.497   4.962 -0.3208  0.3061 -1.1273
 4797SOL     OW26044   7.609   3.929   1.593  0.3537  0.2977 -0.0928
 4797SOL    HW126045   7.625   3.838   1.555 -0.9755  0.4026 -0.9380
 4797SOL    HW226046   7.518   3.932   1.636  0.7916  0.9402  0.8066
 4798SOL     OW26047   5.932   7.416   3.128 -0.0174  0.0599  0.6381
 4798SOL    HW126048   5.900   7.389   3.219  2.0001 -1.1633  1.0065
 4798SOL    HW226049   6.024   7.454   3.134  0.0848  0.0870 -0.8695
 4799SOL     OW26050   0.370   0.192   2.606  0.0094 -0.3085  0.2522
 4799SOL    HW126051   0.440   0.263   2.609 -0.6152  0.3229  0.0271
 4799SOL    HW226052   0.301   0.210   2.676 -0.3252 -0.5135 -0.0241
 4800SOL     OW26053   0.331   7.043   6.275  0.8080 -0.1618 -0.3579
 4800SOL    HW126054   0.233   7.022   6.275  0.6075  0.7083  1.0303
 4800SOL    HW226055   0.382   6.963   6.243 -0.3554 -0.5690 -1.2484
 4801SOL     OW26056   6.653   0.524   0.197 -0.6888 -0.1112  0.0367
 4801SOL    HW126057   6.555   0.512   0.215 -1.1731  1.3283 -1.5312
 4801SOL    HW226058   6.686   0.605   0.245 -0.7303  0.5633 -1.0729
 4802SOL     OW26059   3.532   1.924   6.127  0.2396  0.2551 -0.1901
 4802SOL    HW126060   3.467   1.974   6.070  0.3303 -1.2154 -1.5969
 4802SOL    HW226061   3.536   1.828   6.098  0.2393 -0.5427  2.3231
 4803SOL     OW26062   5.993   0.350   2.622  0.0318  0.7146  0.6264
 4803SOL    HW126063   5.944   0.263   2.616 -0.0761  0.7684  0.7319
 4803SOL    HW226064   6.019   0.367   2.717  0.5423  0.5276  0.5228
 4804SOL     OW26065   8.187   7.034   2.664 -0.0233  0.1693  0.3580
 4804SOL    HW126066   8.216   6.938   2.656 -0.8613 -0.1307  0.7801
 4804SOL    HW226067   8.127   7.044   2.743 -2.1794  0.4657 -1.2313
 4805SOL     OW26068   6.028   9.402   3.421  0.1329 -0.1960 -0.2637
 4805SOL    HW126069   5.939   9.361   3.404  0.3665 -1.2425  0.9082
 4805SOL    HW226070   6.020   9.471   3.493  0.6989 -2.1766  1.7626
 4806SOL     OW26071   1.342   5.837   0.963 -0.2127  0.1481  0.4131
 4806SOL    HW126072   1.290   5.772   0.906  0.3539 -1.2795  1.4793
 4806SOL    HW226073   1.351   5.924   0.914  0.2486 -1.0280 -1.6772
 4807SOL     OW26074   0.312   7.698   5.479  0.3386  0.4743 -0.1097
 4807SOL    HW126075   0.295   7.797   5.474  0.3388  0.4421 -0.7556
 4807SOL    HW226076   0.381   7.680   5.550 -1.3112  0.7269  1.5875
 4808SOL     OW26077   4.180   7.059   4.233 -0.2685 -0.0554 -0.3886
 4808SOL    HW126078   4.093   7.010   4.229 -1.0829  1.4091 -1.0529
 4808SOL    HW226079   4.169   7.143   4.286  0.6214  0.3692 -0.8514
 4809SOL     OW26080   0.742   0.482   4.370 -0.2569 -0.6767  0.0169
 4809SOL    HW126081   0.697   0.558   4.322 -0.7244 -0.3983  0.8832
 4809SOL    HW226082   0.823   0.517   4.417 -0.4553 -0.7179  0.3916
 4810SOL     OW26083   3.725   8.544   1.295 -0.7619  0.1507  0.2539
 4810SOL    HW126084   3.637   8.497   1.295 -0.4609 -0.4193  0.9330
 4810SOL    HW226085   3.745   8.580   1.386 -0.9988  1.6253 -0.2745
 4811SOL     OW26086   9.073   8.587   4.473  0.1397 -0.1148  0.0763
 4811SOL    HW126087   9.137   8.519   4.439  0.6111 -0.1695  1.0578
 4811SOL    HW226088   8.981   8.547   4.477  0.3028 -0.4970  0.0432
 4812SOL     OW26089   6.500   4.204   0.536  0.0318 -0.3249  0.0350
 4812SOL    HW126090   6.589   4.187   0.579  0.7367  0.7218 -0.9871
 4812SOL    HW226091   6.511   4.209   0.437 -1.0217  0.6946 -0.0418
 4813SOL     OW26092   3.018   8.021   0.840 -1.0279  0.3599 -0.1010
 4813SOL    HW126093   2.969   8.000   0.755 -1.3815  1.5892 -0.2073
 4813SOL    HW226094   3.092   7.954   0.853 -3.0620 -1.8493  0.3576
 4814SOL     OW26095   7.854   6.740   3.312 -0.3219  0.5191 -0.0879
 4814SOL    HW126096   7.925   6.793   3.266  1.2794 -0.8187  0.7696
 4814SOL    HW226097   7.878   6.643   3.309 -0.7361  0.2954  2.5946
 4815SOL     OW26098   2.447   1.302   0.825 -0.4856  0.2804  0.8937
 4815SOL    HW126099   2.375   1.307   0.894  0.8955  0.8799  2.3221
 4815SOL    HW226100   2.453   1.389   0.776 -0.8408  0.1774  0.6700
 4816SOL     OW26101   6.373   3.751   7.736 -0.9747 -0.6421  0.3973
 4816SOL    HW126102   6.406   3.722   7.827 -1.6492 -0.1977  0.7870
 4816SOL    HW226103   6.411   3.690   7.666  0.3831 -0.3548  0.8795
 4817SOL     OW26104   8.100   8.381   5.454  0.3253  0.1266  0.4673
 4817SOL    HW126105   8.046   8.452   5.409  2.5813  0.3989 -1.9789
 4817SOL    HW226106   8.073   8.291   5.418 -0.4358  0.0125  1.3220
 4818SOL     OW26107   8.908   3.515   6.331 -0.3473 -0.2632 -0.1900
 4818SOL    HW126108   8.819   3.475   6.312 -1.5787  2.8206 -1.1589
 4818SOL    HW226109   8.974   3.485   6.262 -1.3175 -0.3656 -1.0776
 4819SOL     OW26110   9.302   6.106   2.962 -0.0824 -0.0725 -0.0208
 4819SOL    HW126111   9.217   6.056   2.944 -0.7743  1.0164  0.1693
 4819SOL    HW226112   9.315   6.115   3.061  0.2204 -0.1896 -0.0513
 4820SOL     OW26113   0.086   6.925   3.137  0.3313 -0.2162  0.1173
 4820SOL    HW126114   0.084   6.975   3.223 -0.9542 -0.5897  0.3140
 4820SOL    HW226115  -0.002   6.879   3.123  1.7739 -3.1977  0.4005
 4821SOL     OW26116   3.483   9.836   0.572 -0.0839  0.2911  0.6820
 4821SOL    HW126117   3.403   9.889   0.600 -0.8742 -1.1914  1.3012
 4821SOL    HW226118   3.463   9.789   0.487  0.4792  0.6779  0.3340
 4822SOL     OW26119   3.319   4.289   0.970  0.1852 -0.0553  0.3655
 4822SOL    HW126120   3.404   4.335   0.944  1.2331 -1.5940  0.9772
 4822SOL    HW226121   3.261   4.277   0.889  1.0375  0.0345 -0.2655
 4823SOL     OW26122   1.526   2.704   5.514  0.3075  0.6834  0.0098
 4823SOL    HW126123   1.442   2.688   5.463  0.1797  1.5024 -0.0388
 4823SOL    HW226124   1.543   2.627   5.576  0.0264  0.0727 -0.6626
 4824SOL     OW26125   4.851   2.663   3.698  0.0283  0.1840  0.4497
 4824SOL    HW126126   4.854   2.568   3.729 -1.0792 -0.1837 -0.5380
 4824SOL    HW226127   4.756   2.691   3.688  0.3711  0.6517 -1.5215
 4825SOL     OW26128   0.427   9.971   0.669 -0.6362 -0.0962 -0.4548
 4825SOL    HW126129   0.338   9.959   0.713 -1.0456  0.3414 -1.1498
 4825SOL    HW226130   0.460  10.064   0.683 -0.6402 -0.0357 -0.8345
 4826SOL     OW26131   1.386   1.920   1.466  0.2189  0.2448 -0.1488
 4826SOL    HW126132   1.479   1.883   1.476  0.9909  2.3710  0.8145
 4826SOL    HW226133   1.333   1.860   1.406  1.6600 -1.9827  0.7416
 4827SOL     OW26134   3.673   9.555   4.422 -0.4379  0.3805  0.8165
 4827SOL    HW126135   3.770   9.556   4.446 -0.5504  1.8434  1.2217
 4827SOL    HW226136   3.663   9.572   4.324 -0.2494 -0.6288  0.6142
 4828SOL     OW26137   8.786   2.741   7.216 -0.3753 -0.4042 -0.0679
 4828SOL    HW126138   8.781   2.766   7.313  0.5793 -0.9195  0.1164
 4828SOL    HW226139   8.855   2.797   7.171 -0.9357 -0.0515 -0.4889
 4829SOL     OW26140   1.347   9.052   4.269 -0.2610  0.2539  0.1427
 4829SOL    HW126141   1.287   9.070   4.347  0.7336 -2.7664  1.6642
 4829SOL    HW226142   1.443   9.060   4.297  0.1090 -0.7785 -0.7863
 4830SOL     OW26143   0.883   8.894   0.952  0.0334 -0.7701  0.6387
 4830SOL    HW126144   0.898   8.799   0.923  0.2816 -0.9288  1.2634
 4830SOL    HW226145   0.952   8.918   1.021 -0.5206 -0.3941  1.0558
 4831SOL     OW26146   0.888   6.013   7.746 -0.6523  0.7064  0.3611
 4831SOL    HW126147   0.916   6.084   7.811  1.4267 -1.3345  1.7972
 4831SOL    HW226148   0.826   5.949   7.792 -0.0739 -0.1108  0.0180
 4832SOL     OW26149   0.563   0.028   1.573 -0.1455  0.0197 -0.3062
 4832SOL    HW126150   0.646  -0.027   1.585 -0.7562 -1.5402 -2.7363
 4832SOL    HW226151   0.485  -0.022   1.610 -0.2146  0.8356  0.6568
 4833SOL     OW26152   1.884   4.990   5.230  0.1710  0.2470 -0.5369
 4833SOL    HW126153   1.852   5.083   5.214  0.7402  0.5724  0.1473
 4833SOL    HW226154   1.977   4.980   5.195  0.0839 -0.0827 -0.6731
 4834SOL     OW26155   1.897   9.384   7.912 -0.1751 -0.3131  0.2851
 4834SOL    HW126156   1.924   9.432   7.828  0.3667 -1.3158 -0.1316
 4834SOL    HW226157   1.799   9.365   7.910  0.1012 -1.7431 -0.8859
 4835SOL     OW26158   8.437   6.479   6.051  0.2874  0.4641 -0.4061
 4835SOL    HW126159   8.352   6.531   6.046  0.5902  1.1227  1.0803
 4835SOL    HW226160   8.509   6.528   6.004  0.0187  0.2501 -1.0446
 4836SOL     OW26161   0.102   3.976   7.597 -0.1634  0.0591 -0.3759
 4836SOL    HW126162   0.097   3.952   7.501  0.9084  3.0356 -1.2378
 4836SOL    HW226163   0.181   3.930   7.639  0.6474  0.4177 -1.4780
 4837SOL     OW26164   1.387   7.853   3.319 -0.0895  0.5906  0.1531
 4837SOL    HW126165   1.398   7.797   3.401 -0.3134 -1.0441 -0.9182
 4837SOL    HW226166   1.463   7.837   3.257  0.3018  2.1475  0.2108
 4838SOL     OW26167   0.334   2.126   6.818  0.1077  0.3952  0.2346
 4838SOL    HW126168   0.281   2.189   6.762  0.2421  0.4319  0.1487
 4838SOL    HW226169   0.273   2.077   6.880 -0.2271 -0.6400 -0.8994
 4839SOL     OW26170   7.433   9.452   5.256  0.4226  0.0512 -0.4246
 4839SOL    HW126171   7.514   9.489   5.300  1.8940  0.1027 -3.0622
 4839SOL    HW226172   7.436   9.352   5.259 -0.0529  0.0640  0.5706
 4840SOL     OW26173   4.974   1.086   0.650  0.1972 -0.0846 -0.4106
 4840SOL    HW126174   4.967   1.085   0.749  3.8226  0.6672 -0.0821
 4840SOL    HW226175   4.912   1.017   0.611  1.2425 -2.8153  2.5541
 4841SOL     OW26176   0.537   9.254   6.806 -0.5629  0.1468  0.4159
 4841SOL    HW126177   0.441   9.245   6.779 -0.6695  0.4810  0.6784
 4841SOL    HW226178   0.561   9.351   6.810 -0.2928  0.0705  0.6206
 4842SOL     OW26179   4.214   1.197   4.708 -0.2210 -0.8016  0.3415
 4842SOL    HW126180   4.169   1.117   4.667  0.9482 -0.8669 -0.8246
 4842SOL    HW226181   4.269   1.167   4.787  1.1558 -1.3256 -0.8039
 4843SOL     OW26182   0.336   3.770   5.785  0.0540 -0.1526 -0.3370
 4843SOL    HW126183   0.363   3.755   5.689  0.3870 -0.2314 -0.2327
 4843SOL    HW226184   0.411   3.743   5.845 -0.5357 -1.0851 -0.0065
 4844SOL     OW26185   0.389   2.981   2.921  0.2911 -0.4722 -0.2195
 4844SOL    HW126186   0.454   3.053   2.900 -1.0669  0.4157 -1.5141
 4844SOL    HW226187   0.366   2.931   2.838 -0.3919 -1.0069  0.2792
 4845SOL     OW26188   7.941   7.234   6.692 -0.5294  0.5767 -0.0691
 4845SOL    HW126189   7.961   7.225   6.789  2.5934  0.3517 -0.6779
 4845SOL    HW226190   7.980   7.319   6.657 -1.6362  0.6646 -1.1218
 4846SOL     OW26191   8.092   1.012   2.618 -0.1580 -0.0312 -0.0817
 4846SOL    HW126192   8.095   0.958   2.534 -2.0736  0.1013 -0.2401
 4846SOL    HW226193   8.070   1.107   2.595  1.2117  0.4136  0.3970
 4847SOL     OW26194   5.488   0.754   5.370  0.2579  0.3579 -0.2477
 4847SOL    HW126195   5.473   0.852   5.384 -0.6253  0.3777 -1.2606
 4847SOL    HW226196   5.583   0.738   5.343  0.4280  0.9178  0.0117
 4848SOL     OW26197   0.868   2.864   5.136 -0.2191 -0.4746  0.1353
 4848SOL    HW126198   0.809   2.829   5.063 -3.3114  1.8739  1.3695
 4848SOL    HW226199   0.963   2.864   5.105 -1.1122 -2.2320 -2.8019
 4849SOL     OW26200   4.112   8.765   8.200  0.2658  0.1949  0.4389
 4849SOL    HW126201   4.172   8.794   8.126 -0.7533 -0.6474 -0.7489
 4849SOL    HW226202   4.028   8.819   8.198  0.3835  0.4140  1.2118
 4850SOL     OW26203   9.789   3.521   2.580 -0.1749 -0.8918 -0.5972
 4850SOL    HW126204   9.777   3.457   2.505 -1.0686 -1.2017 -0.1884
 4850SOL    HW226205   9.730   3.496   2.656 -0.7744  0.5989 -0.5493
 4851SOL     OW26206   7.715   2.512   0.688 -0.1410  0.5062  0.1767
 4851SOL    HW126207   7.744   2.555   0.602  2.0252 -0.1884  0.5256
 4851SOL    HW226208   7.721   2.578   0.762 -3.3238  1.5109 -0.3761
 4852SOL     OW26209   5.785   4.176   7.238 -0.2117  0.2595  1.2360
 4852SOL    HW126210   5.816   4.185   7.143 -0.4055 -0.3511  1.1124
 4852SOL    HW226211   5.700   4.124   7.240  0.2798 -0.5250  1.8226
 4853SOL     OW26212   2.775   4.119   6.132  0.1202  0.3169  0.2689
 4853SOL    HW126213   2.869   4.108   6.163  0.2487 -0.4669 -0.4091
 4853SOL    HW226214   2.768   4.201   6.076  0.3127  0.5836  0.6288
 4854SOL     OW26215   4.262   9.834   3.727  0.8038  0.3685 -0.0704
 4854SOL    HW126216   4.288   9.737   3.731 -0.5092 -0.0467 -1.2413
 4854SOL    HW226217   4.175   9.843   3.680  0.0398  1.9823  1.5926
 4855SOL     OW26218   0.887   0.036   2.312 -0.5479  0.0237  0.3111
 4855SOL    HW126219   0.884  -0.060   2.339 -0.3796 -0.0619  0.0223
 4855SOL    HW226220   0.818   0.087   2.363  1.3207  0.3106  2.6471
 4856SOL     OW26221   2.650   2.376   4.069  0.8770 -0.3952 -0.1312
 4856SOL    HW126222   2.621   2.471   4.066 -1.7731 -1.0695  1.9907
 4856SOL    HW226223   2.625   2.330   3.983 -0.0182  0.2215 -0.2005
 4857SOL     OW26224   2.929   8.668   6.567 -0.4407  0.2959 -0.6982
 4857SOL    HW126225   2.852   8.712   6.614  0.1186 -1.8639  2.4117
 4857SOL    HW226226   2.916   8.569   6.569  1.0170  0.0389 -2.7484
 4858SOL     OW26227   8.505   7.223   8.050 -0.0166 -0.3826  0.6896
 4858SOL    HW126228   8.489   7.273   8.135 -4.2852 -0.8719  0.3066
 4858SOL    HW226229   8.518   7.288   7.975  0.6947  0.0743  1.2049
 4859SOL     OW26230   3.505   1.604   3.024 -0.3153  0.2106  0.1076
 4859SOL    HW126231   3.576   1.660   3.066 -0.2845  1.1876 -1.2064
 4859SOL    HW226232   3.417   1.624   3.065 -0.2816  1.1192 -0.2697
 4860SOL     OW26233   3.008   7.924   3.527  0.4675 -0.1902  0.6459
 4860SOL    HW126234   3.051   7.921   3.436  1.2427 -0.1815  1.0078
 4860SOL    HW226235   2.931   7.861   3.529  0.9498 -0.8026  0.2328
 4861SOL     OW26236   9.904   6.442   0.936  0.0738  0.4763  0.5001
 4861SOL    HW126237   9.855   6.361   0.969  0.3521  0.1962  0.2321
 4861SOL    HW226238   9.931   6.427   0.840  0.7855  0.5807  0.6829
 4862SOL     OW26239   7.962   4.724   4.597  0.0277  0.3836 -0.0768
 4862SOL    HW126240   7.942   4.775   4.513 -1.6347  0.0430  0.0874
 4862SOL    HW226241   8.059   4.732   4.619  0.3916  0.8129 -1.8044
 4863SOL     OW26242   3.941   2.543   3.620 -0.6140 -0.1152  0.5434
 4863SOL    HW126243   3.939   2.556   3.521  0.8819  2.8334  0.8512
 4863SOL    HW226244   4.016   2.481   3.644 -0.3857 -0.0885 -0.0999
 4864SOL     OW26245   7.122   4.840   0.632 -0.5856 -0.0692  0.0203
 4864SOL    HW126246   7.080   4.792   0.556  0.0206  0.4412 -0.6501
 4864SOL    HW226247   7.142   4.935   0.605  1.0938 -0.3319  0.2577
 4865SOL     OW26248   3.860   3.983   8.034 -0.1602 -0.5488  0.0369
 4865SOL    HW126249   3.806   4.052   8.081 -0.3086  0.3877 -1.4849
 4865SOL    HW226250   3.946   4.023   8.003 -0.2020 -1.0637 -0.7635
 4866SOL     OW26251   1.786   4.207   2.586 -0.0952  0.1303  0.0053
 4866SOL    HW126252   1.808   4.303   2.599 -0.6990  0.1569  0.8524
 4866SOL    HW226253   1.871   4.155   2.575  0.2788  0.6052  0.6516
 4867SOL     OW26254   6.716   8.636   4.041  0.3572  0.1229  0.4073
 4867SOL    HW126255   6.653   8.589   4.104 -1.1667  0.0689 -1.1381
 4867SOL    HW226256   6.806   8.644   4.085 -0.2587 -1.2676  2.0018
 4868SOL     OW26257   2.123   5.986   0.694 -0.6752 -0.2903  0.0469
 4868SOL    HW126258   2.197   6.035   0.649 -1.5129  3.7639  2.7338
 4868SOL    HW226259   2.158   5.937   0.774 -0.5242 -0.4257 -0.1025
 4869SOL     OW26260   9.596   6.976   0.837 -0.0603  0.5812  0.1829
 4869SOL    HW126261   9.550   7.055   0.795  0.4065  0.5958 -0.3028
 4869SOL    HW226262   9.533   6.898   0.839  0.0442  0.4702 -0.8923
 4870SOL     OW26263   9.075   4.488   7.498  0.4118  0.1005 -0.7507
 4870SOL    HW126264   9.161   4.443   7.523 -0.3153 -1.7717 -1.5020
 4870SOL    HW226265   9.095   4.571   7.446  1.7795  0.4850  0.3600
 4871SOL     OW26266   5.058   3.738   1.129  0.7897  0.5853 -0.5496
 4871SOL    HW126267   5.045   3.655   1.183 -1.2101 -0.4850 -2.5979
 4871SOL    HW226268   5.134   3.725   1.066 -0.2025 -0.1463 -1.6308
 4872SOL     OW26269   0.681   4.921   5.223  0.0439  0.2525 -0.1799
 4872SOL    HW126270   0.627   4.866   5.159 -0.2860  1.5741 -1.0444
 4872SOL    HW226271   0.777   4.918   5.197  0.0066  0.2104 -0.3147
 4873SOL     OW26272   9.981   4.339   0.748 -0.1195 -0.4555 -0.0290
 4873SOL    HW126273   9.886   4.354   0.776  0.0628  0.7040 -0.0272
 4873SOL    HW226274   9.984   4.268   0.678 -0.8417 -1.5551  1.0379
 4874SOL     OW26275   6.956   5.493   1.748  0.2657  0.3538 -0.1002
 4874SOL    HW126276   6.939   5.407   1.700  0.7524 -0.5038  1.2233
 4874SOL    HW226277   7.034   5.540   1.706 -1.1012  1.0239 -1.9339
 4875SOL     OW26278   2.854   3.972   7.939 -0.6085  0.0832 -0.4968
 4875SOL    HW126279   2.762   3.984   7.977 -0.5255 -0.0037 -0.2702
 4875SOL    HW226280   2.911   4.050   7.965 -0.4216 -0.1968 -0.0580
 4876SOL     OW26281   3.884   9.766   1.959  0.3947  0.5732  0.5734
 4876SOL    HW126282   3.966   9.769   1.901 -1.3335 -0.1057 -2.0299
 4876SOL    HW226283   3.844   9.858   1.964  0.2422  0.5315  0.1932
 4877SOL     OW26284   9.140   1.997   4.515  0.3625  0.3620 -0.1282
 4877SOL    HW126285   9.225   2.042   4.488  0.1705  0.8032 -0.0089
 4877SOL    HW226286   9.112   2.030   4.605  0.9272 -1.0006  0.5666
 4878SOL     OW26287   9.132   4.475   5.619  0.1111  0.3244  0.2600
 4878SOL    HW126288   9.093   4.560   5.653 -1.7473 -0.6841  0.7249
 4878SOL    HW226289   9.114   4.465   5.521  1.5981  1.1295 -0.1135
 4879SOL     OW26290   6.082   8.574   3.557  0.1378  0.2073  0.3578
 4879SOL    HW126291   6.086   8.477   3.536  1.4750 -0.0645  1.8164
 4879SOL    HW226292   6.042   8.623   3.479  1.5616 -1.2125 -1.3049
 4880SOL     OW26293   8.330   9.213   2.284 -0.3427 -0.1382  0.0279
 4880SOL    HW126294   8.324   9.122   2.241 -0.5945 -0.2088  0.2116
 4880SOL    HW226295   8.337   9.202   2.383 -1.2688  0.0670  0.1191
 4881SOL     OW26296   8.115   4.712   5.547  0.1817 -0.1399  0.1104
 4881SOL    HW126297   8.213   4.708   5.568 -0.0350 -1.0339  0.9908
 4881SOL    HW226298   8.102   4.703   5.448  0.9327 -0.8704  0.0774
 4882SOL     OW26299   7.133   0.790   3.630  0.1886 -0.2559  0.6449
 4882SOL    HW126300   7.226   0.821   3.650  1.1969 -2.1999 -0.9406
 4882SOL    HW226301   7.125   0.693   3.652 -0.9796 -0.5014 -0.8212
 4883SOL     OW26302   8.675   4.268   0.678 -0.1317  0.0698  0.3483
 4883SOL    HW126303   8.709   4.178   0.706 -1.2646 -0.7613 -0.8542
 4883SOL    HW226304   8.669   4.328   0.757 -1.5409 -1.6339  1.5637
 4884SOL     OW26305   7.816   8.400   4.649  0.3487 -0.1443 -0.0415
 4884SOL    HW126306   7.886   8.447   4.595  0.4255  0.0832  0.2542
 4884SOL    HW226307   7.743   8.368   4.589  0.4320  0.1119 -0.2806
 4885SOL     OW26308   2.334   1.858   2.500  0.1106 -0.0475 -0.2902
 4885SOL    HW126309   2.375   1.813   2.421 -0.4462 -0.8020 -0.1534
 4885SOL    HW226310   2.240   1.886   2.478 -0.1084 -0.4210  0.1562
 4886SOL     OW26311   0.619   2.541   3.891 -0.6864  0.7367  0.4168
 4886SOL    HW126312   0.655   2.607   3.826  0.4598  0.8681  1.1676
 4886SOL    HW226313   0.587   2.588   3.973 -1.0878  0.4721  0.4151
 4887SOL     OW26314   5.845   1.211   7.831  0.1585  0.2321  0.2569
 4887SOL    HW126315   5.746   1.221   7.829  0.1915  0.3688 -2.1661
 4887SOL    HW226316   5.886   1.275   7.766  1.8056 -0.1630  0.8864
 4888SOL     OW26317   4.123   0.837   1.374  0.2059 -0.1007  0.0487
 4888SOL    HW126318   4.076   0.805   1.457  0.8381 -0.2059  0.3662
 4888SOL    HW226319   4.207   0.884   1.399 -1.2712  2.8437 -0.3346
 4889SOL     OW26320   2.216   1.954   5.159  0.5491 -0.6094 -0.2707
 4889SOL    HW126321   2.132   1.976   5.208  0.8055 -1.3648  0.5298
 4889SOL    HW226322   2.239   2.029   5.096  0.0882  0.2807  0.6006
 4890SOL     OW26323   7.528   6.134   7.853 -0.1983 -0.2526  0.0155
 4890SOL    HW126324   7.586   6.074   7.798 -0.0671 -0.4958  0.4211
 4890SOL    HW226325   7.584   6.183   7.919 -0.2563  0.5751 -0.5410
 4891SOL     OW26326   0.980   3.739   7.527 -0.4708  0.1640 -0.3699
 4891SOL    HW126327   0.940   3.804   7.463 -1.9736 -0.1264  0.2515
 4891SOL    HW226328   1.017   3.787   7.606 -0.7500  0.3261 -0.3405
 4892SOL     OW26329   3.115   8.077   8.141  0.4087  0.1437  0.7346
 4892SOL    HW126330   3.029   8.126   8.152 -0.0013 -0.5768  0.7805
 4892SOL    HW226331   3.165   8.077   8.228  1.2949  2.0921  0.2608
 4893SOL     OW26332   9.594   7.509   3.849  0.0887  0.0582  0.3529
 4893SOL    HW126333   9.502   7.488   3.880 -0.1647 -0.7479 -0.9069
 4893SOL    HW226334   9.652   7.427   3.859 -0.3098 -0.6128 -2.3937
 4894SOL     OW26335   2.091   3.256   3.417  0.2809  0.2299 -1.1101
 4894SOL    HW126336   2.183   3.220   3.402  1.1066  1.4039  0.9735
 4894SOL    HW226337   2.037   3.188   3.466  0.8937  0.6100  0.1050
 4895SOL     OW26338   2.763   8.553   3.490  0.1248 -0.4846  0.0380
 4895SOL    HW126339   2.724   8.479   3.545  1.4101 -0.8851  0.4398
 4895SOL    HW226340   2.760   8.638   3.541  0.2703 -0.6221  0.2745
 4896SOL     OW26341   7.084   1.243   8.035 -0.0315 -0.7429 -0.0726
 4896SOL    HW126342   7.177   1.267   8.062  0.2555  0.1054 -1.7287
 4896SOL    HW226343   7.040   1.322   7.991 -0.6551 -1.8667 -1.5289
 4897SOL     OW26344   0.172   6.552   6.152 -0.4479 -0.2832 -0.4429
 4897SOL    HW126345   0.242   6.578   6.086 -0.6430  0.5073 -0.3445
 4897SOL    HW226346   0.104   6.625   6.159  0.0010  0.0076  1.2328
 4898SOL     OW26347   1.785   0.470   2.902 -0.0221 -0.5936 -0.1143
 4898SOL    HW126348   1.877   0.505   2.917  0.2437 -1.2581 -0.1871
 4898SOL    HW226349   1.790   0.380   2.859 -0.6730 -1.5424  1.7682
 4899SOL     OW26350   2.698   3.135   7.834 -0.2067  0.4112  0.2665
 4899SOL    HW126351   2.710   3.140   7.735 -0.6334  0.9456  0.2390
 4899SOL    HW226352   2.684   3.040   7.861 -0.8440  0.3470 -0.2784
 4900SOL     OW26353   8.950   8.351   3.364  0.1380  0.0398 -0.0607
 4900SOL    HW126354   9.023   8.405   3.405  0.3342 -0.4044  0.1905
 4900SOL    HW226355   8.911   8.290   3.434  0.1653 -0.3929 -0.4191
 4901SOL     OW26356   2.361   6.594   3.965 -0.8012 -0.0046  0.4076
 4901SOL    HW126357   2.384   6.522   3.900 -0.1187 -0.7589  1.4505
 4901SOL    HW226358   2.431   6.666   3.961 -0.9271  0.0972  0.0829
 4902SOL     OW26359   8.539   7.124   3.597  0.8680 -0.2503  0.0209
 4902SOL    HW126360   8.596   7.045   3.575  0.3907 -0.4828 -0.3771
 4902SOL    HW226361   8.508   7.119   3.692  0.7760 -0.5787 -0.0287
 4903SOL     OW26362   8.580   2.683   6.778  0.2854  0.6877 -0.0297
 4903SOL    HW126363   8.508   2.630   6.825  1.0911 -0.5101 -0.1210
 4903SOL    HW226364   8.588   2.652   6.683  1.4585  0.2396  0.2001
 4904SOL     OW26365   3.263   8.737   3.237  0.5000  0.4392 -0.1422
 4904SOL    HW126366   3.259   8.769   3.331 -0.4284 -1.8704  0.6457
 4904SOL    HW226367   3.358   8.741   3.204  1.2149 -0.8869  1.6756
 4905SOL     OW26368   3.446   3.769   3.519  0.6979 -0.2040 -0.5483
 4905SOL    HW126369   3.372   3.745   3.582  1.4135  2.0477  1.2030
 4905SOL    HW226370   3.422   3.853   3.471  1.7658  0.0850 -0.5674
 4906SOL     OW26371   1.661   4.547   8.202 -0.4331 -0.6644  0.0832
 4906SOL    HW126372   1.673   4.553   8.103  1.3569  1.7951  0.4096
 4906SOL    HW226373   1.571   4.581   8.227 -0.4987 -0.3065 -0.6190
 4907SOL     OW26374   5.854   3.915   0.098 -0.1836 -0.3495 -0.2662
 4907SOL    HW126375   5.870   4.000   0.048 -0.9112  1.0469  1.7822
 4907SOL    HW226376   5.757   3.890   0.091 -0.3826  0.0902  0.7408
 4908SOL     OW26377   8.402   9.249   7.570  0.2648  0.3204 -0.4937
 4908SOL    HW126378   8.387   9.153   7.545  1.2830  0.4963 -1.8662
 4908SOL    HW226379   8.314   9.293   7.589 -0.1972 -0.9043  0.2495
 4909SOL     OW26380   2.232   8.023   3.973  0.3425 -0.0993  0.0636
 4909SOL    HW126381   2.258   8.098   4.033 -1.7204  1.3764 -0.7957
 4909SOL    HW226382   2.174   7.958   4.023 -1.6558  1.3052 -0.3654
 4910SOL     OW26383   5.725   8.904   2.210 -0.0670  0.5550  0.7217
 4910SOL    HW126384   5.709   8.873   2.116  3.5168 -0.0059  0.1987
 4910SOL    HW226385   5.705   8.830   2.273  2.1111 -0.7439 -0.0328
 4911SOL     OW26386   7.389   9.016   5.771 -0.2699  0.1669 -0.0137
 4911SOL    HW126387   7.370   9.027   5.869 -0.4295 -0.8271  0.0806
 4911SOL    HW226388   7.415   9.104   5.732  0.0785  0.5257  0.9867
 4912SOL     OW26389   5.782   5.599   1.362  0.4905  0.1530  0.4990
 4912SOL    HW126390   5.690   5.608   1.325  0.4480 -1.0596  0.2896
 4912SOL    HW226391   5.785   5.522   1.426  1.5263 -0.2341 -0.0078
 4913SOL     OW26392   5.417   8.892   6.907  0.4111  0.0026  0.3598
 4913SOL    HW126393   5.451   8.830   6.836  0.2118 -0.0303  0.2937
 4913SOL    HW226394   5.387   8.839   6.986  0.7873  0.0480  0.5336
 4914SOL     OW26395   6.681   0.675   0.494 -0.1634 -0.6923  0.2455
 4914SOL    HW126396   6.757   0.722   0.539  1.0405 -2.1742 -0.2028
 4914SOL    HW226397   6.644   0.605   0.555 -0.4612 -0.7102  0.0460
 4915SOL     OW26398   6.381   7.424   5.467  0.0713 -0.1462 -0.3827
 4915SOL    HW126399   6.331   7.496   5.516  0.0268 -0.4673  0.0407
 4915SOL    HW226400   6.343   7.335   5.490  1.5368 -0.4850  0.7894
 4916SOL     OW26401   1.194   4.852   2.218 -0.1984 -0.0645  0.3406
 4916SOL    HW126402   1.155   4.761   2.217  0.3376 -0.3028 -0.9162
 4916SOL    HW226403   1.264   4.859   2.146  0.8764  0.8472  1.4517
 4917SOL     OW26404   3.994   3.523   5.360 -0.0909  0.0959  0.4060
 4917SOL    HW126405   3.924   3.520   5.289  0.2464 -0.3161  0.0858
 4917SOL    HW226406   3.965   3.469   5.439  0.2570 -0.8378 -0.0922
 4918SOL     OW26407   8.285   5.196   4.720  0.5784  0.0748  0.0881
 4918SOL    HW126408   8.268   5.161   4.628  1.8577 -1.4104  0.3948
 4918SOL    HW226409   8.200   5.235   4.757 -0.0778  0.1964 -1.4921
 4919SOL     OW26410   8.528   5.388   7.957 -0.2163  0.0832 -0.2596
 4919SOL    HW126411   8.604   5.327   7.978 -0.2980 -0.0872 -0.4601
 4919SOL    HW226412   8.550   5.481   7.987 -0.1175 -0.0572  0.0907
 4920SOL     OW26413   1.698   8.259   1.531  0.5209 -0.4999  0.1171
 4920SOL    HW126414   1.616   8.213   1.564  0.8054  0.6300  2.4901
 4920SOL    HW226415   1.778   8.205   1.554  0.8288  0.9334  2.6101
 4921SOL     OW26416   0.319   2.554   3.070 -0.5032 -0.7481  0.4047
 4921SOL    HW126417   0.279   2.573   2.981  0.3061 -1.0742 -0.0348
 4921SOL    HW226418   0.409   2.599   3.076  0.0680 -1.8803  0.5164
 4922SOL     OW26419   1.681   5.169   0.934 -0.4739 -0.2928 -0.1151
 4922SOL    HW126420   1.689   5.265   0.908  1.4398 -0.2345  0.5777
 4922SOL    HW226421   1.600   5.156   0.990 -0.3156  1.0720  0.4501
 4923SOL     OW26422   3.897   9.133   7.464 -0.2340 -0.1490  0.1131
 4923SOL    HW126423   3.966   9.171   7.525  1.1656 -2.4280  0.0221
 4923SOL    HW226424   3.849   9.207   7.417  0.7662  1.5325  1.6730
 4924SOL     OW26425   9.028   6.314   6.287 -0.9216  0.6801 -0.0195
 4924SOL    HW126426   9.090   6.393   6.291 -0.9372  0.7829 -1.4820
 4924SOL    HW226427   8.987   6.299   6.377 -1.0800  2.4758  0.2299
 4925SOL     OW26428   6.174   9.758   1.083 -0.7545  0.0697 -0.7636
 4925SOL    HW126429   6.090   9.787   1.037 -0.8328  1.4000  0.1697
 4925SOL    HW226430   6.151   9.700   1.161 -0.7560 -0.2667 -1.0138
 4926SOL     OW26431   3.289   6.657   1.968  1.2127 -0.2553 -0.0420
 4926SOL    HW126432   3.209   6.715   1.972  0.9732 -0.6845  1.6223
 4926SOL    HW226433   3.369   6.706   2.002  1.2222 -0.5557  0.3704
 4927SOL     OW26434   2.246   4.761   1.032 -0.4358 -0.5125 -0.0801
 4927SOL    HW126435   2.184   4.688   1.060  0.4644 -0.5048  2.0091
 4927SOL    HW226436   2.216   4.798   0.944 -0.6853 -3.6141 -1.3439
 4928SOL     OW26437   8.311   5.517   2.897 -0.0549  0.8102  0.6785
 4928SOL    HW126438   8.290   5.613   2.883 -0.6316  0.7876  1.3271
 4928SOL    HW226439   8.256   5.461   2.834 -0.9547  0.8253  1.4343
 4929SOL     OW26440   9.550   4.318   0.063  0.4461 -0.2652 -0.5901
 4929SOL    HW126441   9.562   4.227   0.024 -0.7945  0.0846 -1.8610
 4929SOL    HW226442   9.628   4.341   0.121  0.0811 -2.7034  0.8919
 4930SOL     OW26443   9.353   2.096   4.389  0.1158  0.0712  0.5513
 4930SOL    HW126444   9.410   2.017   4.412 -0.4340 -0.3042  0.6481
 4930SOL    HW226445   9.411   2.176   4.373  0.6208 -0.1224  1.3934
 4931SOL     OW26446   0.071   3.825   2.991  0.1854  0.1145 -0.4064
 4931SOL    HW126447   0.142   3.760   3.019  1.4404  0.7178 -2.0817
 4931SOL    HW226448   0.103   3.918   3.008 -0.7292  0.3546 -0.0044
 4932SOL     OW26449   9.560   2.468   4.265  0.0316  0.1003  0.3661
 4932SOL    HW126450   9.482   2.457   4.203 -1.3208  1.2730  1.8431
 4932SOL    HW226451   9.538   2.430   4.354  1.5288 -0.4598  0.5090
 4933SOL     OW26452   4.512   6.348   0.664 -0.0596  0.0973  0.3537
 4933SOL    HW126453   4.413   6.350   0.681 -0.1198 -1.5424  0.3430
 4933SOL    HW226454   4.556   6.291   0.733  0.9528  1.2676  0.6741
 4934SOL     OW26455   3.303   0.271   5.285  0.3994 -0.0447  0.0269
 4934SOL    HW126456   3.310   0.239   5.190  1.4396  0.5598 -0.1069
 4934SOL    HW226457   3.388   0.248   5.333 -0.0334 -0.1301  0.7401
 4935SOL     OW26458   5.743   1.277   0.093 -0.3698  0.3913  0.1965
 4935SOL    HW126459   5.791   1.296   0.179  1.9514 -2.0051 -0.5187
 4935SOL    HW226460   5.696   1.189   0.100 -1.1730  0.7522 -0.5916
 4936SOL     OW26461   8.238   9.342   4.439  0.2008 -0.0546  0.3646
 4936SOL    HW126462   8.299   9.286   4.384 -0.5273 -1.9091  1.3998
 4936SOL    HW226463   8.289   9.419   4.478  1.7042 -1.1355  0.5802
 4937SOL     OW26464   8.096   5.588   3.180 -0.0406 -0.0782  0.1759
 4937SOL    HW126465   8.190   5.602   3.147 -0.1308 -0.3052 -0.1823
 4937SOL    HW226466   8.050   5.676   3.188  0.2678  0.0501  0.5391
 4938SOL     OW26467   7.390   2.687   1.473 -0.3698  0.9545  0.2404
 4938SOL    HW126468   7.323   2.622   1.508  0.8470 -0.6057 -0.2703
 4938SOL    HW226469   7.358   2.781   1.489 -0.8899  0.2644  3.4091
 4939SOL     OW26470   3.374   5.546   1.137  0.6844  0.5176  0.1217
 4939SOL    HW126471   3.319   5.628   1.151  1.2323  1.0033 -0.5692
 4939SOL    HW226472   3.352   5.504   1.049  1.8321  1.0403 -0.4193
 4940SOL     OW26473   5.353   4.398   0.179 -0.3225  0.0298  0.2166
 4940SOL    HW126474   5.303   4.344   0.111  0.7768  1.2379 -1.5784
 4940SOL    HW226475   5.320   4.492   0.177  0.1262  0.2023  0.9559
 4941SOL     OW26476   7.886   2.584   4.279  0.5429  0.0881 -0.0952
 4941SOL    HW126477   7.892   2.680   4.253 -1.6849 -0.2253 -1.8840
 4941SOL    HW226478   7.796   2.548   4.255  0.7234 -2.0106  2.1151
 4942SOL     OW26479   5.796   3.749   1.338 -0.0587  0.0344 -0.7367
 4942SOL    HW126480   5.806   3.725   1.435 -0.3229 -3.3624 -1.4799
 4942SOL    HW226481   5.884   3.781   1.302  0.0533  1.2601  0.5951
 4943SOL     OW26482   3.030   1.127   3.656  0.4509 -0.1042  0.3803
 4943SOL    HW126483   2.930   1.129   3.657  0.4563  0.7817 -0.2795
 4943SOL    HW226484   3.063   1.081   3.738 -0.5164 -1.1720  0.1898
 4944SOL     OW26485   4.765   3.279   6.089 -0.3220 -0.1021 -0.8236
 4944SOL    HW126486   4.839   3.225   6.049  2.2821  1.9906  0.9948
 4944SOL    HW226487   4.717   3.223   6.156  1.8935 -0.4627  0.5372
 4945SOL     OW26488   4.786   2.657   5.495 -0.0276  0.8276 -0.0616
 4945SOL    HW126489   4.826   2.738   5.537 -1.8362  1.2291  0.9184
 4945SOL    HW226490   4.809   2.576   5.550  0.4060  0.8834 -0.1553
 4946SOL     OW26491   3.010   4.073   6.523  0.5784 -0.0792 -0.2109
 4946SOL    HW126492   3.033   4.128   6.604 -1.0578  2.2100 -1.2661
 4946SOL    HW226493   2.911   4.069   6.512  0.7829 -0.3822 -2.0959
 4947SOL     OW26494   1.748   8.870   1.659  0.2860 -0.0048 -0.3422
 4947SOL    HW126495   1.771   8.918   1.744  0.7880 -3.0064  1.3268
 4947SOL    HW226496   1.830   8.861   1.603  0.5143 -0.1609  0.0120
 4948SOL     OW26497   0.191   6.753   5.692  0.2228  0.3802  0.2154
 4948SOL    HW126498   0.276   6.802   5.676 -0.6744  1.1423 -2.3782
 4948SOL    HW226499   0.194   6.664   5.646 -0.8265  0.9058 -0.8874
 4949SOL     OW26500   3.269   5.892   0.516  0.1086  0.0928  0.4327
 4949SOL    HW126501   3.331   5.816   0.534 -0.7237 -0.9955 -1.2427
 4949SOL    HW226502   3.179   5.872   0.553  0.1409  0.7092  0.8648
 4950SOL     OW26503   3.350   4.551   4.300  0.0572  0.0332  0.2015
 4950SOL    HW126504   3.399   4.533   4.385 -0.7231  0.5700  0.7735
 4950SOL    HW226505   3.338   4.466   4.250  1.4488 -0.1199  0.1195
 4951SOL     OW26506   8.642   5.076   7.582 -0.6299  0.0163  0.2476
 4951SOL    HW126507   8.709   5.116   7.645 -1.5716  1.9684  0.0500
 4951SOL    HW226508   8.619   5.143   7.511 -0.1744 -1.8838 -1.7330
 4952SOL     OW26509   1.200   7.825   3.039 -0.2402  0.0896 -0.3841
 4952SOL    HW126510   1.111   7.801   3.076 -0.3272  2.2289  0.8871
 4952SOL    HW226511   1.262   7.848   3.114  0.4954  1.5151 -1.4087
 4953SOL     OW26512   7.085   0.807   6.319 -0.6529 -0.0777 -0.3185
 4953SOL    HW126513   7.094   0.855   6.406 -0.2240 -3.5314  1.6535
 4953SOL    HW226514   6.989   0.795   6.297 -0.8163 -1.4212  1.0329
 4954SOL     OW26515   8.235   3.068   2.863  0.2264 -0.0148  0.0534
 4954SOL    HW126516   8.310   3.034   2.807  0.7409  0.2406  0.5681
 4954SOL    HW226517   8.148   3.029   2.832  0.3568  0.9523 -1.5918
 4955SOL     OW26518   0.883   9.780   6.292  0.2091  0.2372  0.5653
 4955SOL    HW126519   0.921   9.828   6.213  0.9576 -0.8976  0.2140
 4955SOL    HW226520   0.789   9.752   6.272  0.4468 -0.1831  0.0061
 4956SOL     OW26521   9.601   4.050   2.139 -0.0848  0.2699 -0.0615
 4956SOL    HW126522   9.576   4.049   2.236 -0.3043 -1.0992 -0.1208
 4956SOL    HW226523   9.593   4.144   2.103 -1.3238  0.5473  0.8978
 4957SOL     OW26524   3.095   0.765   3.116  0.4759  0.1302  0.5649
 4957SOL    HW126525   3.102   0.704   3.195  1.0148 -0.2173  0.2501
 4957SOL    HW226526   3.185   0.804   3.095  0.2210  0.6800  0.4864
 4958SOL     OW26527   0.051   3.785   1.750 -0.4122 -0.0782  0.3697
 4958SOL    HW126528   0.064   3.877   1.789  1.2144 -0.1542  0.0666
 4958SOL    HW226529   0.033   3.720   1.824 -2.0219  0.5432  0.5503
 4959SOL     OW26530   5.069   0.125   6.673  0.1889  0.0610  0.1941
 4959SOL    HW126531   5.093   0.065   6.750  0.2389 -0.9037 -0.5544
 4959SOL    HW226532   5.013   0.073   6.608 -1.8310  1.5468  0.7140
 4960SOL     OW26533   7.761   9.901   5.894 -0.0478  0.1746  0.2232
 4960SOL    HW126534   7.794   9.995   5.890 -1.0414  0.5386  0.4704
 4960SOL    HW226535   7.706   9.881   5.812 -1.4103  0.4176  1.0571
 4961SOL     OW26536   2.965   4.502   2.825 -0.3033 -0.0287 -0.4003
 4961SOL    HW126537   3.005   4.583   2.869  0.9650 -0.9455  0.1796
 4961SOL    HW226538   2.877   4.526   2.785 -0.2044  1.5048  0.2511
 4962SOL     OW26539   0.577   7.210   6.878 -0.8099  0.0143  0.2278
 4962SOL    HW126540   0.517   7.133   6.856 -1.3884  0.0381  1.7033
 4962SOL    HW226541   0.655   7.178   6.932 -0.9430  0.4256  0.6682
 4963SOL     OW26542   1.241   7.870   2.742  0.0937 -0.1659  0.6259
 4963SOL    HW126543   1.188   7.951   2.718 -3.1137 -2.4415 -0.3472
 4963SOL    HW226544   1.220   7.844   2.836 -0.6267 -1.1196  0.2122
 4964SOL     OW26545   3.884   5.671   7.167 -0.2180 -0.2001 -0.3685
 4964SOL    HW126546   3.819   5.596   7.163 -1.3883  0.8365 -1.3235
 4964SOL    HW226547   3.844   5.749   7.215  0.8291 -0.0300  0.2595
 4965SOL     OW26548   1.941   1.914   1.451 -0.7394 -0.3053 -0.1894
 4965SOL    HW126549   1.948   1.873   1.360  0.1749  1.2825 -0.8635
 4965SOL    HW226550   1.997   1.862   1.515 -0.3131 -0.6546 -0.8371
 4966SOL     OW26551   0.356   0.257   5.073 -0.3286  0.1082 -0.1189
 4966SOL    HW126552   0.317   0.342   5.108  0.0465  0.5032 -0.6488
 4966SOL    HW226553   0.371   0.193   5.148 -0.0413  0.7438  0.3652
 4967SOL     OW26554   2.730   4.005   6.485 -0.2976  0.3100  0.4699
 4967SOL    HW126555   2.667   3.927   6.487 -1.5183  1.1530 -2.2863
 4967SOL    HW226556   2.678   4.090   6.483  1.0064  1.1593  1.6026
 4968SOL     OW26557   2.494   8.503   4.053  0.1430 -0.1067  0.1050
 4968SOL    HW126558   2.567   8.552   4.007  0.8592 -1.9549 -0.7877
 4968SOL    HW226559   2.418   8.488   3.990  0.2952 -0.9045  0.1053
 4969SOL     OW26560   0.969   0.862   0.812  0.1718  0.3191  0.0758
 4969SOL    HW126561   0.999   0.866   0.907  1.8272 -3.0167 -0.1971
 4969SOL    HW226562   1.038   0.905   0.753  0.9359 -0.8296  0.1062
 4970SOL     OW26563   0.982   0.043   7.818  0.0749 -0.6205  0.2799
 4970SOL    HW126564   1.007   0.130   7.861  1.4584  0.0218 -1.7044
 4970SOL    HW226565   0.883   0.032   7.820 -0.3475  2.1753 -1.4915
 4971SOL     OW26566   8.677   3.006   4.029 -0.1719 -0.2429  0.7078
 4971SOL    HW126567   8.679   2.959   3.941 -0.7408  0.6918  0.1866
 4971SOL    HW226568   8.586   3.044   4.045  0.6355  1.9243  0.4394
 4972SOL     OW26569   9.612   6.849   1.298  0.1371  0.3344  0.5432
 4972SOL    HW126570   9.571   6.783   1.234  1.2647 -0.9468  1.1048
 4972SOL    HW226571   9.625   6.937   1.252 -0.4521 -0.1335 -0.5330
 4973SOL     OW26572   0.670   9.566   3.926  0.3295  0.7911 -0.1073
 4973SOL    HW126573   0.635   9.548   4.018  1.7210  3.3336  0.9453
 4973SOL    HW226574   0.769   9.581   3.929 -0.0582  4.0443 -1.5148
 4974SOL     OW26575   3.153   5.304   5.236  0.0449 -0.2907 -0.8389
 4974SOL    HW126576   3.222   5.252   5.186 -0.0036  0.5495 -1.8003
 4974SOL    HW226577   3.076   5.325   5.175 -0.8164 -0.7370  0.0646
 4975SOL     OW26578   7.751   8.986   3.016 -0.0054  0.6139 -0.4110
 4975SOL    HW126579   7.824   9.022   2.958  1.9642 -0.1346  1.5118
 4975SOL    HW226580   7.774   8.892   3.043 -2.4191 -0.1600 -0.9600
 4976SOL     OW26581   9.995   7.351   7.136  0.3460  0.0454  0.5851
 4976SOL    HW126582  10.025   7.257   7.122 -0.6933 -0.1728 -0.2341
 4976SOL    HW226583   9.900   7.360   7.107 -0.8125  0.4333  4.1857
 4977SOL     OW26584   4.025   1.270   3.176  0.4118 -0.7442 -0.3570
 4977SOL    HW126585   4.005   1.264   3.079  0.7696 -1.9245 -0.3601
 4977SOL    HW226586   4.077   1.190   3.205  0.9287 -0.0636  0.6609
 4978SOL     OW26587   6.323   5.687   0.696 -0.3608  0.3254 -0.6435
 4978SOL    HW126588   6.358   5.720   0.608  1.9346  0.5056  0.2960
 4978SOL    HW226589   6.225   5.670   0.689 -0.3983  1.3349 -2.9388
 4979SOL     OW26590   0.793   1.158   8.211 -0.2716 -0.3205  0.2713
 4979SOL    HW126591   0.816   1.204   8.296 -0.4597  0.0695  0.1124
 4979SOL    HW226592   0.868   1.097   8.184  0.8730  1.4312 -0.5891
 4980SOL     OW26593   4.289   3.739   4.858  0.1458  0.6363  0.0045
 4980SOL    HW126594   4.386   3.719   4.845  0.1415  0.1670  0.6815
 4980SOL    HW226595   4.279   3.820   4.915  0.1376 -0.7832  2.0679
 4981SOL     OW26596   0.578   6.602   1.813  1.0371 -0.1487 -0.1970
 4981SOL    HW126597   0.491   6.554   1.805  1.3095 -0.1694 -3.4013
 4981SOL    HW226598   0.652   6.535   1.821  0.9962 -0.1502  0.2238
 4982SOL     OW26599   8.795   3.393   5.996  0.5221  0.3413  0.0551
 4982SOL    HW126600   8.710   3.402   6.047  0.7536 -0.1010  0.5290
 4982SOL    HW226601   8.871   3.377   6.060  0.8138 -0.2208 -0.4279
 4983SOL     OW26602   1.541   8.385   6.335 -0.1474  0.0834  0.5590
 4983SOL    HW126603   1.635   8.420   6.342  0.3612 -1.4427  1.5436
 4983SOL    HW226604   1.536   8.294   6.376 -2.3365  0.6479  1.6057
 4984SOL     OW26605   2.109   0.897   0.815  0.2459  0.2172 -0.2467
 4984SOL    HW126606   2.022   0.905   0.767 -0.0537 -1.3082 -0.0025
 4984SOL    HW226607   2.103   0.824   0.884  1.8934 -0.3556 -0.6707
 4985SOL     OW26608   2.756   5.104   0.186  0.2992  0.1020 -0.6793
 4985SOL    HW126609   2.770   5.130   0.090 -0.3885 -0.0267 -0.8216
 4985SOL    HW226610   2.672   5.146   0.220  0.7260  0.4321 -0.0193
 4986SOL     OW26611   1.434   6.104   6.542 -0.1889  0.2151  0.8321
 4986SOL    HW126612   1.420   6.007   6.522 -0.0704  0.5118 -0.7456
 4986SOL    HW226613   1.532   6.121   6.553 -0.0667  0.4410 -0.4999
 4987SOL     OW26614   3.912   2.709   7.432 -0.4763  0.3409 -0.3129
 4987SOL    HW126615   3.939   2.774   7.361 -2.5599  1.2650 -0.2913
 4987SOL    HW226616   3.931   2.616   7.402 -0.5210  0.7825 -1.7185
 4988SOL     OW26617   2.978   9.961   7.458 -0.2952  0.3351  0.0926
 4988SOL    HW126618   2.947  10.038   7.402 -0.3547  0.6179  0.5185
 4988SOL    HW226619   3.072   9.977   7.488 -0.5822  0.6152  0.8502
 4989SOL     OW26620   8.906   5.297   0.636  0.1979 -0.4714  0.3157
 4989SOL    HW126621   8.883   5.250   0.551 -1.3035 -0.1604  0.5365
 4989SOL    HW226622   8.995   5.267   0.668  0.0522 -1.7985 -0.5196
 4990SOL     OW26623   3.857   7.762   0.899  0.5707  0.5633  0.0459
 4990SOL    HW126624   3.819   7.771   0.807  1.1681 -2.0657 -0.5137
 4990SOL    HW226625   3.948   7.721   0.893 -0.5531 -2.3350  1.9556
 4991SOL     OW26626   3.573   9.500   2.536  0.1014 -0.5129 -0.1771
 4991SOL    HW126627   3.653   9.489   2.478 -0.4261 -1.0196 -0.8183
 4991SOL    HW226628   3.601   9.533   2.626  1.2875 -3.0133  0.4147
 4992SOL     OW26629   4.928   5.896   0.493  0.0748  0.0282 -0.1679
 4992SOL    HW126630   4.875   5.816   0.521 -0.3690  0.1812 -0.5495
 4992SOL    HW226631   5.025   5.874   0.493 -0.1768 -1.1645 -2.3283
 4993SOL     OW26632   8.663   6.106   4.633 -0.0877  0.1472 -0.6070
 4993SOL    HW126633   8.584   6.167   4.625 -0.3691 -0.0918  0.2581
 4993SOL    HW226634   8.656   6.034   4.564  0.1342  0.9650 -1.4873
 4994SOL     OW26635   6.818   9.983   4.451 -0.6354  0.2228 -0.0567
 4994SOL    HW126636   6.803   9.910   4.385 -2.4315  1.8420 -1.5177
 4994SOL    HW226637   6.914  10.009   4.451 -0.2738 -1.0948 -0.6288
 4995SOL     OW26638   2.183   3.665   6.721 -0.2493 -0.1022 -0.0634
 4995SOL    HW126639   2.106   3.653   6.783 -0.3282 -1.0970 -0.3452
 4995SOL    HW226640   2.264   3.621   6.760  0.1525  0.8351  0.1768
 4996SOL     OW26641   3.606   7.793   3.476 -0.4335  0.2011 -0.2712
 4996SOL    HW126642   3.691   7.744   3.495 -1.6246 -1.0294  2.1378
 4996SOL    HW226643   3.605   7.822   3.380  2.7691  0.4488 -0.2968
 4997SOL     OW26644   2.740   0.862   1.834 -0.6412 -0.4923  0.6410
 4997SOL    HW126645   2.758   0.845   1.931  1.8265  1.1646  0.5260
 4997SOL    HW226646   2.813   0.820   1.779 -0.4855  0.9600 -0.2907
 4998SOL     OW26647   8.383   9.388   3.398  0.6759 -0.6520  0.3984
 4998SOL    HW126648   8.315   9.324   3.435  1.1669 -0.8513  0.9684
 4998SOL    HW226649   8.351   9.424   3.311  0.2487 -1.4426  0.2204
 4999SOL     OW26650   8.517   6.112   0.539 -0.0682  0.1085  0.0788
 4999SOL    HW126651   8.422   6.141   0.553 -0.9852 -2.0985 -1.2123
 4999SOL    HW226652   8.559   6.093   0.628 -1.5132 -0.8714  0.5878
 5000SOL     OW26653   9.024   5.796   8.108 -0.0430  0.2917  0.0558
 5000SOL    HW126654   9.034   5.861   8.033 -0.6198  2.1892  1.5760
 5000SOL    HW226655   8.960   5.724   8.082  0.3895  0.4585 -1.5453
 5001SOL     OW26656   5.275   7.850   3.546 -0.0499 -0.2846 -0.1887
 5001SOL    HW126657   5.222   7.894   3.474  0.3705 -1.2844 -1.1124
 5001SOL    HW226658   5.373   7.860   3.528  0.1580  2.7447  2.2277
 5002SOL     OW26659   6.729   3.872   0.995 -0.3322  1.1680 -0.2893
 5002SOL    HW126660   6.804   3.936   1.010 -0.6420  1.4009  0.2971
 5002SOL    HW226661   6.648   3.923   0.963 -1.6576  1.6068  3.5156
 5003SOL     OW26662   4.170   5.285   0.508 -0.0496 -0.0268 -0.2605
 5003SOL    HW126663   4.162   5.293   0.409 -0.5501  0.1490 -0.2081
 5003SOL    HW226664   4.197   5.192   0.532 -2.4142 -0.7864 -0.4382
 5004SOL     OW26665   9.771   4.560   2.269  0.3781  0.3401  0.4034
 5004SOL    HW126666   9.674   4.542   2.252  0.4309 -0.0411  0.4837
 5004SOL    HW226667   9.818   4.571   2.182  0.0896  1.5130  0.3851
 5005SOL     OW26668   3.751   0.619   6.917 -0.0330 -0.2356 -0.5554
 5005SOL    HW126669   3.755   0.619   6.817  0.5792  0.4359 -0.5311
 5005SOL    HW226670   3.657   0.603   6.947 -0.5432  1.4506 -1.2445
 5006SOL     OW26671   1.582   7.654   4.977  0.2219  0.0958 -0.1191
 5006SOL    HW126672   1.618   7.740   4.941  0.3838  0.1818  0.2453
 5006SOL    HW226673   1.484   7.662   4.993  0.1508  0.0593 -0.5332
 5007SOL     OW26674   3.714   0.240   2.082  0.4032 -0.0393  0.1452
 5007SOL    HW126675   3.769   0.312   2.125  1.9990 -0.8495 -0.5213
 5007SOL    HW226676   3.662   0.280   2.006 -0.5301  0.8864  1.2539
 5008SOL     OW26677   9.778   3.607   5.557 -0.2417 -0.2811 -0.1627
 5008SOL    HW126678   9.864   3.654   5.575 -1.4077  0.5087  3.9898
 5008SOL    HW226679   9.716   3.667   5.506  0.3559  0.5666  0.1005
 5009SOL     OW26680   4.589   7.465   1.245  0.2513 -0.1313 -0.0361
 5009SOL    HW126681   4.627   7.557   1.252  1.5010 -0.9052  4.5292
 5009SOL    HW226682   4.492   7.467   1.271  0.4680 -0.2058  0.7887
 5010SOL     OW26683   1.916   2.419   4.747 -0.2886  0.2753  0.5632
 5010SOL    HW126684   1.995   2.481   4.742 -0.8527  1.0278  0.9169
 5010SOL    HW226685   1.917   2.372   4.835  2.1498 -2.9392 -1.0952
 5011SOL     OW26686   3.394   5.969   2.587 -0.0659 -0.4207 -0.6260
 5011SOL    HW126687   3.362   6.006   2.674  0.5790  1.9472 -1.3460
 5011SOL    HW226688   3.367   6.031   2.513  2.0362 -0.7922 -1.7567
 5012SOL     OW26689   8.347   8.137   2.308 -0.4267 -0.4995  0.1778
 5012SOL    HW126690   8.357   8.040   2.328  1.0080 -0.5537 -0.7731
 5012SOL    HW226691   8.335   8.151   2.210 -0.9989  0.2565  0.3487
 5013SOL     OW26692   1.227   8.563   5.714 -0.7936  0.1026 -0.3660
 5013SOL    HW126693   1.152   8.584   5.776 -2.4281 -3.2887 -1.0790
 5013SOL    HW226694   1.285   8.492   5.755  1.9190  2.4959  0.0672
 5014SOL     OW26695   4.601   3.625   2.324 -0.2049  0.1599 -0.1131
 5014SOL    HW126696   4.530   3.687   2.355  0.8869  0.6628  1.4139
 5014SOL    HW226697   4.648   3.664   2.245 -1.2797  0.0450 -0.8172
 5015SOL     OW26698   8.982   2.895   4.476 -0.1227 -0.4216 -0.2881
 5015SOL    HW126699   8.993   2.993   4.492  0.7294 -0.2533 -1.8204
 5015SOL    HW226700   9.061   2.846   4.513 -0.6797 -0.5534  0.7194
 5016SOL     OW26701   0.380   6.224   1.648 -0.4764  0.0083 -1.1723
 5016SOL    HW126702   0.342   6.222   1.555 -1.5620  0.0446 -0.7362
 5016SOL    HW226703   0.458   6.162   1.653 -0.5127 -0.1199 -2.0681
 5017SOL     OW26704   0.226   6.595   5.209  0.0378 -0.0375  0.1942
 5017SOL    HW126705   0.295   6.626   5.274  0.1284 -2.3952  1.2931
 5017SOL    HW226706   0.236   6.497   5.194 -1.2742  0.1056 -1.8421
 5018SOL     OW26707   1.236   0.960   4.378 -0.5666 -0.1939 -0.1889
 5018SOL    HW126708   1.238   1.035   4.444  0.0234 -0.2300 -0.1640
 5018SOL    HW226709   1.184   0.988   4.297  1.2115  0.9035 -0.9756
 5019SOL     OW26710   0.212   3.854   4.813  0.1021 -0.3623  0.2572
 5019SOL    HW126711   0.242   3.794   4.887 -0.3497  1.6020  2.0721
 5019SOL    HW226712   0.224   3.949   4.840  0.8237  0.3983 -2.5910
 5020SOL     OW26713   2.885   6.053   3.381 -0.0270  0.0482  0.1267
 5020SOL    HW126714   2.913   6.148   3.369 -0.3464  0.1574  0.2505
 5020SOL    HW226715   2.842   6.042   3.471 -0.4327 -0.1090 -0.0868
 5021SOL     OW26716   9.634   8.858   3.585 -0.4906  0.3858 -0.4386
 5021SOL    HW126717   9.614   8.832   3.679  0.3202 -0.2776 -0.4455
 5021SOL    HW226718   9.700   8.794   3.546  0.1494  1.3913 -1.0452
 5022SOL     OW26719   3.090   2.359   4.617  0.0887 -0.3625 -0.5131
 5022SOL    HW126720   3.126   2.268   4.636 -1.0374 -1.2836 -2.6060
 5022SOL    HW226721   3.156   2.428   4.646  0.7691 -1.8191  1.4810
 5023SOL     OW26722   1.681   8.513   1.050 -0.0104 -0.1452  0.0883
 5023SOL    HW126723   1.716   8.450   0.981  0.9236  1.5907 -1.0222
 5023SOL    HW226724   1.601   8.471   1.094  0.0623 -1.7393 -1.2304
 5024SOL     OW26725   9.091   9.129   0.510  0.0840 -0.8745 -0.0526
 5024SOL    HW126726   9.083   9.220   0.549  0.6016 -1.1810  0.7818
 5024SOL    HW226727   9.035   9.123   0.427  2.6625  1.2649 -2.0684
 5025SOL     OW26728   4.544   0.705   2.254 -0.1361 -0.0204 -0.1356
 5025SOL    HW126729   4.590   0.710   2.343  0.8234  0.0359 -0.6257
 5025SOL    HW226730   4.524   0.798   2.222 -1.0350 -0.0606  0.2997
 5026SOL     OW26731   9.355   7.852   1.124  0.1752 -0.3402  0.4963
 5026SOL    HW126732   9.305   7.918   1.181 -2.4975 -1.0823 -0.9165
 5026SOL    HW226733   9.360   7.764   1.171  1.0449  0.0010  1.0584
 5027SOL     OW26734   4.474   9.938   4.470  0.3778 -0.2532 -0.4502
 5027SOL    HW126735   4.426   9.976   4.549 -0.9559  0.6070 -1.6595
 5027SOL    HW226736   4.533  10.007   4.429 -0.2122 -0.1836 -1.2036
 5028SOL     OW26737   4.984   2.024   7.689  0.0439  0.0535 -0.3950
 5028SOL    HW126738   5.075   1.991   7.716  1.2252  2.6380 -1.0651
 5028SOL    HW226739   4.914   1.965   7.729  1.9704 -1.1338  1.3354
 5029SOL     OW26740   2.382   5.434   3.540 -0.4673 -0.5527  0.0878
 5029SOL    HW126741   2.432   5.514   3.571 -0.2098 -0.3555 -0.8066
 5029SOL    HW226742   2.426   5.351   3.574 -0.0366 -0.3534  0.0165
 5030SOL     OW26743   1.411   4.385   3.438  0.0882 -0.3558  0.5444
 5030SOL    HW126744   1.435   4.365   3.343 -0.6978  0.4350  0.1744
 5030SOL    HW226745   1.475   4.453   3.475 -1.9428  2.2849 -0.6624
 5031SOL     OW26746   2.058   6.116   8.118  0.7235 -0.1813  0.6346
 5031SOL    HW126747   2.026   6.067   8.199  0.4070 -0.5795  0.2664
 5031SOL    HW226748   2.016   6.206   8.115 -0.8205 -0.9108 -0.1520
 5032SOL     OW26749   6.752   1.764   1.173 -0.2484  0.5549 -0.0272
 5032SOL    HW126750   6.702   1.710   1.240 -0.1486  1.3023  0.6609
 5032SOL    HW226751   6.801   1.703   1.111  0.6130 -0.1321  1.3090
 5033SOL     OW26752   7.604   5.839   5.855 -0.0460  0.1801 -0.0938
 5033SOL    HW126753   7.528   5.860   5.794  0.8171 -0.0062 -1.2458
 5033SOL    HW226754   7.574   5.776   5.927 -0.2148 -2.4155 -2.3841
 5034SOL     OW26755   3.834   5.539   0.710  0.2931 -0.2160 -0.0967
 5034SOL    HW126756   3.900   5.464   0.717  2.0089  1.0286 -2.2952
 5034SOL    HW226757   3.873   5.621   0.752 -1.5682 -0.4933  2.2819
 5035SOL     OW26758   7.492   7.966   6.692 -0.2969  0.1119 -0.2294
 5035SOL    HW126759   7.414   7.907   6.711 -1.0553  0.4057 -2.2558
 5035SOL    HW226760   7.571   7.911   6.665 -0.0135 -0.1452  1.1081
 5036SOL     OW26761   1.760   1.384   1.746 -0.0257  0.1877 -0.0709
 5036SOL    HW126762   1.757   1.443   1.826  2.6956 -0.3426  0.4513
 5036SOL    HW226763   1.748   1.289   1.774  3.4339 -0.2634  0.0772
 5037SOL     OW26764   5.756   0.502   1.232 -0.4338  0.2422 -0.2304
 5037SOL    HW126765   5.784   0.428   1.292 -1.1587 -1.4107 -1.8908
 5037SOL    HW226766   5.836   0.537   1.182 -0.1196  0.5099  0.4465
 5038SOL     OW26767   8.845   9.600   2.803  0.3095  0.4115  0.6499
 5038SOL    HW126768   8.919   9.574   2.741 -0.3885  1.1041 -0.4832
 5038SOL    HW226769   8.858   9.555   2.892  0.8003 -1.3393 -0.2914
 5039SOL     OW26770   3.482   4.006   6.045  0.1506  0.4784 -0.2346
 5039SOL    HW126771   3.447   3.936   5.984  0.5712  0.1335 -0.0794
 5039SOL    HW226772   3.577   3.987   6.068 -0.0313  0.5382  0.6137
 5040SOL     OW26773   6.166   1.355   3.505  0.4599  0.0482  0.1079
 5040SOL    HW126774   6.095   1.339   3.574  1.3924 -0.9467  0.8599
 5040SOL    HW226775   6.126   1.348   3.414 -0.6376  0.6394  0.5261
 5041SOL     OW26776   0.448   4.103   4.804 -0.1343  0.6078  0.1817
 5041SOL    HW126777   0.543   4.134   4.808  0.4294 -0.8576 -1.1223
 5041SOL    HW226778   0.424   4.080   4.710 -1.3039 -0.4527  0.7210
 5042SOL     OW26779   5.819   7.751   3.689  0.2784 -0.0935 -0.9282
 5042SOL    HW126780   5.865   7.839   3.677  0.5792 -0.2426 -0.8742
 5042SOL    HW226781   5.766   7.753   3.773  0.3883 -0.0080 -0.8592
 5043SOL     OW26782   3.154   4.422   4.957  0.1357 -0.7827 -0.8517
 5043SOL    HW126783   3.091   4.483   5.005  1.2837  1.1018 -1.6765
 5043SOL    HW226784   3.188   4.467   4.874  2.6991 -1.6689 -0.3466
 5044SOL     OW26785   8.338   4.174   0.359 -0.8346 -0.0503  0.0241
 5044SOL    HW126786   8.428   4.217   0.368 -0.6572  0.0339 -1.9813
 5044SOL    HW226787   8.319   4.118   0.440  0.5541  0.7734  0.9359
 5045SOL     OW26788   3.329   7.186   3.692 -0.2591 -0.1540 -0.0479
 5045SOL    HW126789   3.288   7.277   3.682  0.3908  0.2719  1.1278
 5045SOL    HW226790   3.259   7.116   3.677 -1.2405  0.5571  1.1351
 5046SOL     OW26791   3.069   0.567   6.445 -0.4358 -0.0012  0.1334
 5046SOL    HW126792   3.030   0.593   6.357  2.2497 -0.1456 -1.1357
 5046SOL    HW226793   3.088   0.650   6.499 -1.0304  0.1380  0.1325
 5047SOL     OW26794   9.382   2.915   7.557  0.5179  0.2871  0.8961
 5047SOL    HW126795   9.306   2.857   7.587  1.0848 -1.9509 -1.8545
 5047SOL    HW226796   9.347   3.005   7.532 -1.5309 -1.1757 -1.8007
 5048SOL     OW26797   3.959   3.104   4.561  0.8232  0.3522  0.7000
 5048SOL    HW126798   3.910   3.180   4.604  1.8804  1.2997  0.2890
 5048SOL    HW226799   4.005   3.049   4.630  0.1729  0.1728  0.9912
 5049SOL     OW26800   1.239   8.154   5.089 -0.2794  0.3370  0.0187
 5049SOL    HW126801   1.239   8.246   5.051  2.0506  0.1723 -0.4471
 5049SOL    HW226802   1.291   8.093   5.029 -0.0270 -0.8171  1.3848
 5050SOL     OW26803   7.517   2.655   6.193  0.3098  0.1509 -0.2222
 5050SOL    HW126804   7.477   2.744   6.172 -0.1061 -0.1020 -0.5180
 5050SOL    HW226805   7.588   2.634   6.125  1.1747  0.7465  0.4976
 5051SOL     OW26806   1.985   4.184   5.184 -0.0562  0.6603 -0.1847
 5051SOL    HW126807   1.905   4.153   5.235 -0.1684 -0.2449 -0.9067
 5051SOL    HW226808   2.047   4.232   5.246  0.1423 -1.0552  0.9822
 5052SOL     OW26809   0.506   3.397   0.016  0.0507  0.2030  0.4138
 5052SOL    HW126810   0.605   3.388   0.025  0.1023 -1.8143 -1.8709
 5052SOL    HW226811   0.483   3.440  -0.071 -1.0813  1.0554  1.1097
 5053SOL     OW26812   4.001   7.362   2.871 -0.0635  0.3128  0.2477
 5053SOL    HW126813   3.924   7.426   2.876 -0.2937 -0.0136  1.1380
 5053SOL    HW226814   4.001   7.316   2.783 -0.5740  0.7116  0.0363
 5054SOL     OW26815   3.264   4.455   6.050 -0.6812 -0.1006  0.1509
 5054SOL    HW126816   3.173   4.415   6.055  0.3756 -2.7329 -0.4323
 5054SOL    HW226817   3.288   4.495   6.139 -2.0854 -0.1191  0.5397
 5055SOL     OW26818   3.099   1.219   2.355 -0.4691  0.3545  0.2709
 5055SOL    HW126819   3.071   1.314   2.366  0.1367  0.4472  1.0258
 5055SOL    HW226820   3.190   1.216   2.313 -0.5054  0.1143  0.2108
 5056SOL     OW26821   1.003   9.478   0.378 -0.6039  0.0670 -0.5986
 5056SOL    HW126822   0.998   9.406   0.447  0.2570  1.1587  0.6422
 5056SOL    HW226823   1.069   9.547   0.407 -0.2172  0.5430 -2.5394
 5057SOL     OW26824   2.155   0.836   5.124  0.0289  0.1043 -0.0643
 5057SOL    HW126825   2.194   0.919   5.083 -1.6016  0.9886  0.1509
 5057SOL    HW226826   2.073   0.810   5.074 -1.4697  0.6725  2.0631
 5058SOL     OW26827   4.587   7.420   3.029 -0.0982  0.2440 -0.0316
 5058SOL    HW126828   4.503   7.452   3.073 -1.6073 -1.2325 -1.7389
 5058SOL    HW226829   4.572   7.411   2.931  1.5456 -1.6515 -0.1510
 5059SOL     OW26830   1.853   0.517   2.170 -0.3236 -0.6494 -0.1306
 5059SOL    HW126831   1.948   0.508   2.138 -0.1924 -0.5431  0.2323
 5059SOL    HW226832   1.844   0.473   2.259 -0.6758 -0.8777 -0.2791
 5060SOL     OW26833   6.027   1.215   5.336  0.4655 -0.0909  0.2875
 5060SOL    HW126834   6.098   1.188   5.271  1.3289 -0.0229  1.1974
 5060SOL    HW226835   6.032   1.157   5.417  0.2239  0.6648  0.8431
 5061SOL     OW26836   2.402   8.575   6.234 -0.6287  0.1159  0.3869
 5061SOL    HW126837   2.439   8.484   6.213 -2.4245 -0.4697 -0.4152
 5061SOL    HW226838   2.380   8.623   6.149 -0.2996  1.0431  0.8185
 5062SOL     OW26839   8.552   5.677   4.505 -0.1406  0.9813  0.5835
 5062SOL    HW126840   8.522   5.761   4.460  0.4467 -0.0595 -1.8020
 5062SOL    HW226841   8.644   5.655   4.475 -1.1350 -1.7357 -0.6046
 5063SOL     OW26842   7.956   6.095   4.727  0.0763  1.0173 -0.6593
 5063SOL    HW126843   8.021   6.166   4.756  0.6052  0.5474 -0.6854
 5063SOL    HW226844   7.965   6.015   4.787 -0.8094  1.1249 -0.3690
 5064SOL     OW26845   6.826   3.229   0.940  0.3694 -0.3742 -0.2767
 5064SOL    HW126846   6.921   3.213   0.911  1.1411 -0.4911  2.1639
 5064SOL    HW226847   6.771   3.148   0.918  0.6418 -0.0142 -2.3872
 5065SOL     OW26848   8.439   6.524   3.234 -0.1150 -0.2218 -0.4708
 5065SOL    HW126849   8.454   6.623   3.232 -1.3031 -0.0337 -0.2592
 5065SOL    HW226850   8.438   6.489   3.140  0.0649  0.0050 -0.5583
 5066SOL     OW26851   3.158   7.687   5.403 -0.2953 -0.3111  0.3437
 5066SOL    HW126852   3.177   7.594   5.371 -0.6146  0.6253 -2.6675
 5066SOL    HW226853   3.232   7.718   5.462 -0.0130 -2.3171  1.0938
 5067SOL     OW26854   8.150   8.005   5.003 -0.3394  0.3433 -0.1246
 5067SOL    HW126855   8.054   8.005   5.027 -0.0458 -0.3465  1.0723
 5067SOL    HW226856   8.159   8.009   4.903 -1.6151 -0.3589 -0.2803
 5068SOL     OW26857   4.763   0.836   3.825  0.1884  0.6545  0.0751
 5068SOL    HW126858   4.730   0.891   3.749 -0.4156 -2.3104 -1.9100
 5068SOL    HW226859   4.859   0.857   3.843  0.7397  0.4496 -2.4493
 5069SOL     OW26860   9.019   3.425   5.788  0.3561  0.6072  0.2702
 5069SOL    HW126861   9.103   3.396   5.834  0.4388  0.4674  0.0326
 5069SOL    HW226862   8.940   3.407   5.847  0.3306 -0.7799 -0.1565
 5070SOL     OW26863   7.701   2.984   4.093  0.1200  0.1147 -0.2814
 5070SOL    HW126864   7.668   2.921   4.162  2.5630 -0.5190  0.3296
 5070SOL    HW226865   7.664   3.076   4.111 -0.3622 -0.3338  1.0354
 5071SOL     OW26866   8.096   9.790   0.770  0.6445 -0.1406 -0.3209
 5071SOL    HW126867   8.128   9.715   0.828 -0.2740 -0.1259  0.2297
 5071SOL    HW226868   8.084   9.872   0.826 -0.4529 -0.1821 -0.4735
 5072SOL     OW26869   4.841   0.345   5.145  0.2845 -0.2652  0.6183
 5072SOL    HW126870   4.876   0.436   5.168 -0.2692  0.1202 -0.0699
 5072SOL    HW226871   4.786   0.349   5.062  1.3279 -1.4601 -0.1602
 5073SOL     OW26872   0.906   8.186   7.734  0.1985 -0.1584 -0.1936
 5073SOL    HW126873   0.834   8.226   7.791  0.1465 -0.3605 -0.1183
 5073SOL    HW226874   0.866   8.143   7.653  0.4384  1.9762 -1.4810
 5074SOL     OW26875   3.725   7.724   6.855  0.3146 -0.7614 -0.4689
 5074SOL    HW126876   3.773   7.742   6.769  0.0831  1.3061 -0.2018
 5074SOL    HW226877   3.775   7.765   6.930 -0.4214 -0.9944  0.1598
 5075SOL     OW26878   8.598   1.482   1.539  0.8206  0.4641 -0.2094
 5075SOL    HW126879   8.580   1.402   1.596 -0.9619  0.4602 -0.7481
 5075SOL    HW226880   8.634   1.453   1.450  2.0822  0.3938  0.3022
 5076SOL     OW26881   2.451   6.197   1.540  0.0755 -0.0968 -0.0177
 5076SOL    HW126882   2.448   6.126   1.470  2.2949  0.5420 -0.7841
 5076SOL    HW226883   2.432   6.286   1.498  0.7267  0.2021  0.3206
 5077SOL     OW26884   6.224   7.698   6.378  0.5702 -0.2770 -0.6305
 5077SOL    HW126885   6.133   7.707   6.338  1.0367 -2.5731 -2.3332
 5077SOL    HW226886   6.256   7.787   6.410 -2.5029  0.4388  0.5482
 5078SOL     OW26887   4.937   2.066   6.153 -0.1829  0.2980  0.3385
 5078SOL    HW126888   4.996   2.026   6.223  0.5026  0.6181 -0.0591
 5078SOL    HW226889   4.846   2.081   6.192 -1.3093 -4.2487 -0.2972
 5079SOL     OW26890   7.395   3.700   5.416  0.4643  0.1616 -0.1318
 5079SOL    HW126891   7.449   3.688   5.332  2.2158  2.1313  0.6450
 5079SOL    HW226892   7.352   3.790   5.415  0.0123 -0.0407  0.8263
 5080SOL     OW26893   0.510   8.835   7.806 -0.0718  0.2287 -0.2233
 5080SOL    HW126894   0.423   8.822   7.854 -1.1108  0.1006 -2.1280
 5080SOL    HW226895   0.518   8.929   7.774  0.5311  0.2594 -0.0081
 5081SOL     OW26896   0.985   1.636   4.183 -0.0976 -0.1326 -0.1232
 5081SOL    HW126897   1.004   1.568   4.112 -0.9426 -2.4648  1.8214
 5081SOL    HW226898   0.891   1.669   4.174  0.7200  1.8290 -1.8800
 5082SOL     OW26899   1.469   2.159   7.056 -0.3559 -0.2749  1.0650
 5082SOL    HW126900   1.542   2.227   7.055 -0.3570 -0.2456 -1.1540
 5082SOL    HW226901   1.506   2.070   7.027 -1.3002 -0.1046 -0.7463
 5083SOL     OW26902   8.426   1.749   7.082 -0.0375  0.0309  0.0510
 5083SOL    HW126903   8.408   1.815   7.009  1.2408  0.8591  0.4625
 5083SOL    HW226904   8.479   1.673   7.045  0.2042  0.2155  0.0175
 5084SOL     OW26905   0.179   0.017   4.425 -0.6688 -0.1685  0.7067
 5084SOL    HW126906   0.199  -0.061   4.366 -1.4970 -0.4626  0.8137
 5084SOL    HW226907   0.213   0.101   4.381  0.9359 -0.6639  0.9548
 5085SOL     OW26908   8.523   5.101   4.223  0.4755  0.3207 -0.8811
 5085SOL    HW126909   8.494   5.109   4.127 -0.2525  0.7314 -0.6310
 5085SOL    HW226910   8.583   5.022   4.233  1.3785  0.8541 -1.8738
 5086SOL     OW26911   3.290   0.833   5.790 -0.1940  0.2832 -0.7619
 5086SOL    HW126912   3.202   0.838   5.744 -0.9883 -0.0789  0.6964
 5086SOL    HW226913   3.300   0.743   5.833  0.2360  0.8812  0.3904
 5087SOL     OW26914   0.339   4.099   1.318 -0.0745  0.1458 -0.0221
 5087SOL    HW126915   0.297   4.171   1.263  0.0901  0.9514  0.9128
 5087SOL    HW226916   0.436   4.094   1.297 -0.5718 -1.6781 -2.1400
 5088SOL     OW26917   7.879   9.043   4.337  0.4412 -0.4511  1.0800
 5088SOL    HW126918   7.911   9.118   4.395  0.7475 -0.0144  0.3527
 5088SOL    HW226919   7.937   9.036   4.256 -1.1678  0.2363 -0.1791
 5089SOL     OW26920   1.193   7.663   0.819 -0.1660 -0.9237  0.3343
 5089SOL    HW126921   1.284   7.639   0.851  0.2031 -1.0620 -0.8043
 5089SOL    HW226922   1.179   7.762   0.828 -0.2665 -1.0301  1.4084
 5090SOL     OW26923   9.631   5.857   2.772 -0.3522  0.6274  0.2675
 5090SOL    HW126924   9.687   5.931   2.734 -0.9420  0.6711 -0.5372
 5090SOL    HW226925   9.540   5.862   2.732 -0.1077 -1.1468 -0.5611
 5091SOL     OW26926   1.139   1.902   3.670 -1.0340 -0.3385  0.1515
 5091SOL    HW126927   1.060   1.892   3.609  0.1939 -1.7775 -1.2323
 5091SOL    HW226928   1.223   1.900   3.616 -0.0377  1.2097  1.6160
 5092SOL     OW26929   0.292   9.211   5.583  0.0937  0.1944 -0.6346
 5092SOL    HW126930   0.291   9.111   5.586 -0.5124  0.2133 -0.1933
 5092SOL    HW226931   0.346   9.246   5.659 -0.3098  0.2150 -0.3522
 5093SOL     OW26932   4.933   2.606   1.587 -0.2158 -0.4023  0.0040
 5093SOL    HW126933   4.884   2.580   1.670 -0.1571  1.1563  0.5575
 5093SOL    HW226934   4.923   2.535   1.518 -1.1364 -1.2463  0.9928
 5094SOL     OW26935   1.152   9.398   5.426 -0.0846  0.1739  0.1456
 5094SOL    HW126936   1.154   9.485   5.377 -0.6378  0.6891  1.0254
 5094SOL    HW226937   1.184   9.411   5.520 -0.6181 -0.4817  0.4278
 5095SOL     OW26938   1.528   1.674   6.146 -0.4671 -0.4827 -0.1994
 5095SOL    HW126939   1.606   1.620   6.115  1.9004  1.3402  2.3762
 5095SOL    HW226940   1.480   1.625   6.218  0.5280 -0.0274  0.7863
 5096SOL     OW26941   7.315   2.129   4.487 -0.2799  0.1991  0.2148
 5096SOL    HW126942   7.390   2.190   4.513  0.6271 -0.6416 -0.3839
 5096SOL    HW226943   7.315   2.117   4.388  0.4201 -1.8655  0.4506
 5097SOL     OW26944   0.833   6.387   5.361 -0.0742  0.2517  0.0450
 5097SOL    HW126945   0.921   6.434   5.365  1.5039 -2.5338 -0.6369
 5097SOL    HW226946   0.772   6.435   5.298  1.5826  1.1592 -0.8900
 5098SOL     OW26947   1.619   9.182   0.051 -0.2631 -0.5482  0.1648
 5098SOL    HW126948   1.588   9.090   0.024 -1.1241 -0.5273  1.0833
 5098SOL    HW226949   1.676   9.175   0.133 -1.7528 -0.0973  1.2628
 5099SOL     OW26950   0.796   8.026   2.914  0.4538  0.2857 -0.0141
 5099SOL    HW126951   0.761   8.045   3.006  0.0507  1.5783 -0.4333
 5099SOL    HW226952   0.895   8.038   2.914  0.2904  1.7048 -0.0916
 5100SOL     OW26953   4.476   3.157   5.864  0.0114 -0.0527  0.2077
 5100SOL    HW126954   4.561   3.173   5.814 -0.4929 -0.0619 -0.6820
 5100SOL    HW226955   4.417   3.098   5.809 -0.7503  0.3297  0.6061
 5101SOL     OW26956   1.916   8.649   7.689  0.2146  0.4690 -0.1239
 5101SOL    HW126957   1.919   8.732   7.633  0.7073  1.9109  1.9990
 5101SOL    HW226958   1.822   8.616   7.694  0.0878  0.5940 -1.3838
 5102SOL     OW26959   9.738   5.213   6.850 -0.1046  0.5649 -0.3257
 5102SOL    HW126960   9.713   5.149   6.923  1.9408 -0.3551 -0.4041
 5102SOL    HW226961   9.733   5.306   6.885 -2.4443  0.3381 -0.0102
 5103SOL     OW26962   0.719   8.074   4.675 -0.4218  0.1776  0.4737
 5103SOL    HW126963   0.621   8.084   4.695 -0.7263 -0.7872 -0.4905
 5103SOL    HW226964   0.751   7.987   4.711 -0.3038 -0.2494 -0.6585
 5104SOL     OW26965   2.695   9.126   1.094 -0.2270  0.2705  0.4450
 5104SOL    HW126966   2.795   9.132   1.106 -0.0975  0.1440 -0.5493
 5104SOL    HW226967   2.674   9.054   1.027 -0.9335  0.9983 -0.1136
 5105SOL     OW26968   9.348   2.630   1.820 -0.1624 -0.1779 -0.3225
 5105SOL    HW126969   9.302   2.679   1.745  0.2532  0.0263 -0.4424
 5105SOL    HW226970   9.373   2.695   1.892 -0.4012 -0.3483 -0.0811
 5106SOL     OW26971   3.085   6.189   0.833 -0.2301 -0.8563  0.6169
 5106SOL    HW126972   3.013   6.147   0.889  0.8290  1.7405  4.0634
 5106SOL    HW226973   3.065   6.286   0.820  1.3609 -0.6772 -0.5829
 5107SOL     OW26974   8.561   3.824   2.486 -0.6883 -0.7433  0.3501
 5107SOL    HW126975   8.648   3.811   2.533 -0.7861  0.0604  0.7539
 5107SOL    HW226976   8.487   3.823   2.552 -1.0024 -1.4798  0.0005
 5108SOL     OW26977   9.001   7.332   3.268  0.0461  0.0296  0.2509
 5108SOL    HW126978   9.100   7.322   3.272 -0.0215 -0.3019  1.2685
 5108SOL    HW226979   8.976   7.429   3.272  0.2214 -0.0159  2.8111
 5109SOL     OW26980   7.798   7.189   7.615 -0.5497  0.5370 -0.2740
 5109SOL    HW126981   7.801   7.286   7.590  0.7156  0.7813  0.8298
 5109SOL    HW226982   7.886   7.146   7.595 -1.7916 -0.9608 -2.9260
 5110SOL     OW26983   0.042   0.210   5.807 -0.2010  0.2615  0.6574
 5110SOL    HW126984  -0.011   0.174   5.884 -1.3619  2.6002  0.9977
 5110SOL    HW226985   0.133   0.169   5.807 -1.0587 -1.7213  1.7205
 5111SOL     OW26986   8.980   2.974   1.979  0.0463 -0.2533  0.6683
 5111SOL    HW126987   8.950   2.895   1.925 -2.2248  1.0128  0.0090
 5111SOL    HW226988   8.910   3.045   1.975  1.6572  1.4455  2.0072
 5112SOL     OW26989   2.315   1.088   3.317 -0.5245 -0.0915  0.3936
 5112SOL    HW126990   2.381   1.102   3.243 -1.5912 -3.4155 -1.3165
 5112SOL    HW226991   2.357   1.112   3.404  1.8319  0.9259 -0.9653
 5113SOL     OW26992   3.295   0.842   3.508  0.5663  0.2386  0.0633
 5113SOL    HW126993   3.362   0.917   3.500  1.3222 -0.2095  2.0715
 5113SOL    HW226994   3.323   0.780   3.580 -0.4345 -1.6399 -1.1312
 5114SOL     OW26995   2.459   5.963   5.667  0.8755  0.1180  0.2568
 5114SOL    HW126996   2.383   6.028   5.666 -0.5914 -1.5428 -1.2862
 5114SOL    HW226997   2.508   5.971   5.753  1.6874  4.2761 -0.4701
 5115SOL     OW26998   3.347   2.619   6.890  0.2072  0.0602 -0.6421
 5115SOL    HW126999   3.302   2.592   6.976  0.1340  0.5350 -0.5303
 5115SOL    HW227000   3.277   2.648   6.824  0.3518  0.8542 -0.4493
 5116SOL     OW27001   2.012   7.325   2.918 -0.4428  0.0512 -0.5410
 5116SOL    HW127002   2.046   7.237   2.952  0.8322  0.2192 -1.3403
 5116SOL    HW227003   1.970   7.312   2.828 -0.6057  0.1986 -0.4867
 5117SOL     OW27004   2.471   7.557   1.040  0.5531  0.1134 -0.8309
 5117SOL    HW127005   2.420   7.629   0.993 -1.3129  0.8842  2.2058
 5117SOL    HW227006   2.565   7.586   1.055  0.6719  0.5958 -2.4101
 5118SOL     OW27007   3.702   3.018   4.499  0.0256  0.5344  0.4341
 5118SOL    HW127008   3.792   3.045   4.532 -0.5733  1.4242  1.3726
 5118SOL    HW227009   3.693   2.919   4.503  1.9027  0.2344 -2.1366
 5119SOL     OW27010   8.298   2.655   0.092 -0.3560  0.4699 -0.1535
 5119SOL    HW127011   8.389   2.625   0.119 -0.2499  0.1254 -0.9058
 5119SOL    HW227012   8.229   2.598   0.138 -0.1639 -0.5465 -1.1051
 5120SOL     OW27013   4.891   1.815   6.013 -0.5046 -0.1794  0.9759
 5120SOL    HW127014   4.920   1.891   6.072 -0.5404  0.1320  0.5910
 5120SOL    HW227015   4.844   1.746   6.069 -0.0061 -0.1684  1.4164
 5121SOL     OW27016   5.432   5.194   0.520 -0.0443 -0.2465  1.0327
 5121SOL    HW127017   5.374   5.190   0.439 -0.2426  1.0686  1.0964
 5121SOL    HW227018   5.518   5.240   0.497 -0.7998  1.6780  1.9592
 5122SOL     OW27019   7.392   7.145   4.851 -0.1409 -0.1967  0.7558
 5122SOL    HW127020   7.469   7.089   4.883  0.1280 -1.0622 -1.3226
 5122SOL    HW227021   7.426   7.228   4.808 -0.5412  1.6321  3.7601
 5123SOL     OW27022   2.761   2.212   5.935  0.1617 -0.4105 -0.0419
 5123SOL    HW127023   2.813   2.294   5.912 -1.7796  0.5408 -1.2375
 5123SOL    HW227024   2.718   2.176   5.852  0.5502 -2.3132  0.5774
 5124SOL     OW27025   6.909   2.345   2.415  0.4917  0.2545 -0.1978
 5124SOL    HW127026   6.917   2.276   2.488 -1.2157 -0.1248 -0.3654
 5124SOL    HW227027   6.959   2.313   2.334 -0.1062 -0.6873 -0.2016
 5125SOL     OW27028   1.144   6.779   7.708 -0.7219 -0.0321 -0.2533
 5125SOL    HW127029   1.218   6.843   7.730 -1.2401  0.2048  0.8394
 5125SOL    HW227030   1.060   6.808   7.754 -1.4375 -0.4519 -1.2684
 5126SOL     OW27031   4.478   1.539   6.166  0.1564  0.3199 -0.3572
 5126SOL    HW127032   4.479   1.465   6.099  1.3082  0.8812 -0.9600
 5126SOL    HW227033   4.404   1.602   6.144  0.0410  0.0861 -0.6453
 5127SOL     OW27034   0.925   9.924   3.309 -0.5098 -0.4418 -0.3359
 5127SOL    HW127035   0.907   9.936   3.406  0.3766 -0.7472 -0.1299
 5127SOL    HW227036   0.995   9.990   3.279 -1.5078  0.3452 -0.9977
 5128SOL     OW27037   1.080   0.125   3.216 -0.2431  0.1505 -0.5067
 5128SOL    HW127038   1.093   0.137   3.118 -1.9068  0.0342 -0.7541
 5128SOL    HW227039   1.149   0.176   3.266 -0.4264  1.5949 -1.7220
 5129SOL     OW27040   2.667   6.538   2.980  0.3035 -0.0628  0.6616
 5129SOL    HW127041   2.647   6.606   3.050 -0.3200 -0.1880  0.6048
 5129SOL    HW227042   2.692   6.451   3.023 -1.3099 -0.5046  0.7374
 5130SOL     OW27043   2.530   7.966   5.299  0.1886 -0.0287  0.1260
 5130SOL    HW127044   2.509   7.962   5.202  1.1144 -1.5586 -0.0148
 5130SOL    HW227045   2.616   8.015   5.313 -0.9013  1.8762  0.3360
 5131SOL     OW27046   5.815   8.901   3.442 -0.2661 -0.1572 -0.2798
 5131SOL    HW127047   5.737   8.841   3.423 -0.5069 -0.5007  1.7349
 5131SOL    HW227048   5.899   8.859   3.405 -0.4769 -1.6032  0.8262
 5132SOL     OW27049   1.187   2.635   1.577  0.5277  0.3045  0.4280
 5132SOL    HW127050   1.126   2.569   1.534  1.7760 -1.0155  0.6337
 5132SOL    HW227051   1.232   2.689   1.507  0.5205 -0.0017  0.1856
 5133SOL     OW27052   4.668   8.548   1.016 -0.1273  0.2909  0.2850
 5133SOL    HW127053   4.603   8.609   0.970  0.0477 -0.1006 -0.5041
 5133SOL    HW227054   4.620   8.466   1.047 -0.3339  0.7635  1.2155
 5134SOL     OW27055   5.305   1.407   7.331 -0.1301 -0.2843 -0.3089
 5134SOL    HW127056   5.283   1.316   7.364 -0.4395 -0.5951 -1.3627
 5134SOL    HW227057   5.367   1.400   7.253 -1.6160  0.3302 -1.5534
 5135SOL     OW27058   1.901   5.723   7.280 -0.3981 -0.1058  0.2073
 5135SOL    HW127059   1.956   5.788   7.334  0.7609 -1.3989  0.6068
 5135SOL    HW227060   1.962   5.663   7.228 -1.4794 -0.4426 -0.7010
 5136SOL     OW27061   0.089   0.088   7.835 -0.3796 -0.2017 -0.0029
 5136SOL    HW127062   0.089  -0.004   7.797 -2.1922 -0.2212  0.0136
 5136SOL    HW227063   0.078   0.155   7.762 -3.4687 -0.2226  0.3524
 5137SOL     OW27064   9.978   0.150   1.845  0.7027  0.0021  0.1005
 5137SOL    HW127065   9.880   0.164   1.856  0.4585 -1.1829 -0.4928
 5137SOL    HW227066  10.013   0.209   1.773  0.0212 -1.1197 -1.1591
 5138SOL     OW27067   6.387   1.120   5.636  0.2183  0.0162  0.3014
 5138SOL    HW127068   6.470   1.088   5.680  2.0006  0.4540 -2.6229
 5138SOL    HW227069   6.368   1.063   5.556 -0.3347  2.1104 -1.0840
 5139SOL     OW27070   3.548   0.344   7.259 -0.2161  0.0632 -0.1556
 5139SOL    HW127071   3.516   0.438   7.264  0.9265  0.4371  0.3140
 5139SOL    HW227072   3.527   0.306   7.169  0.1454  1.0732 -0.6682
 5140SOL     OW27073   9.967   0.837   7.638  0.0107 -0.2408 -0.3976
 5140SOL    HW127074  10.013   0.918   7.603  0.8084  0.2437  1.6992
 5140SOL    HW227075  10.004   0.813   7.728 -0.8899 -2.3570 -0.5400
 5141SOL     OW27076   2.095   1.811   0.475 -0.1554 -0.1034 -0.1730
 5141SOL    HW127077   2.099   1.750   0.554 -0.0680 -0.6054 -0.5628
 5141SOL    HW227078   2.006   1.857   0.472 -1.3210 -2.3577 -1.4651
 5142SOL     OW27079   8.930   8.448   0.017 -0.2132  0.3387 -0.2394
 5142SOL    HW127080   8.942   8.530  -0.040  0.5258 -1.0198 -2.0845
 5142SOL    HW227081   9.001   8.381  -0.006 -1.9377 -1.5750 -0.0914
 5143SOL     OW27082   0.569   0.492   5.551  0.0368 -0.5494  0.2422
 5143SOL    HW127083   0.531   0.420   5.492  0.9843  0.8992 -2.2145
 5143SOL    HW227084   0.525   0.579   5.530  1.4963  0.2834  0.5270
 5144SOL     OW27085   4.471   3.918   2.365 -0.0591  0.1609 -0.5849
 5144SOL    HW127086   4.476   4.003   2.416  1.4045 -0.4551  0.3021
 5144SOL    HW227087   4.457   3.938   2.268  0.9249  1.4131 -0.4678
 5145SOL     OW27088   9.350   5.578   6.091  0.3183 -0.4174  0.2858
 5145SOL    HW127089   9.261   5.558   6.050  0.0372  0.6806  0.3534
 5145SOL    HW227090   9.396   5.649   6.038  2.1524 -2.5412 -1.0773
 5146SOL     OW27091   9.802   4.062   4.564  0.0690  0.0603 -0.5472
 5146SOL    HW127092   9.871   4.120   4.522 -1.1820  1.4848 -0.6372
 5146SOL    HW227093   9.788   3.981   4.507  0.0349  0.8541 -1.6785
 5147SOL     OW27094   3.552   6.613   3.006 -0.0426 -0.2933  0.1611
 5147SOL    HW127095   3.518   6.676   3.076 -0.3134 -1.1083  0.7729
 5147SOL    HW227096   3.531   6.519   3.033 -1.1616 -0.5593 -1.5468
 5148SOL     OW27097   2.283   4.779   5.022 -0.6811 -0.6821  0.1232
 5148SOL    HW127098   2.359   4.834   4.987 -1.3053  2.4724  3.4548
 5148SOL    HW227099   2.311   4.683   5.026  2.4027  0.1345 -0.7152
 5149SOL     OW27100   3.024   9.722   0.168  0.1435 -0.0711  0.5248
 5149SOL    HW127101   3.019   9.660   0.089 -2.2644  0.2012  0.4204
 5149SOL    HW227102   3.004   9.670   0.251  0.0937  0.1688  0.6620
 5150SOL     OW27103   7.290   7.275   6.274  0.2455 -0.6684  0.1186
 5150SOL    HW127104   7.293   7.175   6.276  3.2145 -0.6525 -0.8884
 5150SOL    HW227105   7.358   7.311   6.338 -1.4304  0.7348  1.1418
 5151SOL     OW27106   1.224   0.455   2.817 -0.5109  0.3511 -0.1010
 5151SOL    HW127107   1.151   0.523   2.826 -2.2370 -1.5390  0.5461
 5151SOL    HW227108   1.250   0.447   2.721 -0.0393  2.1514 -0.1448
 5152SOL     OW27109   2.493   1.245   5.556 -0.2670  0.5794  0.0185
 5152SOL    HW127110   2.425   1.174   5.573 -1.4418  1.8148  0.5906
 5152SOL    HW227111   2.483   1.318   5.624  1.4431  0.9103 -0.0673
 5153SOL     OW27112   0.638   5.166   4.891  0.0057  0.1669  0.4961
 5153SOL    HW127113   0.606   5.211   4.807 -0.6266  0.7994  1.0779
 5153SOL    HW227114   0.728   5.203   4.916 -0.9859  1.9130  1.5744
 5154SOL     OW27115   3.715   4.723   7.829  0.0528  0.3639 -0.0926
 5154SOL    HW127116   3.745   4.630   7.849  4.6714  1.9575  1.1178
 5154SOL    HW227117   3.656   4.756   7.903 -0.5295 -1.1002  0.1117
 5155SOL     OW27118   4.611   6.919   0.664 -0.2092  0.0942  0.2782
 5155SOL    HW127119   4.516   6.943   0.641 -0.0381  0.8854  0.3858
 5155SOL    HW227120   4.668   6.923   0.582 -0.5550 -1.8569 -0.0827
 5156SOL     OW27121   5.219   0.763   5.750 -0.5076 -0.2094 -0.4128
 5156SOL    HW127122   5.297   0.771   5.689 -1.2826  1.6482 -1.2285
 5156SOL    HW227123   5.156   0.840   5.733 -1.5547 -0.5985  1.5483
 5157SOL     OW27124   2.208   9.206   5.634  0.0299 -0.0205  0.0762
 5157SOL    HW127125   2.150   9.227   5.555  1.0735  0.1215 -0.6708
 5157SOL    HW227126   2.199   9.109   5.657  1.2555 -0.5299 -1.5091
 5158SOL     OW27127   8.329   3.007   5.277 -0.0562  0.1689  0.0417
 5158SOL    HW127128   8.327   2.926   5.218  0.4926  1.4036 -1.7017
 5158SOL    HW227129   8.363   2.981   5.368  1.2177 -1.3566 -0.8414
 5159SOL     OW27130   2.779   3.463   3.799 -0.2240  0.0777 -0.0027
 5159SOL    HW127131   2.781   3.410   3.715 -2.4652 -0.6300  0.3383
 5159SOL    HW227132   2.683   3.478   3.826  0.4499 -0.9979  3.2159
 5160SOL     OW27133   6.566   9.107   2.034  0.1472  0.5765 -0.1334
 5160SOL    HW127134   6.625   9.033   2.003 -0.1861  0.5733 -0.7835
 5160SOL    HW227135   6.505   9.133   1.959 -0.3960  0.8498  0.4072
 5161SOL     OW27136   8.535   6.553   2.009  0.2268 -0.6676 -0.3035
 5161SOL    HW127137   8.593   6.539   2.089 -0.3984 -1.4681  0.0125
 5161SOL    HW227138   8.444   6.582   2.038  0.5504  0.8952 -0.8099
 5162SOL     OW27139   3.833   0.231   4.739 -0.4049  0.1623 -0.1382
 5162SOL    HW127140   3.836   0.241   4.838 -3.1705  1.1589 -0.1171
 5162SOL    HW227141   3.797   0.140   4.716 -0.7062  0.3015 -0.2191
 5163SOL     OW27142   0.014   3.097   1.111 -0.0719 -0.6817  0.2978
 5163SOL    HW127143  -0.083   3.118   1.119  0.0826 -0.1526  0.9442
 5163SOL    HW227144   0.065   3.183   1.100  0.3786 -0.8993  0.6736
 5164SOL     OW27145   1.573   6.094   0.029  0.5367  0.7631 -0.3978
 5164SOL    HW127146   1.552   6.163  -0.040 -2.4133  1.5485  1.1679
 5164SOL    HW227147   1.590   6.006  -0.015 -2.0292  1.0704 -2.1162
 5165SOL     OW27148   0.559   5.989   2.939 -0.9161 -0.0945 -0.4152
 5165SOL    HW127149   0.470   6.031   2.954 -2.2972 -3.6635  2.1310
 5165SOL    HW227150   0.552   5.921   2.865 -0.8784 -1.7977  1.1057
 5166SOL     OW27151   8.978   6.077   0.553 -0.0790  0.1890  0.8494
 5166SOL    HW127152   9.002   6.052   0.647 -0.9419 -1.2942  0.6770
 5166SOL    HW227153   8.906   6.147   0.555  1.3845  1.7235  1.3039
 5167SOL     OW27154   0.667   8.324   5.399  0.6771 -0.3953 -0.3265
 5167SOL    HW127155   0.603   8.266   5.349 -0.0150  1.3333 -1.5000
 5167SOL    HW227156   0.619   8.404   5.435  1.7235 -0.2294  0.7288
 5168SOL     OW27157   5.852   1.573   4.302  0.1364 -0.1467 -0.4527
 5168SOL    HW127158   5.940   1.526   4.298  0.7975  1.0678 -0.7012
 5168SOL    HW227159   5.850   1.632   4.383 -0.2986  0.1036 -0.6425
 5169SOL     OW27160   1.959   8.233   4.181 -0.1235 -0.3032 -0.2349
 5169SOL    HW127161   1.860   8.218   4.175  0.1113 -1.4295 -1.9722
 5169SOL    HW227162   1.991   8.277   4.097  0.9697 -0.8047 -0.0935
 5170SOL     OW27163   2.313   5.406   5.743  0.2035  0.2639 -0.2042
 5170SOL    HW127164   2.338   5.503   5.738  0.8193  0.2146  1.4583
 5170SOL    HW227165   2.394   5.350   5.728  0.0984  0.0282  0.1010
 5171SOL     OW27166   9.869   1.817   0.214 -0.2704  0.0300 -0.0937
 5171SOL    HW127167   9.823   1.728   0.209 -1.2141  0.4333  1.1296
 5171SOL    HW227168   9.952   1.809   0.269  2.1130 -1.0746 -3.6389
 5172SOL     OW27169   0.324   0.272   4.346 -0.1397  0.0749 -0.2314
 5172SOL    HW127170   0.300   0.359   4.303  0.7861  0.0855 -0.7317
 5172SOL    HW227171   0.421   0.272   4.368 -0.0654 -0.9697 -0.5602
 5173SOL     OW27172   7.795   3.839   7.125 -0.4062  0.6029 -0.3893
 5173SOL    HW127173   7.737   3.873   7.051 -0.8869  0.5292 -0.0498
 5173SOL    HW227174   7.741   3.782   7.187  0.1895 -0.0260 -0.4469
 5174SOL     OW27175   1.065   5.331   1.498 -0.3127  0.0066 -0.3978
 5174SOL    HW127176   1.048   5.270   1.420  0.6257  1.0984 -1.4880
 5174SOL    HW227177   1.003   5.409   1.494  0.5260  0.6613 -0.7152
 5175SOL     OW27178   6.737   9.003   2.407  0.2350  0.0096 -0.2457
 5175SOL    HW127179   6.703   8.929   2.349 -0.9859 -0.6343  1.2797
 5175SOL    HW227180   6.677   9.083   2.398 -0.6290 -0.4949  1.0333
 5176SOL     OW27181   1.508   5.226   1.860 -0.8311 -0.5862 -0.1008
 5176SOL    HW127182   1.533   5.185   1.948 -1.7761 -1.7642 -0.3635
 5176SOL    HW227183   1.578   5.292   1.833  1.1795 -2.6216 -0.0558
 5177SOL     OW27184   0.518   6.603   3.412  0.3271 -1.0167  0.2940
 5177SOL    HW127185   0.590   6.547   3.373  2.5088  1.4746  0.5993
 5177SOL    HW227186   0.480   6.662   3.341  0.6500 -0.2376  0.7572
 5178SOL     OW27187   6.338   5.871   1.783  0.4051 -0.4434  0.4421
 5178SOL    HW127188   6.323   5.964   1.750 -0.6811 -0.4302  0.9700
 5178SOL    HW227189   6.278   5.808   1.735  0.5024 -0.7526  0.7234
 5179SOL     OW27190   3.088   7.311   7.859 -0.2556 -0.4057 -0.0939
 5179SOL    HW127191   3.159   7.352   7.917 -1.6115  0.7331  0.8263
 5179SOL    HW227192   3.064   7.375   7.786 -0.0103 -0.9796 -0.6806
 5180SOL     OW27193   4.521   2.244   4.496 -0.5460 -0.1738  0.5809
 5180SOL    HW127194   4.487   2.157   4.460 -1.5375  0.0205  1.0310
 5180SOL    HW227195   4.591   2.281   4.434 -0.2220 -1.2130  0.3167
 5181SOL     OW27196   4.250   5.338   6.517 -0.0162 -1.1246  0.2547
 5181SOL    HW127197   4.266   5.343   6.616  2.2689  0.8253 -0.1660
 5181SOL    HW227198   4.156   5.365   6.497 -0.1704 -0.4397  1.8140
 5182SOL     OW27199   7.971   5.150   4.316 -0.1575  0.4439  0.0384
 5182SOL    HW127200   7.981   5.250   4.311  1.2310  0.2611 -1.4463
 5182SOL    HW227201   7.877   5.127   4.340 -0.7367  2.0966 -0.5286
 5183SOL     OW27202   0.624   7.214   2.802  0.1013 -0.0820 -0.0804
 5183SOL    HW127203   0.625   7.114   2.795 -1.2544 -0.0495 -0.8141
 5183SOL    HW227204   0.647   7.253   2.713 -0.2000  0.2717 -0.0009
 5184SOL     OW27205   9.256   5.653   2.312 -0.3189  0.4003  0.3084
 5184SOL    HW127206   9.250   5.744   2.354  0.9774 -0.1227  1.6709
 5184SOL    HW227207   9.232   5.583   2.379  1.8437 -0.4596  0.2190
 5185SOL     OW27208   7.400   8.643   4.620 -0.6433 -0.1398 -0.0550
 5185SOL    HW127209   7.406   8.737   4.587 -0.5599  0.3702  1.4011
 5185SOL    HW227210   7.309   8.627   4.660  0.9997  0.9030  4.3664
 5186SOL     OW27211   4.986   8.095   4.504 -0.4238  0.2078 -0.7032
 5186SOL    HW127212   4.980   8.085   4.405 -1.9796  0.6981 -0.6647
 5186SOL    HW227213   5.041   8.020   4.541 -0.2008 -0.2245 -1.8822
 5187SOL     OW27214   7.913   3.842   1.325 -0.0134 -0.2801  0.1552
 5187SOL    HW127215   7.849   3.799   1.261 -1.1226 -1.0612  1.7406
 5187SOL    HW227216   7.944   3.774   1.391  0.7513  0.6212  0.7370
 5188SOL     OW27217   1.120   2.104   4.814  0.1307  0.0458  0.2170
 5188SOL    HW127218   1.060   2.150   4.879 -0.2690  0.5501 -0.4986
 5188SOL    HW227219   1.179   2.171   4.769  0.3676 -0.2887  0.0258
 5189SOL     OW27220   8.852   7.884   1.905  0.5259  0.3111  0.3780
 5189SOL    HW127221   8.787   7.876   1.980  0.4499 -0.5918  0.2129
 5189SOL    HW227222   8.930   7.939   1.935  1.6809 -2.0902  1.9546
 5190SOL     OW27223   1.550   9.379   4.363  0.4905  0.2133 -0.1527
 5190SOL    HW127224   1.549   9.298   4.422 -1.2839 -0.0637 -0.5262
 5190SOL    HW227225   1.634   9.381   4.310  2.0134  0.3216  2.1669
 5191SOL     OW27226   3.294   7.809   6.140  0.0347 -0.1457 -0.3778
 5191SOL    HW127227   3.335   7.772   6.223 -0.1768 -0.8465 -0.5805
 5191SOL    HW227228   3.265   7.903   6.156  2.8877  0.8317 -0.5937
 5192SOL     OW27229   2.485   9.876   7.634  0.6135  0.5634 -0.3771
 5192SOL    HW127230   2.583   9.888   7.620  0.4172  1.9379 -0.6825
 5192SOL    HW227231   2.435   9.922   7.560 -0.2683  0.5275  0.1884
 5193SOL     OW27232   8.076   5.448   7.885  0.0618  0.1623 -0.5480
 5193SOL    HW127233   8.081   5.444   7.785 -1.6824  0.1060 -0.6581
 5193SOL    HW227234   8.139   5.381   7.924  2.0618  1.4251 -1.5592
 5194SOL     OW27235   7.947   8.322   5.665  0.9702 -0.1107 -0.4795
 5194SOL    HW127236   7.899   8.401   5.705  0.3372 -0.2239 -1.0006
 5194SOL    HW227237   8.022   8.355   5.607  0.6546  0.1158 -0.7636
 5195SOL     OW27238   2.575   6.458   5.399 -0.1120  0.2176  0.2219
 5195SOL    HW127239   2.617   6.508   5.323  0.0034  0.9357  0.7505
 5195SOL    HW227240   2.541   6.370   5.366  1.1156 -0.0483 -0.3778
 5196SOL     OW27241   0.372   8.544   2.777  0.3513  0.6811  0.1461
 5196SOL    HW127242   0.326   8.633   2.773 -1.8730 -0.4716 -0.7734
 5196SOL    HW227243   0.398   8.524   2.871  1.2848  2.4838  0.3047
 5197SOL     OW27244   2.575   2.721   4.272  0.4179 -0.5431  0.0144
 5197SOL    HW127245   2.612   2.809   4.301  0.5925 -1.0933  1.5213
 5197SOL    HW227246   2.591   2.653   4.344 -2.3181 -1.1126  0.1191
 5198SOL     OW27247   9.568   7.072   3.622  0.2396  0.0676  0.4341
 5198SOL    HW127248   9.551   7.005   3.550 -1.9581 -0.6199  1.5325
 5198SOL    HW227249   9.533   7.037   3.709  1.4060  1.5535  1.5309
 5199SOL     OW27250   9.142   0.698   3.826  0.7536 -0.0761 -0.0631
 5199SOL    HW127251   9.216   0.759   3.798 -0.2869  2.0639  1.6996
 5199SOL    HW227252   9.154   0.673   3.922 -0.0741 -0.8084 -0.1431
 5200SOL     OW27253   7.825   0.646   6.271  0.2078  0.5351 -0.3236
 5200SOL    HW127254   7.800   0.628   6.366 -0.3708  1.0750 -0.3737
 5200SOL    HW227255   7.742   0.652   6.215  0.5318  0.5018 -0.8140
 5201SOL     OW27256   9.701   9.201   3.452  0.1183  0.2369 -0.2171
 5201SOL    HW127257   9.706   9.122   3.391 -1.4474  0.2781 -0.4372
 5201SOL    HW227258   9.747   9.180   3.539 -1.5678 -1.4840  0.3024
 5202SOL     OW27259   8.489   5.989   1.587  0.2838 -0.1724  0.3106
 5202SOL    HW127260   8.533   5.923   1.648 -0.5522 -0.8241  0.2090
 5202SOL    HW227261   8.526   5.977   1.494  2.4006  1.5936  0.8890
 5203SOL     OW27262   0.932   2.591   3.958  0.6363  0.7786 -0.2803
 5203SOL    HW127263   0.873   2.608   3.879  1.8809  2.3824 -0.8753
 5203SOL    HW227264   0.979   2.675   3.984  3.1385 -0.5864 -0.2047
 5204SOL     OW27265   0.891   3.958   4.137  0.3145 -0.0762 -0.6729
 5204SOL    HW127266   0.883   3.969   4.038  1.6100  0.5097 -0.7147
 5204SOL    HW227267   0.968   4.011   4.171 -0.5883  0.3470  0.7743
 5205SOL     OW27268   9.908   9.901   2.613 -0.3165 -0.1148 -0.4348
 5205SOL    HW127269   9.966   9.910   2.532  0.7384  1.6814  0.4911
 5205SOL    HW227270   9.838   9.971   2.612 -0.3891 -0.1782  0.1376
 5206SOL     OW27271   6.137   3.708   0.937 -0.1922  0.1751 -0.2718
 5206SOL    HW127272   6.114   3.613   0.917  0.5595 -0.2416  0.8084
 5206SOL    HW227273   6.235   3.723   0.922 -0.2208  0.6640  0.0017
 5207SOL     OW27274   7.692   3.603   5.015 -0.1312  0.0758 -0.5064
 5207SOL    HW127275   7.755   3.527   4.999 -0.8636 -0.4597 -0.8520
 5207SOL    HW227276   7.743   3.682   5.048  0.3883 -1.1323  1.6507
 5208SOL     OW27277   5.203   5.810   0.453  0.0434  0.5061  0.2414
 5208SOL    HW127278   5.167   5.732   0.505  2.3262 -0.1905  0.8045
 5208SOL    HW227279   5.188   5.794   0.355  0.4269 -0.5932  0.3575
 5209SOL     OW27280   4.725   8.864   4.456 -0.1274  0.3529  0.3025
 5209SOL    HW127281   4.819   8.892   4.477 -0.2491 -0.0689  1.4548
 5209SOL    HW227282   4.662   8.927   4.501 -0.4067  0.9954 -0.9640
 5210SOL     OW27283   1.089   7.925   0.857 -0.6184 -0.1433  0.3003
 5210SOL    HW127284   1.143   7.925   0.941 -2.1114 -0.1072  1.2762
 5210SOL    HW227285   0.992   7.928   0.880 -1.0946 -1.5802 -1.3990
 5211SOL     OW27286   3.665   2.454   3.552  0.7116 -0.2099 -0.6510
 5211SOL    HW127287   3.644   2.360   3.577 -0.4754  1.2098  4.2438
 5211SOL    HW227288   3.761   2.473   3.574  0.8499 -0.1329 -1.2992
 5212SOL     OW27289   0.434   9.528   1.381  0.1965 -0.0823 -0.0279
 5212SOL    HW127290   0.338   9.554   1.392  0.6743  1.1999  1.2075
 5212SOL    HW227291   0.453   9.447   1.437 -0.3152 -0.7348 -0.7866
 5213SOL     OW27292   8.927   0.263   7.818  0.0881 -0.2063 -0.8101
 5213SOL    HW127293   8.906   0.331   7.748 -2.1516 -0.8453 -0.7980
 5213SOL    HW227294   8.958   0.178   7.775  1.8864  0.4526 -0.8650
 5214SOL     OW27295   2.405   2.712   1.627 -0.7387  1.1473  0.3840
 5214SOL    HW127296   2.486   2.654   1.639 -0.8755  1.1560  1.4379
 5214SOL    HW227297   2.405   2.783   1.697 -2.3010  0.3907  1.1727
 5215SOL     OW27298   2.675   9.607   7.353 -0.1483  0.1918  0.1062
 5215SOL    HW127299   2.695   9.682   7.290 -2.1359  0.9429  0.3500
 5215SOL    HW227300   2.732   9.528   7.329  1.9252  1.7224 -0.1833
 5216SOL     OW27301   7.418   3.259   4.933 -0.4174  0.2664 -0.0136
 5216SOL    HW127302   7.446   3.355   4.940  1.0305 -0.1602  0.1849
 5216SOL    HW227303   7.402   3.223   5.025 -1.9629  0.5921 -0.1385
 5217SOL     OW27304   1.191   5.470   5.018 -0.2001  0.2159  0.9738
 5217SOL    HW127305   1.184   5.531   4.939  0.3344  1.2097  1.6817
 5217SOL    HW227306   1.273   5.413   5.008  0.0119  0.5239  0.9352
 5218SOL     OW27307   8.346   1.737   2.242 -0.0634 -0.0297  0.5349
 5218SOL    HW127308   8.325   1.814   2.302  1.6227  0.2848  0.7734
 5218SOL    HW227309   8.262   1.702   2.200 -1.3256 -0.4918  3.3540
 5219SOL     OW27310   7.750   1.208   3.812 -0.2733 -0.0278 -0.3311
 5219SOL    HW127311   7.729   1.305   3.820  1.6091  0.4085 -0.5222
 5219SOL    HW227312   7.699   1.157   3.882 -0.4495  1.2264  0.4664
 5220SOL     OW27313   4.184   2.332   3.379  0.3200 -0.2065  0.2002
 5220SOL    HW127314   4.183   2.346   3.478 -0.8484 -0.2252  0.2053
 5220SOL    HW227315   4.278   2.327   3.346  0.7546  2.4173  0.9449
 5221SOL     OW27316   8.212   5.845   6.481 -1.0935 -0.1048 -0.7372
 5221SOL    HW127317   8.165   5.857   6.393  0.7220  0.3659 -1.6660
 5221SOL    HW227318   8.263   5.928   6.503 -1.1196 -0.4110  0.5282
 5222SOL     OW27319   4.642   0.826   2.535  0.2683 -0.3024  0.1462
 5222SOL    HW127320   4.626   0.882   2.617  1.5289  0.3115 -0.0066
 5222SOL    HW227321   4.716   0.867   2.481 -0.9340 -0.3771 -1.5975
 5223SOL     OW27322   3.740   5.062   1.162 -0.1176 -0.3630 -0.3294
 5223SOL    HW127323   3.777   5.133   1.221  0.8607 -0.2583 -1.0623
 5223SOL    HW227324   3.729   5.098   1.069 -0.6114 -0.8505 -0.4659
 5224SOL     OW27325   3.587   3.885   4.260  0.0157 -0.1975 -0.1917
 5224SOL    HW127326   3.559   3.821   4.189  0.6629  0.2189 -0.8284
 5224SOL    HW227327   3.599   3.836   4.346 -1.7456 -0.5327 -0.1199
 5225SOL     OW27328   0.009   8.430   3.151  0.0311  0.4728  0.2260
 5225SOL    HW127329   0.052   8.517   3.176  1.2643 -0.0742  0.0720
 5225SOL    HW227330   0.056   8.392   3.071 -0.2119 -0.5506  0.5616
 5226SOL     OW27331   8.940   0.965   7.744 -0.4805  0.1873 -0.3517
 5226SOL    HW127332   8.903   0.969   7.837 -1.1628  1.1975 -0.6496
 5226SOL    HW227333   8.970   0.872   7.724  1.7872  0.4131  1.6790
 5227SOL     OW27334   0.498   9.897   0.125 -0.3164 -0.1738  0.3952
 5227SOL    HW127335   0.527   9.907   0.220 -0.5176 -0.0266  0.4425
 5227SOL    HW227336   0.569   9.849   0.073  0.0343  0.2359  0.4923
 5228SOL     OW27337   8.506   6.542   1.530  0.0059 -0.2037  0.3623
 5228SOL    HW127338   8.542   6.508   1.617  1.2108 -0.8036 -0.3515
 5228SOL    HW227339   8.581   6.551   1.464 -0.5665  2.1120 -0.0346
 5229SOL     OW27340   4.142   0.378   0.118 -0.5166  0.5075  0.0675
 5229SOL    HW127341   4.108   0.402   0.209 -2.0503  1.4624 -0.7357
 5229SOL    HW227342   4.221   0.436   0.096 -0.2151  0.3544  0.7385
 5230SOL     OW27343   4.737   1.035   1.358  0.1640 -0.3618  0.0158
 5230SOL    HW127344   4.811   0.967   1.361  0.0304 -0.6242 -2.0705
 5230SOL    HW227345   4.738   1.088   1.443  2.8148 -0.3093  0.0094
 5231SOL     OW27346   9.735   0.598   3.628 -0.0469  0.4844 -0.1015
 5231SOL    HW127347   9.676   0.570   3.704  0.0038  0.0323 -0.2308
 5231SOL    HW227348   9.746   0.522   3.564 -1.1542  1.2651 -1.2420
 5232SOL     OW27349   0.497   0.613   3.951 -0.3452 -0.5450  0.7448
 5232SOL    HW127350   0.433   0.609   3.874 -0.9487  0.8392  1.1518
 5232SOL    HW227351   0.565   0.685   3.934  0.3734 -1.1912  0.8649
 5233SOL     OW27352   0.476   3.942   7.822 -0.0833  0.0325  0.2351
 5233SOL    HW127353   0.480   3.874   7.749 -1.7737  1.0807 -0.8663
 5233SOL    HW227354   0.426   4.023   7.790 -0.7527  0.5588  2.5157
 5234SOL     OW27355   1.851   5.539   3.504 -0.3073  0.5366 -0.1330
 5234SOL    HW127356   1.783   5.597   3.459  0.9734  2.2331  0.0621
 5234SOL    HW227357   1.941   5.580   3.495  0.5429 -1.1060  0.5984
 5235SOL     OW27358   2.682   5.900   0.716 -1.2724  0.1732  0.1093
 5235SOL    HW127359   2.680   5.852   0.804 -0.9245 -0.5824 -0.2929
 5235SOL    HW227360   2.774   5.936   0.699 -1.2492  0.0029 -0.1195
 5236SOL     OW27361   1.461   1.555   2.655 -0.2742  0.7520 -0.2934
 5236SOL    HW127362   1.464   1.460   2.686 -0.0726  1.0680  0.7050
 5236SOL    HW227363   1.426   1.560   2.562  0.2946 -0.3540 -0.5695
 5237SOL     OW27364   8.264   2.601   3.986 -0.1612 -0.6068  0.2763
 5237SOL    HW127365   8.363   2.589   3.982 -0.2613 -1.2506 -0.2341
 5237SOL    HW227366   8.219   2.511   3.982 -0.9031 -0.1457 -3.1641
 5238SOL     OW27367   1.719   1.207   5.998 -0.0975  0.8392  0.0364
 5238SOL    HW127368   1.802   1.206   6.054 -0.3700  1.4050  0.4622
 5238SOL    HW227369   1.737   1.254   5.912  0.6109 -0.9557 -0.8171
 5239SOL     OW27370   3.941   9.536   7.014 -0.1997  0.0975  0.2031
 5239SOL    HW127371   3.913   9.440   7.013 -0.5092  0.1787 -2.5682
 5239SOL    HW227372   3.875   9.591   6.963  0.1429  1.7421  1.5020
 5240SOL     OW27373   9.651   9.123   7.505 -0.2322  0.6756  0.3460
 5240SOL    HW127374   9.647   9.222   7.514 -0.6484  0.7286 -0.3819
 5240SOL    HW227375   9.598   9.080   7.577 -0.5694  0.9972  0.2888
 5241SOL     OW27376   3.661   1.918   4.089 -0.0331 -0.2421 -0.4757
 5241SOL    HW127377   3.636   1.895   3.995  1.7054 -3.0499 -0.2869
 5241SOL    HW227378   3.734   1.858   4.121  0.7816  1.9590  2.0312
 5242SOL     OW27379   4.245   3.117   5.257  0.0080 -0.1111 -0.1751
 5242SOL    HW127380   4.323   3.055   5.261  1.0412  1.2331  2.0868
 5242SOL    HW227381   4.237   3.165   5.345 -3.1114  0.0901 -0.5365
 5243SOL     OW27382   4.001   7.362   0.918  0.1331 -0.1386 -0.3564
 5243SOL    HW127383   3.940   7.389   0.993  2.9942  0.8877  1.6967
 5243SOL    HW227384   4.037   7.271   0.935  0.0501 -0.2943 -0.9929
 5244SOL     OW27385   5.368   1.651   3.095  0.5961  0.1516  0.9637
 5244SOL    HW127386   5.441   1.713   3.068  2.1104 -0.0415  4.4063
 5244SOL    HW227387   5.303   1.699   3.154 -0.5466 -0.4162  0.1780
 5245SOL     OW27388   6.590   5.114   1.773  0.1190 -0.4546  0.2150
 5245SOL    HW127389   6.547   5.189   1.721  3.6239  2.2636  1.0276
 5245SOL    HW227390   6.656   5.067   1.714  0.2411 -0.8394  0.6605
 5246SOL     OW27391   2.718   2.064   3.557 -0.2078 -0.2491 -0.3127
 5246SOL    HW127392   2.763   1.978   3.581 -0.6844 -0.6687 -0.9060
 5246SOL    HW227393   2.636   2.076   3.613  0.4544  0.3631  0.5465
 5247SOL     OW27394   3.364   6.744   1.080  0.1151 -0.0457 -0.6814
 5247SOL    HW127395   3.462   6.760   1.070  0.6498 -0.6694  2.9346
 5247SOL    HW227396   3.321   6.825   1.118 -0.5869 -0.1341 -1.2920
 5248SOL     OW27397   4.293   1.422   1.723 -0.3062  0.0729 -0.3378
 5248SOL    HW127398   4.199   1.450   1.700  0.2443  1.2757 -1.1637
 5248SOL    HW227399   4.321   1.348   1.663 -0.9316 -0.6844  0.2953
 5249SOL     OW27400   0.627   9.073   6.517 -0.4252  0.6351 -0.0944
 5249SOL    HW127401   0.716   9.051   6.556 -0.1154  0.4182 -0.9311
 5249SOL    HW227402   0.587   8.991   6.477 -1.2349  0.6138  0.7337
 5250SOL     OW27403   3.546   4.019   4.739 -0.1853  0.2534 -0.5833
 5250SOL    HW127404   3.493   3.942   4.703  1.5795 -0.9015 -0.7724
 5250SOL    HW227405   3.604   4.057   4.667 -0.1710  1.0066 -0.1831
 5251SOL     OW27406   4.573   3.294   4.725  0.5327  0.5302 -0.4548
 5251SOL    HW127407   4.485   3.249   4.709 -0.1783  2.3117 -1.7720
 5251SOL    HW227408   4.562   3.364   4.796  0.5579  1.6496 -1.5396
 5252SOL     OW27409   0.336   8.718   3.030  0.4740 -0.1078  0.8550
 5252SOL    HW127410   0.427   8.740   3.065  0.4077  0.0651  0.9222
 5252SOL    HW227411   0.311   8.782   2.957  0.1922  0.1835  1.1990
 5253SOL     OW27412   1.832   9.543   3.842  0.2932  0.6567  0.1632
 5253SOL    HW127413   1.872   9.585   3.924  1.6275 -1.6915  0.7769
 5253SOL    HW227414   1.733   9.535   3.853  0.5115 -0.1037  1.8089
 5254SOL     OW27415   0.702   1.454   4.525 -0.6238  0.1988 -0.3325
 5254SOL    HW127416   0.765   1.418   4.594 -0.4451 -0.1698 -0.6905
 5254SOL    HW227417   0.611   1.465   4.566 -0.4665  0.1878  0.0243
 5255SOL     OW27418   8.727   6.152   1.965  0.0981 -0.0596  0.9613
 5255SOL    HW127419   8.627   6.155   1.970 -0.1174 -1.0737 -1.5648
 5255SOL    HW227420   8.756   6.057   1.952  1.2991  0.3990  0.2442
 5256SOL     OW27421   8.710   0.717   4.798 -0.1585  0.6064 -0.1501
 5256SOL    HW127422   8.671   0.725   4.890 -1.1365 -1.5870 -0.3556
 5256SOL    HW227423   8.680   0.794   4.742 -0.7089  1.2016  0.9590
 5257SOL     OW27424   1.256   6.555   6.176  0.1348 -0.3264  0.4018
 5257SOL    HW127425   1.171   6.607   6.186  1.0125  1.0012  1.1070
 5257SOL    HW227426   1.265   6.492   6.253 -0.3341 -0.6692  0.1819
 5258SOL     OW27427   9.205   7.228   4.531  0.4935 -0.1740  0.1805
 5258SOL    HW127428   9.191   7.320   4.494 -1.8559 -0.1473  0.9869
 5258SOL    HW227429   9.121   7.198   4.576  1.4751 -2.4296  0.5834
 5259SOL     OW27430   1.422   5.446   4.665 -0.4153  0.1955 -0.3112
 5259SOL    HW127431   1.340   5.390   4.659 -0.4031 -0.0396  1.4588
 5259SOL    HW227432   1.403   5.538   4.629 -1.8675  0.5846  1.4030
 5260SOL     OW27433   0.423   7.525   0.757  0.0087  0.6358  0.3691
 5260SOL    HW127434   0.387   7.536   0.664  1.2439 -0.2204 -0.2139
 5260SOL    HW227435   0.441   7.429   0.775  0.5803  0.8899  1.2014
 5261SOL     OW27436   0.731   3.765   7.280  0.2353  0.6848 -0.7924
 5261SOL    HW127437   0.735   3.689   7.215  0.8145 -0.0018  0.0210
 5261SOL    HW227438   0.822   3.805   7.290 -0.2921  2.2626 -2.0951
 5262SOL     OW27439   0.794   7.010   6.467  0.0588  0.7044  0.6239
 5262SOL    HW127440   0.775   7.090   6.409 -0.7722  0.2232  0.2228
 5262SOL    HW227441   0.843   7.039   6.549  1.2302  1.4041 -0.3075
 5263SOL     OW27442   4.671   8.789   1.308 -0.5556 -0.3503  0.4819
 5263SOL    HW127443   4.713   8.880   1.308  1.4424 -1.2352  0.5192
 5263SOL    HW227444   4.741   8.721   1.287 -2.2540 -1.7869 -0.6146
 5264SOL     OW27445   2.537   9.321   6.123  0.5198  0.5635 -0.0410
 5264SOL    HW127446   2.511   9.244   6.181  0.3457  0.0711 -0.7532
 5264SOL    HW227447   2.587   9.389   6.176 -1.2735  1.0051  1.1016
 5265SOL     OW27448   1.788   4.198   1.592  0.0442 -0.5746 -0.5791
 5265SOL    HW127449   1.708   4.228   1.539 -0.5822  0.2750  0.8469
 5265SOL    HW227450   1.857   4.270   1.592  0.3420 -0.8583 -0.8318
 5266SOL     OW27451   9.104   1.635   0.112  0.3479  0.3525 -0.0250
 5266SOL    HW127452   9.188   1.680   0.142  0.3789  0.9676 -1.0051
 5266SOL    HW227453   9.110   1.537   0.131  0.5391  0.6459  1.5506
 5267SOL     OW27454   1.496   3.190   6.054  0.0421  0.0932  0.7584
 5267SOL    HW127455   1.422   3.216   5.991 -0.8168  0.2745  1.8298
 5267SOL    HW227456   1.570   3.257   6.046  0.3429 -0.3938 -0.7246
 5268SOL     OW27457   9.697   0.774   7.678  0.2242 -0.7840  0.5894
 5268SOL    HW127458   9.795   0.779   7.659  0.3015 -1.7553  0.6964
 5268SOL    HW227459   9.674   0.831   7.757  0.5477  0.1590  0.0159
 5269SOL     OW27460   5.932   0.276   1.067  0.0656  0.3544  0.4312
 5269SOL    HW127461   5.858   0.221   1.105  1.3506 -1.2179  0.7360
 5269SOL    HW227462   6.020   0.242   1.102  1.1060  0.5859 -1.8479
 5270SOL     OW27463   5.324   9.638   2.539 -0.5066 -0.1848 -0.2036
 5270SOL    HW127464   5.243   9.601   2.585 -0.9836  1.7060  0.5083
 5270SOL    HW227465   5.353   9.722   2.584  0.7358  0.1662 -1.6108
 5271SOL     OW27466   5.900   8.049   3.670  0.6149  0.0277  0.0236
 5271SOL    HW127467   5.983   8.047   3.727  1.0770 -0.4013 -0.6610
 5271SOL    HW227468   5.925   8.057   3.574 -0.1037 -1.0092 -0.2659
 5272SOL     OW27469   9.605   6.746   4.777 -0.0556 -0.3236  0.0099
 5272SOL    HW127470   9.598   6.715   4.872 -0.5381  1.3817  0.5474
 5272SOL    HW227471   9.599   6.667   4.716  1.6947 -1.5961  1.4322
 5273SOL     OW27472   8.256   5.330   2.373  0.2526  0.0796  0.4284
 5273SOL    HW127473   8.265   5.429   2.362  0.1065  0.1712  1.1055
 5273SOL    HW227474   8.304   5.301   2.456 -0.1738 -0.3416  0.5292
 5274SOL     OW27475   8.752   2.774   2.055 -0.2652  0.2747  0.1648
 5274SOL    HW127476   8.758   2.853   2.116  2.3540 -0.3440  0.7693
 5274SOL    HW227477   8.672   2.783   1.996 -2.1300  1.5252  2.7889
 5275SOL     OW27478   9.189   8.126   1.512 -0.1714 -0.4904  0.2066
 5275SOL    HW127479   9.106   8.112   1.566 -0.5906 -0.7145 -0.4942
 5275SOL    HW227480   9.182   8.077   1.425  1.1464 -1.4196  0.5903
 5276SOL     OW27481   1.529   4.802   4.075 -0.2493 -0.2114 -0.0136
 5276SOL    HW127482   1.559   4.830   4.167 -0.2656 -0.0595 -0.0545
 5276SOL    HW227483   1.447   4.853   4.050 -2.0844 -2.4974  1.1512
 5277SOL     OW27484   1.504   4.925   7.641  0.1737 -0.0551 -0.1391
 5277SOL    HW127485   1.405   4.933   7.644  0.1755 -0.4752  3.6428
 5277SOL    HW227486   1.530   4.849   7.582 -1.7926 -0.6540 -0.2691
 5278SOL     OW27487   7.712   0.625   6.522  0.0147  0.1703  0.1390
 5278SOL    HW127488   7.619   0.634   6.486  0.2968 -0.3108 -0.7156
 5278SOL    HW227489   7.722   0.536   6.567  0.2636 -0.0669 -0.3787
 5279SOL     OW27490   0.981   2.025   5.906 -0.4401  0.4483 -0.6834
 5279SOL    HW127491   0.957   2.027   6.003 -1.8571  0.8493 -1.0322
 5279SOL    HW227492   0.909   2.070   5.853  1.0271  1.5678 -1.7766
 5280SOL     OW27493   1.273   7.784   7.985 -0.1010 -0.1461 -0.6826
 5280SOL    HW127494   1.195   7.793   7.924 -0.3403  0.3614 -0.3026
 5280SOL    HW227495   1.268   7.696   8.032 -1.5700  0.7410  0.8885
 5281SOL     OW27496   8.364   8.983   3.611  0.0753  0.2875 -0.8719
 5281SOL    HW127497   8.339   8.891   3.583 -0.9142 -0.0906  1.1717
 5281SOL    HW227498   8.303   9.049   3.567 -1.5301 -0.3024  0.4233
 5282SOL     OW27499   5.952   8.000   6.417 -0.3894  0.0325  0.2090
 5282SOL    HW127500   5.853   8.020   6.417 -0.2406  0.7795 -0.3570
 5282SOL    HW227501   6.003   8.085   6.409  0.2987 -0.4165 -0.2518
 5283SOL     OW27502   9.506   1.398   7.968 -0.1229  0.1289 -0.0503
 5283SOL    HW127503   9.418   1.445   7.962  0.0733  0.4291 -0.7271
 5283SOL    HW227504   9.526   1.374   8.063 -0.9915 -0.0490  0.0839
 5284SOL     OW27505   2.896   0.504   3.013 -0.6988  0.0269 -0.3918
 5284SOL    HW127506   2.844   0.544   2.938 -0.8534  0.1689 -0.2077
 5284SOL    HW227507   2.851   0.525   3.099  0.0283  0.7273 -0.1742
 5285SOL     OW27508   9.402   1.408   1.633  0.3343  0.5911  0.2148
 5285SOL    HW127509   9.382   1.445   1.542  0.1022  1.6537  0.6924
 5285SOL    HW227510   9.455   1.325   1.623  0.7215  0.9534 -0.8883
 5286SOL     OW27511   1.277   1.552   7.164 -0.5786  0.4474 -0.1719
 5286SOL    HW127512   1.227   1.534   7.079 -0.4594  0.6278 -0.2804
 5286SOL    HW227513   1.257   1.645   7.196  2.6839  1.9576 -2.2859
 5287SOL     OW27514   3.846   2.318   4.632 -0.0304 -0.2682  0.1772
 5287SOL    HW127515   3.777   2.256   4.669 -0.2250  0.0792  0.3977
 5287SOL    HW227516   3.818   2.350   4.542 -2.3236  3.3631  2.1011
 5288SOL     OW27517   3.921   8.129   2.036 -0.6475  1.2182  0.2456
 5288SOL    HW127518   4.021   8.127   2.033 -0.6954  0.4763 -2.3010
 5288SOL    HW227519   3.889   8.224   2.035  0.0325  1.4522 -1.3338
 5289SOL     OW27520   7.270   2.517   3.996 -0.3943  0.2792  0.0792
 5289SOL    HW127521   7.315   2.555   4.077 -0.2719  1.2150 -0.4237
 5289SOL    HW227522   7.271   2.584   3.922 -0.4583 -0.5834 -0.7234
 5290SOL     OW27523   9.156   1.867   3.555 -0.7791  0.4776  0.9029
 5290SOL    HW127524   9.146   1.785   3.498 -0.5748  1.3037 -0.3535
 5290SOL    HW227525   9.245   1.864   3.602 -1.3856 -0.7037  2.0084
 5291SOL     OW27526   0.124   9.963   2.762  0.3838 -0.1298 -0.1733
 5291SOL    HW127527   0.026   9.952   2.746  0.2233 -0.9070  1.3128
 5291SOL    HW227528   0.175   9.919   2.687 -0.3886  1.1121 -1.4519
 5292SOL     OW27529   1.544   6.808   5.464 -0.0946  0.1666 -0.3611
 5292SOL    HW127530   1.545   6.877   5.537  1.6717  0.4080 -0.5932
 5292SOL    HW227531   1.616   6.741   5.481 -1.4997 -1.3844 -0.3886
 5293SOL     OW27532   0.206   2.047   4.657 -1.1585  1.0447 -0.1806
 5293SOL    HW127533   0.159   2.134   4.640  1.0565  2.2785 -0.1691
 5293SOL    HW227534   0.268   2.026   4.582 -0.3397  0.3847  0.6551
 5294SOL     OW27535   6.011   9.462   4.899  0.0929 -0.3130  0.0850
 5294SOL    HW127536   6.066   9.514   4.834  0.1720  0.6531  0.9138
 5294SOL    HW227537   5.991   9.372   4.861 -1.8491  1.0321 -2.3129
 5295SOL     OW27538   2.697   2.924   7.263  0.0411  0.8750  0.3231
 5295SOL    HW127539   2.672   2.839   7.308  0.1854  1.1447  0.9166
 5295SOL    HW227540   2.740   2.986   7.329  0.9505  0.9734 -0.3622
 5296SOL     OW27541   6.163   9.878   1.918 -0.0754 -0.1888  0.1680
 5296SOL    HW127542   6.150   9.973   1.944  0.8928  0.0282 -0.1192
 5296SOL    HW227543   6.183   9.872   1.820 -0.4746 -0.7165  0.1140
 5297SOL     OW27544   6.609   1.042   7.866 -0.1218 -0.1763 -0.3991
 5297SOL    HW127545   6.548   1.069   7.791  0.7261  1.5564 -0.4801
 5297SOL    HW227546   6.606   1.110   7.938 -1.0420 -1.9070  1.2528
 5298SOL     OW27547   8.898   4.863   6.462  0.2175  0.7847  0.1303
 5298SOL    HW127548   8.810   4.856   6.509  0.6941 -0.3432  0.8941
 5298SOL    HW227549   8.971   4.839   6.526  0.9608  0.2161 -0.9230
 5299SOL     OW27550   4.287   8.586   7.548  0.0094 -0.6671 -0.6995
 5299SOL    HW127551   4.188   8.584   7.562 -0.1867 -1.6258 -2.1430
 5299SOL    HW227552   4.307   8.589   7.450  1.4092  0.3074 -0.4026
 5300SOL     OW27553   8.260   2.799   6.444  0.3392  0.2871 -0.0818
 5300SOL    HW127554   8.169   2.770   6.415  1.0724 -2.0118 -0.1809
 5300SOL    HW227555   8.326   2.778   6.372  1.3092 -0.3428  0.9820
 5301SOL     OW27556   3.528   7.769   7.119  0.9840 -0.0384 -0.1840
 5301SOL    HW127557   3.442   7.794   7.074 -0.3891  0.6433  2.7213
 5301SOL    HW227558   3.577   7.703   7.062 -0.3576  1.2553 -2.9604
 5302SOL     OW27559   2.778   8.054   1.627 -0.3626  0.2977  0.1554
 5302SOL    HW127560   2.698   8.107   1.600  0.0945  0.1916 -1.4627
 5302SOL    HW227561   2.860   8.112   1.621  0.2311 -0.7357 -2.2874
 5303SOL     OW27562   2.981   5.469   0.272  0.3032  0.3814 -0.6642
 5303SOL    HW127563   3.025   5.536   0.212  1.8257  0.5948  0.6413
 5303SOL    HW227564   3.028   5.468   0.361 -1.1859 -0.7332  0.1380
 5304SOL     OW27565   4.610   2.880   6.678 -0.2167  0.0464 -0.0308
 5304SOL    HW127566   4.575   2.819   6.750  2.8130 -0.4612  1.0785
 5304SOL    HW227567   4.603   2.833   6.590 -1.8320 -0.2270  0.2137
 5305SOL     OW27568   1.708   3.382   6.160 -0.1786  0.5204  0.5340
 5305SOL    HW127569   1.669   3.415   6.246 -2.6885 -0.3300 -0.2261
 5305SOL    HW227570   1.770   3.306   6.178 -0.4899  0.5111  1.5954
 5306SOL     OW27571   7.162   9.281   2.233 -0.4498 -0.1703  0.0542
 5306SOL    HW127572   7.146   9.347   2.307  0.7789 -0.4357  0.5670
 5306SOL    HW227573   7.216   9.205   2.268  1.1105  0.2432 -1.4104
 5307SOL     OW27574   7.027   9.265   3.299  0.3005 -0.0911 -0.0868
 5307SOL    HW127575   6.987   9.175   3.316 -0.4879  0.0720 -1.0266
 5307SOL    HW227576   7.055   9.271   3.203  0.0881  0.7539 -0.0987
 5308SOL     OW27577   4.473   2.781   0.648 -0.3416 -1.0589 -0.2187
 5308SOL    HW127578   4.427   2.703   0.606  0.3557 -1.8760  0.5126
 5308SOL    HW227579   4.454   2.863   0.595 -1.9322 -1.5357 -0.4089
 5309SOL     OW27580   4.590   8.550   6.392 -0.1392  0.7332 -0.5427
 5309SOL    HW127581   4.569   8.616   6.465  0.4979  0.4686 -0.1147
 5309SOL    HW227582   4.687   8.557   6.368  0.5715 -1.8641  1.3534
 5310SOL     OW27583   3.078   6.317   7.308  0.0596  0.0012  0.1902
 5310SOL    HW127584   3.152   6.271   7.259 -0.3068  1.4649 -1.7961
 5310SOL    HW227585   2.990   6.287   7.271 -0.2499  0.4586  0.5534
 5311SOL     OW27586   5.213   1.046   3.840  0.4016 -0.8337 -0.7055
 5311SOL    HW127587   5.243   1.030   3.746 -0.0924 -0.9353 -0.8484
 5311SOL    HW227588   5.207   1.145   3.857  0.8575 -0.8123 -0.6597
 5312SOL     OW27589   1.584   4.933   6.719  0.6648 -0.1190  0.3858
 5312SOL    HW127590   1.611   4.837   6.703  0.7604  0.0483 -0.5248
 5312SOL    HW227591   1.488   4.937   6.745  0.1902 -0.3519 -1.2252
 5313SOL     OW27592   1.666   4.867   7.866 -0.6347  0.7732 -0.0161
 5313SOL    HW127593   1.670   4.948   7.924  2.5968  0.4688  0.3006
 5313SOL    HW227594   1.634   4.892   7.775 -2.6461  1.8178  0.9409
 5314SOL     OW27595   6.529   2.027   4.699  0.0486  0.6683  0.0581
 5314SOL    HW127596   6.450   2.081   4.729  0.1940  0.3572  0.9892
 5314SOL    HW227597   6.541   1.948   4.759  0.0994 -0.1699 -1.0463
 5315SOL     OW27598   1.946   3.456   6.522  0.0533 -0.2050 -0.7668
 5315SOL    HW127599   1.989   3.543   6.498 -0.2171 -0.1273 -0.9721
 5315SOL    HW227600   1.848   3.462   6.505 -0.1421 -0.1588  0.3345
 5316SOL     OW27601   8.781   5.327   6.309 -0.2386 -0.7932  0.1622
 5316SOL    HW127602   8.768   5.378   6.394  0.1476 -0.6978  0.1642
 5316SOL    HW227603   8.817   5.237   6.330 -1.4180 -1.2649  0.1979
 5317SOL     OW27604   0.399   7.429   7.473 -0.1867 -0.2905 -0.1796
 5317SOL    HW127605   0.478   7.375   7.445 -0.5259  0.1740 -2.1539
 5317SOL    HW227606   0.315   7.384   7.442 -0.6228 -0.0226  0.5875
 5318SOL     OW27607   2.049   4.573   3.715  0.1643 -0.0110 -0.1682
 5318SOL    HW127608   2.102   4.651   3.682 -1.4668  1.2917  0.2156
 5318SOL    HW227609   1.978   4.551   3.648 -1.6453  1.1262  1.3574
 5319SOL     OW27610   4.440   1.386   3.359  0.0914 -0.4878 -0.3699
 5319SOL    HW127611   4.475   1.360   3.269  0.4085 -0.5866 -0.2156
 5319SOL    HW227612   4.511   1.434   3.410 -0.5962  1.0504 -0.8094
 5320SOL     OW27613   8.671   4.703   6.275  0.4741 -0.1379 -0.0491
 5320SOL    HW127614   8.741   4.772   6.295  1.5745 -0.7381 -1.7203
 5320SOL    HW227615   8.706   4.612   6.297  0.2265 -0.4436 -0.9118
 5321SOL     OW27616   8.192   1.936   7.170 -0.1183 -0.2750  0.3696
 5321SOL    HW127617   8.226   2.025   7.201 -0.5137  1.1901 -3.1479
 5321SOL    HW227618   8.247   1.904   7.093 -2.5212 -1.0818 -1.0852
 5322SOL     OW27619   2.910   6.538   4.408 -0.0133  0.3099  0.2043
 5322SOL    HW127620   2.920   6.449   4.454  0.1304  0.4870  0.5141
 5322SOL    HW227621   2.820   6.577   4.430 -2.0198 -1.8714 -3.6013
 5323SOL     OW27622   9.645   6.958   7.467 -0.1913 -0.1565  0.2569
 5323SOL    HW127623   9.710   7.016   7.419  0.4632 -2.0756 -1.2498
 5323SOL    HW227624   9.556   6.961   7.422 -0.2053 -0.1775  0.2806
 5324SOL     OW27625   6.547   4.143   8.032  0.0238 -0.5306  0.4891
 5324SOL    HW127626   6.466   4.151   7.973 -0.3715 -0.4974  1.0300
 5324SOL    HW227627   6.623   4.194   7.992 -0.2316 -0.5303 -0.0041
 5325SOL     OW27628   1.583   5.955   4.093 -0.1148  0.5378 -0.0517
 5325SOL    HW127629   1.570   5.919   4.186  2.0642 -0.5726 -0.1261
 5325SOL    HW227630   1.678   5.986   4.083 -0.5228  1.2831 -1.6996
 5326SOL     OW27631   3.934   9.088   1.201  0.3439  0.0902 -0.4622
 5326SOL    HW127632   3.944   8.989   1.190  3.0907  0.4223 -1.3346
 5326SOL    HW227633   3.970   9.116   1.290  2.0870  0.6220 -1.3189
 5327SOL     OW27634   8.227   0.021   5.106 -0.3765 -0.1864 -0.4041
 5327SOL    HW127635   8.145  -0.001   5.054 -0.6948  1.4625 -0.6112
 5327SOL    HW227636   8.296   0.062   5.046 -0.1849  0.3627  0.1862
 5328SOL     OW27637   0.444   9.063   7.617  0.0032  0.3383  0.6793
 5328SOL    HW127638   0.486   9.154   7.625 -0.5212  0.5321  1.2250
 5328SOL    HW227639   0.395   9.057   7.530  2.1234 -0.2936 -0.5131
 5329SOL     OW27640   8.930   9.771   7.555 -0.1269  0.6865  0.6071
 5329SOL    HW127641   8.925   9.708   7.477 -0.6086  0.7363  0.5998
 5329SOL    HW227642   8.971   9.723   7.633  0.3652  0.6400  0.3234
 5330SOL     OW27643   9.724   8.320   4.136 -0.1439 -0.3997 -0.4484
 5330SOL    HW127644   9.820   8.292   4.148  0.1153  0.2492 -0.9870
 5330SOL    HW227645   9.674   8.247   4.090 -0.0737 -1.0276  0.4635
 5331SOL     OW27646   1.451   7.706   4.685  0.1411 -0.5798 -0.2138
 5331SOL    HW127647   1.404   7.626   4.722 -1.1688  0.4167  0.2851
 5331SOL    HW227648   1.502   7.752   4.758  1.8139 -1.5684 -0.7205
 5332SOL     OW27649   3.651   7.741   2.997  0.1702  0.6700 -0.1720
 5332SOL    HW127650   3.607   7.821   2.955 -0.7601  0.7814  1.0006
 5332SOL    HW227651   3.629   7.738   3.094 -0.7053 -1.6083 -0.4048
 5333SOL     OW27652   0.872   9.419   0.767 -0.2411  0.8947  0.3457
 5333SOL    HW127653   0.862   9.514   0.796  0.2973  0.6057  1.5281
 5333SOL    HW227654   0.797   9.364   0.805  1.0726  0.3049  2.1824
 5334SOL     OW27655   9.507   0.462   1.742 -0.4645 -0.0526  0.7172
 5334SOL    HW127656   9.433   0.449   1.676 -0.8565  1.8712  0.7475
 5334SOL    HW227657   9.539   0.373   1.774 -1.6991 -0.9494 -0.4735
 5335SOL     OW27658   4.448   0.859   0.092  0.2602 -0.1937  0.4603
 5335SOL    HW127659   4.468   0.935   0.153 -0.2370  0.4584 -0.1886
 5335SOL    HW227660   4.378   0.886   0.026  3.4539  0.3250 -2.8187
 5336SOL     OW27661   3.335   4.228   5.343  0.5292 -0.1337  0.0235
 5336SOL    HW127662   3.323   4.177   5.428  2.6280  0.7478  0.8953
 5336SOL    HW227663   3.316   4.325   5.359  1.1463  0.0728 -0.4665
 5337SOL     OW27664   2.561   5.192   0.776  1.0165  0.3309 -0.3547
 5337SOL    HW127665   2.627   5.116   0.771  0.9754  0.1788  1.0270
 5337SOL    HW227666   2.572   5.239   0.864  1.8593  2.6886 -1.6620
 5338SOL     OW27667   3.292   0.377   6.800 -0.4529  0.2656 -0.7614
 5338SOL    HW127668   3.325   0.469   6.821  2.3757 -0.5263 -1.4849
 5338SOL    HW227669   3.237   0.344   6.877 -0.4611  2.0767  0.0490
 5339SOL     OW27670   0.409   5.328   4.093  0.2515 -0.7492  0.1870
 5339SOL    HW127671   0.490   5.386   4.095 -0.7191  0.6821 -1.1105
 5339SOL    HW227672   0.370   5.328   4.000 -2.1386 -0.1470  1.1442
 5340SOL     OW27673   6.384   5.181   7.650  0.3558 -0.2019 -0.5798
 5340SOL    HW127674   6.325   5.105   7.676 -0.7650  0.8178 -0.1192
 5340SOL    HW227675   6.426   5.162   7.561  2.5745 -2.7670  0.9362
 5341SOL     OW27676   3.244   6.227   1.587  0.8644 -0.4444 -0.0174
 5341SOL    HW127677   3.162   6.215   1.643  0.5017  0.4611 -0.3434
 5341SOL    HW227678   3.282   6.138   1.563 -1.5898 -0.9475 -2.1786
 5342SOL     OW27679   6.762   0.167   2.461 -0.4096  0.0191  0.3455
 5342SOL    HW127680   6.764   0.094   2.530 -0.9584  0.2368  0.5935
 5342SOL    HW227681   6.822   0.241   2.489  0.7124 -0.6486 -0.2579
 5343SOL     OW27682   6.828   0.755   6.229  0.4537  0.0364 -0.1897
 5343SOL    HW127683   6.799   0.705   6.311  2.9855  0.8224  1.2317
 5343SOL    HW227684   6.860   0.691   6.160  3.0379 -0.4088  1.3682
 5344SOL     OW27685   8.948   3.030   0.637 -0.6476  0.2073 -0.5578
 5344SOL    HW127686   8.960   3.013   0.735  2.2909  1.5877 -0.6252
 5344SOL    HW227687   8.880   2.966   0.600 -0.1472 -1.8578  1.9351
 5345SOL     OW27688   2.059   8.972   1.862 -0.3340  0.4752  0.6408
 5345SOL    HW127689   1.990   9.038   1.834  0.1774  0.3651 -0.9429
 5345SOL    HW227690   2.084   8.915   1.784 -2.2046 -2.9534  2.4080
 5346SOL     OW27691   5.055   8.659   5.830 -0.4899  0.3174 -0.3459
 5346SOL    HW127692   5.002   8.623   5.906  1.5783 -0.3344  0.8493
 5346SOL    HW227693   5.045   8.758   5.825  0.8353  0.6133  2.0116
 5347SOL     OW27694   7.433   7.933   6.253  0.3121 -0.5459  0.0029
 5347SOL    HW127695   7.439   8.030   6.277  1.5779 -0.2897 -1.2540
 5347SOL    HW227696   7.481   7.879   6.322  0.0776 -0.2248  0.4195
 5348SOL     OW27697   0.448   0.228   0.374  0.2043 -0.4094 -0.3814
 5348SOL    HW127698   0.486   0.302   0.319 -0.4941  0.4865  0.3193
 5348SOL    HW227699   0.353   0.212   0.348  0.2497 -0.8341 -0.2927
 5349SOL     OW27700   0.540   6.440   2.273 -1.1488  0.8418 -0.2305
 5349SOL    HW127701   0.621   6.381   2.272 -1.6565  0.0069  2.2190
 5349SOL    HW227702   0.496   6.438   2.184  0.5883 -0.0111 -1.1019
 5350SOL     OW27703   6.192   1.623   3.552  0.3020  0.1237 -0.8435
 5350SOL    HW127704   6.192   1.528   3.521 -1.2788  0.1602 -0.9835
 5350SOL    HW227705   6.142   1.630   3.639 -1.5793  1.1613 -1.9620
 5351SOL     OW27706   9.425   6.981   4.150 -0.1212  0.4202 -0.3826
 5351SOL    HW127707   9.387   7.032   4.227  0.5081 -0.4318  0.5026
 5351SOL    HW227708   9.520   7.008   4.136 -0.0600  0.1518 -0.4868
 5352SOL     OW27709   6.911   6.555   5.691 -0.6527  0.0511  0.6692
 5352SOL    HW127710   6.824   6.599   5.713 -2.2058 -1.6649 -1.7478
 5352SOL    HW227711   6.932   6.484   5.758 -0.6434  1.0764  1.7595
 5353SOL     OW27712   0.229   5.892   0.240 -0.5820  0.2078  0.5321
 5353SOL    HW127713   0.176   5.812   0.268 -0.3548  0.2225  1.0051
 5353SOL    HW227714   0.232   5.896   0.140  0.4204 -1.0672  0.4905
 5354SOL     OW27715   2.764   4.112   2.426 -0.3594 -0.0342 -0.4044
 5354SOL    HW127716   2.807   4.188   2.475 -0.6696 -0.3623  0.3770
 5354SOL    HW227717   2.832   4.040   2.409 -0.1469  0.2657 -0.8542
 5355SOL     OW27718   9.844   0.191   0.896 -0.1545 -0.0844  0.6336
 5355SOL    HW127719   9.821   0.101   0.933  0.6091 -0.3657  0.4346
 5355SOL    HW227720   9.785   0.260   0.937 -0.7235 -0.6731  0.8102
 5356SOL     OW27721   2.549   6.142   0.688 -0.7105 -0.0871 -0.5697
 5356SOL    HW127722   2.621   6.198   0.647 -1.5665  0.6029 -1.1465
 5356SOL    HW227723   2.575   6.046   0.684  0.1844  0.1567 -0.7615
 5357SOL     OW27724   7.847   9.313   4.154 -0.2056  0.8674 -0.4147
 5357SOL    HW127725   7.848   9.259   4.070 -0.0792  0.3567 -0.0804
 5357SOL    HW227726   7.941   9.332   4.183 -0.2394  1.8507 -0.9046
 5358SOL     OW27727   2.978   4.703   5.097 -0.1923  0.1912 -0.6415
 5358SOL    HW127728   3.023   4.755   5.025  1.0219  0.3061  0.1776
 5358SOL    HW227729   2.881   4.696   5.078 -0.0274  1.0099 -1.8095
 5359SOL     OW27730   9.214   8.262   0.283 -0.1745 -1.2603 -0.6305
 5359SOL    HW127731   9.248   8.184   0.336  3.0795  0.0085 -0.7528
 5359SOL    HW227732   9.189   8.231   0.191  0.7163 -2.2773 -0.5466
 5360SOL     OW27733   3.315   1.068   6.812  0.2721  0.6839  0.3860
 5360SOL    HW127734   3.351   1.157   6.839 -1.2640  0.6468  2.6660
 5360SOL    HW227735   3.229   1.080   6.763  0.3454  0.4973  0.2124
 5361SOL     OW27736   0.032   5.743   2.911 -0.0625  0.1227 -0.4902
 5361SOL    HW127737   0.101   5.674   2.931  1.5136  1.0749 -2.5263
 5361SOL    HW227738   0.064   5.803   2.838 -2.7467  1.0222 -1.0051
 5362SOL     OW27739   1.654   0.323   4.542  0.8062 -0.0415 -0.1434
 5362SOL    HW127740   1.584   0.378   4.496  0.0093 -0.1602  0.9113
 5362SOL    HW227741   1.718   0.384   4.589 -1.3111 -0.0292  2.8220
 5363SOL     OW27742   1.667   4.305   5.212 -0.3805 -0.1339 -0.6824
 5363SOL    HW127743   1.670   4.211   5.245 -0.4494 -0.0196 -0.3495
 5363SOL    HW227744   1.587   4.351   5.251  0.6575  0.6064  0.6388
 5364SOL     OW27745   5.091   3.143   1.057 -0.3263  0.0502  0.1374
 5364SOL    HW127746   5.147   3.096   1.125 -0.3099 -0.5923 -0.3183
 5364SOL    HW227747   5.016   3.084   1.029 -0.2163  0.2360 -0.5506
 5365SOL     OW27748   4.516   0.490   7.676  0.7650  0.1714  0.1428
 5365SOL    HW127749   4.441   0.444   7.629 -0.3947  1.1375  1.0226
 5365SOL    HW227750   4.539   0.574   7.628 -1.0969  1.6810  1.7967
 5366SOL     OW27751   6.747   5.253   7.462 -0.1130  0.7328 -0.2550
 5366SOL    HW127752   6.663   5.236   7.410 -0.1875  0.5354 -0.0701
 5366SOL    HW227753   6.826   5.229   7.406 -0.2036  0.1993 -0.1545
 5367SOL     OW27754   3.148   1.749   1.788 -0.7354 -0.5307 -0.2828
 5367SOL    HW127755   3.065   1.706   1.825 -1.3196  0.6314 -0.1926
 5367SOL    HW227756   3.219   1.750   1.859 -0.3158 -2.3616 -0.6521
 5368SOL     OW27757   4.824   0.283   6.721 -0.7008  0.3949  0.1178
 5368SOL    HW127758   4.859   0.222   6.792  0.5579  0.5640 -0.3393
 5368SOL    HW227759   4.895   0.350   6.697 -1.3695  0.7905 -0.7825
 5369SOL     OW27760   8.778   4.809   4.557  0.3091  0.3211 -0.2933
 5369SOL    HW127761   8.822   4.719   4.549  2.3217  1.0416  2.0018
 5369SOL    HW227762   8.740   4.835   4.469  0.8268 -2.2119 -1.3193
 5370SOL     OW27763   6.004   5.975   1.402 -0.3398 -0.3862 -0.0884
 5370SOL    HW127764   6.008   5.875   1.410 -3.2272 -0.4750  1.0357
 5370SOL    HW227765   6.002   6.001   1.306 -2.1271 -1.5901 -0.4093
 5371SOL     OW27766   4.261   0.289   3.178 -0.3037  0.3093  0.2801
 5371SOL    HW127767   4.203   0.259   3.253 -0.4003  1.2398  0.5838
 5371SOL    HW227768   4.205   0.335   3.109 -0.0292  0.6407  0.2753
 5372SOL     OW27769   2.625   4.197   0.338 -0.0941 -0.1541  0.1282
 5372SOL    HW127770   2.554   4.130   0.356  2.5941 -3.0383  0.4522
 5372SOL    HW227771   2.677   4.214   0.422  0.9350  0.2892 -0.5885
 5373SOL     OW27772   3.224   3.244   6.638  0.5194 -0.1457  0.0288
 5373SOL    HW127773   3.152   3.296   6.592 -0.0771  0.8529  2.0155
 5373SOL    HW227774   3.195   3.222   6.731  2.1768 -1.0460  0.3565
 5374SOL     OW27775   3.926   2.579   3.922  0.9861 -0.4758  0.1301
 5374SOL    HW127776   3.968   2.668   3.941 -0.5656  0.3158 -0.0241
 5374SOL    HW227777   3.919   2.565   3.824 -0.3388  0.0187  0.1399
 5375SOL     OW27778   8.858   4.881   8.044  0.4199  0.1863 -0.0689
 5375SOL    HW127779   8.860   4.891   7.945  1.2437  1.2014  0.0398
 5375SOL    HW227780   8.766   4.902   8.078 -0.0045 -0.6827 -0.6571
 5376SOL     OW27781   2.952   8.069   5.650 -0.2798  0.6932 -0.3973
 5376SOL    HW127782   2.896   7.987   5.665 -0.3403  0.5059 -1.6205
 5376SOL    HW227783   3.047   8.048   5.672 -0.1290 -0.0049 -1.6901
 5377SOL     OW27784   3.797   3.021   8.031  0.3302  0.1713  0.2505
 5377SOL    HW127785   3.854   2.945   8.061  0.0415  0.3711  1.3274
 5377SOL    HW227786   3.794   3.091   8.103 -1.6721 -0.0619  0.4297
 5378SOL     OW27787   3.292   6.859   0.432  0.3744 -0.7679 -0.2676
 5378SOL    HW127788   3.248   6.900   0.352  2.5102 -2.6390 -2.4726
 5378SOL    HW227789   3.261   6.764   0.442  2.6393 -1.5911 -0.8854
 5379SOL     OW27790   9.806   7.962   2.858 -0.4123 -0.6690  0.0771
 5379SOL    HW127791   9.763   7.902   2.925 -1.3789 -1.2858 -1.0842
 5379SOL    HW227792   9.898   7.927   2.836 -1.1515 -2.0227 -0.9522
 5380SOL     OW27793   4.236   4.526   1.121 -0.1679 -0.2953 -0.6060
 5380SOL    HW127794   4.268   4.579   1.199 -1.2085  1.0878 -1.0988
 5380SOL    HW227795   4.158   4.471   1.148 -1.0201  0.7791 -0.8527
 5381SOL     OW27796   8.359   8.850   1.189 -0.0759 -0.5165  0.1144
 5381SOL    HW127797   8.454   8.829   1.212  0.2428 -0.2387 -0.9199
 5381SOL    HW227798   8.323   8.917   1.254  0.6060 -0.2200  0.1901
 5382SOL     OW27799   4.895   7.047   1.283  0.0253 -0.2674  0.0535
 5382SOL    HW127800   4.991   7.058   1.308 -0.1429 -2.1323  1.6836
 5382SOL    HW227801   4.845   7.132   1.299  0.9099 -0.0354  1.5957
 5383SOL     OW27802   4.791   7.778   3.588  0.8192 -0.4604  0.0339
 5383SOL    HW127803   4.846   7.860   3.572  1.0182 -0.7994 -1.0494
 5383SOL    HW227804   4.813   7.740   3.678  2.7911 -0.9305 -0.6321
 5384SOL     OW27805   4.290   2.796   1.883 -0.3892 -0.6858  0.0613
 5384SOL    HW127806   4.225   2.729   1.920 -1.5785  0.7779  0.6564
 5384SOL    HW227807   4.275   2.807   1.785 -0.3875 -1.0404  0.0181
 5385SOL     OW27808   7.697   4.565   8.014  0.0668  0.1702 -0.6438
 5385SOL    HW127809   7.634   4.498   7.974 -1.0455  0.1073  1.1601
 5385SOL    HW227810   7.709   4.546   8.111  0.9376  1.6828 -0.4346
 5386SOL     OW27811   2.609   1.875   1.461 -0.1309 -0.8689 -0.3103
 5386SOL    HW127812   2.618   1.931   1.544 -1.0941  1.7182 -1.8698
 5386SOL    HW227813   2.513   1.873   1.433  0.2294 -1.4252 -1.5451
 5387SOL     OW27814   1.741   3.258   1.814 -0.3893  0.6525 -0.2723
 5387SOL    HW127815   1.705   3.347   1.785  0.6733  0.8020 -1.1700
 5387SOL    HW227816   1.794   3.270   1.897 -0.1955  0.8699 -0.4258
 5388SOL     OW27817   3.725   4.448   1.728  0.2021 -0.5933 -0.4572
 5388SOL    HW127818   3.721   4.460   1.628  0.8801 -1.3687 -0.5819
 5388SOL    HW227819   3.775   4.364   1.749 -0.2081 -0.5893  0.5322
 5389SOL     OW27820   1.954   5.206   8.152 -0.0326 -0.6999  0.6365
 5389SOL    HW127821   1.910   5.160   8.075 -1.2780  0.2289  0.7768
 5389SOL    HW227822   2.047   5.172   8.163 -0.6084 -2.4772  0.1341
 5390SOL     OW27823   0.661   2.376   0.717  0.2869 -0.3836  0.2492
 5390SOL    HW127824   0.637   2.464   0.759 -2.0230 -1.0869  0.4651
 5390SOL    HW227825   0.734   2.333   0.771  0.6743  0.8956  0.7772
 5391SOL     OW27826   0.779   5.567   4.819 -0.4762 -0.5529 -0.2463
 5391SOL    HW127827   0.706   5.523   4.767 -0.6414 -1.2467  0.5742
 5391SOL    HW227828   0.743   5.597   4.907  0.3724 -1.3548  0.3663
 5392SOL     OW27829   2.276   0.034   8.007 -0.3860 -0.0056  0.9766
 5392SOL    HW127830   2.351  -0.012   7.960 -0.1048  0.5380  0.8867
 5392SOL    HW227831   2.313   0.096   8.076 -0.7161  0.9196  0.3398
 5393SOL     OW27832   3.504   3.814   2.489 -0.2887 -0.2535 -0.7502
 5393SOL    HW127833   3.460   3.852   2.407 -1.4802  1.9332  0.8549
 5393SOL    HW227834   3.435   3.766   2.544  0.3477 -1.0145 -0.6014
 5394SOL     OW27835   5.137   9.208   3.298  0.2867  0.1734 -0.2099
 5394SOL    HW127836   5.224   9.254   3.278  1.1749 -0.4993  1.9433
 5394SOL    HW227837   5.097   9.246   3.380 -0.6532 -0.6156 -0.2928
 5395SOL     OW27838   0.406   6.514   0.911 -0.1509 -0.1778  0.2006
 5395SOL    HW127839   0.474   6.556   0.971  3.2590  0.0679 -3.5928
 5395SOL    HW227840   0.419   6.414   0.912 -0.4425 -0.2134  0.3169
 5396SOL     OW27841   8.703   8.084   3.992 -0.2110 -0.9347  0.7648
 5396SOL    HW127842   8.628   8.097   3.927  0.6455  0.7734  0.0963
 5396SOL    HW227843   8.674   8.020   4.064 -2.1056 -0.7388  0.2070
 5397SOL     OW27844   0.400   6.522   3.831 -0.4424  0.1137 -0.3609
 5397SOL    HW127845   0.380   6.455   3.902  2.0188 -0.5927 -0.2885
 5397SOL    HW227846   0.481   6.493   3.779 -0.4798  2.0606 -1.5635
 5398SOL     OW27847   9.177   8.793   1.920 -0.0804  0.2637 -0.1546
 5398SOL    HW127848   9.082   8.769   1.898 -0.8834  1.4696  1.9000
 5398SOL    HW227849   9.202   8.877   1.871 -0.3530  0.4018 -0.0586
 5399SOL     OW27850   2.507   1.149   0.605 -0.6488 -0.6287  0.2216
 5399SOL    HW127851   2.456   1.063   0.616 -0.6125 -0.3777  2.6542
 5399SOL    HW227852   2.484   1.211   0.680 -0.8478  1.6099 -1.6391
 5400SOL     OW27853   1.773   3.885   7.137  0.0745  0.4064  0.0698
 5400SOL    HW127854   1.686   3.835   7.138  1.2259 -1.6276 -0.3342
 5400SOL    HW227855   1.832   3.849   7.065  1.4000  1.5524  0.5573
 5401SOL     OW27856   0.212   3.997   5.925  0.3527  0.9345  0.3064
 5401SOL    HW127857   0.260   3.984   6.012 -0.2526 -3.1554  0.1388
 5401SOL    HW227858   0.238   3.924   5.862 -3.3714  0.7073 -1.0625
 5402SOL     OW27859   7.379   6.755   4.564 -0.2441 -0.5708  0.3667
 5402SOL    HW127860   7.465   6.709   4.586 -1.3597 -1.8158  2.2174
 5402SOL    HW227861   7.394   6.854   4.566  1.2406 -0.7690  0.2237
 5403SOL     OW27862   8.722   3.949   7.560 -0.5468 -0.1939 -0.4128
 5403SOL    HW127863   8.729   3.856   7.526 -0.4438 -0.8155  1.2736
 5403SOL    HW227864   8.626   3.972   7.577 -0.5478 -0.0888 -0.5588
 5404SOL     OW27865   9.847   1.317   1.938  0.0943 -0.2611  0.4922
 5404SOL    HW127866   9.934   1.345   1.897 -0.9082  1.1531 -0.7128
 5404SOL    HW227867   9.861   1.235   1.993  1.7825 -1.2653 -1.3854
 5405SOL     OW27868   0.706   5.760   4.385 -0.4531 -0.2292  0.6047
 5405SOL    HW127869   0.756   5.846   4.369 -0.0371 -0.2870  1.5842
 5405SOL    HW227870   0.611   5.772   4.358 -0.1854  0.2539 -0.1577
 5406SOL     OW27871   6.990   7.230   6.784 -0.1833  0.0208 -0.0918
 5406SOL    HW127872   7.083   7.265   6.793 -0.0605  0.4024 -2.4907
 5406SOL    HW227873   6.925   7.306   6.795 -0.2902 -0.3917  2.4533
 5407SOL     OW27874   5.814   0.209   3.301 -0.0959  0.2055  0.0494
 5407SOL    HW127875   5.767   0.287   3.261 -1.5161 -0.5177  0.2535
 5407SOL    HW227876   5.829   0.140   3.230  2.1543  1.0941 -0.3824
 5408SOL     OW27877   3.031   4.011   1.461  0.7189  0.1057 -0.0003
 5408SOL    HW127878   2.975   3.928   1.462 -0.0720  0.6343  0.8930
 5408SOL    HW227879   3.061   4.029   1.367 -1.2586  0.2176 -0.6492
 5409SOL     OW27880   4.861   8.019   5.320 -0.1254 -0.5490 -0.0824
 5409SOL    HW127881   4.801   8.098   5.338 -1.6209 -1.6694 -0.0339
 5409SOL    HW227882   4.956   8.047   5.330 -0.6722  0.9280  1.2615
 5410SOL     OW27883   9.052   4.350   2.091 -0.5607  0.2711 -0.4225
 5410SOL    HW127884   9.112   4.272   2.073  0.5309  0.5070  1.9408
 5410SOL    HW227885   8.958   4.318   2.103 -0.1285 -0.7023  0.4782
 5411SOL     OW27886   9.190   3.780   0.718 -0.6774 -0.1457  0.2552
 5411SOL    HW127887   9.213   3.703   0.777  2.3068  0.6642  0.2060
 5411SOL    HW227888   9.194   3.750   0.622 -1.3442 -0.3655  0.2884
 5412SOL     OW27889   7.730   9.790   6.603  0.1349 -0.0892  0.2110
 5412SOL    HW127890   7.650   9.742   6.569  0.5219 -1.1151  0.7115
 5412SOL    HW227891   7.735   9.880   6.562 -1.2666 -0.0204  0.1682
 5413SOL     OW27892   5.363   1.851   6.532 -0.2195 -0.4030  0.1135
 5413SOL    HW127893   5.410   1.808   6.609 -1.7553 -1.6494  0.4048
 5413SOL    HW227894   5.385   1.801   6.448 -1.7655 -1.6329  0.4056
 5414SOL     OW27895   1.690   0.875   7.858  0.5993  0.1324  0.4844
 5414SOL    HW127896   1.696   0.869   7.758  0.3030 -0.7547  0.5141
 5414SOL    HW227897   1.717   0.967   7.887 -0.7389  0.8767 -0.5333
 5415SOL     OW27898   4.544   6.471   2.243  0.2545 -0.5600  0.1949
 5415SOL    HW127899   4.582   6.393   2.194  0.4154 -0.1353 -0.3675
 5415SOL    HW227900   4.503   6.535   2.177  0.3550 -0.0477  0.6242
 5416SOL     OW27901   9.094   7.925   2.355 -0.2098 -0.1295  0.2052
 5416SOL    HW127902   9.037   7.923   2.438  0.9611  0.3322  1.0330
 5416SOL    HW227903   9.071   8.006   2.301 -0.4486 -0.0299  0.4574
 5417SOL     OW27904   4.635   8.575   6.934 -0.3637 -0.1272  0.2979
 5417SOL    HW127905   4.618   8.595   7.031  0.4122  0.2474  0.3558
 5417SOL    HW227906   4.723   8.529   6.924 -0.4148 -0.1098 -0.2437
 5418SOL     OW27907   8.557   0.450   6.998  0.5729  0.1374  0.3742
 5418SOL    HW127908   8.607   0.490   6.921 -0.3906  0.3568 -0.1437
 5418SOL    HW227909   8.460   0.476   6.993  0.7961  1.5277  2.5648
 5419SOL     OW27910   9.544   7.262   5.045 -0.1073  0.2355 -0.1725
 5419SOL    HW127911   9.602   7.341   5.065  0.0720 -0.0155  0.3192
 5419SOL    HW227912   9.550   7.240   4.948  0.9007 -0.0035 -0.0608
 5420SOL     OW27913   3.502   9.823   2.627 -0.4107  0.2298 -0.7669
 5420SOL    HW127914   3.591   9.868   2.623 -0.1563 -0.2967 -1.0724
 5420SOL    HW227915   3.480   9.786   2.537 -0.8687  0.2294 -0.6532
 5421SOL     OW27916   4.933   0.174   4.004  0.2361  0.1045  0.1757
 5421SOL    HW127917   4.880   0.254   3.976 -0.1944  0.2900  1.4935
 5421SOL    HW227918   4.993   0.145   3.929  0.6083  1.8354 -0.2047
 5422SOL     OW27919   9.051   4.525   1.560 -0.0587 -0.1564  0.2048
 5422SOL    HW127920   9.003   4.507   1.646 -0.4807 -0.8297 -0.1675
 5422SOL    HW227921   9.064   4.624   1.549  0.8786 -0.1222  1.5131
 5423SOL     OW27922   3.838   8.140   6.780  0.7751 -0.0255  0.0502
 5423SOL    HW127923   3.766   8.081   6.818  0.7986 -0.7093 -0.9526
 5423SOL    HW227924   3.802   8.190   6.702  0.4023  2.2270  1.6142
 5424SOL     OW27925   0.569   3.963   6.518 -0.7513 -0.0748  0.0726
 5424SOL    HW127926   0.620   4.038   6.560 -1.8798 -0.2038  1.7077
 5424SOL    HW227927   0.528   3.995   6.432 -0.0581  0.7715  0.0489
 5425SOL     OW27928   3.612   8.157   1.342  0.2439  0.2241  0.0070
 5425SOL    HW127929   3.596   8.248   1.304  0.8218 -0.2933 -1.5557
 5425SOL    HW227930   3.534   8.130   1.399 -0.2601  1.3942 -0.1111
 5426SOL     OW27931   8.203   4.631   6.333 -0.3013 -0.9803 -0.0694
 5426SOL    HW127932   8.214   4.534   6.354  1.6110 -0.9197 -0.7299
 5426SOL    HW227933   8.280   4.662   6.278 -1.0448  0.8559 -0.1022
 5427SOL     OW27934   3.455   7.044   3.323  0.5193 -0.1900 -0.2507
 5427SOL    HW127935   3.417   7.028   3.232 -0.0297  0.9918 -0.2392
 5427SOL    HW227936   3.524   7.117   3.318 -2.0018  2.3490  0.8443
 5428SOL     OW27937   8.083   4.705   5.287 -0.0565 -0.1209  0.1471
 5428SOL    HW127938   8.076   4.625   5.227 -2.6929  0.0850  0.1190
 5428SOL    HW227939   8.003   4.763   5.274  0.0116  0.6481  2.8672
 5429SOL     OW27940   7.858   1.018   4.747  0.5277 -0.5788 -0.3700
 5429SOL    HW127941   7.884   0.931   4.706 -2.0465 -0.7410 -1.7803
 5429SOL    HW227942   7.884   1.093   4.686  1.8769 -0.4162  0.3961
 5430SOL     OW27943   3.562   6.421   7.717 -0.1983 -0.2919 -0.0151
 5430SOL    HW127944   3.565   6.423   7.617  1.7657 -1.2920  0.0045
 5430SOL    HW227945   3.493   6.485   7.749 -0.4325  0.4865 -1.9924
 5431SOL     OW27946   1.687   6.055   1.708  0.2096  0.6237 -0.1288
 5431SOL    HW127947   1.646   5.974   1.666  1.5364  0.3205 -0.8501
 5431SOL    HW227948   1.721   6.032   1.799  2.4062 -0.1684 -1.1206
 5432SOL     OW27949   1.890   1.491   3.404 -0.0610 -0.0573  0.0010
 5432SOL    HW127950   1.968   1.500   3.342  0.7522 -1.9961  0.7076
 5432SOL    HW227951   1.921   1.502   3.499 -0.6152 -0.9292  0.2896
 5433SOL     OW27952   6.047   1.092   6.104 -0.6488  0.0294 -0.3353
 5433SOL    HW127953   5.991   1.023   6.149  0.7867 -1.0506 -0.1665
 5433SOL    HW227954   5.995   1.136   6.031 -2.4517  0.6299  1.2766
 5434SOL     OW27955   8.790   7.862   2.392  0.4604  0.5618  0.4012
 5434SOL    HW127956   8.711   7.882   2.450 -0.3528 -1.8493  0.1875
 5434SOL    HW227957   8.874   7.873   2.445 -0.0868  1.4782  1.1087
 5435SOL     OW27958   7.894   0.300   3.975  0.1034  0.4196  0.3681
 5435SOL    HW127959   7.930   0.210   3.950  0.3890  0.3396  1.0529
 5435SOL    HW227960   7.823   0.327   3.909 -0.6017 -0.6982  0.6522
 5436SOL     OW27961   7.537   9.790   0.809  0.4039  0.3354 -0.4572
 5436SOL    HW127962   7.454   9.834   0.776  0.0166  0.9509  1.2683
 5436SOL    HW227963   7.617   9.842   0.778  0.0430  0.9300 -0.4071
 5437SOL     OW27964   3.275   7.231   2.742 -0.0001  0.2559 -0.2436
 5437SOL    HW127965   3.298   7.323   2.710  0.9624  1.0410  2.6181
 5437SOL    HW227966   3.186   7.233   2.786  0.2315 -0.0982  0.2346
 5438SOL     OW27967   3.970   6.619   3.087  0.1979  0.4410  0.2084
 5438SOL    HW127968   3.922   6.676   3.021 -0.6443  0.9790  1.2621
 5438SOL    HW227969   3.905   6.556   3.130  0.8649 -0.3685  0.0447
 5439SOL     OW27970   2.959   1.959   2.414  0.0662 -0.5716 -0.1931
 5439SOL    HW127971   3.042   2.015   2.410 -0.7934  0.7182 -0.1574
 5439SOL    HW227972   2.930   1.948   2.509 -1.2352  1.1342 -0.3727
 5440SOL     OW27973   2.865   6.890   0.299 -0.0137 -0.5578 -0.1023
 5440SOL    HW127974   2.959   6.877   0.329 -0.4993 -2.9642  0.4750
 5440SOL    HW227975   2.840   6.819   0.234 -0.9625  0.9608 -1.4379
 5441SOL     OW27976   7.855   8.757   3.103  0.1936  0.4051 -0.4062
 5441SOL    HW127977   7.813   8.691   3.041  2.1999 -0.1506 -1.2212
 5441SOL    HW227978   7.858   8.718   3.195  0.0035 -0.0361 -0.5845
 5442SOL     OW27979   6.448   1.311   3.483  0.3830 -0.3712 -0.8739
 5442SOL    HW127980   6.476   1.360   3.566  0.7734  0.0934 -1.2785
 5442SOL    HW227981   6.349   1.296   3.485  0.2090  0.7564 -0.9234
 5443SOL     OW27982   3.793   1.140   7.578 -0.1864  0.0062 -0.2237
 5443SOL    HW127983   3.820   1.045   7.569  0.6736  0.2781 -0.4860
 5443SOL    HW227984   3.773   1.179   7.488 -0.4761  0.0940 -0.1240
 5444SOL     OW27985   9.202   9.879   3.941 -0.6880 -0.0576 -0.3700
 5444SOL    HW127986   9.222   9.875   4.039  1.6153  0.5202 -0.7903
 5444SOL    HW227987   9.213   9.789   3.900 -0.8981 -0.1429 -0.2404
 5445SOL     OW27988   2.306   8.361   6.891 -0.5121 -0.2189 -0.1089
 5445SOL    HW127989   2.265   8.334   6.978 -0.1292  1.3957  0.5824
 5445SOL    HW227990   2.234   8.385   6.826 -0.8591 -2.7140 -0.6970
 5446SOL     OW27991   2.694   6.874   8.186  0.8561  0.3097  0.0230
 5446SOL    HW127992   2.654   6.917   8.266 -0.6673 -1.0856  0.0439
 5446SOL    HW227993   2.744   6.792   8.213  0.8948  0.1985 -0.3748
 5447SOL     OW27994   6.559   3.330   8.199 -0.0093 -0.0221 -0.3851
 5447SOL    HW127995   6.588   3.236   8.216 -1.1929 -0.4447 -0.6543
 5447SOL    HW227996   6.638   3.385   8.172  0.7472 -0.8556  0.1252
 5448SOL     OW27997   1.557   7.130   6.204 -0.7123  0.0695  0.4442
 5448SOL    HW127998   1.529   7.149   6.298 -0.9768  0.6602  0.2464
 5448SOL    HW227999   1.585   7.215   6.159 -1.6408 -0.0313 -0.3523
 5449SOL     OW28000   0.474   3.036   4.026 -0.1856  0.0523  0.3825
 5449SOL    HW128001   0.541   2.962   4.025 -1.1213 -0.8082  0.4480
 5449SOL    HW228002   0.382   2.997   4.034 -0.8089  1.1520 -1.3347
 5450SOL     OW28003   5.577   7.514   3.965 -1.0053 -0.3264  0.2485
 5450SOL    HW128004   5.545   7.503   3.871 -1.5455 -0.5296  0.4577
 5450SOL    HW228005   5.654   7.451   3.982  0.1590  0.8608 -0.5515
 5451SOL     OW28006   7.824   4.355   6.605 -0.4211 -0.3369 -0.5313
 5451SOL    HW128007   7.893   4.310   6.548 -1.4238  0.1554 -2.1609
 5451SOL    HW228008   7.797   4.442   6.563 -2.0363 -0.5152  0.0985
 5452SOL     OW28009   3.878   7.455   5.478  0.1378  0.3165 -0.1069
 5452SOL    HW128010   3.819   7.382   5.511 -0.3694  0.6061 -0.3658
 5452SOL    HW228011   3.960   7.415   5.437  0.4801 -0.0608  0.9390
 5453SOL     OW28012   4.701   7.205   4.011 -0.3447  0.4584  0.2108
 5453SOL    HW128013   4.682   7.181   3.915 -1.8800 -1.7810  1.0304
 5453SOL    HW228014   4.615   7.207   4.062  0.6831 -0.6418  2.0174
 5454SOL     OW28015   2.345   7.494   5.437 -0.1562  0.1849  0.0106
 5454SOL    HW128016   2.315   7.588   5.450  0.7860  0.6754 -1.3660
 5454SOL    HW228017   2.421   7.491   5.372 -0.3628 -1.5507 -0.1772
 5455SOL     OW28018   0.047   9.198   6.252  0.0465  0.9896  0.1806
 5455SOL    HW128019   0.018   9.286   6.213 -3.3266 -0.8359 -1.6620
 5455SOL    HW228020   0.001   9.184   6.339 -2.1720 -0.4230 -1.1662
 5456SOL     OW28021   3.578   1.510   5.339 -0.0660  0.1860 -0.7218
 5456SOL    HW128022   3.664   1.543   5.378 -0.8137  0.5351  0.6323
 5456SOL    HW228023   3.594   1.421   5.295  1.1894  0.6912 -1.3274
 5457SOL     OW28024   1.134   6.583   1.865  0.1591  1.2068  0.3567
 5457SOL    HW128025   1.060   6.541   1.813  0.1760  1.5606  0.0396
 5457SOL    HW228026   1.201   6.622   1.802  1.2623 -0.2225  0.6342
 5458SOL     OW28027   6.987   5.039   0.988  0.3501  0.6344  0.0275
 5458SOL    HW128028   7.011   5.072   1.080 -1.5627 -0.6223  1.0198
 5458SOL    HW228029   6.976   5.117   0.926 -2.2261  1.8159  1.8597
 5459SOL     OW28030   0.994   1.515   8.142 -0.1490 -0.1141  0.2932
 5459SOL    HW128031   0.969   1.498   8.238  1.8723  3.6820  1.5813
 5459SOL    HW228032   1.045   1.436   8.108 -1.0930 -1.6318  2.2459
 5460SOL     OW28033   9.253   0.201   0.729  0.0336  0.2734  1.0363
 5460SOL    HW128034   9.201   0.253   0.661  0.0035 -0.6427  0.3602
 5460SOL    HW228035   9.317   0.263   0.775  0.4262  0.8041 -0.1873
 5461SOL     OW28036   9.254   9.194   6.123  0.6417  0.1036  0.6287
 5461SOL    HW128037   9.181   9.195   6.192  1.4377 -0.1469  1.4897
 5461SOL    HW228038   9.319   9.268   6.143 -0.5497  1.7512 -1.4254
 5462SOL     OW28039   1.655   3.105   5.073  0.8414  0.1212  0.6100
 5462SOL    HW128040   1.598   3.090   5.154 -0.3863  0.0347 -0.2549
 5462SOL    HW228041   1.666   3.203   5.058 -0.6948  0.1714 -0.3122
 5463SOL     OW28042   0.767   4.095   6.116  0.4788 -0.1177  0.7845
 5463SOL    HW128043   0.808   4.035   6.047  0.4805  1.3227 -0.4933
 5463SOL    HW228044   0.685   4.139   6.078 -0.2487 -0.2852  2.1357
 5464SOL     OW28045   4.174   4.114   0.514  0.0943 -0.5437 -0.2251
 5464SOL    HW128046   4.200   4.211   0.515  0.2972 -0.6019  0.4552
 5464SOL    HW228047   4.185   4.076   0.606  0.3225 -1.2930 -0.5622
 5465SOL     OW28048   0.631   8.056   2.179 -0.4562 -0.1796 -1.0865
 5465SOL    HW128049   0.556   8.064   2.245 -0.0093  2.7406 -0.8742
 5465SOL    HW228050   0.596   8.066   2.086 -0.1422  3.3618 -0.9029
 5466SOL     OW28051   4.251   3.547   7.814 -0.1073 -0.1218  0.1571
 5466SOL    HW128052   4.350   3.535   7.829  0.1239  1.3720 -0.0941
 5466SOL    HW228053   4.214   3.467   7.768  0.5496 -1.7141  2.2911
 5467SOL     OW28054   2.115   7.817   5.337 -0.5572 -0.7663 -0.2685
 5467SOL    HW128055   2.096   7.915   5.344  1.0626 -0.4585  0.0644
 5467SOL    HW228056   2.033   7.765   5.361 -1.3499  0.5080 -0.1873
 5468SOL     OW28057   1.874   7.992   2.951  0.4150  0.5977  0.2314
 5468SOL    HW128058   1.908   7.913   3.002  2.1060  0.8229 -0.4963
 5468SOL    HW228059   1.795   7.965   2.896  0.8838 -0.5726  0.0983
 5469SOL     OW28060   1.842   2.710   6.538  0.1782  0.0100  0.1629
 5469SOL    HW128061   1.815   2.702   6.443  1.3587  2.0430 -0.3950
 5469SOL    HW228062   1.765   2.740   6.593 -0.1978  0.0217 -0.3735
 5470SOL     OW28063   5.945   0.995   3.717 -0.7522  0.0230 -0.0262
 5470SOL    HW128064   5.903   0.962   3.633  2.0407  1.1179 -1.9431
 5470SOL    HW228065   6.024   0.937   3.739 -0.6958  0.5318  1.1371
 5471SOL     OW28066   9.555   6.275   5.342  1.1531  0.3028 -0.0597
 5471SOL    HW128067   9.589   6.244   5.430  1.0775  3.4416  1.1335
 5471SOL    HW228068   9.604   6.358   5.314 -0.2935  0.5651 -1.9438
 5472SOL     OW28069   0.521   2.396   5.831 -0.5046  0.3724 -0.0245
 5472SOL    HW128070   0.493   2.426   5.922 -1.0730 -0.1191 -0.0333
 5472SOL    HW228071   0.565   2.306   5.838  0.2609  0.7387 -0.1238
 5473SOL     OW28072   0.246   6.301   1.442  0.1173  0.8347  0.1725
 5473SOL    HW128073   0.267   6.290   1.345  0.9221  1.4252  0.2716
 5473SOL    HW228074   0.194   6.385   1.455  0.5374  1.0709  0.3260
 5474SOL     OW28075   8.095   3.493   5.733 -0.0868  0.8775  0.1018
 5474SOL    HW128076   8.000   3.469   5.710  0.2279  1.4690 -1.8792
 5474SOL    HW228077   8.119   3.579   5.689  0.7398  1.7786  2.2641
 5475SOL     OW28078   7.023   1.856   3.130 -0.1211  0.1974  0.0645
 5475SOL    HW128079   7.097   1.813   3.182 -0.3899  2.3602  2.2612
 5475SOL    HW228080   6.950   1.789   3.116  0.7027 -0.9126  0.9232
 5476SOL     OW28081   3.058   9.572   3.084 -0.1561 -0.2079  0.7670
 5476SOL    HW128082   3.084   9.484   3.121 -1.9765 -1.0580  0.0679
 5476SOL    HW228083   3.054   9.640   3.157 -1.2994 -1.2982  1.7213
 5477SOL     OW28084   6.589   2.470   0.630  0.5242 -0.4531  0.1091
 5477SOL    HW128085   6.648   2.464   0.710 -0.5160  0.9919  1.0195
 5477SOL    HW228086   6.510   2.409   0.642  0.6113 -0.5900 -0.0197
 5478SOL     OW28087   0.040   2.611   0.780 -0.3248  0.5873  0.3646
 5478SOL    HW128088   0.105   2.686   0.773  0.4760 -0.1983 -0.7555
 5478SOL    HW228089   0.043   2.571   0.872  0.8178  0.5046  0.2907
 5479SOL     OW28090   2.920   6.241   3.833  0.1142  0.4085 -0.2678
 5479SOL    HW128091   2.889   6.251   3.927 -0.0742 -1.7805 -0.0631
 5479SOL    HW228092   3.016   6.266   3.826  0.1408  0.5163  0.5137
 5480SOL     OW28093   9.655   9.836   2.786 -0.0602  0.4631  0.4975
 5480SOL    HW128094   9.667   9.794   2.696 -0.8393  1.7870 -0.2371
 5480SOL    HW228095   9.730   9.900   2.803  0.3436 -0.1378  1.0006
 5481SOL     OW28096   8.021   3.375   4.071 -0.1353  0.6799 -0.0188
 5481SOL    HW128097   7.985   3.468   4.080 -1.8110  0.2921 -2.3568
 5481SOL    HW228098   8.021   3.348   3.975 -0.7859 -2.1996  0.7483
 5482SOL     OW28099   1.579   9.558   5.321 -0.4567  0.4837  0.5202
 5482SOL    HW128100   1.613   9.486   5.382  0.9443  0.4733 -0.2511
 5482SOL    HW228101   1.620   9.645   5.347  0.5370  0.3961 -0.7050
 5483SOL     OW28102   7.688   3.906   2.000 -0.1045 -0.2779  0.1544
 5483SOL    HW128103   7.726   3.857   2.079  1.5594  0.0792 -0.3920
 5483SOL    HW228104   7.682   3.843   1.922 -1.9725 -0.6921  0.6235
 5484SOL     OW28105   3.213   9.352   1.902  0.1578 -0.1430 -0.2945
 5484SOL    HW128106   3.257   9.357   1.813  1.1758  0.0143  0.2182
 5484SOL    HW228107   3.190   9.256   1.922 -0.9379 -0.0690 -1.1333
 5485SOL     OW28108   2.171   5.772   1.490  0.2850  0.2123 -0.5165
 5485SOL    HW128109   2.086   5.727   1.463  0.0356  0.7660 -0.6581
 5485SOL    HW228110   2.236   5.703   1.523 -0.6010 -0.0923  0.6141
 5486SOL     OW28111   4.182   6.918   2.692 -0.2394 -0.3851 -0.5280
 5486SOL    HW128112   4.169   6.833   2.641 -0.0640 -0.0375 -1.1564
 5486SOL    HW228113   4.280   6.932   2.708 -0.1465  0.4963 -1.8016
 5487SOL     OW28114   3.638   5.427   4.482  0.6226  0.5978  0.3858
 5487SOL    HW128115   3.704   5.499   4.506  0.1356  1.3218 -0.4391
 5487SOL    HW228116   3.556   5.469   4.443 -0.6084 -0.2386  1.9819
 5488SOL     OW28117   6.439   7.416   4.403 -0.1598  0.4109  0.5075
 5488SOL    HW128118   6.404   7.382   4.315 -0.7088  2.0138  0.1006
 5488SOL    HW228119   6.525   7.369   4.425 -0.4561 -0.6151 -0.4581
 5489SOL     OW28120   0.140   9.837   5.972 -0.8499  0.1110 -0.0377
 5489SOL    HW128121   0.122   9.930   6.004 -0.7846  0.0185  0.2696
 5489SOL    HW228122   0.058   9.781   5.984 -0.5733 -0.1298  0.7081
 5490SOL     OW28123   5.005   0.415   2.153 -0.1291  0.0863  0.1902
 5490SOL    HW128124   5.021   0.448   2.247 -0.4256 -2.0666  1.0276
 5490SOL    HW228125   4.979   0.492   2.095 -1.7140  1.2051  2.2854
 5491SOL     OW28126   4.812   5.121   1.079 -0.0557  0.2408 -0.1410
 5491SOL    HW128127   4.724   5.152   1.117 -0.4158 -1.1710  0.1808
 5491SOL    HW228128   4.881   5.191   1.095 -0.6492  0.4792  1.4304
 5492SOL     OW28129   9.766   4.548   1.543 -0.1420 -0.0443  0.4899
 5492SOL    HW128130   9.726   4.465   1.581  0.4967  0.3238  1.9965
 5492SOL    HW228131   9.817   4.596   1.614  0.9453  0.7391 -0.7941
 5493SOL     OW28132   3.098   8.080   1.943 -0.4955  0.0670  0.0478
 5493SOL    HW128133   3.109   8.048   2.037  1.0112 -0.4019 -0.2776
 5493SOL    HW228134   3.036   8.017   1.894  0.8221 -1.2134 -0.0106
 5494SOL     OW28135   8.802   7.411   2.936  0.2637  0.2003 -0.0955
 5494SOL    HW128136   8.730   7.480   2.939  0.0972 -0.0281  3.6837
 5494SOL    HW228137   8.763   7.323   2.907 -0.6955  0.4164  0.5036
 5495SOL     OW28138   6.322   9.366   1.992 -0.2348  0.2489 -0.4344
 5495SOL    HW128139   6.328   9.441   1.926  1.3782 -0.1383 -0.7457
 5495SOL    HW228140   6.300   9.403   2.082  0.2064  1.0724 -0.6579
 5496SOL     OW28141   9.995   5.641   6.387  0.0125  0.1494 -0.2511
 5496SOL    HW128142   9.934   5.619   6.312  2.0715 -0.8901 -1.6672
 5496SOL    HW228143  10.027   5.556   6.430 -0.0273  0.6915  0.8636
 5497SOL     OW28144   9.916   6.108   0.469 -0.0158  0.1921 -0.4680
 5497SOL    HW128145   9.948   6.195   0.431 -0.5287  2.0998  3.1496
 5497SOL    HW228146   9.823   6.121   0.506 -0.4712 -2.1599 -0.7308
 5498SOL     OW28147   1.829   9.548   7.396 -0.6841 -0.5849 -0.3793
 5498SOL    HW128148   1.921   9.512   7.381  1.0219  2.5126  2.0321
 5498SOL    HW228149   1.803   9.605   7.319 -0.5900 -1.4716 -1.0748
 5499SOL     OW28150   6.128   7.715   5.020 -0.1238 -0.2659  0.3089
 5499SOL    HW128151   6.122   7.799   5.075 -2.2445 -0.3267  0.2193
 5499SOL    HW228152   6.098   7.638   5.076 -0.8302 -0.5484 -0.4510
 5500SOL     OW28153   6.805   0.168   2.841  0.9020 -0.2631  0.3094
 5500SOL    HW128154   6.780   0.098   2.774 -1.5202 -0.1603  1.0724
 5500SOL    HW228155   6.899   0.152   2.873  0.6564 -2.6723 -0.1204
 5501SOL     OW28156   2.528   5.033   7.151 -0.4289 -0.3037 -0.3699
 5501SOL    HW128157   2.614   4.983   7.151 -0.3417 -0.1811  1.9356
 5501SOL    HW228158   2.544   5.127   7.121 -0.3136 -1.1081 -3.0094
 5502SOL     OW28159   2.444   3.167   5.757 -0.0439 -0.0865  0.3849
 5502SOL    HW128160   2.493   3.201   5.837  1.7227 -2.3878  0.3388
 5502SOL    HW228161   2.441   3.067   5.760 -2.9351 -0.0894 -0.7220
 5503SOL     OW28162   3.300   4.232   7.460 -0.1776  0.4750  0.1543
 5503SOL    HW128163   3.332   4.259   7.551 -2.0778  3.2782  0.0691
 5503SOL    HW228164   3.323   4.303   7.394 -0.6352 -0.5840 -1.1656
 5504SOL     OW28165   6.710   4.727   2.010  0.5048 -0.2496 -0.2183
 5504SOL    HW128166   6.749   4.781   1.936  2.7083 -2.7123 -0.9366
 5504SOL    HW228167   6.610   4.722   1.999  0.6271  0.9111 -1.9823
 5505SOL     OW28168   8.956   4.654   2.007 -0.2028 -0.4557 -0.1474
 5505SOL    HW128169   8.865   4.678   2.039  0.4198  0.3648  1.0473
 5505SOL    HW228170   8.982   4.564   2.043  0.2462  0.1905  1.1835
 5506SOL     OW28171   5.454   0.395   5.699  0.6368  0.3302 -0.0511
 5506SOL    HW128172   5.360   0.430   5.706  1.0947  1.8408 -1.1167
 5506SOL    HW228173   5.488   0.411   5.607  1.2996 -1.9252 -0.2269
 5507SOL     OW28174   5.547   4.399   7.338  0.1132 -0.4950 -0.3012
 5507SOL    HW128175   5.615   4.433   7.274  1.4727 -1.3947  0.6398
 5507SOL    HW228176   5.510   4.312   7.304 -0.0650 -0.3570 -0.4638
 5508SOL     OW28177   7.104   1.500   5.739 -0.6464 -0.0891 -0.1442
 5508SOL    HW128178   7.126   1.503   5.641  0.1735 -2.2894 -0.0572
 5508SOL    HW228179   7.128   1.587   5.781 -0.0343  0.5179 -1.7211
 5509SOL     OW28180   6.956   7.974   6.320  0.4031  0.7683 -0.0556
 5509SOL    HW128181   6.860   7.997   6.303  0.4846  0.3276 -1.1461
 5509SOL    HW228182   7.004   7.966   6.233  1.3175  0.4822  0.4720
 5510SOL     OW28183   0.598   7.927   5.895  0.4056 -0.3404  0.0523
 5510SOL    HW128184   0.580   7.934   5.797  2.1190 -0.5437 -0.2977
 5510SOL    HW228185   0.581   7.833   5.925 -1.8689  0.1347  0.3417
 5511SOL     OW28186   9.231   1.446   1.871 -0.0480  0.2824 -0.7763
 5511SOL    HW128187   9.133   1.445   1.850 -0.0790  2.7342 -0.8174
 5511SOL    HW228188   9.283   1.427   1.788 -0.4831 -1.8192 -0.5971
 5512SOL     OW28189   3.848   0.759   6.274 -0.5434 -0.0714 -0.2968
 5512SOL    HW128190   3.822   0.694   6.345 -0.1025 -0.6088 -0.6231
 5512SOL    HW228191   3.931   0.808   6.301  0.0462 -0.8023 -0.7573
 5513SOL     OW28192   9.073   3.679   8.050 -0.1022 -0.3047  0.9973
 5513SOL    HW128193   9.161   3.716   8.080 -0.5974  2.1656 -0.4636
 5513SOL    HW228194   9.089   3.607   7.982  0.7916 -0.5502  1.4584
 5514SOL     OW28195   2.837   2.154   0.069 -0.2193  0.2705  0.3185
 5514SOL    HW128196   2.933   2.183   0.058 -0.0869 -0.7291 -1.4753
 5514SOL    HW228197   2.777   2.232   0.051  0.2267  0.5171 -0.1367
 5515SOL     OW28198   6.126   1.937   6.023 -0.1283  0.1176  0.5705
 5515SOL    HW128199   6.096   1.873   5.953 -1.4230 -1.6557  2.6987
 5515SOL    HW228200   6.177   1.889   6.094  1.2294  1.8998  0.8500
 5516SOL     OW28201   7.812   9.430   5.306 -0.2907 -0.2052 -0.1092
 5516SOL    HW128202   7.773   9.505   5.360 -1.3737 -1.0045  0.2360
 5516SOL    HW228203   7.830   9.462   5.213 -0.8302  0.4595  0.0118
 5517SOL     OW28204   7.460   0.939   7.465  0.2399 -0.1232  0.3078
 5517SOL    HW128205   7.473   1.038   7.464  2.1344 -0.3426  0.4958
 5517SOL    HW228206   7.513   0.897   7.391  0.3853 -1.0838  0.9347
 5518SOL     OW28207   2.069   2.554   6.648 -0.1878  0.2220  0.4672
 5518SOL    HW128208   2.120   2.550   6.562 -0.4189  0.4503  0.3236
 5518SOL    HW228209   1.976   2.584   6.631 -0.4222 -0.3476  0.7125
 5519SOL     OW28210   1.494   0.836   1.153 -0.0122 -0.4932 -0.2193
 5519SOL    HW128211   1.496   0.894   1.072 -0.3687 -1.0751 -0.6481
 5519SOL    HW228212   1.552   0.876   1.224 -2.0131  1.6092  0.3158
 5520SOL     OW28213   8.949   3.108   6.552  0.1156 -0.0797  0.6012
 5520SOL    HW128214   9.047   3.125   6.550 -0.0143  0.8575  1.9928
 5520SOL    HW228215   8.899   3.194   6.548 -0.6842 -0.5978 -1.1615
 5521SOL     OW28216   4.959   0.561   5.257  0.3403 -0.0663  0.3677
 5521SOL    HW128217   4.985   0.624   5.184 -0.7698 -0.3786 -0.3099
 5521SOL    HW228218   5.040   0.535   5.310  1.1405  0.1800 -0.7347
 5522SOL     OW28219   8.152   4.073   5.176  0.4153 -0.4543  0.7283
 5522SOL    HW128220   8.182   4.162   5.210  2.7525 -0.8425 -0.1900
 5522SOL    HW228221   8.231   4.011   5.172 -0.5908 -1.6655 -1.4255
 5523SOL     OW28222   2.987   5.118   7.937 -0.4927 -0.2835  0.2172
 5523SOL    HW128223   3.038   5.121   7.851  0.8810 -1.1909  0.9800
 5523SOL    HW228224   2.959   5.210   7.962  2.7068  0.5730  0.9027
 5524SOL     OW28225   0.464   2.629   6.438 -0.3874 -0.0376 -0.8781
 5524SOL    HW128226   0.404   2.568   6.385 -1.4021  1.2277 -1.2348
 5524SOL    HW228227   0.440   2.624   6.535  0.8538 -1.6715 -0.6504
 5525SOL     OW28228   2.958   8.968   6.791 -0.0483 -0.3795  0.2731
 5525SOL    HW128229   3.029   8.905   6.824  0.5173  0.8381  1.4230
 5525SOL    HW228230   2.872   8.918   6.779 -0.0798 -1.0546  2.8812
 5526SOL     OW28231   1.842   5.248   5.121  0.0442  0.0962 -0.2879
 5526SOL    HW128232   1.833   5.289   5.212  0.4567  0.6557 -0.4978
 5526SOL    HW228233   1.883   5.314   5.058  1.2083 -0.8142 -0.5070
 5527SOL     OW28234   0.127   7.738   0.864  0.0429 -0.5364  0.2529
 5527SOL    HW128235   0.185   7.728   0.945  0.3769  0.4851  0.1464
 5527SOL    HW228236   0.047   7.794   0.888  0.4117  0.2153 -0.2507
 5528SOL     OW28237   8.495   1.008   1.903 -0.1947 -0.3101  0.0841
 5528SOL    HW128238   8.516   1.082   1.967 -0.3335 -0.6565  0.5276
 5528SOL    HW228239   8.580   0.974   1.862 -0.1929  0.5919 -0.6724
 5529SOL     OW28240   0.177   4.565   0.795 -0.1403 -0.2195 -0.0402
 5529SOL    HW128241   0.200   4.597   0.887 -0.1240 -0.3119 -0.0123
 5529SOL    HW228242   0.098   4.504   0.799 -2.0044  2.0924 -0.4304
 5530SOL     OW28243   8.312   9.613   2.415  0.2973  0.0077 -0.3191
 5530SOL    HW128244   8.385   9.674   2.385  1.2009 -0.5657  0.7030
 5530SOL    HW228245   8.259   9.657   2.487 -0.4272  0.4541 -1.1135
 5531SOL     OW28246   0.170   9.881   0.740 -0.4397 -0.0905  0.2827
 5531SOL    HW128247   0.145   9.913   0.831  1.1393  1.3403  0.2261
 5531SOL    HW228248   0.164   9.781   0.738  1.4817 -0.3186  2.5883
 5532SOL     OW28249   9.204   5.523   5.071 -0.0850  0.1537  0.0089
 5532SOL    HW128250   9.227   5.618   5.050  0.2286  0.3267  1.0981
 5532SOL    HW228251   9.165   5.518   5.163  0.1231 -0.8098  0.0468
 5533SOL     OW28252   2.681   9.223   6.569 -0.5835 -0.0842 -0.3801
 5533SOL    HW128253   2.587   9.234   6.539 -1.1552  0.2885  1.4585
 5533SOL    HW228254   2.714   9.132   6.543 -1.6386 -0.4234 -0.5366
 5534SOL     OW28255   3.069   4.100   6.272  0.9819 -0.1363  0.3457
 5534SOL    HW128256   3.167   4.119   6.269  0.9798  0.0307  1.1547
 5534SOL    HW228257   3.042   4.081   6.366  0.6646 -2.5202 -0.2023
 5535SOL     OW28258   4.681   6.905   2.733 -0.0408  0.1399  0.8430
 5535SOL    HW128259   4.717   6.842   2.801 -0.5358 -0.3649  0.6425
 5535SOL    HW228260   4.667   6.995   2.774 -1.7187 -0.5414  1.8084
 5536SOL     OW28261   7.864   8.719   3.690 -0.5424  0.2742 -0.5578
 5536SOL    HW128262   7.805   8.733   3.769 -1.8229  1.8142 -1.7394
 5536SOL    HW228263   7.938   8.657   3.714 -1.9622 -0.7646  1.3084
 5537SOL     OW28264   1.983   6.464   7.128  0.0666 -0.6426  0.3770
 5537SOL    HW128265   1.907   6.464   7.062  1.0068 -1.9112 -0.7337
 5537SOL    HW228266   1.953   6.420   7.213 -0.9995  0.5510  0.6367
 5538SOL     OW28267   2.077   6.622   7.931 -0.1996  0.4442 -0.7791
 5538SOL    HW128268   2.085   6.715   7.968  1.6264  0.3566 -0.8992
 5538SOL    HW228269   2.089   6.556   8.004 -0.8803  0.2942 -0.8018
 5539SOL     OW28270   1.613   7.821   3.163  0.4853  0.3203 -0.2231
 5539SOL    HW128271   1.705   7.839   3.196  0.6993 -0.2978 -0.4826
 5539SOL    HW228272   1.617   7.785   3.069 -0.0748  1.3399 -0.6489
 5540SOL     OW28273   1.889   0.185   3.247  0.0775  0.2757  0.4474
 5540SOL    HW128274   1.831   0.142   3.178  1.2991 -0.5345 -0.1003
 5540SOL    HW228275   1.853   0.166   3.338 -0.7172  0.1061  0.1016
 5541SOL     OW28276   9.082   0.644   0.071 -0.0364 -0.7298 -0.5622
 5541SOL    HW128277   9.168   0.623   0.119 -0.1609 -0.4079 -0.1953
 5541SOL    HW228278   9.065   0.574   0.001  0.7940 -0.5080 -0.9949
 5542SOL     OW28279   1.667   0.581   0.454  0.1058 -0.0838  0.1770
 5542SOL    HW128280   1.724   0.499   0.459  1.1312  0.7092  2.1060
 5542SOL    HW228281   1.610   0.588   0.536 -1.2262  0.2496 -0.7541
 5543SOL     OW28282   7.589   6.987   4.941  0.0751  0.3853  1.0348
 5543SOL    HW128283   7.660   7.035   4.888 -0.4093  0.6834  0.6548
 5543SOL    HW228284   7.601   6.888   4.931  0.0473  0.4404  0.4505
 5544SOL     OW28285   8.996   9.413   7.122 -0.4648 -0.4242  0.6186
 5544SOL    HW128286   9.005   9.344   7.050  1.6584 -1.1709  1.5624
 5544SOL    HW228287   9.078   9.471   7.122 -1.1912  0.6032  1.3705
 5545SOL     OW28288   2.494   7.534   1.691 -0.1170  0.2027  0.1160
 5545SOL    HW128289   2.517   7.437   1.698 -0.6343 -0.1169 -2.0504
 5545SOL    HW228290   2.519   7.581   1.775 -1.6806 -2.1851  1.9509
 5546SOL     OW28291   7.626   6.212   1.127 -0.0791  0.3197  0.2007
 5546SOL    HW128292   7.615   6.112   1.127  2.4509  0.0155  0.6584
 5546SOL    HW228293   7.569   6.252   1.199  0.3569 -0.9859  1.2876
 5547SOL     OW28294   8.107   7.093   3.796  0.4786  0.1594  0.3800
 5547SOL    HW128295   8.107   7.041   3.881 -1.4934 -0.8034 -0.1963
 5547SOL    HW228296   8.094   7.190   3.818  0.0693 -0.0666  1.1813
 5548SOL     OW28297   9.891   9.163   2.935 -0.2796 -0.2299 -0.4497
 5548SOL    HW128298   9.942   9.088   2.977 -0.7972  0.3003  1.1868
 5548SOL    HW228299   9.938   9.193   2.853 -0.4005 -2.7542 -1.4850
 5549SOL     OW28300   0.195   2.634   4.598  0.3575  0.1194 -0.5460
 5549SOL    HW128301   0.145   2.631   4.685  0.9674 -0.7252 -0.2180
 5549SOL    HW228302   0.153   2.702   4.538  0.5463  1.4171  0.7794
 5550SOL     OW28303   1.775   9.745   2.916 -0.0006 -0.7944  0.3799
 5550SOL    HW128304   1.695   9.804   2.927  1.9225  2.6034 -2.2905
 5550SOL    HW228305   1.802   9.707   3.004  0.0671  4.4203  2.8238
 5551SOL     OW28306   2.088   9.301   2.927  0.3849  0.4794  0.5154
 5551SOL    HW128307   1.996   9.301   2.887  0.7542 -0.0964 -0.3671
 5551SOL    HW228308   2.136   9.384   2.900 -0.0551  1.0206  1.4004
 5552SOL     OW28309   9.802   9.875   7.586  0.4362 -0.2228  0.1531
 5552SOL    HW128310   9.894   9.914   7.595  0.6728 -0.1094 -2.3407
 5552SOL    HW228311   9.809   9.782   7.551 -0.4462  0.4186 -1.7943
 5553SOL     OW28312   1.952   2.744   1.168  0.1397 -0.4232 -0.2525
 5553SOL    HW128313   1.866   2.698   1.190 -0.3489  0.5216 -0.1520
 5553SOL    HW228314   1.956   2.761   1.070 -0.2999  0.5252 -0.1135
 5554SOL     OW28315   0.449   3.467   1.767 -0.1527 -0.0181  0.4987
 5554SOL    HW128316   0.400   3.549   1.738  0.3531 -0.1974 -0.9218
 5554SOL    HW228317   0.520   3.446   1.700  0.4873 -0.9496  1.4599
 5555SOL     OW28318   1.582   9.965   6.521  0.4552  0.4996 -0.4479
 5555SOL    HW128319   1.552   9.980   6.427  1.9149  0.1697 -0.9834
 5555SOL    HW228320   1.612  10.051   6.562 -0.0043  0.6108 -0.3485
 5556SOL     OW28321   0.317   5.749   3.647  0.2641  0.6227 -0.0353
 5556SOL    HW128322   0.348   5.786   3.735  0.8001 -2.8010  1.3060
 5556SOL    HW228323   0.218   5.759   3.640  0.1965  0.7714  1.0476
 5557SOL     OW28324   7.447   9.296   1.932  0.1159 -0.5203 -0.0640
 5557SOL    HW128325   7.544   9.307   1.908 -0.1695 -0.2092 -1.0762
 5557SOL    HW228326   7.440   9.246   2.018  1.2615  2.3230  1.7308
 5558SOL     OW28327   2.865   4.390   0.041  0.0129  0.0045  0.2642
 5558SOL    HW128328   2.870   4.291   0.032 -1.4376 -0.0365 -0.1381
 5558SOL    HW228329   2.792   4.415   0.105  0.9620  0.7904  1.0614
 5559SOL     OW28330   9.023   0.910   0.136 -0.0841  0.0188  0.4127
 5559SOL    HW128331   9.048   0.815   0.113 -0.9886 -0.0247 -0.4341
 5559SOL    HW228332   9.040   0.926   0.233  1.0333 -0.7050  0.3535
 5560SOL     OW28333   0.961   1.570   3.425  0.2516 -0.0090  0.4918
 5560SOL    HW128334   0.878   1.517   3.442  0.3842 -0.7176 -0.9944
 5560SOL    HW228335   1.016   1.525   3.354 -0.2776  2.7672 -1.8118
 5561SOL     OW28336   8.770   0.829   2.083 -0.2910  0.4719 -0.2480
 5561SOL    HW128337   8.768   0.842   1.984  1.3011 -1.0922 -0.5171
 5561SOL    HW228338   8.865   0.834   2.115 -0.6778 -0.2006  1.0316
 5562SOL     OW28339   6.628   3.930   0.275  0.2946  0.1062 -0.0245
 5562SOL    HW128340   6.571   3.946   0.194  0.8857 -0.4201 -0.5530
 5562SOL    HW228341   6.718   3.971   0.261 -0.8105  3.3959  1.9374
 5563SOL     OW28342   9.985   5.802   3.178  0.2881  0.2460 -0.1326
 5563SOL    HW128343   9.996   5.724   3.240 -1.4146 -0.1477 -0.2947
 5563SOL    HW228344  10.017   5.778   3.087  1.2855  0.2848  0.2065
 5564SOL     OW28345   2.810   5.934   1.538 -0.2236  0.3093  0.2223
 5564SOL    HW128346   2.732   5.967   1.593 -1.3977  0.1902 -1.3327
 5564SOL    HW228347   2.818   5.990   1.456 -0.5573 -1.5677 -1.1197
 5565SOL     OW28348   2.359   1.174   1.283 -0.0038  0.4008  0.0940
 5565SOL    HW128349   2.350   1.236   1.205  2.3895  1.9561  0.9805
 5565SOL    HW228350   2.330   1.222   1.366 -0.4024 -0.4836  0.4641
 5566SOL     OW28351   9.475   6.210   0.134  0.3636 -0.3508  0.0696
 5566SOL    HW128352   9.486   6.252   0.225  2.0841  0.1331 -0.3495
 5566SOL    HW228353   9.443   6.116   0.145  0.7067 -0.3494  1.1846
 5567SOL     OW28354   5.089   2.388   5.076  0.4951 -0.3446  0.2980
 5567SOL    HW128355   5.126   2.342   5.156  0.2011 -0.0945  0.5799
 5567SOL    HW228356   4.989   2.379   5.075  0.1422  2.7460  1.9156
 5568SOL     OW28357   3.764   8.867   0.845 -0.1483 -0.3901  0.2113
 5568SOL    HW128358   3.735   8.803   0.915 -1.6989 -0.2121 -0.2630
 5568SOL    HW228359   3.687   8.889   0.785  1.1729 -0.6726 -1.6547
 5569SOL     OW28360   0.225   8.052   3.497  0.2740  0.2062 -0.3390
 5569SOL    HW128361   0.269   8.098   3.574  0.0871 -1.7285  0.9525
 5569SOL    HW228362   0.290   7.990   3.453 -0.8532 -2.0573  1.0795
 5570SOL     OW28363   5.644   1.846   4.146 -0.3884 -0.8169  0.4448
 5570SOL    HW128364   5.614   1.755   4.174 -2.2166 -0.4970 -0.4044
 5570SOL    HW228365   5.589   1.916   4.192  1.1703 -0.1189  1.2907
 5571SOL     OW28366   3.193   4.106   2.590  0.3789 -0.0660  0.1231
 5571SOL    HW128367   3.262   4.128   2.659 -0.1642  0.1529  0.5953
 5571SOL    HW228368   3.202   4.169   2.512  1.4270 -0.7413 -0.3107
 5572SOL     OW28369   1.664   0.050   2.358  0.6867 -0.2390  0.3486
 5572SOL    HW128370   1.647  -0.047   2.341  0.3702  0.0593 -1.1224
 5572SOL    HW228371   1.578   0.099   2.362  0.8989  0.1581  0.0027
 5573SOL     OW28372   8.328   0.077   1.790 -0.9254 -0.2752  0.0070
 5573SOL    HW128373   8.242   0.044   1.750 -2.6668  4.0563 -0.0126
 5573SOL    HW228374   8.329   0.177   1.790  3.5314 -0.2237  1.3686
 5574SOL     OW28375   2.753   5.393   5.721 -0.4540  0.3760 -0.2302
 5574SOL    HW128376   2.767   5.321   5.789 -2.9255 -0.5786 -0.6569
 5574SOL    HW228377   2.820   5.383   5.647  0.5433 -0.2129  0.7467
 5575SOL     OW28378   0.962   7.176   4.139 -0.0658 -0.3643 -0.1318
 5575SOL    HW128379   1.053   7.160   4.178  1.1370  2.3602 -1.6236
 5575SOL    HW228380   0.910   7.236   4.199 -0.9678 -2.0422  0.7920
 5576SOL     OW28381   7.687   1.533   6.558 -0.0817  0.8620  0.6138
 5576SOL    HW128382   7.771   1.486   6.530 -0.0370 -0.1847  2.4682
 5576SOL    HW228383   7.614   1.512   6.492  0.6531  0.3726 -0.0488
 5577SOL     OW28384   6.994   5.204   6.869  0.6816  0.0357 -0.4680
 5577SOL    HW128385   6.909   5.184   6.916  1.0028 -2.2494 -0.8344
 5577SOL    HW228386   6.994   5.162   6.779  1.6857  1.0878 -0.9801
 5578SOL     OW28387   8.123   4.384   1.406  0.3241  0.3389 -0.1644
 5578SOL    HW128388   8.111   4.333   1.492 -1.7926  0.0603 -0.5958
 5578SOL    HW228389   8.098   4.480   1.421 -1.8585 -0.0881 -0.8920
 5579SOL     OW28390   7.911   3.010   4.896 -0.0865  0.4111 -0.0506
 5579SOL    HW128391   7.949   2.989   4.806 -0.4235 -0.7286  0.0546
 5579SOL    HW228392   7.818   3.046   4.886  0.5058  1.9022 -0.2381
 5580SOL     OW28393   9.800   8.505   4.874 -0.0968  0.4840 -0.6098
 5580SOL    HW128394   9.846   8.436   4.819  0.1553 -0.8840  1.2628
 5580SOL    HW228395   9.837   8.503   4.967 -1.6860  1.5786  0.0585
 5581SOL     OW28396   9.957   2.691   6.249  0.0498  0.0730  0.2886
 5581SOL    HW128397   9.978   2.603   6.290 -1.6456 -0.1172  0.7697
 5581SOL    HW228398   9.901   2.745   6.313  0.6920  1.3185 -0.1811
 5582SOL     OW28399   0.330   6.534   5.915 -0.1200  0.1677 -0.2673
 5582SOL    HW128400   0.427   6.511   5.908 -0.6241 -1.9900 -0.5516
 5582SOL    HW228401   0.292   6.547   5.823 -0.2430  0.3960 -0.1847
 5583SOL     OW28402   2.552   4.049   3.124 -0.1861 -0.0581  0.7468
 5583SOL    HW128403   2.470   4.007   3.162 -1.3697 -0.4300 -2.0589
 5583SOL    HW228404   2.546   4.149   3.133 -0.5985 -0.1283  1.2238
 5584SOL     OW28405   5.905   9.219   5.259 -0.0673 -0.1625 -0.0036
 5584SOL    HW128406   5.942   9.229   5.351 -0.9318 -1.7421  0.5222
 5584SOL    HW228407   5.950   9.284   5.198 -0.7366  2.1412  1.8905
 5585SOL     OW28408   5.675   0.619   3.387 -0.4318  0.0347 -0.7839
 5585SOL    HW128409   5.667   0.663   3.297  0.0211  1.5057 -0.1212
 5585SOL    HW228410   5.629   0.530   3.385  0.0842 -0.2061 -2.6384
 5586SOL     OW28411   1.833   0.949   0.700 -0.1110 -0.2332  0.4082
 5586SOL    HW128412   1.796   1.007   0.628  1.1862 -0.2629 -0.2934
 5586SOL    HW228413   1.763   0.931   0.769 -1.3626 -0.2248 -0.8630
 5587SOL     OW28414   3.618   4.941   1.818 -0.0082  0.8192  0.0454
 5587SOL    HW128415   3.522   4.963   1.802 -0.2352  0.6573  1.1204
 5587SOL    HW228416   3.663   4.919   1.732 -0.7318  1.7265 -0.5645
 5588SOL     OW28417   3.535   8.807   5.137 -0.0014  0.0642  0.5093
 5588SOL    HW128418   3.548   8.774   5.230 -1.1222  2.5635  1.5989
 5588SOL    HW228419   3.589   8.751   5.074  3.2294  0.2894  2.9784
 5589SOL     OW28420   3.398   1.144   2.606 -0.0069  0.3232 -0.2551
 5589SOL    HW128421   3.320   1.194   2.570  2.2222  2.8104 -1.8174
 5589SOL    HW228422   3.420   1.068   2.545 -0.5302  0.2733 -0.3805
 5590SOL     OW28423   2.739   8.782   6.723 -0.0641 -0.2863  0.3903
 5590SOL    HW128424   2.643   8.788   6.694  0.4668 -1.8244 -1.8685
 5590SOL    HW228425   2.744   8.758   6.820 -1.9511  1.5543  0.9697
 5591SOL     OW28426   6.644   9.065   6.268 -0.1466  0.0171  0.1746
 5591SOL    HW128427   6.639   9.151   6.320  0.0214  1.3413 -1.9327
 5591SOL    HW228428   6.667   8.990   6.330 -0.0880  1.5153  2.0283
 5592SOL     OW28429   1.314   9.963   0.684  0.5874  0.3382 -0.8091
 5592SOL    HW128430   1.231   9.936   0.733  2.0051 -1.2952  0.7572
 5592SOL    HW228431   1.290   9.990   0.591 -1.7301  0.1881 -0.2970
 5593SOL     OW28432   8.168   0.822   3.479 -0.8233 -0.2269  0.2492
 5593SOL    HW128433   8.238   0.890   3.456 -0.7288  0.0511  1.3292
 5593SOL    HW228434   8.080   0.850   3.439 -0.8878  0.7767  1.0843
 5594SOL     OW28435   3.935   5.314   2.889 -0.2804  0.4282 -0.4291
 5594SOL    HW128436   3.983   5.353   2.810  1.0733 -0.5832 -0.1325
 5594SOL    HW228437   3.950   5.215   2.891 -4.2801 -0.2809 -1.5966
 5595SOL     OW28438   6.223   7.758   2.686 -0.4453  0.0249 -0.5745
 5595SOL    HW128439   6.233   7.841   2.741  0.3083 -1.3980  1.4613
 5595SOL    HW228440   6.298   7.752   2.620  0.0100  0.4625 -0.0932
 5596SOL     OW28441   9.352   7.190   2.591  0.2656 -0.5351 -0.6499
 5596SOL    HW128442   9.443   7.219   2.561  0.1981 -0.4596 -0.7825
 5596SOL    HW228443   9.306   7.141   2.517  1.3504 -3.2059  0.3744
 5597SOL     OW28444   2.741   5.786   6.634  0.1309  0.0408  0.3789
 5597SOL    HW128445   2.684   5.712   6.597  1.2237 -1.5788  1.8496
 5597SOL    HW228446   2.832   5.781   6.593 -0.0109  1.0324 -0.0578
 5598SOL     OW28447   3.548   6.852   0.711  0.1325 -0.2058  0.2060
 5598SOL    HW128448   3.582   6.757   0.706  0.6874 -0.0093  0.1299
 5598SOL    HW228449   3.532   6.886   0.618  1.5083  0.3182  0.1382
 5599SOL     OW28450   8.648   8.449   2.257  0.1098 -0.7058  0.4865
 5599SOL    HW128451   8.565   8.447   2.201  0.1258  1.2578  0.3684
 5599SOL    HW228452   8.728   8.446   2.197  0.1262  0.7548  0.4330
 5600SOL     OW28453   3.271   0.851   1.452  0.3652  0.4630 -0.7485
 5600SOL    HW128454   3.204   0.916   1.415 -0.5605 -0.4721 -0.7242
 5600SOL    HW228455   3.265   0.765   1.402  0.2589 -0.2591  0.4944
 5601SOL     OW28456   8.915   7.237   0.813 -0.4000 -0.1827  0.1096
 5601SOL    HW128457   8.855   7.312   0.842 -0.0082 -0.2161  1.0433
 5601SOL    HW228458   8.956   7.195   0.894  1.1502  0.0671 -0.5161
 5602SOL     OW28459   2.442   8.538   6.737 -0.2250 -0.4496  0.0125
 5602SOL    HW128460   2.435   8.623   6.790  1.8890 -0.6426  0.6297
 5602SOL    HW228461   2.395   8.464   6.785 -0.1995 -0.1288  0.5285
 5603SOL     OW28462   1.901   1.432   6.979  0.0731  0.0521 -0.3692
 5603SOL    HW128463   1.992   1.410   7.014 -0.0795  0.4329  0.2773
 5603SOL    HW228464   1.841   1.454   7.055 -0.1753  1.2311 -0.9048
 5604SOL     OW28465   7.470   9.602   5.667 -0.8259  0.4771  0.4978
 5604SOL    HW128466   7.458   9.593   5.766  1.5078  1.0860  0.8490
 5604SOL    HW228467   7.380   9.614   5.624 -1.6965  2.2762  2.7358
 5605SOL     OW28468   6.660   6.173   1.600 -0.0102  0.0117 -0.4716
 5605SOL    HW128469   6.669   6.134   1.508 -1.5906 -0.3522 -0.4994
 5605SOL    HW228470   6.629   6.268   1.593 -0.0459  0.0107 -0.3311
 5606SOL     OW28471   2.019   3.444   7.933 -0.4027 -0.4092  0.5370
 5606SOL    HW128472   1.967   3.500   7.997 -0.3490  0.7202 -0.4090
 5606SOL    HW228473   2.116   3.467   7.940 -0.6321  1.3411 -1.5429
 5607SOL     OW28474   9.022   7.546   3.036  0.2865 -0.2718  0.0938
 5607SOL    HW128475   8.971   7.476   2.986 -1.0040  0.1777  0.7450
 5607SOL    HW228476   9.103   7.572   2.984  0.3407 -1.6551 -0.5412
 5608SOL     OW28477   8.110   8.633   4.292 -0.5279 -0.0886 -0.3750
 5608SOL    HW128478   8.156   8.555   4.248 -0.1198  0.9761 -1.8917
 5608SOL    HW228479   8.103   8.708   4.226  2.2631  2.4465  2.1070
 5609SOL     OW28480   1.572   4.619   0.913  0.2496 -0.0551 -0.3392
 5609SOL    HW128481   1.671   4.605   0.912  0.5065  0.8055  3.6009
 5609SOL    HW228482   1.530   4.554   0.975 -1.2825  1.4940  0.2945
 5610SOL     OW28483   0.506   9.862   2.231  0.2429 -0.4575  0.0396
 5610SOL    HW128484   0.408   9.865   2.210  0.1031 -1.8430  0.4590
 5610SOL    HW228485   0.555   9.919   2.166 -0.8346  0.1862 -0.2279
 5611SOL     OW28486   0.853   2.928   3.584 -0.5616 -0.0653  0.2351
 5611SOL    HW128487   0.932   2.876   3.553 -0.9938 -0.3531 -0.4035
 5611SOL    HW228488   0.836   3.004   3.520 -1.4092 -0.6128 -0.1958
 5612SOL     OW28489   0.355   7.770   7.737 -0.1416 -0.0053  0.1015
 5612SOL    HW128490   0.301   7.841   7.691 -1.4226 -1.5310 -0.8225
 5612SOL    HW228491   0.353   7.786   7.836 -0.1977  1.3825 -0.1151
 5613SOL     OW28492   0.228   7.112   2.027  0.0830 -0.2026 -0.0100
 5613SOL    HW128493   0.218   7.133   2.125  0.2179  0.4984 -0.1413
 5613SOL    HW228494   0.151   7.055   1.997 -0.7521  0.8103  0.1741
 5614SOL     OW28495   6.625   3.271   1.371 -0.5174 -0.1072 -0.0637
 5614SOL    HW128496   6.706   3.320   1.404 -0.7754  1.4715 -1.6928
 5614SOL    HW228497   6.621   3.180   1.414  1.3688  0.3071  1.0511
 5615SOL     OW28498   6.480   8.522   3.763 -0.0900 -0.1713  0.1629
 5615SOL    HW128499   6.567   8.532   3.714 -0.5487 -2.0658 -1.1165
 5615SOL    HW228500   6.412   8.583   3.723 -0.5627 -1.9739 -1.8806
 5616SOL     OW28501   8.396   5.166   4.991  0.2230  0.4540 -0.3008
 5616SOL    HW128502   8.366   5.220   4.912  1.1705  0.9294 -0.3359
 5616SOL    HW228503   8.336   5.186   5.069 -0.2421  0.5567 -0.6819
 5617SOL     OW28504   9.795   8.912   7.392 -0.0644 -0.2449  0.5335
 5617SOL    HW128505   9.730   8.974   7.436 -0.2749  0.3930 -0.6487
 5617SOL    HW228506   9.767   8.896   7.298  0.9705 -0.7245  0.3037
 5618SOL     OW28507   6.617   1.105   4.699  0.3421  0.6099  0.3450
 5618SOL    HW128508   6.701   1.128   4.749  1.5991  0.6210 -1.7214
 5618SOL    HW228509   6.637   1.097   4.601 -2.0659  0.5500 -0.1810
 5619SOL     OW28510   3.821   4.776   3.121 -0.0736 -0.1920 -0.3789
 5619SOL    HW128511   3.815   4.875   3.136  0.0747  0.0206 -1.6727
 5619SOL    HW228512   3.818   4.757   3.023  0.2679 -1.4545 -0.1525
 5620SOL     OW28513   9.013   1.250   6.539 -0.0403 -0.2765  0.5153
 5620SOL    HW128514   9.024   1.152   6.559  0.1657 -0.4507 -0.4429
 5620SOL    HW228515   8.952   1.262   6.461  1.0556  0.2939 -0.2651
 5621SOL     OW28516   7.618   3.127   3.233  0.2005 -0.5082  0.1206
 5621SOL    HW128517   7.546   3.116   3.164  0.7752 -0.8719 -0.4309
 5621SOL    HW228518   7.601   3.065   3.309 -0.5640  0.0574  0.4165
 5622SOL     OW28519   4.109   4.723   0.430  0.3188  0.3823  0.3941
 5622SOL    HW128520   4.155   4.654   0.374 -1.6517 -1.6332  1.1608
 5622SOL    HW228521   4.155   4.731   0.518  0.6348  0.1308  0.2508
 5623SOL     OW28522   2.368   9.328   1.452 -0.2439 -0.0570  0.1069
 5623SOL    HW128523   2.415   9.239   1.450  1.0239  0.5945  0.1485
 5623SOL    HW228524   2.309   9.336   1.372  2.9355  0.7799 -2.2502
 5624SOL     OW28525   8.994   9.694   4.080 -0.2212 -0.7675 -0.0160
 5624SOL    HW128526   8.956   9.766   4.022  1.9348 -1.4335 -2.3187
 5624SOL    HW228527   8.941   9.689   4.165 -2.7428  0.9946 -1.4099
 5625SOL     OW28528   8.183   6.634   6.102 -0.0101 -1.1818 -0.0616
 5625SOL    HW128529   8.096   6.656   6.147 -1.6868 -1.8112 -2.8723
 5625SOL    HW228530   8.251   6.702   6.127 -1.4488 -0.3523  1.7589
 5626SOL     OW28531   9.660   0.140   1.735 -0.1658 -0.1832  0.4582
 5626SOL    HW128532   9.570   0.132   1.694 -0.2604  2.4401  0.0498
 5626SOL    HW228533   9.674   0.067   1.802 -2.0569 -1.3776 -0.4311
 5627SOL     OW28534   8.049   7.325   1.701  0.3344 -0.2647  0.0028
 5627SOL    HW128535   8.137   7.351   1.663 -0.3735  1.3175 -0.5891
 5627SOL    HW228536   8.019   7.393   1.768 -0.9517 -0.1830 -0.6266
 5628SOL     OW28537   3.736   3.715   2.597  0.0195 -0.2123 -0.3507
 5628SOL    HW128538   3.749   3.622   2.562  0.4536 -0.2633 -0.0507
 5628SOL    HW228539   3.644   3.747   2.572 -0.1485 -0.7391 -0.4098
 5629SOL     OW28540   2.187   1.136   4.500  0.0894 -0.4230 -0.1541
 5629SOL    HW128541   2.279   1.097   4.490 -0.0388 -0.5352 -0.9010
 5629SOL    HW228542   2.150   1.159   4.410 -0.6046 -0.3404  0.1482
 5630SOL     OW28543   0.219   9.227   3.793  0.7115  0.3843  0.7210
 5630SOL    HW128544   0.247   9.296   3.860  0.3181  2.3499 -1.1176
 5630SOL    HW228545   0.132   9.187   3.822  0.5371  1.2282  1.3824
 5631SOL     OW28546   1.414   7.230   0.365 -0.0413 -0.0884 -0.2501
 5631SOL    HW128547   1.341   7.230   0.434  1.5982  1.0621  1.5294
 5631SOL    HW228548   1.425   7.322   0.328  0.1894 -0.3601 -0.8611
 5632SOL     OW28549   4.438   0.317   6.461  0.5461  0.1308  0.1651
 5632SOL    HW128550   4.456   0.400   6.407 -0.3530 -0.0599 -0.4316
 5632SOL    HW228551   4.396   0.343   6.548  0.7840  0.3416  0.2192
 5633SOL     OW28552   8.421   6.584   2.422 -0.8042 -0.6689 -0.6038
 5633SOL    HW128553   8.459   6.664   2.377  0.4225 -1.7493 -1.5230
 5633SOL    HW228554   8.355   6.539   2.361 -1.3859 -0.4379 -0.1470
 5634SOL     OW28555   0.076   1.657   3.987 -0.3523  0.3591  0.1488
 5634SOL    HW128556   0.131   1.584   3.946 -0.0072  0.8772 -0.3287
 5634SOL    HW228557  -0.019   1.648   3.956 -0.4400 -0.2576  0.5960
 5635SOL     OW28558   1.269   4.956   4.629 -0.2405  0.0534  0.4966
 5635SOL    HW128559   1.352   5.000   4.595  0.4502 -0.6289  1.2897
 5635SOL    HW228560   1.276   4.943   4.728 -1.3884  0.1884  0.6052
 5636SOL     OW28561   2.983   8.139   7.249 -0.5823 -0.3063  0.4396
 5636SOL    HW128562   2.996   8.101   7.157 -0.3445 -0.2775  0.4613
 5636SOL    HW228563   3.063   8.192   7.275  0.4016 -2.3290  1.6347
 5637SOL     OW28564   4.965   7.654   3.028  0.0873 -0.5237  0.1691
 5637SOL    HW128565   4.866   7.669   3.031  0.2822  1.0836 -0.7152
 5637SOL    HW228566   5.002   7.664   3.120 -0.5410 -0.8964  0.4698
 5638SOL     OW28567   6.769   7.207   5.664  0.3422 -0.6448  0.2548
 5638SOL    HW128568   6.789   7.166   5.753  2.2752  0.2619  0.2707
 5638SOL    HW228569   6.677   7.181   5.635  0.3729 -2.4493  1.6685
 5639SOL     OW28570   0.720   6.453   4.446 -0.0790  0.0272  0.3802
 5639SOL    HW128571   0.700   6.356   4.459 -0.5998 -0.0364 -0.8688
 5639SOL    HW228572   0.803   6.464   4.392 -0.0084  0.2810  0.5376
 5640SOL     OW28573   3.602   3.074   7.234  0.3004 -0.7654 -0.1792
 5640SOL    HW128574   3.506   3.096   7.221  0.0742 -0.3920  1.9170
 5640SOL    HW228575   3.630   3.099   7.326  2.6201 -0.1605 -1.0058
 5641SOL     OW28576   4.745   6.885   2.057  0.2465  0.1581 -0.5320
 5641SOL    HW128577   4.725   6.871   2.154 -1.3149  0.5125 -0.7785
 5641SOL    HW228578   4.724   6.979   2.032  2.2189  0.5138 -0.8554
 5642SOL     OW28579   9.894   5.825   5.653  0.1636 -0.1394  0.2175
 5642SOL    HW128580   9.910   5.862   5.562 -1.1645  0.4217  0.1994
 5642SOL    HW228581   9.812   5.768   5.652  0.6741 -0.8957  0.8560
 5643SOL     OW28582   2.348   2.345   1.304 -0.0790  0.5091  0.0247
 5643SOL    HW128583   2.392   2.389   1.226 -1.8900  1.5495 -0.4321
 5643SOL    HW228584   2.401   2.363   1.387  1.7399 -0.4257 -0.9250
 5644SOL     OW28585   9.233   0.226   4.733  0.1653 -0.5931 -0.1401
 5644SOL    HW128586   9.184   0.306   4.766  0.0306 -1.6335  2.2675
 5644SOL    HW228587   9.168   0.163   4.690  0.2422  0.4606 -1.8535
 5645SOL     OW28588   9.973   5.021   5.387  0.2369 -0.5280  0.6556
 5645SOL    HW128589  10.052   5.046   5.443  0.2781 -0.6334  0.6426
 5645SOL    HW228590   9.889   5.042   5.437  0.2640  0.8081  0.1411
 5646SOL     OW28591   0.604   2.707   4.866 -0.0383  0.0434  0.1174
 5646SOL    HW128592   0.689   2.704   4.814 -0.1726 -0.6064 -0.0703
 5646SOL    HW228593   0.529   2.671   4.809 -0.7203  1.9877 -0.2487
 5647SOL     OW28594   8.667   0.259   0.719 -0.2889  0.1791  0.3716
 5647SOL    HW128595   8.569   0.279   0.727 -0.6402 -1.2056 -0.1624
 5647SOL    HW228596   8.684   0.209   0.634  0.3817 -2.3406  1.9173
 5648SOL     OW28597   2.342   8.319   4.469 -0.6110 -0.2137 -0.1271
 5648SOL    HW128598   2.386   8.280   4.550 -0.1591  2.0032  0.7321
 5648SOL    HW228599   2.412   8.357   4.408 -1.0684 -0.2258 -0.6636
 5649SOL     OW28600   1.987   3.639   7.174 -0.1624 -0.4902 -0.2392
 5649SOL    HW128601   1.916   3.584   7.129  0.4032 -1.6226  0.2267
 5649SOL    HW228602   2.017   3.712   7.112 -1.9236  0.1787 -0.3423
 5650SOL     OW28603   3.667   5.887   0.638  0.4954 -0.0961  0.4573
 5650SOL    HW128604   3.748   5.904   0.582 -0.6895  0.4768 -1.1318
 5650SOL    HW228605   3.624   5.801   0.610 -0.0554  0.1550  0.5089
 5651SOL     OW28606   9.185   1.117   7.066 -0.2930  0.8402 -0.3312
 5651SOL    HW128607   9.225   1.193   7.117  1.3276  0.7046 -1.3834
 5651SOL    HW228608   9.256   1.071   7.013 -1.2428 -1.4566  0.3373
 5652SOL     OW28609   8.551   7.648   3.152  0.4392 -1.1598  0.3418
 5652SOL    HW128610   8.581   7.642   3.056 -1.4602  0.0377 -0.3652
 5652SOL    HW228611   8.504   7.563   3.177  0.9644 -1.4877  0.2176
 5653SOL     OW28612   2.185   1.912   4.111 -0.2038 -0.0501 -0.0165
 5653SOL    HW128613   2.151   1.981   4.048 -0.6255  0.5613  0.8715
 5653SOL    HW228614   2.268   1.946   4.156 -0.2249 -0.2539  0.1776
 5654SOL     OW28615   9.166   4.353   0.668 -0.1280 -0.2688 -0.0962
 5654SOL    HW128616   9.185   4.375   0.573 -1.4151 -0.2225 -0.3452
 5654SOL    HW228617   9.071   4.324   0.678  0.4088 -1.7409  0.9234
 5655SOL     OW28618   3.973   8.809   0.712 -0.7529  0.2417 -0.0698
 5655SOL    HW128619   4.054   8.838   0.764 -0.9671  1.3741 -0.3561
 5655SOL    HW228620   3.890   8.840   0.759 -0.9101  2.7448 -1.9352
 5656SOL     OW28621   0.880   6.192   1.098 -0.1605  0.1819  0.2811
 5656SOL    HW128622   0.947   6.224   1.031 -0.9859 -0.5808 -0.9090
 5656SOL    HW228623   0.928   6.163   1.181  0.8785  0.8750 -0.0663
 5657SOL     OW28624   5.100   3.348   5.433 -0.2606 -0.2360 -0.5798
 5657SOL    HW128625   5.004   3.374   5.424 -0.3636 -0.4958 -0.1962
 5657SOL    HW228626   5.148   3.372   5.348 -0.9425 -1.3516 -1.2859
 5658SOL     OW28627   2.194   7.249   5.085  0.2295 -0.1983 -0.3982
 5658SOL    HW128628   2.233   7.179   5.145 -1.0832 -1.3650 -0.8965
 5658SOL    HW228629   2.126   7.208   5.025  0.3392  1.2833 -1.5612
 5659SOL     OW28630   3.004   9.643   3.678  0.3618  0.1394  0.1740
 5659SOL    HW128631   2.969   9.571   3.618 -0.5013  1.4111 -0.8782
 5659SOL    HW228632   2.977   9.625   3.772  1.1028 -1.4967  0.0823
 5660SOL     OW28633   4.690   7.663   3.340 -0.1273  0.1716 -1.0122
 5660SOL    HW128634   4.606   7.712   3.315 -0.4887 -0.0962 -0.3116
 5660SOL    HW228635   4.726   7.700   3.425 -1.6967 -2.3630  0.8095
 5661SOL     OW28636   1.853   8.259   2.912  0.3114  0.0047  0.6143
 5661SOL    HW128637   1.892   8.305   2.992 -0.1641 -0.0549  0.8819
 5661SOL    HW228638   1.866   8.160   2.922 -0.7368 -0.0872  1.1558
 5662SOL     OW28639   0.241   7.119   7.949 -0.8620  0.8566 -0.2174
 5662SOL    HW128640   0.204   7.210   7.969 -2.8776 -0.1108  0.5508
 5662SOL    HW228641   0.194   7.080   7.870 -1.3764 -0.3100  0.6565
 5663SOL     OW28642   9.501   6.087   7.165 -0.3186  0.0465 -0.1293
 5663SOL    HW128643   9.534   6.179   7.184  0.8863 -0.2901 -0.5632
 5663SOL    HW228644   9.467   6.046   7.250 -0.8535  0.8718  0.0670
 5664SOL     OW28645   3.938   4.920   0.472 -0.4774  0.1878  0.1813
 5664SOL    HW128646   3.999   4.841   0.470 -1.7928 -0.8591  0.7467
 5664SOL    HW228647   3.908   4.941   0.379  1.9528  1.7132 -0.3342
 5665SOL     OW28648   7.810   3.460   2.506  0.8067  0.5008 -0.0939
 5665SOL    HW128649   7.832   3.515   2.586 -0.3677  2.1290 -0.8850
 5665SOL    HW228650   7.792   3.519   2.427 -0.6774 -0.9873 -0.9117
 5666SOL     OW28651   0.594   4.984   7.179 -0.4008 -0.0130 -0.4440
 5666SOL    HW128652   0.515   5.034   7.142 -0.3632  0.6716  0.3947
 5666SOL    HW228653   0.678   5.022   7.139 -0.4518 -0.3049 -0.8339
 5667SOL     OW28654   7.996   6.051   2.311 -0.8411  0.2720 -0.0947
 5667SOL    HW128655   7.909   6.021   2.348  0.1191 -1.0420  1.1312
 5667SOL    HW228656   7.980   6.104   2.227 -2.8080  0.2694  0.2583
 5668SOL     OW28657   8.955   0.053   0.907 -0.1197 -0.3790  0.0883
 5668SOL    HW128658   8.936   0.032   0.811 -1.3630  1.2510 -0.0419
 5668SOL    HW228659   9.054   0.057   0.920  0.0627  0.2868 -1.3495
 5669SOL     OW28660   0.234   2.680   3.298  0.1588  0.8007 -0.0417
 5669SOL    HW128661   0.285   2.658   3.215  1.2868  1.3055  0.5068
 5669SOL    HW228662   0.258   2.772   3.328 -2.5471  1.8320 -0.8665
 5670SOL     OW28663   3.373   0.635   4.302 -0.0887 -0.3944 -0.7370
 5670SOL    HW128664   3.300   0.659   4.238  0.8230 -0.0379 -1.6606
 5670SOL    HW228665   3.333   0.608   4.390 -1.2818  0.8326 -0.8921
 5671SOL     OW28666   5.883   1.892   3.394 -0.3460 -0.5547 -0.0160
 5671SOL    HW128667   5.884   1.793   3.383 -1.6977 -0.6025  0.2145
 5671SOL    HW228668   5.795   1.929   3.361 -0.0253  0.5142  0.2930
 5672SOL     OW28669   7.922   2.259   7.950  0.3820 -0.4163  0.1356
 5672SOL    HW128670   7.829   2.224   7.945 -0.2382  0.7579  2.7150
 5672SOL    HW228671   7.959   2.246   8.042  2.2581  0.4010 -0.4579
 5673SOL     OW28672   8.798   6.782   4.620 -0.4964 -0.0249 -1.1297
 5673SOL    HW128673   8.882   6.805   4.670 -2.1944 -0.7041  2.1902
 5673SOL    HW228674   8.818   6.711   4.552  1.3343 -1.4250  0.7965
 5674SOL     OW28675   8.506   8.914   3.160  0.1126  0.5351  0.1515
 5674SOL    HW128676   8.579   8.888   3.224  0.6293  1.9181  0.1420
 5674SOL    HW228677   8.504   8.849   3.085  1.5916  0.6792 -0.0327
 5675SOL     OW28678   3.893   5.440   8.175 -0.1143  0.1333 -0.2305
 5675SOL    HW128679   3.903   5.405   8.268  1.0815  0.6265 -0.1755
 5675SOL    HW228680   3.877   5.538   8.177  1.5604  0.4218 -0.6154
 5676SOL     OW28681   2.168   4.400   4.336  0.7424  0.3283 -0.2437
 5676SOL    HW128682   2.227   4.459   4.281  0.2449 -0.1623 -1.3305
 5676SOL    HW228683   2.162   4.310   4.292 -0.7037  0.3372 -0.0813
 5677SOL     OW28684   1.801   7.775   0.826  0.4294  0.9496 -0.4659
 5677SOL    HW128685   1.767   7.779   0.920 -0.8831  1.4778 -0.9520
 5677SOL    HW228686   1.879   7.838   0.817  1.9295 -0.6898  0.7919
 5678SOL     OW28687   4.407   2.452   5.856  0.1152  0.3874  0.6171
 5678SOL    HW128688   4.497   2.495   5.851  0.1651  0.8363  4.2993
 5678SOL    HW228689   4.415   2.362   5.899 -1.3769  1.1839  2.6540
 5679SOL     OW28690   5.425   6.608   2.313 -0.2069 -0.5769  0.5811
 5679SOL    HW128691   5.360   6.684   2.306 -1.5247 -1.8061 -0.9289
 5679SOL    HW228692   5.376   6.526   2.344  0.7682 -1.3570  0.0708
 5680SOL     OW28693   7.093   3.151   1.636 -0.6174  0.3031  0.5970
 5680SOL    HW128694   7.173   3.207   1.616 -2.2233  2.4742  0.0727
 5680SOL    HW228695   7.079   3.146   1.735 -0.0407  0.1768  0.6758
 5681SOL     OW28696   2.099   1.504   7.557  0.7079  0.0494 -0.4935
 5681SOL    HW128697   2.177   1.561   7.530  1.9174 -1.3372 -0.0062
 5681SOL    HW228698   2.040   1.489   7.478  1.8947 -0.3661 -1.3109
 5682SOL     OW28699   3.103   8.971   7.434 -0.3797  0.4529  0.0833
 5682SOL    HW128700   3.055   8.997   7.517 -0.5860  1.4560 -0.3451
 5682SOL    HW228701   3.111   9.050   7.374 -1.1041 -0.4758 -1.2815
 5683SOL     OW28702   1.157   6.005   3.405 -0.0648  0.0514  0.2935
 5683SOL    HW128703   1.077   5.964   3.360  0.7369 -1.0781 -0.1329
 5683SOL    HW228704   1.135   6.025   3.500 -1.4652  1.5555 -0.3270
 5684SOL     OW28705   5.979   6.732   4.119  0.2985  0.4792 -0.4585
 5684SOL    HW128706   6.024   6.739   4.208 -0.5583 -0.8110  0.0946
 5684SOL    HW228707   5.968   6.824   4.080 -0.0503  1.1444  1.1424
 5685SOL     OW28708   6.654   6.767   5.410  0.6508  0.2362 -0.0801
 5685SOL    HW128709   6.659   6.670   5.386 -0.9236  0.5867 -1.8533
 5685SOL    HW228710   6.733   6.814   5.371  1.9034 -0.4432  1.5260
 5686SOL     OW28711   8.264   6.230   6.313  0.2109  0.5205 -0.4896
 5686SOL    HW128712   8.329   6.174   6.262 -0.6680  0.9700 -2.1126
 5686SOL    HW228713   8.287   6.227   6.410  2.8358  0.9190 -1.0783
 5687SOL     OW28714   5.880   9.107   3.276 -0.5605 -0.6422 -0.1484
 5687SOL    HW128715   5.821   9.186   3.261 -0.6117 -0.5654  0.4244
 5687SOL    HW228716   5.844   9.053   3.352 -0.2295 -0.9203 -0.1893
 5688SOL     OW28717   4.256   1.850   5.763 -0.3925  0.2233  0.2238
 5688SOL    HW128718   4.204   1.828   5.681  0.3728  2.8043 -1.0110
 5688SOL    HW228719   4.193   1.871   5.838 -1.1039 -1.0802 -0.0019
 5689SOL     OW28720   7.958   7.841   3.768 -0.2977  0.0682 -0.1091
 5689SOL    HW128721   7.926   7.927   3.809 -1.0856  0.6409 -1.8263
 5689SOL    HW228722   8.047   7.856   3.725 -0.1902 -0.1035  0.0567
 5690SOL     OW28723   4.903   0.645   4.050 -0.3690  0.1139 -0.2827
 5690SOL    HW128724   4.834   0.716   4.063  0.5356  1.1732 -1.0598
 5690SOL    HW228725   4.931   0.644   3.954  0.4363 -0.5424 -0.0478
 5691SOL     OW28726   2.613   4.369   7.295 -0.1191 -0.2611 -0.1576
 5691SOL    HW128727   2.636   4.372   7.198  0.3852 -1.6842 -0.0962
 5691SOL    HW228728   2.514   4.363   7.306 -0.1865  0.0742 -0.5802
 5692SOL     OW28729   4.953   7.540   6.271 -0.2535 -0.7213 -0.0457
 5692SOL    HW128730   4.888   7.510   6.341 -2.1785 -0.4489 -1.6557
 5692SOL    HW228731   4.933   7.493   6.185 -1.6899  3.1330 -1.9482
 5693SOL     OW28732   3.257   4.443   1.171 -0.1487 -0.7260  0.1383
 5693SOL    HW128733   3.258   4.403   1.079 -1.4591 -0.5561  0.0405
 5693SOL    HW228734   3.178   4.408   1.221 -0.1409  0.1417  0.7666
 5694SOL     OW28735   2.013   5.110   1.393 -0.2223 -0.2112 -0.4073
 5694SOL    HW128736   1.986   5.192   1.445  0.1977 -0.2748 -0.0862
 5694SOL    HW228737   1.938   5.083   1.333 -0.5152  0.1782 -0.2221
 5695SOL     OW28738   5.984   0.943   4.388 -0.3116 -0.4289 -0.1698
 5695SOL    HW128739   5.895   0.913   4.355  0.3941 -0.6680 -1.9553
 5695SOL    HW228740   5.989   1.043   4.385 -0.3698 -0.4360 -0.4741
 5696SOL     OW28741   1.533   2.412   1.948 -0.1590  0.0726 -0.1237
 5696SOL    HW128742   1.495   2.471   1.877  0.4311 -0.4142 -0.8523
 5696SOL    HW228743   1.588   2.340   1.905  2.5183  1.4185  0.9336
 5697SOL     OW28744   8.199   4.651   1.861  0.3352  0.6307 -0.0065
 5697SOL    HW128745   8.233   4.655   1.767 -0.6808  0.6826 -0.3758
 5697SOL    HW228746   8.118   4.709   1.869 -0.3232 -0.3644  0.5898
 5698SOL     OW28747   1.146   3.436   2.471  0.5147 -0.0506 -0.4947
 5698SOL    HW128748   1.210   3.512   2.466 -0.3506  0.6478 -1.1620
 5698SOL    HW228749   1.126   3.415   2.567  1.1673  0.2125 -0.3007
 5699SOL     OW28750   8.698   0.143   4.845 -0.0283 -0.0761  0.3290
 5699SOL    HW128751   8.756   0.068   4.815 -0.4347 -1.0973  2.0434
 5699SOL    HW228752   8.741   0.230   4.821  0.9002 -0.8338 -0.8124
 5700SOL     OW28753   1.953   2.416   4.328  0.7598  0.7845 -0.2288
 5700SOL    HW128754   1.916   2.471   4.402  0.2974  0.5915 -0.3195
 5700SOL    HW228755   1.950   2.319   4.353  2.3777  0.8433  0.2989
 5701SOL     OW28756   2.578   0.644   8.208 -0.5438  0.1589 -0.1125
 5701SOL    HW128757   2.577   0.692   8.121  0.2146  0.0582 -0.1794
 5701SOL    HW228758   2.639   0.565   8.203 -0.2684  0.3196  0.5956
 5702SOL     OW28759   0.831   3.192   3.047  0.2909  0.2078  0.2053
 5702SOL    HW128760   0.746   3.196   3.101  0.0249  1.8652 -0.3008
 5702SOL    HW228761   0.808   3.193   2.950  0.8009 -2.0207  0.0447
 5703SOL     OW28762   1.133   9.592   5.209  0.3598  0.2996 -0.0620
 5703SOL    HW128763   1.176   9.667   5.258  2.0474 -0.5018 -0.2952
 5703SOL    HW228764   1.179   9.579   5.121 -0.0898 -0.8439 -0.1359
 5704SOL     OW28765   4.526   2.693   1.784  0.0091  0.2374  0.0441
 5704SOL    HW128766   4.461   2.714   1.857 -0.2982 -0.6184  0.0136
 5704SOL    HW228767   4.488   2.723   1.696  0.5043  1.5369  0.2575
 5705SOL     OW28768   6.059   9.426   5.161 -0.3092  0.6422 -0.1813
 5705SOL    HW128769   6.047   9.502   5.225  2.7996 -0.0125  1.2812
 5705SOL    HW228770   6.040   9.457   5.068 -3.0570  2.0966  0.8150
 5706SOL     OW28771   1.010   3.954   1.738 -0.0872  0.4768 -0.2093
 5706SOL    HW128772   0.925   4.004   1.757 -0.4545  0.7550 -2.4200
 5706SOL    HW228773   0.988   3.864   1.700  0.5867  0.6150 -0.9562
 5707SOL     OW28774   3.266   3.617   7.122  0.2928 -0.8767 -1.1308
 5707SOL    HW128775   3.281   3.563   7.205  0.7922  0.3662 -0.4017
 5707SOL    HW228776   3.262   3.714   7.146  0.2885 -0.5193 -2.5497
 5708SOL     OW28777   3.614   8.840   6.927  0.0361  0.1705  0.0431
 5708SOL    HW128778   3.696   8.784   6.920  0.5590  0.9795 -0.3358
 5708SOL    HW228779   3.535   8.787   6.897  0.5401 -0.3323 -0.3950
 5709SOL     OW28780   4.449   4.004   5.979  0.0509  0.3057  0.1721
 5709SOL    HW128781   4.386   3.984   6.055 -1.0933  1.8933 -0.3399
 5709SOL    HW228782   4.517   4.071   6.008 -0.6466  1.2358 -0.3117
 5710SOL     OW28783   3.229   0.412   7.801 -0.1626  0.4577 -0.4816
 5710SOL    HW128784   3.220   0.490   7.739  1.0182  1.6946  0.8482
 5710SOL    HW228785   3.139   0.385   7.835 -0.6853  0.5780 -1.7552
 5711SOL     OW28786   9.557   8.012   0.996  0.4086 -0.3287 -0.4593
 5711SOL    HW128787   9.624   7.940   1.011  0.1214 -0.6117 -0.5305
 5711SOL    HW228788   9.465   7.973   0.999  0.2712 -0.0465 -0.9580
 5712SOL     OW28789   9.668   6.185   3.603 -0.2721 -0.1645  0.4210
 5712SOL    HW128790   9.638   6.252   3.671  0.0204 -0.0141  0.4003
 5712SOL    HW228791   9.619   6.099   3.618  1.2818 -0.7865  2.1224
 5713SOL     OW28792   5.848   1.614   3.414 -0.1458  0.0702 -0.3460
 5713SOL    HW128793   5.819   1.588   3.506  2.0726 -0.5831  0.2125
 5713SOL    HW228794   5.882   1.533   3.366  0.4011  0.7256 -1.0809
 5714SOL     OW28795   8.160   6.679   4.465  0.4296 -0.5133  0.0597
 5714SOL    HW128796   8.163   6.757   4.527  1.9457  0.1499 -0.8309
 5714SOL    HW228797   8.210   6.701   4.381  2.7136 -3.1815  0.6492
 5715SOL     OW28798   6.510   9.790   2.155  0.1691  0.8499  0.0843
 5715SOL    HW128799   6.590   9.842   2.185  1.0770  1.2586 -2.9081
 5715SOL    HW228800   6.531   9.692   2.155  0.9793  1.0048 -1.4648
 5716SOL     OW28801   9.371   5.874   2.641 -0.1264 -0.1981 -0.2613
 5716SOL    HW128802   9.393   5.902   2.548  1.3480 -0.8406 -0.1341
 5716SOL    HW228803   9.281   5.908   2.666 -1.2360 -1.4113 -2.4938
 5717SOL     OW28804   1.607   6.590   6.435 -0.2751 -0.4877 -0.0970
 5717SOL    HW128805   1.614   6.683   6.471  1.9326 -0.8083  0.3619
 5717SOL    HW228806   1.686   6.536   6.465 -1.0996 -2.2815 -1.0532
 5718SOL     OW28807   0.500   4.871   0.650  0.2776 -0.3150 -0.3818
 5718SOL    HW128808   0.430   4.889   0.581 -0.5616 -0.0582  0.5285
 5718SOL    HW228809   0.522   4.773   0.650 -0.2225 -0.4285 -0.5374
 5719SOL     OW28810   5.872   3.048   1.407  0.3805 -0.1375  0.1732
 5719SOL    HW128811   5.910   3.138   1.426 -0.0057  0.1796 -0.5677
 5719SOL    HW228812   5.778   3.044   1.441  0.3496 -0.2198  0.0766
 5720SOL     OW28813   4.463   2.359   6.815  0.3095  0.4618  0.6759
 5720SOL    HW128814   4.424   2.312   6.736  0.2544 -1.5629  1.8901
 5720SOL    HW228815   4.394   2.418   6.856 -0.0986  0.4079  0.0790
 5721SOL     OW28816   8.700   1.432   1.290 -0.6170  0.2073 -0.3674
 5721SOL    HW128817   8.625   1.413   1.226  0.6671 -1.1748 -1.5155
 5721SOL    HW228818   8.783   1.451   1.238  0.7225 -2.0424  0.9043
 5722SOL     OW28819   7.385   2.134   1.296 -0.3004 -0.8079  0.2833
 5722SOL    HW128820   7.377   2.223   1.252  1.1292 -0.5523  0.5152
 5722SOL    HW228821   7.405   2.146   1.393 -0.5954 -1.3812  0.4195
 5723SOL     OW28822   2.912   7.370   2.602  0.0670  0.2028  0.1815
 5723SOL    HW128823   2.974   7.367   2.523  0.0706  1.6095  0.1207
 5723SOL    HW228824   2.818   7.357   2.570 -0.0000  1.4733 -0.1411
 5724SOL     OW28825   4.950   9.735   6.774  0.5719 -0.2500  0.4770
 5724SOL    HW128826   4.887   9.715   6.850  0.1575  0.7419  0.4137
 5724SOL    HW228827   4.899   9.775   6.698  0.9660 -1.3859 -0.3972
 5725SOL     OW28828   8.647   9.636   6.771  0.2140  0.0225 -0.1450
 5725SOL    HW128829   8.641   9.551   6.718  0.2570  0.1386 -0.3381
 5725SOL    HW228830   8.589   9.705   6.729 -0.4250 -0.1481  0.4705
 5726SOL     OW28831   9.089   1.352   7.979  0.1843  0.2061 -0.2518
 5726SOL    HW128832   9.036   1.436   7.991  1.2660  0.5911  1.8961
 5726SOL    HW228833   9.177   1.360   8.025 -0.2934 -2.6646  1.3283
 5727SOL     OW28834   4.803   0.392   1.853  0.1199 -0.4630 -0.2902
 5727SOL    HW128835   4.778   0.409   1.948  0.6917  0.1727 -0.2475
 5727SOL    HW228836   4.902   0.376   1.848  0.0889 -0.4972 -0.7741
 5728SOL     OW28837   9.043   3.380   3.243  0.0827  0.1263  0.0317
 5728SOL    HW128838   9.060   3.456   3.306  2.2784  1.4256 -2.0593
 5728SOL    HW228839   8.992   3.413   3.164 -1.0685 -1.1175  0.2365
 5729SOL     OW28840   6.539   1.367   5.390 -0.8088 -0.2363  0.7208
 5729SOL    HW128841   6.488   1.451   5.407  0.9512  0.8233  0.8510
 5729SOL    HW228842   6.632   1.376   5.426  0.1235 -1.3649 -1.3212
 5730SOL     OW28843   7.376   8.343   5.290 -0.0544  0.1369 -0.4365
 5730SOL    HW128844   7.441   8.267   5.288 -0.4057 -0.1559 -0.9455
 5730SOL    HW228845   7.345   8.358   5.384 -1.8140 -1.9225 -0.6561
 5731SOL     OW28846   6.913   1.183   4.946  0.3077 -0.8892 -0.2243
 5731SOL    HW128847   6.818   1.158   4.964  0.6748 -1.6419  0.6986
 5731SOL    HW228848   6.972   1.141   5.014  1.3458 -0.6977 -0.9899
 5732SOL     OW28849   4.066   2.464   7.834  0.0863 -0.0778 -0.1786
 5732SOL    HW128850   4.123   2.477   7.915  1.9257 -0.1363 -1.4005
 5732SOL    HW228851   4.063   2.549   7.781  0.6317 -0.6111 -1.0888
 5733SOL     OW28852   9.586   5.915   6.853 -0.1286 -0.0170  0.5254
 5733SOL    HW128853   9.501   5.958   6.822 -0.6550 -2.2089 -1.2204
 5733SOL    HW228854   9.659   5.935   6.787  0.5006  1.1130  1.5522
 5734SOL     OW28855   0.296   1.514   8.183  0.2935  0.3200 -0.4862
 5734SOL    HW128856   0.207   1.497   8.140  0.3122  1.6554 -1.0609
 5734SOL    HW228857   0.289   1.495   8.281  0.4169 -3.3985 -1.0934
 5735SOL     OW28858   9.449   3.501   2.058  0.0084  0.5121 -0.5945
 5735SOL    HW128859   9.510   3.501   2.137  1.4718 -0.9456 -1.6763
 5735SOL    HW228860   9.392   3.419   2.060 -0.2607  0.6904 -0.8250
 5736SOL     OW28861   0.468   8.622   2.545 -0.2865 -0.6595  0.4494
 5736SOL    HW128862   0.424   8.597   2.631 -0.2417  1.1429  1.0123
 5736SOL    HW228863   0.567   8.630   2.559 -0.4103  0.8399  0.5406
 5737SOL     OW28864   7.962   7.152   7.008 -0.1643  0.0478 -0.1307
 5737SOL    HW128865   8.058   7.156   7.035 -0.8383  0.6062  2.3611
 5737SOL    HW228866   7.909   7.214   7.065 -1.9438  0.1141 -1.8160
 5738SOL     OW28867   4.146   0.546   7.925 -0.4203 -0.1703 -0.2117
 5738SOL    HW128868   4.191   0.474   7.978  2.2260  1.2776 -0.3843
 5738SOL    HW228869   4.153   0.525   7.828 -0.1551  0.0203 -0.2348
 5739SOL     OW28870   2.916   4.884   1.998  0.5574  0.3772  0.3700
 5739SOL    HW128871   2.948   4.790   2.010  0.7447  0.3898 -0.0260
 5739SOL    HW228872   2.989   4.948   2.019  1.2149  0.3823 -1.7341
 5740SOL     OW28873   9.962   0.593   7.964 -0.0054 -0.2603 -0.0984
 5740SOL    HW128874   9.988   0.688   7.980 -1.2938  0.3328 -1.4667
 5740SOL    HW228875   9.890   0.566   8.028  2.4119 -1.2713  2.3035
 5741SOL     OW28876   1.786   8.754   3.534 -0.0762 -0.3568  0.1082
 5741SOL    HW128877   1.794   8.678   3.469 -1.0338 -0.5526  0.2147
 5741SOL    HW228878   1.702   8.744   3.588  0.2740  0.2669  0.7837
 5742SOL     OW28879   5.899   1.907   6.200  0.0616 -0.1415 -0.4040
 5742SOL    HW128880   5.932   1.866   6.285 -1.3897 -0.5212 -0.0194
 5742SOL    HW228881   5.976   1.919   6.137  1.2317  0.5967  1.1358
 5743SOL     OW28882   6.390   9.138   5.303 -0.0943  0.3526  0.4608
 5743SOL    HW128883   6.440   9.215   5.343  2.5290 -1.2133  0.2886
 5743SOL    HW228884   6.357   9.078   5.376  0.2804  0.1905  0.5010
 5744SOL     OW28885   1.318   5.523   5.505 -0.0335 -0.7265 -0.1044
 5744SOL    HW128886   1.248   5.470   5.456 -0.7839 -0.6041  0.8203
 5744SOL    HW228887   1.378   5.568   5.439 -0.2038 -1.6617 -0.9046
 5745SOL     OW28888   4.877   3.389   7.894 -0.1501  0.0313  0.5765
 5745SOL    HW128889   4.875   3.486   7.872  1.0503 -0.3234 -1.1612
 5745SOL    HW228890   4.959   3.367   7.947 -0.2410 -0.1140  0.6611
 5746SOL     OW28891   9.854   7.178   3.560 -0.3412  0.2183 -0.1191
 5746SOL    HW128892   9.756   7.162   3.570 -0.5283  0.6086 -1.1607
 5746SOL    HW228893   9.871   7.276   3.558 -0.1189  0.1699 -1.4308
 5747SOL     OW28894   0.035   0.632   0.958 -0.4300  0.5926  0.1793
 5747SOL    HW128895   0.085   0.719   0.958 -0.7230  0.7620  0.4906
 5747SOL    HW228896   0.048   0.586   1.046  0.6030 -0.1879 -0.3739
 5748SOL     OW28897   7.040   1.085   5.924  0.5746 -0.2755 -0.2251
 5748SOL    HW128898   6.970   1.065   5.992  0.0710 -0.1258 -0.7044
 5748SOL    HW228899   7.015   1.166   5.872 -0.3278 -1.8602 -2.3463
 5749SOL     OW28900   3.773   5.698   0.327 -0.1507 -0.3215 -0.4242
 5749SOL    HW128901   3.687   5.749   0.329 -0.2437 -0.4796 -0.4012
 5749SOL    HW228902   3.834   5.739   0.259 -0.3126 -0.3209 -0.5705
 5750SOL     OW28903   4.139   8.210   3.159 -0.0319  0.2967 -0.3540
 5750SOL    HW128904   4.224   8.249   3.126 -0.9481  1.5262 -1.3145
 5750SOL    HW228905   4.154   8.115   3.188  1.4968  0.3001 -1.1083
 5751SOL     OW28906   2.858   5.005   2.540  0.1867  0.2731 -0.4766
 5751SOL    HW128907   2.891   4.946   2.614  2.0208  2.0973  0.2151
 5751SOL    HW228908   2.868   4.958   2.453  1.6535 -0.4548  0.0587
 5752SOL     OW28909   7.834   7.664   5.016  0.1655  0.2720 -0.0709
 5752SOL    HW128910   7.846   7.760   5.041 -0.2312  0.0706  0.9537
 5752SOL    HW228911   7.797   7.614   5.095  0.9320 -0.8376 -0.3961
 5753SOL     OW28912   3.970   8.924   5.811 -0.0372 -0.6382  0.0899
 5753SOL    HW128913   3.951   8.977   5.728 -0.0042 -1.6906 -0.5984
 5753SOL    HW228914   3.893   8.932   5.874  0.8888  2.0155  0.9574
 5754SOL     OW28915   1.337   7.035   1.462  0.1142 -0.6606  0.0492
 5754SOL    HW128916   1.354   6.978   1.382  1.1638  1.6355 -1.4133
 5754SOL    HW228917   1.246   7.015   1.499  0.0432 -2.4763 -1.0747
 5755SOL     OW28918   9.204   6.323   1.964  0.4273  0.1419 -0.2654
 5755SOL    HW128919   9.108   6.337   1.944  0.3510 -1.2605 -0.9710
 5755SOL    HW228920   9.255   6.408   1.948 -0.9424  1.3866  1.8468
 5756SOL     OW28921   6.226   0.792   0.474  0.3419  0.3143 -0.2937
 5756SOL    HW128922   6.257   0.831   0.561  0.7761 -0.2702 -0.1842
 5756SOL    HW228923   6.230   0.862   0.403 -1.6433  1.2903  0.5091
 5757SOL     OW28924   1.321   8.009   6.602 -0.2360  0.0907 -0.5374
 5757SOL    HW128925   1.264   8.053   6.533  1.0373  0.2281 -1.5379
 5757SOL    HW228926   1.317   7.909   6.590  1.4550  0.1676 -2.0773
 5758SOL     OW28927   5.230   9.549   1.843 -0.5926 -0.1477 -0.2945
 5758SOL    HW128928   5.132   9.568   1.855 -0.5471  0.5677 -1.0222
 5758SOL    HW228929   5.269   9.520   1.930 -1.1373  0.9759  0.3358
 5759SOL     OW28930   4.195   9.938   8.199  0.0124 -0.3546 -0.2995
 5759SOL    HW128931   4.113   9.953   8.144 -0.3957  2.4290  1.0027
 5759SOL    HW228932   4.186   9.852   8.249 -1.0551 -1.2461 -1.9458
 5760SOL     OW28933   0.363   7.341   7.080  0.0921 -0.0336 -0.7864
 5760SOL    HW128934   0.410   7.387   7.004 -0.2612  3.0374  0.7996
 5760SOL    HW228935   0.428   7.324   7.154 -0.4274  0.5838 -0.1872
 5761SOL     OW28936   2.054   0.865   2.810 -0.0986 -0.1782 -0.8482
 5761SOL    HW128937   2.001   0.884   2.727  0.8042 -0.1677 -1.4241
 5761SOL    HW228938   2.001   0.804   2.869 -0.3232 -1.0163 -1.9013
 5762SOL     OW28939   0.986   0.577   5.821 -0.4542 -0.2458 -0.3398
 5762SOL    HW128940   1.081   0.558   5.798 -0.2833 -0.6597  0.7031
 5762SOL    HW228941   0.981   0.622   5.910 -1.0239  2.5804 -1.7429
 5763SOL     OW28942   5.339   5.036   0.098  0.3402  0.0385 -0.1207
 5763SOL    HW128943   5.315   5.093   0.176 -1.9312 -0.4615 -0.4121
 5763SOL    HW228944   5.256   5.016   0.044  1.5607 -1.1459 -1.6150
 5764SOL     OW28945   9.708   3.178   2.713  0.5605 -0.2208 -0.0503
 5764SOL    HW128946   9.749   3.215   2.796  1.0094  1.0025 -0.8101
 5764SOL    HW228947   9.779   3.156   2.647  0.0896  0.9023 -0.9548
 5765SOL     OW28948   6.242   9.515   2.217  0.6666  0.7831 -0.1742
 5765SOL    HW128949   6.209   9.609   2.216 -0.7553  0.3505  2.7915
 5765SOL    HW228950   6.309   9.504   2.291 -0.0293 -0.8205  0.2265
 5766SOL     OW28951   1.992   1.628   5.072  0.0559  0.0684 -0.4811
 5766SOL    HW128952   1.982   1.599   5.167 -1.0316 -1.1272 -0.9479
 5766SOL    HW228953   2.086   1.661   5.057 -0.0288  1.1139  1.2182
 5767SOL     OW28954   4.546   6.752   3.023  0.2110 -0.6094  0.1091
 5767SOL    HW128955   4.472   6.785   3.082 -1.2330  1.0772 -2.5390
 5767SOL    HW228956   4.625   6.814   3.030  0.0085 -0.3624  0.1877
 5768SOL     OW28957   4.005   6.565   2.330 -0.3780 -0.3670  0.1013
 5768SOL    HW128958   4.086   6.624   2.332 -0.7922  0.2009  0.7367
 5768SOL    HW228959   4.006   6.509   2.248  2.0090 -2.2884  1.3773
 5769SOL     OW28960   7.181   2.361   2.903 -0.2069 -0.4354  0.0910
 5769SOL    HW128961   7.155   2.279   2.851  0.0188 -0.2837 -0.2612
 5769SOL    HW228962   7.152   2.350   2.998 -1.0539 -0.5104 -0.1717
 5770SOL     OW28963   8.377   9.371   0.143 -0.6702 -0.0313 -0.0805
 5770SOL    HW128964   8.463   9.330   0.174  0.6552  1.1639 -2.0617
 5770SOL    HW228965   8.345   9.324   0.062 -2.1348 -0.7281  0.8824
 5771SOL     OW28966   3.516   6.594   2.339  0.5154 -0.2473  0.4592
 5771SOL    HW128967   3.497   6.665   2.407  0.0472 -1.3435  1.4985
 5771SOL    HW228968   3.571   6.522   2.381  0.1866 -0.9575 -0.3179
 5772SOL     OW28969   3.257   3.077   0.585  0.0509  0.8382  0.3321
 5772SOL    HW128970   3.279   3.082   0.488  1.1917  1.5700  0.6188
 5772SOL    HW228971   3.176   3.132   0.604 -0.1080  0.7832 -0.1797
 5773SOL     OW28972   3.407   2.759   6.127 -0.2066 -0.0042  0.1094
 5773SOL    HW128973   3.424   2.771   6.225 -0.4427  1.4437 -0.0063
 5773SOL    HW228974   3.378   2.665   6.109 -1.0641 -0.0299  1.5647
 5774SOL     OW28975   6.501   9.624   4.054  0.1484 -0.3463  0.4821
 5774SOL    HW128976   6.537   9.589   3.968 -0.6720 -1.1428  0.4594
 5774SOL    HW228977   6.485   9.722   4.046  2.0957 -0.0017  0.4189
 5775SOL     OW28978   6.073   4.865   0.613 -0.8323  0.1486 -0.4218
 5775SOL    HW128979   6.115   4.801   0.548 -1.0429 -0.3130 -0.1031
 5775SOL    HW228980   5.996   4.820   0.658 -1.1579  0.7226 -0.4046
 5776SOL     OW28981   2.868   0.605   4.244  0.7371 -1.0112 -0.2920
 5776SOL    HW128982   2.888   0.515   4.281 -1.5876  0.0770  3.8744
 5776SOL    HW228983   2.770   0.614   4.227  0.6523  1.3236  1.1683
 5777SOL     OW28984   5.924   9.636   2.260 -0.0150  0.1362 -0.2796
 5777SOL    HW128985   5.944   9.732   2.241  1.3014 -0.2750 -0.9914
 5777SOL    HW228986   5.916   9.586   2.175 -0.5289 -0.4326  0.0999
 5778SOL     OW28987   3.886   8.901   8.088  0.2547  0.5779 -0.2161
 5778SOL    HW128988   3.923   8.993   8.075  0.1874  0.6731  0.2424
 5778SOL    HW228989   3.884   8.853   8.000  2.6515  0.1251 -0.0654
 5779SOL     OW28990   2.370   7.590   0.462 -0.2002  0.7121 -0.2937
 5779SOL    HW128991   2.270   7.592   0.470 -0.2677  1.6820 -1.2578
 5779SOL    HW228992   2.401   7.674   0.416  1.1275  0.8104  0.7601
 5780SOL     OW28993   0.008   7.602   3.206 -0.4685 -0.6269  0.1731
 5780SOL    HW128994   0.091   7.553   3.231 -0.3235 -0.6740 -0.3922
 5780SOL    HW228995   0.026   7.660   3.127 -0.4746  0.8146  1.2079
 5781SOL     OW28996   9.876   1.556   4.448  0.3446 -0.4668 -0.3903
 5781SOL    HW128997   9.914   1.621   4.383  1.5867 -2.1097 -1.3336
 5781SOL    HW228998   9.781   1.536   4.423 -0.3473  1.6005  0.4196
 5782SOL     OW28999   8.913   1.269   1.681 -0.6191  0.2160  0.0956
 5782SOL    HW129000   8.896   1.176   1.649  0.6590 -0.3352  0.9890
 5782SOL    HW229001   8.957   1.322   1.608  3.6957 -1.4678  1.3533
 5783SOL     OW29002   9.233   7.818   4.529 -0.6257 -0.4427  0.9277
 5783SOL    HW129003   9.269   7.791   4.439 -0.4348 -1.1557  1.2139
 5783SOL    HW229004   9.133   7.817   4.527 -0.6578  1.5400  0.1302
 5784SOL     OW29005   2.764   2.645   5.606  0.3283 -0.2127  0.6308
 5784SOL    HW129006   2.780   2.557   5.652  0.3532 -0.7395 -0.3777
 5784SOL    HW229007   2.847   2.673   5.558  0.2301  0.2253  0.7159
 5785SOL     OW29008   9.950   4.932   2.701 -0.1358 -0.1499 -0.2554
 5785SOL    HW129009   9.953   4.960   2.605  0.2062  0.7693  0.0143
 5785SOL    HW229010   9.939   5.013   2.759 -0.5134 -0.7139  0.4734
 5786SOL     OW29011   4.050   5.529   3.030 -0.1874 -0.1976 -0.1894
 5786SOL    HW129012   3.987   5.605   3.017  1.0354  1.1101  1.4229
 5786SOL    HW229013   4.009   5.445   2.993 -3.0200  0.5547  1.1157
 5787SOL     OW29014   6.902   9.687   4.444 -0.2174  0.2513 -0.1242
 5787SOL    HW129015   6.914   9.591   4.470  3.3589  0.6876  0.0831
 5787SOL    HW229016   6.917   9.696   4.345  0.6971  0.7735  0.0599
 5788SOL     OW29017   1.335   2.958   2.703  0.2883  0.6163 -0.2380
 5788SOL    HW129018   1.367   3.051   2.683  0.9411  0.4039 -0.1855
 5788SOL    HW229019   1.237   2.952   2.682  0.2420  1.3134 -0.2483
 5789SOL     OW29020   2.196   5.164   7.203 -0.3600 -0.3353  0.3001
 5789SOL    HW129021   2.190   5.094   7.275 -1.8397  0.7153  1.2216
 5789SOL    HW229022   2.156   5.249   7.236 -1.4722  0.0478 -1.9355
 5790SOL     OW29023   2.307   1.864   1.553  0.2626  0.3412 -0.6868
 5790SOL    HW129024   2.334   1.945   1.605  0.0134 -0.6621  1.0450
 5790SOL    HW229025   2.271   1.892   1.464  0.9865  2.0705 -0.4560
 5791SOL     OW29026   0.464   5.132   1.334  0.0148 -0.4660  0.3308
 5791SOL    HW129027   0.508   5.051   1.372 -0.2969 -1.1123 -0.6869
 5791SOL    HW229028   0.366   5.115   1.322 -0.2784  0.4771  1.2360
 5792SOL     OW29029   8.724   8.917   3.336 -0.3247 -0.1895  0.0686
 5792SOL    HW129030   8.809   8.897   3.288  0.1823 -2.0204  1.6829
 5792SOL    HW229031   8.713   8.854   3.413 -1.8772  1.6755  1.4293
 5793SOL     OW29032   0.782   2.498   2.119 -0.1970 -0.5938  0.1433
 5793SOL    HW129033   0.788   2.485   2.020 -1.3820  0.8073 -0.1312
 5793SOL    HW229034   0.851   2.441   2.164  0.8792 -0.6608 -1.5275
 5794SOL     OW29035   7.394   1.414   4.466 -0.0488  0.1965  0.1647
 5794SOL    HW129036   7.455   1.382   4.538  0.2239  1.3647  0.4720
 5794SOL    HW229037   7.312   1.455   4.508  1.2457  3.1733 -0.0741
 5795SOL     OW29038   1.152   0.717   6.263  0.0960 -0.2247 -0.1997
 5795SOL    HW129039   1.251   0.734   6.261  0.0755 -0.0699  0.0636
 5795SOL    HW229040   1.118   0.731   6.356 -0.2726  0.2720 -0.4040
 5796SOL     OW29041   1.749   3.119   1.031 -0.5550 -0.1278  0.3311
 5796SOL    HW129042   1.766   3.208   1.073 -1.5931  0.1420  0.1964
 5796SOL    HW229043   1.713   3.055   1.099 -0.3456 -0.2782  0.3019
 5797SOL     OW29044   3.403   5.380   4.294 -0.5508 -0.1048  0.0219
 5797SOL    HW129045   3.315   5.379   4.342 -0.8324 -2.2106 -0.4794
 5797SOL    HW229046   3.416   5.292   4.247  2.0716 -0.0578  0.5746
 5798SOL     OW29047   8.376   9.224   8.094  0.2931  0.1018 -0.4570
 5798SOL    HW129048   8.341   9.131   8.085 -1.5803  0.9317 -2.0665
 5798SOL    HW229049   8.344   9.280   8.017  2.2870  1.8138 -0.0984
 5799SOL     OW29050   8.886   7.222   2.672  0.4071  0.3515  0.1480
 5799SOL    HW129051   8.953   7.291   2.700  1.0566 -0.2081 -0.0017
 5799SOL    HW229052   8.834   7.256   2.594  1.0559  0.4885 -0.2295
 5800SOL     OW29053   0.653   7.135   0.828 -0.5702 -0.1934  0.0415
 5800SOL    HW129054   0.737   7.188   0.821 -1.0436  0.5258 -0.2499
 5800SOL    HW229055   0.675   7.038   0.834  0.2135 -0.1373 -1.7553
 5801SOL     OW29056   4.524   5.550   1.389 -0.4181 -0.4283 -0.4685
 5801SOL    HW129057   4.576   5.491   1.327  0.0968 -0.5018  0.0302
 5801SOL    HW229058   4.575   5.634   1.407 -0.5747 -0.3941 -0.1687
 5802SOL     OW29059   1.718   4.264   1.240 -0.3655 -0.0895 -0.1939
 5802SOL    HW129060   1.660   4.258   1.158 -1.0514 -0.0341  0.2856
 5802SOL    HW229061   1.661   4.280   1.320  0.2041 -1.2529  0.4564
 5803SOL     OW29062   4.995   9.057   2.463 -0.2909  0.5341  0.1238
 5803SOL    HW129063   4.900   9.072   2.435 -0.4137 -1.3793 -0.5690
 5803SOL    HW229064   5.000   9.053   2.563 -0.6735  2.1856  0.2261
 5804SOL     OW29065   1.483   3.099   5.288 -0.3884  0.4748 -0.0391
 5804SOL    HW129066   1.466   3.194   5.315 -0.2955  0.3312  0.5307
 5804SOL    HW229067   1.420   3.039   5.337  0.4217  0.1232  0.5666
 5805SOL     OW29068   3.521   4.572   4.072  0.5857  0.8805  0.2673
 5805SOL    HW129069   3.494   4.599   4.164  0.7261  0.1894  0.5210
 5805SOL    HW229070   3.556   4.478   4.075  2.1501  1.4290 -0.1935
 5806SOL     OW29071   5.814   0.219   2.182  0.2785  0.4728  0.0436
 5806SOL    HW129072   5.833   0.199   2.278  1.3297 -2.1503 -0.6637
 5806SOL    HW229073   5.776   0.138   2.138  2.3091  0.7684 -2.3915
 5807SOL     OW29074   1.707   0.379   1.080 -0.2411  0.1608 -0.2862
 5807SOL    HW129075   1.614   0.351   1.101  0.8780 -1.8298  2.4089
 5807SOL    HW229076   1.729   0.352   0.986 -2.0942 -0.1403 -0.6524
 5808SOL     OW29077   3.102   3.260   2.412 -0.4384  0.7987  0.4072
 5808SOL    HW129078   3.078   3.166   2.390 -0.3923  0.4783  1.6726
 5808SOL    HW229079   3.201   3.272   2.407 -0.2733  0.2879  2.0151
 5809SOL     OW29080   2.306   2.078   3.292  0.4381  0.3353  0.7990
 5809SOL    HW129081   2.246   2.063   3.371  0.7443  0.6367  1.0916
 5809SOL    HW229082   2.298   2.172   3.262 -1.3916 -0.3658 -0.9637
 5810SOL     OW29083   8.831   3.529   6.785  0.3776 -0.3262 -0.1637
 5810SOL    HW129084   8.897   3.541   6.711  1.7433  1.0718  1.2520
 5810SOL    HW229085   8.764   3.602   6.781  0.5750 -0.1319  0.1133
 5811SOL     OW29086   4.027   9.218   4.114 -0.2760 -0.3647  0.2747
 5811SOL    HW129087   4.097   9.285   4.091 -0.6884 -0.3206 -0.9024
 5811SOL    HW229088   4.057   9.126   4.087  0.1757 -0.6278  1.6363
 5812SOL     OW29089   3.046   0.060   4.607 -0.5715  0.3647  0.1162
 5812SOL    HW129090   2.971   0.058   4.673 -0.9468 -1.1404 -0.3194
 5812SOL    HW229091   3.115  -0.007   4.633  0.3094  1.2827  0.1481
 5813SOL     OW29092   7.914   3.591   7.502  0.7246 -0.3023 -0.8703
 5813SOL    HW129093   7.967   3.674   7.487  0.5567 -0.0775 -0.2527
 5813SOL    HW229094   7.971   3.511   7.481  1.0238 -0.0420 -1.0497
 5814SOL     OW29095   0.367   0.398   3.354 -0.0984 -0.0769 -0.1193
 5814SOL    HW129096   0.281   0.348   3.355 -0.2184  0.1322  0.8879
 5814SOL    HW229097   0.359   0.478   3.295 -0.1611 -0.7915 -1.0917
 5815SOL     OW29098   3.006   2.566   6.267  0.0582  0.9493 -0.0617
 5815SOL    HW129099   2.958   2.624   6.201  0.9461  0.8013 -0.8337
 5815SOL    HW229100   2.963   2.476   6.269 -0.3327  1.1333 -0.0045
 5816SOL     OW29101   7.733   4.937   1.324 -0.1871  0.0059 -0.3412
 5816SOL    HW129102   7.733   4.894   1.415  0.0782  0.0491 -0.3203
 5816SOL    HW229103   7.786   4.882   1.261  0.4867  0.5020 -0.2175
 5817SOL     OW29104   9.045   9.026   7.626 -0.4852  0.6618 -0.0913
 5817SOL    HW129105   9.038   9.126   7.628  3.5742  1.0120  0.2922
 5817SOL    HW229106   9.030   8.989   7.718 -1.2324  0.9366 -0.0940
 5818SOL     OW29107   1.538   3.086   8.183 -0.1541 -0.0037 -0.4429
 5818SOL    HW129108   1.571   2.993   8.168 -0.7569 -0.6568  1.9890
 5818SOL    HW229109   1.613   3.145   8.213 -0.2332 -0.2750  0.2823
 5819SOL     OW29110   4.479   4.944   0.331 -0.4585  0.2624 -0.4506
 5819SOL    HW129111   4.519   4.915   0.418 -1.5776 -0.5898 -0.2021
 5819SOL    HW229112   4.390   4.986   0.348 -1.3779 -1.3048 -1.3016
 5820SOL     OW29113   3.265   8.500   0.228  0.0032 -0.3765 -0.1199
 5820SOL    HW129114   3.273   8.429   0.299  1.2125 -0.5376 -0.4146
 5820SOL    HW229115   3.244   8.457   0.140 -0.0741 -0.3002 -0.1388
 5821SOL     OW29116   0.475   4.438   6.630  0.1322  0.7479  0.2937
 5821SOL    HW129117   0.542   4.503   6.664  1.4361 -0.9935  1.1298
 5821SOL    HW229118   0.406   4.421   6.701 -0.0429  0.9673  0.1799
 5822SOL     OW29119   3.471   5.276   6.154 -0.9944  0.4537 -0.5035
 5822SOL    HW129120   3.551   5.216   6.161 -1.3323  0.1493  0.8614
 5822SOL    HW229121   3.432   5.268   6.062  0.3404  0.3572 -1.0771
 5823SOL     OW29122   6.627   2.391   0.964 -0.1126 -0.0648  0.4325
 5823SOL    HW129123   6.704   2.432   1.014 -0.9493  2.8425 -0.5366
 5823SOL    HW229124   6.542   2.407   1.014 -0.6662  0.9388 -0.7844
 5824SOL     OW29125   1.054   7.404   7.259  0.4612 -0.0326 -0.0218
 5824SOL    HW129126   1.093   7.431   7.347 -2.1118  2.3831  0.4773
 5824SOL    HW229127   1.082   7.469   7.188  0.4774 -0.5083 -0.4551
 5825SOL     OW29128   0.874   0.399   6.873 -0.0858  0.5259  0.5383
 5825SOL    HW129129   0.911   0.411   6.965 -1.7586 -0.5203  1.3879
 5825SOL    HW229130   0.802   0.466   6.856 -0.9677 -0.3685  0.6622
 5826SOL     OW29131   8.242   7.211   1.070 -0.7824  0.0759  0.1642
 5826SOL    HW129132   8.311   7.139   1.067 -1.1482 -0.2549 -0.3472
 5826SOL    HW229133   8.195   7.217   0.982 -2.5335 -0.8084  1.0152
 5827SOL     OW29134   6.628   7.364   2.977 -0.6640  0.1966  0.7149
 5827SOL    HW129135   6.557   7.419   2.933 -2.5477 -1.6795  1.3096
 5827SOL    HW229136   6.640   7.279   2.926 -0.1712 -0.3245  1.6870
 5828SOL     OW29137   1.830   9.356   3.193  0.3805 -0.0308 -0.1275
 5828SOL    HW129138   1.897   9.284   3.183  0.9147  0.3060  0.9633
 5828SOL    HW229139   1.779   9.343   3.278  0.4950  0.8783  0.0878
 5829SOL     OW29140   5.298   0.335   1.533  0.0606  0.4324 -0.5984
 5829SOL    HW129141   5.281   0.431   1.557  0.3767  0.7290 -1.5457
 5829SOL    HW229142   5.214   0.282   1.546 -0.5471  1.1347 -1.5351
 5830SOL     OW29143   0.927   8.138   3.545 -0.6815  0.4507  0.3170
 5830SOL    HW129144   0.831   8.126   3.567 -0.9846  2.1543 -0.0028
 5830SOL    HW229145   0.953   8.234   3.560  0.4025  0.4998 -1.7440
 5831SOL     OW29146   6.734   4.736   7.732  0.3275 -0.0328 -0.5027
 5831SOL    HW129147   6.810   4.697   7.680  1.4971  1.5676 -0.0233
 5831SOL    HW229148   6.659   4.670   7.736  1.1657 -1.1208 -2.1207
 5832SOL     OW29149   8.389   7.019   6.238 -0.1834 -0.5143 -0.0006
 5832SOL    HW129150   8.466   7.082   6.232  0.0194 -0.8109 -0.4906
 5832SOL    HW229151   8.334   7.042   6.318  0.9459 -0.8842  0.9052
 5833SOL     OW29152   8.160   0.385   6.436 -0.1510 -0.2348  0.0477
 5833SOL    HW129153   8.187   0.315   6.503 -0.2931  0.6069  1.0027
 5833SOL    HW229154   8.207   0.471   6.458 -2.0132  0.6991  0.5047
 5834SOL     OW29155   3.465   1.669   6.666 -0.5669  0.5630 -0.0344
 5834SOL    HW129156   3.466   1.695   6.569  0.1057  1.7750  0.2850
 5834SOL    HW229157   3.493   1.747   6.721 -0.8919 -0.1437  1.1418
 5835SOL     OW29158   7.408   1.668   8.065  0.1504 -0.0044  0.3196
 5835SOL    HW129159   7.447   1.606   8.132 -0.7772 -2.5038 -1.3792
 5835SOL    HW229160   7.331   1.624   8.019 -1.3457  2.8923 -0.0616
 5836SOL     OW29161   7.685   4.667   7.014  0.6504 -0.4213 -0.3804
 5836SOL    HW129162   7.685   4.607   6.935 -0.3827 -0.9420  0.0121
 5836SOL    HW229163   7.751   4.633   7.081 -1.1657 -2.1352  0.5885
 5837SOL     OW29164   8.789   4.554   5.891  0.3867  0.6418  0.2087
 5837SOL    HW129165   8.770   4.467   5.846  1.6412  0.8021 -0.6334
 5837SOL    HW229166   8.834   4.538   5.979 -0.4602  0.4028  0.6050
 5838SOL     OW29167   3.214   8.728   6.100  0.2119  0.1160 -0.3255
 5838SOL    HW129168   3.154   8.657   6.138  1.8440 -1.1160 -0.0120
 5838SOL    HW229169   3.173   8.764   6.016 -2.2475  1.1666  1.2506
 5839SOL     OW29170   2.064   7.350   2.339 -0.0780 -0.1305 -0.4521
 5839SOL    HW129171   2.079   7.325   2.243  1.8109 -2.0699  0.2899
 5839SOL    HW229172   2.121   7.429   2.362  0.1437 -0.2140 -0.7119
 5840SOL     OW29173   1.437   9.225   6.418  0.7454 -0.7621 -0.2598
 5840SOL    HW129174   1.433   9.245   6.516  0.4854 -2.2691  0.0507
 5840SOL    HW229175   1.375   9.149   6.397  0.0482  0.1892 -1.7627
 5841SOL     OW29176   7.911   2.566   2.667  0.7563 -0.1613  0.1463
 5841SOL    HW129177   7.872   2.599   2.581 -1.6799 -0.4819  1.0840
 5841SOL    HW229178   8.011   2.565   2.661  0.7026  2.6259 -1.6033
 5842SOL     OW29179   1.817   8.318   2.112  0.0688 -0.2458  0.6245
 5842SOL    HW129180   1.766   8.353   2.191 -0.2590  0.5451  0.0704
 5842SOL    HW229181   1.808   8.218   2.108 -0.7044 -0.2010  1.0450
 5843SOL     OW29182   3.247   2.960   4.752  0.2329  0.1887 -0.0007
 5843SOL    HW129183   3.286   2.901   4.823  3.0319 -0.0934 -1.6619
 5843SOL    HW229184   3.169   2.914   4.710  0.9546 -1.3626  0.2986
 5844SOL     OW29185   8.826   8.722   3.565  0.0216  0.3350  0.4239
 5844SOL    HW129186   8.810   8.765   3.654  3.4050 -0.8770  1.6911
 5844SOL    HW229187   8.755   8.654   3.547 -0.2638  0.0634  2.5400
 5845SOL     OW29188   3.085   8.166   5.184 -0.2342 -0.2743 -0.2919
 5845SOL    HW129189   3.105   8.234   5.113  0.3538 -1.4883 -1.3171
 5845SOL    HW229190   3.049   8.211   5.265  2.9766  1.6091  0.1647
 5846SOL     OW29191   2.398   3.567   6.360 -0.3738  0.3151 -0.1003
 5846SOL    HW129192   2.493   3.537   6.354 -1.1940 -2.0041 -1.9174
 5846SOL    HW229193   2.350   3.512   6.429 -0.9564 -0.0977 -0.8253
 5847SOL     OW29194   9.196   9.530   1.924  0.0256  0.6760  0.3971
 5847SOL    HW129195   9.278   9.585   1.908 -1.0526  1.5874 -2.2685
 5847SOL    HW229196   9.222   9.443   1.966  2.1413  1.6576  1.2137
 5848SOL     OW29197   8.251   4.138   7.478  0.0743 -0.1495 -0.1662
 5848SOL    HW129198   8.200   4.174   7.400 -0.8847 -0.1776  0.4307
 5848SOL    HW229199   8.251   4.206   7.552  2.7043  0.7025 -0.9047
 5849SOL     OW29200   1.770   6.952   6.217  0.2010 -0.0635 -0.0050
 5849SOL    HW129201   1.698   7.021   6.215  2.5308  2.4322 -2.5509
 5849SOL    HW229202   1.828   6.966   6.297  1.0965  1.4678 -0.8950
 5850SOL     OW29203   1.877   8.278   0.686 -0.2183 -0.1698  0.5970
 5850SOL    HW129204   1.956   8.310   0.738 -0.1023 -1.2596  1.1101
 5850SOL    HW229205   1.793   8.299   0.736 -0.0783 -1.7392  1.5450
 5851SOL     OW29206   2.155   8.985   6.775  0.1915  0.0283 -0.3337
 5851SOL    HW129207   2.226   9.046   6.810 -1.1741  1.0838  0.6844
 5851SOL    HW229208   2.077   8.987   6.837 -0.2871 -1.9841 -0.8429
 5852SOL     OW29209   4.164   8.803   3.119  0.0079  0.4981 -0.2716
 5852SOL    HW129210   4.092   8.774   3.182  0.8355 -0.7423  0.1055
 5852SOL    HW229211   4.186   8.729   3.057  0.7069  1.0032 -0.6310
 5853SOL     OW29212   8.469   0.631   6.046  0.6634  0.3966 -0.4458
 5853SOL    HW129213   8.522   0.704   6.090  0.1331 -0.0563  0.9813
 5853SOL    HW229214   8.515   0.603   5.962  1.9470  0.9736  0.0436
 5854SOL     OW29215   1.661   6.469   2.100 -0.1259 -0.0551  0.2970
 5854SOL    HW129216   1.684   6.556   2.143 -2.2689  0.5420  0.3142
 5854SOL    HW229217   1.590   6.423   2.153 -1.3010 -0.2968 -1.4344
 5855SOL     OW29218   6.898   0.799   0.641 -0.6405 -0.5928  0.0314
 5855SOL    HW129219   6.973   0.806   0.707  0.6089  1.4359 -1.5673
 5855SOL    HW229220   6.840   0.880   0.646 -0.5424 -0.4259 -1.3663
 5856SOL     OW29221   0.024   2.474   6.940 -0.0814 -0.0909  0.0648
 5856SOL    HW129222  -0.031   2.436   7.014 -1.5293  2.0757  0.1434
 5856SOL    HW229223  -0.013   2.563   6.913  1.2246 -0.2328 -2.3547
 5857SOL     OW29224   5.718   9.775   6.598 -0.1595 -0.0950 -0.2800
 5857SOL    HW129225   5.665   9.851   6.635 -0.5748 -0.7756  0.5578
 5857SOL    HW229226   5.756   9.721   6.674  0.9147 -0.1798 -0.8646
 5858SOL     OW29227   6.323   2.488   1.637 -0.2202 -0.1534 -1.0920
 5858SOL    HW129228   6.331   2.550   1.558 -0.8302 -0.2646 -1.2450
 5858SOL    HW229229   6.379   2.407   1.621  0.5602  0.3487 -0.9052
 5859SOL     OW29230   3.325   7.682   2.342 -0.1069 -0.4645 -0.4659
 5859SOL    HW129231   3.240   7.695   2.393 -0.3356  0.7073 -1.1159
 5859SOL    HW229232   3.351   7.586   2.344 -2.0394 -1.0198 -1.1600
 5860SOL     OW29233   3.096   4.689   5.630 -0.5810  0.5549 -0.1749
 5860SOL    HW129234   3.139   4.653   5.712 -0.2552  2.2021  0.4026
 5860SOL    HW229235   2.999   4.664   5.629  0.1105 -2.2423 -0.9455
 5861SOL     OW29236   8.429   3.106   3.996 -0.9044  0.0534 -0.1085
 5861SOL    HW129237   8.378   3.025   3.964 -1.4149 -0.1131  1.1180
 5861SOL    HW229238   8.447   3.166   3.918  0.0589 -1.5528 -1.1467
 5862SOL     OW29239   2.456   3.862   0.228 -0.7081 -0.0309 -0.1199
 5862SOL    HW129240   2.554   3.854   0.210 -1.0452  0.0830 -2.2511
 5862SOL    HW229241   2.439   3.941   0.287  0.4286  0.4077 -0.3566
 5863SOL     OW29242   3.036   2.147   4.244 -0.0851 -0.7100  0.0875
 5863SOL    HW129243   3.025   2.069   4.305 -0.4555 -1.7651 -1.3134
 5863SOL    HW229244   3.133   2.169   4.234 -0.0395 -0.3323  1.2885
 5864SOL     OW29245   3.048   1.938   1.167  0.1567  0.6478 -0.2775
 5864SOL    HW129246   3.055   1.989   1.081  0.7223  1.3941  0.2023
 5864SOL    HW229247   2.982   1.983   1.227 -1.1599 -0.5748 -0.7964
 5865SOL     OW29248   3.615   9.897   8.071 -0.2403  0.2397  0.5591
 5865SOL    HW129249   3.659   9.966   8.014 -0.3551  0.6546  0.9676
 5865SOL    HW229250   3.532   9.935   8.112  0.1273  0.1245  1.4335
 5866SOL     OW29251   7.093   4.816   0.904  0.1286 -0.1308  0.2731
 5866SOL    HW129252   7.066   4.905   0.939 -0.6639 -0.4141  0.3903
 5866SOL    HW229253   7.079   4.814   0.805 -2.2548 -0.9537  0.5867
 5867SOL     OW29254   9.157   6.643   2.870  0.2640 -0.1752  0.0222
 5867SOL    HW129255   9.171   6.741   2.874  2.8384 -0.4558 -1.4420
 5867SOL    HW229256   9.198   6.600   2.950  1.1980 -0.2643 -0.4963
 5868SOL     OW29257   9.992   7.562   7.942 -0.5434 -0.2927  0.3009
 5868SOL    HW129258   9.937   7.492   7.988  0.4830 -0.1352  1.7945
 5868SOL    HW229259  10.041   7.616   8.010  0.6708  0.2358 -0.9721
 5869SOL     OW29260   4.749   3.745   0.751 -0.0278  0.6409 -0.3610
 5869SOL    HW129261   4.818   3.759   0.681 -0.3157  0.0385 -0.7700
 5869SOL    HW229262   4.764   3.810   0.826  2.4524 -1.0885  0.7029
 5870SOL     OW29263   8.840   7.463   3.515 -0.1516  0.3643  0.1664
 5870SOL    HW129264   8.907   7.392   3.537  0.1166  0.7395  0.5544
 5870SOL    HW229265   8.869   7.512   3.433 -1.0772 -0.9358 -0.9806
 5871SOL     OW29266   4.293   1.652   6.014  0.5161  0.0958 -0.6442
 5871SOL    HW129267   4.244   1.737   6.034  2.7748  1.2691  0.0454
 5871SOL    HW229268   4.297   1.639   5.915 -1.1734 -0.0129 -0.7059
 5872SOL     OW29269   1.761   8.617   5.210 -0.4377  0.5504 -0.0295
 5872SOL    HW129270   1.766   8.641   5.308  1.2161  0.1186  0.0137
 5872SOL    HW229271   1.676   8.568   5.192 -0.2427 -0.3694  1.4319
 5873SOL     OW29272   8.504   3.668   0.852 -0.1737  0.2689  0.0307
 5873SOL    HW129273   8.478   3.621   0.937 -0.3774  1.6255  0.7296
 5873SOL    HW229274   8.422   3.687   0.798 -0.2292  0.9642  0.3539
 5874SOL     OW29275   8.506   0.924   3.819  0.0145 -0.1231 -0.5552
 5874SOL    HW129276   8.442   0.984   3.771  0.6839  0.5521 -0.6158
 5874SOL    HW229277   8.529   0.964   3.907 -1.6829 -1.6561  0.6239
 5875SOL     OW29278   6.560   7.499   3.661 -0.4322 -0.1823  0.4829
 5875SOL    HW129279   6.517   7.418   3.702 -0.5271  0.0031  0.7512
 5875SOL    HW229280   6.650   7.475   3.625  0.3539  0.0327  2.2797
 5876SOL     OW29281   3.599   9.358   0.851  0.1618 -0.6275  0.6334
 5876SOL    HW129282   3.664   9.347   0.927  1.5056 -0.3486 -0.4630
 5876SOL    HW229283   3.586   9.455   0.833  0.0190 -0.6995  0.3550
 5877SOL     OW29284   5.054   4.592   1.125 -0.2480 -0.4236 -0.3440
 5877SOL    HW129285   5.083   4.516   1.067  0.5963 -0.8619  0.6264
 5877SOL    HW229286   5.084   4.678   1.085  1.0907 -0.7792 -0.1124
 5878SOL     OW29287   2.827   1.224   3.930  0.0373 -0.7655  0.4729
 5878SOL    HW129288   2.803   1.214   3.834 -1.7158  0.5410  0.7722
 5878SOL    HW229289   2.921   1.259   3.937  1.2461 -3.5457 -0.6947
 5879SOL     OW29290   7.274   9.722   6.507 -0.1369  0.1311  0.1502
 5879SOL    HW129291   7.247   9.633   6.471 -0.0117  0.2430 -0.2271
 5879SOL    HW229292   7.194   9.780   6.519  0.1918  1.5341 -3.8426
 5880SOL     OW29293   9.467   6.159   0.767 -0.2217 -0.0680  0.3058
 5880SOL    HW129294   9.462   6.147   0.668  0.0089  0.1380  0.2675
 5880SOL    HW229295   9.506   6.249   0.788  1.1230 -0.7064  0.5843
 5881SOL     OW29296   1.214   2.931   3.370  0.6104 -0.2030  0.5559
 5881SOL    HW129297   1.287   2.958   3.432  1.0794  0.4107 -0.2499
 5881SOL    HW229298   1.126   2.948   3.413  0.9101  1.8525  0.4149
 5882SOL     OW29299   3.607   1.485   4.945  0.2897 -0.4495 -0.5588
 5882SOL    HW129300   3.662   1.565   4.920 -0.8680  0.5728  0.1117
 5882SOL    HW229301   3.550   1.459   4.868  0.9578 -0.8906 -0.9140
 5883SOL     OW29302   2.067   4.839   1.387  0.3276 -0.6241 -0.4460
 5883SOL    HW129303   2.066   4.787   1.302  0.2313 -1.4895  0.0754
 5883SOL    HW229304   2.072   4.937   1.367 -4.1074 -0.5154 -1.5890
 5884SOL     OW29305   1.817   4.159   1.848 -0.0543  0.6386 -0.1349
 5884SOL    HW129306   1.756   4.092   1.890 -0.4422  0.7094 -0.5759
 5884SOL    HW229307   1.793   4.169   1.751  0.0795  1.3245 -0.0967
 5885SOL     OW29308   1.212   0.739   4.714  0.4001  0.2109 -0.2888
 5885SOL    HW129309   1.263   0.818   4.680  0.7607 -0.7695 -2.1197
 5885SOL    HW229310   1.273   0.660   4.721  0.1845  0.2336  2.1169
 5886SOL     OW29311   9.253   3.371   5.924  0.2298  0.4789  0.6219
 5886SOL    HW129312   9.264   3.282   5.879 -1.2780  0.3971  0.3871
 5886SOL    HW229313   9.310   3.439   5.879 -1.3878  0.4318 -1.5407
 5887SOL     OW29314   1.626   1.640   6.540 -0.5699  0.1858 -0.1349
 5887SOL    HW129315   1.674   1.616   6.455  1.5004 -0.4389  1.1860
 5887SOL    HW229316   1.692   1.647   6.615 -2.3500  0.9599  1.3929
 5888SOL     OW29317   4.756   4.261   5.501  0.2703 -0.7884  0.2752
 5888SOL    HW129318   4.848   4.282   5.469  0.0850  0.2730  0.3934
 5888SOL    HW229319   4.703   4.346   5.507 -0.8619 -1.4396 -0.2606
 5889SOL     OW29320   3.380   4.424   3.717  0.4319 -0.1621  0.1147
 5889SOL    HW129321   3.323   4.382   3.788 -0.3905 -0.5641 -0.7763
 5889SOL    HW229322   3.406   4.517   3.746 -0.6044 -0.0099  0.5660
 5890SOL     OW29323   8.623   5.824   4.924 -0.2301  0.0946  0.4903
 5890SOL    HW129324   8.618   5.832   5.023 -0.4383 -1.3041  0.6060
 5890SOL    HW229325   8.712   5.787   4.898 -0.1479  0.5263  0.1452
 5891SOL     OW29326   2.439   4.447   2.354  0.4716  0.0060 -0.2555
 5891SOL    HW129327   2.492   4.491   2.427 -1.1049  0.7796  0.4410
 5891SOL    HW229328   2.428   4.511   2.278  0.0045  0.0787 -0.1295
 5892SOL     OW29329   6.542   0.975   0.808  0.0691 -0.0486  0.1878
 5892SOL    HW129330   6.517   1.049   0.870  0.4835 -0.1925  0.5338
 5892SOL    HW229331   6.594   0.906   0.858  0.8901  0.1007 -0.4335
 5893SOL     OW29332   5.606   7.880   2.787 -0.2512 -0.3371  0.5901
 5893SOL    HW129333   5.610   7.806   2.855  1.4967 -0.5407  0.2796
 5893SOL    HW229334   5.628   7.843   2.696  1.5914  0.7219  0.5799
 5894SOL     OW29335   2.561   5.353   2.561  0.6002  0.3332 -0.3073
 5894SOL    HW129336   2.541   5.262   2.598  0.4773  0.4419 -0.1131
 5894SOL    HW229337   2.510   5.422   2.611 -0.3907  0.3774 -1.3674
 5895SOL     OW29338   0.563   3.767   0.444  0.4803 -0.2031  0.4080
 5895SOL    HW129339   0.568   3.760   0.344 -1.4039  0.3829  0.2394
 5895SOL    HW229340   0.544   3.677   0.482  0.5045 -0.3074  0.1783
 5896SOL     OW29341   7.198   6.966   3.215  0.0150 -0.0300 -0.0997
 5896SOL    HW129342   7.255   7.016   3.150 -0.6730  0.5101 -0.2925
 5896SOL    HW229343   7.226   6.870   3.217 -0.3857 -0.1857 -1.6691
 5897SOL     OW29344   4.116   1.006   5.176 -0.3012 -0.1704  0.1926
 5897SOL    HW129345   4.064   1.092   5.177  0.0453  0.0402  0.7757
 5897SOL    HW229346   4.186   1.010   5.106  1.2306  0.9566  1.7425
 5898SOL     OW29347   5.507   6.181   1.506  0.1462  0.2652 -0.0058
 5898SOL    HW129348   5.489   6.168   1.408  0.0274 -0.9284  0.1709
 5898SOL    HW229349   5.472   6.270   1.534  0.5856  0.8133 -1.1477
 5899SOL     OW29350   8.645   7.644   0.310  0.8427  0.6793  0.2572
 5899SOL    HW129351   8.683   7.645   0.402  2.2628  1.4397 -0.3209
 5899SOL    HW229352   8.545   7.649   0.314  0.9180  1.0526  1.7260
 5900SOL     OW29353   9.569   2.830   6.511  0.1815  0.1349 -0.3004
 5900SOL    HW129354   9.627   2.878   6.446 -0.5942  0.5025 -0.7330
 5900SOL    HW229355   9.614   2.747   6.542 -1.0338 -2.1132 -4.2665
 5901SOL     OW29356   3.244   0.124   3.026  0.0858  0.4058  0.6550
 5901SOL    HW129357   3.268   0.182   2.948  0.1768  1.7282  1.6482
 5901SOL    HW229358   3.159   0.158   3.067 -0.5949 -0.9998  0.4187
 5902SOL     OW29359   3.664   1.006   5.653  0.4616  0.2212  0.3742
 5902SOL    HW129360   3.617   1.055   5.580 -0.7093  1.7923  2.1257
 5902SOL    HW229361   3.758   0.986   5.625 -0.1745  0.1336 -1.8163
 5903SOL     OW29362   8.608   9.201   1.900 -0.7386  0.0665 -0.1701
 5903SOL    HW129363   8.644   9.263   1.830 -0.9705 -0.1209 -0.4537
 5903SOL    HW229364   8.600   9.250   1.987 -0.2617  0.2441 -0.2240
 5904SOL     OW29365   2.321   9.002   8.072 -0.3455  0.2018  0.5938
 5904SOL    HW129366   2.296   8.930   8.137  0.5780 -0.4039  0.2837
 5904SOL    HW229367   2.272   8.987   7.986  0.4592 -0.5180  0.2598
 5905SOL     OW29368   9.235   9.714   5.209 -0.2982  0.0687 -0.0805
 5905SOL    HW129369   9.164   9.645   5.197  0.9366 -0.9385 -1.7044
 5905SOL    HW229370   9.324   9.670   5.218  0.4139  1.4148 -0.3079
 5906SOL     OW29371   0.882   3.143   6.625  0.4890 -0.3662 -0.0181
 5906SOL    HW129372   0.883   3.206   6.702 -0.9136  0.2147 -0.4539
 5906SOL    HW229373   0.958   3.078   6.634  2.0521  1.4585  0.3503
 5907SOL     OW29374   8.599   1.789   1.581 -0.6509 -0.4132 -0.3437
 5907SOL    HW129375   8.603   1.750   1.489  2.7732 -0.1504 -0.3672
 5907SOL    HW229376   8.585   1.715   1.648 -0.8339 -0.8885 -0.9004
 5908SOL     OW29377   6.682   2.705   3.786  0.3857  0.1939 -0.2055
 5908SOL    HW129378   6.741   2.781   3.759  0.0494  0.1118 -1.1939
 5908SOL    HW229379   6.736   2.621   3.793  0.4170  0.1446 -0.9916
 5909SOL     OW29380   2.553   7.152   2.096  0.8592  0.1929 -0.5602
 5909SOL    HW129381   2.506   7.087   2.036 -0.5764  0.5005  0.1935
 5909SOL    HW229382   2.632   7.108   2.138 -0.5262 -1.3154  0.5155
 5910SOL     OW29383   1.501   5.388   3.555 -0.0191 -0.7100  0.1190
 5910SOL    HW129384   1.583   5.401   3.500 -1.2513  1.6777 -1.2419
 5910SOL    HW229385   1.525   5.384   3.652  1.6983 -0.2511 -0.2748
 5911SOL     OW29386   9.371   7.832   3.764 -0.7212  0.1394 -0.0288
 5911SOL    HW129387   9.278   7.799   3.777 -0.4966 -0.1156  0.9599
 5911SOL    HW229388   9.422   7.766   3.708 -0.8479 -0.2157  0.2716
 5912SOL     OW29389   6.770   9.391   2.373 -0.6667  0.1707 -0.1929
 5912SOL    HW129390   6.818   9.373   2.287  0.6611  1.9513  0.1407
 5912SOL    HW229391   6.733   9.306   2.409  2.1729 -1.2651 -0.5218
 5913SOL     OW29392   1.279   1.387   1.867  0.0995 -0.9416 -0.0476
 5913SOL    HW129393   1.320   1.340   1.789  0.5563 -0.1308 -0.3052
 5913SOL    HW229394   1.302   1.339   1.952  1.4125 -0.6042 -0.2132
 5914SOL     OW29395   4.103   0.997   4.572 -0.5436 -0.0812 -0.4090
 5914SOL    HW129396   4.188   0.945   4.561  0.8533  1.7391  1.4450
 5914SOL    HW229397   4.072   1.030   4.483  1.1706 -0.0135 -0.9849
 5915SOL     OW29398   3.539   0.548   4.719 -0.2899  0.5941  0.2994
 5915SOL    HW129399   3.569   0.481   4.651 -0.3833  0.6710  0.1808
 5915SOL    HW229400   3.571   0.520   4.809  0.1972  0.7157  0.1638
 5916SOL     OW29401   9.584   6.249   2.274 -0.1093 -0.2201  0.2283
 5916SOL    HW129402   9.672   6.235   2.320 -0.4517 -0.0839  0.9349
 5916SOL    HW229403   9.519   6.289   2.339 -1.0450 -1.4255  0.0393
 5917SOL     OW29404   5.153   6.063   1.177 -0.4780  0.0503  0.1292
 5917SOL    HW129405   5.054   6.064   1.184 -0.5158 -0.7426 -0.1684
 5917SOL    HW229406   5.182   6.109   1.093 -0.5377  1.1114  0.6827
 5918SOL     OW29407   6.993   2.080   5.460 -0.2581  0.0519  0.1017
 5918SOL    HW129408   6.994   2.048   5.365  0.9527  1.6171 -0.4193
 5918SOL    HW229409   7.016   2.004   5.521 -2.1643 -1.2549 -0.7390
 5919SOL     OW29410   3.060   1.654   1.448  0.3324 -0.3677 -0.1266
 5919SOL    HW129411   3.005   1.597   1.509 -1.5728  0.8994 -0.6129
 5919SOL    HW229412   3.023   1.648   1.355  0.5810  1.0430 -0.3309
 5920SOL     OW29413   1.235   4.963   7.699 -0.5761 -0.0342  0.1631
 5920SOL    HW129414   1.193   4.926   7.782 -0.8910  1.6543  0.7925
 5920SOL    HW229415   1.266   5.057   7.717  2.3189 -0.7865 -0.6532
 5921SOL     OW29416   9.218   3.428   2.836 -0.3333 -0.1158  0.4586
 5921SOL    HW129417   9.303   3.380   2.814 -0.6258 -0.2752 -0.3291
 5921SOL    HW229418   9.177   3.464   2.753 -0.6136  0.6811  0.9350
 5922SOL     OW29419   1.270   9.915   6.477  0.6403  0.4704 -0.4293
 5922SOL    HW129420   1.305   9.943   6.388  1.5091  1.4420  0.2072
 5922SOL    HW229421   1.320   9.963   6.549 -1.2586  1.0230  0.5415
 5923SOL     OW29422   3.988   9.577   3.452  0.4134 -0.1968  0.0753
 5923SOL    HW129423   4.043   9.559   3.370 -0.9318 -1.6102 -0.5366
 5923SOL    HW229424   3.902   9.527   3.446 -0.9657  1.9787  1.0330
 5924SOL     OW29425   4.969   4.460   7.038  0.0725  0.0581  0.4750
 5924SOL    HW129426   5.008   4.552   7.031 -0.9395  0.3736 -1.3865
 5924SOL    HW229427   4.958   4.436   7.134  1.5778  1.3515  0.9927
 5925SOL     OW29428   0.265   7.563   6.284  0.4588  0.4373  0.2800
 5925SOL    HW129429   0.214   7.519   6.210  1.0825  0.1028  0.0486
 5925SOL    HW229430   0.313   7.494   6.338  3.1169  0.9598 -1.3279
 5926SOL     OW29431   5.299   4.794   1.096  0.1047 -0.8923 -0.4192
 5926SOL    HW129432   5.336   4.706   1.067  0.3178 -0.5818 -1.1081
 5926SOL    HW229433   5.264   4.787   1.190  1.7466 -1.2282  0.1824
 5927SOL     OW29434   3.842   4.544   2.159  0.2223  0.1992 -0.6598
 5927SOL    HW129435   3.847   4.495   2.246  1.6112 -0.3046 -1.0110
 5927SOL    HW229436   3.850   4.642   2.176 -0.5466  0.1770 -0.1338
 5928SOL     OW29437   8.989   7.889   7.425  0.0732 -0.4338 -0.4912
 5928SOL    HW129438   8.993   7.814   7.358  2.0304 -1.3782  0.6121
 5928SOL    HW229439   8.928   7.863   7.500  0.7069 -0.9570 -0.1365
 5929SOL     OW29440   9.675   3.858   0.640  0.1992 -0.2914 -0.0330
 5929SOL    HW129441   9.624   3.942   0.656  1.4381  0.6208 -0.7396
 5929SOL    HW229442   9.753   3.877   0.580 -0.1672 -2.1687 -1.1641
 5930SOL     OW29443   3.726   9.557   1.653 -0.2896 -0.0635 -0.2632
 5930SOL    HW129444   3.785   9.631   1.682  0.1741 -1.2075  1.8175
 5930SOL    HW229445   3.775   9.498   1.588  0.6312 -0.6287  0.9329
 5931SOL     OW29446   4.156   8.851   1.959  0.2782 -0.4968  0.3287
 5931SOL    HW129447   4.180   8.926   1.897 -1.2668 -0.3048 -0.0582
 5931SOL    HW229448   4.239   8.811   1.996  1.2501 -0.5596 -1.8093
 5932SOL     OW29449   1.320   1.424   6.768  0.3266 -0.0262 -0.4252
 5932SOL    HW129450   1.419   1.442   6.765  0.1001  1.2259 -0.4717
 5932SOL    HW229451   1.288   1.402   6.676  0.4633  0.1195 -0.5080
 5933SOL     OW29452   7.233   5.113   0.596  0.0623  0.0077  0.1145
 5933SOL    HW129453   7.254   5.096   0.693 -0.6954 -0.8421  0.1434
 5933SOL    HW229454   7.316   5.100   0.542  0.0534 -1.5216  0.4267
 5934SOL     OW29455   7.553   2.499   3.328 -0.3729 -0.3296 -0.0469
 5934SOL    HW129456   7.607   2.492   3.412 -0.3904  0.7561  0.0613
 5934SOL    HW229457   7.611   2.481   3.249  0.0329  0.3335  0.0990
 5935SOL     OW29458   6.684   2.656   4.495  0.3986 -0.0628  0.1698
 5935SOL    HW129459   6.652   2.642   4.401  0.2750  0.5140  0.1242
 5935SOL    HW229460   6.732   2.574   4.527 -0.0320 -0.4624 -0.2063
 5936SOL     OW29461   4.060   2.624   2.426  0.3569  0.0607 -0.3465
 5936SOL    HW129462   3.979   2.659   2.473  0.6809  0.7928 -0.3262
 5936SOL    HW229463   4.119   2.700   2.399  0.1640 -0.3337 -1.9782
 5937SOL     OW29464   9.599   0.598   4.377  0.0194 -0.4145  0.1367
 5937SOL    HW129465   9.685   0.558   4.406  0.2925  0.0316 -0.0533
 5937SOL    HW229466   9.523   0.539   4.405  0.3276 -0.3510  1.0930
 5938SOL     OW29467   7.585   7.952   4.171 -0.1285 -0.4116 -0.2321
 5938SOL    HW129468   7.584   7.959   4.271 -1.5454 -1.4622 -0.1520
 5938SOL    HW229469   7.679   7.939   4.140  0.4776  1.2363  0.8589
 5939SOL     OW29470   5.024   9.867   3.896  0.0533  0.1933  0.3227
 5939SOL    HW129471   4.995   9.773   3.883  1.9147 -0.2938 -0.4174
 5939SOL    HW229472   4.950   9.929   3.869 -0.7336 -1.0266 -0.3383
 5940SOL     OW29473   9.304   8.361   0.537 -0.1800  0.3041 -0.4110
 5940SOL    HW129474   9.275   8.300   0.610  1.2473  0.6796  0.5127
 5940SOL    HW229475   9.398   8.339   0.511 -0.9820 -0.4543 -2.8355
 5941SOL     OW29476   8.045   6.173   3.664 -0.0143  0.3286  0.0685
 5941SOL    HW129477   8.028   6.216   3.575 -0.7424 -1.5249 -0.7312
 5941SOL    HW229478   8.133   6.126   3.662  0.4910  1.2491  0.7156
 5942SOL     OW29479   5.072   3.263   0.750 -0.1994  0.0947  0.4426
 5942SOL    HW129480   5.110   3.337   0.694 -2.0876  1.0423  0.3499
 5942SOL    HW229481   5.099   3.175   0.713  2.8242  0.7189  1.0582
 5943SOL     OW29482   9.497   8.635   3.717  0.0810  0.2301 -0.1053
 5943SOL    HW129483   9.502   8.655   3.815 -2.0218  0.7641 -0.0854
 5943SOL    HW229484   9.466   8.541   3.704 -1.6973  0.8129 -0.2404
 5944SOL     OW29485   8.833   4.553   6.646  0.5057 -0.4309  0.0386
 5944SOL    HW129486   8.812   4.549   6.549  0.1615  1.6236  0.0114
 5944SOL    HW229487   8.748   4.549   6.699  0.6716 -1.2147  0.2538
 5945SOL     OW29488   7.219   1.456   5.194 -0.1567  0.1019 -0.2376
 5945SOL    HW129489   7.144   1.490   5.137 -0.5567 -0.6098 -0.1444
 5945SOL    HW229490   7.278   1.532   5.220 -0.7024  0.6314 -0.5274
 5946SOL     OW29491   1.245   0.443   1.652  0.0857  0.0373  0.4602
 5946SOL    HW129492   1.216   0.354   1.688 -0.3593  0.5532  1.3835
 5946SOL    HW229493   1.341   0.438   1.624  0.0250 -0.7677  0.3860
 5947SOL     OW29494   8.076   3.159   0.202  0.7564 -0.3926 -0.2456
 5947SOL    HW129495   8.133   3.081   0.174  1.9542 -0.2748  1.7874
 5947SOL    HW229496   8.024   3.135   0.283 -0.8051  0.1000 -1.0834
 5948SOL     OW29497   7.217   0.800   1.692  0.1920  0.1468 -0.6099
 5948SOL    HW129498   7.252   0.804   1.785  0.0070 -0.5935 -0.5049
 5948SOL    HW229499   7.276   0.854   1.631  2.3290 -2.2231 -0.6905
 5949SOL     OW29500   1.360   1.877   2.798 -0.1812 -0.1627  0.0991
 5949SOL    HW129501   1.382   1.960   2.849 -0.2116  0.1066 -0.3251
 5949SOL    HW229502   1.424   1.804   2.823 -0.3399 -0.0993  0.6916
 5950SOL     OW29503   0.970   7.794   1.256  0.4794 -0.1184  0.1416
 5950SOL    HW129504   0.941   7.766   1.347  0.6456 -0.4909  0.0811
 5950SOL    HW229505   1.029   7.875   1.263 -0.9659  0.9459  0.2202
 5951SOL     OW29506   4.554   1.508   1.764 -0.1120 -0.2359 -0.3939
 5951SOL    HW129507   4.455   1.493   1.765 -0.1060 -0.2724  0.4528
 5951SOL    HW229508   4.601   1.422   1.784  0.0319  0.1374  0.9429
 5952SOL     OW29509   8.145   8.800   7.274  0.5134  0.0331  0.1156
 5952SOL    HW129510   8.189   8.716   7.242  0.1744  0.4506 -1.4558
 5952SOL    HW229511   8.072   8.776   7.338  1.5064 -0.7782  0.9746
 5953SOL     OW29512   6.604   7.807   4.334  0.4689  0.6548  0.4049
 5953SOL    HW129513   6.635   7.847   4.248  0.1848  2.1065  0.9619
 5953SOL    HW229514   6.680   7.757   4.377  0.5247 -0.3463 -0.8194
 5954SOL     OW29515   9.165   8.267   7.492  0.0578 -0.2160  0.2448
 5954SOL    HW129516   9.154   8.187   7.433 -0.3274  1.0345 -1.4274
 5954SOL    HW229517   9.075   8.304   7.515  0.2110 -0.6465  1.5755
 5955SOL     OW29518   4.455   5.474   7.430 -0.2059  0.2289 -0.3132
 5955SOL    HW129519   4.506   5.418   7.495 -0.5096  0.5175  0.1817
 5955SOL    HW229520   4.516   5.541   7.389 -0.4482  1.5306  1.3492
 5956SOL     OW29521   1.211   5.502   6.453 -0.4354 -0.4252 -0.1150
 5956SOL    HW129522   1.281   5.573   6.458  0.1781 -1.0750  0.7413
 5956SOL    HW229523   1.133   5.528   6.510  0.3921 -1.0818  1.3483
 5957SOL     OW29524   8.907   7.618   0.697 -0.1614  0.3734  0.1821
 5957SOL    HW129525   8.891   7.544   0.632 -1.0148 -0.2650  1.1041
 5957SOL    HW229526   8.964   7.688   0.654 -1.0502  0.1644 -1.3947
 5958SOL     OW29527   8.389   8.105   4.779  0.4101 -0.0153 -0.2067
 5958SOL    HW129528   8.394   8.194   4.735  1.9420 -1.2917 -2.7146
 5958SOL    HW229529   8.299   8.064   4.763  0.7590 -0.2202 -1.6957
 5959SOL     OW29530   0.850   0.157   5.041  0.9120 -0.0466 -0.7220
 5959SOL    HW129531   0.810   0.235   5.088  2.0587 -0.9610  1.8943
 5959SOL    HW229532   0.778   0.102   5.000 -0.1516  0.7425  0.0502
 5960SOL     OW29533   2.326   5.969   0.259 -0.1248  0.0714  0.0629
 5960SOL    HW129534   2.334   6.066   0.282  0.6064  0.4513 -1.7083
 5960SOL    HW229535   2.405   5.940   0.206 -0.7100 -1.3048 -0.0935
 5961SOL     OW29536   1.561   7.041   0.712  0.0962 -0.2640 -0.1746
 5961SOL    HW129537   1.582   6.969   0.778 -0.0014  0.4579  0.6573
 5961SOL    HW229538   1.547   7.001   0.621 -0.6073 -1.3495  0.4106
 5962SOL     OW29539   2.093   7.758   4.036  0.1235 -0.0187  0.6541
 5962SOL    HW129540   2.181   7.722   4.007 -0.5457  0.4324 -2.1241
 5962SOL    HW229541   2.069   7.721   4.125  3.8236  1.0597  2.2005
 5963SOL     OW29542   8.107   5.842   6.234  0.3605  0.2899 -0.4488
 5963SOL    HW129543   8.066   5.765   6.186 -0.3244 -0.3129  1.0828
 5963SOL    HW229544   8.201   5.854   6.203 -0.4855  0.8011 -2.9587
 5964SOL     OW29545   4.860   3.487   7.227 -0.2793 -0.1165  0.0911
 5964SOL    HW129546   4.880   3.389   7.233  3.5104  0.4904 -1.4633
 5964SOL    HW229547   4.912   3.536   7.297  0.0141  1.0631 -0.9292
 5965SOL     OW29548   7.514   1.737   1.670  0.0429 -0.3410 -0.1059
 5965SOL    HW129549   7.506   1.686   1.584  0.5541 -1.6166  0.5885
 5965SOL    HW229550   7.555   1.678   1.739 -1.0005  0.4531  1.2073
 5966SOL     OW29551   0.732   1.431   3.477  0.5538  0.1362 -0.1391
 5966SOL    HW129552   0.761   1.338   3.497  0.5748 -0.3370 -2.2517
 5966SOL    HW229553   0.661   1.458   3.542  0.2066 -1.5209  0.1944
 5967SOL     OW29554   3.580   0.918   3.221  0.4534 -0.3831  0.0299
 5967SOL    HW129555   3.576   0.960   3.312 -1.8025  1.3058 -0.8184
 5967SOL    HW229556   3.581   0.989   3.151 -2.2101 -1.6610 -1.3918
 5968SOL     OW29557   2.568   7.502   3.686 -0.4267  0.0998 -0.5804
 5968SOL    HW129558   2.633   7.569   3.723 -0.8055 -0.1001  0.4821
 5968SOL    HW229559   2.576   7.499   3.587  0.7413  0.5375 -0.5127
 5969SOL     OW29560   4.959   8.419   7.231  0.4869  0.0128 -0.0368
 5969SOL    HW129561   4.869   8.431   7.273  0.2180 -0.3948 -0.4844
 5969SOL    HW229562   4.984   8.322   7.232 -0.6441 -0.3812 -3.0280
 5970SOL     OW29563   1.477   4.495   4.076  0.0701 -0.4779  0.1957
 5970SOL    HW129564   1.538   4.461   4.005  0.7617  0.4925  0.3277
 5970SOL    HW229565   1.457   4.592   4.061 -3.9588 -1.4717 -1.6615
 5971SOL     OW29566   1.709   6.089   4.943 -0.5628  0.1001  0.0548
 5971SOL    HW129567   1.756   6.159   4.997 -1.1807  0.8181 -0.3302
 5971SOL    HW229568   1.610   6.101   4.952 -0.6714  0.1421 -1.1285
 5972SOL     OW29569   7.522   2.752   1.755  0.1850 -0.2534 -0.2593
 5972SOL    HW129570   7.506   2.722   1.661  2.5837 -1.0869 -0.4272
 5972SOL    HW229571   7.445   2.724   1.812  0.1810 -2.5636 -1.3514
 5973SOL     OW29572   9.557   5.605   3.612 -0.1155  0.3226 -0.6073
 5973SOL    HW129573   9.544   5.516   3.568 -1.0447  1.4913 -2.7523
 5973SOL    HW229574   9.470   5.636   3.651  0.2803  0.1584  0.4237
 5974SOL     OW29575   3.236   5.933   4.923  0.2427 -0.2561 -0.7627
 5974SOL    HW129576   3.142   5.899   4.929 -0.0018  0.5203 -0.0106
 5974SOL    HW229577   3.298   5.858   4.901 -0.6690 -0.6065 -2.1947
 5975SOL     OW29578   9.515   0.270   0.075  0.0101 -0.7058  0.0081
 5975SOL    HW129579   9.532   0.191   0.134 -0.0203 -1.0683 -0.4650
 5975SOL    HW229580   9.584   0.273   0.003  0.9343  0.5674  0.9065
 5976SOL     OW29581   9.964   4.403   6.984 -0.2241  0.0553  0.2826
 5976SOL    HW129582   9.894   4.450   7.038 -2.1484 -2.0442 -0.3097
 5976SOL    HW229583  10.026   4.354   7.046  1.0634  2.3102  0.8359
 5977SOL     OW29584   1.841   9.916   2.162  0.7157  0.5698  0.1594
 5977SOL    HW129585   1.841  10.016   2.153  1.2722  0.6358  0.7845
 5977SOL    HW229586   1.883   9.875   2.081  0.3832  0.8354 -0.1489
 5978SOL     OW29587   1.687   8.000   5.146  0.1819  0.0454 -0.0556
 5978SOL    HW129588   1.753   8.074   5.133  0.4257 -0.2334 -0.4289
 5978SOL    HW229589   1.718   7.940   5.220 -1.6328  2.1168  2.5082
 5979SOL     OW29590   1.424   2.528   4.042  0.8948 -0.0371  0.1216
 5979SOL    HW129591   1.371   2.585   4.104 -0.9441 -1.2828 -0.2568
 5979SOL    HW229592   1.476   2.461   4.095  0.4555 -0.1610  0.4008
 5980SOL     OW29593   4.013   3.137   2.682  0.0813  0.0104 -0.2325
 5980SOL    HW129594   4.050   3.186   2.603 -0.2969  1.1439  0.2815
 5980SOL    HW229595   4.035   3.187   2.766  1.4282 -1.7415  0.4935
 5981SOL     OW29596   8.150   8.465   6.149 -0.0497  0.0635 -0.4053
 5981SOL    HW129597   8.169   8.368   6.169 -0.8922  0.3186  1.7554
 5981SOL    HW229598   8.144   8.478   6.050  0.5407 -2.0139 -0.7343
 5982SOL     OW29599   3.762   6.534   4.311  0.9365  0.2458  0.4021
 5982SOL    HW129600   3.830   6.603   4.336  1.7949 -0.9536  1.4602
 5982SOL    HW229601   3.712   6.505   4.393  0.3028 -0.0920 -0.0987
 5983SOL     OW29602   0.191   3.710   2.091  0.0282 -0.0774  0.0890
 5983SOL    HW129603   0.246   3.627   2.090 -0.2721 -0.2846  0.5650
 5983SOL    HW229604   0.250   3.789   2.078  0.1986 -0.4185 -1.3039
 5984SOL     OW29605   7.599   6.311   3.336  0.3296 -0.4543  0.5187
 5984SOL    HW129606   7.631   6.288   3.244 -0.6064 -0.3750  0.1705
 5984SOL    HW229607   7.611   6.232   3.396  0.7095 -0.5886  0.2618
 5985SOL     OW29608   3.278   4.394   6.377 -0.0092  0.0496 -0.8051
 5985SOL    HW129609   3.316   4.316   6.327 -0.1609 -1.0340  0.7296
 5985SOL    HW229610   3.348   4.431   6.437 -0.1663  0.6307 -0.9792
 5986SOL     OW29611   8.446   8.361   3.221  0.2915  0.0640 -0.4250
 5986SOL    HW129612   8.372   8.420   3.253  0.4571  0.4029 -0.6697
 5986SOL    HW229613   8.463   8.378   3.124 -0.3102 -1.0656 -0.7450
 5987SOL     OW29614   0.036   8.961   4.677 -0.0254 -0.0050  0.0589
 5987SOL    HW129615   0.026   8.987   4.580  0.1442  0.3449  0.1331
 5987SOL    HW229616  -0.038   8.899   4.703 -0.7390  0.8193  0.0167
 5988SOL     OW29617   3.561   9.572   7.881 -0.1256 -0.2970  0.5730
 5988SOL    HW129618   3.567   9.475   7.859 -1.1903 -0.2013 -0.1773
 5988SOL    HW229619   3.616   9.625   7.817 -2.1256 -0.1376 -1.0414
 5989SOL     OW29620   4.129   2.116   6.361  0.2157 -0.4148  0.0591
 5989SOL    HW129621   4.125   2.215   6.378 -1.6837 -0.3514 -0.5208
 5989SOL    HW229622   4.061   2.070   6.418  0.7613 -1.3238 -0.0260
 5990SOL     OW29623   2.732   7.375   0.199  0.3920 -0.6038 -0.0465
 5990SOL    HW129624   2.739   7.462   0.152  0.9176  0.6199  2.2125
 5990SOL    HW229625   2.637   7.358   0.225  0.4337 -0.2114  0.3758
 5991SOL     OW29626   1.563   4.933   6.283 -0.1294  0.7366 -0.2078
 5991SOL    HW129627   1.465   4.950   6.268 -0.2653  0.0761 -0.0983
 5991SOL    HW229628   1.615   4.967   6.205 -0.4126  1.4391 -0.0942
 5992SOL     OW29629   4.288   7.679   5.160 -0.5032 -0.1905  0.0354
 5992SOL    HW129630   4.230   7.629   5.096 -4.0755  2.1317  1.2605
 5992SOL    HW229631   4.249   7.671   5.252  1.6316  0.7461  1.0509
 5993SOL     OW29632   0.205   4.665   3.905 -0.4219 -0.2609 -0.3679
 5993SOL    HW129633   0.254   4.626   3.827  0.7047 -2.0016  1.1479
 5993SOL    HW229634   0.271   4.700   3.971 -1.2438 -1.2834  1.0247
 5994SOL     OW29635   5.830   1.233   6.462 -0.4069  0.0480  0.4424
 5994SOL    HW129636   5.926   1.210   6.479 -0.9713 -2.3365  0.4795
 5994SOL    HW229637   5.771   1.178   6.521 -1.8435  0.7504 -0.3215
 5995SOL     OW29638   1.432   5.131   5.235 -0.7116 -0.0205  0.3278
 5995SOL    HW129639   1.485   5.074   5.172  0.2303  1.7077 -0.4891
 5995SOL    HW229640   1.490   5.160   5.311 -0.6989  1.1609 -0.1129
 5996SOL     OW29641   2.355   2.994   3.728  0.5499  0.2715 -0.0759
 5996SOL    HW129642   2.345   2.902   3.764 -0.3344  1.1166  1.8865
 5996SOL    HW229643   2.292   3.007   3.651 -0.6301 -0.1832  0.8013
 5997SOL     OW29644   3.886   2.797   3.251 -0.3267 -0.2010  0.0336
 5997SOL    HW129645   3.789   2.776   3.239 -0.2786  0.2374 -1.1665
 5997SOL    HW229646   3.896   2.873   3.315 -0.7089 -0.9778  1.0367
 5998SOL     OW29647   8.029   8.655   6.622 -0.7874 -0.5261  0.0011
 5998SOL    HW129648   7.978   8.571   6.641 -2.1701  0.1399 -0.6883
 5998SOL    HW229649   8.076   8.646   6.535 -2.3465  0.0396 -0.9215
 5999SOL     OW29650   9.294   5.804   8.176 -0.0982 -0.4654 -0.1052
 5999SOL    HW129651   9.342   5.720   8.201 -0.1503  0.0692  1.8492
 5999SOL    HW229652   9.196   5.785   8.170  0.1514 -1.1803 -2.5016
 6000SOL     OW29653   2.112   2.395   0.383  0.2519 -0.1781 -0.2114
 6000SOL    HW129654   2.131   2.480   0.333  1.4000 -0.0463  0.4301
 6000SOL    HW229655   2.190   2.373   0.442 -0.5035 -1.0876  0.4620
 6001SOL     OW29656   1.872   7.236   0.104  0.4272 -0.6319 -0.5225
 6001SOL    HW129657   1.788   7.284   0.129 -0.9853 -2.5425 -1.4708
 6001SOL    HW229658   1.891   7.166   0.173  1.4993  0.0842 -0.0803
 6002SOL     OW29659   3.371   2.272   0.072 -0.0494 -0.3670  1.0800
 6002SOL    HW129660   3.431   2.192   0.080  0.8870  0.0558 -1.2294
 6002SOL    HW229661   3.403   2.330  -0.002 -1.7093  1.3120  1.6454
 6003SOL     OW29662   9.841   2.896   0.517 -0.4524 -0.0117  0.3186
 6003SOL    HW129663   9.820   2.903   0.614  0.8687  0.6798  0.5714
 6003SOL    HW229664   9.899   2.973   0.490 -3.2683  1.4903 -1.7046
 6004SOL     OW29665   2.020   6.989   6.837  0.1090 -0.0636  0.1548
 6004SOL    HW129666   2.015   6.907   6.894  1.1649  0.6292  1.2572
 6004SOL    HW229667   2.036   7.069   6.894 -0.4291  0.8673 -0.9645
 6005SOL     OW29668   1.540   7.340   2.440  0.0566  0.0187  0.1381
 6005SOL    HW129669   1.635   7.311   2.429  0.1124  0.1565  0.2532
 6005SOL    HW229670   1.479   7.263   2.422  0.2594 -0.5835  1.9799
 6006SOL     OW29671   7.245   8.858   6.170  0.3836  0.0742 -0.4665
 6006SOL    HW129672   7.332   8.879   6.124  0.7723  0.5705  0.5003
 6006SOL    HW229673   7.259   8.782   6.233  0.1795  0.3635 -0.0789
 6007SOL     OW29674   1.735   1.904   2.881  0.2415 -0.5526 -0.2734
 6007SOL    HW129675   1.686   1.943   2.959  1.0633  1.0486 -0.5443
 6007SOL    HW229676   1.703   1.810   2.866 -0.2957 -0.7034  1.6514
 6008SOL     OW29677   4.342   1.203   4.220  0.4700 -0.4277 -0.0990
 6008SOL    HW129678   4.245   1.178   4.219 -0.5515  3.1716 -0.3670
 6008SOL    HW229679   4.385   1.176   4.134 -0.9207  0.1578 -0.9862
 6009SOL     OW29680   4.901   7.049   3.057 -0.1845 -0.5397 -0.1449
 6009SOL    HW129681   4.855   7.110   3.122 -0.7587 -0.6842 -0.4155
 6009SOL    HW229682   4.982   7.095   3.019 -0.3769 -0.1074 -0.0274
 6010SOL     OW29683   0.580   6.463   5.751 -0.5433  0.2055  0.0189
 6010SOL    HW129684   0.522   6.398   5.701 -2.0532  0.0747  1.8806
 6010SOL    HW229685   0.574   6.553   5.708 -0.9460 -0.1485 -0.6813
 6011SOL     OW29686   7.411   4.848   1.489 -0.6408  0.2303  0.0740
 6011SOL    HW129687   7.438   4.780   1.421 -0.0042  0.4919  0.0677
 6011SOL    HW229688   7.336   4.903   1.454 -1.1600 -0.4678  0.0746
 6012SOL     OW29689   0.254   1.390   3.219 -0.1491 -0.2888 -0.0863
 6012SOL    HW129690   0.322   1.417   3.151  1.6796 -0.9545  1.4555
 6012SOL    HW229691   0.174   1.353   3.172  0.2616  1.0944 -1.9470
 6013SOL     OW29692   0.672   9.748   3.460  0.1321  0.2333 -0.1579
 6013SOL    HW129693   0.762   9.747   3.505 -0.6507 -0.7681  1.4184
 6013SOL    HW229694   0.683   9.725   3.364  1.3847 -1.5459  0.3886
 6014SOL     OW29695   0.136   4.292   1.233  0.5640  0.3116 -0.0928
 6014SOL    HW129696   0.054   4.314   1.286  0.7048  2.5610 -0.7830
 6014SOL    HW229697   0.109   4.259   1.142  0.3768 -1.6841  0.6612
 6015SOL     OW29698   5.009   2.615   5.788 -0.2392  0.1373 -0.2659
 6015SOL    HW129699   4.996   2.648   5.695  0.8373  1.5226  0.0695
 6015SOL    HW229700   4.966   2.679   5.853  0.2204 -0.0982  0.2757
 6016SOL     OW29701   0.800   1.926   2.431  0.0540 -0.7320  0.2659
 6016SOL    HW129702   0.874   1.977   2.476 -0.2630 -0.4130  0.4268
 6016SOL    HW229703   0.740   1.887   2.500 -0.3672 -0.3399  0.1251
 6017SOL     OW29704   0.055   1.802   6.785  0.0113  0.0562 -0.1777
 6017SOL    HW129705   0.114   1.725   6.761  0.3517  0.1673  0.2959
 6017SOL    HW229706   0.057   1.816   6.884  1.1795  1.6348 -0.3972
 6018SOL     OW29707   3.801   9.209   4.840 -0.2639  0.1261 -0.2617
 6018SOL    HW129708   3.843   9.183   4.753  1.1776 -0.6701  0.6418
 6018SOL    HW229709   3.791   9.128   4.898 -0.2382  0.8081  0.7153
 6019SOL     OW29710   3.535   9.139   5.026  0.0448  0.1830  0.0796
 6019SOL    HW129711   3.622   9.090   5.014 -0.2178 -0.1830 -0.3578
 6019SOL    HW229712   3.522   9.202   4.949  0.3857  0.9494  0.6447
 6020SOL     OW29713   9.852   4.401   6.711  0.4722 -0.3546 -0.0950
 6020SOL    HW129714   9.889   4.418   6.802 -1.8164  1.3136  0.5775
 6020SOL    HW229715   9.921   4.355   6.654  2.6104  0.3851  1.8504
 6021SOL     OW29716   4.451   2.043   3.885  0.0839 -0.1677  0.4366
 6021SOL    HW129717   4.539   2.083   3.909  1.0423 -1.7762 -0.4058
 6021SOL    HW229718   4.436   2.050   3.787  0.5256 -2.4184  0.1980
 6022SOL     OW29719   9.896   2.833   8.209  0.0707 -0.0467  0.9500
 6022SOL    HW129720   9.881   2.881   8.296 -2.4775 -0.4959  0.8200
 6022SOL    HW229721   9.848   2.746   8.211  1.3601 -0.7967 -0.3145
 6023SOL     OW29722   4.619   7.517   1.922 -0.4112 -0.1062  0.1216
 6023SOL    HW129723   4.583   7.503   1.830  1.4170 -0.8662 -0.4946
 6023SOL    HW229724   4.562   7.467   1.988 -0.4517 -1.3764 -0.8507
 6024SOL     OW29725   0.815   1.613   1.195 -0.0543  0.0861 -0.0741
 6024SOL    HW129726   0.755   1.595   1.118  0.2207 -2.3262  0.2490
 6024SOL    HW229727   0.766   1.597   1.281  0.0881  1.3166  0.2548
 6025SOL     OW29728   6.913   5.137   7.795  0.2723  0.0616  0.2340
 6025SOL    HW129729   6.899   5.221   7.848 -1.4730 -0.9682  1.4406
 6025SOL    HW229730   6.943   5.063   7.855  0.2708 -0.5923 -0.5544
 6026SOL     OW29731   8.490   4.173   5.452  0.3022  0.1170 -0.0665
 6026SOL    HW129732   8.505   4.075   5.469  0.0886  0.2048  0.6493
 6026SOL    HW229733   8.578   4.221   5.458  0.1697  0.2098  1.2576
 6027SOL     OW29734   0.692   6.706   0.012 -0.1638  0.9393  0.6483
 6027SOL    HW129735   0.722   6.758   0.092  3.2219  3.5934 -2.1531
 6027SOL    HW229736   0.751   6.626   0.001  0.4191  1.4520 -0.0352
 6028SOL     OW29737   2.256   4.193   2.448 -0.6532  0.0225 -0.2709
 6028SOL    HW129738   2.266   4.291   2.429  1.3052 -0.1815 -0.4614
 6028SOL    HW229739   2.345   4.149   2.437 -1.7589 -1.9892 -1.3192
 6029SOL     OW29740   0.516   2.177   2.357 -0.0785  0.3004 -0.2774
 6029SOL    HW129741   0.553   2.242   2.424  0.7354  0.4374 -0.8534
 6029SOL    HW229742   0.579   2.169   2.280  0.2339 -1.8279  0.1750
 6030SOL     OW29743   7.112   4.362   8.038  0.1471  0.0764  0.4838
 6030SOL    HW129744   7.129   4.445   8.090  0.9142 -0.2121  0.7115
 6030SOL    HW229745   7.149   4.283   8.088  0.4025 -0.2713 -0.2387
 6031SOL     OW29746   9.059   9.156   6.991  0.0352 -0.1992  0.1650
 6031SOL    HW129747   9.136   9.157   7.055  0.2813  1.5802 -0.1273
 6031SOL    HW229748   9.010   9.069   7.000  2.2317 -1.4885  0.1498
 6032SOL     OW29749   4.985   3.471   7.534  0.5362 -0.5718 -0.3742
 6032SOL    HW129750   5.049   3.521   7.475  2.1674  1.2462  2.8080
 6032SOL    HW229751   5.032   3.393   7.576 -0.0279 -0.6662  0.0927
 6033SOL     OW29752   5.337   8.025   6.031 -0.0550 -0.0929  0.3536
 6033SOL    HW129753   5.425   8.006   5.987 -0.6298  1.1189 -1.3882
 6033SOL    HW229754   5.352   8.078   6.115  0.7496  2.2109 -1.2091
 6034SOL     OW29755   3.561   8.659   4.525  0.0890 -0.0471 -0.9038
 6034SOL    HW129756   3.620   8.725   4.572 -1.7935  1.7496 -0.9955
 6034SOL    HW229757   3.498   8.708   4.465 -0.5357 -2.0348 -1.8936
 6035SOL     OW29758   9.153   5.426   2.447  0.0183 -0.1002 -0.3095
 6035SOL    HW129759   9.155   5.477   2.533 -1.1032 -0.2266 -0.2023
 6035SOL    HW229760   9.224   5.356   2.448  1.2216  1.0883 -0.2408
 6036SOL     OW29761   9.175   4.656   7.122 -0.2613 -0.1886 -0.3268
 6036SOL    HW129762   9.121   4.669   7.039 -0.4057  1.0757 -0.0515
 6036SOL    HW229763   9.195   4.559   7.134  2.0732 -0.1471 -3.2864
 6037SOL     OW29764   8.917   7.529   4.285  0.1750 -0.7140 -0.1952
 6037SOL    HW129765   8.881   7.470   4.213 -2.1634 -1.9261  1.8793
 6037SOL    HW229766   8.935   7.620   4.249 -1.2981 -1.2003 -2.2027
 6038SOL     OW29767   5.039   9.864   7.093 -0.2247 -0.6997 -0.2473
 6038SOL    HW129768   4.950   9.824   7.068 -0.4636 -0.3388  0.0140
 6038SOL    HW229769   5.085   9.804   7.158 -1.0098 -0.0746  0.8864
 6039SOL     OW29770   9.961   4.447   4.804 -0.3442 -0.1380 -0.7577
 6039SOL    HW129771  10.049   4.422   4.844 -0.5602 -0.0630 -0.2284
 6039SOL    HW229772   9.916   4.366   4.768 -1.6336 -0.7369  2.1216
 6040SOL     OW29773   5.251   8.499   6.801 -0.2040 -0.3622  0.6127
 6040SOL    HW129774   5.224   8.406   6.778  0.1208 -0.2770 -0.1419
 6040SOL    HW229775   5.171   8.550   6.835 -0.7122 -0.4966 -0.3509
 6041SOL     OW29776   7.742   6.027   6.604  0.5594  0.1069  0.1861
 6041SOL    HW129777   7.820   5.997   6.550  2.4971  0.3993  2.7021
 6041SOL    HW229778   7.692   5.948   6.638  2.3623 -0.2454  2.1474
 6042SOL     OW29779   4.748   2.316   5.887 -0.0601 -0.5872  0.0633
 6042SOL    HW129780   4.752   2.217   5.884 -0.2678 -0.5817 -0.6303
 6042SOL    HW229781   4.686   2.349   5.815  0.6507  0.0792 -0.2561
 6043SOL     OW29782   8.496   8.336   4.126  0.0033  0.3098  0.3024
 6043SOL    HW129783   8.478   8.324   4.028  1.7605  2.4346 -0.3081
 6043SOL    HW229784   8.564   8.407   4.139 -0.7159  0.5416  3.1329
 6044SOL     OW29785   3.836   1.133   6.063 -0.3579  0.2666 -0.0467
 6044SOL    HW129786   3.806   1.153   6.156 -0.2425 -0.3884  0.1360
 6044SOL    HW229787   3.920   1.079   6.066 -1.4433 -1.4989 -0.4788
 6045SOL     OW29788   0.817   0.446   8.094 -0.0981  0.6452 -0.4330
 6045SOL    HW129789   0.752   0.515   8.062 -0.8687  1.2399  2.2696
 6045SOL    HW229790   0.801   0.360   8.045 -1.3931  1.4260 -1.4124
 6046SOL     OW29791   4.793   9.373   7.963 -0.5050 -0.7746  0.0749
 6046SOL    HW129792   4.860   9.395   7.892  0.0942  0.6320  1.0520
 6046SOL    HW229793   4.779   9.453   8.021 -0.7639 -1.9923  1.7303
 6047SOL     OW29794   3.549   2.125   3.398 -0.4323 -0.1522  0.0897
 6047SOL    HW129795   3.470   2.182   3.419  0.9096  1.1648  1.6911
 6047SOL    HW229796   3.614   2.128   3.474  2.4279  1.0172 -2.2815
 6048SOL     OW29797   7.180   1.087   6.207  0.1754  0.1952 -0.2125
 6048SOL    HW129798   7.146   1.001   6.246  2.1867 -0.2939  0.5001
 6048SOL    HW229799   7.245   1.067   6.134  0.8376  1.1071  0.1182
 6049SOL     OW29800   0.659   5.327   1.309 -0.3280  0.4171  0.0773
 6049SOL    HW129801   0.630   5.415   1.347 -2.1697 -0.0192 -0.2784
 6049SOL    HW229802   0.583   5.263   1.311 -0.1637  0.0094 -3.2510
 6050SOL     OW29803   0.919   7.334   0.803 -0.3405  0.2000 -0.0658
 6050SOL    HW129804   0.978   7.262   0.840  3.6669  0.8819 -4.5778
 6050SOL    HW229805   0.895   7.398   0.876  2.2030 -1.6755  2.5363
 6051SOL     OW29806   4.155   3.745   2.296 -0.2542  0.4891  0.1254
 6051SOL    HW129807   4.186   3.653   2.274 -2.4599 -0.1173 -0.6432
 6051SOL    HW229808   4.058   3.754   2.271 -0.6793  2.2976  2.2820
 6052SOL     OW29809   7.985   5.018   0.365 -0.0320  0.0466  0.1195
 6052SOL    HW129810   8.018   4.975   0.450  0.7814 -1.7299 -1.0528
 6052SOL    HW229811   8.041   4.985   0.289 -1.3950  0.8635 -1.2347
 6053SOL     OW29812   9.820   6.434   0.158  0.6469  0.0897 -0.3329
 6053SOL    HW129813   9.768   6.469   0.236 -0.5709  0.0953 -1.1328
 6053SOL    HW229814   9.872   6.509   0.116 -0.8189  0.6788 -1.1552
 6054SOL     OW29815   2.816   3.657   8.116  0.0460 -0.2896  0.4807
 6054SOL    HW129816   2.781   3.734   8.169 -2.1538 -0.6966 -0.3572
 6054SOL    HW229817   2.910   3.677   8.087 -0.1638  1.6461  1.0833
 6055SOL     OW29818   4.723   4.302   1.489  0.9036  0.2277 -0.4577
 6055SOL    HW129819   4.704   4.351   1.574  0.0151  0.0283 -0.5312
 6055SOL    HW229820   4.819   4.274   1.487  0.6416 -0.8561  1.0574
 6056SOL     OW29821   2.258   7.777   8.064 -0.7607  0.1197  0.0055
 6056SOL    HW129822   2.276   7.699   8.004 -1.6578 -1.7291  2.0719
 6056SOL    HW229823   2.160   7.789   8.075 -0.6170  0.9992  0.3763
 6057SOL     OW29824   4.114   0.178   5.834  0.4920  0.5294 -0.2352
 6057SOL    HW129825   4.200   0.186   5.884  0.6696  1.5566 -0.7066
 6057SOL    HW229826   4.059   0.260   5.847  0.0180  0.3027 -0.7539
 6058SOL     OW29827   2.970   8.449   3.324  0.5144 -0.0295  0.5310
 6058SOL    HW129828   2.894   8.490   3.374  1.3482  0.7823  1.1646
 6058SOL    HW229829   3.024   8.392   3.385  0.5582 -0.4002  0.1465
 6059SOL     OW29830   1.982   4.607   4.319  0.3663 -0.0972 -0.5320
 6059SOL    HW129831   1.897   4.607   4.372  1.0456  1.8038  0.6162
 6059SOL    HW229832   2.028   4.519   4.330 -1.3418 -1.0643 -0.9990
 6060SOL     OW29833   7.614   7.160   1.829 -0.6020 -0.5370  0.0624
 6060SOL    HW129834   7.634   7.165   1.731  0.2432 -1.7073  0.1563
 6060SOL    HW229835   7.699   7.154   1.881 -1.0642 -1.2121  0.7731
 6061SOL     OW29836   5.360   6.327   2.295 -0.2041 -0.1852  0.2206
 6061SOL    HW129837   5.436   6.338   2.231 -0.5494  1.7959  0.1137
 6061SOL    HW229838   5.323   6.234   2.288  2.3945 -1.2962  0.5074
 6062SOL     OW29839   0.465   2.755   7.340 -0.1321 -0.4117 -0.2031
 6062SOL    HW129840   0.485   2.734   7.435  0.2263 -0.1627 -0.2242
 6062SOL    HW229841   0.383   2.810   7.334 -0.2616 -0.5877 -0.0505
 6063SOL     OW29842   5.872   0.148   5.682 -0.2444  0.0188  0.7664
 6063SOL    HW129843   5.808   0.078   5.713 -1.3705  0.3748 -0.6718
 6063SOL    HW229844   5.854   0.234   5.730 -2.0418  0.5941 -0.8948
 6064SOL     OW29845   0.892   5.117   5.572 -0.8030  0.1988  0.9434
 6064SOL    HW129846   0.960   5.182   5.605 -1.0359  0.6947  0.4539
 6064SOL    HW229847   0.862   5.059   5.647 -0.1474  0.2538  1.2514
 6065SOL     OW29848   4.181   4.744   2.310 -0.2004  0.0433 -0.7893
 6065SOL    HW129849   4.259   4.773   2.366 -0.4208  2.1330 -1.5223
 6065SOL    HW229850   4.200   4.765   2.214 -0.9109 -1.1147 -1.1834
 6066SOL     OW29851   8.201   4.334   0.995 -0.3909  0.0348  0.1232
 6066SOL    HW129852   8.150   4.367   0.916 -0.2446  0.7961  0.3501
 6066SOL    HW229853   8.138   4.308   1.068 -0.4940 -0.0189  0.0134
 6067SOL     OW29854   1.327   8.994   7.435 -0.7036  0.7221  0.1140
 6067SOL    HW129855   1.356   8.900   7.418 -0.6904  0.8420 -0.5502
 6067SOL    HW229856   1.235   8.994   7.475 -0.6744  0.4268  0.1802
 6068SOL     OW29857   6.971   8.549   5.341 -0.5603 -0.0578 -0.4661
 6068SOL    HW129858   6.872   8.536   5.333 -0.3334 -2.0017 -0.2637
 6068SOL    HW229859   7.010   8.476   5.396  1.0774  0.4068 -0.9865
 6069SOL     OW29860   1.890   6.330   4.379  0.1562 -0.2048 -0.0793
 6069SOL    HW129861   1.982   6.301   4.403  0.1586  0.3044  0.5253
 6069SOL    HW229862   1.895   6.406   4.314  0.2121  1.7252  2.1081
 6070SOL     OW29863   9.602   6.690   4.377 -0.8875 -0.1876  0.6589
 6070SOL    HW129864   9.638   6.701   4.284 -0.7735 -0.6874  0.6431
 6070SOL    HW229865   9.519   6.744   4.387 -0.4866  0.4630  0.4964
 6071SOL     OW29866   8.151   1.370   4.635 -0.3548  0.2436 -0.7531
 6071SOL    HW129867   8.081   1.302   4.614  0.2681 -0.3076 -1.0721
 6071SOL    HW229868   8.108   1.451   4.675 -0.8496 -1.2985  1.9329
 6072SOL     OW29869   7.544   1.566   5.141  0.1018 -0.2588 -0.5068
 6072SOL    HW129870   7.507   1.610   5.223  0.4692  0.0118 -0.4857
 6072SOL    HW229871   7.532   1.467   5.148 -0.7612 -0.1668 -0.5685
 6073SOL     OW29872   1.365   7.574   2.214 -0.4638 -0.2826 -0.0299
 6073SOL    HW129873   1.422   7.636   2.267  0.7220 -1.8033  0.5264
 6073SOL    HW229874   1.394   7.479   2.231 -0.5702 -0.8509 -2.7611
 6074SOL     OW29875   4.922   6.976   3.540 -0.0683 -0.0756  0.3268
 6074SOL    HW129876   4.910   7.075   3.538  1.9118  0.2260  1.2787
 6074SOL    HW229877   4.909   6.938   3.449 -0.1203  1.1727 -0.1872
 6075SOL     OW29878   4.176   4.406   0.498  0.0604  0.7027 -0.1296
 6075SOL    HW129879   4.235   4.456   0.435 -0.5929  0.6914 -0.7546
 6075SOL    HW229880   4.198   4.432   0.592  2.8219 -1.1867 -0.1840
 6076SOL     OW29881   2.525   1.051   0.166 -0.0478 -0.1015 -0.3160
 6076SOL    HW129882   2.619   1.084   0.170  0.2393 -0.6324 -2.0741
 6076SOL    HW229883   2.517   0.981   0.094 -2.0594  0.9230 -1.1391
 6077SOL     OW29884   4.005   8.283   0.429  0.2656  0.5494 -0.5165
 6077SOL    HW129885   4.002   8.236   0.517  0.2757 -0.8208 -1.2398
 6077SOL    HW229886   4.081   8.248   0.374  0.0393  1.1283 -1.2109
 6078SOL     OW29887   9.236   3.167   4.956 -0.4763 -0.0049  0.4144
 6078SOL    HW129888   9.207   3.257   4.924  0.9506  0.7945  1.3477
 6078SOL    HW229889   9.219   3.100   4.884 -0.4530  1.2000 -0.7419
 6079SOL     OW29890   7.793   1.931   3.550  0.3427  0.1727 -0.5231
 6079SOL    HW129891   7.798   1.874   3.633 -0.8718 -0.4706 -0.8864
 6079SOL    HW229892   7.816   2.025   3.574  3.1713 -0.5808 -0.0623
 6080SOL     OW29893   2.459   6.551   4.669 -0.2219 -0.9820  0.9773
 6080SOL    HW129894   2.374   6.514   4.632  1.8096 -1.1352 -3.8426
 6080SOL    HW229895   2.448   6.648   4.691 -1.0251 -0.3832 -1.9174
 6081SOL     OW29896   9.987   4.209   3.801  0.0436  0.2256  0.1460
 6081SOL    HW129897  10.057   4.177   3.737  0.7575 -0.6696  1.3541
 6081SOL    HW229898  10.030   4.241   3.885 -1.0501 -1.8697  1.5618
 6082SOL     OW29899   4.159   9.743   4.010 -0.2079 -0.2643  0.2564
 6082SOL    HW129900   4.116   9.656   3.987 -0.8613 -0.0365  0.6138
 6082SOL    HW229901   4.202   9.782   3.928  0.4003 -1.0974  0.1753
 6083SOL     OW29902   2.742   1.892   0.400 -0.0176  0.0594  0.5477
 6083SOL    HW129903   2.769   1.913   0.306 -1.6586 -0.1937  0.0164
 6083SOL    HW229904   2.812   1.927   0.463  1.5778 -0.6239 -0.7984
 6084SOL     OW29905   0.418   7.999   7.103 -0.2410  0.0311 -0.3312
 6084SOL    HW129906   0.399   7.908   7.139 -2.2202  0.5095 -0.0996
 6084SOL    HW229907   0.370   8.012   7.016  1.1085  0.3922 -1.0451
 6085SOL     OW29908   2.921   4.550   0.917  0.0769  0.3136  0.0285
 6085SOL    HW129909   2.857   4.609   0.867 -0.0295  0.7283  0.6426
 6085SOL    HW229910   2.918   4.573   1.015  0.8804  0.0782  0.1147
 6086SOL     OW29911   7.848   2.561   3.390 -0.4250  0.8489  0.2410
 6086SOL    HW129912   7.884   2.593   3.303 -0.0577 -1.2706 -0.3961
 6086SOL    HW229913   7.866   2.630   3.461  0.0618  2.1817 -1.1543
 6087SOL     OW29914   2.818   5.664   5.662  0.3428  0.0848 -0.2736
 6087SOL    HW129915   2.768   5.588   5.704  0.5418  0.8937  1.4294
 6087SOL    HW229916   2.881   5.627   5.593 -0.9006 -1.1301 -0.8018
 6088SOL     OW29917   9.783   3.887   7.123  0.4662 -0.1474  0.6189
 6088SOL    HW129918   9.736   3.941   7.193 -3.2922 -0.3301 -1.6653
 6088SOL    HW229919   9.818   3.803   7.164  0.5218  0.9020  2.7836
 6089SOL     OW29920   7.803   8.525   4.876 -0.2621  0.1972 -0.0210
 6089SOL    HW129921   7.707   8.544   4.896 -0.1689 -1.5440  2.2376
 6089SOL    HW229922   7.813   8.497   4.781 -2.0909 -0.1463 -0.1190
 6090SOL     OW29923   5.694   6.299   1.852 -0.5434 -0.0570 -1.0642
 6090SOL    HW129924   5.685   6.285   1.951 -0.1386 -1.3756 -1.1980
 6090SOL    HW229925   5.685   6.211   1.806  1.2306  0.2593 -2.0489
 6091SOL     OW29926   1.948   7.911   4.952 -0.1896 -0.2678 -0.2394
 6091SOL    HW129927   2.010   7.989   4.942  1.4336 -1.2659  1.6313
 6091SOL    HW229928   1.910   7.910   5.044 -2.2130 -0.2604 -1.0514
 6092SOL     OW29929   0.705   1.994   3.726 -0.3929  0.2948  0.0760
 6092SOL    HW129930   0.702   2.081   3.677 -1.0962  0.5665  0.6004
 6092SOL    HW229931   0.765   1.930   3.677  0.9339  1.3975  0.2398
 6093SOL     OW29932   0.593   4.902   7.575 -0.7628 -0.0878 -0.2740
 6093SOL    HW129933   0.513   4.960   7.592 -0.1484  0.5768  0.4069
 6093SOL    HW229934   0.671   4.959   7.549  0.2176 -0.4537  1.7544
 6094SOL     OW29935   8.414   2.056   0.315 -0.8287  0.2680  0.1950
 6094SOL    HW129936   8.402   2.145   0.270  1.2176  0.5974  0.2314
 6094SOL    HW229937   8.512   2.037   0.326 -1.2073 -2.2954 -0.4092
 6095SOL     OW29938   1.238   8.785   6.536 -0.0742 -0.7847  0.3240
 6095SOL    HW129939   1.251   8.803   6.634 -0.3840 -1.6609  0.5384
 6095SOL    HW229940   1.286   8.701   6.512  1.4998  0.3819 -0.6817
 6096SOL     OW29941   4.679   1.295   7.732  0.0116  0.0935 -0.4583
 6096SOL    HW129942   4.700   1.197   7.740 -1.9170 -0.3256 -0.2170
 6096SOL    HW229943   4.762   1.345   7.707  1.0248 -1.6026 -0.5788
 6097SOL     OW29944   0.307   7.309   1.145 -0.0113  0.0121  0.6714
 6097SOL    HW129945   0.235   7.333   1.080 -0.3923 -0.5750  0.8696
 6097SOL    HW229946   0.378   7.257   1.098 -0.0264  0.0525  0.6049
 6098SOL     OW29947   7.543   8.269   2.643 -0.4219  0.2497  0.0994
 6098SOL    HW129948   7.487   8.305   2.717 -0.7834 -0.2640  0.0808
 6098SOL    HW229949   7.501   8.291   2.555  0.1124  1.0362  0.0366
 6099SOL     OW29950   9.547   7.846   1.521 -0.5040  0.2170 -0.9216
 6099SOL    HW129951   9.545   7.882   1.615  4.4835 -1.5112 -0.0025
 6099SOL    HW229952   9.594   7.912   1.462  1.3341 -1.0690 -0.9493
 6100SOL     OW29953   0.037   7.633   7.409  0.3473 -0.0058  0.0078
 6100SOL    HW129954   0.046   7.721   7.455  2.4446 -0.7408  1.0873
 6100SOL    HW229955   0.090   7.633   7.325  1.6301 -0.7505  0.8099
 6101SOL     OW29956   4.896   0.377   3.447 -0.2821 -0.1768 -0.2098
 6101SOL    HW129957   4.911   0.283   3.475  2.1805  0.3812  0.5143
 6101SOL    HW229958   4.799   0.398   3.448 -0.8695 -2.8002 -0.7218
 6102SOL     OW29959   0.969   5.001   2.120 -0.3479  0.0234  0.3620
 6102SOL    HW129960   0.880   4.967   2.150 -0.9848 -1.0857 -2.6685
 6102SOL    HW229961   1.041   4.947   2.164 -1.1508  0.4880  2.3018
 6103SOL     OW29962   2.512   7.450   0.664 -0.0875  0.0918 -0.4745
 6103SOL    HW129963   2.504   7.482   0.570  0.4756 -0.2120 -0.6311
 6103SOL    HW229964   2.531   7.527   0.724  0.5331  0.1535 -0.7459
 6104SOL     OW29965   9.197   3.157   3.224 -0.4653  0.3107  0.2661
 6104SOL    HW129966   9.287   3.191   3.196 -0.6856  0.5544 -0.1492
 6104SOL    HW229967   9.139   3.235   3.249 -1.4914  0.3802 -2.1920
 6105SOL     OW29968   5.242   5.033   0.922 -0.2839 -0.0955  0.0412
 6105SOL    HW129969   5.229   4.958   0.987  0.6647 -0.8209 -0.5927
 6105SOL    HW229970   5.249   5.119   0.972  0.7340 -0.6851  0.9350
 6106SOL     OW29971   5.596   9.885   4.386 -0.1741 -0.9033 -0.3118
 6106SOL    HW129972   5.628   9.796   4.356  1.0654 -0.4459 -0.3552
 6106SOL    HW229973   5.673   9.940   4.419 -0.8419  0.3373 -0.7690
 6107SOL     OW29974   1.866   4.066   5.937  0.8208  0.5132 -0.1440
 6107SOL    HW129975   1.891   4.076   6.033  0.3582  1.0234 -0.0748
 6107SOL    HW229976   1.895   4.147   5.886 -1.3157  1.4312  0.0734
 6108SOL     OW29977   8.120   1.301   8.066  0.0581 -0.0245 -0.2485
 6108SOL    HW129978   8.201   1.307   8.124 -0.2272 -1.6413  0.3409
 6108SOL    HW229979   8.137   1.347   7.979  1.3250  0.3273  0.1866
 6109SOL     OW29980   1.762   4.269   2.874 -0.1484 -0.3626 -0.0804
 6109SOL    HW129981   1.846   4.217   2.857  0.6852  0.7831  0.4408
 6109SOL    HW229982   1.698   4.255   2.798  0.7082 -0.8581 -0.7198
 6110SOL     OW29983   9.830   3.330   1.712 -0.0615  0.0664  0.3454
 6110SOL    HW129984   9.763   3.363   1.778 -0.9823 -0.2992 -0.4075
 6110SOL    HW229985   9.831   3.391   1.633 -0.0565 -0.3621  0.0159
 6111SOL     OW29986   9.501   6.418   7.867  0.2548  0.1433  0.2862
 6111SOL    HW129987   9.497   6.319   7.872  2.6163 -0.0340 -0.7788
 6111SOL    HW229988   9.548   6.454   7.948  2.0690  0.1437 -0.7287
 6112SOL     OW29989   7.691   4.826   7.932 -0.1394  0.2426 -0.1096
 6112SOL    HW129990   7.687   4.733   7.970  1.1371 -1.1026 -3.1439
 6112SOL    HW229991   7.785   4.858   7.932 -0.2911  0.6908 -1.0699
 6113SOL     OW29992   9.000   9.517   8.184 -0.2588 -0.1868  0.4078
 6113SOL    HW129993   9.099   9.512   8.174 -0.2983  0.3008 -0.2529
 6113SOL    HW229994   8.960   9.564   8.105 -0.9643  0.0992  0.9223
 6114SOL     OW29995   9.127   3.893   2.788  0.2314 -0.0710  0.2353
 6114SOL    HW129996   9.207   3.843   2.821  1.1933  1.3966  0.1983
 6114SOL    HW229997   9.129   3.896   2.688 -0.6092 -1.1905  0.1715
 6115SOL     OW29998   9.082   3.884   5.691 -0.0436 -0.0322 -0.1878
 6115SOL    HW129999   9.097   3.857   5.596  0.7212 -0.7640  0.1421
 6115SOL    HW230000   9.169   3.881   5.741 -0.5199 -0.0597  0.6418
 6116SOL     OW30001   2.798   0.378   6.485  0.2956 -0.0313 -0.7909
 6116SOL    HW130002   2.885   0.329   6.491  0.8159  0.6711 -2.4292
 6116SOL    HW230003   2.775   0.394   6.389 -1.0922  0.7499 -0.3363
 6117SOL     OW30004   7.013   4.243   0.273  0.0523 -0.4514  0.7839
 6117SOL    HW130005   6.985   4.241   0.369 -2.6223 -0.1279  0.0626
 6117SOL    HW230006   7.087   4.309   0.261 -1.2772  1.3586  2.2301
 6118SOL     OW30007   3.051   2.137   3.982 -0.3021  0.3502  0.0881
 6118SOL    HW130008   3.084   2.044   3.965 -0.3743  0.4414 -0.5649
 6118SOL    HW230009   3.027   2.146   4.079 -1.7196 -0.7864 -0.1185
 6119SOL     OW30010   8.011   2.195   5.671 -0.4772 -0.3357  0.5707
 6119SOL    HW130011   8.073   2.211   5.594 -2.6863  0.9045 -1.0034
 6119SOL    HW230012   8.028   2.104   5.709  1.9307 -0.2232 -0.1300
 6120SOL     OW30013   7.257   4.389   0.226  0.3104  0.5743 -0.0806
 6120SOL    HW130014   7.251   4.460   0.297  1.5661 -0.5342  1.1388
 6120SOL    HW230015   7.335   4.408   0.167  0.9364 -0.0528  0.5405
 6121SOL     OW30016   3.287   3.705   3.977 -0.1428  0.3108 -0.4031
 6121SOL    HW130017   3.375   3.687   4.021  0.4223  0.5564 -1.4085
 6121SOL    HW230018   3.295   3.786   3.919 -1.4409  1.1969  0.6296
 6122SOL     OW30019   0.509   9.257   5.415  0.1364  0.1767  0.0261
 6122SOL    HW130020   0.424   9.236   5.463  0.5078 -0.3541  0.4637
 6122SOL    HW230021   0.555   9.333   5.460 -1.2249  2.0055 -1.5785
 6123SOL     OW30022   0.178   4.133   4.988  0.0359  0.2201  0.1404
 6123SOL    HW130023   0.180   4.183   5.074 -1.3974 -1.8888  1.4488
 6123SOL    HW230024   0.085   4.135   4.951  0.0054 -1.2567  0.1074
 6124SOL     OW30025   2.875   0.466   5.323  0.0207  0.6398 -0.0827
 6124SOL    HW130026   2.968   0.459   5.285  0.4572  0.8794  0.9028
 6124SOL    HW230027   2.840   0.558   5.308  0.3561  0.8583  0.4328
 6125SOL     OW30028   3.315   5.849   3.244 -0.2706 -0.0617  0.0662
 6125SOL    HW130029   3.221   5.870   3.217 -0.7157 -0.9023  0.9175
 6125SOL    HW230030   3.331   5.880   3.337  0.3082  0.0988 -0.0827
 6126SOL     OW30031   8.245   5.294   8.007 -0.1797  0.0602  0.5910
 6126SOL    HW130032   8.339   5.327   8.003 -0.5310  0.8579 -1.7451
 6126SOL    HW230033   8.208   5.308   8.099  0.8390  2.9887  0.5992
 6127SOL     OW30034   5.539   8.476   3.347 -0.4530  0.0215  0.1301
 6127SOL    HW130035   5.464   8.416   3.378 -0.5140  0.8171  1.5608
 6127SOL    HW230036   5.626   8.427   3.356 -0.5566 -0.0494  0.7669
 6128SOL     OW30037   4.535   2.045   6.524  0.3249 -0.2983  0.0852
 6128SOL    HW130038   4.631   2.055   6.552  0.2025 -0.7614  0.6770
 6128SOL    HW230039   4.483   2.125   6.555  0.0031 -1.2290  2.0088
 6129SOL     OW30040   8.644   0.718   2.477  0.1227 -0.1285  0.0633
 6129SOL    HW130041   8.672   0.657   2.551 -0.6684 -2.5706 -1.5968
 6129SOL    HW230042   8.546   0.711   2.462 -0.1795  2.4129  0.5439
 6130SOL     OW30043   8.391   0.143   2.814 -0.0306 -0.6583  0.0263
 6130SOL    HW130044   8.305   0.168   2.858  0.4742  0.3227  0.4652
 6130SOL    HW230045   8.422   0.218   2.757  0.6641 -0.9187  0.0583
 6131SOL     OW30046   6.902   1.248   6.402 -0.2234 -0.9181 -0.3935
 6131SOL    HW130047   6.923   1.150   6.395  2.3494 -0.4660  0.5448
 6131SOL    HW230048   6.941   1.296   6.324 -0.8732 -0.5346 -0.4845
 6132SOL     OW30049   7.736   4.755   0.917 -0.0702  0.0772 -0.0369
 6132SOL    HW130050   7.706   4.822   0.850 -1.1989 -1.9457 -1.5911
 6132SOL    HW230051   7.662   4.737   0.982  0.2438  0.3158  0.3979
 6133SOL     OW30052   4.799   5.394   0.788  0.2732  0.1925 -0.0802
 6133SOL    HW130053   4.822   5.420   0.694 -0.4165 -0.1859 -0.3606
 6133SOL    HW230054   4.882   5.370   0.837  0.5883 -0.0993 -0.7492
 6134SOL     OW30055   4.721   1.925   7.717  0.2590 -0.1387 -0.3590
 6134SOL    HW130056   4.764   1.951   7.803 -0.7870  1.3582 -0.2824
 6134SOL    HW230057   4.656   1.851   7.734  2.0146 -1.7171 -0.3164
 6135SOL     OW30058   0.428   6.853   5.614  0.1682  0.3243 -0.4245
 6135SOL    HW130059   0.453   6.950   5.609 -0.5183  0.5689  0.5756
 6135SOL    HW230060   0.502   6.801   5.655  0.4302  0.4827 -0.7026
 6136SOL     OW30061   7.155   2.060   2.337 -0.1276 -0.3899  0.2518
 6136SOL    HW130062   7.234   2.113   2.305  1.0902 -2.0856  0.4315
 6136SOL    HW230063   7.075   2.082   2.280  0.7474  0.4370 -0.6785
 6137SOL     OW30064   4.448   9.520   4.700  0.0751 -0.0189  0.4010
 6137SOL    HW130065   4.362   9.542   4.653  0.8601  0.7495 -0.6746
 6137SOL    HW230066   4.489   9.604   4.736  1.1855 -0.1771 -0.4757
 6138SOL     OW30067   1.129   5.270   6.348  0.0834  0.5507 -0.3663
 6138SOL    HW130068   1.180   5.348   6.385 -2.2068  1.5422  0.8348
 6138SOL    HW230069   1.168   5.185   6.382  0.5922  1.3135  0.9864
 6139SOL     OW30070   4.802   3.375   0.784  0.2790 -0.1476  0.0490
 6139SOL    HW130071   4.812   3.409   0.878  0.3732 -0.1581  0.0422
 6139SOL    HW230072   4.888   3.335   0.754  0.4017  0.3300 -0.2328
 6140SOL     OW30073   3.855   8.738   4.364 -0.4671 -0.0101 -0.2115
 6140SOL    HW130074   3.867   8.663   4.428  0.7585 -0.5095 -1.0063
 6140SOL    HW230075   3.925   8.808   4.380 -1.0989  0.5832 -0.0055
 6141SOL     OW30076   0.354   9.462   6.249  0.2237 -0.5530  0.2071
 6141SOL    HW130077   0.317   9.480   6.158 -0.4919  0.6104  0.7322
 6141SOL    HW230078   0.299   9.392   6.294  0.4013 -0.9144 -0.1335
 6142SOL     OW30079   8.234   2.128   1.454  0.1627 -0.3393  0.1740
 6142SOL    HW130080   8.314   2.084   1.495  1.6654  2.4025  0.3216
 6142SOL    HW230081   8.256   2.154   1.360 -0.0533  1.6987  0.6723
 6143SOL     OW30082   2.015   3.831   2.402 -0.0121 -0.1615  0.1432
 6143SOL    HW130083   2.105   3.803   2.435 -0.3290 -0.0628  1.1223
 6143SOL    HW230084   1.947   3.815   2.474 -0.3219  2.4176  0.4638
 6144SOL     OW30085   4.589   3.880   0.220  0.0362  0.3268  0.3540
 6144SOL    HW130086   4.652   3.893   0.296  0.5757 -1.0059  0.1366
 6144SOL    HW230087   4.575   3.783   0.204  0.8319  0.5834 -2.0037
 6145SOL     OW30088   6.817   3.066   1.943 -0.0682  0.3166  0.0211
 6145SOL    HW130089   6.800   3.079   1.845 -1.1822  0.3494  0.2063
 6145SOL    HW230090   6.776   2.979   1.972 -0.2072  0.5645  0.5625
 6146SOL     OW30091   6.616   9.544   6.064  0.1287 -0.4315  0.2644
 6146SOL    HW130092   6.693   9.506   6.114 -0.3979 -0.3579  1.1473
 6146SOL    HW230093   6.639   9.550   5.967  0.4281 -2.4954  0.1754
 6147SOL     OW30094   9.156   2.036   6.982 -0.1769  0.1496  0.5662
 6147SOL    HW130095   9.253   2.054   7.002  0.2742 -0.0385 -1.3170
 6147SOL    HW230096   9.100   2.108   7.022  1.0895  2.4049 -1.5896
 6148SOL     OW30097   8.894   9.160   5.769 -0.7550  0.2244  0.5731
 6148SOL    HW130098   8.825   9.219   5.811  1.2501  2.1125  1.3215
 6148SOL    HW230099   8.979   9.166   5.821  1.0667  0.7232 -2.3367
 6149SOL     OW30100   0.138   8.074   0.655 -0.6438 -0.2395  0.1501
 6149SOL    HW130101   0.186   7.997   0.613 -0.1493  0.2103 -0.1330
 6149SOL    HW230102   0.191   8.107   0.733  0.4123  1.3521 -1.2016
 6150SOL     OW30103   3.968   8.411   2.596 -0.1035  0.0800 -0.1030
 6150SOL    HW130104   4.067   8.425   2.602 -0.1125 -0.5124  1.5512
 6150SOL    HW230105   3.922   8.500   2.592  0.5997  0.3586 -3.2015
 6151SOL     OW30106   5.962   9.491   2.000  0.3243 -0.4012  0.0349
 6151SOL    HW130107   6.014   9.545   1.934  1.1348 -2.0810 -0.7275
 6151SOL    HW230108   5.941   9.402   1.962  0.5679 -1.3047  1.9492
 6152SOL     OW30109   0.819   4.167   2.809 -0.0776  0.7889 -0.2085
 6152SOL    HW130110   0.818   4.259   2.847  2.3733  0.8486 -0.1921
 6152SOL    HW230111   0.874   4.107   2.867  0.8400  0.0500 -1.7857
 6153SOL     OW30112   8.435   9.516   7.506 -0.5757  0.4582  0.3010
 6153SOL    HW130113   8.443   9.416   7.515  0.5717  0.5116 -0.0808
 6153SOL    HW230114   8.341   9.543   7.525 -0.9530 -0.7281  0.1909
 6154SOL     OW30115   9.131   0.347   1.052 -0.7730 -0.1431  0.0281
 6154SOL    HW130116   9.059   0.376   0.988 -2.7279 -2.8357  0.9410
 6154SOL    HW230117   9.093   0.340   1.144  1.2599  0.6065  0.9588
 6155SOL     OW30118   0.124   7.114   7.184  0.3860 -0.0076 -0.2548
 6155SOL    HW130119   0.149   7.089   7.278  0.5316  2.1418  0.3002
 6155SOL    HW230120   0.200   7.092   7.123  0.2335 -1.5692  0.0723
 6156SOL     OW30121   0.409   4.872   2.996 -0.0102  0.2662  0.1014
 6156SOL    HW130122   0.481   4.836   2.937 -0.8680 -2.3357  0.5529
 6156SOL    HW230123   0.448   4.903   3.082  0.8290  0.8539 -0.4921
 6157SOL     OW30124   7.664   1.240   3.354  0.0960 -0.2730 -0.0066
 6157SOL    HW130125   7.652   1.148   3.317 -1.0878  0.2079 -0.8478
 6157SOL    HW230126   7.741   1.285   3.309 -0.1493 -0.3850 -0.5383
 6158SOL     OW30127   1.550   3.336   4.235 -0.4595  0.4327  0.3806
 6158SOL    HW130128   1.570   3.349   4.138  1.2870 -0.9650  0.5125
 6158SOL    HW230129   1.518   3.243   4.251  0.1593  0.3547  1.2525
 6159SOL     OW30130   4.743   3.262   1.327  0.3212 -0.4423 -0.1175
 6159SOL    HW130131   4.702   3.296   1.412  0.7427 -0.5920  0.1500
 6159SOL    HW230132   4.829   3.215   1.349  1.3642  1.1004 -0.8001
 6160SOL     OW30133   8.199   5.709   4.049  0.0250  0.2899 -0.1316
 6160SOL    HW130134   8.170   5.681   3.957 -2.1692 -0.1550  0.6760
 6160SOL    HW230135   8.295   5.683   4.063  0.0044 -0.7791 -1.8303
 6161SOL     OW30136   3.002   9.058   3.815  0.1913  0.1283 -0.5668
 6161SOL    HW130137   2.906   9.066   3.841  0.2996 -0.1820 -0.0590
 6161SOL    HW230138   3.038   9.147   3.789  0.4480  0.7051  1.6798
 6162SOL     OW30139   9.680   0.116   2.593  0.2249 -0.7522 -0.0291
 6162SOL    HW130140   9.584   0.102   2.568 -0.6378  2.0357  1.5327
 6162SOL    HW230141   9.696   0.213   2.612  2.6375 -1.5955  2.6467
 6163SOL     OW30142   2.028   4.381   3.003  0.0057  0.2925 -0.2772
 6163SOL    HW130143   2.068   4.438   2.932 -2.0508  1.7263 -0.3260
 6163SOL    HW230144   1.990   4.439   3.075  1.2786 -1.1103  1.6116
 6164SOL     OW30145   3.977   8.054   5.321  0.0488 -0.0117  0.3737
 6164SOL    HW130146   3.951   8.062   5.224  1.4951  1.5141  0.0942
 6164SOL    HW230147   3.898   8.077   5.378  0.2516  3.0065 -0.4696
 6165SOL     OW30148   1.051   5.987   0.436  0.3077  0.1921 -0.0729
 6165SOL    HW130149   1.072   6.025   0.346 -0.7967  0.8851 -0.0465
 6165SOL    HW230150   0.990   5.909   0.426 -1.1177  1.2617  0.1693
 6166SOL     OW30151   4.086   9.540   5.469  0.0025 -0.2609 -0.1993
 6166SOL    HW130152   3.991   9.511   5.462  0.2443 -0.7511 -1.5761
 6166SOL    HW230153   4.133   9.482   5.536 -0.3528 -0.8528 -0.4547
 6167SOL     OW30154   8.957   2.097   2.297 -0.0392  0.2540  0.4064
 6167SOL    HW130155   8.920   2.177   2.250  3.5472  1.2215 -0.9958
 6167SOL    HW230156   8.966   2.118   2.395  1.0340  1.7260  0.0319
 6168SOL     OW30157   2.489   8.627   6.490 -0.3323  0.5018 -0.5425
 6168SOL    HW130158   2.471   8.571   6.571  1.2150  0.5288 -0.1584
 6168SOL    HW230159   2.454   8.581   6.409  1.0729 -1.1281 -0.2519
 6169SOL     OW30160   1.184   3.436   7.106  0.2424 -0.0910 -0.1495
 6169SOL    HW130161   1.145   3.359   7.054 -0.9219  1.3330 -1.4420
 6169SOL    HW230162   1.116   3.469   7.171  0.3225  0.5681 -0.4029
 6170SOL     OW30163   2.741   0.411   8.168  0.4385  0.2812  0.4482
 6170SOL    HW130164   2.726   0.422   8.070  0.7327  0.8699  0.4653
 6170SOL    HW230165   2.834   0.379   8.185  0.4200  0.2763  0.5424
 6171SOL     OW30166   8.315   5.353   7.458  0.5749 -0.2103  0.2026
 6171SOL    HW130167   8.351   5.298   7.533 -2.3764 -2.4607  0.0481
 6171SOL    HW230168   8.305   5.297   7.376 -1.3331  0.8369 -0.3158
 6172SOL     OW30169   2.462   5.852   3.697  0.4108  0.6125 -0.0924
 6172SOL    HW130170   2.439   5.909   3.619 -0.2620  1.0021  0.3880
 6172SOL    HW230171   2.483   5.909   3.776 -0.4638  0.1943  0.4456
 6173SOL     OW30172   4.651   9.925   5.650  0.2200  0.1228 -0.1039
 6173SOL    HW130173   4.629   9.901   5.745 -1.1686 -0.4527 -0.5657
 6173SOL    HW230174   4.576   9.979   5.611  1.3391  1.4315 -0.4970
 6174SOL     OW30175   5.288   1.873   4.234 -0.2431  0.0796  0.1833
 6174SOL    HW130176   5.198   1.849   4.270 -0.7328  3.4171  1.3476
 6174SOL    HW230177   5.339   1.925   4.303  0.7205  2.3321 -2.1147
 6175SOL     OW30178   1.950   3.937   0.407 -0.1365  0.1246  0.1273
 6175SOL    HW130179   2.000   3.876   0.346  1.4029 -0.0104  1.4868
 6175SOL    HW230180   1.859   3.955   0.370  0.6842 -0.1587 -2.0483
 6176SOL     OW30181   9.417   3.056   7.150 -0.2872  0.2994 -0.0972
 6176SOL    HW130182   9.320   3.080   7.156 -0.4296 -0.0476 -0.9588
 6176SOL    HW230183   9.443   3.044   7.054  0.2563 -1.0523  0.2035
 6177SOL     OW30184   5.901   9.845   1.831  0.2391 -0.3605  0.7512
 6177SOL    HW130185   5.893   9.796   1.744  0.9806  1.2765 -0.2559
 6177SOL    HW230186   5.996   9.847   1.861  0.1291 -0.0571  1.0972
 6178SOL     OW30187   5.031   2.292   1.077  0.1935  0.2438  0.9208
 6178SOL    HW130188   5.067   2.373   1.123  0.2031  0.8947 -0.2102
 6178SOL    HW230189   4.965   2.247   1.137  1.3679  0.1777  2.1961
 6179SOL     OW30190   0.207   1.603   6.672 -0.5857 -0.5134 -0.0420
 6179SOL    HW130191   0.150   1.571   6.596 -0.4666  0.8488 -0.7296
 6179SOL    HW230192   0.271   1.672   6.638  1.6512 -2.1897  0.6775
 6180SOL     OW30193   3.892   5.811   1.962  0.3943  0.3050  0.5814
 6180SOL    HW130194   3.814   5.874   1.960  2.5283  3.1099  1.4663
 6180SOL    HW230195   3.942   5.822   2.048  0.3050 -3.3463  1.1646
 6181SOL     OW30196   7.490   2.662   0.195 -0.1873  0.2369  0.4031
 6181SOL    HW130197   7.548   2.714   0.258  1.1008 -1.3662  0.5711
 6181SOL    HW230198   7.544   2.588   0.154 -1.8162 -0.5682 -0.3089
 6182SOL     OW30199   0.158   9.753   2.973 -0.0132 -0.1028  0.1853
 6182SOL    HW130200   0.156   9.842   2.928 -2.5743 -0.2954 -0.1530
 6182SOL    HW230201   0.112   9.759   3.061 -2.4400 -1.6387 -0.9429
 6183SOL     OW30202   2.006   0.488   6.931  0.0869  0.9836  0.1234
 6183SOL    HW130203   2.021   0.488   6.832 -0.4913  0.9415  0.0293
 6183SOL    HW230204   1.926   0.431   6.952 -1.3450  3.0109  0.3529
 6184SOL     OW30205   1.073   9.804   7.939  0.0183  0.3144  0.2627
 6184SOL    HW130206   1.134   9.756   7.876 -0.9668  0.6171 -0.9471
 6184SOL    HW230207   1.044   9.891   7.898 -0.7147  0.4711  1.0842
 6185SOL     OW30208   7.345   7.962   4.728  0.5608 -0.4763 -0.2621
 6185SOL    HW130209   7.372   8.036   4.666 -0.1714 -1.2244 -1.5113
 6185SOL    HW230210   7.310   8.001   4.813  1.4247  0.5762 -0.3722
 6186SOL     OW30211   3.342   2.473   2.422  0.2389 -0.1641  0.2586
 6186SOL    HW130212   3.401   2.554   2.429  0.8633 -0.6950  1.3385
 6186SOL    HW230213   3.300   2.456   2.511  0.2576 -1.1388  0.0778
 6187SOL     OW30214   3.869   0.643   8.137 -0.1902 -0.1520  0.0118
 6187SOL    HW130215   3.914   0.674   8.053 -0.2787 -0.0658 -0.0044
 6187SOL    HW230216   3.892   0.705   8.212  2.0566 -1.7032  0.6833
 6188SOL     OW30217   7.167   3.341   2.564  0.2134  0.6207  0.0223
 6188SOL    HW130218   7.254   3.296   2.543  1.5007  1.7929  2.6965
 6188SOL    HW230219   7.124   3.295   2.642 -0.6907  1.1971 -0.1338
 6189SOL     OW30220   8.461   8.303   5.104  0.1739  0.0038  0.1355
 6189SOL    HW130221   8.400   8.224   5.110  1.5475 -1.2087 -1.4118
 6189SOL    HW230222   8.551   8.273   5.073  0.8498  2.1320 -0.0214
 6190SOL     OW30223   8.338   4.272   3.519  0.2787  0.2568 -0.1247
 6190SOL    HW130224   8.271   4.343   3.544  0.1825  0.1901 -0.1943
 6190SOL    HW230225   8.349   4.208   3.595  0.3506  0.3341 -0.0692
 6191SOL     OW30226   2.973   7.220   4.753 -0.6049  0.0361  0.3019
 6191SOL    HW130227   3.059   7.263   4.782 -0.6625 -0.8067  1.8039
 6191SOL    HW230228   2.985   7.180   4.662  1.4624 -2.3501  1.5438
 6192SOL     OW30229   6.358   9.035   2.391 -0.2311  0.0464 -0.1349
 6192SOL    HW130230   6.276   9.041   2.334 -0.4902 -0.0430  0.2240
 6192SOL    HW230231   6.334   8.995   2.480  0.0087  0.9023  0.3289
 6193SOL     OW30232   2.735   9.870   1.815  0.1963 -0.0182  0.1271
 6193SOL    HW130233   2.715   9.822   1.729 -0.6083  1.2632 -0.4095
 6193SOL    HW230234   2.681   9.831   1.889 -0.7762  0.3342 -0.3962
 6194SOL     OW30235   5.441   2.195   8.070 -0.6927  0.4345 -0.1452
 6194SOL    HW130236   5.366   2.190   8.004 -2.5287 -0.3261  1.9198
 6194SOL    HW230237   5.446   2.287   8.108  0.1831  0.7971 -1.1277
 6195SOL     OW30238   4.238   0.782   6.516  0.2142 -0.2565 -0.1732
 6195SOL    HW130239   4.173   0.726   6.568  1.3459 -0.0132  1.5265
 6195SOL    HW230240   4.191   0.864   6.482 -0.5020 -0.3554  0.5710
 6196SOL     OW30241   1.173   6.935   4.497  0.0771  0.3759  0.0541
 6196SOL    HW130242   1.235   6.858   4.485 -0.6882 -0.0750 -1.1903
 6196SOL    HW230243   1.079   6.901   4.505 -0.1904  1.1421  0.2672
 6197SOL     OW30244   7.175   3.358   0.081  0.1546  0.4528  0.0662
 6197SOL    HW130245   7.116   3.327   0.006  1.2294 -1.6910  0.0874
 6197SOL    HW230246   7.126   3.427   0.135 -2.1371 -0.9128 -0.2132
 6198SOL     OW30247   9.439   9.701   1.969  0.2497  0.0313  0.2606
 6198SOL    HW130248   9.529   9.664   1.994  1.1327  1.1740 -1.1240
 6198SOL    HW230249   9.439   9.800   1.983 -0.5990  0.1135 -0.3066
 6199SOL     OW30250   2.950   3.812   0.701  0.0712  0.1110 -0.6728
 6199SOL    HW130251   2.921   3.733   0.756 -1.6317 -0.0878 -1.8084
 6199SOL    HW230252   3.023   3.860   0.748 -0.1969 -1.0289  0.9618
 6200SOL     OW30253   2.761   8.230   5.025 -0.3725  0.7469  0.1396
 6200SOL    HW130254   2.792   8.324   5.042 -2.7424  1.9095 -1.6693
 6200SOL    HW230255   2.773   8.176   5.107  3.1574  2.0167  0.5517
 6201SOL     OW30256   0.694   1.249   0.508  0.3852  0.1497 -0.0508
 6201SOL    HW130257   0.678   1.284   0.416 -0.1373 -1.3577 -0.5464
 6201SOL    HW230258   0.790   1.264   0.534  0.5504  0.5098 -0.8694
 6202SOL     OW30259   4.162   2.484   5.272  0.0681 -0.1977  0.1525
 6202SOL    HW130260   4.236   2.439   5.322  2.0684  1.2102 -1.4234
 6202SOL    HW230261   4.201   2.543   5.201 -2.5856  0.7070 -0.6256
 6203SOL     OW30262   1.222   2.238   7.130 -0.1624  0.3520 -0.6968
 6203SOL    HW130263   1.200   2.242   7.227 -0.9299  0.4345 -0.8708
 6203SOL    HW230264   1.309   2.190   7.118  0.4467  1.2385  0.1002
 6204SOL     OW30265   7.373   7.144   3.558  0.5923 -0.1469  0.4062
 6204SOL    HW130266   7.416   7.079   3.496  1.3231  0.7723 -0.0727
 6204SOL    HW230267   7.427   7.150   3.642  0.7574  0.1439  0.2804
 6205SOL     OW30268   8.445   8.370   1.306  0.2748  0.0945 -0.6915
 6205SOL    HW130269   8.448   8.431   1.227 -1.2818  1.2704  0.1268
 6205SOL    HW230270   8.522   8.307   1.302  1.3225  1.4112 -2.1230
 6206SOL     OW30271   7.655   5.771   3.156 -0.2004 -0.1528 -0.5837
 6206SOL    HW130272   7.616   5.702   3.094 -3.4977  0.5983  0.5260
 6206SOL    HW230273   7.617   5.861   3.133  0.3564  0.4972  1.0023
 6207SOL     OW30274   4.801   9.230   5.204 -0.0545  0.0932 -0.1429
 6207SOL    HW130275   4.871   9.298   5.227 -0.1617  0.2423 -0.2526
 6207SOL    HW230276   4.843   9.154   5.154  0.0439  0.1472 -0.1456
 6208SOL     OW30277   0.733   8.949   5.131 -0.0155  0.7586 -0.1523
 6208SOL    HW130278   0.753   8.878   5.198  0.9638  0.0760 -1.1594
 6208SOL    HW230279   0.666   8.915   5.065  0.1290  0.9297 -0.3858
 6209SOL     OW30280   2.794   5.197   3.831 -0.1158  0.1453  0.1401
 6209SOL    HW130281   2.878   5.231   3.788 -0.1713 -1.6971 -1.4739
 6209SOL    HW230282   2.719   5.200   3.765 -1.1067  0.8724  1.2837
 6210SOL     OW30283   7.843   8.522   5.823 -0.4359  0.3093 -0.0192
 6210SOL    HW130284   7.897   8.599   5.857  1.0171  0.0770 -1.7546
 6210SOL    HW230285   7.749   8.552   5.806  0.4355  2.0311 -1.9046
 6211SOL     OW30286   7.886   8.593   2.582  0.2242 -0.4499  0.0806
 6211SOL    HW130287   7.865   8.508   2.630 -2.0407  0.0202 -0.0225
 6211SOL    HW230288   7.808   8.618   2.524  0.0759  2.6907  1.5734
 6212SOL     OW30289   8.051   3.677   0.831 -0.1568  0.0972 -0.5626
 6212SOL    HW130290   7.956   3.669   0.802 -0.7541  1.6295  0.8958
 6212SOL    HW230291   8.096   3.588   0.824 -1.7952 -0.7121 -0.9212
 6213SOL     OW30292   8.950   4.966   1.018 -0.2465 -0.0210  0.0930
 6213SOL    HW130293   8.954   4.939   1.114  0.9963  2.1124  0.6744
 6213SOL    HW230294   8.860   5.006   0.998 -0.3232 -0.0002  0.4821
 6214SOL     OW30295   9.686   1.751   4.605 -0.0773  0.2909 -0.0200
 6214SOL    HW130296   9.669   1.707   4.692 -0.4907 -0.2482 -0.3769
 6214SOL    HW230297   9.769   1.807   4.612 -0.2953  0.5130  0.8103
 6215SOL     OW30298   6.781   9.063   3.884 -0.2066 -0.1106 -0.0274
 6215SOL    HW130299   6.742   8.971   3.873 -0.5870  0.2135 -1.4397
 6215SOL    HW230300   6.848   9.061   3.958  0.0543 -1.6159 -0.2741
 6216SOL     OW30301   8.500   2.292   8.137 -0.6366  0.0006  0.5397
 6216SOL    HW130302   8.504   2.195   8.113  1.2634 -0.0214  0.8839
 6216SOL    HW230303   8.435   2.339   8.077 -0.1993 -1.1382 -0.8409
 6217SOL     OW30304   6.960   2.335   4.245  0.4121  0.1077  0.6869
 6217SOL    HW130305   7.010   2.288   4.172  1.6615 -1.4144  2.4908
 6217SOL    HW230306   6.913   2.415   4.207  0.5896 -0.9648 -1.8790
 6218SOL     OW30307   8.414   1.451   4.164  0.4080 -0.1992  0.6300
 6218SOL    HW130308   8.362   1.529   4.199 -0.0363 -0.3371  0.2904
 6218SOL    HW230309   8.350   1.380   4.132  0.8012 -0.2368 -0.0913
 6219SOL     OW30310   3.759   7.814   0.651  0.5773 -0.2180 -0.3102
 6219SOL    HW130311   3.797   7.748   0.587  0.5215  0.1159 -0.6966
 6219SOL    HW230312   3.746   7.902   0.604  2.4851  0.6299  0.7080
 6220SOL     OW30313   4.669   2.776   7.562 -0.1982 -0.0350 -0.5221
 6220SOL    HW130314   4.762   2.756   7.530 -0.2269  2.0218 -1.9804
 6220SOL    HW230315   4.614   2.807   7.485 -2.1707 -1.4107  0.2978
 6221SOL     OW30316   2.410   2.060   2.912  0.0067 -0.2274  0.3434
 6221SOL    HW130317   2.496   2.037   2.866 -0.0926 -0.4941  0.2878
 6221SOL    HW230318   2.419   2.042   3.010 -0.2066 -0.9134  0.2417
 6222SOL     OW30319   2.641   8.250   7.794 -0.4752  0.5590  0.0593
 6222SOL    HW130320   2.629   8.235   7.696 -0.3578  1.4872 -0.0997
 6222SOL    HW230321   2.738   8.258   7.815 -0.4699 -0.1969  0.3384
 6223SOL     OW30322   0.835   5.534   4.498  0.2300  0.2596  0.1902
 6223SOL    HW130323   0.746   5.506   4.536  0.7521 -4.0383 -1.4940
 6223SOL    HW230324   0.824   5.620   4.447 -2.6426  0.5132  1.1487
 6224SOL     OW30325   3.889   9.551   0.813 -0.4740  0.1637 -0.4018
 6224SOL    HW130326   3.929   9.626   0.865 -2.4344  0.1056  1.2134
 6224SOL    HW230327   3.847   9.587   0.729 -0.1557  0.6769 -0.3417
 6225SOL     OW30328   2.521   7.602   7.701  0.0238  0.3673 -0.1329
 6225SOL    HW130329   2.498   7.655   7.620  0.1558 -1.3968 -1.3390
 6225SOL    HW230330   2.438   7.562   7.740  0.0092  0.8943  0.3934
 6226SOL     OW30331   2.426   3.109   1.709 -0.3017  0.5490 -0.1372
 6226SOL    HW130332   2.447   3.119   1.611 -0.6182  0.5404 -0.2063
 6226SOL    HW230333   2.512   3.102   1.760 -0.1390 -2.2811 -0.6966
 6227SOL     OW30334   9.716   6.013   7.579  0.1012  0.3327 -0.3436
 6227SOL    HW130335   9.761   5.951   7.644  0.4966 -1.3623 -2.1871
 6227SOL    HW230336   9.774   6.092   7.562  0.6090  0.1002  0.2962
 6228SOL     OW30337   9.791   2.270   8.038 -0.3892 -0.4164 -0.1988
 6228SOL    HW130338   9.877   2.283   7.988 -0.8153  0.8055 -0.6476
 6228SOL    HW230339   9.802   2.197   8.105  1.0332 -0.2065 -0.1819
 6229SOL     OW30340   7.310   1.030   5.956 -0.0768  0.3256 -0.0693
 6229SOL    HW130341   7.216   1.062   5.940 -0.4283 -0.5152  0.2850
 6229SOL    HW230342   7.351   1.004   5.869 -0.5408 -0.3077 -0.1004
 6230SOL     OW30343   5.794   8.917   5.874 -0.4771 -0.6184 -0.0605
 6230SOL    HW130344   5.743   8.977   5.936  0.6120 -0.4977  0.7251
 6230SOL    HW230345   5.871   8.877   5.922 -0.1362 -1.2294 -1.0963
 6231SOL     OW30346   8.362   3.297   1.137 -0.2124  0.1589 -0.4814
 6231SOL    HW130347   8.371   3.361   1.214  2.2783  1.2681 -1.6437
 6231SOL    HW230348   8.433   3.226   1.144 -2.9284 -2.5629  0.7871
 6232SOL     OW30349   7.747   3.642   7.761  0.2299  0.0522 -0.3124
 6232SOL    HW130350   7.801   3.657   7.678  0.9679  1.3926  0.3974
 6232SOL    HW230351   7.748   3.544   7.784 -1.9984 -0.6949 -3.2238
 6233SOL     OW30352   3.529   9.082   6.059  0.0509 -0.1412  0.0559
 6233SOL    HW130353   3.479   9.158   6.100  1.6200  1.0737 -0.2613
 6233SOL    HW230354   3.535   9.007   6.126  0.2134  0.7667  1.0844
 6234SOL     OW30355   2.764   6.898   6.621 -0.6563 -0.0164 -0.4413
 6234SOL    HW130356   2.708   6.848   6.686 -0.2454  0.2580  0.1283
 6234SOL    HW230357   2.725   6.889   6.529 -1.0181 -0.7282 -0.2213
 6235SOL     OW30358   1.969   6.645   7.561 -0.0832  0.1467  0.4021
 6235SOL    HW130359   2.061   6.643   7.600  0.8747  2.6764 -1.6092
 6235SOL    HW230360   1.974   6.643   7.461 -2.3363 -2.1711  0.2800
 6236SOL     OW30361   7.892   5.559   0.374 -0.6194  0.3221 -0.0154
 6236SOL    HW130362   7.897   5.474   0.321  1.8014  1.3153 -1.4568
 6236SOL    HW230363   7.886   5.637   0.312  0.0244  1.3815  1.2193
 6237SOL     OW30364   8.971   1.188   0.103 -0.1923 -0.5662  0.6677
 6237SOL    HW130365   8.919   1.239   0.034  0.6426 -0.1929  0.3067
 6237SOL    HW230366   8.946   1.092   0.100 -1.7628 -0.1851  1.3273
 6238SOL     OW30367   1.361   1.913   3.518  0.2281 -0.3772 -1.2304
 6238SOL    HW130368   1.434   1.848   3.501  1.3256  0.4287  0.2688
 6238SOL    HW230369   1.361   1.983   3.447  1.1692 -0.1593 -1.0140
 6239SOL     OW30370   6.672   7.473   5.680 -0.2980  0.1267 -0.0811
 6239SOL    HW130371   6.591   7.494   5.625 -1.2653 -0.5990  1.0205
 6239SOL    HW230372   6.689   7.375   5.679  1.0729  0.3582 -0.9577
 6240SOL     OW30373   9.187   8.036   1.248 -0.5184 -0.1423 -0.0207
 6240SOL    HW130374   9.212   8.133   1.245  0.6382 -0.4148  0.2474
 6240SOL    HW230375   9.126   8.014   1.172  1.2683  0.2497 -1.6200
 6241SOL     OW30376   2.697   7.003   3.577 -0.2839 -0.2241 -0.3298
 6241SOL    HW130377   2.692   7.088   3.630 -0.1898 -0.5534  0.2190
 6241SOL    HW230378   2.791   6.988   3.548 -0.2033 -0.4142  0.0302
 6242SOL     OW30379   1.307   7.106   1.076 -0.7327  0.5562 -0.3202
 6242SOL    HW130380   1.400   7.123   1.107 -0.2443  0.2945 -1.6008
 6242SOL    HW230381   1.254   7.191   1.078 -1.0161  0.3470  2.1679
 6243SOL     OW30382   1.840   9.126   1.786 -0.0454  0.1066 -0.0805
 6243SOL    HW130383   1.842   9.145   1.884  0.2804 -0.0803 -0.0519
 6243SOL    HW230384   1.802   9.204   1.738  0.4589  0.4734  0.1217
 6244SOL     OW30385   1.559   9.161   1.468 -0.6773 -0.0370  0.2686
 6244SOL    HW130386   1.617   9.232   1.426 -1.3458 -1.0631 -2.4884
 6244SOL    HW230387   1.466   9.169   1.431 -0.2951 -3.5722 -1.6497
 6245SOL     OW30388   1.388   8.013   8.072 -0.1137 -0.1256  0.0503
 6245SOL    HW130389   1.344   7.942   8.017 -0.9470 -0.7510  1.5031
 6245SOL    HW230390   1.328   8.040   8.147  0.7702  1.1381  0.3285
 6246SOL     OW30391   9.349   8.503   7.192 -0.5761 -0.2223 -0.0869
 6246SOL    HW130392   9.278   8.432   7.184 -0.8375 -0.0395  0.5501
 6246SOL    HW230393   9.418   8.490   7.121 -0.3911 -1.3790  0.2990
 6247SOL     OW30394   2.513   2.199   4.580  0.0266  0.4431  0.6211
 6247SOL    HW130395   2.527   2.275   4.643  1.6414 -0.1978  1.0623
 6247SOL    HW230396   2.546   2.225   4.489 -0.1542  0.5405  0.5821
 6248SOL     OW30397   0.658   9.654   6.255  0.2646 -0.1367 -0.0315
 6248SOL    HW130398   0.562   9.633   6.272  0.7442 -1.1343  1.5821
 6248SOL    HW230399   0.694   9.591   6.186 -0.1495  0.0244 -0.3956
 6249SOL     OW30400   8.118   1.294   3.762 -0.0799 -0.2849  0.4997
 6249SOL    HW130401   8.054   1.288   3.686  1.0894 -2.6030 -0.3238
 6249SOL    HW230402   8.163   1.384   3.761  0.5558 -0.6020 -2.0443
 6250SOL     OW30403   8.497   4.800   1.910  0.2414 -0.6702  0.0308
 6250SOL    HW130404   8.517   4.792   2.008  1.0696  0.3077 -0.0589
 6250SOL    HW230405   8.410   4.755   1.891  0.6097 -1.8602  1.0243
 6251SOL     OW30406   9.673   3.653   6.915 -0.1236 -0.1201 -0.2374
 6251SOL    HW130407   9.606   3.721   6.944 -0.2259 -0.5593  0.5426
 6251SOL    HW230408   9.651   3.564   6.954  0.4490 -0.4422 -0.6358
 6252SOL     OW30409   9.764   3.319   2.960 -0.2316 -0.0805  0.0358
 6252SOL    HW130410   9.729   3.272   3.041 -1.3787  0.5937 -0.0462
 6252SOL    HW230411   9.825   3.392   2.988  0.7837 -0.9776  0.2050
 6253SOL     OW30412   0.933   8.264   5.513  0.8350  0.4666  0.3003
 6253SOL    HW130413   0.851   8.314   5.485  1.2270  0.4110 -0.9492
 6253SOL    HW230414   0.988   8.241   5.433  0.8746 -1.6048  0.8847
 6254SOL     OW30415   8.969   7.197   5.710 -0.0092 -0.3047  0.7121
 6254SOL    HW130416   8.909   7.250   5.650 -2.5453 -2.0558  1.6135
 6254SOL    HW230417   8.968   7.101   5.681  1.2858 -0.5811  1.5834
 6255SOL     OW30418   5.818   7.401   5.063  0.4560 -0.3445  0.1399
 6255SOL    HW130419   5.858   7.482   5.106  0.3096  0.6119 -1.4903
 6255SOL    HW230420   5.718   7.407   5.066  0.3857 -1.6788  2.2179
 6256SOL     OW30421   1.595   6.068   7.275 -0.1030 -0.0213 -0.3735
 6256SOL    HW130422   1.504   6.109   7.272 -0.1014 -0.0190 -0.3876
 6256SOL    HW230423   1.621   6.050   7.370  0.5535  1.4727 -0.2446
 6257SOL     OW30424   5.354   8.513   1.574 -0.0013 -0.1231  0.4289
 6257SOL    HW130425   5.284   8.461   1.525  1.0232 -1.5342  0.4285
 6257SOL    HW230426   5.435   8.456   1.588  1.2984  1.5899  0.1244
 6258SOL     OW30427   3.511   0.863   6.007 -0.6901 -0.2862  0.3442
 6258SOL    HW130428   3.534   0.960   5.995 -0.9174 -0.1069  1.2860
 6258SOL    HW230429   3.448   0.834   5.935  1.3704 -0.4197 -1.4434
 6259SOL     OW30430   7.772   2.095   0.173  0.6775 -0.0557  0.1819
 6259SOL    HW130431   7.812   2.016   0.126 -1.8869 -1.0860 -0.3735
 6259SOL    HW230432   7.748   2.070   0.267  0.2332  0.1735  0.1316
 6260SOL     OW30433   9.906   4.614   0.052 -0.3882 -0.3392 -0.1876
 6260SOL    HW130434   9.854   4.691   0.091  3.3903  2.6335 -0.7369
 6260SOL    HW230435   9.924   4.632  -0.044  0.9868 -1.6816 -0.1924
 6261SOL     OW30436   8.775   7.563   5.662  0.2388  0.0758 -0.1467
 6261SOL    HW130437   8.849   7.584   5.598 -0.4215  2.8380 -0.0862
 6261SOL    HW230438   8.811   7.561   5.755  0.2070  1.7575 -0.0828
 6262SOL     OW30439   8.028   5.740   4.272  0.4197  0.4496  0.6590
 6262SOL    HW130440   8.048   5.662   4.331  1.2058 -0.9938 -1.4778
 6262SOL    HW230441   8.097   5.747   4.201 -0.8116  1.8337 -0.4392
 6263SOL     OW30442   0.354   0.394   5.746 -0.4837 -0.4751 -0.1487
 6263SOL    HW130443   0.443   0.423   5.710 -0.5616  1.9958  1.5096
 6263SOL    HW230444   0.362   0.303   5.786  1.6579  0.2466  1.1515
 6264SOL     OW30445   7.938   2.202   3.793 -0.0277 -0.0018  0.0617
 6264SOL    HW130446   7.939   2.239   3.700  0.1255 -0.4192 -0.1028
 6264SOL    HW230447   7.888   2.265   3.853 -0.0948  0.2863 -0.2940
 6265SOL     OW30448   3.755   9.721   7.778  0.5113 -0.3170 -0.1709
 6265SOL    HW130449   3.845   9.708   7.737  0.4129 -0.3812 -0.3695
 6265SOL    HW230450   3.763   9.778   7.859  1.2318 -3.1089  1.7836
 6266SOL     OW30451   5.114   1.494   0.465 -0.1638 -0.0399 -0.0531
 6266SOL    HW130452   5.049   1.418   0.474  0.6871 -0.8287 -0.4428
 6266SOL    HW230453   5.186   1.485   0.534  0.0044  0.3441 -0.1770
 6267SOL     OW30454   1.299   0.247   4.767 -0.4711 -0.3266  0.3322
 6267SOL    HW130455   1.228   0.287   4.824 -0.7827  0.5646 -0.6767
 6267SOL    HW230456   1.388   0.280   4.797 -0.6509  0.3162  0.1521
 6268SOL     OW30457   6.112   1.956   5.116  0.2408  0.8517  0.1219
 6268SOL    HW130458   6.106   1.928   5.212  0.1012  0.2760 -0.0528
 6268SOL    HW230459   6.068   2.046   5.104  0.6024  1.0995  0.6670
 6269SOL     OW30460   0.363   5.243   2.279 -0.2975  0.7977 -0.2880
 6269SOL    HW130461   0.306   5.325   2.276  0.0438  1.0549  0.2646
 6269SOL    HW230462   0.308   5.163   2.256 -0.7657  1.1095 -0.2430
 6270SOL     OW30463   6.697   1.422   5.745  0.0232 -0.3175 -0.0608
 6270SOL    HW130464   6.599   1.411   5.760 -0.0447 -0.9071 -0.9248
 6270SOL    HW230465   6.730   1.501   5.797 -1.0649  0.3879 -0.4225
 6271SOL     OW30466   3.081   5.676   0.945  0.4567 -0.5095 -0.4523
 6271SOL    HW130467   3.170   5.696   0.902  0.1583  1.9255 -0.0415
 6271SOL    HW230468   3.092   5.678   1.045 -0.0335 -0.2421 -0.4040
 6272SOL     OW30469   9.094   6.019   3.491  0.2691 -0.0770 -0.0489
 6272SOL    HW130470   9.181   6.056   3.523 -0.2367  1.3673 -0.3017
 6272SOL    HW230471   9.019   6.057   3.546 -0.3476  0.0907 -0.9891
 6273SOL     OW30472   3.868   0.009   5.221 -0.5944 -0.7224  0.0451
 6273SOL    HW130473   3.900   0.073   5.291 -0.7265 -2.3752  1.6576
 6273SOL    HW230474   3.769   0.002   5.225 -0.5793 -1.0213 -0.1312
 6274SOL     OW30475   4.523   6.473   1.665  0.0962  0.2747  0.0045
 6274SOL    HW130476   4.511   6.408   1.590 -0.5948  1.0819 -0.5899
 6274SOL    HW230477   4.608   6.524   1.651 -0.9312  1.7002 -1.2182
 6275SOL     OW30478   8.705   3.777   4.474  0.7690 -0.0668  0.0264
 6275SOL    HW130479   8.652   3.808   4.395 -0.9339  3.3731  2.4091
 6275SOL    HW230480   8.801   3.767   4.447  0.0408 -0.0944 -2.7495
 6276SOL     OW30481   0.844   1.846   3.552  0.1272 -0.0257 -0.0331
 6276SOL    HW130482   0.756   1.862   3.507  0.1590  0.5034  0.0949
 6276SOL    HW230483   0.884   1.761   3.517 -0.4124 -0.2454 -0.1266
 6277SOL     OW30484   5.276   0.190   5.251  0.1837  0.0780  0.5139
 6277SOL    HW130485   5.265   0.094   5.227 -0.7612  0.4985 -0.7548
 6277SOL    HW230486   5.311   0.240   5.172  0.3725  0.8479  1.0781
 6278SOL     OW30487   9.232   2.393   2.594 -0.1119 -0.0029  0.3300
 6278SOL    HW130488   9.281   2.373   2.509 -1.5539  0.2643 -0.5774
 6278SOL    HW230489   9.272   2.474   2.638 -0.4297  0.8386 -0.9398
 6279SOL     OW30490   7.599   8.024   3.289 -0.1436  0.3264  0.5376
 6279SOL    HW130491   7.528   8.001   3.355  0.6227 -1.1426  0.8727
 6279SOL    HW230492   7.688   8.026   3.335  0.5189 -1.6049 -0.6203
 6280SOL     OW30493   7.780   8.348   3.733  0.0154  0.2485 -0.0259
 6280SOL    HW130494   7.720   8.406   3.677  1.6039  1.0349 -0.9396
 6280SOL    HW230495   7.860   8.401   3.761 -0.4802 -0.2821  2.5864
 6281SOL     OW30496   7.091   0.809   5.786  0.1580  0.7430 -0.3101
 6281SOL    HW130497   7.068   0.899   5.823  1.0851  0.5349  0.8294
 6281SOL    HW230498   7.012   0.770   5.740 -0.3968  1.9296 -0.3726
 6282SOL     OW30499   3.095   8.162   6.728  0.4711 -0.5281 -0.3244
 6282SOL    HW130500   3.073   8.121   6.816 -0.8535  0.9988  0.0855
 6282SOL    HW230501   3.046   8.116   6.655 -1.8107  0.9173  0.2457
 6283SOL     OW30502   7.481   2.305   1.969 -0.1893  0.0672  0.0519
 6283SOL    HW130503   7.540   2.245   1.915 -2.1166 -0.7561 -1.2096
 6283SOL    HW230504   7.389   2.265   1.974 -0.8317  1.6404  1.4141
 6284SOL     OW30505   2.789   4.020   4.230 -0.1914 -0.5550  0.1234
 6284SOL    HW130506   2.878   4.007   4.274 -0.6641 -3.0673  0.3991
 6284SOL    HW230507   2.766   4.117   4.229  1.9197 -0.0216  1.2917
 6285SOL     OW30508   3.353   8.000   6.456  0.2395 -0.3938 -0.0685
 6285SOL    HW130509   3.291   8.070   6.422 -1.0810 -0.5763  1.8964
 6285SOL    HW230510   3.447   8.024   6.432 -0.4363  0.6274 -1.7805
 6286SOL     OW30511   4.399   3.212   0.212 -0.0674 -0.2313 -0.4812
 6286SOL    HW130512   4.357   3.225   0.302  2.1376  2.2044  0.2740
 6286SOL    HW230513   4.329   3.191   0.144 -1.7152 -2.7172  1.8890
 6287SOL     OW30514   3.439   1.412   4.726 -0.6184  0.3730 -0.2522
 6287SOL    HW130515   3.397   1.322   4.717  2.0380 -0.9985  0.5673
 6287SOL    HW230516   3.469   1.445   4.637  0.4445 -0.6052 -0.2711
 6288SOL     OW30517   9.883   9.941   8.175  1.0920 -0.1990  0.1980
 6288SOL    HW130518   9.862   9.965   8.270  1.0052 -0.0425  0.1397
 6288SOL    HW230519   9.944   9.862   8.174  1.0134 -0.2624  0.3809
 6289SOL     OW30520   0.581   0.311   4.526 -0.7022 -0.0276 -0.2504
 6289SOL    HW130521   0.615   0.352   4.610  0.8105 -0.7295 -0.4976
 6289SOL    HW230522   0.612   0.366   4.448  0.6804 -1.1820 -0.5351
 6290SOL     OW30523   1.125   6.262   1.442 -0.7207  0.3246  0.0365
 6290SOL    HW130524   1.178   6.204   1.381  0.3699  0.6415  0.6594
 6290SOL    HW230525   1.147   6.239   1.537 -3.9908 -1.6586  0.3943
 6291SOL     OW30526   3.582   3.701   1.060  0.2128  0.2114 -0.1253
 6291SOL    HW130527   3.487   3.701   1.090  0.3145  1.8829  0.2386
 6291SOL    HW230528   3.597   3.778   0.998  1.3750  0.0289 -0.0755
 6292SOL     OW30529   9.211   1.124   4.737  0.2494 -0.3137  0.0847
 6292SOL    HW130530   9.245   1.041   4.692  0.8233 -0.2305  0.3636
 6292SOL    HW230531   9.115   1.110   4.764  0.6448 -1.2693  1.0570
 6293SOL     OW30532   2.470   4.533   5.868 -0.5031 -0.0035 -0.1011
 6293SOL    HW130533   2.386   4.566   5.911 -2.1032 -1.9519 -1.6003
 6293SOL    HW230534   2.477   4.434   5.880  0.3291 -0.2106 -2.0676
 6294SOL     OW30535   5.184   1.514   4.975 -0.1083 -0.1253 -0.3033
 6294SOL    HW130536   5.166   1.589   5.038 -0.2947 -0.2730 -0.1783
 6294SOL    HW230537   5.225   1.437   5.025  1.0476  0.2816 -0.6255
 6295SOL     OW30538   9.078   6.345   8.130  0.1600  0.1140  0.6108
 6295SOL    HW130539   9.086   6.444   8.119  0.0289  0.0417 -0.1320
 6295SOL    HW230540   9.170   6.305   8.133  0.2057  0.1615 -0.0036
 6296SOL     OW30541   8.711   0.813   3.110  0.0248  0.0235 -0.0194
 6296SOL    HW130542   8.766   0.730   3.106 -0.5366 -0.5746  3.0486
 6296SOL    HW230543   8.761   0.884   3.160 -2.0147 -0.6375  3.0881
 6297SOL     OW30544   1.592   1.866   7.193 -0.4272  0.4390 -0.1164
 6297SOL    HW130545   1.672   1.901   7.145  0.9616 -1.4643  0.7704
 6297SOL    HW230546   1.551   1.793   7.139  0.9331 -1.4709  1.3940
 6298SOL     OW30547   6.746   9.967   4.861  0.0146 -0.1495 -0.1041
 6298SOL    HW130548   6.809   9.925   4.795 -0.2802 -0.2790 -0.3041
 6298SOL    HW230549   6.667   9.907   4.875 -0.4198  0.3448 -0.4069
 6299SOL     OW30550   3.489   1.770   0.787  0.2042 -0.3342  0.0104
 6299SOL    HW130551   3.546   1.707   0.840  0.5037  1.5278  1.9690
 6299SOL    HW230552   3.536   1.792   0.701  3.7268  2.9393  2.5417
 6300SOL     OW30553   7.894   9.180   5.375  0.6950 -0.2950 -0.6096
 6300SOL    HW130554   7.882   9.274   5.343 -0.4005 -1.0466 -2.4712
 6300SOL    HW230555   7.818   9.156   5.435  0.8088 -0.1058 -0.3875
 6301SOL     OW30556   1.449   5.283   6.356  0.5004  0.1690  0.3167
 6301SOL    HW130557   1.421   5.196   6.395 -1.3221 -0.0789 -1.4657
 6301SOL    HW230558   1.425   5.357   6.418  0.3248 -0.4357  0.9760
 6302SOL     OW30559   2.813   9.061   1.635  1.3940  0.0099  0.3043
 6302SOL    HW130560   2.852   9.142   1.678 -0.3084  1.8994 -1.6271
 6302SOL    HW230561   2.881   9.021   1.572  1.5147  1.1688 -0.3154
 6303SOL     OW30562   0.130   8.762   1.128 -0.2266 -0.1943 -0.1253
 6303SOL    HW130563   0.178   8.840   1.168 -0.0475  1.2387 -2.9793
 6303SOL    HW230564   0.032   8.780   1.126 -0.3510 -0.7537  0.6831
 6304SOL     OW30565   0.845   2.349   7.321  0.2810 -0.1868  0.3605
 6304SOL    HW130566   0.802   2.399   7.247  0.2456 -1.9949 -0.8803
 6304SOL    HW230567   0.889   2.413   7.385  0.1544  1.3800 -1.1059
 6305SOL     OW30568   5.478   8.658   6.702 -0.2045 -0.0841  0.0709
 6305SOL    HW130569   5.444   8.660   6.608  0.9358  0.4479 -0.3312
 6305SOL    HW230570   5.421   8.595   6.756 -0.4179 -0.9492 -1.1429
 6306SOL     OW30571   0.472   3.782   2.348  0.3609 -0.2036 -0.0527
 6306SOL    HW130572   0.409   3.857   2.370 -0.4922 -0.5956 -1.0557
 6306SOL    HW230573   0.420   3.706   2.308  1.5328 -0.3864 -1.2629
 6307SOL     OW30574   2.675   4.704   6.287  0.1281  0.2529 -0.2046
 6307SOL    HW130575   2.720   4.792   6.272  0.0723  0.2307 -0.5183
 6307SOL    HW230576   2.657   4.661   6.198  3.2311 -1.6133 -0.0059
 6308SOL     OW30577   4.739   9.683   5.316  0.1605  0.3866 -0.1659
 6308SOL    HW130578   4.639   9.686   5.311  0.1004 -1.2432 -0.5877
 6308SOL    HW230579   4.777   9.707   5.226  0.1014 -0.1160 -0.3277
 6309SOL     OW30580   2.924   7.091   6.419  0.0293  0.0128  0.2003
 6309SOL    HW130581   2.956   7.032   6.494  0.5410 -0.2127 -0.1968
 6309SOL    HW230582   2.836   7.057   6.386  0.8344 -1.1786 -0.7540
 6310SOL     OW30583   4.793   1.467   6.533  0.4347  0.3569 -0.0738
 6310SOL    HW130584   4.736   1.525   6.593 -0.1739 -0.4734  0.1620
 6310SOL    HW230585   4.735   1.424   6.464  0.9313  0.2467 -0.4213
 6311SOL     OW30586   0.160   0.647   7.168  0.2769 -0.2059 -0.4950
 6311SOL    HW130587   0.076   0.671   7.217  1.1369  1.0309  0.4038
 6311SOL    HW230588   0.167   0.702   7.085  0.6002  0.2826 -0.1459
 6312SOL     OW30589   6.272   1.948   3.670 -0.5374 -0.2469 -0.0168
 6312SOL    HW130590   6.209   2.000   3.612 -1.7115  0.3968  1.8181
 6312SOL    HW230591   6.363   1.946   3.626 -1.1253  1.1192 -1.3588
 6313SOL     OW30592   9.841   7.594   4.170  0.2328 -0.6385 -0.0074
 6313SOL    HW130593   9.853   7.690   4.193 -0.5646 -0.4358 -0.4311
 6313SOL    HW230594   9.747   7.566   4.190 -0.2252 -0.6890 -2.1612
 6314SOL     OW30595   2.463   3.076   7.473 -0.1733  0.2286 -0.1924
 6314SOL    HW130596   2.396   3.128   7.527 -0.7043 -1.4883  0.8555
 6314SOL    HW230597   2.429   3.063   7.380 -1.6983 -1.3344  0.5636
 6315SOL     OW30598   4.844   8.713   0.292 -0.2787 -0.0708  0.7301
 6315SOL    HW130599   4.889   8.691   0.205 -0.4505 -2.4750  1.2142
 6315SOL    HW230600   4.749   8.683   0.289  0.0618 -1.3654  2.1943
 6316SOL     OW30601   2.742   4.984   0.773 -0.5632 -0.6529 -0.0593
 6316SOL    HW130602   2.657   4.934   0.792  0.1890 -2.2941 -0.9064
 6316SOL    HW230603   2.810   4.962   0.843 -1.0253  1.2009  1.0145
 6317SOL     OW30604   9.260   1.251   2.054 -0.1332 -0.2838 -0.2593
 6317SOL    HW130605   9.206   1.175   2.019 -0.6686  0.0527 -0.1555
 6317SOL    HW230606   9.218   1.338   2.029 -1.5106 -0.0296  2.7099
 6318SOL     OW30607   2.051   9.210   1.519 -0.6398 -0.4430 -0.1989
 6318SOL    HW130608   1.956   9.198   1.548 -1.1697 -1.1850 -2.1801
 6318SOL    HW230609   2.090   9.121   1.494  0.2565 -0.0031 -0.3993
 6319SOL     OW30610   7.621   8.543   3.529  0.0507  0.1706  0.1951
 6319SOL    HW130611   7.681   8.619   3.505 -1.2051  1.0392 -0.3045
 6319SOL    HW230612   7.537   8.580   3.571 -0.0711 -1.0141  1.0061
 6320SOL     OW30613   0.018   1.178   7.811 -0.0265 -0.5243 -0.0162
 6320SOL    HW130614   0.096   1.134   7.856  0.3196  1.3070  1.2439
 6320SOL    HW230615   0.051   1.243   7.743 -0.4609  0.3244  0.5868
 6321SOL     OW30616   5.040   1.745   7.984  0.1645 -0.0287 -0.2915
 6321SOL    HW130617   5.107   1.820   7.985  0.6730 -0.4922  1.3177
 6321SOL    HW230618   5.061   1.680   8.057 -0.8382 -1.2577 -1.0706
 6322SOL     OW30619   8.637   9.522   7.299  0.1543 -0.3673 -0.9373
 6322SOL    HW130620   8.669   9.441   7.250  0.2733 -0.0459 -1.3980
 6322SOL    HW230621   8.571   9.495   7.370 -0.2935 -0.8054 -1.5153
 6323SOL     OW30622   2.020   1.984   7.654 -0.1856 -0.4674  0.4827
 6323SOL    HW130623   2.001   2.076   7.621  1.4004 -1.0490 -2.2207
 6323SOL    HW230624   1.957   1.961   7.728 -2.0131  1.9609 -0.2655
 6324SOL     OW30625   0.942   9.041   6.779  0.1588  0.0145  0.2685
 6324SOL    HW130626   0.953   9.007   6.685 -1.3340 -0.7456  0.3561
 6324SOL    HW230627   1.031   9.064   6.816  0.9541 -1.3430 -0.7269
 6325SOL     OW30628   3.272   7.300   7.397 -0.4933 -0.2749  0.2132
 6325SOL    HW130629   3.335   7.263   7.466 -0.0481 -0.5053 -0.3140
 6325SOL    HW230630   3.192   7.339   7.443 -0.6996 -1.3768  0.8070
 6326SOL     OW30631   3.721   2.569   2.686 -0.0184 -0.3383  0.2738
 6326SOL    HW130632   3.680   2.554   2.776 -0.3467 -0.7684  0.0532
 6326SOL    HW230633   3.652   2.552   2.615  0.4661 -0.7934 -0.0885
 6327SOL     OW30634   6.975   8.885   3.281  0.4108  0.0078  0.4882
 6327SOL    HW130635   6.942   8.934   3.363  1.6616  1.9321 -0.1161
 6327SOL    HW230636   6.911   8.900   3.206  1.6435  2.2057 -0.1707
 6328SOL     OW30637   3.039   0.816   5.625 -0.2091  0.3730  0.2640
 6328SOL    HW130638   3.071   0.858   5.540 -0.5837  1.2858  0.5683
 6328SOL    HW230639   3.053   0.717   5.621  0.3405  0.4856 -0.6098
 6329SOL     OW30640   8.949   5.204   7.133  0.1436 -0.0786 -0.4827
 6329SOL    HW130641   9.026   5.190   7.071  0.5321  0.2637 -0.0805
 6329SOL    HW230642   8.867   5.226   7.080  0.4521  0.1253 -0.8760
 6330SOL     OW30643   1.990   7.868   5.998 -0.3723  0.2099  0.3523
 6330SOL    HW130644   2.012   7.773   6.018 -0.1454 -0.0988 -1.2722
 6330SOL    HW230645   2.050   7.928   6.050  0.5861 -0.5666  0.1517
 6331SOL     OW30646   3.095   3.967   2.932 -0.0541 -0.1501  0.2493
 6331SOL    HW130647   3.048   3.902   2.871  0.3076 -0.6520  0.5014
 6331SOL    HW230648   3.111   3.923   3.021 -0.1357  0.4124  0.5457
 6332SOL     OW30649   3.978   6.416   1.684  0.0819 -0.0905  0.3282
 6332SOL    HW130650   3.975   6.401   1.585  0.1841  0.7760  0.1845
 6332SOL    HW230651   3.965   6.513   1.703  1.9355  0.0440  1.0621
 6333SOL     OW30652   3.635   4.389   3.373 -0.2771  0.0685 -0.0055
 6333SOL    HW130653   3.684   4.467   3.333  1.0686 -1.4276 -1.3305
 6333SOL    HW230654   3.680   4.304   3.346 -1.1281 -1.1356  2.2630
 6334SOL     OW30655   1.933   7.595   5.357 -0.3980 -0.3512  0.0390
 6334SOL    HW130656   1.964   7.519   5.301  0.0316 -1.0003  1.1345
 6334SOL    HW230657   1.943   7.571   5.454 -1.3793  0.6414  0.3944
 6335SOL     OW30658   0.572   9.291   7.694  0.8108 -0.0352  0.1814
 6335SOL    HW130659   0.612   9.382   7.690  1.6238 -0.3866  0.3523
 6335SOL    HW230660   0.560   9.263   7.789  0.5376 -0.0983  0.1302
 6336SOL     OW30661   1.970   4.880   8.192  0.0127  0.3813  0.3029
 6336SOL    HW130662   2.049   4.927   8.153  0.0766 -1.3166 -1.7020
 6336SOL    HW230663   1.992   4.847   8.284  2.0536 -1.0333 -0.6567
 6337SOL     OW30664   9.528   5.075   1.183  0.0698 -0.9235  0.8085
 6337SOL    HW130665   9.553   5.171   1.198 -1.8928 -0.4733  1.2952
 6337SOL    HW230666   9.602   5.028   1.134  0.7308  1.0120 -0.0736
 6338SOL     OW30667   6.934   9.816   4.702 -0.5675 -0.6132  0.8269
 6338SOL    HW130668   7.006   9.770   4.753  0.6376 -1.1952 -1.3411
 6338SOL    HW230669   6.915   9.766   4.617 -2.5978  0.2559  0.7188
 6339SOL     OW30670   2.414   5.683   1.786 -0.3715 -0.1577 -0.0519
 6339SOL    HW130671   2.452   5.686   1.693 -0.1545  0.6187  0.0553
 6339SOL    HW230672   2.474   5.628   1.844 -0.5411 -0.6959 -0.3904
 6340SOL     OW30673   2.721   4.961   1.822 -0.1366 -0.7065  0.5162
 6340SOL    HW130674   2.793   4.932   1.885 -0.6414 -2.0714  0.4779
 6340SOL    HW230675   2.762   4.994   1.737  0.4971  0.0366  1.0932
 6341SOL     OW30676   0.016   4.741   4.623 -0.4493 -0.0135  0.0769
 6341SOL    HW130677   0.076   4.709   4.697  1.2265  2.0614 -0.3165
 6341SOL    HW230678  -0.068   4.779   4.662  0.2179  0.6407  0.9061
 6342SOL     OW30679   4.230   5.922   1.276  1.4263  0.6067 -0.1142
 6342SOL    HW130680   4.208   5.879   1.189  0.4818  0.0148  0.4131
 6342SOL    HW230681   4.147   5.956   1.320  1.8326  0.4794  0.7812
 6343SOL     OW30682   6.001   7.395   1.491 -0.1967 -0.0449  0.1720
 6343SOL    HW130683   5.930   7.413   1.559 -0.7232 -0.7146 -0.1961
 6343SOL    HW230684   6.018   7.297   1.486  0.6966  0.1028  0.1908
 6344SOL     OW30685   8.671   2.721   3.015 -0.3237 -0.1419  0.4693
 6344SOL    HW130686   8.728   2.710   3.097 -1.5233  0.3860  1.3953
 6344SOL    HW230687   8.726   2.704   2.934  0.9286 -0.5328  1.3808
 6345SOL     OW30688   0.253   4.397   6.806 -0.5092  0.1040  0.0099
 6345SOL    HW130689   0.311   4.344   6.868 -0.2185  0.2685 -0.1218
 6345SOL    HW230690   0.204   4.334   6.745 -1.4946 -0.1048  1.0154
 6346SOL     OW30691   9.721   6.547   5.310 -0.0333  0.1699 -0.1883
 6346SOL    HW130692   9.814   6.517   5.330 -0.6546 -2.5741 -1.2081
 6346SOL    HW230693   9.688   6.605   5.385  2.1890  0.5353  0.5448
 6347SOL     OW30694   7.243   5.535   1.330 -0.3949  0.1267 -0.5030
 6347SOL    HW130695   7.289   5.608   1.381 -0.3072 -0.5877  0.4604
 6347SOL    HW230696   7.173   5.575   1.271 -0.6780  0.9564  0.3657
 6348SOL     OW30697   3.161   2.987   1.645 -0.1750 -0.3597 -0.7021
 6348SOL    HW130698   3.134   3.083   1.642 -0.1504 -0.4003 -2.9128
 6348SOL    HW230699   3.217   2.971   1.727  1.1881  1.8556 -1.1598
 6349SOL     OW30700   6.580   6.455   1.548 -0.5852 -0.5438 -0.4124
 6349SOL    HW130701   6.480   6.463   1.554 -0.6189 -0.5763 -0.9111
 6349SOL    HW230702   6.618   6.537   1.505 -0.3383 -0.2522  0.3616
 6350SOL     OW30703   5.297   6.762   0.780 -0.1986  0.0013 -0.1474
 6350SOL    HW130704   5.387   6.775   0.739 -1.0138  1.4254 -1.5151
 6350SOL    HW230705   5.248   6.691   0.730 -0.0305 -0.4150  0.2778
 6351SOL     OW30706   4.923   4.331   5.061  0.5133 -0.2941  0.4580
 6351SOL    HW130707   4.989   4.389   5.108  0.4836  0.1830 -0.0782
 6351SOL    HW230708   4.888   4.262   5.124 -0.3721  1.0318  1.4578
 6352SOL     OW30709   9.561   4.866   7.317 -0.2182 -0.3938 -0.1158
 6352SOL    HW130710   9.492   4.854   7.246 -0.7849 -1.9201  0.6872
 6352SOL    HW230711   9.621   4.785   7.319 -1.1052 -1.0219  2.1209
 6353SOL     OW30712   0.437   0.319   7.799  0.3860 -0.3437  0.5248
 6353SOL    HW130713   0.422   0.243   7.863  1.8558 -1.4467 -0.4127
 6353SOL    HW230714   0.358   0.379   7.801 -1.0871 -2.2248  0.8410
 6354SOL     OW30715   9.895   8.684   4.052 -0.5769  0.3435 -0.1282
 6354SOL    HW130716   9.865   8.620   3.981 -0.7434  1.3616 -0.9804
 6354SOL    HW230717   9.951   8.635   4.119 -0.8641 -0.7341 -0.6709
 6355SOL     OW30718   8.966   0.805   4.820  0.0807 -0.4640  1.0740
 6355SOL    HW130719   8.971   0.873   4.892 -0.7585  0.5145  0.2332
 6355SOL    HW230720   8.872   0.771   4.812 -0.3019  0.9258 -0.8669
 6356SOL     OW30721   0.172   5.761   4.879  0.1963  0.0302  0.1390
 6356SOL    HW130722   0.097   5.726   4.936  0.2488 -0.0733  0.1445
 6356SOL    HW230723   0.259   5.731   4.918  0.2667  0.7935  0.5685
 6357SOL     OW30724   1.641   2.264   7.366  0.7831 -0.4631 -0.6565
 6357SOL    HW130725   1.675   2.249   7.273  0.7339 -0.2063 -0.7162
 6357SOL    HW230726   1.619   2.361   7.378 -0.6271 -0.7570 -0.8417
 6358SOL     OW30727   1.618   1.919   6.174 -0.3144  0.1066 -0.1651
 6358SOL    HW130728   1.568   1.833   6.177 -0.8415  0.4328  0.4683
 6358SOL    HW230729   1.585   1.979   6.246  1.4547  0.0708  0.7016
 6359SOL     OW30730   9.906   4.139   7.674 -0.5994 -0.4539  0.5548
 6359SOL    HW130731   9.972   4.067   7.654 -0.4011  0.2288 -1.3927
 6359SOL    HW230732   9.954   4.220   7.710 -0.4180 -0.1532 -0.3419
 6360SOL     OW30733   1.912   8.551   4.210  0.4355 -0.5807  0.6006
 6360SOL    HW130734   1.876   8.624   4.268  0.4099  0.0480 -0.2028
 6360SOL    HW230735   1.838   8.488   4.187 -0.1373  0.6084 -0.8963
 6361SOL     OW30736   6.898   8.964   2.817 -0.7455  0.2312  0.2298
 6361SOL    HW130737   6.833   8.938   2.746  1.2916 -2.1794 -0.8398
 6361SOL    HW230738   6.899   9.063   2.827 -1.4076  0.5895 -2.8301
 6362SOL     OW30739   8.129   1.370   1.701 -0.3975 -0.0133  0.1267
 6362SOL    HW130740   8.091   1.456   1.666  1.4657  1.2839  1.2570
 6362SOL    HW230741   8.109   1.361   1.798  0.2436 -0.4225  0.2218
 6363SOL     OW30742   1.844   0.233   2.167  0.1110 -0.3525 -0.6599
 6363SOL    HW130743   1.785   0.242   2.087  0.9459 -0.1273 -1.2575
 6363SOL    HW230744   1.799   0.273   2.247 -0.3880  0.1332 -1.1849
 6364SOL     OW30745   8.547   7.936   5.590  0.5024 -0.0282 -0.0733
 6364SOL    HW130746   8.498   7.864   5.541  0.4884 -0.6346  0.8199
 6364SOL    HW230747   8.535   8.023   5.542 -1.2231 -0.2163 -0.0076
 6365SOL     OW30748   0.314   0.504   5.219  0.2164  0.5021 -0.1595
 6365SOL    HW130749   0.276   0.540   5.304 -0.0882  0.0892 -0.1223
 6365SOL    HW230750   0.411   0.530   5.213 -0.0600  1.5422 -0.2564
 6366SOL     OW30751   8.454   3.107   3.401 -1.0503  0.3195 -0.7284
 6366SOL    HW130752   8.433   3.045   3.476  0.9503  0.3957 -0.1038
 6366SOL    HW230753   8.387   3.182   3.401  0.0432  1.3596  2.1548
 6367SOL     OW30754   3.779   8.259   1.575 -0.0896  0.1989  0.3688
 6367SOL    HW130755   3.870   8.218   1.584 -0.0647  0.2587  0.3840
 6367SOL    HW230756   3.744   8.241   1.483 -0.0974  0.1053  0.3901
 6368SOL     OW30757   9.962   2.513   2.449 -0.3401 -0.0668  0.0515
 6368SOL    HW130758   9.983   2.502   2.352 -0.0281 -0.9658  0.2142
 6368SOL    HW230759   9.910   2.435   2.481  1.4786 -0.8634  1.1260
 6369SOL     OW30760   7.935   0.763   5.426 -0.0534 -0.0628  0.7445
 6369SOL    HW130761   7.987   0.779   5.342 -1.2009  0.3957  0.1040
 6369SOL    HW230762   7.958   0.834   5.493  0.1442  0.1376  0.4670
 6370SOL     OW30763   5.717   8.903   3.835 -0.2379 -0.0017  0.4246
 6370SOL    HW130764   5.630   8.906   3.884  0.0037 -1.5078  0.9871
 6370SOL    HW230765   5.706   8.853   3.749 -0.0379  0.1660  0.3023
 6371SOL     OW30766   7.617   2.365   2.729 -0.2736  0.8148 -0.8818
 6371SOL    HW130767   7.705   2.362   2.776 -1.4558 -1.2585  1.2679
 6371SOL    HW230768   7.591   2.461   2.714  1.1215  1.4916  0.7946
 6372SOL     OW30769   9.327   0.637   7.988  0.4546  0.2366  0.5181
 6372SOL    HW130770   9.313   0.735   7.975  0.5925 -0.1933 -3.5000
 6372SOL    HW230771   9.282   0.587   7.914  2.5542 -2.5567  1.0542
 6373SOL     OW30772   0.652   1.511   2.402 -0.4244  0.3030  0.0679
 6373SOL    HW130773   0.680   1.428   2.354  0.3066 -0.8962  2.4866
 6373SOL    HW230774   0.731   1.570   2.416 -0.3133 -0.0897  1.1649
 6374SOL     OW30775   5.971   9.691   5.336 -0.1877 -0.3928 -0.0524
 6374SOL    HW130776   6.063   9.698   5.296  0.5995 -0.1540  1.7399
 6374SOL    HW230777   5.914   9.764   5.299  0.4423 -0.3203 -0.9177
 6375SOL     OW30778   9.966   6.800   1.655  0.2361 -0.3832 -0.1514
 6375SOL    HW130779   9.992   6.897   1.655  1.1181 -0.6105 -1.1085
 6375SOL    HW230780   9.887   6.787   1.595  0.7254 -0.3989 -0.8067
 6376SOL     OW30781   7.389   0.075   5.406 -0.5240  0.1911 -0.5840
 6376SOL    HW130782   7.473   0.122   5.379  0.1678 -0.3228  0.6567
 6376SOL    HW230783   7.314   0.105   5.346  0.5476  0.5710 -1.7667
 6377SOL     OW30784   5.340   0.399   4.170  0.4113 -0.5501  0.4272
 6377SOL    HW130785   5.251   0.444   4.169  0.1553 -1.0455 -0.7136
 6377SOL    HW230786   5.405   0.454   4.222 -0.2045  0.5259  0.0780
 6378SOL     OW30787   2.634   5.085   8.067 -0.5483  0.8407  0.1663
 6378SOL    HW130788   2.700   5.010   8.059  0.4894  1.6885  0.6376
 6378SOL    HW230789   2.547   5.050   8.101 -0.6716 -0.4635 -1.4399
 6379SOL     OW30790   9.016   2.982   5.242 -0.7736  0.4192 -0.1721
 6379SOL    HW130791   8.996   2.936   5.329  2.0739  0.1061  0.3676
 6379SOL    HW230792   9.052   3.073   5.259 -1.4301  0.8683 -1.0969
 6380SOL     OW30793   9.223   5.458   1.914  0.0966  0.1355 -0.2763
 6380SOL    HW130794   9.245   5.372   1.961 -1.3323  0.0473  0.2601
 6380SOL    HW230795   9.164   5.514   1.972 -0.9995  0.4001 -1.6116
 6381SOL     OW30796   9.363   7.605   0.841 -0.3198 -0.1487 -0.5464
 6381SOL    HW130797   9.325   7.527   0.791 -2.1326  1.1476 -1.2499
 6381SOL    HW230798   9.290   7.649   0.893  0.8514  0.6118  0.4553
 6382SOL     OW30799   7.880   1.337   0.194 -0.0645 -0.4185 -0.0450
 6382SOL    HW130800   7.917   1.253   0.235  0.0846 -0.7492 -0.8439
 6382SOL    HW230801   7.783   1.345   0.218 -0.2631 -1.2023 -0.5604
 6383SOL     OW30802   9.074   4.412   3.785  0.6576  0.0834  0.3403
 6383SOL    HW130803   9.072   4.454   3.695 -1.8441 -0.0121  0.3378
 6383SOL    HW230804   9.062   4.313   3.776 -1.4303  0.2638  0.8643
 6384SOL     OW30805   9.346   3.591   1.687  0.6885 -0.0516 -0.3454
 6384SOL    HW130806   9.329   3.682   1.648 -0.3173  0.3491  0.9686
 6384SOL    HW230807   9.346   3.523   1.615  0.2802  0.8515 -1.2094
 6385SOL     OW30808   0.752   8.496   4.919  0.4277 -0.0296 -0.4045
 6385SOL    HW130809   0.784   8.423   4.979  0.4864  1.5302  1.4959
 6385SOL    HW230810   0.828   8.558   4.898  0.1478  0.0528 -1.1863
 6386SOL     OW30811   4.838   9.370   1.951 -0.0511 -0.3406  0.2964
 6386SOL    HW130812   4.819   9.332   1.861 -0.3364 -0.9176  0.5966
 6386SOL    HW230813   4.817   9.468   1.952  1.4715  0.0165 -0.7151
 6387SOL     OW30814   9.480   8.817   8.160  0.2887 -0.3117 -0.0448
 6387SOL    HW130815   9.457   8.744   8.095 -0.5160  0.7351 -0.9652
 6387SOL    HW230816   9.510   8.777   8.246 -0.0347 -1.7283 -0.5747
 6388SOL     OW30817   8.608   2.769   4.169  0.1188  0.5062 -0.0581
 6388SOL    HW130818   8.622   2.749   4.266  2.4156  0.0666 -0.4523
 6388SOL    HW230819   8.643   2.860   4.148  0.0099  0.4324 -0.5703
 6389SOL     OW30820   8.579   6.200   3.357 -0.5487 -0.9010 -0.1199
 6389SOL    HW130821   8.505   6.148   3.313  1.8067 -2.9246 -1.8052
 6389SOL    HW230822   8.654   6.212   3.292 -0.5444  3.7679  0.5640
 6390SOL     OW30823   8.105   4.976   3.703  0.7064 -0.2722 -0.1887
 6390SOL    HW130824   8.028   5.015   3.652  0.6018 -0.3299 -0.0749
 6390SOL    HW230825   8.074   4.898   3.758  0.8544 -0.3232 -0.1764
 6391SOL     OW30826   2.767   8.576   5.452  0.3930  0.6699 -0.2843
 6391SOL    HW130827   2.763   8.511   5.376  1.2841  2.2562 -1.7382
 6391SOL    HW230828   2.849   8.558   5.506  0.7914  0.7492 -0.8540
 6392SOL     OW30829   0.857   5.842   7.036  0.1432 -0.2616  0.0729
 6392SOL    HW130830   0.827   5.802   6.950 -1.3402 -0.2245  0.5539
 6392SOL    HW230831   0.900   5.771   7.093  0.7189 -0.3807 -0.5040
 6393SOL     OW30832   4.978   9.922   1.254 -0.2491 -0.2751 -0.4353
 6393SOL    HW130833   5.058   9.960   1.207  1.8001  0.1593  3.2061
 6393SOL    HW230834   4.962   9.829   1.220 -0.5183  0.9437 -3.8409
 6394SOL     OW30835   7.146   9.517   3.404  0.2811  0.0311 -0.0654
 6394SOL    HW130836   7.241   9.534   3.378  0.0122  0.6475 -0.6439
 6394SOL    HW230837   7.116   9.430   3.364  0.7237 -0.3535  0.4406
 6395SOL     OW30838   5.839   7.780   5.154  0.2322  0.0720 -0.3797
 6395SOL    HW130839   5.897   7.861   5.150 -1.5323  1.4593  1.3575
 6395SOL    HW230840   5.788   7.771   5.069  1.1250  0.2519 -0.9383
 6396SOL     OW30841   8.507   8.573   2.451 -0.3091 -0.3060  0.5832
 6396SOL    HW130842   8.587   8.531   2.407  0.2879 -0.0481  1.3991
 6396SOL    HW230843   8.427   8.516   2.437  0.2554 -1.1346  0.6874
 6397SOL     OW30844   3.996   4.291   6.993 -0.0147  0.1085 -0.3657
 6397SOL    HW130845   3.985   4.293   7.093 -3.0255  2.6510 -0.7012
 6397SOL    HW230846   3.951   4.210   6.956 -1.5320  0.7548  0.0602
 6398SOL     OW30847   5.609   5.397   1.820 -0.2275  0.0167  0.1435
 6398SOL    HW130848   5.577   5.380   1.913 -0.3296  0.1094  0.1251
 6398SOL    HW230849   5.615   5.495   1.804 -1.0886  0.0075 -0.2486
 6399SOL     OW30850   9.001   5.900   6.962 -0.0683 -0.5591 -0.2342
 6399SOL    HW130851   9.001   5.885   6.863  0.4444  5.2324 -1.2711
 6399SOL    HW230852   8.908   5.922   6.993  0.0787 -0.6158  0.2596
 6400SOL     OW30853   2.249   8.215   0.996 -0.1613 -0.1976 -0.5100
 6400SOL    HW130854   2.249   8.130   0.943 -1.3342  0.2494 -1.2595
 6400SOL    HW230855   2.310   8.282   0.952  0.0539 -0.3485 -0.4389
 6401SOL     OW30856   8.891   5.120   4.983  0.6660  0.2543 -0.1225
 6401SOL    HW130857   8.969   5.182   4.977  0.7648  0.3248  1.7025
 6401SOL    HW230858   8.852   5.124   5.075 -0.2409 -1.2994 -0.4227
 6402SOL     OW30859   2.633   4.736   7.127 -0.6245 -0.2012  0.1733
 6402SOL    HW130860   2.651   4.763   7.221 -1.0076  2.9871 -0.6140
 6402SOL    HW230861   2.544   4.691   7.121  0.0216 -1.7173  1.5166
 6403SOL     OW30862   2.810   7.316   6.546 -0.0755  0.2207 -0.1509
 6403SOL    HW130863   2.854   7.253   6.482 -1.3131 -0.6172 -0.1878
 6403SOL    HW230864   2.722   7.279   6.574 -0.5643  1.6718  0.2701
 6404SOL     OW30865   2.561   1.023   4.424  0.0859  0.0862  0.1022
 6404SOL    HW130866   2.576   1.012   4.326 -0.8095  3.1774 -0.4676
 6404SOL    HW230867   2.477   0.975   4.451  0.4657 -0.9659 -0.5763
 6405SOL     OW30868   4.879   6.920   1.045 -0.1568  0.8013  0.3393
 6405SOL    HW130869   4.876   6.957   1.138  2.0468 -0.7033  1.0672
 6405SOL    HW230870   4.971   6.930   1.008 -0.5289 -0.3307 -0.9424
 6406SOL     OW30871   9.253   3.434   3.565  0.1881 -0.3860 -0.1033
 6406SOL    HW130872   9.271   3.531   3.549  0.4678 -0.2726  0.9116
 6406SOL    HW230873   9.169   3.424   3.619  0.6812 -0.6679  0.6164
 6407SOL     OW30874   8.499   8.155   6.327  0.0473 -0.0576 -0.1438
 6407SOL    HW130875   8.576   8.214   6.351 -0.4831 -0.2418  2.1362
 6407SOL    HW230876   8.532   8.079   6.271  1.3195  0.4809 -0.1480
 6408SOL     OW30877   8.595   2.263   4.991 -0.2705  0.0454  0.2542
 6408SOL    HW130878   8.538   2.260   5.073  0.3558  1.7034  0.7700
 6408SOL    HW230879   8.541   2.297   4.914 -0.9145 -1.7020 -0.0900
 6409SOL     OW30880   8.445   8.935   6.944 -0.0644 -0.0292  0.1709
 6409SOL    HW130881   8.508   8.930   7.022 -1.2831 -1.1416  1.1133
 6409SOL    HW230882   8.360   8.978   6.973 -0.6144 -0.6578 -0.5054
 6410SOL     OW30883   8.910   1.376   0.391  0.2847  1.0014 -0.1056
 6410SOL    HW130884   8.997   1.382   0.441 -1.1450  2.0570  2.3550
 6410SOL    HW230885   8.846   1.442   0.429 -1.3365  0.8455 -2.4822
 6411SOL     OW30886   4.216   8.306   7.234  0.0412 -0.1242 -0.0194
 6411SOL    HW130887   4.177   8.381   7.180  0.0590 -1.0309 -1.3130
 6411SOL    HW230888   4.193   8.219   7.191  0.6344 -0.8323  1.0791
 6412SOL     OW30889   8.101   9.330   6.019 -0.2282  0.1087 -0.7471
 6412SOL    HW130890   8.136   9.237   6.030  0.7040  0.4833 -0.4362
 6412SOL    HW230891   8.006   9.334   6.050 -0.3865 -0.8123 -1.0826
 6413SOL     OW30892   4.553   5.818   3.120  0.1201  0.3180  0.4286
 6413SOL    HW130893   4.522   5.913   3.114  0.1732  0.3226  0.2240
 6413SOL    HW230894   4.478   5.761   3.151 -0.4104  0.1705 -1.0733
 6414SOL     OW30895   3.034   1.837   3.383  0.6547  0.2424 -0.2405
 6414SOL    HW130896   2.962   1.899   3.353  0.5691  1.2728  1.9654
 6414SOL    HW230897   3.037   1.757   3.323 -1.9132  0.4854 -0.7448
 6415SOL     OW30898   0.566   1.431   5.900 -0.1603  0.9602  0.2560
 6415SOL    HW130899   0.613   1.509   5.860 -1.2924  1.3136 -0.4257
 6415SOL    HW230900   0.505   1.390   5.832 -0.3229  0.0954  0.9076
 6416SOL     OW30901   8.101   3.292   0.506  0.6394 -0.3029 -0.2795
 6416SOL    HW130902   8.152   3.235   0.570  1.0336 -0.1053 -0.4192
 6416SOL    HW230903   8.034   3.235   0.457 -0.9429 -0.1327  1.6152
 6417SOL     OW30904   9.238   5.285   4.300  0.0025  0.6500 -0.3072
 6417SOL    HW130905   9.317   5.302   4.359  0.6256 -0.5771 -0.8022
 6417SOL    HW230906   9.155   5.319   4.346  0.5527  0.1683  1.0530
 6418SOL     OW30907   1.119   7.662   6.697 -0.3802  0.0682  0.0613
 6418SOL    HW130908   1.184   7.678   6.772 -0.6296 -2.0911  0.7789
 6418SOL    HW230909   1.029   7.640   6.735 -0.2908 -1.9460 -0.8122
 6419SOL     OW30910   2.445   1.999   7.679 -0.5503 -0.3493 -0.1392
 6419SOL    HW130911   2.389   1.972   7.601 -1.3831  0.7112  0.0782
 6419SOL    HW230912   2.396   2.068   7.733  0.9966  0.6338  0.0212
 6420SOL     OW30913   1.922   1.545   2.384 -0.2146  0.4843  0.2443
 6420SOL    HW130914   1.881   1.607   2.451  0.0914 -0.5703  1.4351
 6420SOL    HW230915   1.861   1.467   2.370  0.0540  0.3479 -0.1624
 6421SOL     OW30916   9.718   8.262   2.332  0.0001  0.5337  0.2267
 6421SOL    HW130917   9.775   8.215   2.400 -1.4107 -0.2114  0.9172
 6421SOL    HW230918   9.736   8.223   2.241 -0.6420 -0.8708  0.6872
 6422SOL     OW30919   6.330   1.702   1.070 -0.2721  0.6864 -0.2606
 6422SOL    HW130920   6.402   1.770   1.054  0.2134  0.8158  2.2107
 6422SOL    HW230921   6.366   1.629   1.129 -2.0906  0.6371  0.8247
 6423SOL     OW30922   9.723   5.453   6.970 -0.7628 -0.0716 -0.0356
 6423SOL    HW130923   9.790   5.477   7.041 -1.5636  0.7216  0.4578
 6423SOL    HW230924   9.672   5.535   6.943 -2.1350 -0.8393  0.2049
 6424SOL     OW30925   1.865   2.391   0.498  0.9158 -0.3389  0.1598
 6424SOL    HW130926   1.921   2.473   0.511  1.2222 -0.6945  1.1881
 6424SOL    HW230927   1.910   2.330   0.432  2.3095 -1.0879  1.7343
 6425SOL     OW30928   9.395   3.090   4.248  0.7010  0.3498  0.0534
 6425SOL    HW130929   9.440   3.031   4.316  0.6285  0.1263 -0.0922
 6425SOL    HW230930   9.398   3.046   4.158  1.4620  0.9832 -0.2376
 6426SOL     OW30931   2.233   2.008   2.095  0.1069 -0.2679 -0.1772
 6426SOL    HW130932   2.286   2.048   2.021 -0.5735  0.6432 -0.1851
 6426SOL    HW230933   2.243   2.064   2.177  1.4176 -1.6573  0.6297
 6427SOL     OW30934   2.764   5.429   6.675  0.6454  0.3172 -0.2495
 6427SOL    HW130935   2.716   5.346   6.704 -0.1215  0.9409  0.2808
 6427SOL    HW230936   2.825   5.461   6.748  1.9253 -0.5004 -0.9396
 6428SOL     OW30937   9.403   3.628   5.916 -0.6780  0.0650  0.0143
 6428SOL    HW130938   9.442   3.649   6.005  0.3749 -1.7330 -0.0014
 6428SOL    HW230939   9.476   3.599   5.854 -1.5005  0.6255 -1.2270
 6429SOL     OW30940   9.025   7.841   0.033 -0.2232 -0.5560 -0.3749
 6429SOL    HW130941   8.959   7.800   0.095 -0.5416 -0.4249 -0.6251
 6429SOL    HW230942   9.117   7.813   0.059 -0.2027  1.0121  1.2912
 6430SOL     OW30943   6.548   5.237   1.316 -0.3451  0.6777 -0.1556
 6430SOL    HW130944   6.517   5.283   1.233  0.0983  1.3875  0.0638
 6430SOL    HW230945   6.624   5.288   1.356 -1.6019  1.2785  1.5701
 6431SOL     OW30946   1.388   6.873   3.745  0.3961 -0.2716  0.3107
 6431SOL    HW130947   1.330   6.894   3.824 -0.1415 -0.5760 -0.0053
 6431SOL    HW230948   1.412   6.775   3.747 -1.1212 -0.6805 -0.9020
 6432SOL     OW30949   2.502   4.963   5.844  0.5548  0.2897  0.4374
 6432SOL    HW130950   2.486   4.907   5.925  0.8313  1.5868  1.3899
 6432SOL    HW230951   2.453   5.050   5.852  1.4560  0.8776 -0.3022
 6433SOL     OW30952   1.983   0.045   4.869 -0.1119  0.0093 -0.6420
 6433SOL    HW130953   2.018   0.137   4.887 -2.0981  0.7537 -0.3887
 6433SOL    HW230954   1.913   0.050   4.797  0.5307 -1.4646 -1.3810
 6434SOL     OW30955   0.142   8.134   6.678 -0.4742 -0.0659 -0.0236
 6434SOL    HW130956   0.145   8.112   6.580 -0.9656  0.9719 -0.2732
 6434SOL    HW230957   0.052   8.173   6.700  0.5373  2.1069  0.3268
 6435SOL     OW30958   1.973   9.680   0.780  0.2065 -0.0057  0.7940
 6435SOL    HW130959   1.985   9.765   0.830  0.6844  1.0414 -1.0574
 6435SOL    HW230960   1.893   9.688   0.720  2.2599  0.4619 -1.9877
 6436SOL     OW30961   9.323   0.072   4.281  0.3506 -1.1315  0.0464
 6436SOL    HW130962   9.277  -0.013   4.257  0.7967 -0.9725 -1.4056
 6436SOL    HW230963   9.415   0.052   4.316  0.0216 -1.3053  0.8327
 6437SOL     OW30964   7.891   3.908   0.489 -0.3097 -0.0110  0.5357
 6437SOL    HW130965   7.851   3.887   0.400 -3.2315 -1.0054  2.0304
 6437SOL    HW230966   7.944   3.829   0.521  0.1311  0.0766  0.0397
 6438SOL     OW30967   4.052   0.336   6.890 -0.3406 -0.2465 -0.1950
 6438SOL    HW130968   4.039   0.374   6.798 -0.5675 -0.4286 -0.2374
 6438SOL    HW230969   3.993   0.256   6.901 -1.5087  0.7240  0.6860
 6439SOL     OW30970   9.636   4.833   5.498  0.1769 -0.4278  0.3739
 6439SOL    HW130971   9.683   4.857   5.583  1.4458 -2.4775  0.2687
 6439SOL    HW230972   9.675   4.749   5.461 -0.0132  0.7203 -2.5300
 6440SOL     OW30973   6.855   6.634   4.149  0.2025 -0.0455  0.4244
 6440SOL    HW130974   6.799   6.704   4.192 -2.4991 -0.3254 -2.4849
 6440SOL    HW230975   6.894   6.670   4.064 -0.9444 -1.9012 -0.9384
 6441SOL     OW30976   3.824   8.576   2.853 -0.6852  0.4708  0.1446
 6441SOL    HW130977   3.770   8.502   2.893 -1.3284  1.1275  0.4915
 6441SOL    HW230978   3.907   8.590   2.908 -0.0239 -0.7106 -0.5390
 6442SOL     OW30979   6.213   4.541   0.887  0.2546 -0.0553  0.0605
 6442SOL    HW130980   6.191   4.444   0.876 -1.7255  0.3096  0.5596
 6442SOL    HW230981   6.287   4.566   0.825 -0.7717 -1.3666 -1.7299
 6443SOL     OW30982   2.433   0.813   5.476 -0.5722  0.2465 -0.1238
 6443SOL    HW130983   2.472   0.752   5.545 -0.6526 -0.0640 -0.3525
 6443SOL    HW230984   2.370   0.762   5.417  0.9903  0.0512 -1.6680
 6444SOL     OW30985   8.395   2.130   3.994  0.4106  0.0362 -0.2941
 6444SOL    HW130986   8.347   2.185   4.062  1.3089  1.1925 -0.5748
 6444SOL    HW230987   8.406   2.037   4.028  1.9519  0.9097  1.6897
 6445SOL     OW30988   1.125   7.563   3.784 -0.0377  0.2491  0.2168
 6445SOL    HW130989   1.119   7.505   3.866 -3.1523 -0.1743 -0.2394
 6445SOL    HW230990   1.131   7.505   3.703  1.3379  0.6464  0.0290
 6446SOL     OW30991   1.348   9.984   7.740  0.0736  0.0141 -0.0713
 6446SOL    HW130992   1.365  10.001   7.838  0.1989 -0.9065  0.0724
 6446SOL    HW230993   1.289   9.904   7.730 -0.5436  0.5423 -0.7333
 6447SOL     OW30994   9.835   1.073   0.724 -0.3878 -0.1439 -0.2903
 6447SOL    HW130995   9.848   0.974   0.719 -2.0653 -0.3988  0.0875
 6447SOL    HW230996   9.876   1.108   0.808 -0.6972 -0.6694  0.0810
 6448SOL     OW30997   9.786   0.803   1.857  0.3749  0.1269  0.1536
 6448SOL    HW130998   9.804   0.715   1.901  0.8197  0.2311  0.1808
 6448SOL    HW230999   9.729   0.859   1.918  1.5611  0.5359  0.9003
 6449SOL     OW31000   8.980   9.557   7.376 -0.6916  0.0751 -0.2753
 6449SOL    HW131001   8.968   9.544   7.278 -2.4233 -0.7090  0.0329
 6449SOL    HW231002   8.956   9.473   7.424 -1.7599  1.0853  0.9703
 6450SOL     OW31003   7.839   1.758   6.100  0.0662  0.2008  0.0736
 6450SOL    HW131004   7.889   1.718   6.176  1.5246  1.7736 -0.0359
 6450SOL    HW231005   7.872   1.851   6.083 -2.5013  1.0806 -0.3664
 6451SOL     OW31006   3.689   0.070   4.514  0.0993 -0.3434  0.0705
 6451SOL    HW131007   3.599   0.050   4.474 -0.1610 -0.0215  0.4904
 6451SOL    HW231008   3.761   0.049   4.448 -0.3707  1.1208 -0.9190
 6452SOL     OW31009   0.165   3.787   2.333 -0.7050  0.7325 -0.2869
 6452SOL    HW131010   0.142   3.756   2.241 -2.5145  0.3056  0.2841
 6452SOL    HW231011   0.128   3.879   2.347 -0.4843  0.7726  0.0362
 6453SOL     OW31012   9.523   8.634   6.043 -0.3503 -0.1725  0.5248
 6453SOL    HW131013   9.543   8.567   6.114 -1.4887 -1.3659 -0.2632
 6453SOL    HW231014   9.470   8.709   6.083 -0.3573 -0.4716  1.0934
 6454SOL     OW31015   6.542   1.926   7.925  0.0513  0.3033  0.5834
 6454SOL    HW131016   6.516   2.003   7.983  1.4386  1.7691 -0.7033
 6454SOL    HW231017   6.463   1.896   7.872  0.0901  2.4897 -0.7761
 6455SOL     OW31018   8.773   6.445   4.173  0.5652 -0.9826  0.7928
 6455SOL    HW131019   8.680   6.436   4.207  0.7752  1.0927  1.9871
 6455SOL    HW231020   8.821   6.358   4.183 -1.6875 -2.5186 -1.3042
 6456SOL     OW31021   3.639   9.945   0.894  0.4907 -0.2865  0.0616
 6456SOL    HW131022   3.664   9.975   0.802  1.1686 -0.1203  0.2985
 6456SOL    HW231023   3.605  10.023   0.946 -0.7647 -0.5536 -0.3312
 6457SOL     OW31024   1.827   8.766   6.725 -0.3325  0.3973  0.2144
 6457SOL    HW131025   1.914   8.749   6.679  0.2295 -3.1544  2.3947
 6457SOL    HW231026   1.820   8.863   6.749  3.2254  0.6823  0.3307
 6458SOL     OW31027   8.693   4.227   3.470  0.3029 -0.1006 -0.2827
 6458SOL    HW131028   8.665   4.236   3.566 -0.4462 -0.5282 -0.4569
 6458SOL    HW231029   8.712   4.130   3.451  0.7096  0.0212 -0.4975
 6459SOL     OW31030   2.003   6.593   1.153  0.7350 -0.2382 -0.3886
 6459SOL    HW131031   1.939   6.644   1.210  1.7643  0.2623  0.3417
 6459SOL    HW231032   1.965   6.503   1.133 -1.2059  0.8557 -1.8782
 6460SOL     OW31033   8.366   7.172   2.236  0.1346 -0.2543 -0.0250
 6460SOL    HW131034   8.429   7.096   2.248  0.6943  0.4715  1.8729
 6460SOL    HW231035   8.329   7.198   2.325 -2.1284 -0.0606 -1.0004
 6461SOL     OW31036   1.646   1.790   0.820  0.0548  0.0972  0.1519
 6461SOL    HW131037   1.581   1.753   0.886  0.2212 -1.0629 -0.3334
 6461SOL    HW231038   1.673   1.719   0.755  0.9947  0.8514 -0.3001
 6462SOL     OW31039   7.002   8.835   6.057  0.4125 -0.2109  0.2932
 6462SOL    HW131040   6.945   8.760   6.090  0.5447 -0.7197 -0.5991
 6462SOL    HW231041   7.092   8.829   6.099  0.9775 -1.5795 -1.0388
 6463SOL     OW31042   9.788   2.565   8.165  0.6452  0.0186 -0.6804
 6463SOL    HW131043   9.782   2.472   8.128  0.0720  0.1649 -0.9505
 6463SOL    HW231044   9.783   2.561   8.265 -1.6413 -0.0535 -0.7799
 6464SOL     OW31045   6.040   8.528   6.081 -0.0692  0.3340  0.1650
 6464SOL    HW131046   6.139   8.542   6.075  0.1976 -1.9787 -1.1140
 6464SOL    HW231047   6.018   8.434   6.058 -2.6237  0.8970  0.1859
 6465SOL     OW31048   4.123   3.894   3.096 -0.3320  0.0784  0.8323
 6465SOL    HW131049   4.161   3.951   3.169 -0.4927 -1.4417  2.1474
 6465SOL    HW231050   4.023   3.898   3.099 -0.3581 -0.7754  1.3652
 6466SOL     OW31051   3.498   1.674   7.235  0.4540  0.0409  0.1700
 6466SOL    HW131052   3.485   1.685   7.136  0.7808 -0.7561  0.0304
 6466SOL    HW231053   3.409   1.662   7.279  0.2649  0.9671  0.0506
 6467SOL     OW31054   9.707   7.114   6.009 -0.1994 -0.1909 -0.2271
 6467SOL    HW131055   9.774   7.133   6.081 -0.5175 -1.9207  0.5724
 6467SOL    HW231056   9.635   7.183   6.012 -0.3535 -0.3964  1.3144
 6468SOL     OW31057   3.372   4.310   6.718  0.0447  0.0472 -0.0564
 6468SOL    HW131058   3.385   4.405   6.748  0.8857  0.5658 -1.9431
 6468SOL    HW231059   3.441   4.287   6.649  0.0109 -2.0375  0.5685
 6469SOL     OW31060   8.836   0.755   6.782  0.1264 -0.1955 -0.2404
 6469SOL    HW131061   8.868   0.830   6.839  1.0914 -0.2356 -0.7135
 6469SOL    HW231062   8.750   0.780   6.737 -0.5434 -0.0967  1.0755
 6470SOL     OW31063   9.887   0.031   1.352 -0.0113 -0.0484  0.1281
 6470SOL    HW131064   9.875   0.010   1.255  0.1004 -2.9212  0.7048
 6470SOL    HW231065   9.841  -0.038   1.408  0.0862  1.4599  2.1392
 6471SOL     OW31066   9.309   9.952   2.031  0.2445  0.0480 -0.1931
 6471SOL    HW131067   9.217   9.990   2.038  0.9135  1.5975  0.2913
 6471SOL    HW231068   9.359   9.969   2.115 -0.2015 -4.0280  0.9804
 6472SOL     OW31069   2.006   6.577   2.353 -0.6848  0.3083  0.4338
 6472SOL    HW131070   2.077   6.587   2.284 -0.8242 -1.0663  0.0765
 6472SOL    HW231071   1.999   6.662   2.406  0.5581  0.7869 -0.1429
 6473SOL     OW31072   1.126   5.392   3.849  0.5784 -0.4376 -0.1735
 6473SOL    HW131073   1.180   5.474   3.836 -0.1246  0.1409  0.4823
 6473SOL    HW231074   1.110   5.378   3.947  1.2311 -1.7024 -0.2440
 6474SOL     OW31075   8.230   1.241   6.017  0.6157 -0.0139 -0.2449
 6474SOL    HW131076   8.235   1.143   6.038 -0.1317  0.2238  1.1437
 6474SOL    HW231077   8.214   1.254   5.919  1.9965 -1.2419 -0.6459
 6475SOL     OW31078   8.793   7.298   5.553  0.8086  0.4650  1.3192
 6475SOL    HW131079   8.711   7.249   5.584  0.4445  0.2649  0.0526
 6475SOL    HW231080   8.778   7.396   5.565 -0.7235  0.6179 -1.4375
 6476SOL     OW31081   8.222   4.773   3.532 -0.4848  0.7334  0.0108
 6476SOL    HW131082   8.304   4.718   3.548  0.1013  1.3866 -0.6868
 6476SOL    HW231083   8.193   4.815   3.617  0.3026  1.0358  0.1338
 6477SOL     OW31084   3.804   2.697   1.879 -0.1753  0.8038  0.4679
 6477SOL    HW131085   3.824   2.709   1.781  0.1850  1.6585  0.6471
 6477SOL    HW231086   3.705   2.686   1.890 -0.3600  1.9760  0.1210
 6478SOL     OW31087   9.810   1.527   7.618  0.1619  0.8995  0.3531
 6478SOL    HW131088   9.799   1.501   7.523  1.6512 -0.5310  0.5545
 6478SOL    HW231089   9.906   1.551   7.636 -0.2554  1.9412  1.2998
 6479SOL     OW31090   1.798   7.513   2.834  0.2552 -0.1524 -0.1892
 6479SOL    HW131091   1.745   7.429   2.823  0.6112 -0.3933 -0.0716
 6479SOL    HW231092   1.882   7.493   2.884 -1.1399  0.8411  2.6704
 6480SOL     OW31093   9.061   3.016   3.660  0.1928 -0.1185  0.0569
 6480SOL    HW131094   9.041   3.048   3.752  0.1499 -0.9457  0.3440
 6480SOL    HW231095   9.158   3.031   3.640  0.5568 -1.3380  0.8269
 6481SOL     OW31096   3.441   6.906   4.428  0.6475 -0.2162  0.3499
 6481SOL    HW131097   3.399   6.815   4.434 -2.1258  0.9171 -0.9555
 6481SOL    HW231098   3.472   6.921   4.334 -2.2501  1.5478 -0.3849
 6482SOL     OW31099   8.265   9.559   6.677  0.4368 -0.0680 -0.1757
 6482SOL    HW131100   8.299   9.604   6.595  0.8381 -1.1346 -0.6064
 6482SOL    HW231101   8.178   9.600   6.704  0.3165  0.3112 -1.1282
 6483SOL     OW31102   3.126   4.870   6.821  0.5075  0.6572  0.2280
 6483SOL    HW131103   3.038   4.917   6.831  0.1576  0.2579 -0.8619
 6483SOL    HW231104   3.114   4.790   6.762  1.1987 -0.5230  1.6647
 6484SOL     OW31105   7.243   1.200   4.239 -0.0115 -0.1472  0.3518
 6484SOL    HW131106   7.178   1.261   4.284 -2.8219 -1.9741 -1.0725
 6484SOL    HW231107   7.289   1.247   4.164  0.0721  1.0519  1.1515
 6485SOL     OW31108   8.305   1.695   4.328  0.2133  0.3683 -0.0230
 6485SOL    HW131109   8.345   1.629   4.392 -0.2840  1.3561  1.3492
 6485SOL    HW231110   8.206   1.682   4.324  0.2306  0.3925 -0.4838
 6486SOL     OW31111   2.542   6.782   3.960  0.2696  0.0058  0.5400
 6486SOL    HW131112   2.633   6.761   3.923  0.1633  0.2740  0.1266
 6486SOL    HW231113   2.532   6.881   3.970 -0.3824  0.0588 -0.4767
 6487SOL     OW31114   3.618   3.748   5.432  0.2965  0.3635 -0.1963
 6487SOL    HW131115   3.559   3.800   5.494 -1.5772 -1.5502 -0.2889
 6487SOL    HW231116   3.623   3.794   5.343 -1.4705  0.3307 -0.3314
 6488SOL     OW31117   7.841   6.302   2.766  0.3920 -0.6813  0.2886
 6488SOL    HW131118   7.749   6.268   2.748  0.4034 -0.1103 -0.8285
 6488SOL    HW231119   7.882   6.335   2.681  0.2399  2.5312  1.3965
 6489SOL     OW31120   4.759   0.821   8.043  0.4445  0.6482 -0.3564
 6489SOL    HW131121   4.804   0.784   7.962  2.5147  0.4826  0.8324
 6489SOL    HW231122   4.678   0.872   8.016 -0.5114 -1.8076 -2.2918
 6490SOL     OW31123   2.701   8.568   2.612  0.1756 -1.0875 -0.0485
 6490SOL    HW131124   2.792   8.590   2.648  0.2646 -0.2834 -0.7567
 6490SOL    HW231125   2.678   8.631   2.538 -0.6217 -1.7980 -0.4184
 6491SOL     OW31126   8.205   6.268   4.465  0.2237 -0.4285 -0.4819
 6491SOL    HW131127   8.116   6.295   4.500 -0.1189  0.5896 -2.0527
 6491SOL    HW231128   8.246   6.200   4.525 -0.3738  1.1678  1.7753
 6492SOL     OW31129   3.143   8.929   6.254  0.2958 -0.0646  0.2419
 6492SOL    HW131130   3.160   8.913   6.351 -0.8994  0.3995  0.5348
 6492SOL    HW231131   3.172   8.849   6.202  2.0600  0.1640  0.8535
 6493SOL     OW31132   7.441   0.404   5.493 -0.2600 -0.3647  0.1148
 6493SOL    HW131133   7.489   0.331   5.446 -0.7026 -1.1223  0.8293
 6493SOL    HW231134   7.344   0.400   5.469  0.0093  1.1581 -1.3271
 6494SOL     OW31135   3.529   1.494   4.201  0.4791  0.0687 -0.2991
 6494SOL    HW131136   3.431   1.511   4.194 -0.1910 -2.8621  0.9747
 6494SOL    HW231137   3.551   1.408   4.155  1.9672 -0.7251  1.8159
 6495SOL     OW31138   2.101   5.963   5.867 -0.1102 -0.3019  0.3327
 6495SOL    HW131139   2.167   6.017   5.815 -0.5689 -0.1937 -0.1314
 6495SOL    HW231140   2.124   5.969   5.965  0.3990 -0.0346  0.2002
 6496SOL     OW31141   3.084   0.301   6.152  0.2071 -0.1396 -0.3214
 6496SOL    HW131142   3.156   0.370   6.157 -0.2904  0.3878 -0.3981
 6496SOL    HW231143   3.121   0.217   6.113  0.9733 -0.1262  0.3606
 6497SOL     OW31144   3.316   6.098   0.751 -0.3847  0.1169  0.3932
 6497SOL    HW131145   3.295   6.066   0.658 -1.0931  0.4586  0.4350
 6497SOL    HW231146   3.233   6.133   0.794  0.0037  0.2399  1.0498
 6498SOL     OW31147   9.484   0.571   7.677 -0.1262  0.0946  0.5489
 6498SOL    HW131148   9.468   0.540   7.770  2.8731 -1.2038  0.7027
 6498SOL    HW231149   9.569   0.624   7.674 -0.5684  0.7248 -1.3090
 6499SOL     OW31150   3.848   7.949   2.672 -0.0681 -0.1242  0.0245
 6499SOL    HW131151   3.854   7.913   2.579 -0.3464 -0.9164  0.3111
 6499SOL    HW231152   3.912   8.025   2.682 -0.5187  0.4113 -1.0111
 6500SOL     OW31153   9.266   2.287   3.105  0.2698 -0.1526 -0.3102
 6500SOL    HW131154   9.260   2.294   3.204  0.2678  1.1813 -0.3962
 6500SOL    HW231155   9.356   2.250   3.080  0.5168  0.1275  0.1570
 6501SOL     OW31156   8.635   1.499   7.486 -0.1932  0.2508 -0.2553
 6501SOL    HW131157   8.602   1.523   7.395  0.7994  1.7622 -0.2332
 6501SOL    HW231158   8.683   1.411   7.482  2.4333  1.6943 -1.8213
 6502SOL     OW31159   5.340   9.337   6.077 -0.2054  0.1592  0.0729
 6502SOL    HW131160   5.401   9.324   6.154  0.8178  0.9344 -0.5938
 6502SOL    HW231161   5.268   9.402   6.101  0.0651  0.3352  0.3995
 6503SOL     OW31162   3.466   5.611   4.164  0.0554 -0.7408  0.2666
 6503SOL    HW131163   3.520   5.603   4.080  0.0044  0.7192  0.0788
 6503SOL    HW231164   3.454   5.521   4.205  0.5943 -1.3842 -0.9753
 6504SOL     OW31165   1.077   0.528   7.483  0.3486 -0.2053 -0.7245
 6504SOL    HW131166   1.172   0.546   7.507 -0.4679  1.6672  1.3746
 6504SOL    HW231167   1.046   0.598   7.418  0.0936 -0.1612 -0.5545
 6505SOL     OW31168   3.132   7.651   1.899 -0.5041 -0.2878 -0.3798
 6505SOL    HW131169   3.184   7.699   1.970  0.9517 -0.8262 -1.0542
 6505SOL    HW231170   3.036   7.678   1.904  0.2060  2.4172 -0.5002
 6506SOL     OW31171   4.985   0.303   3.177  0.1846 -0.0904 -0.6558
 6506SOL    HW131172   4.887   0.283   3.186  0.4058 -0.9944 -0.2497
 6506SOL    HW231173   5.023   0.326   3.267  0.5392 -0.6460 -0.6595
 6507SOL     OW31174   3.261   0.600   2.771  0.4325  0.5720  0.3286
 6507SOL    HW131175   3.176   0.652   2.776 -1.1077 -1.6505 -1.4498
 6507SOL    HW231176   3.302   0.612   2.680  0.6578 -0.3902  0.2960
 6508SOL     OW31177   1.980   2.296   0.164  0.2297  0.7488 -0.2000
 6508SOL    HW131178   2.051   2.295   0.235  0.1305 -0.6328 -0.1092
 6508SOL    HW231179   1.925   2.212   0.171  0.5776  0.3258 -2.2784
 6509SOL     OW31180   3.170   3.138   6.883 -0.0030 -0.1124 -0.3949
 6509SOL    HW131181   3.109   3.136   6.963 -0.4465  0.4912 -0.7107
 6509SOL    HW231182   3.241   3.069   6.894  0.6252  0.7203  1.0816
 6510SOL     OW31183   1.097   4.940   1.518 -0.8413 -0.3787 -0.5206
 6510SOL    HW131184   1.084   4.934   1.617 -2.5510 -1.3421 -0.7854
 6510SOL    HW231185   1.164   5.011   1.498  1.1553 -1.6195  1.4453
 6511SOL     OW31186   3.113   6.638   3.103  0.1467 -0.6516 -0.0433
 6511SOL    HW131187   3.044   6.693   3.151 -0.1768 -1.9655  1.0451
 6511SOL    HW231188   3.111   6.660   3.005 -3.1309 -1.9472 -0.3457
 6512SOL     OW31189   1.043   0.585   1.192  0.2059  0.4181  0.1509
 6512SOL    HW131190   1.092   0.537   1.265  0.2474  0.6208  0.2558
 6512SOL    HW231191   0.954   0.542   1.178  1.1177 -1.0859 -1.2604
 6513SOL     OW31192   3.596   2.688   6.804 -0.2398  0.0225 -0.2024
 6513SOL    HW131193   3.503   2.657   6.823  1.0005 -2.0169  2.9070
 6513SOL    HW231194   3.632   2.638   6.725 -1.8014  0.9659 -1.5499
 6514SOL     OW31195   5.902   9.140   3.594 -0.0222  0.5373 -0.7073
 6514SOL    HW131196   5.896   9.043   3.570 -0.5165  0.6789 -1.1660
 6514SOL    HW231197   5.990   9.158   3.637  1.0424  0.3659 -2.7678
 6515SOL     OW31198   2.113   2.594   4.756 -0.0697  0.1112  0.2965
 6515SOL    HW131199   2.182   2.525   4.732  0.1510 -0.2254  1.8549
 6515SOL    HW231200   2.156   2.685   4.757 -0.6024  0.4612 -2.8481
 6516SOL     OW31201   0.503   2.982   4.595  0.0661 -0.6397 -0.4709
 6516SOL    HW131202   0.444   3.058   4.621 -0.0314 -0.7304 -0.4259
 6516SOL    HW231203   0.519   2.985   4.496  0.1473 -0.5010 -0.4545
 6517SOL     OW31204   0.211   2.305   4.482  0.2292  0.1443 -0.3451
 6517SOL    HW131205   0.155   2.370   4.532  1.3666 -0.0560  1.2173
 6517SOL    HW231206   0.284   2.353   4.433  1.4593  0.0193  1.3249
 6518SOL     OW31207   9.722   3.930   5.757 -0.3085  0.0342 -0.3129
 6518SOL    HW131208   9.800   3.906   5.699  1.1869  0.8904  1.2937
 6518SOL    HW231209   9.688   4.020   5.732 -0.6973 -0.2768 -0.9164
 6519SOL     OW31210   7.434   3.153   5.712 -0.0697 -0.1901 -0.2532
 6519SOL    HW131211   7.461   3.197   5.798 -0.8940 -0.6096  0.2237
 6519SOL    HW231212   7.457   3.213   5.635  1.5479 -0.2205  0.1823
 6520SOL     OW31213   4.657   3.961   0.958  0.0748  0.1036  0.2615
 6520SOL    HW131214   4.723   4.035   0.941 -0.2078  0.4698  0.7358
 6520SOL    HW231215   4.610   3.978   1.045  0.0662 -0.6791  0.4174
 6521SOL     OW31216   0.702   6.863   3.242 -0.0119 -0.5491 -0.0471
 6521SOL    HW131217   0.750   6.781   3.270 -1.5240 -0.6680  2.3096
 6521SOL    HW231218   0.603   6.851   3.255 -0.4184  0.9316 -1.5012
 6522SOL     OW31219   6.463   7.872   4.602 -0.7676  0.1775  0.5853
 6522SOL    HW131220   6.392   7.936   4.574 -1.4649 -1.5266 -1.7108
 6522SOL    HW231221   6.477   7.804   4.530  2.0442 -0.5052  1.6951
 6523SOL     OW31222   8.363   1.202   6.477  0.2238  0.4348 -0.9979
 6523SOL    HW131223   8.326   1.157   6.558  1.1173  1.1486 -0.1797
 6523SOL    HW231224   8.309   1.177   6.397 -0.5097 -0.4778 -0.2232
 6524SOL     OW31225   9.902   5.190   2.803  0.1818 -0.2065  0.1225
 6524SOL    HW131226   9.826   5.150   2.752  2.5318 -3.0476 -1.3035
 6524SOL    HW231227   9.928   5.277   2.760 -2.9093  1.3671  1.3167
 6525SOL     OW31228   9.941   8.317   1.045 -0.1351 -0.5835 -0.0399
 6525SOL    HW131229   9.860   8.343   1.097 -0.3494  1.0329 -1.1205
 6525SOL    HW231230   9.929   8.345   0.949  0.0804 -3.8059 -1.0695
 6526SOL     OW31231   3.906   7.407   4.763  0.5755 -0.3215  0.2164
 6526SOL    HW131232   3.827   7.449   4.807  0.2511 -1.1842  0.4620
 6526SOL    HW231233   3.940   7.332   4.820 -0.0249 -1.6328 -1.1104
 6527SOL     OW31234   9.120   5.185   1.788  0.0347 -0.2136 -0.4482
 6527SOL    HW131235   9.023   5.162   1.779  0.0506 -0.0800 -0.9483
 6527SOL    HW231236   9.170   5.147   1.711  0.0618  1.5302 -1.2909
 6528SOL     OW31237   1.086   8.215   1.393 -0.2307 -0.3178  0.2305
 6528SOL    HW131238   0.993   8.244   1.370 -0.2904  1.0418  2.0852
 6528SOL    HW231239   1.103   8.125   1.354 -1.3102  0.6521 -2.6277
 6529SOL     OW31240   8.465   6.049   1.188 -0.0025  0.1121  0.3435
 6529SOL    HW131241   8.461   6.110   1.108  1.3396 -0.0721  0.1303
 6529SOL    HW231242   8.456   6.103   1.271  1.5584  0.6435  0.1667
 6530SOL     OW31243   1.910   0.802   7.997  0.3773 -0.0795 -0.1031
 6530SOL    HW131244   1.833   0.781   7.936  1.9822 -2.2909 -1.4473
 6530SOL    HW231245   1.878   0.856   8.074 -2.1362  0.8578 -1.7355
 6531SOL     OW31246   5.022   2.001   0.552 -0.0184 -0.5083  0.1266
 6531SOL    HW131247   4.927   1.978   0.576 -0.4640  1.9455  0.8722
 6531SOL    HW231248   5.082   1.978   0.629 -0.3937  0.3572  0.6876
 6532SOL     OW31249   3.238   1.204   5.015 -0.1792  1.0136  0.6095
 6532SOL    HW131250   3.293   1.255   4.949 -0.7295 -0.4431 -1.0132
 6532SOL    HW231251   3.284   1.117   5.036 -1.0320  0.5489  0.5610
 6533SOL     OW31252   7.876   5.041   1.721 -0.5737  0.5966 -0.6163
 6533SOL    HW131253   7.852   5.031   1.624  2.2859  0.5544 -1.3656
 6533SOL    HW231254   7.952   5.105   1.731  0.6131 -1.0263  1.3692
 6534SOL     OW31255   3.326   5.582   3.197 -0.1303 -0.2136  0.6569
 6534SOL    HW131256   3.342   5.680   3.204  0.2436 -0.3481  1.9126
 6534SOL    HW231257   3.283   5.549   3.281 -0.6546 -1.0530  0.0767
 6535SOL     OW31258   6.939   3.191   3.320 -0.7669  0.1270  0.2886
 6535SOL    HW131259   6.984   3.113   3.276 -2.5083 -0.9513  0.3897
 6535SOL    HW231260   6.993   3.274   3.303  1.0040 -1.0483  0.0177
 6536SOL     OW31261   1.872   7.540   0.681  0.1718  0.1283 -0.1094
 6536SOL    HW131262   1.923   7.471   0.732 -0.8902  0.0411  0.8720
 6536SOL    HW231263   1.866   7.624   0.735 -0.0440  0.3967 -0.5452
 6537SOL     OW31264   6.213   0.299   3.214  0.0246  0.6686  0.1074
 6537SOL    HW131265   6.242   0.212   3.176 -1.1609 -0.0329  0.7491
 6537SOL    HW231266   6.179   0.358   3.141 -4.9229 -1.7230  0.2563
 6538SOL     OW31267   8.627   1.818   4.899 -0.0285  0.2516  0.2365
 6538SOL    HW131268   8.649   1.907   4.939  1.3867 -0.4350  1.0124
 6538SOL    HW231269   8.612   1.829   4.801  2.0295  1.0398 -0.0099
 6539SOL     OW31270   4.539   8.612   7.213 -0.0112  0.0582  0.3525
 6539SOL    HW131271   4.587   8.552   7.277  3.2546  1.7845 -0.3536
 6539SOL    HW231272   4.530   8.703   7.253  0.4535  0.6691 -0.9010
 6540SOL     OW31273   2.217   3.191   0.899 -0.4463  0.0608 -0.0056
 6540SOL    HW131274   2.124   3.192   0.863 -0.1785 -0.2635 -0.7040
 6540SOL    HW231275   2.214   3.186   0.999 -1.1843  1.1704  0.0324
 6541SOL     OW31276   9.680   8.517   2.376  0.2454 -0.0008  0.5818
 6541SOL    HW131277   9.715   8.424   2.363 -2.7982 -1.4272  2.0840
 6541SOL    HW231278   9.739   8.566   2.441  1.0775 -1.3521  0.8688
 6542SOL     OW31279   9.974   4.650   1.737 -0.8389  0.5175  0.2774
 6542SOL    HW131280  10.032   4.624   1.660  1.2247  2.1380  1.2632
 6542SOL    HW231281   9.944   4.745   1.725 -1.7513  0.2916  0.7305
 6543SOL     OW31282   7.532   1.023   1.131  0.1952 -0.1432  0.3417
 6543SOL    HW131283   7.475   1.104   1.117  0.8888  0.6035  1.7945
 6543SOL    HW231284   7.625   1.042   1.100  0.5958 -0.0597  1.5998
 6544SOL     OW31285   3.607   0.593   3.511  0.1260 -0.6138  1.1476
 6544SOL    HW131286   3.532   0.617   3.572 -0.8376 -0.7799  0.0484
 6544SOL    HW231287   3.596   0.499   3.479 -0.1408 -0.0701 -0.3709
 6545SOL     OW31288   2.434   6.730   2.606 -0.2359  0.1683 -0.1567
 6545SOL    HW131289   2.418   6.634   2.584 -0.1063 -0.4587  2.2681
 6545SOL    HW231290   2.358   6.786   2.573 -1.0966 -0.9927 -0.1494
 6546SOL     OW31291   7.524   3.768   1.274 -0.1391 -0.3091 -0.0894
 6546SOL    HW131292   7.481   3.842   1.222 -0.1269 -0.0662  0.2458
 6546SOL    HW231293   7.511   3.681   1.225 -4.9968 -1.0217  2.1446
 6547SOL     OW31294   0.039   7.286   6.521  0.7797 -0.3980 -0.3481
 6547SOL    HW131295   0.045   7.260   6.618 -1.8997 -1.2501 -0.3765
 6547SOL    HW231296  -0.029   7.359   6.510  0.9223 -0.4487 -1.6169
 6548SOL     OW31297   0.872   4.857   0.691 -0.1894 -0.0848 -0.0820
 6548SOL    HW131298   0.953   4.900   0.652 -1.1188  1.1698 -0.6814
 6548SOL    HW231299   0.805   4.928   0.714 -0.1161 -0.9057  2.7571
 6549SOL     OW31300   2.923   5.126   6.609  0.1362  0.0272 -0.2793
 6549SOL    HW131301   2.867   5.193   6.561  0.4268  0.6180  0.1998
 6549SOL    HW231302   2.891   5.033   6.586 -0.2772  0.3252 -0.9236
 6550SOL     OW31303   9.028   9.679   3.651 -0.2247  0.5478 -0.1803
 6550SOL    HW131304   9.060   9.754   3.593  0.3397 -1.3127 -2.3490
 6550SOL    HW231305   9.101   9.653   3.715  0.6145 -0.0102 -1.3477
 6551SOL     OW31306   1.086   9.234   3.499 -0.2711  0.1531 -0.2501
 6551SOL    HW131307   1.082   9.334   3.508 -1.0149  0.1467 -0.4486
 6551SOL    HW231308   1.024   9.205   3.426  0.6204 -0.3782 -0.7953
 6552SOL     OW31309   3.462   8.956   1.675  0.6321  0.5565  0.1309
 6552SOL    HW131310   3.472   8.963   1.575  1.9384 -0.7172  0.1637
 6552SOL    HW231311   3.484   8.863   1.705 -1.6199  0.3900  1.4154
 6553SOL     OW31312   5.544   2.293   0.868 -0.6121 -0.3020  0.1532
 6553SOL    HW131313   5.642   2.303   0.848 -0.4926  1.0424  1.2901
 6553SOL    HW231314   5.504   2.384   0.882 -2.0679 -0.8313 -0.4780
 6554SOL     OW31315   1.616   5.197   0.246  0.0059  0.3126 -0.0963
 6554SOL    HW131316   1.709   5.164   0.235  0.1126  0.6976 -0.3840
 6554SOL    HW231317   1.573   5.205   0.156 -0.6928 -0.9597  0.1087
 6555SOL     OW31318   7.218   6.453   4.679  0.0323 -0.1722 -0.0175
 6555SOL    HW131319   7.179   6.362   4.666  0.3240 -0.1761 -0.9448
 6555SOL    HW231320   7.264   6.482   4.594  0.7022  0.4666  0.5539
 6556SOL     OW31321   3.708   3.372   3.775  0.8506 -0.1952  0.4439
 6556SOL    HW131322   3.763   3.405   3.852  0.4279  0.0245  0.6504
 6556SOL    HW231323   3.663   3.449   3.730 -0.9183 -0.5757  1.5268
 6557SOL     OW31324   7.792   7.361   4.319 -0.1736 -0.2860  0.0542
 6557SOL    HW131325   7.865   7.349   4.252  0.2264  1.5541  0.1142
 6557SOL    HW231326   7.732   7.281   4.318  2.9976 -2.7557  1.5052
 6558SOL     OW31327   7.075   0.122   0.958  0.4542  0.6414 -0.2142
 6558SOL    HW131328   6.989   0.079   0.988  0.5271  0.6219 -0.0344
 6558SOL    HW231329   7.061   0.164   0.868  0.0931  1.1412  0.0671
 6559SOL     OW31330   8.927   8.464   7.496 -0.0372 -0.3663  0.0229
 6559SOL    HW131331   8.860   8.502   7.560  1.3050 -0.3768  1.4660
 6559SOL    HW231332   9.014   8.511   7.508  0.6361 -1.3988 -0.7645
 6560SOL     OW31333   8.560   4.186   2.950 -0.2181  0.1059 -0.3397
 6560SOL    HW131334   8.600   4.257   2.893 -0.1675  0.5121  0.2021
 6560SOL    HW231335   8.481   4.222   2.999  0.3639  0.0699  0.6599
 6561SOL     OW31336   5.053   1.278   3.046 -0.5707 -0.3107 -0.4474
 6561SOL    HW131337   5.117   1.352   3.028  1.2391 -2.1287 -1.6944
 6561SOL    HW231338   4.974   1.287   2.985  0.1989 -0.0894 -1.4183
 6562SOL     OW31339   9.324   6.201   8.104  0.0509  0.3133 -0.6536
 6562SOL    HW131340   9.345   6.252   8.187  0.8552 -1.4959  0.2801
 6562SOL    HW231341   9.400   6.139   8.083 -1.5150 -1.5597 -0.9253
 6563SOL     OW31342   1.716   0.404   0.811 -0.2945  0.1202 -0.6217
 6563SOL    HW131343   1.777   0.481   0.795  1.0614 -0.5813  0.9731
 6563SOL    HW231344   1.702   0.354   0.726  1.8005 -0.0142 -0.9175
 6564SOL     OW31345   1.589   4.862   5.539  0.3298 -0.2700  0.3355
 6564SOL    HW131346   1.546   4.871   5.628 -0.6620 -2.2967  0.0828
 6564SOL    HW231347   1.686   4.885   5.546 -0.0984  1.2208  1.5585
 6565SOL     OW31348   8.978   0.626   5.125 -0.2578 -0.0547  0.0435
 6565SOL    HW131349   9.047   0.687   5.164 -0.3051 -0.1579  0.2928
 6565SOL    HW231350   8.981   0.538   5.173 -0.1449 -0.2702 -0.3592
 6566SOL     OW31351   9.004   8.451   1.351  0.4121 -0.2746 -0.1051
 6566SOL    HW131352   8.967   8.366   1.313 -1.6757 -0.1744  1.5880
 6566SOL    HW231353   9.090   8.432   1.398 -0.4092 -1.6479  0.9133
 6567SOL     OW31354   0.647   6.898   3.565 -0.6439 -0.4133  0.1164
 6567SOL    HW131355   0.596   6.984   3.568  0.2554  0.1532 -0.7577
 6567SOL    HW231356   0.666   6.873   3.470 -0.2653 -1.2043  0.3937
 6568SOL     OW31357   4.442   8.207   2.720 -0.5615  0.2605 -0.3373
 6568SOL    HW131358   4.529   8.162   2.701  0.5249  1.6831  1.1569
 6568SOL    HW231359   4.407   8.178   2.808 -0.7319  0.9800 -0.1581
 6569SOL     OW31360   7.776   6.677   5.778  0.4314 -1.0831 -0.0148
 6569SOL    HW131361   7.749   6.681   5.875 -1.5942 -2.6904 -0.4898
 6569SOL    HW231362   7.849   6.610   5.767  1.5769  0.0223  0.5594
 6570SOL     OW31363   9.502   5.942   0.948  0.4218 -0.6474  0.0128
 6570SOL    HW131364   9.596   5.924   0.978  0.1900 -2.7094 -0.4603
 6570SOL    HW231365   9.497   6.034   0.908  2.1858 -0.4433  0.2220
 6571SOL     OW31366   4.391   7.471   5.358 -0.0146 -0.7596  0.6483
 6571SOL    HW131367   4.455   7.436   5.290  0.9864 -0.3615  1.3848
 6571SOL    HW231368   4.362   7.397   5.418 -2.5558 -1.5888 -1.4884
 6572SOL     OW31369   6.145   5.515   7.799  0.0058 -0.0097  0.2938
 6572SOL    HW131370   6.231   5.506   7.850  1.4386  0.3095 -1.9955
 6572SOL    HW231371   6.102   5.603   7.821  2.4531  1.7652 -1.6696
 6573SOL     OW31372   4.845   5.319   7.718  0.3885 -0.0159  0.1831
 6573SOL    HW131373   4.910   5.389   7.749  0.2586 -0.1920  0.8514
 6573SOL    HW231374   4.838   5.246   7.786  0.2158 -0.4811 -0.3287
 6574SOL     OW31375   8.914   8.287   7.037 -0.3736 -0.4347 -0.3038
 6574SOL    HW131376   8.968   8.249   6.962  0.6307 -0.9588  0.6555
 6574SOL    HW231377   8.818   8.265   7.024 -0.1029 -1.2136 -1.0259
 6575SOL     OW31378   6.432   8.694   4.715  0.0137  0.7164 -0.6283
 6575SOL    HW131379   6.448   8.692   4.617  0.9027  0.0312 -0.4708
 6575SOL    HW231380   6.346   8.646   4.736  0.2093  0.2007 -0.9997
 6576SOL     OW31381   9.814   5.039   0.539 -0.1350 -0.5273 -0.0986
 6576SOL    HW131382   9.800   4.955   0.488 -0.6910 -1.0402  0.8937
 6576SOL    HW231383   9.729   5.067   0.583 -0.5251  1.7417 -2.1874
 6577SOL     OW31384   0.945   1.295   0.614  0.2240  0.2467 -0.1649
 6577SOL    HW131385   0.966   1.392   0.605 -0.0835  0.2997 -0.3319
 6577SOL    HW231386   0.985   1.245   0.537  0.1959  0.2705 -0.1948
 6578SOL     OW31387   4.899   5.698   2.363 -0.1345  0.0202 -0.3691
 6578SOL    HW131388   4.868   5.604   2.348 -0.6149 -0.3103  2.5289
 6578SOL    HW231389   4.821   5.757   2.385  0.5879  0.2780  1.6270
 6579SOL     OW31390   9.899   9.407   0.048 -0.4685 -0.1554  0.5208
 6579SOL    HW131391   9.957   9.393  -0.032  0.1649 -1.2858  1.1733
 6579SOL    HW231392   9.819   9.461   0.021 -0.1392 -0.3015 -0.8120
 6580SOL     OW31393   9.427   2.195   0.973 -0.5297 -0.0103  0.2539
 6580SOL    HW131394   9.335   2.188   0.935 -0.6870 -0.1973  0.6710
 6580SOL    HW231395   9.440   2.124   1.042  0.4060 -0.9076 -0.8205
 6581SOL     OW31396   5.581   5.883   1.294  0.6502 -0.2270  0.0399
 6581SOL    HW131397   5.533   5.843   1.216  0.9406 -0.0222 -0.2408
 6581SOL    HW231398   5.567   5.825   1.375 -0.1103 -0.1519 -0.0263
 6582SOL     OW31399   9.063   0.388   5.528  0.7110  0.0072  0.2156
 6582SOL    HW131400   8.998   0.329   5.577  0.6360  0.2429  0.3975
 6582SOL    HW231401   9.153   0.383   5.573  1.1801 -1.3692 -0.8203
 6583SOL     OW31402   7.684   9.284   5.571  0.2610 -0.6317 -0.0008
 6583SOL    HW131403   7.757   9.246   5.628  1.3294  2.3901  0.7599
 6583SOL    HW231404   7.602   9.299   5.627  0.5070  0.0287  0.1936
 6584SOL     OW31405   3.321   6.460   1.505  0.3946  0.5984  0.2308
 6584SOL    HW131406   3.241   6.480   1.449  1.4485  1.2398 -1.0659
 6584SOL    HW231407   3.310   6.370   1.548 -0.8329  0.5180 -0.2284
 6585SOL     OW31408   5.588   8.373   5.905 -0.4829  0.3794 -0.5200
 6585SOL    HW131409   5.504   8.344   5.861 -1.8655  2.0480  0.8976
 6585SOL    HW231410   5.566   8.420   5.991  1.9948 -0.8159  0.8381
 6586SOL     OW31411   9.658   9.524   3.499 -0.8141 -0.7253  0.1541
 6586SOL    HW131412   9.666   9.477   3.411  1.7138  1.5153 -0.9004
 6586SOL    HW231413   9.708   9.472   3.569 -1.3306 -1.6070 -0.1353
 6587SOL     OW31414   5.127   1.148   3.444  0.3002 -0.1370 -0.2636
 6587SOL    HW131415   5.192   1.105   3.506  0.9812  0.1921 -0.7455
 6587SOL    HW231416   5.165   1.234   3.409  0.5082 -0.9847 -2.1832
 6588SOL     OW31417   9.094   2.830   1.028 -0.1300  0.5191 -1.2662
 6588SOL    HW131418   9.006   2.861   0.992 -0.8318 -0.3331 -0.3029
 6588SOL    HW231419   9.128   2.895   1.095 -2.0183 -1.1556  1.3972
 6589SOL     OW31420   8.680   9.934   7.531 -0.4062  0.2216 -0.0660
 6589SOL    HW131421   8.761   9.974   7.573 -0.7680  3.1502 -1.9897
 6589SOL    HW231422   8.704   9.896   7.442 -0.4510 -2.2543  0.9421
 6590SOL     OW31423   6.821   6.415   1.303  0.1974  0.0434 -0.1512
 6590SOL    HW131424   6.851   6.387   1.212 -0.5742 -0.7598 -0.1679
 6590SOL    HW231425   6.721   6.404   1.311  0.2093  0.4440  0.6677
 6591SOL     OW31426   7.228   0.329   6.803  0.1815  0.0519  0.0304
 6591SOL    HW131427   7.274   0.257   6.750  0.6260 -0.0478  0.5542
 6591SOL    HW231428   7.245   0.418   6.760 -1.7495 -0.3166 -1.5905
 6592SOL     OW31429   7.693   8.791   6.073  0.1985 -0.3124  0.5623
 6592SOL    HW131430   7.702   8.722   6.145  0.4378  0.2694  1.0860
 6592SOL    HW231431   7.773   8.850   6.074 -0.6281  0.8192  0.9889
 6593SOL     OW31432   4.196   3.296   7.738  0.1533  0.1126 -0.4025
 6593SOL    HW131433   4.276   3.286   7.679  0.7124  0.4678  0.2849
 6593SOL    HW231434   4.212   3.250   7.825 -0.2329  0.5251 -0.1050
 6594SOL     OW31435   6.511   1.900   6.263  0.5349  0.9905 -0.3586
 6594SOL    HW131436   6.578   1.971   6.244  0.8781  0.6450 -0.4564
 6594SOL    HW231437   6.546   1.839   6.334 -0.0685  1.3445  0.2444
 6595SOL     OW31438   3.038   8.868   3.604  0.3934  0.2062  0.1844
 6595SOL    HW131439   3.040   8.936   3.677  1.1177  1.0635 -0.6285
 6595SOL    HW231440   3.078   8.783   3.637 -1.4734 -0.1750  1.5383
 6596SOL     OW31441   3.232   4.632   8.015 -0.0300  0.1730 -0.3911
 6596SOL    HW131442   3.189   4.635   7.925  0.4452  0.6569 -0.5993
 6596SOL    HW231443   3.309   4.695   8.018 -0.5001  0.7180  0.5881
 6597SOL     OW31444   3.899   6.451   2.558  0.2449  0.4012  0.4738
 6597SOL    HW131445   3.940   6.460   2.649  0.3208 -0.1713  0.4997
 6597SOL    HW231446   3.965   6.477   2.489 -0.0907  1.6635  0.6183
 6598SOL     OW31447   2.914   1.057   5.187 -0.2557  0.1756  0.9633
 6598SOL    HW131448   2.908   1.155   5.208 -1.7180  0.3451 -0.1152
 6598SOL    HW231449   2.827   1.026   5.149  0.8501 -1.0635 -0.6640
 6599SOL     OW31450   2.669   3.514   1.970  0.2041 -0.0953  0.1518
 6599SOL    HW131451   2.641   3.608   1.948 -0.0077 -0.4004 -0.8971
 6599SOL    HW231452   2.696   3.467   1.886  2.8451 -0.1651  1.0015
 6600SOL     OW31453   8.132   3.155   4.992  0.5526 -0.0779  0.0732
 6600SOL    HW131454   8.052   3.113   4.949  0.1473 -0.2462  0.9785
 6600SOL    HW231455   8.208   3.156   4.927  0.5817 -2.2450  0.0149
 6601SOL     OW31456   2.702   1.052   2.166 -0.1225  0.0883  0.4956
 6601SOL    HW131457   2.664   1.118   2.101  0.1503  1.3218  1.5779
 6601SOL    HW231458   2.648   1.053   2.250  0.3056 -0.5695  0.7855
 6602SOL     OW31459   9.328   0.582   2.636  0.3534  0.5380  0.1267
 6602SOL    HW131460   9.275   0.619   2.559  1.1155  0.6770 -0.3346
 6602SOL    HW231461   9.343   0.654   2.703  0.1637  0.5640  0.1411
 6603SOL     OW31462   4.965   0.828   6.698  0.3614  0.1896  0.5505
 6603SOL    HW131463   4.944   0.878   6.782  0.0031  0.0735  0.5321
 6603SOL    HW231464   5.059   0.846   6.671  0.0184  1.4195  0.1563
 6604SOL     OW31465   5.151   3.028   0.177 -0.0593  0.1214 -0.4462
 6604SOL    HW131466   5.132   3.115   0.223  1.0005  0.8096 -1.2897
 6604SOL    HW231467   5.241   2.995   0.204  0.6090  0.5721 -2.0641
 6605SOL     OW31468   9.042   0.304   5.901 -0.5730 -0.1589 -0.3141
 6605SOL    HW131469   8.991   0.350   5.829  0.2373  1.2328 -0.0355
 6605SOL    HW231470   9.025   0.350   5.989  0.3971 -0.2472 -0.0646
 6606SOL     OW31471   0.135   0.335   6.244 -0.3104 -0.0243 -1.2774
 6606SOL    HW131472   0.122   0.430   6.216  0.3219  0.9120  1.4339
 6606SOL    HW231473   0.230   0.308   6.226  0.0774  0.5563 -0.1884
 6607SOL     OW31474   5.417   1.373   3.217  0.2693 -0.1659 -0.7221
 6607SOL    HW131475   5.325   1.388   3.252  1.1364  0.6377  1.3051
 6607SOL    HW231476   5.451   1.457   3.175 -0.2242 -0.7109 -2.2449
 6608SOL     OW31477   9.266   1.848   5.413 -0.2395 -0.1102  0.4215
 6608SOL    HW131478   9.348   1.898   5.441 -1.1066  1.8915 -0.4731
 6608SOL    HW231479   9.185   1.891   5.454 -0.8661 -1.9720  1.1713
 6609SOL     OW31480   1.720   6.401   8.054 -0.1351  0.1206  0.2969
 6609SOL    HW131481   1.805   6.356   8.028  0.7078  0.7097  1.9768
 6609SOL    HW231482   1.739   6.495   8.083 -1.3114  0.1420  1.0351
 6610SOL     OW31483   8.909   5.316   3.405  0.7394  0.4292 -0.2863
 6610SOL    HW131484   8.886   5.238   3.463 -1.4401  0.7903 -0.6328
 6610SOL    HW231485   8.974   5.286   3.334 -0.2428 -1.1176 -0.5463
 6611SOL     OW31486   0.483   9.449   1.138  0.1207 -0.0291  0.2029
 6611SOL    HW131487   0.500   9.524   1.074 -0.8074  0.6467  0.7333
 6611SOL    HW231488   0.460   9.486   1.228 -0.6813 -0.9444  0.3823
 6612SOL     OW31489   9.043   9.884   4.993 -0.2748 -0.2911 -0.0046
 6612SOL    HW131490   8.992   9.861   5.075 -3.3679  1.8162 -1.2250
 6612SOL    HW231491   9.105   9.960   5.013  1.0949 -1.6664  1.0479
 6613SOL     OW31492   7.673   4.147   8.028 -0.6299 -0.2455  0.2495
 6613SOL    HW131493   7.578   4.118   8.013 -0.8624  0.5624  0.1562
 6613SOL    HW231494   7.680   4.194   8.116 -0.7266  1.4546 -0.6226
 6614SOL     OW31495   4.806   6.334   0.621 -0.3292  0.1288  0.0877
 6614SOL    HW131496   4.716   6.375   0.641 -0.4791 -0.0119 -0.2836
 6614SOL    HW231497   4.876   6.378   0.677 -0.7050 -0.1097  0.7499
 6615SOL     OW31498   4.105   2.991   0.622  0.6588  0.0492  0.0396
 6615SOL    HW131499   4.203   3.001   0.601  0.8320 -3.1256 -0.7922
 6615SOL    HW231500   4.052   3.048   0.559  1.9671  2.9987  1.4539
 6616SOL     OW31501   7.134   0.949   7.106  0.3031  0.3404  0.1545
 6616SOL    HW131502   7.131   0.998   7.192  2.4292 -0.9719  1.0173
 6616SOL    HW231503   7.228   0.921   7.086 -0.1535  0.5624 -2.5588
 6617SOL     OW31504   1.458   4.046   7.786  0.3084  0.2640  0.2132
 6617SOL    HW131505   1.543   4.058   7.735 -0.0237  1.4199 -0.0934
 6617SOL    HW231506   1.454   4.113   7.860 -1.4311  1.8692 -1.2836
 6618SOL     OW31507   9.574   2.907   1.509 -0.1316 -0.3472 -0.0537
 6618SOL    HW131508   9.504   2.908   1.579 -0.6738  1.9138 -0.5771
 6618SOL    HW231509   9.582   2.815   1.470  0.1975 -1.6372  2.9397
 6619SOL     OW31510   0.639   0.824   5.668  0.2854 -0.0395  0.2091
 6619SOL    HW131511   0.661   0.834   5.571 -1.7021 -2.6709 -0.5649
 6619SOL    HW231512   0.561   0.881   5.691  1.0086  0.8956  0.3754
 6620SOL     OW31513   2.990   3.158   0.895 -0.1335 -0.3904 -0.0367
 6620SOL    HW131514   3.070   3.109   0.931  0.3028  1.7632  2.0341
 6620SOL    HW231515   2.907   3.116   0.932  0.2042 -0.0838  1.0858
 6621SOL     OW31516   9.231   2.655   6.995 -0.5229 -0.2691  0.3418
 6621SOL    HW131517   9.131   2.659   6.991 -0.6236 -1.3484  1.4374
 6621SOL    HW231518   9.259   2.566   7.032  0.9118 -0.9725 -2.3415
 6622SOL     OW31519   5.568   7.922   5.866 -0.4555  0.5486 -0.3443
 6622SOL    HW131520   5.574   7.823   5.882  2.9750  0.7066 -0.2069
 6622SOL    HW231521   5.535   7.938   5.773  1.9581 -0.8428 -1.5089
 6623SOL     OW31522   8.122   0.114   6.350 -0.1342 -0.1638 -0.1323
 6623SOL    HW131523   8.110   0.212   6.367 -0.7398 -0.5195  1.6813
 6623SOL    HW231524   8.147   0.068   6.436  2.3986 -1.2790 -1.4174
 6624SOL     OW31525   3.430   1.537   1.208  0.4608  0.4347 -0.0492
 6624SOL    HW131526   3.454   1.480   1.129  0.8614 -0.3625  0.6353
 6624SOL    HW231527   3.420   1.632   1.179 -1.6786 -0.1997 -1.4825
 6625SOL     OW31528   6.392   7.908   3.842 -0.3135  0.4901  0.0022
 6625SOL    HW131529   6.429   7.970   3.912  0.0167 -0.4834  0.7062
 6625SOL    HW231530   6.391   7.815   3.878  0.2695 -0.0968 -1.4544
 6626SOL     OW31531   2.475   7.191   4.132 -0.1514  0.3482 -0.4665
 6626SOL    HW131532   2.536   7.219   4.057  0.7616  0.4344  0.3027
 6626SOL    HW231533   2.381   7.215   4.108  0.0530 -0.1725 -1.8516
 6627SOL     OW31534   7.118   9.828   4.094  0.3485 -0.4839  0.6102
 6627SOL    HW131535   7.043   9.877   4.050  1.0304 -0.0253 -0.0472
 6627SOL    HW231536   7.119   9.733   4.063  0.4329 -0.3232  0.1181
 6628SOL     OW31537   2.349   3.711   5.141 -0.8264 -0.1557 -0.7610
 6628SOL    HW131538   2.337   3.617   5.175 -0.3405 -0.7988 -2.2982
 6628SOL    HW231539   2.271   3.736   5.085 -0.5458  0.0294 -1.0707
 6629SOL     OW31540   2.622   9.001   4.025 -0.0260 -0.8580  0.0252
 6629SOL    HW131541   2.528   9.031   4.008  0.2315  0.6724  1.1675
 6629SOL    HW231542   2.679   9.020   3.945 -0.6952 -1.8666 -0.6994
 6630SOL     OW31543   6.717   5.060   6.844 -0.2682  0.3712 -0.0711
 6630SOL    HW131544   6.647   4.989   6.834 -0.0586  0.1323  0.1483
 6630SOL    HW231545   6.759   5.053   6.935 -0.0728  0.6196 -0.1399
 6631SOL     OW31546   9.722   6.755   3.836  0.3792 -0.1522  0.3343
 6631SOL    HW131547   9.802   6.807   3.806  1.4231 -1.2557  1.1367
 6631SOL    HW231548   9.693   6.693   3.763  1.6625 -1.3776  0.8438
 6632SOL     OW31549   5.783   4.618   0.051  0.4576  0.2578 -0.2794
 6632SOL    HW131550   5.735   4.683  -0.009  0.6172  1.8480  1.2722
 6632SOL    HW231551   5.716   4.575   0.113  0.3948 -0.8576 -1.1144
 6633SOL     OW31552   1.294   0.595   3.134 -0.1629  0.1794  0.0340
 6633SOL    HW131553   1.369   0.568   3.073 -0.3892  0.5756 -0.4170
 6633SOL    HW231554   1.207   0.563   3.096 -0.3737  1.0312 -0.2021
 6634SOL     OW31555   0.049   7.403   2.526 -0.3262  0.4415  0.3204
 6634SOL    HW131556   0.018   7.459   2.449  1.2319  0.7869 -0.0808
 6634SOL    HW231557   0.149   7.409   2.533 -0.3558 -0.4774  1.6853
 6635SOL     OW31558   0.835   8.785   6.172  0.2560 -0.7378  0.1332
 6635SOL    HW131559   0.855   8.731   6.254  0.8729  0.1329  0.5542
 6635SOL    HW231560   0.921   8.804   6.123  0.4361  2.3908  1.5604
 6636SOL     OW31561   8.244   2.619   6.683  0.6526 -0.8001  0.0459
 6636SOL    HW131562   8.289   2.669   6.609  0.3922  1.7064  1.5207
 6636SOL    HW231563   8.313   2.567   6.734  1.3087 -0.0258 -0.0454
 6637SOL     OW31564   1.846   0.051   5.349 -0.4846 -0.4092 -0.4108
 6637SOL    HW131565   1.867   0.149   5.346  2.4018 -0.9604  0.4267
 6637SOL    HW231566   1.872   0.009   5.261 -0.4388 -0.6581 -0.2777
 6638SOL     OW31567   9.531   7.519   1.676  0.1084  0.1851 -0.0910
 6638SOL    HW131568   9.478   7.604   1.682  1.4745  0.9841  1.1159
 6638SOL    HW231569   9.628   7.540   1.693  0.3208 -1.7576  1.1559
 6639SOL     OW31570   4.130   3.758   5.266 -0.6625 -0.8311  0.2240
 6639SOL    HW131571   4.050   3.794   5.218 -0.7431 -0.6185  0.5215
 6639SOL    HW231572   4.103   3.686   5.329 -0.7928  0.1438  1.2923
 6640SOL     OW31573   3.844   3.634   0.102  0.0688 -0.0648  0.0692
 6640SOL    HW131574   3.942   3.644   0.120  0.0000 -0.5358  0.7159
 6640SOL    HW231575   3.830   3.609   0.006  0.6330 -0.9852  0.2245
 6641SOL     OW31576   3.751   2.989   1.866 -0.1808 -0.5940 -0.2635
 6641SOL    HW131577   3.769   2.985   1.768 -0.3542  1.5807 -0.3998
 6641SOL    HW231578   3.788   2.907   1.910 -1.5440 -2.3523 -2.3476
 6642SOL     OW31579   2.367   7.573   2.202 -0.0528 -0.2325  0.3728
 6642SOL    HW131580   2.316   7.590   2.287  0.0188  1.4670  0.0767
 6642SOL    HW231581   2.341   7.483   2.166 -2.8731  0.5919  0.2201
 6643SOL     OW31582   4.332   0.526   7.181 -0.2826  0.4688 -0.7379
 6643SOL    HW131583   4.353   0.511   7.084 -2.0804  0.3888 -1.1409
 6643SOL    HW231584   4.416   0.546   7.231  0.7186  0.1126 -2.2433
 6644SOL     OW31585   8.633   3.439   6.395  0.7506 -0.3758  0.4346
 6644SOL    HW131586   8.537   3.467   6.405  0.8398 -0.1259  0.5795
 6644SOL    HW231587   8.643   3.385   6.311  0.4195 -0.6782  0.5852
 6645SOL     OW31588   2.159   4.726   2.521  0.2092 -0.2067  0.0740
 6645SOL    HW131589   2.135   4.638   2.479 -0.5737 -0.9397  2.0157
 6645SOL    HW231590   2.161   4.797   2.451  0.5263 -1.7091 -1.4706
 6646SOL     OW31591   4.437   2.200   0.726  0.1887 -0.1148  0.2744
 6646SOL    HW131592   4.456   2.252   0.643 -0.8028 -0.0713  0.0678
 6646SOL    HW231593   4.484   2.242   0.804  1.7062 -0.5675 -0.3756
 6647SOL     OW31594   0.858   1.842   2.169  0.4991  0.7648  0.5259
 6647SOL    HW131595   0.903   1.918   2.122  0.2198  0.9069  0.4889
 6647SOL    HW231596   0.851   1.862   2.266 -0.9525  1.4645  0.2903
 6648SOL     OW31597   3.313   7.529   4.594  0.2389  0.1220 -0.3100
 6648SOL    HW131598   3.261   7.469   4.654 -0.3530  1.1603  0.2442
 6648SOL    HW231599   3.399   7.486   4.569  0.5285 -0.2866  1.3714
 6649SOL     OW31600   7.799   5.788   5.660  0.0466  0.3711  0.2490
 6649SOL    HW131601   7.832   5.877   5.631 -0.2830  0.3175 -0.3111
 6649SOL    HW231602   7.722   5.799   5.722  0.2339  0.4822  0.4579
 6650SOL     OW31603   0.614   1.660   4.949  0.2810 -0.2889  0.3582
 6650SOL    HW131604   0.712   1.646   4.939  0.3478 -0.6693  1.5571
 6650SOL    HW231605   0.590   1.751   4.913  0.7625 -0.9303 -1.6760
 6651SOL     OW31606   0.435   2.006   0.465 -0.5643  0.2315 -0.6050
 6651SOL    HW131607   0.352   2.063   0.460 -1.3482 -0.9026 -0.7670
 6651SOL    HW231608   0.411   1.916   0.503  0.0857 -1.0089 -3.0066
 6652SOL     OW31609   9.099   6.645   8.093 -0.1762 -0.2457  0.2354
 6652SOL    HW131610   9.161   6.710   8.136 -0.2186 -0.2415  0.2898
 6652SOL    HW231611   9.140   6.611   8.008 -0.5324  0.5064 -0.2470
 6653SOL     OW31612   9.222   1.556   7.343 -0.0205  0.0920 -0.2110
 6653SOL    HW131613   9.136   1.524   7.382 -0.3179  1.8404  0.6203
 6653SOL    HW231614   9.297   1.533   7.404  0.1433 -1.4625 -0.9518
 6654SOL     OW31615   1.350   8.087   4.348 -0.4918 -0.2259 -0.0073
 6654SOL    HW131616   1.333   8.166   4.406 -0.1142  0.1944 -0.4630
 6654SOL    HW231617   1.342   8.003   4.402 -0.3716  0.1477  0.5928
 6655SOL     OW31618   1.434   6.939   2.507  0.6943 -0.3238  0.2875
 6655SOL    HW131619   1.416   6.842   2.523  0.9007 -0.6218 -1.2154
 6655SOL    HW231620   1.503   6.971   2.572 -0.1286 -0.9117  1.4749
 6656SOL     OW31621   6.057   5.182   0.622  0.0529  0.3100  0.4033
 6656SOL    HW131622   6.029   5.088   0.640 -0.9283  0.2317 -1.3538
 6656SOL    HW231623   6.011   5.244   0.686  0.8434 -0.4094  1.6831
 6657SOL     OW31624   8.952   4.047   2.227  0.7798 -0.4555  0.1014
 6657SOL    HW131625   8.979   3.991   2.306 -0.3193 -1.3930 -0.1845
 6657SOL    HW231626   8.853   4.048   2.219  0.9198 -1.1102 -1.8259
 6658SOL     OW31627   9.437   5.397   4.686 -0.6100  0.2922 -0.7035
 6658SOL    HW131628   9.410   5.492   4.706 -0.3111  0.1703  0.3000
 6658SOL    HW231629   9.404   5.337   4.759  1.5986  0.0140  0.1040
 6659SOL     OW31630   5.462   8.674   4.700  0.5948  0.2468  0.2076
 6659SOL    HW131631   5.528   8.688   4.625 -0.8253  0.1607 -1.0888
 6659SOL    HW231632   5.443   8.762   4.744  0.6620  0.4682 -0.1991
 6660SOL     OW31633   3.422   4.239   8.015  0.7162  0.2774  0.1002
 6660SOL    HW131634   3.348   4.216   8.077  0.7918 -0.7404 -0.1717
 6660SOL    HW231635   3.473   4.156   7.991  0.8691  0.6948 -1.0795
 6661SOL     OW31636   5.403   9.851   1.112  0.1986 -0.5720 -0.2790
 6661SOL    HW131637   5.362   9.774   1.064  0.1204 -1.2819  0.8935
 6661SOL    HW231638   5.403   9.932   1.053 -0.3549 -1.2850 -1.2677
 6662SOL     OW31639   9.915   8.774   5.218 -0.9180 -1.1120 -0.1753
 6662SOL    HW131640   9.897   8.820   5.131 -1.4776  1.1221  1.0740
 6662SOL    HW231641  10.012   8.784   5.241 -1.1816  0.1377  0.4503
 6663SOL     OW31642   3.362   8.966   7.084  0.9181  0.2644  0.0239
 6663SOL    HW131643   3.370   8.895   7.013 -1.1216 -0.9152  0.9382
 6663SOL    HW231644   3.444   8.966   7.141 -0.0497 -3.0443  1.5130
 6664SOL     OW31645   6.231   4.963   0.835 -0.4310  0.6049 -0.1346
 6664SOL    HW131646   6.306   4.917   0.883 -1.3537 -0.5629  0.2056
 6664SOL    HW231647   6.211   4.914   0.750 -1.4745  0.3139  0.2702
 6665SOL     OW31648   9.406   3.042   6.017 -0.1904 -0.2053  0.4139
 6665SOL    HW131649   9.418   3.110   6.090 -2.1637 -0.0632  0.6262
 6665SOL    HW231650   9.355   3.084   5.941  0.7765 -0.7211 -0.5335
 6666SOL     OW31651   2.688   4.449   0.236  0.2721  0.0402  0.1707
 6666SOL    HW131652   2.661   4.357   0.263  1.6682 -0.5889 -0.5443
 6666SOL    HW231653   2.717   4.500   0.317  0.4337 -0.4701  0.4341
 6667SOL     OW31654   7.899   5.474   0.965 -0.2237  0.2022  0.0939
 6667SOL    HW131655   7.946   5.410   0.905 -0.3335 -1.3007  1.5634
 6667SOL    HW231656   7.849   5.541   0.911  1.0746 -0.0808 -1.4681
 6668SOL     OW31657   8.652   6.610   5.926 -0.5387 -0.0427 -0.0686
 6668SOL    HW131658   8.590   6.667   5.871 -1.2419 -1.4130 -0.7429
 6668SOL    HW231659   8.728   6.580   5.869 -0.5816 -0.4019  0.0623
 6669SOL     OW31660   2.243   3.704   1.495 -0.0805  0.1656 -0.5210
 6669SOL    HW131661   2.230   3.801   1.515 -1.4621  0.1892 -1.4991
 6669SOL    HW231662   2.281   3.693   1.403 -2.4413 -0.3009 -1.4888
 6670SOL     OW31663   7.979   5.470   2.943 -0.0688  0.3761 -0.1775
 6670SOL    HW131664   7.884   5.475   2.914  0.2062 -1.2686 -1.4883
 6670SOL    HW231665   7.993   5.524   3.026 -1.8676  1.5973 -0.6594
 6671SOL     OW31666   0.005   8.546   5.901 -0.0047 -0.3659 -0.1649
 6671SOL    HW131667   0.057   8.622   5.862 -0.4165  0.0974  0.1866
 6671SOL    HW231668  -0.009   8.475   5.832 -0.7942  0.4801 -0.8818
 6672SOL     OW31669   1.485   3.968   1.480 -0.0155  0.2380  0.2995
 6672SOL    HW131670   1.553   3.966   1.407 -0.8301  3.1659 -0.6158
 6672SOL    HW231671   1.452   3.875   1.497  0.5562 -0.5778 -2.7143
 6673SOL     OW31672   2.407   9.145   3.566 -0.4909  0.6122 -0.1338
 6673SOL    HW131673   2.427   9.067   3.508 -1.1909  0.2938  0.0524
 6673SOL    HW231674   2.384   9.224   3.510 -0.9722  0.3593 -0.2903
 6674SOL     OW31675   7.494   2.770   2.412  0.0079 -0.1974  0.5188
 6674SOL    HW131676   7.559   2.694   2.406 -0.4544 -0.5837  0.3598
 6674SOL    HW231677   7.402   2.737   2.390 -0.2963  0.2788  1.0670
 6675SOL     OW31678   8.650   4.587   4.952 -0.2236 -0.1059 -0.2513
 6675SOL    HW131679   8.701   4.505   4.977 -0.3907 -0.4489 -1.0414
 6675SOL    HW231680   8.556   4.579   4.987  0.0950  0.2880  0.7256
 6676SOL     OW31681   3.725   3.535   1.704  0.4177 -0.2335 -0.3826
 6676SOL    HW131682   3.720   3.586   1.789  0.6388  0.5867 -0.8575
 6676SOL    HW231683   3.819   3.506   1.687  0.3734 -0.3977 -0.3511
 6677SOL     OW31684   5.258   6.189   1.921  0.0071 -0.1458 -0.0075
 6677SOL    HW131685   5.326   6.243   1.871 -1.2860  1.1927 -0.3832
 6677SOL    HW231686   5.285   6.183   2.017  0.8384  0.0596 -0.2192
 6678SOL     OW31687   0.543   8.049   7.750 -0.2080 -0.0738 -0.4025
 6678SOL    HW131688   0.574   8.143   7.739 -1.5205  0.3028 -0.9731
 6678SOL    HW231689   0.529   8.008   7.659  1.5923 -1.2522 -0.1851
 6679SOL     OW31690   2.126   0.637   6.236 -0.2222  0.3535  0.2956
 6679SOL    HW131691   2.202   0.664   6.296 -0.7075 -0.6183  1.3742
 6679SOL    HW231692   2.053   0.599   6.292 -1.1303  0.4395 -0.8356
 6680SOL     OW31693   0.919   9.808   3.610 -0.1890 -0.2136 -0.0424
 6680SOL    HW131694   1.016   9.834   3.606 -0.2630 -0.1248 -1.8585
 6680SOL    HW231695   0.877   9.847   3.692  1.0262  0.7590  0.1336
 6681SOL     OW31696   3.318   3.692   5.251 -0.1684  0.1201  0.1454
 6681SOL    HW131697   3.376   3.753   5.306 -0.0026 -0.1437  0.2630
 6681SOL    HW231698   3.270   3.746   5.181 -0.4379  0.4728  0.5945
 6682SOL     OW31699   7.254   2.692   3.455 -0.5584  0.0673 -0.3502
 6682SOL    HW131700   7.184   2.641   3.405 -0.8135 -1.4170  1.4676
 6682SOL    HW231701   7.337   2.696   3.400 -0.8653 -1.4809 -0.9563
 6683SOL     OW31702   2.248   1.876   7.535  0.4421 -0.8776  0.3467
 6683SOL    HW131703   2.174   1.929   7.578  1.0871  0.2619  0.0906
 6683SOL    HW231704   2.253   1.899   7.438  0.4550 -1.7478  0.1365
 6684SOL     OW31705   1.189   6.105   2.873 -0.0998 -0.1455 -0.4885
 6684SOL    HW131706   1.264   6.048   2.906 -1.6574 -1.1418  1.4014
 6684SOL    HW231707   1.201   6.199   2.905 -1.4375 -1.0368  2.7907
 6685SOL     OW31708   3.740   9.615   5.703 -0.1820  0.2372 -0.1919
 6685SOL    HW131709   3.667   9.623   5.772  0.3233  0.3833  0.3266
 6685SOL    HW231710   3.700   9.583   5.617 -1.1908  2.2982 -0.5070
 6686SOL     OW31711   1.357   3.898   4.777 -0.3159  0.2095  0.2067
 6686SOL    HW131712   1.454   3.918   4.792  0.4869 -3.5581  0.4024
 6686SOL    HW231713   1.303   3.953   4.840  1.6373  2.6963 -0.1911
 6687SOL     OW31714   2.250   0.623   8.060 -0.3940 -0.1291 -0.1314
 6687SOL    HW131715   2.272   0.643   8.155 -1.4522 -0.0582  0.1094
 6687SOL    HW231716   2.223   0.707   8.013 -3.4777 -0.6735  0.5093
 6688SOL     OW31717   0.138   7.352   7.390  0.1725  0.3869 -0.5867
 6688SOL    HW131718   0.114   7.420   7.459 -1.0733  0.1975 -0.8108
 6688SOL    HW231719   0.080   7.365   7.309 -0.6114 -1.4242 -0.3283
 6689SOL     OW31720   7.538   0.058   2.703 -0.2804  0.3396 -0.3082
 6689SOL    HW131721   7.448   0.093   2.727 -0.8049 -0.9238 -0.4284
 6689SOL    HW231722   7.576   0.009   2.781  0.0290  0.3003 -0.4842
 6690SOL     OW31723   0.382   7.938   3.033  0.5703  0.1975 -0.1672
 6690SOL    HW131724   0.366   7.854   3.086  0.4313  0.1298 -0.3144
 6690SOL    HW231725   0.296   7.985   3.019  0.5285 -0.0539 -0.7801
 6691SOL     OW31726   8.886   2.760   0.518 -0.4887 -0.4413 -0.2975
 6691SOL    HW131727   8.889   2.797   0.426 -0.4869 -1.1819 -0.6012
 6691SOL    HW231728   8.970   2.707   0.536 -0.7028 -0.7023 -0.0503
 6692SOL     OW31729   2.044   1.956   0.981 -0.0417  0.1245 -0.3394
 6692SOL    HW131730   2.060   1.903   0.898 -1.1712  2.7585 -2.3303
 6692SOL    HW231731   1.998   1.899   1.050 -0.2789 -1.7419 -2.0206
 6693SOL     OW31732   8.360   0.147   3.267 -0.0784 -0.1535 -0.1594
 6693SOL    HW131733   8.368   0.056   3.307  0.1296 -0.3071 -0.5498
 6693SOL    HW231734   8.444   0.198   3.282 -0.2751  0.0552  0.2525
 6694SOL     OW31735   2.220   7.519   5.824  1.1497 -0.7733  0.1220
 6694SOL    HW131736   2.236   7.439   5.766 -0.0316  0.1387 -1.4993
 6694SOL    HW231737   2.194   7.596   5.767  0.0477  0.1776  1.8900
 6695SOL     OW31738   8.522   6.941   6.932  0.7537 -0.2626 -0.2725
 6695SOL    HW131739   8.574   6.976   6.854 -0.3224 -0.5266 -1.1138
 6695SOL    HW231740   8.485   6.851   6.910 -0.9136  0.3465 -0.0678
 6696SOL     OW31741   7.388   4.131   8.052 -0.2274 -0.2464  0.0755
 6696SOL    HW131742   7.316   4.140   8.121  0.2200  1.9751  0.2935
 6696SOL    HW231743   7.368   4.053   7.993 -1.1174 -1.6152  2.1093
 6697SOL     OW31744   1.377   7.363   7.307  0.3941  0.0642 -0.2942
 6697SOL    HW131745   1.461   7.363   7.362 -0.5975  0.0130  1.2445
 6697SOL    HW231746   1.343   7.457   7.297  1.1919  0.2120 -1.8214
 6698SOL     OW31747   4.186   8.606   3.681 -0.0298  0.0201 -0.1227
 6698SOL    HW131748   4.264   8.666   3.700 -1.1166  1.0802  1.1160
 6698SOL    HW231749   4.165   8.608   3.583  2.2310 -1.2246 -0.6783
 6699SOL     OW31750   4.375   8.337   8.076 -0.0492  0.1468 -0.0113
 6699SOL    HW131751   4.367   8.362   8.173  0.2001 -1.3302  0.4145
 6699SOL    HW231752   4.441   8.397   8.031  0.3755  0.3904  0.9185
 6700SOL     OW31753   9.618   7.889   4.146 -0.3106  0.6056 -0.1784
 6700SOL    HW131754   9.705   7.935   4.162 -0.8913  1.4030  0.7022
 6700SOL    HW231755   9.625   7.834   4.063  1.2961 -0.0135  0.3404
 6701SOL     OW31756   1.760   4.496   3.507  0.2393  0.0184 -0.3706
 6701SOL    HW131757   1.689   4.566   3.497 -0.4628 -1.0377 -3.2425
 6701SOL    HW231758   1.817   4.494   3.425  1.3512 -1.5944  0.4093
 6702SOL     OW31759   4.749   2.046   5.853  0.0559 -0.0022 -0.2131
 6702SOL    HW131760   4.671   1.983   5.863  0.1784 -0.2276 -0.6617
 6702SOL    HW231761   4.834   1.994   5.851  0.3893  0.3986  2.4107
 6703SOL     OW31762   0.160   9.933   3.579 -0.0465 -0.3424 -0.6281
 6703SOL    HW131763   0.160   9.970   3.672  1.6010 -1.6834 -0.0690
 6703SOL    HW231764   0.252   9.940   3.541 -0.6700  0.0003 -2.0855
 6704SOL     OW31765   1.869   3.216   6.327 -0.3825  0.0265  0.5494
 6704SOL    HW131766   1.949   3.194   6.384  1.0984  2.2241 -0.6291
 6704SOL    HW231767   1.793   3.245   6.385 -0.0309 -1.1344  1.6105
 6705SOL     OW31768   3.730   2.379   7.927  0.4711 -0.0535 -0.2975
 6705SOL    HW131769   3.682   2.373   7.839 -2.0019  1.3347  0.8976
 6705SOL    HW231770   3.777   2.466   7.933 -1.1174  0.7705  0.5692
 6706SOL     OW31771   9.259   1.948   2.409 -0.1772 -0.0682  0.8763
 6706SOL    HW131772   9.231   1.996   2.492 -1.6867 -1.2766  1.0784
 6706SOL    HW231773   9.179   1.916   2.360  0.7091  0.5386 -1.0144
 6707SOL     OW31774   7.498   4.043   0.832  0.2223 -0.1063  0.2433
 6707SOL    HW131775   7.580   4.098   0.817  0.1725  0.5742  2.3111
 6707SOL    HW231776   7.425   4.101   0.866 -1.3523 -0.5936 -2.2068
 6708SOL     OW31777   3.643   3.094   2.185 -0.0980  0.5776  0.0542
 6708SOL    HW131778   3.643   3.055   2.277 -0.8026  2.4700  0.8922
 6708SOL    HW231779   3.604   3.028   2.120 -0.9370 -0.2221  1.3535
 6709SOL     OW31780   9.392   3.787   6.829  0.2674  0.3510 -0.0298
 6709SOL    HW131781   9.418   3.818   6.921  1.1144  0.5137 -0.3153
 6709SOL    HW231782   9.372   3.689   6.831 -0.3500  0.4888  0.4611
 6710SOL     OW31783   8.140   1.837   0.672  0.2723  0.7368  0.0912
 6710SOL    HW131784   8.131   1.738   0.669 -1.7928  0.9203 -0.9658
 6710SOL    HW231785   8.193   1.864   0.753 -0.4670 -1.1249  1.2159
 6711SOL     OW31786   4.607   3.332   1.553  0.1398 -0.1809  0.6538
 6711SOL    HW131787   4.637   3.402   1.618  0.7333 -1.1597  1.4334
 6711SOL    HW231788   4.510   3.314   1.566  0.4555 -1.0501  1.9217
 6712SOL     OW31789   3.960   9.903   3.105  0.2274  0.5464  0.0008
 6712SOL    HW131790   3.951   9.888   3.204 -0.1079 -1.2102 -0.2879
 6712SOL    HW231791   4.056   9.916   3.082  0.4442 -0.3607  0.3817
 6713SOL     OW31792   1.885   9.048   3.264  0.2759 -0.0964  0.2423
 6713SOL    HW131793   1.829   9.052   3.347  3.0277 -0.5354  2.1940
 6713SOL    HW231794   1.961   9.113   3.272  1.2510 -1.0061 -1.4077
 6714SOL     OW31795   9.829   7.778   4.864 -0.0085 -0.3794 -0.2018
 6714SOL    HW131796   9.786   7.858   4.905  1.1413 -1.1332  2.6128
 6714SOL    HW231797   9.929   7.788   4.867  0.1202 -1.1863 -1.3393
 6715SOL     OW31798   3.235   6.559   6.782 -0.3073  0.4140 -0.3871
 6715SOL    HW131799   3.239   6.555   6.882 -0.8572 -0.5868 -0.3945
 6715SOL    HW231800   3.142   6.536   6.751 -0.0654  0.4194 -1.1400
 6716SOL     OW31801   2.324   5.777   5.881  0.3156  0.1184 -0.0658
 6716SOL    HW131802   2.406   5.823   5.849 -0.1224  0.4959 -0.6483
 6716SOL    HW231803   2.273   5.838   5.942  0.9876 -0.4847  1.1052
 6717SOL     OW31804   4.160   5.305   0.233 -0.2550 -0.1386  0.2654
 6717SOL    HW131805   4.205   5.342   0.152 -0.6085 -1.4933 -0.5559
 6717SOL    HW231806   4.062   5.323   0.227 -0.1178  0.9218  1.0342
 6718SOL     OW31807   0.688   9.382   8.199 -0.7155  0.0410 -0.4989
 6718SOL    HW131808   0.737   9.450   8.145 -1.7770  1.1499 -0.0916
 6718SOL    HW231809   0.753   9.322   8.244  0.2813  1.6866  0.2902
 6719SOL     OW31810   8.823   0.224   0.246 -0.3382 -0.3905  0.0854
 6719SOL    HW131811   8.913   0.252   0.213  0.2570 -0.8420  1.3216
 6719SOL    HW231812   8.774   0.177   0.172 -1.0575  3.1167 -1.7964
 6720SOL     OW31813   1.199   3.029   1.081 -0.1224  0.1898  0.3715
 6720SOL    HW131814   1.171   3.101   1.144 -0.4833  1.0602 -0.7575
 6720SOL    HW231815   1.139   2.950   1.093 -1.5816  1.1514 -0.3615
 6721SOL     OW31816   6.020   7.813   3.911  0.5380  0.5356  0.3896
 6721SOL    HW131817   5.921   7.799   3.923  0.3305  1.4937 -0.1216
 6721SOL    HW231818   6.052   7.880   3.978  0.6351  0.9912 -0.1047
 6722SOL     OW31819   2.371   3.282   2.099 -0.7390 -0.1971 -0.2862
 6722SOL    HW131820   2.370   3.380   2.079 -1.4523  0.1408  1.2711
 6722SOL    HW231821   2.328   3.232   2.024 -0.4901  0.6980 -1.0310
 6723SOL     OW31822   7.968   0.567   1.216 -0.7289 -0.5994 -0.4037
 6723SOL    HW131823   7.970   0.606   1.309 -1.3180 -2.2734  0.3170
 6723SOL    HW231824   8.059   0.575   1.175 -0.3825 -0.1447  0.4348
 6724SOL     OW31825   6.879   9.585   4.133 -0.0119 -0.4572 -0.3840
 6724SOL    HW131826   6.926   9.577   4.045 -0.8276  1.4914 -1.0262
 6724SOL    HW231827   6.789   9.543   4.127  0.2497 -1.0407 -0.2333
 6725SOL     OW31828   8.803   5.424   2.875  0.4607 -0.5268 -0.4489
 6725SOL    HW131829   8.840   5.477   2.798  1.4116 -0.9588 -0.2967
 6725SOL    HW231830   8.809   5.478   2.959  0.1686 -0.3572 -0.5388
 6726SOL     OW31831   5.747   2.539   4.502 -0.0698  0.0917  0.5483
 6726SOL    HW131832   5.650   2.565   4.500  0.1352  0.9353  1.0232
 6726SOL    HW231833   5.756   2.442   4.483 -0.9547  0.1616 -0.2781
 6727SOL     OW31834   8.831   2.041   1.322  0.2294 -0.2163  0.4018
 6727SOL    HW131835   8.864   1.986   1.399 -0.6580 -0.1076  0.8665
 6727SOL    HW231836   8.791   2.126   1.356  1.3874  0.6087 -0.3077
 6728SOL     OW31837   0.907   1.156   7.055 -0.0168  0.5509  0.3227
 6728SOL    HW131838   0.963   1.187   6.979 -0.0218 -0.0340  0.0753
 6728SOL    HW231839   0.964   1.142   7.136  0.0753  0.6590  0.2760
 6729SOL     OW31840   9.339   6.926   1.250 -0.5606 -0.1393  0.5088
 6729SOL    HW131841   9.305   6.996   1.313 -3.2602 -1.3943  0.5027
 6729SOL    HW231842   9.425   6.889   1.285 -0.7025  0.9937  2.1161
 6730SOL     OW31843   2.975   5.522   5.478  0.2476  0.2976  0.0311
 6730SOL    HW131844   2.952   5.425   5.471 -3.1966  1.2228 -2.7758
 6730SOL    HW231845   3.069   5.536   5.447  0.4440 -2.0082 -0.4919
 6731SOL     OW31846   3.135   0.336   4.488 -0.2682 -0.3646 -0.0541
 6731SOL    HW131847   3.192   0.266   4.530  0.5008 -0.1107 -0.6519
 6731SOL    HW231848   3.164   0.426   4.520 -0.7078 -0.2659  0.0740
 6732SOL     OW31849   1.304   0.468   7.975 -0.6382  0.0514  0.0727
 6732SOL    HW131850   1.217   0.434   7.940  0.3589 -1.6027 -0.8238
 6732SOL    HW231851   1.301   0.568   7.978 -2.2184  0.0539 -0.8904
 6733SOL     OW31852   2.350   8.366   0.254 -0.1659  0.6338 -0.1214
 6733SOL    HW131853   2.447   8.346   0.244 -0.4450 -0.6542 -0.3110
 6733SOL    HW231854   2.335   8.465   0.245  1.5247  1.2556  3.1440
 6734SOL     OW31855   0.851   3.982   0.996  0.3684  0.2507 -0.1450
 6734SOL    HW131856   0.846   3.927   1.079 -0.9420 -0.4590 -0.6814
 6734SOL    HW231857   0.869   4.077   1.021  0.5741 -0.0546  0.9182
 6735SOL     OW31858   1.735   1.317   3.552  0.0459 -0.5950 -0.6926
 6735SOL    HW131859   1.770   1.371   3.476 -1.7560  1.4076 -0.1395
 6735SOL    HW231860   1.810   1.268   3.596  1.6753  1.2461 -1.3619
 6736SOL     OW31861   1.534   2.493   5.717  0.3684 -0.2068  0.4790
 6736SOL    HW131862   1.586   2.414   5.684 -0.7075 -1.5454  1.8642
 6736SOL    HW231863   1.467   2.462   5.785 -2.1565  1.4769 -1.1621
 6737SOL     OW31864   4.621   4.632   4.314  0.1902 -0.2966 -0.5117
 6737SOL    HW131865   4.545   4.660   4.255 -0.0665 -0.0664 -0.0739
 6737SOL    HW231866   4.703   4.684   4.289 -0.5986  1.8244  1.1485
 6738SOL     OW31867   9.105   0.656   4.613  0.3127  0.1621 -0.3452
 6738SOL    HW131868   9.061   0.715   4.680 -1.4615 -0.2045 -1.1653
 6738SOL    HW231869   9.060   0.567   4.611  1.7789 -0.6050 -0.4474
 6739SOL     OW31870   7.850   0.854   6.866  0.1362  0.2756 -0.6989
 6739SOL    HW131871   7.869   0.756   6.871 -2.2437 -0.2250 -0.5067
 6739SOL    HW231872   7.866   0.886   6.773  0.5286 -0.4003 -0.8709
 6740SOL     OW31873   5.373   1.446   5.289 -0.4259  0.1550 -0.3094
 6740SOL    HW131874   5.357   1.368   5.230 -0.9367  0.4428 -0.5553
 6740SOL    HW231875   5.322   1.434   5.375  1.5004 -0.9744  0.7141
 6741SOL     OW31876   2.885   7.809   5.728 -0.1129 -0.2300  0.1600
 6741SOL    HW131877   2.867   7.712   5.715 -0.2080 -0.3645  1.2458
 6741SOL    HW231878   2.917   7.825   5.821 -2.2647  1.0862  0.7132
 6742SOL     OW31879   0.213   3.370   5.189 -0.1602 -0.1124  0.0674
 6742SOL    HW131880   0.231   3.401   5.282  0.1870  0.3804 -0.1614
 6742SOL    HW231881   0.126   3.409   5.157  0.7325  1.4111 -0.5595
 6743SOL     OW31882   9.958   5.973   7.303  0.0451  0.1307  0.1435
 6743SOL    HW131883   9.984   5.911   7.230  1.0619 -0.6767  1.1791
 6743SOL    HW231884   9.869   6.015   7.281 -0.4747 -1.3923 -0.7354
 6744SOL     OW31885   2.252   7.263   3.991  0.1240  0.1228  0.0555
 6744SOL    HW131886   2.258   7.298   3.897 -0.7163 -0.4890 -0.2353
 6744SOL    HW231887   2.191   7.321   4.044 -1.1380 -0.7661 -0.3819
 6745SOL     OW31888   0.351   3.950   6.728  0.8985 -0.1268 -0.0470
 6745SOL    HW131889   0.315   4.016   6.662  3.3505  0.5240 -0.7814
 6745SOL    HW231890   0.378   3.867   6.680  0.1100 -0.7157  0.5314
 6746SOL     OW31891   3.496   8.013   3.594 -0.3685 -1.3180 -0.1803
 6746SOL    HW131892   3.515   7.926   3.549 -0.9453 -0.0973 -2.8753
 6746SOL    HW231893   3.582   8.059   3.616 -0.0903 -1.6166 -0.6429
 6747SOL     OW31894   1.925   1.228   6.169 -0.2588 -0.3555 -0.0980
 6747SOL    HW131895   1.875   1.220   6.255  0.8985 -1.5160  0.4995
 6747SOL    HW231896   2.001   1.163   6.169  1.3573  1.4646 -0.8924
 6748SOL     OW31897   2.258   9.944   6.345  0.1107  0.1529  0.0703
 6748SOL    HW131898   2.356   9.950   6.325 -0.2126 -1.5193 -2.2126
 6748SOL    HW231899   2.206   9.964   6.262 -1.4605 -0.2480  0.9409
 6749SOL     OW31900   1.443   1.121   6.768 -0.3085 -0.0027 -0.3776
 6749SOL    HW131901   1.399   1.168   6.692 -0.0726 -0.5308 -0.8445
 6749SOL    HW231902   1.418   1.024   6.767 -0.0607 -0.0731  0.0344
 6750SOL     OW31903   7.851   6.351   2.372 -0.3081 -0.4111 -0.4421
 6750SOL    HW131904   7.783   6.280   2.388  1.6615 -2.3965 -0.6587
 6750SOL    HW231905   7.887   6.383   2.460 -0.1748 -0.7034 -0.3896
 6751SOL     OW31906   7.555   0.091   1.819 -0.4832  0.3648  0.1149
 6751SOL    HW131907   7.485   0.024   1.797  0.1125  0.2913 -1.6886
 6751SOL    HW231908   7.642   0.062   1.779 -0.1537  2.0484 -0.4246
 6752SOL     OW31909   1.704   4.031   0.311  0.2823 -0.3135 -0.3641
 6752SOL    HW131910   1.667   4.000   0.223 -0.6610  1.6980 -0.7005
 6752SOL    HW231911   1.633   4.081   0.361  1.3675  0.1305  0.7459
 6753SOL     OW31912   4.328   1.670   6.781  0.4590  0.0558 -0.0026
 6753SOL    HW131913   4.293   1.764   6.771  1.1273  0.1305 -1.7026
 6753SOL    HW231914   4.294   1.614   6.706  0.5672 -0.9270  0.6746
 6754SOL     OW31915   3.856   5.447   2.510 -0.6497 -0.3934  0.1802
 6754SOL    HW131916   3.810   5.435   2.598  0.5910  0.7056  0.9934
 6754SOL    HW231917   3.872   5.545   2.494  2.0237 -0.7936  0.2431
 6755SOL     OW31918   2.851   8.913   6.191  0.2691  0.5841 -0.2654
 6755SOL    HW131919   2.823   8.974   6.116 -0.7015  2.7305  1.7772
 6755SOL    HW231920   2.950   8.916   6.201  0.4264  0.1260 -1.5840
 6756SOL     OW31921   8.735   6.732   5.472  1.1407 -0.2520  0.1848
 6756SOL    HW131922   8.643   6.734   5.511  0.8090  1.6396 -0.6461
 6756SOL    HW231923   8.779   6.821   5.488  1.9701 -0.3671 -1.4484
 6757SOL     OW31924   4.575   8.189   2.087 -0.1049  0.4397 -0.5720
 6757SOL    HW131925   4.502   8.188   2.154  1.0935 -0.4126  0.7614
 6757SOL    HW231926   4.606   8.283   2.071  1.5962  0.4500  2.3438
 6758SOL     OW31927   1.152   4.862   3.495 -0.0558 -0.1448  0.0124
 6758SOL    HW131928   1.069   4.867   3.440  0.4304  0.6466 -0.6489
 6758SOL    HW231929   1.192   4.953   3.504 -0.2581 -0.2166  1.8738
 6759SOL     OW31930   4.120   0.308   4.194 -0.1011  0.1776  0.0022
 6759SOL    HW131931   4.061   0.348   4.125  0.3896  0.7051 -0.1216
 6759SOL    HW231932   4.163   0.225   4.158  0.3850  0.6157 -0.4372
 6760SOL     OW31933   2.525   9.589   7.839 -0.3276  0.1447 -0.5426
 6760SOL    HW131934   2.530   9.593   7.739  0.0277 -1.8710 -0.6272
 6760SOL    HW231935   2.433   9.613   7.869  0.0429  2.5763 -1.2137
 6761SOL     OW31936   6.174   4.606   7.824 -0.1963  0.0206 -0.1762
 6761SOL    HW131937   6.219   4.554   7.896 -3.1692 -1.2989  0.8264
 6761SOL    HW231938   6.185   4.704   7.842  0.5152 -0.2846  1.1596
 6762SOL     OW31939   1.022   1.032   6.149  0.0473 -0.3154 -0.2267
 6762SOL    HW131940   0.923   1.044   6.138  0.0175 -0.0250  0.3703
 6762SOL    HW231941   1.039   0.948   6.201  0.2002 -1.9018 -2.6850
 6763SOL     OW31942   9.826   4.707   0.807 -0.7391 -0.6543  0.5781
 6763SOL    HW131943   9.865   4.792   0.843  2.9497 -1.4832 -1.2195
 6763SOL    HW231944   9.805   4.645   0.882 -0.9585  0.7885  1.7418
 6764SOL     OW31945   7.235   1.569   1.444 -0.4775  0.6253 -0.7229
 6764SOL    HW131946   7.162   1.546   1.380 -0.9970  2.6604 -0.8918
 6764SOL    HW231947   7.218   1.660   1.482  0.0998 -0.3471  1.9241
 6765SOL     OW31948   0.953   2.073   7.629  0.2270 -0.1203  0.1136
 6765SOL    HW131949   1.046   2.060   7.596  0.6276  2.0647  0.2637
 6765SOL    HW231950   0.955   2.134   7.709 -1.5237  2.0445 -1.4355
 6766SOL     OW31951   0.698   7.333   3.075  0.2878 -0.5422 -0.1001
 6766SOL    HW131952   0.789   7.332   3.116  0.6151 -0.0055 -0.8104
 6766SOL    HW231953   0.703   7.306   2.979 -0.1422  0.5419 -0.4365
 6767SOL     OW31954   1.076   8.370   2.282 -0.4503  0.1680 -0.1350
 6767SOL    HW131955   1.066   8.424   2.199  0.5747  0.7429  0.0919
 6767SOL    HW231956   1.079   8.432   2.361  0.1589 -0.2580  0.1796
 6768SOL     OW31957   9.843   2.141   6.387 -0.2986 -0.4883 -0.2479
 6768SOL    HW131958   9.828   2.050   6.347 -2.2412 -0.2628 -0.0942
 6768SOL    HW231959   9.815   2.211   6.322 -1.2816 -0.0675  0.6123
 6769SOL     OW31960   9.106   1.142   3.157  0.0803 -0.5300 -0.4591
 6769SOL    HW131961   9.179   1.150   3.089  0.5305 -0.3484  0.0450
 6769SOL    HW231962   9.133   1.189   3.241 -0.9795  0.2962 -0.5699
 6770SOL     OW31963   8.146   1.811   7.855 -0.6745  0.0475 -0.0593
 6770SOL    HW131964   8.105   1.787   7.943 -2.2164  0.5905 -0.6143
 6770SOL    HW231965   8.163   1.910   7.853 -0.2543 -0.0281 -0.2119
 6771SOL     OW31966   7.887   5.272   2.001 -0.0907 -0.1602  0.0784
 6771SOL    HW131967   7.809   5.216   2.028 -0.2616  0.3440  0.6556
 6771SOL    HW231968   7.970   5.233   2.041 -0.5119  1.3785  2.5990
 6772SOL     OW31969   4.039   1.530   2.524 -0.2387  0.4823 -1.1002
 6772SOL    HW131970   4.054   1.617   2.571 -0.1121 -1.2059  2.1314
 6772SOL    HW231971   4.124   1.478   2.522 -1.1304 -1.0686  0.2419
 6773SOL     OW31972   3.275   0.408   3.484  0.0192  0.3187  0.6353
 6773SOL    HW131973   3.305   0.360   3.402  0.0967 -0.0450  0.8756
 6773SOL    HW231974   3.270   0.344   3.560 -0.2055  0.6229  0.8790
 6774SOL     OW31975   4.821   2.641   5.096 -0.0040 -0.7714  0.6885
 6774SOL    HW131976   4.839   2.708   5.168  0.0217  0.3461 -0.3423
 6774SOL    HW231977   4.732   2.598   5.111 -1.1038  1.2106  0.0741
 6775SOL     OW31978   1.823   9.066   6.737 -0.2139 -0.3024 -0.0449
 6775SOL    HW131979   1.726   9.087   6.729 -0.5575 -1.7695  0.1612
 6775SOL    HW231980   1.856   9.092   6.828 -0.3982  0.2598 -0.1404
 6776SOL     OW31981   9.647   7.181   4.789 -0.2717  0.2968 -0.0499
 6776SOL    HW131982   9.672   7.274   4.814 -0.8097  0.3327  0.3534
 6776SOL    HW231983   9.728   7.133   4.756 -0.0615  1.0225 -0.6201
 6777SOL     OW31984   4.167   0.552   6.169 -0.1789  0.5298 -0.0972
 6777SOL    HW131985   4.165   0.561   6.070 -2.7641  2.3361  0.0728
 6777SOL    HW231986   4.089   0.498   6.200 -0.3338  1.3968  1.0643
 6778SOL     OW31987   6.543   0.473   4.468 -0.7148 -0.1285  0.0867
 6778SOL    HW131988   6.569   0.377   4.472  0.8632  0.2859  0.0249
 6778SOL    HW231989   6.522   0.505   4.561  2.0426  0.3416  0.5731
 6779SOL     OW31990   9.207   6.748   4.584  0.4887  0.1592 -0.0963
 6779SOL    HW131991   9.128   6.764   4.644  0.3669  0.9707 -0.4701
 6779SOL    HW231992   9.285   6.800   4.618  0.3739  0.7451 -0.7434
 6780SOL     OW31993   2.929   1.562   7.861 -0.3211 -0.2500  0.0986
 6780SOL    HW131994   2.832   1.579   7.875 -0.2958  0.0663 -0.1301
 6780SOL    HW231995   2.944   1.463   7.852 -0.4389 -0.4264  1.5782
 6781SOL     OW31996   6.033   3.431   0.239  0.2015 -0.1517  0.2172
 6781SOL    HW131997   6.018   3.332   0.247 -1.3202  0.1277  1.0600
 6781SOL    HW231998   5.945   3.477   0.230  0.9254  1.1108 -0.6314
 6782SOL     OW31999   8.116   4.239   0.228 -0.3934  0.1476  0.3224
 6782SOL    HW132000   8.083   4.165   0.169  1.0629  1.5481 -2.3583
 6782SOL    HW232001   8.187   4.204   0.289 -1.0108 -1.0572  0.3566
 6783SOL     OW32002   2.121   3.499   4.636  0.1404  0.5907  0.3066
 6783SOL    HW132003   2.187   3.506   4.561 -0.0697 -2.6114 -0.2393
 6783SOL    HW232004   2.032   3.472   4.599 -0.0284 -0.7469  1.6327
 6784SOL     OW32005   9.534   0.096   7.931  0.1442 -0.0117  0.3934
 6784SOL    HW132006   9.581   0.166   7.984 -1.9046  1.4813  0.2918
 6784SOL    HW232007   9.501   0.024   7.992  0.5206  0.1032  0.7334
 6785SOL     OW32008   7.310   5.680   5.732 -0.5377 -0.2300  0.7701
 6785SOL    HW132009   7.230   5.665   5.673 -0.9597 -1.2385  1.5781
 6785SOL    HW232010   7.328   5.778   5.740 -2.0646  0.0443  1.0695
 6786SOL     OW32011   9.456   9.943   3.838 -0.2487 -0.1846  0.7621
 6786SOL    HW132012   9.469   9.906   3.746 -0.7773  1.9904 -0.2103
 6786SOL    HW232013   9.367   9.915   3.872 -1.0549  0.9281 -0.3635
 6787SOL     OW32014   2.453   0.881   1.962  0.3554  0.4157 -0.1934
 6787SOL    HW132015   2.552   0.886   1.951  0.4005  1.1849  0.4829
 6787SOL    HW232016   2.418   0.972   1.985 -0.4574  0.0628 -0.0388
 6788SOL     OW32017   0.629   4.572   2.075 -0.0789 -0.4764 -0.1190
 6788SOL    HW132018   0.614   4.479   2.109 -0.8514  0.8330  3.4025
 6788SOL    HW232019   0.723   4.600   2.098 -0.3249  0.1117  0.1659
 6789SOL     OW32020   6.458   9.891   4.255  0.1537 -0.3401  0.0457
 6789SOL    HW132021   6.502   9.862   4.340  0.0940  1.6053  0.7689
 6789SOL    HW232022   6.526   9.935   4.196  0.0124 -0.9175 -0.5531
 6790SOL     OW32023   4.315   9.938   0.989  0.5641  0.4072 -0.7294
 6790SOL    HW132024   4.353  10.018   1.035 -2.0672  2.0963 -1.4001
 6790SOL    HW232025   4.222   9.957   0.960  0.9112 -1.8640 -3.5883
 6791SOL     OW32026   8.051   5.262   0.811 -0.4266 -0.3780  0.4278
 6791SOL    HW132027   8.106   5.319   0.750  0.8561  1.1486  2.9366
 6791SOL    HW232028   8.110   5.221   0.880 -1.8981 -1.9155  0.8111
 6792SOL     OW32029   1.507   1.428   0.298 -0.1272 -0.2753 -0.3356
 6792SOL    HW132030   1.474   1.412   0.205 -2.1983  3.1680 -0.2971
 6792SOL    HW232031   1.585   1.489   0.296 -0.6985  0.4875  0.2074
 6793SOL     OW32032   0.788   4.024   5.015  0.3821  0.0933  0.1285
 6793SOL    HW132033   0.734   3.947   4.982 -0.0444  0.6475 -0.4788
 6793SOL    HW232034   0.856   3.992   5.081 -1.4143 -0.4696  1.7430
 6794SOL     OW32035   1.365   1.277   3.383 -0.3672 -0.0308  0.0592
 6794SOL    HW132036   1.408   1.298   3.471 -0.2831  0.3335 -0.0702
 6794SOL    HW232037   1.366   1.178   3.368 -1.7038 -0.2355  1.1538
 6795SOL     OW32038   2.801   3.435   6.079 -0.0942  0.6595  0.1954
 6795SOL    HW132039   2.888   3.396   6.108 -0.2455 -0.4118 -0.7725
 6795SOL    HW232040   2.814   3.532   6.058  1.2637  0.0992 -1.6497
 6796SOL     OW32041   3.579   4.864   2.886 -1.1304 -0.1765  1.0474
 6796SOL    HW132042   3.669   4.821   2.889 -1.6518 -1.2176  2.2838
 6796SOL    HW232043   3.578   4.935   2.816  0.3199 -0.9082  0.2681
 6797SOL     OW32044   0.879   9.278   4.340  0.3117  0.6240  0.5286
 6797SOL    HW132045   0.795   9.269   4.393 -0.6239  0.0193 -1.0080
 6797SOL    HW232046   0.888   9.371   4.306  0.5697  0.8419  1.2012
 6798SOL     OW32047   0.095   2.534   8.142 -0.5907  0.3353 -0.1281
 6798SOL    HW132048   0.141   2.552   8.055 -0.0830  2.6556  0.5812
 6798SOL    HW232049  -0.001   2.563   8.136 -0.2990  1.4261  0.3843
 6799SOL     OW32050   2.919   5.244   5.534 -0.0893  0.1449 -0.0548
 6799SOL    HW132051   2.999   5.184   5.531 -1.3912 -1.7389  1.6940
 6799SOL    HW232052   2.853   5.209   5.600 -3.1790  0.6249 -2.7221
 6800SOL     OW32053   1.473   8.556   3.007 -0.0186 -0.3451  0.1358
 6800SOL    HW132054   1.507   8.471   3.048 -0.5390 -0.4199  0.4173
 6800SOL    HW232055   1.538   8.630   3.025  1.4685 -1.0979 -1.8483
 6801SOL     OW32056   1.441   9.905   4.097  0.1183 -0.0642  0.4345
 6801SOL    HW132057   1.506   9.830   4.111  0.4270  0.3604  1.2876
 6801SOL    HW232058   1.367   9.874   4.038  0.4655 -0.9140  0.4360
 6802SOL     OW32059   0.435   1.150   2.565  0.0903  0.0220 -0.3565
 6802SOL    HW132060   0.383   1.230   2.593  0.3905 -0.1169  0.6203
 6802SOL    HW232061   0.514   1.139   2.625 -0.8277 -1.9176  0.5447
 6803SOL     OW32062   6.853   2.478   3.094  0.1284 -0.5960 -0.2181
 6803SOL    HW132063   6.896   2.388   3.105 -0.1195 -0.6334  0.4368
 6803SOL    HW232064   6.819   2.486   3.000  0.2243 -1.1502 -0.3066
 6804SOL     OW32065   8.919   4.369   0.567 -0.4548  0.3032  0.3011
 6804SOL    HW132066   8.962   4.459   0.576 -1.1221  0.5973  0.6111
 6804SOL    HW232067   8.823   4.376   0.594 -0.8171 -0.2470 -0.8277
 6805SOL     OW32068   0.059   5.775   3.609  0.1715 -0.8023 -0.4563
 6805SOL    HW132069   0.036   5.705   3.541 -0.0414 -0.2025 -1.0112
 6805SOL    HW232070   0.001   5.855   3.595 -0.0678 -0.7874  0.6257
 6806SOL     OW32071   6.947   5.225   7.268 -0.2983 -0.4368  0.4531
 6806SOL    HW132072   7.046   5.226   7.257 -0.5024 -0.8999 -1.6666
 6806SOL    HW232073   6.904   5.275   7.193 -1.5802  2.3441  2.9440
 6807SOL     OW32074   5.186   9.584   5.315 -0.7822 -0.2314 -0.2374
 6807SOL    HW132075   5.226   9.577   5.224  1.2276 -0.3317  0.6206
 6807SOL    HW232076   5.252   9.626   5.377 -2.5748  0.9809  0.9145
 6808SOL     OW32077   1.947   7.923   1.388 -0.0352  0.6440  0.6044
 6808SOL    HW132078   1.963   7.961   1.297  0.7019 -1.3281 -0.1188
 6808SOL    HW232079   1.917   7.995   1.450  0.0888  2.1282 -1.0425
 6809SOL     OW32080   9.850   6.951   6.883  0.3739 -0.1369 -0.1220
 6809SOL    HW132081   9.792   6.940   6.964  2.4600 -0.3487  1.3780
 6809SOL    HW232082   9.811   6.899   6.807 -1.7047  0.1962  0.6770
 6810SOL     OW32083   3.711   7.766   5.731 -0.3247 -0.4697 -0.6063
 6810SOL    HW132084   3.674   7.855   5.704 -1.3773 -0.9158 -0.6900
 6810SOL    HW232085   3.737   7.715   5.649 -0.9654 -0.7516 -0.6403
 6811SOL     OW32086   9.220   7.850   7.642 -0.4680 -0.4559 -0.0191
 6811SOL    HW132087   9.317   7.832   7.654 -0.7339 -1.9756 -0.0042
 6811SOL    HW232088   9.197   7.939   7.680  0.3711 -1.3523  2.6788
 6812SOL     OW32089   9.460   6.171   6.702 -0.2176 -0.1249  0.0766
 6812SOL    HW132090   9.505   6.230   6.769  0.5882  0.7716 -1.2210
 6812SOL    HW232091   9.527   6.138   6.636 -1.0165 -0.8549 -0.3828
 6813SOL     OW32092   0.740   2.655   6.382  0.3095 -0.7942  0.4873
 6813SOL    HW132093   0.723   2.726   6.314 -0.3542 -0.8157  0.6287
 6813SOL    HW232094   0.656   2.604   6.399  0.4359 -0.7040  1.4185
 6814SOL     OW32095   9.185   9.327   2.131 -0.0867 -0.1053 -0.5627
 6814SOL    HW132096   9.267   9.287   2.171 -0.2901 -1.0275 -1.0509
 6814SOL    HW232097   9.119   9.347   2.204 -0.1890 -1.1533 -0.3536
 6815SOL     OW32098   9.111   8.366   3.716  0.1472  0.7532 -0.4566
 6815SOL    HW132099   9.172   8.398   3.788  1.1880  0.8691 -1.3723
 6815SOL    HW232100   9.124   8.422   3.634 -0.1806 -0.0976 -1.1009
 6816SOL     OW32101   4.096   5.087   2.262  0.0592  0.9849  0.3882
 6816SOL    HW132102   4.191   5.088   2.231  0.1887  0.2924  0.7528
 6816SOL    HW232103   4.036   5.067   2.185  0.2829  0.4902  0.3419
 6817SOL     OW32104   1.499   9.539   1.187 -1.0917 -0.0737  0.5812
 6817SOL    HW132105   1.450   9.506   1.106 -1.6798 -0.9929  1.2982
 6817SOL    HW232106   1.448   9.615   1.228 -1.3568 -0.3125  0.6988
 6818SOL     OW32107   4.823   7.159   0.963 -0.2313  0.0309  0.2685
 6818SOL    HW132108   4.848   7.063   0.976  0.9569  0.0608 -1.6499
 6818SOL    HW232109   4.732   7.164   0.922 -0.3907 -0.2548  0.5806
 6819SOL     OW32110   3.996   7.410   4.490 -0.2448  0.7216  0.6310
 6819SOL    HW132111   3.948   7.428   4.575  0.9718  4.2207  0.6450
 6819SOL    HW232112   4.095   7.408   4.506 -0.1075 -2.1190 -0.1477
 6820SOL     OW32113   1.911   8.629   1.889 -0.6115  0.3063 -0.0190
 6820SOL    HW132114   1.920   8.631   1.790  0.4081  2.4954  0.0985
 6820SOL    HW232115   1.820   8.595   1.914 -1.2679  0.8036 -1.7072
 6821SOL     OW32116   0.343   9.495   5.365  0.1219  0.2713  0.5698
 6821SOL    HW132117   0.359   9.502   5.463 -1.1653  0.2113  0.7970
 6821SOL    HW232118   0.388   9.413   5.330 -0.9421 -0.7131  1.4572
 6822SOL     OW32119   4.279   3.499   3.032 -0.5300  0.6138  0.1555
 6822SOL    HW132120   4.329   3.540   2.955 -0.9629 -1.2101 -1.1191
 6822SOL    HW232121   4.330   3.421   3.068 -1.8413 -0.4885 -0.3359
 6823SOL     OW32122   0.849   3.180   7.474  0.8162 -0.2530 -0.2302
 6823SOL    HW132123   0.942   3.203   7.502  0.5747  0.6842 -0.1897
 6823SOL    HW232124   0.831   3.084   7.496  1.6557 -0.3492  0.0684
 6824SOL     OW32125   0.586   8.455   7.399 -0.7668  0.0358  0.1011
 6824SOL    HW132126   0.527   8.508   7.338 -0.8144  1.9542  1.7595
 6824SOL    HW232127   0.531   8.395   7.456 -0.7523 -1.4608 -1.4160
 6825SOL     OW32128   2.421   4.017   3.458  0.1543 -0.1876  0.2129
 6825SOL    HW132129   2.408   3.970   3.371 -1.8979  1.0609 -0.1732
 6825SOL    HW232130   2.383   3.962   3.532 -1.3503  0.3847 -0.1213
 6826SOL     OW32131   8.849   6.758   7.981  0.1310  0.2119 -0.0574
 6826SOL    HW132132   8.849   6.854   7.953  0.5063  0.2227 -0.0138
 6826SOL    HW232133   8.930   6.738   8.036  1.0791 -0.6156 -1.7190
 6827SOL     OW32134   3.112   5.761   1.943 -0.3947  0.4071 -0.0465
 6827SOL    HW132135   3.115   5.747   2.042  0.6596 -0.5095 -0.1924
 6827SOL    HW232136   3.102   5.672   1.898  1.3024  0.6176 -0.8414
 6828SOL     OW32137   1.396   1.712   6.678  0.3847 -0.4423  0.4877
 6828SOL    HW132138   1.461   1.694   6.604  2.0167  0.8295  1.5560
 6828SOL    HW232139   1.343   1.630   6.698  0.8143 -1.1492 -1.2403
 6829SOL     OW32140   2.140   1.686   2.320 -0.5808 -0.0374 -0.3986
 6829SOL    HW132141   2.130   1.778   2.357  0.2519  0.4150 -1.2712
 6829SOL    HW232142   2.054   1.636   2.330 -0.1882 -0.1668  2.7379
 6830SOL     OW32143   2.657   9.643   5.739  0.2642 -0.3911 -0.1442
 6830SOL    HW132144   2.696   9.615   5.827  1.6451 -0.1403 -0.6608
 6830SOL    HW232145   2.698   9.589   5.666 -2.4008 -2.0390 -0.4563
 6831SOL     OW32146   3.747   1.817   5.492  0.8674 -0.0723 -0.4069
 6831SOL    HW132147   3.798   1.732   5.478  1.1899  0.0749 -0.1233
 6831SOL    HW232148   3.703   1.843   5.406  1.5742 -0.0040 -0.7590
 6832SOL     OW32149   1.890   3.219   4.691 -0.0825 -0.5624  0.0890
 6832SOL    HW132150   1.847   3.296   4.737 -0.8970 -0.3229 -1.0399
 6832SOL    HW232151   1.820   3.153   4.662  0.2954 -0.2674 -1.5805
 6833SOL     OW32152   3.181   8.208   6.436 -0.0527 -0.4172 -0.4016
 6833SOL    HW132153   3.162   8.169   6.346 -0.3591 -1.5495  0.1477
 6833SOL    HW232154   3.101   8.198   6.494 -1.0169  3.2209 -0.9662
 6834SOL     OW32155   5.024   0.585   2.831  0.0186 -0.1531  0.5721
 6834SOL    HW132156   5.005   0.646   2.908  2.2720 -0.1026  1.1082
 6834SOL    HW232157   5.099   0.621   2.777  0.8601 -2.0232  0.4445
 6835SOL     OW32158   0.774   7.317   2.587 -0.8312 -0.5454 -0.6015
 6835SOL    HW132159   0.781   7.238   2.526 -2.0837 -1.2981  0.2000
 6835SOL    HW232160   0.768   7.401   2.532  0.4959 -0.9998 -1.4589
 6836SOL     OW32161   3.079   8.510   6.156 -0.0217  0.0730 -0.7170
 6836SOL    HW132162   3.028   8.487   6.073 -1.1630  0.4328 -0.1230
 6836SOL    HW232163   3.025   8.483   6.236  0.4382  1.0465 -0.0771
 6837SOL     OW32164   4.369   7.387   1.387  0.2868 -0.0925  0.1344
 6837SOL    HW132165   4.273   7.379   1.360  0.4992 -0.5806 -0.4823
 6837SOL    HW232166   4.419   7.307   1.356  0.7324 -0.2171  1.1707
 6838SOL     OW32167   0.029   0.571   6.157  0.3000 -0.2498  0.1507
 6838SOL    HW132168   0.091   0.649   6.156 -0.5212  0.4240  0.3217
 6838SOL    HW232169   0.026   0.529   6.066  1.1801 -0.4331  0.2107
 6839SOL     OW32170   2.735   5.567   7.912  0.2110 -0.5877 -0.2416
 6839SOL    HW132171   2.738   5.665   7.934 -0.5712 -0.3328 -1.2396
 6839SOL    HW232172   2.640   5.536   7.911  0.4122 -1.2011 -0.6544
 6840SOL     OW32173   7.932   7.529   3.547  0.4408 -0.0454 -0.1268
 6840SOL    HW132174   8.000   7.523   3.620  1.9642  0.1797 -1.5007
 6840SOL    HW232175   7.935   7.621   3.506 -1.2965  0.2496  0.3690
 6841SOL     OW32176   3.126   2.297   7.383 -0.1490  0.3043 -0.1839
 6841SOL    HW132177   3.209   2.242   7.376 -1.0516 -0.8537 -1.9907
 6841SOL    HW232178   3.150   2.389   7.414  1.4729 -0.8121  2.0657
 6842SOL     OW32179   7.021   1.898   8.199  0.3720 -0.2164  0.0308
 6842SOL    HW132180   7.072   1.959   8.137 -1.2763 -0.2470 -1.3730
 6842SOL    HW232181   6.931   1.880   8.161 -1.0379  0.5100  2.9000
 6843SOL     OW32182   2.073   0.596   5.472 -0.0575 -0.1461  0.4857
 6843SOL    HW132183   2.008   0.670   5.452 -0.5038 -0.0314  2.2712
 6843SOL    HW232184   2.159   0.614   5.423 -0.7863  0.5884 -0.5522
 6844SOL     OW32185   2.825   7.328   7.970 -0.5776  0.1093 -0.1903
 6844SOL    HW132186   2.914   7.324   7.925 -0.0795  0.5916  0.7406
 6844SOL    HW232187   2.817   7.252   8.035 -0.7489  0.1942 -0.1126
 6845SOL     OW32188   2.066   9.297   3.902  0.2803 -0.0773 -0.2667
 6845SOL    HW132189   2.047   9.200   3.884  0.8964 -0.0059 -1.3239
 6845SOL    HW232190   2.001   9.353   3.850 -1.1413  0.0655  1.6190
 6846SOL     OW32191   9.647   4.303   3.077 -0.7687 -0.2251  0.4480
 6846SOL    HW132192   9.659   4.403   3.072 -1.0683 -0.2220 -0.1773
 6846SOL    HW232193   9.737   4.259   3.072 -0.6120  0.0185  0.9878
 6847SOL     OW32194   4.620   7.507   5.821 -0.0349  0.0888 -0.6606
 6847SOL    HW132195   4.631   7.588   5.763 -0.4455  0.7215  0.1321
 6847SOL    HW232196   4.548   7.449   5.783 -1.8570  1.5893  0.3913
 6848SOL     OW32197   0.565   3.623   2.604  0.1423  0.3001  0.3861
 6848SOL    HW132198   0.501   3.601   2.530 -0.9338 -2.1555  1.9741
 6848SOL    HW232199   0.558   3.720   2.627 -0.6636  0.7356 -1.6409
 6849SOL     OW32200   4.905   1.558   5.587 -0.3834 -0.1183 -0.6435
 6849SOL    HW132201   4.857   1.487   5.638 -0.4591  0.1519 -0.3401
 6849SOL    HW232202   4.966   1.608   5.649 -1.1851  0.8379 -0.6118
 6850SOL     OW32203   2.142   2.198   5.430  0.6755 -0.4377  0.2556
 6850SOL    HW132204   2.065   2.213   5.369  0.2959 -0.5963  0.6954
 6850SOL    HW232205   2.212   2.268   5.413 -0.4485  0.9537  1.2614
 6851SOL     OW32206   3.754   5.501   6.021 -0.2407  0.0157  0.4166
 6851SOL    HW132207   3.770   5.558   6.102  1.3849  2.0245 -1.2745
 6851SOL    HW232208   3.840   5.461   5.991 -0.3626  1.3216 -1.7743
 6852SOL     OW32209   2.190   4.512   5.963  0.4388 -0.1464  0.3255
 6852SOL    HW132210   2.191   4.447   6.040 -0.8743 -1.7556 -0.9648
 6852SOL    HW232211   2.154   4.600   5.994 -0.4456 -0.8920  1.4686
 6853SOL     OW32212   9.702   7.039   1.096 -0.0122  0.3301  0.5275
 6853SOL    HW132213   9.677   6.996   1.010  2.1759 -1.0254  0.5407
 6853SOL    HW232214   9.667   7.133   1.098  1.2832  0.9135 -2.5061
 6854SOL     OW32215   8.508   8.517   0.024 -0.5376  0.2292 -0.4819
 6854SOL    HW132216   8.501   8.448  -0.047 -0.3718  0.7871 -1.0417
 6854SOL    HW232217   8.562   8.482   0.100  0.6409  0.2045 -1.3239
 6855SOL     OW32218   9.585   9.295   5.195  0.2836 -0.2826 -0.0201
 6855SOL    HW132219   9.619   9.296   5.101  2.9574  2.8340  0.8792
 6855SOL    HW232220   9.594   9.202   5.232  1.2949 -1.0640 -2.1167
 6856SOL     OW32221   0.167   4.751   3.061 -1.1024 -0.2185 -0.0421
 6856SOL    HW132222   0.135   4.783   3.150 -0.1512 -0.4669  0.3929
 6856SOL    HW232223   0.259   4.785   3.044 -1.2769 -0.1699 -0.9405
 6857SOL     OW32224   7.483   0.336   6.277 -0.2076 -0.1631 -0.7554
 6857SOL    HW132225   7.514   0.430   6.266 -1.6511  0.6565  1.7795
 6857SOL    HW232226   7.492   0.287   6.190  1.2330  2.0858 -1.9115
 6858SOL     OW32227   8.673   6.771   3.859  0.4444 -0.4402 -0.1232
 6858SOL    HW132228   8.585   6.764   3.906  0.2011 -1.0546 -0.6525
 6858SOL    HW232229   8.741   6.715   3.906  0.5022 -0.1026  0.1882
 6859SOL     OW32230   2.619   3.586   1.449  0.1975  0.7078  0.2595
 6859SOL    HW132231   2.558   3.577   1.370  0.6944  0.0322 -0.0493
 6859SOL    HW232232   2.710   3.612   1.418  0.5658 -0.2229  0.5518
 6860SOL     OW32233   7.902   3.550   3.158  0.0071  0.5413 -0.4450
 6860SOL    HW132234   7.816   3.585   3.120  0.2620  1.4954 -0.1626
 6860SOL    HW232235   7.887   3.457   3.193 -1.1487  1.0554  0.4689
 6861SOL     OW32236   3.786   4.951   6.629  0.0294 -0.0004 -0.4520
 6861SOL    HW132237   3.824   4.866   6.666 -0.1676  1.1172  2.4348
 6861SOL    HW232238   3.861   5.013   6.604  0.1551 -0.5151 -1.3763
 6862SOL     OW32239   0.124   0.384   4.535 -0.4838  0.2544 -0.1978
 6862SOL    HW132240   0.155   0.478   4.547 -0.5918  0.4309 -1.2531
 6862SOL    HW232241   0.197   0.329   4.495  0.0481 -0.4521  1.6668
 6863SOL     OW32242   1.248   5.772   6.715  0.0952  0.2539  0.1004
 6863SOL    HW132243   1.305   5.812   6.643  0.5479  0.0532  0.3432
 6863SOL    HW232244   1.213   5.845   6.773  0.3930  0.3519  0.1585
 6864SOL     OW32245   8.516   8.454   6.168 -0.1808 -0.2647  0.8095
 6864SOL    HW132246   8.463   8.391   6.110 -0.7205 -0.7027  1.7676
 6864SOL    HW232247   8.614   8.439   6.152 -0.3266 -0.1499 -0.2288
 6865SOL     OW32248   2.805   2.603   3.578  0.3365  0.1348 -0.1956
 6865SOL    HW132249   2.880   2.645   3.628 -0.1438 -0.7259  1.2719
 6865SOL    HW232250   2.811   2.503   3.586 -1.2954  0.0730  0.4567
 6866SOL     OW32251   1.028   9.532   5.814 -0.4267  0.3838  0.1191
 6866SOL    HW132252   0.950   9.480   5.779  1.7153 -2.7419 -0.2016
 6866SOL    HW232253   1.043   9.612   5.756 -2.4497  0.1745 -0.7276
 6867SOL     OW32254   2.122   8.247   7.070  0.1738 -0.1634 -0.2201
 6867SOL    HW132255   2.078   8.241   7.160  0.4415  1.9979  0.1022
 6867SOL    HW232256   2.052   8.265   7.000  0.1563 -0.1434 -0.1979
 6868SOL     OW32257   7.463   2.360   0.686 -0.3408 -0.1716 -0.1339
 6868SOL    HW132258   7.413   2.446   0.678 -0.0882 -0.1754 -1.8956
 6868SOL    HW232259   7.561   2.379   0.684 -0.2695 -0.3275  1.4833
 6869SOL     OW32260   8.973   1.488   7.416  0.4673 -0.2132 -0.0089
 6869SOL    HW132261   8.931   1.539   7.341  0.9943  0.3571  0.0804
 6869SOL    HW232262   8.951   1.391   7.406 -0.7151  0.0482 -0.0639
 6870SOL     OW32263   6.742   7.612   4.635  0.5149  0.1748  0.4651
 6870SOL    HW132264   6.756   7.707   4.606 -0.2042  0.8264  2.2155
 6870SOL    HW232265   6.700   7.610   4.726 -2.6156 -1.7641 -0.9279
 6871SOL     OW32266   9.553   1.888   5.083  0.4824  0.3554 -0.0120
 6871SOL    HW132267   9.586   1.946   5.158 -0.1308 -1.7775  1.9773
 6871SOL    HW232268   9.467   1.924   5.048  1.2134  1.8588 -0.3059
 6872SOL     OW32269   6.373   8.545   6.560 -0.0112  0.0254 -0.2439
 6872SOL    HW132270   6.336   8.637   6.551 -0.3057  0.2140  2.6646
 6872SOL    HW232271   6.448   8.545   6.626 -0.4524 -1.9441  0.2896
 6873SOL     OW32272   5.775   9.975   2.080  0.8934  0.1348 -0.1905
 6873SOL    HW132273   5.811   9.932   1.998  2.1449  0.9228 -0.0846
 6873SOL    HW232274   5.686   9.937   2.102  1.4003 -1.4606 -0.8156
 6874SOL     OW32275   9.989   8.548   0.490 -0.4020 -0.2788  0.1457
 6874SOL    HW132276   9.968   8.474   0.427  0.2543 -0.9523  0.7082
 6874SOL    HW232277   9.905   8.596   0.515 -0.7418 -0.4018 -0.7506
 6875SOL     OW32278   2.873   1.369   3.104 -0.2408  0.1399  0.3785
 6875SOL    HW132279   2.928   1.345   3.024  0.8166 -1.0494  1.4372
 6875SOL    HW232280   2.777   1.348   3.086 -0.0331  0.0813 -0.6554
 6876SOL     OW32281   3.703   4.258   3.810 -0.5102  0.0783  0.1700
 6876SOL    HW132282   3.737   4.335   3.756  1.1881 -0.4817  0.4098
 6876SOL    HW232283   3.650   4.197   3.751  0.1753  0.1844 -0.5654
 6877SOL     OW32284   8.360   9.197   2.615  0.2500 -0.3608 -0.1230
 6877SOL    HW132285   8.353   9.280   2.671 -1.0542 -0.3291 -0.3063
 6877SOL    HW232286   8.404   9.125   2.667 -0.1531 -0.0599  0.6388
 6878SOL     OW32287   3.234   7.772   4.510  0.4997  0.0879  0.4243
 6878SOL    HW132288   3.252   7.677   4.533  0.7093  0.1390  0.4735
 6878SOL    HW232289   3.187   7.817   4.586  0.3210 -0.0012  0.3641
 6879SOL     OW32290   8.369   5.267   2.612  0.6306 -0.0610  0.0864
 6879SOL    HW132291   8.437   5.279   2.684 -0.4461  3.0627  0.6897
 6879SOL    HW232292   8.280   5.246   2.653  0.5249 -0.7369 -0.4841
 6880SOL     OW32293   2.508   4.021   2.475 -0.2254  0.0828  0.1823
 6880SOL    HW132294   2.497   3.930   2.435  1.9714 -0.5862  1.0382
 6880SOL    HW232295   2.600   4.055   2.456 -1.1540  2.3188 -0.4791
 6881SOL     OW32296   1.120   3.409   4.477 -0.2899 -0.1967  0.0805
 6881SOL    HW132297   1.085   3.431   4.386  0.9471  0.6298 -0.2113
 6881SOL    HW232298   1.046   3.372   4.533 -0.8890 -1.4624 -1.4979
 6882SOL     OW32299   4.004   6.934   1.590  0.4664 -0.0604  0.1094
 6882SOL    HW132300   4.074   6.904   1.526  1.1672  1.2452  0.2500
 6882SOL    HW232301   3.928   6.974   1.541  1.1836  1.3131  0.0980
 6883SOL     OW32302   6.987   2.967   0.676  0.4637 -0.1334 -0.2107
 6883SOL    HW132303   7.010   2.886   0.729 -0.3669  0.1257  0.5614
 6883SOL    HW232304   6.901   2.952   0.626 -0.1521  0.5599  0.6132
 6884SOL     OW32305   4.645   7.775   6.303  0.7211  0.1527  0.4180
 6884SOL    HW132306   4.639   7.728   6.215 -0.1928 -0.4353  0.7789
 6884SOL    HW232307   4.628   7.873   6.291 -1.0524 -0.1577  0.1371
 6885SOL     OW32308   7.570   4.774   7.709  0.3361 -0.5368  0.3071
 6885SOL    HW132309   7.470   4.768   7.718  0.0202  2.5050 -0.5057
 6885SOL    HW232310   7.608   4.811   7.793  0.6636 -0.5921  0.1831
 6886SOL     OW32311   3.171   0.404   5.521  0.4024  0.2286 -0.4121
 6886SOL    HW132312   3.201   0.332   5.460  2.2063  1.1899 -0.6816
 6886SOL    HW232313   3.163   0.490   5.470 -0.0181  0.6027  0.2757
 6887SOL     OW32314   3.996   5.118   6.571  0.3334  0.1369  0.3623
 6887SOL    HW132315   4.005   5.218   6.562  1.2125 -0.0264 -0.6801
 6887SOL    HW232316   4.048   5.087   6.649 -1.0235  0.6447  1.4986
 6888SOL     OW32317   4.032   6.250   0.581  0.2887 -0.1938  0.3509
 6888SOL    HW132318   3.938   6.273   0.606  0.1364 -0.7968  0.3394
 6888SOL    HW232319   4.048   6.273   0.485  0.2229  0.1328  0.4195
 6889SOL     OW32320   0.984   9.520   3.501 -0.0038  0.1483  0.1371
 6889SOL    HW132321   0.988   9.575   3.585  0.1590 -1.6835  1.3500
 6889SOL    HW232322   0.894   9.477   3.494 -0.0514  0.3813 -0.6905
 6890SOL     OW32323   1.202   4.545   1.473 -0.4738  0.0501  0.0779
 6890SOL    HW132324   1.192   4.455   1.516  0.3002 -0.5385 -0.9539
 6890SOL    HW232325   1.201   4.535   1.374 -1.8033  1.3553 -0.0641
 6891SOL     OW32326   2.604   7.249   4.378  0.3580 -0.3019 -0.2128
 6891SOL    HW132327   2.646   7.166   4.341  0.0261 -1.1626  1.2858
 6891SOL    HW232328   2.551   7.295   4.306 -0.4402 -2.0365 -0.7593
 6892SOL     OW32329   0.603   0.548   2.791 -0.1356 -0.0421  0.6755
 6892SOL    HW132330   0.682   0.609   2.795 -0.1824  0.1415 -0.8172
 6892SOL    HW232331   0.530   0.584   2.848  0.2272  0.7460  0.6453
 6893SOL     OW32332   1.681   9.135   3.753  0.2795 -0.2592  0.2147
 6893SOL    HW132333   1.734   9.141   3.838  0.9448  0.4036 -0.2435
 6893SOL    HW232334   1.584   9.140   3.775  0.4501  0.0819  0.9193
 6894SOL     OW32335   3.844   8.009   4.538  0.2507  0.0014 -0.1191
 6894SOL    HW132336   3.830   8.000   4.636 -1.2396  0.7917 -0.2525
 6894SOL    HW232337   3.762   7.979   4.489  0.5123  0.8099 -1.0775
 6895SOL     OW32338   3.423   5.325   2.240  0.2288 -0.1170  0.3165
 6895SOL    HW132339   3.427   5.419   2.209  1.6253  0.3691  1.8856
 6895SOL    HW232340   3.463   5.265   2.171  0.6491  0.5984 -0.0612
 6896SOL     OW32341   2.143   5.913   2.373 -0.1489 -0.0488 -0.0341
 6896SOL    HW132342   2.205   5.978   2.417  0.7292 -0.5667 -0.5013
 6896SOL    HW232343   2.136   5.935   2.276 -1.4859  0.6185  0.1931
 6897SOL     OW32344   9.258   6.795   0.045 -0.3147 -0.5828  0.5420
 6897SOL    HW132345   9.321   6.829  -0.025  0.6688 -1.0030  1.2003
 6897SOL    HW232346   9.211   6.872   0.088 -1.3225 -0.3586 -0.9309
 6898SOL     OW32347   5.128   1.221   6.828 -0.6534 -0.3867  0.2141
 6898SOL    HW132348   5.070   1.250   6.751  0.6484  0.5005 -0.4468
 6898SOL    HW232349   5.111   1.280   6.906 -0.1702  0.3035 -0.1937
 6899SOL     OW32350   6.883   9.051   5.966  0.1707 -0.2357 -0.0308
 6899SOL    HW132351   6.790   9.060   6.002  1.0255 -0.2183  2.2989
 6899SOL    HW232352   6.926   8.970   6.005  1.1224 -0.2824 -1.1381
 6900SOL     OW32353   8.008   8.412   2.990  0.3364  0.3124 -0.2388
 6900SOL    HW132354   7.910   8.414   2.972  0.2342  0.5307  0.3579
 6900SOL    HW232355   8.050   8.337   2.938 -0.1698  0.1108 -0.3577
 6901SOL     OW32356   1.095   8.285   4.220 -0.0062  0.0549  0.1671
 6901SOL    HW132357   1.173   8.278   4.157  0.3967 -0.5005  0.7225
 6901SOL    HW232358   1.044   8.199   4.219 -0.6531  0.4404 -0.2447
 6902SOL     OW32359   0.175   7.955   5.495  0.0057  0.0069 -0.3942
 6902SOL    HW132360   0.130   7.947   5.584  1.3195  2.2600  0.5101
 6902SOL    HW232361   0.114   8.002   5.431 -0.1748  0.1395 -0.1255
 6903SOL     OW32362   1.929   6.787   5.722 -0.0497  0.0455 -0.2826
 6903SOL    HW132363   1.984   6.706   5.742  0.5623  1.2993  3.4070
 6903SOL    HW232364   1.837   6.759   5.696  0.3968 -1.8446  0.1129
 6904SOL     OW32365   7.689   1.031   3.167  0.0034 -0.6004  0.0412
 6904SOL    HW132366   7.705   0.944   3.122  2.4158  0.3307 -0.9277
 6904SOL    HW232367   7.656   1.098   3.100  0.7703 -0.0158  0.2520
 6905SOL     OW32368   6.061   0.134   2.009 -0.0648 -0.8956  0.1365
 6905SOL    HW132369   6.031   0.127   2.104 -2.4071  0.3490 -0.4715
 6905SOL    HW232370   5.990   0.098   1.948  0.5904  0.0681 -1.2291
 6906SOL     OW32371   0.197   0.847   1.115  0.4928 -0.0113 -0.1397
 6906SOL    HW132372   0.124   0.846   1.183  0.0905 -0.1683 -0.5739
 6906SOL    HW232373   0.172   0.910   1.041  0.9732  0.2354 -0.0929
 6907SOL     OW32374   7.090   9.421   6.096  0.2076 -0.3957 -0.0081
 6907SOL    HW132375   7.164   9.366   6.135  0.2166 -1.1790 -1.1265
 6907SOL    HW232376   7.105   9.517   6.118  0.2171 -0.8231  1.9258
 6908SOL     OW32377   3.414   2.330   1.478 -0.5804 -0.0881  0.6312
 6908SOL    HW132378   3.438   2.249   1.531 -0.1406  0.5264  1.3783
 6908SOL    HW232379   3.323   2.319   1.439 -1.4433  0.0074  2.5943
 6909SOL     OW32380   3.353   2.166   6.976  0.0839 -0.2465 -0.6798
 6909SOL    HW132381   3.267   2.209   7.004 -0.5712 -1.3881 -0.8940
 6909SOL    HW232382   3.385   2.208   6.891 -0.3310  0.1221 -0.6545
 6910SOL     OW32383   2.824   9.272   5.932 -0.3203 -0.2589  0.2265
 6910SOL    HW132384   2.905   9.320   5.899 -0.3174 -0.4668 -0.0647
 6910SOL    HW232385   2.844   9.227   6.019  0.0813 -0.9168 -0.2075
 6911SOL     OW32386   4.404   9.688   6.569  0.0233 -0.5193  0.0014
 6911SOL    HW132387   4.485   9.742   6.550  0.6013 -1.4104 -0.0716
 6911SOL    HW232388   4.421   9.592   6.547 -0.4910 -0.9827  1.5269
 6912SOL     OW32389   9.858   7.415   6.826 -0.2401 -0.0505 -0.0525
 6912SOL    HW132390   9.926   7.475   6.784 -1.4435  0.4588 -1.3139
 6912SOL    HW232391   9.784   7.400   6.761  0.2213 -3.2190  0.1099
 6913SOL     OW32392   4.605   9.923   2.832 -0.2608 -0.1286 -0.0748
 6913SOL    HW132393   4.607  10.020   2.856 -1.6403 -0.0080 -0.4010
 6913SOL    HW232394   4.699   9.890   2.821  0.2354  1.0823  0.3492
 6914SOL     OW32395   8.656   7.345   7.286  0.2548 -0.5119 -0.7454
 6914SOL    HW132396   8.703   7.258   7.271  1.2868 -0.0965  0.0356
 6914SOL    HW232397   8.558   7.333   7.269  0.2873 -1.9967  0.0388
 6915SOL     OW32398   5.911   0.958   6.548 -0.5135  0.0808  0.3260
 6915SOL    HW132399   5.963   1.043   6.562 -2.5767  1.6532 -1.2862
 6915SOL    HW232400   5.946   0.888   6.610  1.6864  1.8960  1.2306
 6916SOL     OW32401   8.065   3.452   7.102 -0.0223  0.3769  0.1184
 6916SOL    HW132402   8.024   3.362   7.119  0.1375  0.1863 -0.4809
 6916SOL    HW232403   8.154   3.457   7.149 -0.8260  0.8875  1.6323
 6917SOL     OW32404   3.994   7.498   2.528 -0.0719 -0.0702  0.3278
 6917SOL    HW132405   4.057   7.552   2.584  2.3594 -1.3134 -1.1289
 6917SOL    HW232406   3.968   7.550   2.447  1.3771 -0.6322 -0.5084
 6918SOL     OW32407   6.010   9.065   5.640  0.0191  0.6195  0.8411
 6918SOL    HW132408   5.923   9.039   5.681  0.5109  1.3940  2.4227
 6918SOL    HW232409   6.053   8.985   5.599 -0.5710 -0.1333  1.6865
 6919SOL     OW32410   4.560   3.847   5.376  0.1799  0.5652 -0.1266
 6919SOL    HW132411   4.563   3.772   5.311  0.2699  1.1075 -0.7558
 6919SOL    HW232412   4.588   3.814   5.466 -0.3985 -0.2902 -0.2539
 6920SOL     OW32413   9.200   2.817   6.727 -0.0035 -0.2586 -0.0475
 6920SOL    HW132414   9.126   2.791   6.665 -1.9059  2.0634  1.1442
 6920SOL    HW232415   9.205   2.751   6.802 -0.4485 -0.7873 -0.4747
 6921SOL     OW32416   1.022   5.154   8.050  0.5792  0.3153 -0.1741
 6921SOL    HW132417   0.944   5.188   8.102 -1.5533 -1.6213 -2.0023
 6921SOL    HW232418   1.018   5.190   7.957  2.1876  0.6146 -0.1416
 6922SOL     OW32419   9.899   6.826   0.046  0.0950  0.0357 -0.3184
 6922SOL    HW132420   9.980   6.768   0.037 -0.3262 -0.8650  1.3971
 6922SOL    HW232421   9.826   6.791  -0.013  0.7476  0.4965 -1.4120
 6923SOL     OW32422   7.029   0.262   3.667  0.3501 -0.0959  0.0398
 6923SOL    HW132423   7.077   0.181   3.634 -0.4245 -0.7557  0.5087
 6923SOL    HW232424   6.931   0.253   3.647  0.2104  0.5612  0.4104
 6924SOL     OW32425   4.425   8.550   5.932 -0.0400  0.4721 -0.2784
 6924SOL    HW132426   4.443   8.497   5.850  1.2229 -2.0304  1.5527
 6924SOL    HW232427   4.475   8.636   5.928  1.1961 -0.2896 -1.4565
 6925SOL     OW32428   0.263   0.965   7.376  0.3355 -0.6932  0.1483
 6925SOL    HW132429   0.184   0.988   7.431 -0.5859 -1.0990 -0.9763
 6925SOL    HW232430   0.328   1.040   7.376 -0.3290 -0.1228  0.5977
 6926SOL     OW32431   4.025   4.778   7.936  0.0045 -0.0910  0.1105
 6926SOL    HW132432   4.005   4.802   8.031 -0.3831  1.2750 -0.2950
 6926SOL    HW232433   3.998   4.854   7.876  1.5031 -0.3687 -0.9577
 6927SOL     OW32434   1.299   3.064   6.577  0.3089 -0.0046 -0.1854
 6927SOL    HW132435   1.346   2.992   6.526 -1.7312 -1.8696  0.4843
 6927SOL    HW232436   1.213   3.028   6.614 -0.9400  2.8880 -0.1473
 6928SOL     OW32437   0.310   5.274   0.262 -0.1727  0.1970  0.2035
 6928SOL    HW132438   0.327   5.287   0.165  1.3586  1.7988  0.6543
 6928SOL    HW232439   0.356   5.191   0.293 -0.6252 -0.2900 -0.4104
 6929SOL     OW32440   4.530   7.442   4.875  0.1848  0.3185  0.6161
 6929SOL    HW132441   4.459   7.404   4.934  2.7796 -0.2989  3.4723
 6929SOL    HW232442   4.566   7.370   4.815 -1.3524  0.5596 -0.6091
 6930SOL     OW32443   3.026   4.289   4.518 -0.3034  0.1567  0.0408
 6930SOL    HW132444   3.063   4.381   4.528 -2.0247  0.8049  0.5585
 6930SOL    HW232445   2.929   4.294   4.498 -0.0498 -1.5210 -1.7684
 6931SOL     OW32446   1.221   6.964   5.149 -0.3958  0.0222 -0.0964
 6931SOL    HW132447   1.215   7.025   5.070 -0.9393  1.0747  0.7468
 6931SOL    HW232448   1.299   6.902   5.138  0.2987  1.0203 -0.8602
 6932SOL     OW32449   7.052   5.885   6.190 -0.0466  0.5738  0.5886
 6932SOL    HW132450   7.012   5.811   6.244 -0.7059 -0.1039 -0.8120
 6932SOL    HW232451   7.116   5.937   6.247 -1.2453  0.3083  2.2105
 6933SOL     OW32452   9.246   8.139   2.125  0.1599  0.0718 -0.4163
 6933SOL    HW132453   9.283   8.155   2.033 -0.4113 -3.1378 -1.2759
 6933SOL    HW232454   9.311   8.173   2.193  1.8936 -0.0161 -1.9769
 6934SOL     OW32455   6.268   2.408   3.942  0.7107 -0.1356 -0.0218
 6934SOL    HW132456   6.307   2.485   3.891 -1.2792  0.3552 -0.8693
 6934SOL    HW232457   6.273   2.325   3.886 -0.4121  0.1548 -0.5624
 6935SOL     OW32458   1.994   6.761   6.998  0.0512  0.1043 -0.4203
 6935SOL    HW132459   2.062   6.711   6.944  0.0157  1.2241 -1.5131
 6935SOL    HW232460   1.938   6.695   7.050  1.4608 -0.8614 -0.0930
 6936SOL     OW32461   9.537   1.028   7.127 -0.0415 -0.0075 -0.1045
 6936SOL    HW132462   9.549   0.932   7.153 -2.5708  0.1554  1.8937
 6936SOL    HW232463   9.505   1.080   7.206 -0.3073  2.1516 -1.5966
 6937SOL     OW32464   1.607   8.695   1.437  0.0256  0.1775  0.0810
 6937SOL    HW132465   1.646   8.606   1.417 -0.1111  0.5486 -1.9649
 6937SOL    HW232466   1.614   8.714   1.535  0.2830 -1.9511  0.4931
 6938SOL     OW32467   4.268   3.319   5.058 -0.5836  0.3537  0.0437
 6938SOL    HW132468   4.251   3.236   5.111 -1.6933  0.9384  0.6025
 6938SOL    HW232469   4.364   3.344   5.066 -0.4550 -0.3232  0.6804
 6939SOL     OW32470   2.387   3.544   7.577  0.1683 -0.5011  0.0526
 6939SOL    HW132471   2.343   3.604   7.644 -0.1009 -1.0622  0.3888
 6939SOL    HW232472   2.486   3.546   7.590  0.3006  1.2153 -1.0793
 6940SOL     OW32473   1.141   5.165   1.102  0.2805 -0.6503 -0.3625
 6940SOL    HW132474   1.077   5.225   1.055  0.3529  0.1367  0.5195
 6940SOL    HW232475   1.091   5.099   1.159  0.2420 -0.4236 -0.1349
 6941SOL     OW32476   0.767   3.573   1.720 -0.4352 -0.0880  0.1866
 6941SOL    HW132477   0.862   3.602   1.728 -0.2622 -0.3024 -0.9956
 6941SOL    HW232478   0.758   3.477   1.747  0.3709 -1.1946 -3.2566
 6942SOL     OW32479   2.756   1.447   6.420  0.5246  0.4041 -0.1732
 6942SOL    HW132480   2.763   1.496   6.333 -0.2836  2.7693  1.0565
 6942SOL    HW232481   2.662   1.413   6.432  0.4291  0.7595  0.1120
 6943SOL     OW32482   8.836   1.509   7.849 -0.1506 -0.0676  0.0067
 6943SOL    HW132483   8.917   1.481   7.798 -1.8136 -3.5538 -0.8918
 6943SOL    HW232484   8.776   1.563   7.790  0.1803  0.0272 -0.2416
 6944SOL     OW32485   9.117   5.396   0.038  0.3080  0.1467  0.1024
 6944SOL    HW132486   9.065   5.353   0.112 -0.2215 -0.1910 -0.4592
 6944SOL    HW232487   9.168   5.326  -0.012  0.4866  0.3459  0.0064
 6945SOL     OW32488   8.004   2.495   1.449  0.1328  0.0901  0.3283
 6945SOL    HW132489   8.012   2.439   1.532 -1.5635 -1.7538 -0.7128
 6945SOL    HW232490   8.072   2.466   1.383  1.1239  1.1991  0.8319
 6946SOL     OW32491   8.631   9.301   0.198 -0.6386 -0.5499 -0.7259
 6946SOL    HW132492   8.649   9.377   0.259 -0.6664  0.7851 -2.3459
 6946SOL    HW232493   8.716   9.268   0.158 -0.7480 -0.5529 -0.9634
 6947SOL     OW32494   3.318   3.115   7.217  0.1514  0.1655  0.0998
 6947SOL    HW132495   3.238   3.145   7.165 -1.3230 -4.6981 -0.6854
 6947SOL    HW232496   3.297   3.115   7.315 -0.5748 -0.4687 -0.0570
 6948SOL     OW32497   0.524   8.676   4.186  0.2369  0.5372 -0.0462
 6948SOL    HW132498   0.552   8.587   4.150 -0.6853  0.9360 -1.7754
 6948SOL    HW232499   0.579   8.748   4.145  1.3235  0.7673  1.7251
 6949SOL     OW32500   1.282   4.513   6.629  0.2303 -0.3651  0.5924
 6949SOL    HW132501   1.264   4.440   6.563 -1.3395  1.0931 -0.6534
 6949SOL    HW232502   1.233   4.494   6.714  0.8932 -1.4205  0.7415
 6950SOL     OW32503   4.564   1.167   2.800 -0.5877 -0.0091 -0.3389
 6950SOL    HW132504   4.520   1.085   2.835 -1.6055  0.6639 -0.0322
 6950SOL    HW232505   4.511   1.248   2.826  0.5601  0.7713 -0.3773
 6951SOL     OW32506   0.911   5.676   0.774  0.4200 -0.0686  0.1574
 6951SOL    HW132507   0.942   5.581   0.771  0.6552  0.0228 -0.5079
 6951SOL    HW232508   0.833   5.688   0.713  0.6163  0.2429 -0.0370
 6952SOL     OW32509   7.070   2.930   3.276 -0.1424 -0.5085 -0.5384
 6952SOL    HW132510   7.010   2.862   3.318  1.3667 -1.2619  0.4388
 6952SOL    HW232511   7.073   2.914   3.177 -2.2078  0.0810 -0.7218
 6953SOL     OW32512   1.843   1.623   6.711 -0.7181 -0.4497 -0.0351
 6953SOL    HW132513   1.915   1.692   6.718  1.2532 -2.4230 -0.3702
 6953SOL    HW232514   1.833   1.576   6.799 -0.2493 -1.4697 -0.5120
 6954SOL     OW32515   2.466   4.489   6.167 -0.3496 -0.3480  1.2266
 6954SOL    HW132516   2.427   4.406   6.126 -0.5071  0.2730  0.1007
 6954SOL    HW232517   2.449   4.488   6.265  0.9782 -2.3852  1.4592
 6955SOL     OW32518   6.528   1.122   1.040 -0.5788  0.4858 -0.6091
 6955SOL    HW132519   6.572   1.044   1.084 -0.6849  0.9254  0.2757
 6955SOL    HW232520   6.443   1.145   1.088 -1.1733  0.3811 -1.6023
 6956SOL     OW32521   9.725   5.606   4.739  0.1434 -0.4326  0.0654
 6956SOL    HW132522   9.728   5.509   4.714  2.2180  0.0438 -1.7057
 6956SOL    HW232523   9.669   5.656   4.672  1.5649  0.0519 -0.7805
 6957SOL     OW32524   3.770   0.154   0.226 -0.0766 -0.5656 -0.2237
 6957SOL    HW132525   3.808   0.089   0.292 -1.1471  1.1114  2.1413
 6957SOL    HW232526   3.671   0.143   0.222  0.0529 -1.1675 -2.1656
 6958SOL     OW32527   4.455   4.593   0.939 -0.1612 -0.2210 -0.2876
 6958SOL    HW132528   4.494   4.684   0.928 -2.8278  1.1940  1.3980
 6958SOL    HW232529   4.404   4.589   1.025  2.6152 -4.3392  1.3185
 6959SOL     OW32530   2.281   4.576   4.691  0.6579 -0.1959 -0.2393
 6959SOL    HW132531   2.326   4.514   4.626  2.1281  0.5090  0.0672
 6959SOL    HW232532   2.302   4.548   4.784 -1.9958 -1.5955 -0.0096
 6960SOL     OW32533   2.818   9.319   5.180 -0.4757  0.0967 -0.5426
 6960SOL    HW132534   2.856   9.410   5.161  2.5554 -1.1780 -0.9856
 6960SOL    HW232535   2.807   9.269   5.094  0.1163 -0.7851 -0.1114
 6961SOL     OW32536   0.662   7.341   7.796 -0.3122 -0.6453  0.1616
 6961SOL    HW132537   0.619   7.262   7.841 -1.1269 -0.2195  0.1382
 6961SOL    HW232538   0.592   7.407   7.771  0.3964  0.1904  0.3722
 6962SOL     OW32539   4.211   2.854   2.391 -0.3847  0.1720  0.2447
 6962SOL    HW132540   4.175   2.934   2.342 -1.7047 -0.2706  0.4593
 6962SOL    HW232541   4.235   2.881   2.485  2.0966  1.0056 -0.5897
 6963SOL     OW32542   4.360   3.067   0.996  0.2295 -0.4969  0.1615
 6963SOL    HW132543   4.432   3.113   1.047  0.2544  0.3251 -0.6011
 6963SOL    HW232544   4.360   2.970   1.018 -0.5588  0.0425  2.6713
 6964SOL     OW32545   0.640   4.593   6.396  0.4634  0.7746  0.3513
 6964SOL    HW132546   0.616   4.496   6.390  0.0260  0.9661 -1.2361
 6964SOL    HW232547   0.735   4.601   6.426  0.7139 -0.1672 -0.1561
 6965SOL     OW32548   8.161   5.238   5.189 -0.3698  0.6060  0.0552
 6965SOL    HW132549   8.083   5.298   5.174  0.9396  2.4070  0.2925
 6965SOL    HW232550   8.158   5.201   5.282 -0.5617  1.2363  0.2980
 6966SOL     OW32551   8.617   8.127   2.165 -0.5081  0.4685 -0.1114
 6966SOL    HW132552   8.558   8.202   2.134 -0.4784  0.5509  0.0296
 6966SOL    HW232553   8.613   8.121   2.265 -0.7048  0.1249 -0.1386
 6967SOL     OW32554   2.664   1.621   1.512  0.3206 -0.3244 -0.4840
 6967SOL    HW132555   2.726   1.613   1.590  0.7430 -1.2004 -0.9039
 6967SOL    HW232556   2.644   1.718   1.495 -0.0046 -0.1412  0.8861
 6968SOL     OW32557   9.805   4.331   5.994  0.2342  0.8397  0.1240
 6968SOL    HW132558   9.904   4.329   6.009  0.2522 -1.6615 -0.2054
 6968SOL    HW232559   9.765   4.405   6.047  2.0885  0.9166  1.4512
 6969SOL     OW32560   9.287   0.169   7.838  0.1420 -0.2846  0.9551
 6969SOL    HW132561   9.306   0.183   7.741 -0.5149  0.2701  0.9105
 6969SOL    HW232562   9.374   0.159   7.887  0.4483 -1.7984  0.1363
 6970SOL     OW32563   2.930   0.643   0.014  0.1860 -0.3601  0.0675
 6970SOL    HW132564   2.985   0.712  -0.033 -0.5932 -0.5166 -1.0802
 6970SOL    HW232565   2.956   0.552  -0.018 -0.7445 -0.4355 -0.4972
 6971SOL     OW32566   9.188   6.529   5.188 -0.2462  0.3070  0.3395
 6971SOL    HW132567   9.253   6.530   5.113  0.0070 -0.3642  0.5483
 6971SOL    HW232568   9.194   6.615   5.239 -0.0040  0.5207 -0.0493
 6972SOL     OW32569   6.274   6.225   8.151  0.2983 -0.2029 -0.3482
 6972SOL    HW132570   6.369   6.231   8.182  0.4163 -1.1721 -0.4873
 6972SOL    HW232571   6.272   6.184   8.059 -0.3429 -1.6813  0.3014
 6973SOL     OW32572   9.481   5.750   4.029  0.1786 -0.0119  0.1668
 6973SOL    HW132573   9.555   5.706   3.978 -0.0749 -1.8366  1.2936
 6973SOL    HW232574   9.443   5.825   3.976  1.0358 -0.7901 -1.5831
 6974SOL     OW32575   8.279   6.424   2.239 -0.0763  0.6296 -0.3184
 6974SOL    HW132576   8.249   6.474   2.157  0.0221 -2.5199 -2.3540
 6974SOL    HW232577   8.212   6.353   2.261  2.1747 -1.5979 -0.4678
 6975SOL     OW32578   4.774   8.991   6.381 -0.4526  0.0227 -0.6822
 6975SOL    HW132579   4.831   8.931   6.325 -0.5124  1.3347 -2.1881
 6975SOL    HW232580   4.778   8.962   6.476  2.3134 -0.2369 -0.8381
 6976SOL     OW32581   4.473   5.981   0.563  0.0723  0.0395 -0.6894
 6976SOL    HW132582   4.556   5.959   0.614  0.0135 -0.3956 -0.7775
 6976SOL    HW232583   4.440   5.899   0.517  0.2052  0.4681 -1.5531
 6977SOL     OW32584   7.758   7.638   2.576 -0.0441  0.0142  0.5257
 6977SOL    HW132585   7.781   7.545   2.603 -0.2736  0.0626  0.8826
 6977SOL    HW232586   7.833   7.700   2.600 -0.3965  0.1139  1.3687
 6978SOL     OW32587   6.201   3.350   1.642 -0.2195 -0.1435 -0.7445
 6978SOL    HW132588   6.263   3.393   1.577 -0.7254 -1.4231 -2.0849
 6978SOL    HW232589   6.251   3.283   1.697  0.8349  2.9003  2.1490
 6979SOL     OW32590   7.075   4.472   0.682  0.0718  0.1742 -0.3169
 6979SOL    HW132591   6.984   4.509   0.700  0.4914  1.6131 -1.0623
 6979SOL    HW232592   7.122   4.454   0.769 -1.7644 -2.8428  0.1524
 6980SOL     OW32593   3.096   4.647   1.999 -0.1303 -0.5754  0.8709
 6980SOL    HW132594   3.079   4.624   1.903 -1.7436 -0.4594  1.1166
 6980SOL    HW232595   3.179   4.702   2.006 -1.2305  1.3347 -0.7247
 6981SOL     OW32596   7.948   5.675   7.838  0.5844  0.4631  0.0490
 6981SOL    HW132597   7.995   5.593   7.871  1.4162  0.1017 -1.9292
 6981SOL    HW232598   7.955   5.679   7.738 -0.4924  2.3205  0.0244
 6982SOL     OW32599   1.000   9.133   2.061  0.0761  0.2514  0.3414
 6982SOL    HW132600   1.029   9.042   2.031 -0.8924 -0.3802  1.2668
 6982SOL    HW232601   1.079   9.186   2.090  0.7177 -0.0838 -0.7653
 6983SOL     OW32602   3.853   8.260   6.482 -0.2362 -0.2957 -0.2931
 6983SOL    HW132603   3.861   8.225   6.388  1.3541 -1.8624  0.3973
 6983SOL    HW232604   3.943   8.258   6.526 -1.0065  0.2143  1.3378
 6984SOL     OW32605   5.686   9.638   4.316  0.2964 -0.2852  0.3329
 6984SOL    HW132606   5.761   9.632   4.381  0.9218  1.2555 -0.2266
 6984SOL    HW232607   5.631   9.555   4.321 -0.0004  0.0531  3.2135
 6985SOL     OW32608   0.961   7.652   2.948  0.2988  0.4188 -0.0803
 6985SOL    HW132609   0.959   7.692   3.039 -1.2835  1.0918 -0.4006
 6985SOL    HW232610   1.029   7.578   2.945 -1.2977 -1.2211  2.3023
 6986SOL     OW32611   9.070   4.683   4.798 -0.2595  0.0744  0.3162
 6986SOL    HW132612   9.165   4.663   4.824  0.1801 -0.2471 -1.4589
 6986SOL    HW232613   9.038   4.763   4.850  1.2137  0.6090  0.4405
 6987SOL     OW32614   6.926   9.292   5.894  0.7321  0.9596 -0.8482
 6987SOL    HW132615   6.979   9.329   5.970  0.7358  1.9457 -1.3214
 6987SOL    HW232616   6.904   9.197   5.912 -1.0502  1.7500  1.3582
 6988SOL     OW32617   8.905   8.207   3.630  0.6651  0.1202 -0.0560
 6988SOL    HW132618   8.947   8.129   3.584  0.0341 -0.4561  0.3411
 6988SOL    HW232619   8.972   8.249   3.692  1.6445  1.1282 -1.7468
 6989SOL     OW32620   2.845   3.479   7.424 -0.3507 -0.0451 -0.4679
 6989SOL    HW132621   2.840   3.404   7.359  1.5749  0.7801 -1.6203
 6989SOL    HW232622   2.935   3.478   7.469 -0.1309  1.7821 -0.8089
 6990SOL     OW32623   1.922   7.172   7.813  0.1900 -0.2976 -0.1929
 6990SOL    HW132624   1.878   7.124   7.889  0.2569 -0.1165 -0.0398
 6990SOL    HW232625   1.997   7.116   7.778  0.6761 -0.0295  0.4019
 6991SOL     OW32626   3.271   5.425   3.862 -0.2867  0.0498  0.2032
 6991SOL    HW132627   3.347   5.464   3.811 -0.3127 -2.2799 -1.7447
 6991SOL    HW232628   3.184   5.453   3.819 -0.4757  1.3358  1.4051
 6992SOL     OW32629   9.169   2.665   5.355 -0.3930 -0.6150 -0.0797
 6992SOL    HW132630   9.073   2.667   5.384 -0.2968 -1.0218  0.2656
 6992SOL    HW232631   9.178   2.713   5.268 -0.6244  0.9364  0.7267
 6993SOL     OW32632   1.433   0.176   2.744 -0.7737 -0.3447 -0.0751
 6993SOL    HW132633   1.370   0.168   2.666  0.3659 -3.2773 -0.7583
 6993SOL    HW232634   1.396   0.126   2.822  0.5086 -1.8267 -0.3856
 6994SOL     OW32635   1.620   3.534   5.244  0.1843  0.3991 -0.4331
 6994SOL    HW132636   1.684   3.542   5.320 -0.6997  2.3863  0.1484
 6994SOL    HW232637   1.530   3.567   5.273 -0.1281  1.2878 -2.3537
 6995SOL     OW32638   7.723   1.610   2.404 -0.2454 -0.1931  0.7265
 6995SOL    HW132639   7.735   1.522   2.452 -0.2741 -0.8041 -0.3731
 6995SOL    HW232640   7.760   1.602   2.312  0.1080  1.0884  0.7550
 6996SOL     OW32641   0.331   0.688   2.247  0.0038  0.0697 -0.2069
 6996SOL    HW132642   0.295   0.704   2.340  0.3414  0.6269 -0.1686
 6996SOL    HW232643   0.255   0.675   2.184 -0.2916  1.6731 -0.2009
 6997SOL     OW32644   8.127   2.008   2.084 -0.2748  0.1821  0.2570
 6997SOL    HW132645   8.209   2.031   2.032 -1.0988 -0.8273 -1.5242
 6997SOL    HW232646   8.153   1.986   2.178  1.6765 -1.5866 -0.6604
 6998SOL     OW32647   8.570   8.742   0.949  0.6758  0.1581 -0.1563
 6998SOL    HW132648   8.549   8.777   0.858  0.1158 -1.0001 -0.4882
 6998SOL    HW232649   8.493   8.761   1.010 -0.6148 -2.3831 -0.8919
 6999SOL     OW32650   9.298   8.878   7.029  0.1917 -0.2732 -0.0107
 6999SOL    HW132651   9.325   8.843   7.119  2.4627  1.5996  0.0823
 6999SOL    HW232652   9.201   8.904   7.032 -0.1233 -1.5050  1.4647
 7000SOL     OW32653   1.619   2.298   2.943  0.5918  0.5351 -0.4307
 7000SOL    HW132654   1.673   2.383   2.947 -1.4043  1.8155 -0.0282
 7000SOL    HW232655   1.530   2.313   2.986  0.0238 -1.6409 -0.8004
 7001SOL     OW32656   3.287   9.991   3.271 -0.8642 -0.5548 -0.3173
 7001SOL    HW132657   3.274  10.046   3.189  0.0917 -0.8201 -0.6583
 7001SOL    HW232658   3.270  10.047   3.352 -3.1428 -0.6439 -0.6940
 7002SOL     OW32659   7.705   3.671   7.312  0.3164  0.4146 -0.5944
 7002SOL    HW132660   7.648   3.725   7.373  2.5312  1.5578  0.5282
 7002SOL    HW232661   7.758   3.606   7.365  2.1390  1.2964 -1.2976
 7003SOL     OW32662   6.430   8.976   4.576 -0.7554  0.5458 -0.4532
 7003SOL    HW132663   6.467   8.932   4.494  0.2514  0.9189 -0.2115
 7003SOL    HW232664   6.357   8.920   4.614  1.2396 -1.4924  0.4944
 7004SOL     OW32665   1.573   9.883   5.657  0.1292 -0.0830  0.2577
 7004SOL    HW132666   1.621   9.970   5.648  0.0569 -0.1347 -0.7008
 7004SOL    HW232667   1.491   9.896   5.713 -0.5936  0.7603 -0.9709
 7005SOL     OW32668   4.267   5.592   1.222 -0.5436  0.1070  0.1786
 7005SOL    HW132669   4.342   5.624   1.280 -0.9518 -0.8220  1.2394
 7005SOL    HW232670   4.243   5.664   1.156 -0.2309  1.2611  1.3083
 7006SOL     OW32671   2.848   7.196   7.649  0.5110  0.1466 -0.0005
 7006SOL    HW132672   2.794   7.271   7.688  0.3240 -0.0450  0.1133
 7006SOL    HW232673   2.900   7.151   7.722  0.2815 -0.1132  0.0024
 7007SOL     OW32674   5.928   9.589   3.113  0.4892 -0.3967  0.3771
 7007SOL    HW132675   5.968   9.657   3.175 -1.3816 -0.2344  1.4307
 7007SOL    HW232676   5.986   9.580   3.032  0.6652  2.6109  0.1150
 7008SOL     OW32677   0.850   3.220   2.759  0.3745 -0.1761 -0.9229
 7008SOL    HW132678   0.865   3.134   2.709  0.2695 -1.3269  0.9784
 7008SOL    HW232679   0.799   3.283   2.700  0.4665 -1.4020 -2.3652
 7009SOL     OW32680   4.079   4.016   7.396  0.0222 -0.1996 -0.0336
 7009SOL    HW132681   4.082   4.090   7.463  2.2731  0.8936 -1.2789
 7009SOL    HW232682   3.992   4.020   7.346 -0.4364  0.7767  0.8342
 7010SOL     OW32683   0.268   4.592   2.748  0.3266  0.2801 -0.2928
 7010SOL    HW132684   0.338   4.627   2.811 -0.0330  1.2971 -0.4359
 7010SOL    HW232685   0.254   4.495   2.763  1.9103  0.0215 -0.3870
 7011SOL     OW32686   4.136   7.779   0.552  0.4209 -0.7309 -0.0980
 7011SOL    HW132687   4.231   7.806   0.566  0.3637 -0.9826  0.7717
 7011SOL    HW232688   4.123   7.686   0.587 -1.3038  1.0390  4.1533
 7012SOL     OW32689   4.201   5.422   3.564 -0.0401  0.1265 -0.0216
 7012SOL    HW132690   4.136   5.449   3.493 -0.5166 -1.3094 -0.1460
 7012SOL    HW232691   4.238   5.504   3.608 -0.5825  0.9962 -1.1640
 7013SOL     OW32692   2.721   2.858   7.888  0.1367  0.3430  0.5200
 7013SOL    HW132693   2.820   2.876   7.889  0.3841 -0.8678 -0.2804
 7013SOL    HW232694   2.702   2.774   7.939 -0.1160 -1.0086 -1.7272
 7014SOL     OW32695   8.156   9.446   2.269 -0.3070 -0.3192  0.2653
 7014SOL    HW132696   8.210   9.364   2.288 -0.8916 -1.0133 -1.0395
 7014SOL    HW232697   8.205   9.526   2.303  0.8563 -1.0779  0.4127
 7015SOL     OW32698   8.534   8.423   7.462 -0.0941 -0.4732  0.5409
 7015SOL    HW132699   8.610   8.389   7.406 -0.4504  0.3338 -0.4506
 7015SOL    HW232700   8.524   8.522   7.448 -1.2622 -0.5542  0.7598
 7016SOL     OW32701   9.395   9.526   3.147 -0.0702 -0.4377  0.3207
 7016SOL    HW132702   9.325   9.464   3.111  0.9532 -1.5707  0.2394
 7016SOL    HW232703   9.475   9.473   3.174  1.6780  1.0537 -1.7539
 7017SOL     OW32704   2.456   5.508   8.065 -0.5126  0.0485  0.0102
 7017SOL    HW132705   2.385   5.467   8.007 -0.3231  0.2412 -0.3552
 7017SOL    HW232706   2.475   5.447   8.142 -0.2992 -0.5099 -0.4823
 7018SOL     OW32707   3.757   2.648   7.932  0.0308  0.3574 -0.1736
 7018SOL    HW132708   3.709   2.682   7.852  0.7715  1.3845 -0.1956
 7018SOL    HW232709   3.814   2.721   7.970  0.4606 -0.4163  0.6889
 7019SOL     OW32710   8.273   6.842   2.335 -0.2103  0.5733 -0.4165
 7019SOL    HW132711   8.307   6.806   2.422  0.4556  0.6522 -0.6362
 7019SOL    HW232712   8.207   6.915   2.353  0.1840  0.8237  0.0273
 7020SOL     OW32713   5.099   9.050   4.840  0.2968  0.1809  0.5562
 7020SOL    HW132714   5.106   9.149   4.830  0.2538  0.1457  0.1764
 7020SOL    HW232715   5.095   9.026   4.937  1.0355  0.4997  0.6616
 7021SOL     OW32716   1.394   3.349   7.234 -0.3191 -0.2463  0.0543
 7021SOL    HW132717   1.322   3.385   7.175 -0.4027 -1.2217 -0.4456
 7021SOL    HW232718   1.356   3.327   7.324 -0.4869 -0.0878  0.0216
 7022SOL     OW32719   5.570   0.776   3.157 -0.5981 -0.5280 -0.3113
 7022SOL    HW132720   5.491   0.744   3.209 -0.4812  0.1279  0.2776
 7022SOL    HW232721   5.547   0.777   3.060 -1.1378 -0.8543 -0.1917
 7023SOL     OW32722   9.073   2.614   1.447 -0.1955 -0.1155  0.2608
 7023SOL    HW132723   9.070   2.525   1.492 -0.6224 -0.1428  0.1838
 7023SOL    HW232724   9.072   2.601   1.348 -3.0148  0.0272  0.2175
 7024SOL     OW32725   8.139   4.137   2.486 -0.5119 -0.2560  0.0894
 7024SOL    HW132726   8.090   4.072   2.429 -1.0518  1.4643 -1.4659
 7024SOL    HW232727   8.077   4.174   2.555 -0.6307 -0.2030 -0.0463
 7025SOL     OW32728   4.790   1.554   8.069 -0.1230 -0.0573 -0.1935
 7025SOL    HW132729   4.782   1.590   7.976 -0.9283  0.7041  0.1616
 7025SOL    HW232730   4.743   1.466   8.075 -1.5373  0.6979 -0.0843
 7026SOL     OW32731   9.162   8.619   6.731 -0.7275 -0.0656 -0.0710
 7026SOL    HW132732   9.109   8.591   6.811 -0.1363 -0.0105  0.3454
 7026SOL    HW232733   9.134   8.565   6.651 -0.4324 -1.0086  0.4542
 7027SOL     OW32734   2.819   4.652   5.596  0.5841  0.0384  0.5496
 7027SOL    HW132735   2.831   4.638   5.498  2.2174 -0.8619  0.8578
 7027SOL    HW232736   2.728   4.690   5.614 -0.8289 -2.4848 -1.0504
 7028SOL     OW32737   1.068   9.874   0.783  0.1988 -0.0337 -0.0156
 7028SOL    HW132738   1.015   9.937   0.839 -1.2894 -0.6561 -0.7023
 7028SOL    HW232739   1.015   9.848   0.702  2.3090  0.8249 -1.7098
 7029SOL     OW32740   1.811   5.848   3.244 -0.1132  0.1059 -0.4218
 7029SOL    HW132741   1.827   5.826   3.148  2.8122 -2.0616  0.5024
 7029SOL    HW232742   1.887   5.902   3.279 -0.0035 -1.1592  1.3102
 7030SOL     OW32743   2.033   4.808   2.743  0.4245 -0.2492 -0.3636
 7030SOL    HW132744   2.080   4.855   2.817  0.7091  0.2102 -0.8304
 7030SOL    HW232745   2.097   4.788   2.669  0.1597 -0.7685 -0.4555
 7031SOL     OW32746   9.313   4.458   1.912  0.1720 -0.4460 -0.3724
 7031SOL    HW132747   9.292   4.361   1.902  0.3794 -0.5190 -0.0833
 7031SOL    HW232748   9.231   4.507   1.942  0.6504 -0.8685  1.6417
 7032SOL     OW32749   7.419   5.485   2.190 -0.4539  0.5737 -0.5950
 7032SOL    HW132750   7.330   5.530   2.193 -0.2006  1.1204 -1.2815
 7032SOL    HW232751   7.460   5.497   2.100 -0.0218 -0.3352 -0.5271
 7033SOL     OW32752   4.910   2.270   0.782  0.3309  0.0990  0.5229
 7033SOL    HW132753   4.897   2.368   0.763  0.7560 -0.1599 -1.1562
 7033SOL    HW232754   4.983   2.258   0.848 -1.1380  1.0262  2.3671
 7034SOL     OW32755   6.639   2.995   1.444  0.4145 -0.1075  0.2011
 7034SOL    HW132756   6.539   2.999   1.453  0.6243 -0.2675  3.0352
 7034SOL    HW232757   6.666   2.905   1.410 -0.4437  0.2281 -1.4004
 7035SOL     OW32758   0.077   3.778   6.058 -0.1580  0.2061 -0.0415
 7035SOL    HW132759  -0.018   3.787   6.089  1.1221  2.4078  3.5203
 7035SOL    HW232760   0.097   3.850   5.992 -0.8039  0.0787 -0.3794
 7036SOL     OW32761   2.122   8.331   3.628 -0.7355  0.0346  0.2048
 7036SOL    HW132762   2.169   8.265   3.570 -0.0251  0.9220 -0.2390
 7036SOL    HW232763   2.047   8.286   3.677  0.6161 -1.4055  0.9585
 7037SOL     OW32764   1.396   3.122   0.716  0.1093 -0.0664  0.5857
 7037SOL    HW132765   1.467   3.167   0.661 -0.0971 -0.4807 -0.0198
 7037SOL    HW232766   1.353   3.189   0.777  2.0224 -0.0912  2.0137
 7038SOL     OW32767   4.752   8.557   7.894  0.3348  0.0586 -0.0483
 7038SOL    HW132768   4.774   8.494   7.968  1.1775  2.6447  1.9833
 7038SOL    HW232769   4.689   8.627   7.928 -1.9065 -0.5744 -2.6917
 7039SOL     OW32770   9.404   6.532   5.860 -0.6978  0.3829  0.4919
 7039SOL    HW132771   9.319   6.523   5.808 -0.0864  0.1349 -0.4874
 7039SOL    HW232772   9.474   6.472   5.821 -0.2139  0.2085  1.5979
 7040SOL     OW32773   3.313   3.210   0.065 -0.2404 -0.1817 -0.1723
 7040SOL    HW132774   3.221   3.208   0.025 -1.7834 -2.3858  3.2223
 7040SOL    HW232775   3.370   3.140   0.022 -1.7199 -2.1893  1.0392
 7041SOL     OW32776   5.491   2.774   0.134  0.0913  0.5971 -0.5549
 7041SOL    HW132777   5.520   2.722   0.214 -2.0268  0.3605  0.0783
 7041SOL    HW232778   5.549   2.750   0.056  0.1286 -1.5457  0.1093
 7042SOL     OW32779   0.374   0.260   0.659 -0.2363  0.1881  0.2817
 7042SOL    HW132780   0.312   0.337   0.676 -1.3652 -0.5151 -0.5060
 7042SOL    HW232781   0.407   0.265   0.565  1.2004  0.7566  0.8114
 7043SOL     OW32782   2.142   9.978   0.157  0.4729  0.2657  0.6601
 7043SOL    HW132783   2.182   9.887   0.141  2.1585  0.8150  1.5578
 7043SOL    HW232784   2.099  10.011   0.074 -0.5089 -1.5336  0.4379
 7044SOL     OW32785   1.038   4.983   7.467  0.0089 -0.1727 -0.4206
 7044SOL    HW132786   1.025   5.046   7.390 -0.3660  0.0286 -0.1964
 7044SOL    HW232787   1.135   4.975   7.488 -0.1386  3.7840  2.3601
 7045SOL     OW32788   1.085   9.348   4.800 -0.2815  0.1119  0.6683
 7045SOL    HW132789   1.064   9.424   4.738 -0.8037  0.9589  1.8567
 7045SOL    HW232790   1.061   9.261   4.756  0.8539  0.5927 -0.9213
 7046SOL     OW32791   1.641   7.860   6.479  0.7095 -0.0866  0.0767
 7046SOL    HW132792   1.634   7.766   6.512  0.7768 -0.4837 -0.9958
 7046SOL    HW232793   1.637   7.923   6.556  0.7195 -0.9696  0.8135
 7047SOL     OW32794   5.173   7.870   5.223  0.7488 -0.4755  0.0603
 7047SOL    HW132795   5.147   7.940   5.288  0.0559 -2.0633  1.5264
 7047SOL    HW232796   5.203   7.913   5.138  1.7923  1.6148  1.4560
 7048SOL     OW32797   8.334   8.839   6.713  0.5657 -0.0808  0.0214
 7048SOL    HW132798   8.287   8.910   6.661 -2.0495 -0.9059  1.1911
 7048SOL    HW232799   8.384   8.880   6.788 -1.5653  0.4900  1.1538
 7049SOL     OW32800   1.603   4.294   0.042  0.4798 -0.4739 -0.1750
 7049SOL    HW132801   1.654   4.374   0.010 -0.5231  0.2748  0.0814
 7049SOL    HW232802   1.580   4.305   0.139 -0.8774 -0.4143 -0.4876
 7050SOL     OW32803   0.406   5.718   8.089 -0.4981 -0.2579  0.3195
 7050SOL    HW132804   0.324   5.766   8.122  0.3220  2.0217 -0.8235
 7050SOL    HW232805   0.469   5.785   8.049  1.9706 -1.9686  1.2638
 7051SOL     OW32806   8.923   4.773   3.266  0.2342  0.1665 -0.4765
 7051SOL    HW132807   8.841   4.730   3.305  0.0947  0.2998 -0.6198
 7051SOL    HW232808   8.976   4.816   3.339  1.4302 -1.9620 -0.0356
 7052SOL     OW32809   3.680   0.719   5.263 -0.0194  0.0950 -0.1959
 7052SOL    HW132810   3.756   0.784   5.264  0.4542 -0.4681  2.5402
 7052SOL    HW232811   3.717   0.626   5.260 -0.6697 -0.1327 -1.7249
 7053SOL     OW32812   0.692   6.609   6.258  0.1975 -0.2316 -0.1771
 7053SOL    HW132813   0.781   6.622   6.216  0.3369  1.8679  0.7058
 7053SOL    HW232814   0.666   6.513   6.253  2.3166 -0.7886 -0.8149
 7054SOL     OW32815   8.793   2.906   1.001 -0.3567 -0.1861 -0.3745
 7054SOL    HW132816   8.781   2.886   0.904 -3.4223  0.9520 -0.2872
 7054SOL    HW232817   8.775   2.824   1.055  0.3015 -0.5431 -0.6863
 7055SOL     OW32818   8.773   4.171   1.363  0.8739 -0.3448  0.3391
 7055SOL    HW132819   8.831   4.251   1.349 -0.5291  0.7947  0.8411
 7055SOL    HW232820   8.825   4.088   1.344  2.3928  0.6768 -0.0701
 7056SOL     OW32821   0.526   2.294   4.165  0.5909  1.1342  0.4682
 7056SOL    HW132822   0.480   2.317   4.250  1.4917  1.3423  0.9147
 7056SOL    HW232823   0.618   2.259   4.186  0.7517  1.0171 -0.4104
 7057SOL     OW32824   0.676   0.874   6.597 -0.4981 -0.7827 -0.1947
 7057SOL    HW132825   0.733   0.886   6.515 -1.3248  3.8466 -0.2223
 7057SOL    HW232826   0.586   0.840   6.570 -0.8574  0.9785 -1.2843
 7058SOL     OW32827   5.282   9.924   5.224 -0.7037 -0.0737 -0.7671
 7058SOL    HW132828   5.235   9.842   5.254 -2.0221  0.4275 -1.4406
 7058SOL    HW232829   5.380   9.905   5.215 -0.5819 -0.7698  1.8285
 7059SOL     OW32830   2.953   5.168   7.028  0.4628 -0.0640 -0.3998
 7059SOL    HW132831   2.895   5.087   7.018 -1.0282  0.8326  0.7263
 7059SOL    HW232832   3.003   5.184   6.943 -1.8216 -0.2207 -1.8026
 7060SOL     OW32833   8.095   1.690   2.138  0.5258 -0.4318 -0.0040
 7060SOL    HW132834   8.037   1.710   2.060  1.4817  1.4244 -0.2618
 7060SOL    HW232835   8.039   1.684   2.221 -0.1219  0.5154 -0.3717
 7061SOL     OW32836   4.462   8.406   6.172  0.2592  0.7031 -0.5778
 7061SOL    HW132837   4.453   8.479   6.104  0.5117  0.6278 -0.6897
 7061SOL    HW232838   4.498   8.444   6.257  0.4076  0.7021 -0.6421
 7062SOL     OW32839   0.771   4.904   7.993 -0.4084  0.0884 -0.0748
 7062SOL    HW132840   0.810   4.824   7.948  0.0006 -0.1687  0.7279
 7062SOL    HW232841   0.687   4.878   8.041  2.1810 -0.9337  4.1293
 7063SOL     OW32842   6.727   7.291   4.326  0.8922  0.3060  0.3461
 7063SOL    HW132843   6.656   7.220   4.335  0.3777  0.8727  0.8192
 7063SOL    HW232844   6.756   7.321   4.417  1.7234  0.0973  0.1532
 7064SOL     OW32845   1.708   0.523   5.327  0.0234  0.1284  0.5259
 7064SOL    HW132846   1.610   0.516   5.313 -0.2492  1.7531  1.4947
 7064SOL    HW232847   1.742   0.439   5.370 -0.8619 -0.5938 -0.1842
 7065SOL     OW32848   7.145   0.612   6.967 -0.3667 -0.4170  0.3858
 7065SOL    HW132849   7.165   0.572   7.056  0.4622 -0.2641  0.2700
 7065SOL    HW232850   7.223   0.667   6.936 -0.7060 -0.3447 -0.3612
 7066SOL     OW32851   7.516   3.789   7.545 -0.3387 -0.1525 -0.3424
 7066SOL    HW132852   7.479   3.743   7.626 -0.0160  0.0414 -0.0875
 7066SOL    HW232853   7.488   3.885   7.545 -0.0051 -0.0564 -0.2580
 7067SOL     OW32854   0.454   1.726   0.578 -0.4361  0.0941  0.0301
 7067SOL    HW132855   0.549   1.714   0.604 -0.2960 -3.4554 -1.8279
 7067SOL    HW232856   0.397   1.727   0.660  0.8986 -0.9901  0.9855
 7068SOL     OW32857   3.200   6.831   7.832  0.4753 -0.0608 -0.0446
 7068SOL    HW132858   3.271   6.835   7.903  0.0411 -1.2661  0.4756
 7068SOL    HW232859   3.122   6.778   7.866 -0.0940  0.0759 -1.1181
 7069SOL     OW32860   2.814   4.482   6.711  0.2507 -0.2075  0.2188
 7069SOL    HW132861   2.829   4.555   6.778 -0.5420  0.3868 -0.2446
 7069SOL    HW232862   2.898   4.465   6.660  0.1203  1.2050 -0.4862
 7070SOL     OW32863   3.180   1.368   2.618 -0.5568  0.4540  0.7476
 7070SOL    HW132864   3.095   1.349   2.668 -0.1689  0.2852  1.3367
 7070SOL    HW232865   3.157   1.411   2.531 -1.3724 -1.3287  0.0405
 7071SOL     OW32866   5.117   5.603   0.593  0.0767 -0.8602  0.7889
 7071SOL    HW132867   5.099   5.505   0.588  0.0783 -0.9105  1.6258
 7071SOL    HW232868   5.084   5.638   0.681  1.2988 -0.3714  1.0693
 7072SOL     OW32869   6.330   2.626   1.414 -0.2026  0.1908 -0.3449
 7072SOL    HW132870   6.314   2.722   1.393 -0.7314 -0.3027 -2.2604
 7072SOL    HW232871   6.283   2.568   1.348  2.4619 -1.3661 -0.9730
 7073SOL     OW32872   6.003   6.555   1.268 -0.3373  0.0374  0.6712
 7073SOL    HW132873   5.988   6.460   1.296  0.7794  0.2866  2.1795
 7073SOL    HW232874   6.050   6.557   1.180  0.2982 -0.8357  0.9853
 7074SOL     OW32875   3.253   0.512   0.026 -0.0130  0.1092 -0.0125
 7074SOL    HW132876   3.323   0.470  -0.031  1.4371  1.4089  0.7772
 7074SOL    HW232877   3.259   0.612   0.017 -1.7492  0.2342  0.0872
 7075SOL     OW32878   8.985   8.890   7.169  0.0921 -0.0463 -0.0656
 7075SOL    HW132879   8.990   8.791   7.178 -0.7336 -0.1086 -0.2010
 7075SOL    HW232880   9.027   8.933   7.249  0.7532 -0.4991 -0.1648
 7076SOL     OW32881   2.856   1.966   7.256 -0.5626 -0.1663 -0.0928
 7076SOL    HW132882   2.857   2.066   7.251 -0.6953 -0.1883 -0.5930
 7076SOL    HW232883   2.787   1.936   7.321  1.0499  0.1310  1.8088
 7077SOL     OW32884   4.042   1.350   3.924  0.2755  0.2273  0.0780
 7077SOL    HW132885   3.954   1.305   3.937  0.4956 -0.8614 -2.1032
 7077SOL    HW232886   4.035   1.446   3.954 -1.5575  0.0697  0.1928
 7078SOL     OW32887   4.060   1.487   6.126 -0.3133  0.1903 -0.4363
 7078SOL    HW132888   4.149   1.513   6.087  0.0432 -2.5065 -1.5140
 7078SOL    HW232889   3.989   1.495   6.057 -0.0138 -2.6501 -1.1308
 7079SOL     OW32890   8.240   6.903   1.478 -0.4395  0.5430  0.5201
 7079SOL    HW132891   8.256   7.001   1.481  1.1727  0.2583  2.0766
 7079SOL    HW232892   8.230   6.874   1.383  2.2416  1.7516 -0.1907
 7080SOL     OW32893   4.120   2.127   0.699  0.0330  0.1447  0.3494
 7080SOL    HW132894   4.213   2.090   0.705  0.3320  0.6486 -1.1223
 7080SOL    HW232895   4.119   2.220   0.735 -0.1655 -0.2734  1.4752
 7081SOL     OW32896   3.817   8.709   6.591 -0.1922  0.1744  0.0252
 7081SOL    HW132897   3.793   8.786   6.532 -0.2026  0.2075  0.0722
 7081SOL    HW232898   3.765   8.628   6.564  0.5416 -0.0802 -0.6570
 7082SOL     OW32899   8.139   8.013   3.607  0.0964  0.0671  0.0121
 7082SOL    HW132900   8.044   8.039   3.624  1.3003  3.1041  2.3661
 7082SOL    HW232901   8.158   8.021   3.509 -1.8554  0.1196 -0.3917
 7083SOL     OW32902   0.456   1.879   2.002 -0.4211 -0.0524  0.2649
 7083SOL    HW132903   0.489   1.847   2.091  0.4383 -0.0844 -0.0651
 7083SOL    HW232904   0.480   1.812   1.932  0.7846  0.9735 -0.3215
 7084SOL     OW32905   3.093   1.091   1.614 -0.3248  0.1498 -0.0402
 7084SOL    HW132906   3.143   1.013   1.651  0.1994  0.7880  0.6147
 7084SOL    HW232907   3.158   1.163   1.589 -0.8905  0.8927  0.5944
 7085SOL     OW32908   7.109   3.408   5.692  0.5281 -0.1288  1.1204
 7085SOL    HW132909   7.199   3.443   5.668  0.6205  0.6865  2.6240
 7085SOL    HW232910   7.039   3.464   5.648  0.7270  0.1964  1.2142
 7086SOL     OW32911   8.095   1.647   6.007  0.4254  0.1323  0.5425
 7086SOL    HW132912   7.998   1.671   6.009  0.5577  0.8130 -1.0440
 7086SOL    HW232913   8.118   1.596   6.090 -1.0457  0.8791  1.4180
 7087SOL     OW32914   2.099   9.359   4.194 -0.2686 -0.1646 -0.3280
 7087SOL    HW132915   2.189   9.322   4.219  0.6713  1.9968 -0.3816
 7087SOL    HW232916   2.073   9.323   4.104  0.0460 -1.6152  0.1410
 7088SOL     OW32917   4.209   9.527   7.965  0.3258  0.4807 -0.4494
 7088SOL    HW132918   4.255   9.566   7.885  0.2932 -2.4111 -1.9576
 7088SOL    HW232919   4.130   9.583   7.989  0.1473  1.2158 -2.6831
 7089SOL     OW32920   1.786   9.741   1.804 -0.0704 -0.4647  0.1117
 7089SOL    HW132921   1.848   9.664   1.789 -0.7978 -1.3325  1.3871
 7089SOL    HW232922   1.719   9.716   1.874 -1.5489  0.6300 -0.8859
 7090SOL     OW32923   6.707   7.698   2.951  0.5314  0.6626  0.1995
 7090SOL    HW132924   6.697   7.668   2.857  2.4062  2.4217 -0.6055
 7090SOL    HW232925   6.785   7.652   2.993 -0.8416 -0.7980  1.2160
 7091SOL     OW32926   9.343   6.801   7.723 -0.1889  0.4312 -0.3459
 7091SOL    HW132927   9.352   6.900   7.730  2.4767  0.1317  1.2578
 7091SOL    HW232928   9.432   6.762   7.699 -1.2827 -1.5699 -1.2507
 7092SOL     OW32929   2.133   5.982   1.660 -0.5754 -0.1894  0.0341
 7092SOL    HW132930   2.143   5.896   1.611 -2.6431  0.3718 -1.4567
 7092SOL    HW232931   2.056   6.033   1.622  0.3426  2.1323  1.1854
 7093SOL     OW32932   9.372   4.838   7.133 -0.3439 -0.1193  0.5796
 7093SOL    HW132933   9.320   4.754   7.122 -2.9973  0.9600  3.8952
 7093SOL    HW232934   9.328   4.911   7.080  2.6819 -0.9622 -3.3409
 7094SOL     OW32935   0.086   6.349   2.018  0.9231 -0.0981  0.6153
 7094SOL    HW132936   0.070   6.251   2.008 -1.8921  0.1333  2.1951
 7094SOL    HW232937   0.025   6.399   1.956  1.8387  0.6633  0.3265
 7095SOL     OW32938   8.337   5.465   3.443  0.3232 -0.1098  0.1755
 7095SOL    HW132939   8.376   5.465   3.351  0.9970 -1.3275  0.4497
 7095SOL    HW232940   8.243   5.499   3.439 -0.0714 -1.3219 -1.1405
 7096SOL     OW32941   2.763   4.364   6.010 -0.2739  0.4783  0.0336
 7096SOL    HW132942   2.753   4.391   5.914  0.9748  0.6517 -0.0631
 7096SOL    HW232943   2.694   4.410   6.066  1.5327  3.6236 -0.1857
 7097SOL     OW32944   8.775   3.293   4.502  0.1673  0.1022 -0.1108
 7097SOL    HW132945   8.702   3.257   4.444  0.0341  0.2759 -0.0518
 7097SOL    HW232946   8.825   3.218   4.544 -0.6802 -0.0001  0.7207
 7098SOL     OW32947   0.011   2.444   5.491 -0.0975  0.1414 -0.0661
 7098SOL    HW132948   0.080   2.482   5.429 -2.5557  0.2990 -2.7948
 7098SOL    HW232949  -0.051   2.385   5.439 -0.7038 -1.7725  2.7610
 7099SOL     OW32950   1.292   2.243   1.777 -0.0297 -0.7229  0.1346
 7099SOL    HW132951   1.248   2.325   1.813  0.1161  0.0259 -1.3377
 7099SOL    HW232952   1.260   2.163   1.827 -3.0776 -0.2166 -0.8917
 7100SOL     OW32953   1.355   0.049   6.274 -0.1432  0.3475 -0.0280
 7100SOL    HW132954   1.259   0.052   6.244  0.0802  1.8701 -0.6184
 7100SOL    HW232955   1.394   0.141   6.269  1.6215 -0.4236 -0.6884
 7101SOL     OW32956   9.728   1.113   3.370 -0.5475  0.0739 -0.6983
 7101SOL    HW132957   9.663   1.152   3.305 -1.5385  0.5502  0.5537
 7101SOL    HW232958   9.702   1.140   3.463  0.5904 -0.9633 -0.0691
 7102SOL     OW32959   7.555   3.378   5.254  0.4138 -0.2592  0.1956
 7102SOL    HW132960   7.486   3.308   5.237  1.4813 -0.9591 -1.3544
 7102SOL    HW232961   7.525   3.465   5.217 -1.5311  0.4701  3.3216
 7103SOL     OW32962   4.729   4.703   0.146  0.1923  0.1601 -0.1636
 7103SOL    HW132963   4.634   4.705   0.177 -0.1162 -1.2603 -0.9719
 7103SOL    HW232964   4.742   4.770   0.073 -0.3137  0.0166 -0.3906
 7104SOL     OW32965   8.987   1.039   5.470 -0.0213  0.4206 -0.4522
 7104SOL    HW132966   9.083   1.048   5.497  0.3751 -0.3510 -1.5724
 7104SOL    HW232967   8.938   0.986   5.538  0.5316  0.1237 -0.2816
 7105SOL     OW32968   3.278   2.906   1.877 -0.0223 -0.5860  0.4356
 7105SOL    HW132969   3.357   2.957   1.911 -0.7428  0.4123  0.6156
 7105SOL    HW232970   3.204   2.910   1.944 -1.2839  0.9809 -1.0163
 7106SOL     OW32971   4.118   8.304   5.348  0.3658 -0.5479  0.3643
 7106SOL    HW132972   4.070   8.221   5.318  0.5884 -0.5910  0.1304
 7106SOL    HW232973   4.134   8.364   5.270  2.4470 -1.4285  0.0743
 7107SOL     OW32974   0.816   5.298   2.313 -0.6853  0.6838  0.1632
 7107SOL    HW132975   0.893   5.245   2.349 -0.2228  1.1452 -0.1343
 7107SOL    HW232976   0.730   5.251   2.333 -0.3708  0.5016  1.1030
 7108SOL     OW32977   2.415   8.243   6.018  0.9278  0.4451  0.5935
 7108SOL    HW132978   2.464   8.161   5.990  1.0131  0.6822  0.0402
 7108SOL    HW232979   2.446   8.271   6.109 -0.4658 -1.2140  1.6107
 7109SOL     OW32980   2.390   4.616   2.164 -0.1762  0.2859  0.0304
 7109SOL    HW132981   2.408   4.706   2.205 -0.0280  0.0135  0.5686
 7109SOL    HW232982   2.329   4.627   2.085  0.1436  0.9011 -0.1328
 7110SOL     OW32983   8.692   3.999   4.722  0.0863 -0.2109 -0.1260
 7110SOL    HW132984   8.762   3.963   4.785 -1.3730 -0.5479  1.3460
 7110SOL    HW232985   8.721   3.983   4.628  0.4767 -3.3559  0.4541
 7111SOL     OW32986   8.899   3.279   0.270 -0.1006 -0.4338 -0.1240
 7111SOL    HW132987   8.904   3.307   0.365 -0.6386 -0.7422 -0.0042
 7111SOL    HW232988   8.951   3.343   0.213  1.2624 -0.9558  0.5300
 7112SOL     OW32989   9.768   2.221   4.489  0.1882 -0.4099 -0.8327
 7112SOL    HW132990   9.708   2.208   4.567 -1.7290  0.8261 -2.0705
 7112SOL    HW232991   9.723   2.188   4.406 -0.0996  3.2634 -2.2412
 7113SOL     OW32992   4.615   0.613   1.239 -0.1046 -0.1536  0.4182
 7113SOL    HW132993   4.600   0.668   1.156 -0.4409 -0.8133  0.0383
 7113SOL    HW232994   4.711   0.619   1.265 -0.4031  1.7496  1.1908
 7114SOL     OW32995   5.701   5.735   0.592  0.1521  0.4383  0.2784
 7114SOL    HW132996   5.645   5.790   0.530 -0.6646  0.2650  0.8505
 7114SOL    HW232997   5.780   5.789   0.622  0.4144  0.6069 -0.7066
 7115SOL     OW32998   0.862   7.404   6.459  0.1426 -0.3129  0.4645
 7115SOL    HW132999   0.796   7.437   6.526 -0.4224 -1.5739  0.5440
 7115SOL    HW233000   0.831   7.317   6.421  2.0457 -1.2487  0.9598
 7116SOL     OW33001   8.520   7.618   2.586 -0.0923  0.2361 -0.0964
 7116SOL    HW133002   8.496   7.534   2.635 -0.3079  0.7812  0.7408
 7116SOL    HW233003   8.584   7.596   2.512  1.3428 -0.4080  1.3042
 7117SOL     OW33004   9.675   2.088   5.302 -0.0303  0.3563  0.1052
 7117SOL    HW133005   9.721   2.169   5.336  0.3028  0.3070 -0.2237
 7117SOL    HW233006   9.601   2.062   5.365  0.7999  0.0610  0.9578
 7118SOL     OW33007   9.682   9.180   6.843  0.2978  1.0607  0.1260
 7118SOL    HW133008   9.598   9.138   6.877  0.4069  1.1927  0.5549
 7118SOL    HW233009   9.659   9.250   6.775  0.1679 -0.5201 -1.4880
 7119SOL     OW33010   2.430   9.372   6.818 -0.2126  0.2269 -0.1911
 7119SOL    HW133011   2.346   9.400   6.864  0.5755  1.5568  0.4802
 7119SOL    HW233012   2.413   9.363   6.720 -1.2014  0.1988 -0.0214
 7120SOL     OW33013   6.900   7.923   4.917 -0.5281 -0.0153  0.0465
 7120SOL    HW133014   6.833   7.959   4.852 -1.2565  0.9444  1.3090
 7120SOL    HW233015   6.858   7.849   4.969 -0.5751  0.5269  0.7754
 7121SOL     OW33016   3.117   1.496   5.329 -0.1861 -0.7178  0.2217
 7121SOL    HW133017   3.037   1.436   5.323  0.6097 -1.6124 -1.9106
 7121SOL    HW233018   3.199   1.442   5.312  0.6423  0.7697 -0.4996
 7122SOL     OW33019   6.210   6.006   0.084  0.1565 -0.4332 -0.7181
 7122SOL    HW133020   6.304   5.979   0.106  0.6825  1.3646 -0.6680
 7122SOL    HW233021   6.206   6.105   0.074 -1.9908 -0.3946  0.3990
 7123SOL     OW33022   1.463   7.039   6.916 -0.7250 -0.0847  0.3580
 7123SOL    HW133023   1.463   6.943   6.887 -1.7040  0.3440 -1.0990
 7123SOL    HW233024   1.389   7.054   6.981 -1.6143  0.0628 -0.6925
 7124SOL     OW33025   8.506   0.132   4.638 -0.6695  0.8006 -0.0069
 7124SOL    HW133026   8.558   0.150   4.722  0.6257  0.7415 -0.7850
 7124SOL    HW233027   8.508   0.214   4.580 -1.8210  0.9436  0.1486
 7125SOL     OW33028   0.084   1.276   3.585 -0.0819 -0.1026 -0.8827
 7125SOL    HW133029   0.134   1.358   3.613  3.1362 -1.7847 -1.4363
 7125SOL    HW233030   0.149   1.200   3.573 -2.8710 -2.5329 -1.1313
 7126SOL     OW33031   4.075   9.302   7.886 -0.0328 -0.2959 -0.0716
 7126SOL    HW133032   4.135   9.378   7.909 -1.3338  0.6516  0.2956
 7126SOL    HW233033   4.067   9.294   7.787 -0.0730  0.2101 -0.1117
 7127SOL     OW33034   2.377   0.110   0.087  0.1122 -0.3586  0.0537
 7127SOL    HW133035   2.291   0.077   0.126 -1.0748  0.7471 -1.5724
 7127SOL    HW233036   2.387   0.207   0.108  1.4939 -0.7163  1.1281
 7128SOL     OW33037   8.346   5.212   6.179 -0.4455  0.3851  0.5531
 7128SOL    HW133038   8.333   5.133   6.239  0.6927 -1.6170 -1.7657
 7128SOL    HW233039   8.258   5.237   6.138 -0.9594  0.8504  1.9107
 7129SOL     OW33040   8.302   5.762   7.675  0.7122 -0.0423 -0.1729
 7129SOL    HW133041   8.352   5.843   7.646 -1.7242  1.9068  0.8779
 7129SOL    HW233042   8.291   5.700   7.597  0.8244  1.5900 -1.5131
 7130SOL     OW33043   9.693   0.766   2.686 -0.6251  0.5207 -0.3468
 7130SOL    HW133044   9.783   0.791   2.649  0.0309  0.6549  1.2832
 7130SOL    HW233045   9.647   0.704   2.623  0.3837  0.8765 -1.4540
 7131SOL     OW33046   2.529   7.562   4.210 -0.0386  0.5416 -0.1329
 7131SOL    HW133047   2.451   7.556   4.271 -0.3258  0.3541 -0.5183
 7131SOL    HW233048   2.613   7.572   4.264 -0.3715  1.2096  0.2605
 7132SOL     OW33049   1.905   0.588   6.431  0.4289 -0.0163  0.0827
 7132SOL    HW133050   1.874   0.503   6.389  0.5702 -0.0019 -0.0538
 7132SOL    HW233051   1.827   0.650   6.443  0.5852  0.4807 -1.3579
 7133SOL     OW33052   2.493   3.434   3.869  0.3996  0.0744 -0.5527
 7133SOL    HW133053   2.434   3.466   3.795 -0.1868 -0.7156 -0.4306
 7133SOL    HW233054   2.512   3.336   3.857  0.3956 -0.0329  0.2703
 7134SOL     OW33055   9.917   7.184   0.143  0.5353 -0.2449  0.0453
 7134SOL    HW133056   9.996   7.172   0.083  0.2943  0.3843 -0.3972
 7134SOL    HW233057   9.918   7.113   0.214  1.1831 -0.5828 -0.2995
 7135SOL     OW33058   0.641   3.808   5.801  0.1079 -0.2617 -0.2015
 7135SOL    HW133059   0.581   3.778   5.726 -0.1370 -1.5749  0.5241
 7135SOL    HW233060   0.694   3.731   5.835  1.4590  0.6723 -0.1110
 7136SOL     OW33061   1.590   4.193   4.567 -0.2149 -0.1172  0.4004
 7136SOL    HW133062   1.558   4.113   4.515  0.8244  0.4387 -1.1477
 7136SOL    HW233063   1.690   4.193   4.567 -0.2113  0.3404  1.7498
 7137SOL     OW33064   5.625   0.439   0.978  0.0183  0.0729  0.2164
 7137SOL    HW133065   5.527   0.440   0.958  0.1121  0.2816 -0.2378
 7137SOL    HW233066   5.639   0.419   1.075 -0.5637  2.4413  0.8235
 7138SOL     OW33067   8.450   7.383   2.747  0.1491  0.0848 -0.3719
 7138SOL    HW133068   8.422   7.337   2.663  1.3428 -0.1911 -0.6330
 7138SOL    HW233069   8.429   7.325   2.826  0.3780 -0.3065 -0.5983
 7139SOL     OW33070   5.984   0.617   1.140 -0.1692  0.0974  0.1331
 7139SOL    HW133071   5.998   0.714   1.161 -0.7601  0.2743 -0.2783
 7139SOL    HW233072   6.044   0.591   1.065 -1.0037  0.5014 -0.6875
 7140SOL     OW33073   0.267   3.615   4.296  0.4621  0.0509 -0.9632
 7140SOL    HW133074   0.208   3.681   4.250 -0.3011  0.0911  0.0763
 7140SOL    HW233075   0.281   3.641   4.391  1.5757 -0.3493 -0.9986
 7141SOL     OW33076   3.753   3.886   3.606  0.4733  1.1071 -0.1932
 7141SOL    HW133077   3.735   3.879   3.704  1.5880  1.2219  0.0308
 7141SOL    HW233078   3.847   3.919   3.592  0.6566  0.1468 -1.2941
 7142SOL     OW33079   2.220   7.644   5.141 -0.1181  0.1825 -0.0406
 7142SOL    HW133080   2.182   7.711   5.205  0.2307  1.6361 -1.3311
 7142SOL    HW233081   2.160   7.637   5.061 -0.0098 -0.8614 -0.0390
 7143SOL     OW33082   5.346   9.853   6.156  0.6030  0.3371  0.2803
 7143SOL    HW133083   5.304   9.765   6.180  1.2245 -0.2376 -0.7604
 7143SOL    HW233084   5.324   9.919   6.228 -0.1691 -0.5608  0.9001
 7144SOL     OW33085   8.165   0.731   0.488 -0.0837 -0.6910  0.3535
 7144SOL    HW133086   8.196   0.825   0.488  0.9182 -1.0148  1.2043
 7144SOL    HW233087   8.073   0.726   0.527 -0.2695 -0.0244 -0.0072
 7145SOL     OW33088   5.364   6.226   1.268 -0.0331 -0.2904 -0.1725
 7145SOL    HW133089   5.285   6.167   1.250 -0.8146  0.4145  0.8990
 7145SOL    HW233090   5.339   6.296   1.335  1.2828  0.4199 -0.4060
 7146SOL     OW33091   3.103   6.564   3.923  0.4915  0.3575 -0.0358
 7146SOL    HW133092   3.019   6.580   3.975 -1.7558 -0.1515 -3.3931
 7146SOL    HW233093   3.124   6.466   3.924  0.0699  0.2573 -0.6138
 7147SOL     OW33094   1.427   7.322   8.171  0.0891 -0.8290 -0.4364
 7147SOL    HW133095   1.406   7.225   8.187 -0.3399 -0.7266 -0.3650
 7147SOL    HW233096   1.519   7.330   8.133  0.8073 -1.1350  1.1888
 7148SOL     OW33097   6.030   4.878   1.184 -0.0464 -0.2730 -0.4384
 7148SOL    HW133098   6.118   4.869   1.137 -0.4907  1.4698 -1.6595
 7148SOL    HW233099   5.958   4.893   1.116 -0.9343  0.6902  0.6995
 7149SOL     OW33100   2.738   8.591   2.951 -0.2175  0.2209 -0.0504
 7149SOL    HW133101   2.757   8.651   2.873 -1.7612 -0.3015 -0.8491
 7149SOL    HW233102   2.701   8.645   3.026 -1.1488  0.3583 -0.5960
 7150SOL     OW33103   9.949   7.137   2.577 -0.2674  0.3703 -0.0322
 7150SOL    HW133104   9.989   7.084   2.503 -1.1959 -0.1606 -0.1491
 7150SOL    HW233105   9.985   7.230   2.574  2.2894 -0.5316  0.8861
 7151SOL     OW33106   2.120   3.652   6.435 -0.0992  0.0637  0.0442
 7151SOL    HW133107   2.161   3.659   6.526 -0.0840 -1.2031  0.1453
 7151SOL    HW233108   2.188   3.616   6.371 -0.8444 -1.4492  0.0806
 7152SOL     OW33109   1.622   2.926   5.674 -0.2918 -0.4766  0.4873
 7152SOL    HW133110   1.592   2.836   5.644 -0.4809  0.3478 -1.8990
 7152SOL    HW233111   1.555   2.995   5.646  1.2192  0.7368 -0.2230
 7153SOL     OW33112   0.838   9.550   6.932 -0.2166  0.1836 -0.4759
 7153SOL    HW133113   0.866   9.635   6.977  1.7705 -0.1562 -1.0018
 7153SOL    HW233114   0.739   9.539   6.940  0.0027  0.3904  3.2931
 7154SOL     OW33115   6.979   6.583   4.730  0.1996  0.0184 -0.0109
 7154SOL    HW133116   6.889   6.558   4.692 -1.0864  0.2932  2.7256
 7154SOL    HW233117   7.043   6.508   4.716 -1.0431 -1.0375 -0.1485
 7155SOL     OW33118   5.025   4.734   7.085  0.1613 -0.5045 -0.0055
 7155SOL    HW133119   5.064   4.791   7.012  0.4183  1.0496  1.3043
 7155SOL    HW233120   5.041   4.778   7.173 -0.5195 -2.1510  0.9606
 7156SOL     OW33121   7.848   2.382   2.874 -0.3239  0.0490  0.1702
 7156SOL    HW133122   7.870   2.441   2.796  0.3589  1.3617  1.3262
 7156SOL    HW233123   7.929   2.331   2.903 -0.7267 -0.8916 -0.3553
 7157SOL     OW33124   9.178   6.101   6.314  0.0155  0.1321 -0.2278
 7157SOL    HW133125   9.274   6.122   6.295 -0.0883  0.5310 -0.3201
 7157SOL    HW233126   9.123   6.184   6.304 -0.3547 -0.1151 -0.2705
 7158SOL     OW33127   6.364   3.203   0.272 -0.3826  0.0292  0.1338
 7158SOL    HW133128   6.301   3.167   0.203 -2.0959 -0.5958  1.9817
 7158SOL    HW233129   6.375   3.302   0.258  0.2702 -0.2918 -1.7706
 7159SOL     OW33130   0.771   0.060   6.657  0.3829 -0.2935 -0.0694
 7159SOL    HW133131   0.677   0.042   6.685  0.4975 -1.0747 -0.1830
 7159SOL    HW233132   0.831   0.060   6.737  0.4770 -1.0303 -0.1377
 7160SOL     OW33133   4.787   9.234   6.726  0.6017 -0.3560 -0.3963
 7160SOL    HW133134   4.711   9.293   6.752  0.8767 -0.2397  0.1685
 7160SOL    HW233135   4.873   9.286   6.731  0.6129 -0.2039 -2.0209
 7161SOL     OW33136   0.143   5.255   1.337  0.4942  0.2688 -0.0728
 7161SOL    HW133137   0.177   5.289   1.424 -0.8381  1.2603  0.0779
 7161SOL    HW233138   0.087   5.174   1.352  1.6115 -0.5342 -0.1823
 7162SOL     OW33139   1.318   4.115   4.949  0.2486 -0.1079  0.1470
 7162SOL    HW133140   1.229   4.143   4.985 -0.5836 -2.0158 -0.3833
 7162SOL    HW233141   1.367   4.195   4.915 -0.3870  1.2640  2.3367
 7163SOL     OW33142   9.989   6.545   6.515 -0.0156  0.5147 -0.6186
 7163SOL    HW133143   9.910   6.489   6.491  0.5586 -0.6365  0.1025
 7163SOL    HW233144  10.055   6.489   6.565 -0.2502  2.2920  1.7609
 7164SOL     OW33145   9.740   9.266   4.969  0.7487 -0.0566  0.4922
 7164SOL    HW133146   9.798   9.223   5.037 -0.5697 -0.3716  1.4395
 7164SOL    HW233147   9.738   9.209   4.886 -1.7917 -2.4255  2.0920
 7165SOL     OW33148   9.513   5.059   5.668 -0.3058  0.2574  0.0615
 7165SOL    HW133149   9.485   5.113   5.748  0.0234  0.2198  0.2064
 7165SOL    HW233150   9.435   5.010   5.631 -0.2238 -0.6361  1.0654
 7166SOL     OW33151   0.635   9.543   5.965  0.0528 -0.1934  0.4024
 7166SOL    HW133152   0.557   9.492   5.929  0.2784  0.6759 -1.3937
 7166SOL    HW233153   0.709   9.479   5.989 -1.9689 -1.2219  4.2454
 7167SOL     OW33154   8.958   5.941   0.142  0.3960 -0.0552  0.1568
 7167SOL    HW133155   8.896   5.906   0.211  1.2652  0.2042  1.0883
 7167SOL    HW233156   8.953   5.885   0.060 -1.2933  0.1646  0.1039
 7168SOL     OW33157   3.807   2.205   1.240 -0.3543 -0.2490 -0.5851
 7168SOL    HW133158   3.776   2.143   1.168 -0.5556  0.7770 -1.3797
 7168SOL    HW233159   3.733   2.266   1.266 -0.4318 -0.9294  0.8440
 7169SOL     OW33160   3.381   3.730   1.826  0.3758 -0.5326 -0.2580
 7169SOL    HW133161   3.454   3.765   1.769 -0.2540  2.9198  0.9786
 7169SOL    HW233162   3.297   3.782   1.810 -0.6951 -1.6827  1.3992
 7170SOL     OW33163   9.938   3.984   6.657  0.8652  0.3797  0.2577
 7170SOL    HW133164   9.850   3.948   6.627  0.3842  1.3986  0.4059
 7170SOL    HW233165   9.936   4.000   6.755  1.1051  0.7092  0.2108
 7171SOL     OW33166   9.896   7.278   7.764  0.3428  0.3257 -0.0577
 7171SOL    HW133167   9.949   7.339   7.704  0.8840  3.6513  3.6153
 7171SOL    HW233168   9.920   7.297   7.859 -1.6604 -3.7197  1.3285
 7172SOL     OW33169   9.062   6.386   1.096 -0.0370  0.0708  0.0189
 7172SOL    HW133170   9.101   6.332   1.022 -1.2124 -2.7989  1.4357
 7172SOL    HW233171   9.036   6.326   1.172 -1.0461  2.6680  1.8103
 7173SOL     OW33172   1.831   1.906   3.781  0.3996 -0.0831  0.0034
 7173SOL    HW133173   1.911   1.875   3.832 -0.4776  1.0039  2.0953
 7173SOL    HW233174   1.765   1.831   3.774  0.3425 -0.1222  0.8746
 7174SOL     OW33175   8.451   1.806   7.841 -0.0071  0.4643 -0.0933
 7174SOL    HW133176   8.465   1.770   7.934  1.9394  0.2757 -0.4407
 7174SOL    HW233177   8.353   1.814   7.823 -0.4179  1.2940  2.2840
 7175SOL     OW33178   3.429   1.309   6.894  0.0526  0.3836 -0.8808
 7175SOL    HW133179   3.522   1.344   6.878  1.1432 -1.4994  1.0887
 7175SOL    HW233180   3.396   1.342   6.983  0.5152 -2.3023  0.3362
 7176SOL     OW33181   3.607   2.799   5.565 -0.9514  0.1964 -0.0254
 7176SOL    HW133182   3.620   2.873   5.630  0.7643  0.7677 -0.9756
 7176SOL    HW233183   3.599   2.837   5.473 -3.3362 -0.5986 -0.1837
 7177SOL     OW33184   0.471   2.158   7.131 -0.3501  0.2547  0.6904
 7177SOL    HW133185   0.527   2.163   7.048 -2.6767  0.6098 -0.9237
 7177SOL    HW233186   0.391   2.100   7.113 -0.6399 -0.0294  2.8438
 7178SOL     OW33187   2.495   6.225   5.845 -0.2430 -0.0034  0.6454
 7178SOL    HW133188   2.537   6.260   5.761 -1.4476  0.7515  0.3404
 7178SOL    HW233189   2.566   6.201   5.910  0.7535 -1.5343 -0.9584
 7179SOL     OW33190   0.027   9.441   6.932 -0.2570 -0.4654  0.0627
 7179SOL    HW133191   0.046   9.479   7.023  0.5981 -0.3431 -0.1564
 7179SOL    HW233192  -0.019   9.510   6.877  1.1467  0.2272 -0.2783
 7180SOL     OW33193   6.825   2.437   4.555 -0.3169 -0.2755 -0.5027
 7180SOL    HW133194   6.863   2.381   4.482  1.7339  2.3991 -1.5488
 7180SOL    HW233195   6.882   2.428   4.637  1.0320  1.6144 -1.2190
 7181SOL     OW33196   4.764   1.518   2.950  0.8435 -0.7040 -0.2992
 7181SOL    HW133197   4.761   1.418   2.945 -1.3743 -0.7223  0.4449
 7181SOL    HW233198   4.706   1.556   2.878  0.0347 -0.0235  0.6980
 7182SOL     OW33199   2.023   7.375   5.252  0.0546 -0.5134  0.3813
 7182SOL    HW133200   2.098   7.346   5.193 -0.0508 -1.9120  0.9024
 7182SOL    HW233201   1.950   7.306   5.250  1.0713 -1.8439  3.9327
 7183SOL     OW33202   2.957   6.806   2.918  0.3111 -0.1078 -0.3223
 7183SOL    HW133203   2.916   6.779   2.831 -1.0176  0.3411  0.1626
 7183SOL    HW233204   2.886   6.834   2.982  1.0934 -2.4073  1.6235
 7184SOL     OW33205   9.698   0.322   4.039 -0.1630  0.0135  0.6199
 7184SOL    HW133206   9.752   0.348   3.959 -0.4254  1.7307  0.9748
 7184SOL    HW233207   9.633   0.251   4.014 -0.8892  1.1970 -0.9302
 7185SOL     OW33208   3.853   1.761   6.704  1.0984 -0.6710 -0.0372
 7185SOL    HW133209   3.918   1.835   6.688  2.3880 -1.7502  0.1587
 7185SOL    HW233210   3.795   1.783   6.783 -1.2609  1.9456 -2.3764
 7186SOL     OW33211   4.237   9.444   2.746 -0.4973  0.3754 -0.0182
 7186SOL    HW133212   4.331   9.453   2.714 -0.2425  0.0386  0.6189
 7186SOL    HW233213   4.196   9.361   2.708 -0.4944  0.4574 -0.1990
 7187SOL     OW33214   6.273   4.443   7.569  0.2188  0.2254 -0.3757
 7187SOL    HW133215   6.302   4.538   7.578  0.2630  0.2971 -1.1845
 7187SOL    HW233216   6.185   4.430   7.615 -0.2553  0.8928 -1.0777
 7188SOL     OW33217   4.918   5.934   1.881  0.1988 -0.3196  0.1019
 7188SOL    HW133218   4.881   5.930   1.788 -0.2202 -1.3049  0.2978
 7188SOL    HW233219   4.863   5.875   1.941  0.3339  0.4726  1.0246
 7189SOL     OW33220   0.412   6.413   7.142  0.3148  0.0668  0.2051
 7189SOL    HW133221   0.327   6.429   7.193 -0.5098 -0.7235 -0.9089
 7189SOL    HW233222   0.413   6.471   7.061  0.7027 -0.1704  0.0427
 7190SOL     OW33223   4.865   1.181   3.371 -0.1911  0.2727  0.0605
 7190SOL    HW133224   4.860   1.082   3.384 -0.6003  0.2581 -0.2134
 7190SOL    HW233225   4.958   1.207   3.344  0.2107  0.0905  1.2049
 7191SOL     OW33226   0.001   1.743   8.163  0.6109  0.1747  0.3850
 7191SOL    HW133227  -0.023   1.679   8.236  0.1389 -0.9454 -0.7253
 7191SOL    HW233228   0.065   1.699   8.100  1.1260  1.1761  0.2077
 7192SOL     OW33229   0.745   8.660   7.534 -0.1473  0.9810 -0.2637
 7192SOL    HW133230   0.674   8.592   7.514 -0.5466  1.3162  0.0110
 7192SOL    HW233231   0.733   8.740   7.476 -0.6937  1.5238  0.5792
 7193SOL     OW33232   2.389   2.111   2.617 -0.2262  0.0625  0.0497
 7193SOL    HW133233   2.384   2.103   2.716  0.0414  0.6788  0.1160
 7193SOL    HW233234   2.372   2.022   2.575 -0.8206 -0.1007  0.6300
 7194SOL     OW33235   7.588   5.459   5.344 -0.1703 -0.2244 -0.2735
 7194SOL    HW133236   7.571   5.397   5.421 -1.3362  0.5255  0.0932
 7194SOL    HW233237   7.531   5.541   5.355  1.1060  0.7522 -0.9302
 7195SOL     OW33238   9.121   3.435   1.514  0.1293  0.6237  0.0108
 7195SOL    HW133239   9.116   3.355   1.454 -0.1664  0.7161 -0.0875
 7195SOL    HW233240   9.147   3.515   1.460 -0.1753  0.7151 -0.0012
 7196SOL     OW33241   2.665   6.808   6.143  0.7259 -0.1578  0.2140
 7196SOL    HW133242   2.750   6.758   6.131 -1.1427 -2.8316 -2.5828
 7196SOL    HW233243   2.588   6.754   6.108 -1.9460  2.8502  1.1125
 7197SOL     OW33244   1.785   3.531   7.011  0.4900  0.2553  0.1477
 7197SOL    HW133245   1.815   3.501   6.921 -0.5536  1.2455 -0.5485
 7197SOL    HW233246   1.707   3.593   7.001 -0.3091 -0.4595  1.7805
 7198SOL     OW33247   7.893   4.229   1.813 -0.1875  0.7278  0.4732
 7198SOL    HW133248   7.866   4.188   1.726  1.7026 -0.2457  0.3306
 7198SOL    HW233249   7.833   4.194   1.885 -2.6443  2.5663 -0.5839
 7199SOL     OW33250   8.914   7.484   4.640  0.3377 -0.4661 -0.5579
 7199SOL    HW133251   8.975   7.408   4.662  0.5387 -0.2228 -0.2810
 7199SOL    HW233252   8.928   7.511   4.545  0.0938 -0.9303 -0.7330
 7200SOL     OW33253   6.926   6.006   1.149  0.0707  0.0941 -0.2029
 7200SOL    HW133254   6.971   5.934   1.096 -2.5509  0.3010 -2.8274
 7200SOL    HW233255   6.950   6.095   1.111 -0.8512  0.3175 -0.2620
 7201SOL     OW33256   4.587   3.772   4.994  0.1915  0.0035  0.2689
 7201SOL    HW133257   4.589   3.872   5.003  2.1431 -0.2161  2.7452
 7201SOL    HW233258   4.585   3.748   4.897  2.9243  2.4188 -0.4491
 7202SOL     OW33259   1.807   8.293   6.070  0.0147 -0.3634  0.1786
 7202SOL    HW133260   1.846   8.372   6.117 -0.9527 -0.5400  1.3262
 7202SOL    HW233261   1.757   8.323   5.989  0.1438  0.1366  0.2848
 7203SOL     OW33262   2.977   2.679   5.066  0.1061 -0.1593  1.0087
 7203SOL    HW133263   2.989   2.767   5.111 -2.0041 -0.7661  2.8885
 7203SOL    HW233264   3.046   2.667   4.994 -0.0609  3.3288  0.2085
 7204SOL     OW33265   3.231   3.109   5.853  0.4315  0.0381 -0.4758
 7204SOL    HW133266   3.202   3.019   5.884  0.7625 -0.2389 -0.9604
 7204SOL    HW233267   3.302   3.144   5.914 -1.8054  1.2846  1.4849
 7205SOL     OW33268   9.024   8.814   3.952 -0.7244  0.2200 -0.4981
 7205SOL    HW133269   8.967   8.894   3.932 -2.9415 -0.7251  1.8361
 7205SOL    HW233270   8.985   8.734   3.906 -1.4544 -0.4676  1.2686
 7206SOL     OW33271   7.451   5.945   2.814 -0.4320 -0.4310 -0.3602
 7206SOL    HW133272   7.451   5.845   2.807 -1.1945 -0.3262 -1.9542
 7206SOL    HW233273   7.391   5.984   2.745  0.6305  1.1829 -0.4117
 7207SOL     OW33274   3.280   0.860   1.716 -0.2050  0.2716 -0.3635
 7207SOL    HW133275   3.275   0.856   1.616 -0.7631  0.2910 -0.3388
 7207SOL    HW233276   3.203   0.810   1.755  1.4960 -2.0915  0.0913
 7208SOL     OW33277   5.308   0.509   2.621  0.0686  0.3700  0.5154
 7208SOL    HW133278   5.396   0.552   2.598 -0.4783  0.9903 -0.4470
 7208SOL    HW233279   5.251   0.574   2.671  0.8699 -0.6509  2.8062
 7209SOL     OW33280   3.530   5.829   0.245 -0.2218  0.3779 -0.6499
 7209SOL    HW133281   3.460   5.771   0.286  0.3514 -1.1055 -1.7323
 7209SOL    HW233282   3.494   5.871   0.161 -0.0304  0.1109 -0.8673
 7210SOL     OW33283   4.819   4.148   0.430  0.2669  0.3539 -0.3200
 7210SOL    HW133284   4.847   4.053   0.422 -1.1089 -0.0123 -1.0071
 7210SOL    HW233285   4.829   4.193   0.341 -0.4222  0.4569 -0.3516
 7211SOL     OW33286   7.800   1.875   1.345 -0.6332  0.1217 -0.2204
 7211SOL    HW133287   7.845   1.962   1.324  1.1216 -0.2708  1.8356
 7211SOL    HW233288   7.720   1.865   1.286 -1.6789  3.7691  0.4250
 7212SOL     OW33289   6.293   2.574   0.426 -1.5721 -0.5751  0.3810
 7212SOL    HW133290   6.359   2.547   0.355  0.3265 -1.5993  2.4614
 7212SOL    HW233291   6.309   2.669   0.452 -3.8733  0.5986 -2.2128
 7213SOL     OW33292   7.327   4.270   1.459 -1.1102 -0.4326 -0.2332
 7213SOL    HW133293   7.409   4.245   1.512  0.2211 -1.2242 -2.6012
 7213SOL    HW233294   7.274   4.337   1.510  0.0813 -1.2379  2.1531
 7214SOL     OW33295   0.657   7.872   4.151  0.1908  0.4324  0.2003
 7214SOL    HW133296   0.686   7.926   4.229 -2.0329  1.2543  0.4934
 7214SOL    HW233297   0.581   7.813   4.178 -1.6512  1.8706 -1.7088
 7215SOL     OW33298   0.502   6.887   4.808  0.2563 -0.4521  0.0047
 7215SOL    HW133299   0.598   6.861   4.820  0.4098  0.2903  0.4032
 7215SOL    HW233300   0.496   6.968   4.749 -0.0848 -0.1621  0.4296
 7216SOL     OW33301   6.067   0.327   3.446 -0.3957  0.0343  0.0471
 7216SOL    HW133302   6.136   0.346   3.376 -0.9516 -0.8083 -0.7343
 7216SOL    HW233303   6.013   0.247   3.420 -1.2993  0.3382  0.9245
 7217SOL     OW33304   6.510   8.062   4.387 -0.3717  0.2722 -0.2869
 7217SOL    HW133305   6.546   7.969   4.394  0.6839  0.8240  1.9624
 7217SOL    HW233306   6.417   8.059   4.352 -0.1606 -1.5943 -0.7222
 7218SOL     OW33307   1.513   8.934   8.159 -0.6160  0.0971  0.2341
 7218SOL    HW133308   1.595   8.911   8.212 -1.2697  0.2175  1.3027
 7218SOL    HW233309   1.525   8.902   8.065  1.5958  2.1677 -0.2223
 7219SOL     OW33310   2.090   5.929   6.925  0.3509 -0.2241  0.1207
 7219SOL    HW133311   2.155   5.997   6.958 -0.1651 -0.0512  0.8106
 7219SOL    HW233312   2.138   5.857   6.876  0.8113  1.0827 -1.3987
 7220SOL     OW33313   0.554   3.463   5.533  0.5525  0.8484  0.2671
 7220SOL    HW133314   0.582   3.455   5.437  0.7350 -0.8782  0.4446
 7220SOL    HW233315   0.573   3.377   5.580 -0.3706  1.3865  1.6452
 7221SOL     OW33316   4.177   9.459   0.388 -0.2722 -0.2678  0.6113
 7221SOL    HW133317   4.082   9.489   0.375 -0.0486 -1.1859 -3.9089
 7221SOL    HW233318   4.178   9.375   0.443 -2.1177 -0.6772  0.0508
 7222SOL     OW33319   1.687   3.657   1.213  0.1335  0.0616  0.1895
 7222SOL    HW133320   1.718   3.572   1.172 -1.7728 -0.2738 -0.5835
 7222SOL    HW233321   1.620   3.638   1.285 -0.2589  0.9027  0.0588
 7223SOL     OW33322   2.595   2.852   5.553  0.7646 -0.1163 -0.6877
 7223SOL    HW133323   2.650   2.933   5.530 -0.5231  1.3332  1.1791
 7223SOL    HW233324   2.655   2.782   5.593  1.3760  1.2270  0.8118
 7224SOL     OW33325   3.894   5.728   7.480 -0.3138 -0.1689 -0.3342
 7224SOL    HW133326   3.931   5.751   7.570 -2.8631  0.5603  0.5568
 7224SOL    HW233327   3.900   5.629   7.467  2.5527 -0.0041 -0.5157
 7225SOL     OW33328   2.056   8.986   0.662  0.2645  0.1995 -0.1566
 7225SOL    HW133329   2.022   9.034   0.582  3.0544  0.1948 -1.4159
 7225SOL    HW233330   1.994   8.910   0.685  0.3919 -0.9658 -3.4685
 7226SOL     OW33331   9.782   9.954   5.644 -0.2407 -0.5062  0.3676
 7226SOL    HW133332   9.880   9.961   5.629 -0.2943 -0.2424  0.1241
 7226SOL    HW233333   9.733   9.992   5.565 -0.5511 -1.8755 -0.1053
 7227SOL     OW33334   8.995   3.100   3.905  0.0259 -0.2166  0.1398
 7227SOL    HW133335   8.949   3.187   3.885  1.2643  0.4675  0.2071
 7227SOL    HW233336   9.022   3.097   4.001  0.0725 -0.6400  0.1146
 7228SOL     OW33337   4.445   8.150   6.618  0.2135 -0.4756  0.4210
 7228SOL    HW133338   4.492   8.230   6.656  0.9895  0.1953 -1.8734
 7228SOL    HW233339   4.359   8.179   6.576  0.6704 -0.7708 -0.7313
 7229SOL     OW33340   9.188   6.769   5.623 -0.7386  0.3112  0.0924
 7229SOL    HW133341   9.202   6.830   5.545 -2.6139 -0.6160 -0.9929
 7229SOL    HW233342   9.107   6.797   5.673 -0.1549  0.2461  1.0823
 7230SOL     OW33343   9.614   4.802   0.396  0.3660 -0.1080  0.1569
 7230SOL    HW133344   9.585   4.898   0.393 -1.7677 -0.7014  1.5063
 7230SOL    HW233345   9.611   4.764   0.303  0.3444  0.8629 -0.2490
 7231SOL     OW33346   3.075   9.030   5.789  0.3161  0.2238  0.5967
 7231SOL    HW133347   3.115   9.075   5.710 -1.1454 -0.2122 -0.4235
 7231SOL    HW233348   3.124   9.056   5.872  2.1460  0.3270 -0.5112
 7232SOL     OW33349   3.213   4.259   0.714  0.6954 -0.0633 -0.5184
 7232SOL    HW133350   3.170   4.193   0.652 -1.2361  1.9351 -1.3715
 7232SOL    HW233351   3.287   4.306   0.666  0.5083  0.0655 -0.6843
 7233SOL     OW33352   0.554   0.923   1.086 -0.1538  0.1018  0.0456
 7233SOL    HW133353   0.481   0.872   1.132 -1.5642  1.4242 -0.6882
 7233SOL    HW233354   0.641   0.904   1.131 -0.9729 -1.3055  1.0886
 7234SOL     OW33355   3.997   8.087   0.903  0.2756  0.3150 -0.1151
 7234SOL    HW133356   4.006   8.174   0.856 -1.7231  0.0882 -0.9582
 7234SOL    HW233357   3.919   8.091   0.965 -0.1253 -1.0243 -0.5193
 7235SOL     OW33358   7.164   1.501   3.371  0.0591  0.1411  0.8245
 7235SOL    HW133359   7.115   1.487   3.457 -0.2386  0.2414  0.6737
 7235SOL    HW233360   7.262   1.487   3.385  0.0985  0.9333  1.3509
 7236SOL     OW33361   5.744   0.523   4.040  0.0494 -0.1906  0.0016
 7236SOL    HW133362   5.817   0.591   4.039  0.8493 -1.0387 -0.1027
 7236SOL    HW233363   5.717   0.500   3.947 -1.5028  1.3092  0.0381
 7237SOL     OW33364   2.805   2.860   4.262 -0.1182 -0.0005 -0.0831
 7237SOL    HW133365   2.780   2.854   4.359 -0.9668 -1.3310 -0.3695
 7237SOL    HW233366   2.882   2.799   4.244  1.5343  1.9688  0.2125
 7238SOL     OW33367   3.085   2.247   8.211  0.1777  0.1903  0.3939
 7238SOL    HW133368   3.174   2.258   8.256 -0.3437 -0.3917  1.5923
 7238SOL    HW233369   3.098   2.234   8.113  1.4596 -0.6090  0.6584
 7239SOL     OW33370   0.730   1.695   4.091  0.6145  0.1160 -0.4797
 7239SOL    HW133371   0.720   1.767   4.022  0.1523 -0.1682 -0.7124
 7239SOL    HW233372   0.676   1.719   4.172  1.3770  0.5828 -0.1057
 7240SOL     OW33373   3.649   1.061   2.385 -0.3359  0.1435  0.0306
 7240SOL    HW133374   3.723   1.001   2.418 -0.3739  0.0986  0.0341
 7240SOL    HW233375   3.686   1.153   2.369  0.0039 -0.1978 -1.1939
 7241SOL     OW33376   7.369   0.792   5.245 -0.6183  0.0321  0.4455
 7241SOL    HW133377   7.409   0.707   5.210 -0.1398 -0.1312  1.3565
 7241SOL    HW233378   7.439   0.843   5.296 -1.0247  0.7581  0.2904
 7242SOL     OW33379   9.419   7.294   1.554  0.1570  0.2567 -0.0249
 7242SOL    HW133380   9.460   7.374   1.598 -0.0532 -1.6104  3.7263
 7242SOL    HW233381   9.482   7.260   1.484  1.7157  1.7561  0.5859
 7243SOL     OW33382   1.577   7.334   3.008 -0.0880 -0.0230  0.2268
 7243SOL    HW133383   1.649   7.365   3.071  2.2774 -2.5149 -1.1192
 7243SOL    HW233384   1.514   7.274   3.057  0.0229  0.4179  0.9212
 7244SOL     OW33385   6.827   9.346   2.097 -0.0004  0.1213  0.6804
 7244SOL    HW133386   6.923   9.355   2.070  0.1180 -0.4645  0.8955
 7244SOL    HW233387   6.789   9.264   2.055 -0.2069 -0.0332  1.1720
 7245SOL     OW33388   6.642   4.967   1.386  0.3425 -0.1139 -0.0730
 7245SOL    HW133389   6.608   5.057   1.358  0.3333  0.0460  0.4622
 7245SOL    HW233390   6.676   4.971   1.480 -1.8617 -1.2420  0.8126
 7246SOL     OW33391   2.645   7.455   4.000 -0.4013 -0.0009  0.0949
 7246SOL    HW133392   2.655   7.537   3.945 -0.9030 -0.3711 -0.5608
 7246SOL    HW233393   2.594   7.476   4.083 -0.4229  0.3755 -0.0157
 7247SOL     OW33394   2.844   2.045   0.721  0.4999 -0.2013 -0.2647
 7247SOL    HW133395   2.889   2.097   0.648  0.1394 -1.7692 -1.6519
 7247SOL    HW233396   2.874   1.950   0.717 -0.9360 -0.7038  0.4457
 7248SOL     OW33397   7.292   8.737   5.779 -0.5716 -0.1437 -0.0037
 7248SOL    HW133398   7.314   8.833   5.794  2.5131 -0.6092 -0.9670
 7248SOL    HW233399   7.320   8.683   5.858  0.4690 -0.5827 -0.6525
 7249SOL     OW33400   2.416   8.874   0.798 -0.1458 -0.2580 -0.2835
 7249SOL    HW133401   2.358   8.797   0.771  0.1746  0.2536 -2.4884
 7249SOL    HW233402   2.374   8.960   0.767  0.9218  0.2526 -0.3357
 7250SOL     OW33403   0.332   6.910   0.189 -0.3206 -0.3725 -0.4078
 7250SOL    HW133404   0.286   6.826   0.162  1.7051 -0.9946 -1.9881
 7250SOL    HW233405   0.423   6.889   0.224 -0.0236  1.1198 -0.2303
 7251SOL     OW33406   5.503   4.240   0.608 -0.2638 -0.3875  0.1578
 7251SOL    HW133407   5.583   4.180   0.605 -0.5991 -0.8334  0.1202
 7251SOL    HW233408   5.448   4.219   0.688  0.7606  1.3600  1.3745
 7252SOL     OW33409   0.429   4.782   6.534 -0.3294  0.1289  0.3370
 7252SOL    HW133410   0.465   4.699   6.491  1.7962  0.7230  0.8981
 7252SOL    HW233411   0.360   4.757   6.601 -1.3249 -1.0235 -1.0943
 7253SOL     OW33412   0.703   8.547   2.738 -0.1674  0.6649  0.7017
 7253SOL    HW133413   0.621   8.514   2.784  0.0627  0.2895  0.8394
 7253SOL    HW233414   0.731   8.482   2.668 -1.6544  2.1713 -1.3289
 7254SOL     OW33415   0.681   8.582   6.850  0.2893  0.5541  0.1964
 7254SOL    HW133416   0.760   8.521   6.850  1.2996  1.8146  0.5352
 7254SOL    HW233417   0.677   8.630   6.762 -1.9685 -1.8099 -1.0361
 7255SOL     OW33418   5.585   9.714   4.076  0.2550  0.2294 -0.0142
 7255SOL    HW133419   5.649   9.709   3.999 -0.5644  0.2760 -0.7023
 7255SOL    HW233420   5.627   9.673   4.157  0.9619 -0.1946 -0.5915
 7256SOL     OW33421   3.040   8.877   5.415  0.2428  0.1908  0.2150
 7256SOL    HW133422   3.115   8.815   5.392 -0.8591 -1.1096  0.0546
 7256SOL    HW233423   3.057   8.918   5.505  0.4790 -1.1560  0.7994
 7257SOL     OW33424   8.046   3.859   7.595  0.4498  0.8178  0.2233
 7257SOL    HW133425   8.034   3.818   7.685  0.0389  0.0001 -0.2013
 7257SOL    HW233426   8.140   3.842   7.563 -0.4540 -2.0733 -1.0644
 7258SOL     OW33427   1.244   7.186   0.588  0.5598  0.3828 -0.6442
 7258SOL    HW133428   1.248   7.086   0.601  1.1321  0.3407 -1.1171
 7258SOL    HW233429   1.308   7.230   0.651 -0.1408  0.4960 -0.0048
 7259SOL     OW33430   9.310   4.729   2.211  0.0895 -0.2835 -0.2376
 7259SOL    HW133431   9.353   4.808   2.254  0.4134 -0.2971 -0.5322
 7259SOL    HW233432   9.296   4.748   2.113 -1.2512  0.0074  0.0034
 7260SOL     OW33433   5.965   1.959   3.644 -0.3621  0.3685 -0.2592
 7260SOL    HW133434   5.946   1.933   3.549 -1.4195  2.6050 -0.6953
 7260SOL    HW233435   5.943   1.882   3.704 -0.8789 -0.6516 -1.7172
 7261SOL     OW33436   7.054   3.480   1.684  0.4845  0.0951  0.1089
 7261SOL    HW133437   6.972   3.455   1.736  0.7907 -0.9310  0.1207
 7261SOL    HW233438   7.062   3.579   1.679 -0.5526  0.1980  0.4365
 7262SOL     OW33439   1.057   4.358   3.116 -0.5728  0.1776  0.3031
 7262SOL    HW133440   0.974   4.354   3.172  0.3748  1.6674  1.8807
 7262SOL    HW233441   1.101   4.269   3.115 -1.0328 -0.0674  1.2865
 7263SOL     OW33442   2.347   6.302   3.779  0.1657  0.4845 -0.2142
 7263SOL    HW133443   2.352   6.308   3.679 -0.2728 -1.2471 -0.3677
 7263SOL    HW233444   2.439   6.303   3.817  0.4446 -0.9047 -0.8069
 7264SOL     OW33445   4.993   4.372   7.848 -0.0259 -0.1230  0.3575
 7264SOL    HW133446   5.070   4.377   7.785 -1.1903  0.7455 -1.0321
 7264SOL    HW233447   4.937   4.292   7.828 -0.4057  0.1604  0.2602
 7265SOL     OW33448   0.434   7.674   3.621 -0.2947 -0.4901  0.3888
 7265SOL    HW133449   0.504   7.611   3.655  0.7002 -0.7048 -1.9855
 7265SOL    HW233450   0.446   7.763   3.664 -1.3573 -1.7113  3.3453
 7266SOL     OW33451   0.151   3.402   5.620  0.1459  0.1865  0.3959
 7266SOL    HW133452   0.207   3.481   5.594  2.2822 -1.9609 -1.7731
 7266SOL    HW233453   0.061   3.409   5.578  0.8122  0.7720 -0.9570
 7267SOL     OW33454   3.718   4.924   7.213 -0.1090 -0.0379  0.6126
 7267SOL    HW133455   3.681   4.878   7.133 -0.3827 -0.7458  1.1463
 7267SOL    HW233456   3.777   5.000   7.184 -2.2077  1.3161 -0.2637
 7268SOL     OW33457   8.497   1.589   6.081 -0.1144  0.7715 -0.0327
 7268SOL    HW133458   8.581   1.602   6.030 -1.1208  1.2477 -1.6154
 7268SOL    HW233459   8.440   1.671   6.072  0.0996  1.2707  2.6749
 7269SOL     OW33460   3.756   7.491   4.341  0.0099 -0.2554  0.1486
 7269SOL    HW133461   3.791   7.558   4.276 -0.4213 -0.1341  0.0406
 7269SOL    HW233462   3.832   7.455   4.395  0.1378  0.8594  0.7225
 7270SOL     OW33463   9.357   8.822   1.059 -0.6164  0.3204 -1.2267
 7270SOL    HW133464   9.390   8.735   1.094 -2.8914 -0.6499 -1.4222
 7270SOL    HW233465   9.409   8.848   0.978  0.9496 -0.1772 -0.4087
 7271SOL     OW33466   0.898   3.751   1.180 -0.3566 -0.0856 -0.2237
 7271SOL    HW133467   0.897   3.661   1.136  0.7259  0.1902 -0.8190
 7271SOL    HW233468   0.976   3.756   1.243  0.4741  0.9447 -1.2939
 7272SOL     OW33469   3.238   0.480   1.760 -0.2864  0.3306 -0.3243
 7272SOL    HW133470   3.202   0.440   1.844  0.6066  1.1388  0.4542
 7272SOL    HW233471   3.336   0.498   1.771  0.2494 -1.2419 -2.1743
 7273SOL     OW33472   0.109   1.577   2.149  0.0240 -0.9320 -0.0925
 7273SOL    HW133473   0.025   1.567   2.204 -0.3525 -0.0832 -0.5007
 7273SOL    HW233474   0.173   1.504   2.172 -0.2937 -0.8174  1.1982
 7274SOL     OW33475   3.903   0.311   1.161 -0.4116  0.1594 -0.2803
 7274SOL    HW133476   3.876   0.291   1.067 -0.3487  2.0737 -0.7119
 7274SOL    HW233477   3.879   0.233   1.220 -0.1825 -1.1660 -1.9176
 7275SOL     OW33478   9.409   6.391   2.467  0.3501 -0.2228 -0.8743
 7275SOL    HW133479   9.435   6.477   2.512 -1.7726  0.1259 -0.2323
 7275SOL    HW233480   9.400   6.319   2.536 -0.3755 -0.3245 -1.0749
 7276SOL     OW33481   8.814   9.913   0.672 -0.1569  0.1514 -0.1246
 7276SOL    HW133482   8.753   9.940   0.747  0.9816  1.3139  0.4164
 7276SOL    HW233483   8.836   9.993   0.616  0.2600 -0.4028 -0.7624
 7277SOL     OW33484   2.963   8.238   5.423  0.0145 -0.1925  0.1009
 7277SOL    HW133485   3.015   8.309   5.471 -0.3378 -0.0271  0.2363
 7277SOL    HW233486   2.971   8.151   5.473  0.7270 -0.3326 -0.2479
 7278SOL     OW33487   4.959   8.639   3.569  0.2233  0.0656 -0.1858
 7278SOL    HW133488   4.876   8.677   3.609  0.4146 -0.3510  0.6388
 7278SOL    HW233489   4.979   8.684   3.483 -0.8390  0.1908 -0.3714
 7279SOL     OW33490   4.301   3.884   7.760  0.5467  0.4431 -0.5089
 7279SOL    HW133491   4.248   3.839   7.689 -0.3608  0.2862  0.2532
 7279SOL    HW233492   4.289   3.983   7.753  1.6744  0.5205 -1.5073
 7280SOL     OW33493   9.066   2.444   2.996  0.6398  0.1492  0.0366
 7280SOL    HW133494   9.149   2.414   3.043  0.4202  0.7239  0.8094
 7280SOL    HW233495   9.051   2.388   2.915 -0.9263 -3.2464  2.5499
 7281SOL     OW33496   7.465   0.924   1.646 -0.0540  0.5721 -0.1215
 7281SOL    HW133497   7.460   1.010   1.596  1.5611  1.2108  0.7605
 7281SOL    HW233498   7.498   0.942   1.739  0.9965 -1.0630 -0.1597
 7282SOL     OW33499   3.859   7.301   6.285 -0.0399  0.0891  0.2640
 7282SOL    HW133500   3.822   7.266   6.199  0.7117 -0.8714  0.3284
 7282SOL    HW233501   3.920   7.378   6.266  0.0921 -0.0939 -0.0554
 7283SOL     OW33502   4.032   9.313   7.597 -0.7014 -0.0736 -0.1869
 7283SOL    HW133503   3.934   9.334   7.597 -0.6454  0.1905  0.2183
 7283SOL    HW233504   4.085   9.397   7.587 -0.4965 -0.1057  0.5672
 7284SOL     OW33505   4.534   9.533   3.086  0.2049  0.4860  0.1449
 7284SOL    HW133506   4.501   9.490   3.170  0.7101  0.6310  0.4231
 7284SOL    HW233507   4.519   9.632   3.091 -0.2577  0.4373 -0.1705
 7285SOL     OW33508   1.291   6.398   7.846 -0.0063 -0.5127 -0.2758
 7285SOL    HW133509   1.201   6.384   7.804 -0.9273  0.1248  1.4630
 7285SOL    HW233510   1.330   6.485   7.814  0.4393 -1.2410 -1.7705
 7286SOL     OW33511   5.731   9.354   3.774 -0.3929  0.2225 -0.7159
 7286SOL    HW133512   5.748   9.331   3.678  0.3927 -1.3238 -0.2161
 7286SOL    HW233513   5.687   9.277   3.820 -0.8415  0.9871  0.1440
 7287SOL     OW33514   9.148   9.720   3.056 -0.5210 -0.0323 -0.5955
 7287SOL    HW133515   9.108   9.810   3.071 -0.2162  0.1559 -0.8938
 7287SOL    HW233516   9.219   9.703   3.124 -0.6539 -0.0913 -0.4721
 7288SOL     OW33517   3.615   7.044   2.011  0.1952  0.7475 -0.0865
 7288SOL    HW133518   3.680   6.973   1.982  0.5455  1.9236 -2.2528
 7288SOL    HW233519   3.523   7.018   1.984  0.0933  0.3174  0.6575
 7289SOL     OW33520   4.389   2.911   4.778 -0.0237 -0.0007  0.2328
 7289SOL    HW133521   4.479   2.916   4.734 -0.7428 -1.0669 -1.3877
 7289SOL    HW233522   4.398   2.864   4.866  0.6766 -2.1089 -0.9173
 7290SOL     OW33523   3.489   2.987   1.664  0.9553  0.2617 -0.8482
 7290SOL    HW133524   3.529   2.914   1.609 -1.9170 -1.0210 -1.3623
 7290SOL    HW233525   3.459   2.951   1.752  0.9563  1.1806 -0.4637
 7291SOL     OW33526   4.540   4.697   7.377  0.1628  0.2176  0.3766
 7291SOL    HW133527   4.627   4.727   7.339 -1.2923  1.2089 -2.3118
 7291SOL    HW233528   4.492   4.775   7.418  0.4907 -0.3150  1.8191
 7292SOL     OW33529   0.620   0.337   5.033  0.3745  0.0730  0.3600
 7292SOL    HW133530   0.617   0.430   5.070 -3.2940  0.8909 -1.7564
 7292SOL    HW233531   0.550   0.282   5.078  1.0490 -1.0506  0.0323
 7293SOL     OW33532   7.101   8.689   3.424  0.5174  0.5345  0.1684
 7293SOL    HW133533   7.100   8.604   3.373 -0.4211 -0.5201  1.8885
 7293SOL    HW233534   7.050   8.759   3.374  1.6756  0.2445 -1.4652
 7294SOL     OW33535   4.745   4.706   6.404 -0.8249 -0.3371 -0.2365
 7294SOL    HW133536   4.723   4.671   6.313  1.5295 -1.0559 -0.5740
 7294SOL    HW233537   4.754   4.630   6.468  0.6007 -0.0966 -0.1272
 7295SOL     OW33538   2.629   3.328   0.995 -0.0289  0.3212 -0.2557
 7295SOL    HW133539   2.615   3.340   0.897 -0.2224 -0.1618 -0.2883
 7295SOL    HW233540   2.720   3.290   1.011  0.3578  1.2421 -0.1867
 7296SOL     OW33541   5.908   9.432   2.444 -0.0837  0.0351  0.2543
 7296SOL    HW133542   5.828   9.379   2.418 -0.5185  0.3496  0.9441
 7296SOL    HW233543   5.919   9.509   2.381  0.6852 -0.9980 -0.8873
 7297SOL     OW33544   8.932   3.775   0.936  0.6468 -0.1032 -0.2946
 7297SOL    HW133545   8.900   3.857   0.889  0.6117  0.5145  0.8123
 7297SOL    HW233546   8.968   3.710   0.868  0.2794  0.6385 -1.2085
 7298SOL     OW33547   3.061   4.135   1.192  0.0498 -0.0848  0.6469
 7298SOL    HW133548   3.155   4.103   1.193  0.7315  1.7537 -1.3001
 7298SOL    HW233549   3.029   4.142   1.097 -1.5397  0.7745  1.2167
 7299SOL     OW33550   4.878   1.198   6.186  0.0433 -0.6233  0.0581
 7299SOL    HW133551   4.832   1.224   6.101 -0.8704 -0.6701  0.5323
 7299SOL    HW233552   4.944   1.269   6.211 -0.3319 -0.1717 -0.2193
 7300SOL     OW33553   8.319   6.070   6.573 -0.2124  0.2159  0.3172
 7300SOL    HW133554   8.294   6.134   6.646 -1.2488 -0.6777  0.7495
 7300SOL    HW233555   8.399   6.017   6.601 -0.0807  0.4784  0.4438
 7301SOL     OW33556   2.206   0.020   4.580  0.2591 -0.0503  0.4692
 7301SOL    HW133557   2.115   0.016   4.540  0.4419 -3.2147  0.2229
 7301SOL    HW233558   2.250   0.106   4.554 -2.3118  1.1613 -0.0928
 7302SOL     OW33559   6.835   9.779   6.183 -0.1865  0.5410 -0.5892
 7302SOL    HW133560   6.749   9.818   6.152 -0.4262  1.0125  0.6191
 7302SOL    HW233561   6.911   9.829   6.143 -0.4770  0.2179 -1.5421
 7303SOL     OW33562   3.150   1.764   6.883  0.3809 -0.0842 -0.2905
 7303SOL    HW133563   3.061   1.773   6.928  0.3607 -0.1485 -0.3183
 7303SOL    HW233564   3.174   1.851   6.839  0.6073  0.1222  0.2288
 7304SOL     OW33565   1.935   2.147   1.834  0.2655  0.5493  0.5324
 7304SOL    HW133566   1.992   2.066   1.843  0.3381  0.3355 -1.5998
 7304SOL    HW233567   1.839   2.123   1.852  0.2431 -0.0896 -0.4211
 7305SOL     OW33568   0.383   1.752   8.124  0.0882 -0.1775  0.3161
 7305SOL    HW133569   0.459   1.744   8.059 -1.0574 -0.2665 -1.0340
 7305SOL    HW233570   0.368   1.664   8.169  0.1264 -0.4351 -0.1696
 7306SOL     OW33571   8.193   8.216   7.418 -0.0825  0.1404  0.4176
 7306SOL    HW133572   8.213   8.123   7.388  1.0637  0.4708  0.1088
 7306SOL    HW233573   8.253   8.240   7.495  1.6422  1.5947 -1.3137
 7307SOL     OW33574   2.792   5.340   3.474  0.7421  0.3540 -0.2285
 7307SOL    HW133575   2.769   5.367   3.381 -0.8912  0.1973  0.1139
 7307SOL    HW233576   2.708   5.316   3.523  1.6219  0.1357  1.1856
 7308SOL     OW33577   9.734   7.692   0.278 -0.4769 -0.3484 -0.4357
 7308SOL    HW133578   9.674   7.653   0.348 -2.2613  0.0886 -1.6840
 7308SOL    HW233579   9.775   7.776   0.313  0.5148 -1.3914  0.9389
 7309SOL     OW33580   8.971   5.016   4.127 -0.4382  0.5686  0.3421
 7309SOL    HW133581   8.908   4.945   4.097  0.3706 -0.3799  0.8640
 7309SOL    HW233582   8.990   5.005   4.224  1.2722  0.2772 -0.0210
 7310SOL     OW33583   2.446   0.624   1.816  0.0311 -0.4116 -0.0899
 7310SOL    HW133584   2.347   0.633   1.805 -0.2015 -0.5628  1.7601
 7310SOL    HW233585   2.483   0.709   1.855  0.3835 -0.9414  0.7510
 7311SOL     OW33586   8.897   0.104   3.305 -0.5851 -0.2419  0.1949
 7311SOL    HW133587   8.933   0.168   3.373  0.1504  0.7348 -1.0845
 7311SOL    HW233588   8.923   0.011   3.331  1.9364  0.3310 -0.0717
 7312SOL     OW33589   2.686   9.761   8.015  0.9902  0.3182  0.2278
 7312SOL    HW133590   2.764   9.780   7.955 -1.3248 -0.6137 -3.2005
 7312SOL    HW233591   2.625   9.695   7.971 -2.5700  2.2107  2.0841
 7313SOL     OW33592   5.092   0.302   1.816 -0.1013  0.0247  0.5012
 7313SOL    HW133593   5.059   0.235   1.750  1.3933 -0.4620  0.2343
 7313SOL    HW233594   5.119   0.255   1.900  0.0667  0.3989  0.6571
 7314SOL     OW33595   3.653   1.392   2.140 -0.3816  0.4589  0.0709
 7314SOL    HW133596   3.730   1.391   2.076 -0.6421 -1.9161 -0.2542
 7314SOL    HW233597   3.685   1.372   2.232 -0.2314  2.3707  0.4695
 7315SOL     OW33598   0.585   0.055   4.294 -0.1028  0.0489 -0.6705
 7315SOL    HW133599   0.627   0.138   4.257 -1.9901  1.1739 -0.3590
 7315SOL    HW233600   0.612   0.044   4.389 -2.0307  1.8715  0.1327
 7316SOL     OW33601   4.111   1.125   0.991  0.0231  0.3544  1.0294
 7316SOL    HW133602   4.161   1.058   0.935  0.5680  1.1502  0.5597
 7316SOL    HW233603   4.171   1.160   1.062  0.3255  1.7388  0.1114
 7317SOL     OW33604   0.792   0.623   7.318 -0.4108  0.0896  0.1147
 7317SOL    HW133605   0.746   0.658   7.400 -1.3318 -0.1716 -0.2835
 7317SOL    HW233606   0.746   0.659   7.237 -0.0836 -0.4028 -0.2919
 7318SOL     OW33607   0.724   6.890   0.864 -0.4523  0.4300  0.3359
 7318SOL    HW133608   0.777   6.854   0.941 -0.7613 -0.1430  0.2813
 7318SOL    HW233609   0.692   6.814   0.807 -1.7642  0.7304  0.6522
 7319SOL     OW33610   4.637   4.441   7.134 -0.2086  0.3778 -0.0678
 7319SOL    HW133611   4.605   4.519   7.080 -2.4635 -0.1622  0.4128
 7319SOL    HW233612   4.671   4.369   7.073 -1.5036  0.2959 -0.7043
 7320SOL     OW33613   4.288   1.879   2.276 -0.0754 -0.1452  0.1403
 7320SOL    HW133614   4.341   1.861   2.193 -0.3638 -1.0248  0.1399
 7320SOL    HW233615   4.278   1.977   2.289  2.1461  0.0710  0.4962
 7321SOL     OW33616   1.019   2.753   0.432 -0.6945 -0.0305 -0.0262
 7321SOL    HW133617   0.945   2.688   0.417 -1.2011  0.6195 -0.3728
 7321SOL    HW233618   0.985   2.847   0.421 -0.3200  0.3627  1.9731
 7322SOL     OW33619   0.157   5.159   5.575  0.5147 -0.4955  0.5327
 7322SOL    HW133620   0.228   5.094   5.605  0.7021 -0.5063  0.0720
 7322SOL    HW233621   0.196   5.221   5.507  0.0707 -0.5140  0.2632
 7323SOL     OW33622   8.913   1.764   4.400 -0.2888 -0.1038  0.2337
 7323SOL    HW133623   8.890   1.861   4.396 -1.4681 -0.4000 -0.4023
 7323SOL    HW233624   8.933   1.730   4.308  1.3504 -0.1941  0.5967
 7324SOL     OW33625   4.549   9.565   6.068  0.0984 -0.0024 -0.4893
 7324SOL    HW133626   4.551   9.557   6.168 -1.1571  0.5715 -0.4060
 7324SOL    HW233627   4.544   9.474   6.028 -1.4893 -0.1925  0.0583
 7325SOL     OW33628   8.510   6.130   2.553 -0.4700  0.0842 -0.0056
 7325SOL    HW133629   8.502   6.202   2.622  1.0761  0.7447 -0.5152
 7325SOL    HW233630   8.510   6.170   2.462 -1.2179 -0.6991 -0.3628
 7326SOL     OW33631   4.084   2.231   4.318 -0.4667 -0.4048 -0.0462
 7326SOL    HW133632   4.180   2.204   4.316 -0.1535  0.6834 -4.5827
 7326SOL    HW233633   4.027   2.150   4.329  0.8520 -1.5547 -1.5013
 7327SOL     OW33634   8.414   8.127   6.841  0.1020 -0.4133 -0.0331
 7327SOL    HW133635   8.483   8.200   6.843 -1.9163  1.5264  0.2744
 7327SOL    HW233636   8.403   8.095   6.747  1.8699 -1.2189  0.0031
 7328SOL     OW33637   4.091   8.924   6.741  0.2090 -0.4874 -0.1142
 7328SOL    HW133638   4.102   8.912   6.643  0.6889  1.3566 -0.2983
 7328SOL    HW233639   4.029   8.854   6.776  1.1907 -2.0549 -1.4729
 7329SOL     OW33640   3.041   9.561   2.403 -0.0186 -0.0945 -0.0483
 7329SOL    HW133641   3.094   9.644   2.383  0.3701 -0.8389 -2.2079
 7329SOL    HW233642   3.088   9.482   2.363 -0.7046 -1.2844  1.4763
 7330SOL     OW33643   0.713   3.665   5.243 -0.3599  0.1078  0.1357
 7330SOL    HW133644   0.634   3.604   5.247 -0.4092  0.1232 -0.5558
 7330SOL    HW233645   0.772   3.639   5.167 -0.2241  0.7312  0.0259
 7331SOL     OW33646   7.871   0.407   5.697  0.4211  0.1221 -0.0336
 7331SOL    HW133647   7.899   0.384   5.604  0.4133 -1.0151  0.2330
 7331SOL    HW233648   7.938   0.370   5.762  0.0615  0.2934  0.4386
 7332SOL     OW33649   8.804   6.887   0.251  0.1775  0.1158 -0.6447
 7332SOL    HW133650   8.720   6.941   0.247 -0.8389 -1.3033  0.8785
 7332SOL    HW233651   8.781   6.790   0.242  1.6886 -0.2613 -0.5477
 7333SOL     OW33652   0.353   1.869   6.642  0.0403 -0.2010 -0.3903
 7333SOL    HW133653   0.334   1.954   6.692  2.2283  0.4235 -0.5327
 7333SOL    HW233654   0.319   1.876   6.549 -3.1337 -0.9604  0.6734
 7334SOL     OW33655   5.077   7.995   2.933 -0.1921  0.0818 -0.0700
 7334SOL    HW133656   5.146   7.941   2.983  0.9453  1.4679 -0.1038
 7334SOL    HW233657   5.071   7.962   2.839  0.2154 -0.2468  0.0152
 7335SOL     OW33658   2.888   6.707   5.775 -0.3797 -0.6778 -0.5676
 7335SOL    HW133659   2.810   6.757   5.738 -0.6098 -1.8630 -1.7090
 7335SOL    HW233660   2.970   6.725   5.720 -0.2520 -0.8426 -0.4354
 7336SOL     OW33661   2.748   1.117   3.681 -0.1472 -0.0851 -0.0249
 7336SOL    HW133662   2.701   1.195   3.640 -1.8138 -0.5659  0.9004
 7336SOL    HW233663   2.726   1.034   3.630  0.3220 -0.1956 -0.0498
 7337SOL     OW33664   1.375   6.382   1.178 -0.1505 -0.3137 -0.1312
 7337SOL    HW133665   1.369   6.300   1.234  0.8150 -0.0112  0.4164
 7337SOL    HW233666   1.320   6.455   1.219 -0.5234 -0.5034 -0.2951
 7338SOL     OW33667   0.007   6.775   7.197  0.8567  0.4963  0.4024
 7338SOL    HW133668   0.043   6.863   7.165  1.7166  0.3736  1.0113
 7338SOL    HW233669  -0.040   6.789   7.284  2.6638  0.0627  1.4890
 7339SOL     OW33670   2.913   9.420   2.895  0.5538 -0.5741  0.3697
 7339SOL    HW133671   2.967   9.474   2.960  0.1340  1.1826 -0.6934
 7339SOL    HW233672   2.958   9.421   2.806 -0.1450 -0.8470  0.0076
 7340SOL     OW33673   9.168   1.813   5.150 -0.8386 -0.0884 -0.3021
 7340SOL    HW133674   9.228   1.751   5.098 -1.2583 -0.6727 -0.0903
 7340SOL    HW233675   9.207   1.829   5.240 -0.3130  0.6076 -0.6480
 7341SOL     OW33676   1.621   2.799   0.041  1.0697  0.2807  0.1397
 7341SOL    HW133677   1.605   2.722  -0.022 -0.1401  0.9069 -0.3483
 7341SOL    HW233678   1.546   2.802   0.108  1.1672  0.9749  0.2170
 7342SOL     OW33679   9.872   2.117   6.937 -0.1199  0.0509 -0.1228
 7342SOL    HW133680   9.837   2.106   6.844 -0.4057  0.7583 -0.0954
 7342SOL    HW233681   9.864   2.029   6.985  1.7819 -0.8444 -1.3496
 7343SOL     OW33682   9.581   8.414   5.282 -0.4475 -0.1647 -0.0762
 7343SOL    HW133683   9.556   8.352   5.208  0.2296 -1.5980  0.8911
 7343SOL    HW233684   9.498   8.449   5.326 -0.8194 -1.9916  0.7102
 7344SOL     OW33685   8.728   1.249   7.366  0.1708  1.0333  0.3961
 7344SOL    HW133686   8.682   1.176   7.417 -0.4253  2.4731  1.9268
 7344SOL    HW233687   8.822   1.222   7.347  0.0896  0.0643  1.3452
 7345SOL     OW33688   4.809   4.919   0.904  0.5730 -0.3833  0.4831
 7345SOL    HW133689   4.811   4.984   0.979 -0.4958  0.8456 -0.5358
 7345SOL    HW233690   4.874   4.948   0.833 -3.3738  2.3796 -2.2044
 7346SOL     OW33691   1.606   0.690   1.785 -0.0420  0.3365 -0.1602
 7346SOL    HW133692   1.681   0.633   1.818 -1.0179 -0.6133  0.4538
 7346SOL    HW233693   1.626   0.722   1.692  0.1166 -1.7404 -0.8506
 7347SOL     OW33694   8.919   4.386   3.344  0.0931 -0.6075 -0.3904
 7347SOL    HW133695   8.897   4.423   3.254 -1.6808  1.4025  0.8089
 7347SOL    HW233696   8.848   4.321   3.371  0.2499 -0.6858 -0.1615
 7348SOL     OW33697   5.347   3.501   0.279  0.8763  0.5496 -0.2410
 7348SOL    HW133698   5.340   3.420   0.221  0.1142 -0.7112  1.5739
 7348SOL    HW233699   5.423   3.490   0.342  2.7951  2.6671 -2.0909
 7349SOL     OW33700   4.584   8.029   6.239 -0.2982  0.1447  0.9339
 7349SOL    HW133701   4.627   8.067   6.157 -0.5572 -3.0347 -0.7779
 7349SOL    HW233702   4.607   8.085   6.318  1.6071  2.1816 -0.9898
 7350SOL     OW33703   1.308   3.457   6.495 -0.0644 -0.2419 -0.2749
 7350SOL    HW133704   1.276   3.456   6.400 -1.0106  2.8258 -0.0495
 7350SOL    HW233705   1.255   3.391   6.548 -0.6370 -0.8307 -1.5363
 7351SOL     OW33706   0.732   9.696   2.655  0.6615  0.1926  0.0926
 7351SOL    HW133707   0.720   9.728   2.561  1.1519 -1.1016 -0.4299
 7351SOL    HW233708   0.644   9.662   2.689  0.9749 -1.5546 -0.7693
 7352SOL     OW33709   3.031   3.400   7.629  0.6198  0.6934 -0.1800
 7352SOL    HW133710   2.963   3.397   7.703  0.2518 -0.5142 -0.5536
 7352SOL    HW233711   3.112   3.450   7.659  0.2839  0.6009  0.8755
 7353SOL     OW33712   8.351   6.121   4.281  0.3677  0.0620 -0.2216
 7353SOL    HW133713   8.284   6.090   4.213 -0.0023  0.3198  0.0252
 7353SOL    HW233714   8.310   6.191   4.339  1.2905  1.1913 -0.9330
 7354SOL     OW33715   0.667   6.188   4.486  0.0678  0.5594 -0.2476
 7354SOL    HW133716   0.726   6.108   4.480 -1.9194 -1.1780  2.1281
 7354SOL    HW233717   0.575   6.164   4.454  0.1145  2.6724 -2.0650
 7355SOL     OW33718   2.093   1.718   0.819  0.4077 -0.1361 -1.0312
 7355SOL    HW133719   2.099   1.628   0.862 -1.2691  0.1640 -0.1608
 7355SOL    HW233720   2.174   1.771   0.844 -0.6334  0.1253  2.0159
 7356SOL     OW33721   3.664   3.775   4.500  0.1272  0.0671  0.1497
 7356SOL    HW133722   3.715   3.689   4.499  0.3489  0.2117 -1.6279
 7356SOL    HW233723   3.586   3.766   4.562  0.9919 -0.9075  1.1360
 7357SOL     OW33724   1.236   5.130   3.467  0.1916 -0.0798  0.3841
 7357SOL    HW133725   1.211   5.222   3.499 -1.3906  0.0167 -1.0994
 7357SOL    HW233726   1.305   5.138   3.395  0.4767 -0.0932  0.6528
 7358SOL     OW33727   6.750   0.613   3.537 -0.1477  0.4030 -0.4003
 7358SOL    HW133728   6.750   0.644   3.442  0.9924  0.0376 -0.5196
 7358SOL    HW233729   6.796   0.681   3.594 -0.1436  0.2572 -0.2289
 7359SOL     OW33730   3.622   6.264   0.155  0.1420 -0.2694  0.1777
 7359SOL    HW133731   3.583   6.323   0.084  1.5523  1.1441  0.5519
 7359SOL    HW233732   3.690   6.203   0.114 -0.6810 -1.0607 -0.0515
 7360SOL     OW33733   1.925   4.653   8.058  0.2373  0.1925  0.4550
 7360SOL    HW133734   1.891   4.667   7.965 -0.1738  0.7832  0.6900
 7360SOL    HW233735   1.932   4.742   8.105  1.7977  0.0574  0.5219
 7361SOL     OW33736   9.560   4.482   5.372  0.0556 -0.8047  1.3777
 7361SOL    HW133737   9.633   4.465   5.439 -0.5104 -0.2489  2.1382
 7361SOL    HW233738   9.543   4.398   5.320  1.1137 -0.9935  1.3110
 7362SOL     OW33739   3.263   6.473   4.968 -0.0068  0.0258  0.1273
 7362SOL    HW133740   3.173   6.435   4.947  0.5918 -1.0591 -0.5322
 7362SOL    HW233741   3.269   6.567   4.935 -1.3929  0.5954  1.4746
 7363SOL     OW33742   8.347   0.274   5.498 -0.4948 -0.2881 -0.2967
 7363SOL    HW133743   8.262   0.307   5.538 -0.6269 -1.2891  0.2708
 7363SOL    HW233744   8.423   0.330   5.532 -0.3654 -2.2577  2.8918
 7364SOL     OW33745   1.394   8.923   5.434  0.6494  0.5875 -0.3240
 7364SOL    HW133746   1.372   8.845   5.376  0.7918  1.2526 -1.2822
 7364SOL    HW233747   1.317   8.942   5.496 -0.2225  0.9676 -1.5143
 7365SOL     OW33748   8.103   7.687   3.340 -0.1807  0.5419 -0.1921
 7365SOL    HW133749   8.150   7.753   3.281  0.4835  1.3458  1.2163
 7365SOL    HW233750   8.169   7.621   3.376  0.2095  2.5978  3.0353
 7366SOL     OW33751   7.757   1.996   5.219 -1.0050 -0.1901  0.1979
 7366SOL    HW133752   7.768   1.983   5.120 -1.4113  0.1135  0.1151
 7366SOL    HW233753   7.761   1.906   5.264 -0.3814 -0.2904 -0.0485
 7367SOL     OW33754   8.599   7.359   6.028  0.2565 -0.1078 -0.0577
 7367SOL    HW133755   8.527   7.394   5.968  1.3754 -0.7141 -1.7876
 7367SOL    HW233756   8.680   7.416   6.019 -0.1056  0.8254  2.2009
 7368SOL     OW33757   3.087   7.757   7.224 -0.3225 -0.3031 -0.1416
 7368SOL    HW133758   3.068   7.660   7.216 -1.8305  0.0233 -0.6414
 7368SOL    HW233759   3.006   7.805   7.258  0.5153  0.7322  0.4414
 7369SOL     OW33760   7.577   5.525   1.928  0.4393  0.0648  0.0483
 7369SOL    HW133761   7.513   5.593   1.894 -0.8903 -0.4202  1.5173
 7369SOL    HW233762   7.593   5.455   1.859  0.0718  0.6664 -0.6448
 7370SOL     OW33763   5.550   0.957   3.388  0.1927 -0.6010 -0.0628
 7370SOL    HW133764   5.502   0.991   3.308 -0.9974  1.7246  1.5921
 7370SOL    HW233765   5.502   0.877   3.424 -1.2425  0.4193  0.3287
 7371SOL     OW33766   6.739   6.934   4.175  0.2420  0.2376 -0.2597
 7371SOL    HW133767   6.812   6.947   4.242  0.4515 -1.3702 -0.1399
 7371SOL    HW233768   6.655   6.976   4.207  0.7318  0.7637  0.3225
 7372SOL     OW33769   3.650   2.730   4.493  0.0863  0.2032  0.2040
 7372SOL    HW133770   3.556   2.730   4.458 -0.0375  1.9049  0.4945
 7372SOL    HW233771   3.712   2.702   4.420 -0.6654 -1.1568  0.0722
 7373SOL     OW33772   0.658   1.630   5.734  0.4728 -0.1840 -0.5112
 7373SOL    HW133773   0.700   1.551   5.690 -0.3604 -0.7644 -0.2817
 7373SOL    HW233774   0.564   1.641   5.702  0.6209  0.7950 -0.6351
 7374SOL     OW33775   4.096   1.413   4.955  0.2943  0.0667  0.6267
 7374SOL    HW133776   4.127   1.360   4.877  0.5984  1.3617 -0.1434
 7374SOL    HW233777   3.996   1.416   4.956  0.2927  0.1548  0.2106
 7375SOL     OW33778   1.621   3.810   3.387 -0.2176  0.0571  1.0483
 7375SOL    HW133779   1.541   3.755   3.362  0.7747 -1.1870  0.5428
 7375SOL    HW233780   1.591   3.895   3.431 -1.9138  0.8716 -1.5877
 7376SOL     OW33781   3.054   3.719   1.059  0.1179  0.7110  0.4777
 7376SOL    HW133782   2.976   3.758   1.109 -1.4555 -0.2298 -1.1818
 7376SOL    HW233783   3.045   3.620   1.055  0.0838  0.7817 -1.8330
 7377SOL     OW33784   3.048   1.538   4.316 -0.2028 -0.0138 -0.2939
 7377SOL    HW133785   2.996   1.567   4.235 -1.4735 -1.7848 -0.1311
 7377SOL    HW233786   2.985   1.523   4.392  0.8721  0.5441  0.7119
 7378SOL     OW33787   4.112   8.492   3.166  0.2699 -0.4071 -0.9306
 7378SOL    HW133788   4.095   8.548   3.247 -1.3927  0.6205 -1.9666
 7378SOL    HW233789   4.068   8.403   3.178 -0.6076  0.0123 -1.0175
 7379SOL     OW33790   2.301   6.525   6.490 -0.7674  0.0134 -0.6181
 7379SOL    HW133791   2.337   6.452   6.548  0.2569  0.4673 -0.6655
 7379SOL    HW233792   2.202   6.521   6.490 -0.7744 -0.3469  0.7265
 7380SOL     OW33793   0.253   1.870   2.708  0.1266  0.1934 -0.0752
 7380SOL    HW133794   0.302   1.923   2.640 -2.8349  0.4364 -2.1002
 7380SOL    HW233795   0.155   1.888   2.701 -0.3743 -0.8494  3.3324
 7381SOL     OW33796   2.664   6.850   4.519 -0.0113 -0.0305  0.3619
 7381SOL    HW133797   2.657   6.928   4.581  0.3135 -0.0719  0.4466
 7381SOL    HW233798   2.625   6.876   4.430 -2.5410 -0.6624  1.2233
 7382SOL     OW33799   4.454   4.976   0.624  0.0143 -0.4357 -0.0906
 7382SOL    HW133800   4.357   5.001   0.626 -0.6236 -2.8634  2.6729
 7382SOL    HW233801   4.509   5.056   0.650 -1.1679  1.0925 -2.1486
 7383SOL     OW33802   1.214   1.596   3.116  0.0285  0.0922 -0.7050
 7383SOL    HW133803   1.158   1.544   3.181  0.6956 -2.0305 -1.7902
 7383SOL    HW233804   1.311   1.580   3.134  0.2343  0.5215 -1.4030
 7384SOL     OW33805   3.601   7.912   4.035  0.4056 -0.0123 -0.6629
 7384SOL    HW133806   3.559   7.878   3.951  0.1921 -1.4933  0.0273
 7384SOL    HW233807   3.542   7.980   4.078  0.1942  0.2288 -1.3318
 7385SOL     OW33808   0.725   0.070   5.326 -0.5030 -0.0118  0.1001
 7385SOL    HW133809   0.798   0.114   5.273  0.5192 -0.5323  1.0498
 7385SOL    HW233810   0.727  -0.028   5.310  1.4448 -0.5139  2.9789
 7386SOL     OW33811   5.468   9.671   4.808  0.7685  0.1954  0.0980
 7386SOL    HW133812   5.410   9.753   4.804 -0.6044 -0.7585  0.1517
 7386SOL    HW233813   5.552   9.693   4.859 -0.0440  1.2936  1.0059
 7387SOL     OW33814   7.799   1.683   5.176 -0.3606  0.2403  0.6903
 7387SOL    HW133815   7.713   1.634   5.190  0.3027 -0.6875  1.5191
 7387SOL    HW233816   7.876   1.622   5.192  0.4702  0.9536 -0.4812
 7388SOL     OW33817   2.934   4.764   4.067 -0.1631 -0.1454 -0.2330
 7388SOL    HW133818   2.847   4.790   4.109  0.4252  2.8982 -0.7861
 7388SOL    HW233819   2.947   4.815   3.982  1.2597 -2.0504 -1.2004
 7389SOL     OW33820   2.744   4.262   1.367 -0.1702 -0.3303 -0.3377
 7389SOL    HW133821   2.760   4.197   1.441  1.9091 -1.4088 -1.7106
 7389SOL    HW233822   2.801   4.342   1.380  0.7206 -0.8310 -1.1489
 7390SOL     OW33823   2.469   3.681   2.948 -0.1898 -0.2936 -0.4379
 7390SOL    HW133824   2.373   3.655   2.948 -0.0897 -0.6635 -0.3014
 7390SOL    HW233825   2.498   3.700   2.854 -0.3889 -0.2074 -0.4808
 7391SOL     OW33826   3.141   9.839   6.971 -0.4877 -0.0120  0.2882
 7391SOL    HW133827   3.195   9.813   7.051  1.5057 -0.6069 -1.2109
 7391SOL    HW233828   3.091   9.760   6.937  1.1363 -0.5551 -0.8989
 7392SOL     OW33829   1.571   8.082   1.763  0.5082  0.5081  0.0718
 7392SOL    HW133830   1.552   8.076   1.861  1.8624  0.8037  0.3651
 7392SOL    HW233831   1.501   8.138   1.719  0.1532  0.7581  0.9387
 7393SOL     OW33832   8.433   4.660   0.791 -0.5882 -0.4434  0.0417
 7393SOL    HW133833   8.382   4.689   0.872 -0.4329  1.2341 -0.4293
 7393SOL    HW233834   8.519   4.712   0.786 -0.0642 -1.3578 -0.5794
 7394SOL     OW33835   9.912   2.494   3.035 -0.7794  0.1508  0.2312
 7394SOL    HW133836   9.926   2.412   3.090  1.4658 -0.3101 -0.9376
 7394SOL    HW233837   9.855   2.558   3.084 -1.9499 -1.8068  1.4895
 7395SOL     OW33838   2.571   4.600   3.268 -0.6864  0.6677 -0.2952
 7395SOL    HW133839   2.508   4.549   3.326 -0.9319  1.4383  0.1187
 7395SOL    HW233840   2.598   4.684   3.314 -0.6056  1.1129 -1.1432
 7396SOL     OW33841   3.106   8.030   4.390 -0.1259  0.1542  0.1139
 7396SOL    HW133842   3.131   7.937   4.418 -1.0139 -0.0251  0.3297
 7396SOL    HW233843   3.103   8.035   4.290  1.9647  0.5088  0.0441
 7397SOL     OW33844   9.417   9.358   4.056 -0.9833 -0.3146 -0.5987
 7397SOL    HW133845   9.455   9.338   3.966 -0.7975  0.4770 -0.6990
 7397SOL    HW233846   9.323   9.391   4.045 -1.6198 -2.0301 -0.3703
 7398SOL     OW33847   0.028   3.352   7.377 -0.3138 -0.0078 -0.2529
 7398SOL    HW133848  -0.029   3.323   7.300  0.5346  0.1766 -0.9618
 7398SOL    HW233849   0.015   3.289   7.453 -0.1788 -0.9624 -1.0084
 7399SOL     OW33850   3.717   9.647   2.268  0.3705  0.1009  0.0209
 7399SOL    HW133851   3.691   9.624   2.174  0.9443 -0.5157  0.0118
 7399SOL    HW233852   3.709   9.746   2.281  0.9052  0.2670 -0.8717
 7400SOL     OW33853   2.168   8.759   7.384  0.4428  0.3653  0.0834
 7400SOL    HW133854   2.075   8.792   7.400 -0.4860 -0.7306 -2.8129
 7400SOL    HW233855   2.199   8.709   7.465 -2.2254 -0.9268  0.3784
 7401SOL     OW33856   0.812   6.472   1.245  0.2272 -0.7354 -0.0761
 7401SOL    HW133857   0.792   6.500   1.339  0.1503  0.3287 -0.4046
 7401SOL    HW233858   0.750   6.398   1.219 -0.0856 -0.6948  0.5453
 7402SOL     OW33859   0.606   1.487   3.245 -0.0446 -0.5404  0.2434
 7402SOL    HW133860   0.645   1.441   3.325  0.4680  0.1447  0.3896
 7402SOL    HW233861   0.538   1.427   3.203  0.6161 -1.4341  0.4313
 7403SOL     OW33862   3.051   8.748   6.975  0.7297 -0.4093  0.4359
 7403SOL    HW133863   2.983   8.675   6.979 -0.4194  0.6753  0.8320
 7403SOL    HW233864   3.109   8.743   7.056 -0.3836  0.0989  1.2845
 7404SOL     OW33865   1.315   7.303   1.439 -0.3864  0.0320 -0.0199
 7404SOL    HW133866   1.327   7.203   1.438  0.0875  0.0176  3.2141
 7404SOL    HW233867   1.402   7.348   1.419 -0.7518 -0.1628 -2.1974
 7405SOL     OW33868   9.240   9.643   7.396  0.9653 -0.0120 -0.4732
 7405SOL    HW133869   9.156   9.589   7.397  0.5463  0.6325 -0.3881
 7405SOL    HW233870   9.307   9.601   7.457 -0.4162  1.2223  1.9785
 7406SOL     OW33871   4.697   8.135   4.862 -0.3279  0.2105  0.4601
 7406SOL    HW133872   4.639   8.198   4.811  0.8186 -0.4312 -1.7297
 7406SOL    HW233873   4.768   8.186   4.910  0.6804  0.6361 -1.4127
 7407SOL     OW33874   8.202   7.556   7.529 -0.4073  0.3334  0.1448
 7407SOL    HW133875   8.201   7.584   7.433 -1.4850  0.4208  0.1798
 7407SOL    HW233876   8.186   7.635   7.587 -0.6187  0.1339  0.3578
 7408SOL     OW33877   8.332   2.438   1.426 -0.1870  0.0493 -0.1542
 7408SOL    HW133878   8.272   2.462   1.349 -0.7570  0.0145  0.2739
 7408SOL    HW233879   8.280   2.387   1.494  0.9183 -2.0309 -0.8419
 7409SOL     OW33880   1.283   5.361   1.824 -0.1676 -0.4652 -0.3512
 7409SOL    HW133881   1.194   5.333   1.861 -0.7826  0.5776 -1.0173
 7409SOL    HW233882   1.353   5.296   1.854 -0.1936  1.5862  4.5924
 7410SOL     OW33883   7.969   4.272   2.673  0.3141 -0.3479 -0.0716
 7410SOL    HW133884   7.949   4.345   2.739 -1.1528 -1.1124  0.3546
 7410SOL    HW233885   7.949   4.304   2.581 -1.2906 -0.5000  0.1955
 7411SOL     OW33886   9.804   7.573   4.587 -0.3151  0.1669  0.3972
 7411SOL    HW133887   9.899   7.545   4.572 -1.2206 -1.3396 -2.8254
 7411SOL    HW233888   9.783   7.654   4.532 -1.0176  0.2669  0.8025
 7412SOL     OW33889   8.570   9.101   1.155 -0.2575 -0.2718  1.1616
 7412SOL    HW133890   8.495   9.074   1.216 -0.1667 -1.2740  0.8318
 7412SOL    HW233891   8.536   9.106   1.061 -0.1028  0.0878  1.1235
 7413SOL     OW33892   2.740   4.209   7.498 -0.5447  0.0789  0.5009
 7413SOL    HW133893   2.831   4.180   7.466 -1.7081  0.5563 -3.5649
 7413SOL    HW233894   2.703   4.276   7.434 -4.3522 -1.1726  1.3033
 7414SOL     OW33895   1.941   4.379   6.351 -1.0113 -0.2479  0.2863
 7414SOL    HW133896   1.952   4.306   6.283 -1.7189 -0.3684  0.2969
 7414SOL    HW233897   1.939   4.467   6.304 -0.6173 -0.2674  0.2312
 7415SOL     OW33898   7.724   9.683   3.740 -0.0576 -0.4590  0.3703
 7415SOL    HW133899   7.627   9.695   3.717 -0.0225  1.2206  1.0307
 7415SOL    HW233900   7.777   9.758   3.700  0.5223  0.3736  2.6583
 7416SOL     OW33901   0.036   1.217   5.507 -0.1217  0.1265 -0.6220
 7416SOL    HW133902   0.062   1.128   5.542  2.6697  0.5682 -1.4937
 7416SOL    HW233903   0.056   1.222   5.409  1.7398  2.4152 -0.1615
 7417SOL     OW33904   9.022   8.619   7.215  0.1599  0.6659 -0.2304
 7417SOL    HW133905   8.952   8.594   7.281  0.3275  1.9606  0.4454
 7417SOL    HW233906   9.112   8.616   7.259  0.4582 -0.2351 -0.8865
 7418SOL     OW33907   2.569   5.718   2.442  0.5654  0.7020 -0.0871
 7418SOL    HW133908   2.593   5.633   2.397  0.6418  0.4151  0.4889
 7418SOL    HW233909   2.593   5.795   2.383  1.7355  0.3785 -0.0467
 7419SOL     OW33910   8.511   6.319   4.528  0.2259 -0.2927  0.0311
 7419SOL    HW133911   8.415   6.293   4.519  0.1659 -0.6940  1.6896
 7419SOL    HW233912   8.518   6.418   4.542 -0.0079 -0.3707  0.7177
 7420SOL     OW33913   6.988   8.783   5.759 -0.1055 -0.0895  0.2578
 7420SOL    HW133914   7.086   8.785   5.738 -0.0685 -1.2759  0.2744
 7420SOL    HW233915   6.966   8.853   5.827  1.3205 -1.9657  2.7177
 7421SOL     OW33916   9.592   6.605   5.088  0.1112 -0.0391  0.0946
 7421SOL    HW133917   9.510   6.550   5.072  0.3423 -0.3630  0.0074
 7421SOL    HW233918   9.630   6.581   5.177  0.1181  0.0985  0.1277
 7422SOL     OW33919   8.854   2.023   5.271  0.3067  0.1421 -0.0693
 7422SOL    HW133920   8.915   2.100   5.255  1.2438 -0.7127 -0.6825
 7422SOL    HW233921   8.807   2.035   5.359  1.7523  0.5586  0.6543
 7423SOL     OW33922   3.350   9.658   2.447  0.1393  0.1070  0.7746
 7423SOL    HW133923   3.410   9.581   2.469  0.7670  0.6652  1.0444
 7423SOL    HW233924   3.364   9.685   2.352  1.1347  0.9421  1.1460
 7424SOL     OW33925   9.283   9.940   1.753  0.5387  0.3786 -0.1471
 7424SOL    HW133926   9.190   9.970   1.774  0.3371 -0.6447  0.4812
 7424SOL    HW233927   9.333   9.924   1.839  0.7338 -0.7212 -0.4516
 7425SOL     OW33928   2.590   4.230   0.976 -0.4808 -0.0732  0.2211
 7425SOL    HW133929   2.643   4.151   0.944 -0.5924 -0.1001  0.1016
 7425SOL    HW233930   2.525   4.200   1.046 -1.8878 -0.4465 -1.2167
 7426SOL     OW33931   4.515   3.572   7.719  0.1629  0.3690  0.1100
 7426SOL    HW133932   4.605   3.567   7.762  0.2333  3.0830  0.3964
 7426SOL    HW233933   4.507   3.658   7.669 -1.6162 -0.6635 -1.4690
 7427SOL     OW33934   4.663   6.306   3.072 -0.3293  0.2187 -0.6139
 7427SOL    HW133935   4.740   6.264   3.120 -0.5364 -0.6966 -1.0638
 7427SOL    HW233936   4.629   6.384   3.124 -0.4152 -0.6307  0.6140
 7428SOL     OW33937   7.181   0.459   2.986  0.0386  0.4522 -0.1172
 7428SOL    HW133938   7.242   0.502   2.919 -0.1924  0.9557 -0.0077
 7428SOL    HW233939   7.180   0.514   3.069 -1.9195  1.4222 -0.7468
 7429SOL     OW33940   4.116   1.014   3.241 -0.2658  0.2911 -0.2994
 7429SOL    HW133941   4.201   1.035   3.192 -0.4520 -0.6336 -1.0204
 7429SOL    HW233942   4.070   0.937   3.197 -0.6936 -0.2236  1.0243
 7430SOL     OW33943   9.031   6.352   3.091 -0.0331 -0.1088  0.5071
 7430SOL    HW133944   9.058   6.357   2.995 -0.5125 -1.2141  0.3116
 7430SOL    HW233945   9.109   6.326   3.147  0.0491 -0.2459  0.3254
 7431SOL     OW33946   1.993   8.965   5.533  0.3780  0.2872 -0.1713
 7431SOL    HW133947   1.922   9.035   5.528  0.6175  0.4191 -1.9391
 7431SOL    HW233948   2.064   8.984   5.466  1.9559 -0.0125  1.3720
 7432SOL     OW33949   4.123   1.077   6.107  0.1003  0.2536  0.6191
 7432SOL    HW133950   4.212   1.077   6.061  0.0852  0.3422  0.5927
 7432SOL    HW233951   4.136   1.095   6.204 -0.0615  2.2768  0.2961
 7433SOL     OW33952   7.913   0.113   4.722 -0.1722 -0.1227 -0.1185
 7433SOL    HW133953   7.868   0.026   4.697 -2.9237  1.3057 -0.3695
 7433SOL    HW233954   7.938   0.162   4.638 -0.7619  0.3566 -0.0225
 7434SOL     OW33955   1.750   7.318   4.315  0.0452  1.0368 -0.2949
 7434SOL    HW133956   1.768   7.222   4.291 -0.6264  0.8118  0.1138
 7434SOL    HW233957   1.680   7.355   4.254  0.3887  1.3047 -0.5296
 7435SOL     OW33958   9.792   0.038   6.249 -0.2563  0.3743 -0.5530
 7435SOL    HW133959   9.694   0.028   6.232 -0.1951  1.6388 -1.7380
 7435SOL    HW233960   9.839  -0.047   6.228 -0.9484  0.1254 -1.0987
 7436SOL     OW33961   8.268   0.614   2.103 -0.4426  0.8772 -0.0136
 7436SOL    HW133962   8.359   0.619   2.143 -0.3454 -0.0820 -0.0964
 7436SOL    HW233963   8.246   0.518   2.083 -1.8276  1.0107  0.8519
 7437SOL     OW33964   3.647   2.302   6.284  0.2452  0.1236  0.0384
 7437SOL    HW133965   3.629   2.289   6.186  0.8819 -1.3338  0.1023
 7437SOL    HW233966   3.722   2.366   6.296 -0.6168  1.2385 -0.3880
 7438SOL     OW33967   8.548   1.275   0.560 -0.0328  0.1643  0.5075
 7438SOL    HW133968   8.536   1.179   0.534 -2.3196  0.5711 -0.0586
 7438SOL    HW233969   8.534   1.285   0.658 -1.0392  0.0926  0.3788
 7439SOL     OW33970   9.215   1.043   4.369  0.0504 -0.6336 -0.1157
 7439SOL    HW133971   9.240   1.006   4.459  1.2815 -2.4504 -1.1490
 7439SOL    HW233972   9.235   1.141   4.366  1.2832 -0.8256  1.1551
 7440SOL     OW33973   5.291   0.600   1.614  0.3294 -0.5068  0.7789
 7440SOL    HW133974   5.280   0.593   1.713  0.2455 -0.7627  0.7511
 7440SOL    HW233975   5.386   0.626   1.593  0.1708  0.2304  0.9545
 7441SOL     OW33976   3.128   1.860   5.950  0.1773 -0.0294 -0.4818
 7441SOL    HW133977   3.043   1.809   5.939 -0.0262  0.0205  0.7892
 7441SOL    HW233978   3.201   1.798   5.978  0.6564 -0.1339 -1.9163
 7442SOL     OW33979   6.390   1.846   0.235 -0.9591  0.4145  0.7481
 7442SOL    HW133980   6.427   1.914   0.298  0.1307  0.6429 -0.1282
 7442SOL    HW233981   6.455   1.829   0.162 -0.9499 -2.0296  1.2851
 7443SOL     OW33982   4.494   2.625   2.069  0.2331 -0.1743 -0.0391
 7443SOL    HW133983   4.458   2.536   2.042  0.4520  0.1709 -1.5136
 7443SOL    HW233984   4.464   2.646   2.163 -0.6808 -1.3271 -0.0570
 7444SOL     OW33985   8.305   3.769   7.517 -0.0751  0.0910  0.3475
 7444SOL    HW133986   8.278   3.781   7.421  0.2024  0.2048  0.2851
 7444SOL    HW233987   8.371   3.840   7.543 -0.3911  0.2522  0.7163
 7445SOL     OW33988   6.717   9.983   2.671  0.1612 -0.0540 -0.3898
 7445SOL    HW133989   6.626   9.989   2.711  0.1463 -0.2267 -0.3975
 7445SOL    HW233990   6.745   9.887   2.667  0.7281  0.0735  0.4723
 7446SOL     OW33991   4.627   0.002   2.402 -0.0967  0.4174  0.5986
 7446SOL    HW133992   4.557   0.015   2.333 -2.0120 -0.0594  2.3888
 7446SOL    HW233993   4.655  -0.094   2.405 -0.9872  0.1766  1.3762
 7447SOL     OW33994   7.955   5.013   8.155  0.0496 -0.2514 -0.0651
 7447SOL    HW133995   7.940   4.976   8.063  0.9839 -0.5386 -0.1089
 7447SOL    HW233996   7.903   5.097   8.166 -1.0354 -0.8589 -0.4337
 7448SOL     OW33997   9.869   0.012   6.923 -0.8379  0.1398 -0.0561
 7448SOL    HW133998   9.824  -0.070   6.887  1.0768 -0.4846 -1.0589
 7448SOL    HW233999   9.920   0.057   6.850  1.5348 -0.0933  1.3886
 7449SOL     OW34000   5.458   2.012   4.460  0.2542 -0.1153  0.0411
 7449SOL    HW134001   5.522   2.085   4.484  0.1334 -1.0175  3.3628
 7449SOL    HW234002   5.375   2.022   4.515 -1.5346 -0.3559 -2.5111
 7450SOL     OW34003   3.976   4.317   3.591 -0.1514  0.2226  0.1296
 7450SOL    HW134004   3.913   4.395   3.594 -1.0670 -0.5476  1.7579
 7450SOL    HW234005   4.070   4.351   3.591 -0.5330  1.3555 -1.0213
 7451SOL     OW34006   1.233   6.575   5.535  0.2791 -0.4157  0.2937
 7451SOL    HW134007   1.261   6.662   5.494  0.7686 -0.6480  0.1414
 7451SOL    HW234008   1.186   6.594   5.622 -0.9742  0.0826 -0.4735
 7452SOL     OW34009   2.973   9.184   6.134  0.1195  0.2915 -0.3835
 7452SOL    HW134010   3.004   9.193   6.229 -0.2411  4.5542 -0.5387
 7452SOL    HW234011   3.052   9.179   6.073  0.3877  0.5104 -0.0548
 7453SOL     OW34012   9.713   6.782   4.125  0.0903 -0.2701 -0.2787
 7453SOL    HW134013   9.672   6.873   4.129  0.9164  0.0768  0.6674
 7453SOL    HW234014   9.698   6.742   4.035 -3.7996 -0.8721  0.5619
 7454SOL     OW34015   5.082   4.031   8.071 -0.4322 -0.2415  0.1211
 7454SOL    HW134016   4.984   4.049   8.057 -0.4016  1.0307  1.2934
 7454SOL    HW234017   5.121   3.991   7.989 -1.7924 -0.0854 -0.6227
 7455SOL     OW34018   1.162   8.937   1.040  0.0370  0.4268 -0.1099
 7455SOL    HW134019   1.223   8.943   0.960 -1.9194  0.4117 -1.6275
 7455SOL    HW234020   1.154   9.027   1.082  1.1570  0.4162  0.1445
 7456SOL     OW34021   1.956   5.783   5.126  0.2819  0.0900 -0.4975
 7456SOL    HW134022   1.947   5.698   5.073  0.6388 -0.5920  0.5088
 7456SOL    HW234023   2.046   5.785   5.169 -0.6206 -0.2007  1.4707
 7457SOL     OW34024   3.774   1.714   3.777  0.0565 -0.0795 -0.1379
 7457SOL    HW134025   3.728   1.639   3.824  0.1192 -0.3735 -0.5439
 7457SOL    HW234026   3.734   1.801   3.807 -0.5342 -0.3142 -0.2331
 7458SOL     OW34027   6.254   0.898   4.370  0.3403 -0.4295  0.1158
 7458SOL    HW134028   6.240   0.802   4.394 -1.3554 -1.0278 -3.0678
 7458SOL    HW234029   6.173   0.951   4.394  0.1474 -0.3303 -0.7376
 7459SOL     OW34030   1.082   2.278   3.344 -0.1583  0.5299 -0.0691
 7459SOL    HW134031   1.075   2.229   3.431  0.9907  0.8674  0.2095
 7459SOL    HW234032   1.132   2.363   3.357 -1.0808  1.1973 -0.8116
 7460SOL     OW34033   7.355   2.456   4.897 -0.0872 -0.0647  0.3644
 7460SOL    HW134034   7.301   2.386   4.850  0.9355  0.6456 -1.9161
 7460SOL    HW234035   7.366   2.430   4.993 -1.9726 -1.6850  0.1740
 7461SOL     OW34036   8.153   7.197   5.410 -0.5170 -0.4671  0.2736
 7461SOL    HW134037   8.115   7.143   5.484 -1.9883  0.0725 -0.0843
 7461SOL    HW234038   8.169   7.291   5.441  0.5803 -0.6938  0.4314
 7462SOL     OW34039   4.439   4.625   1.355  0.0511  0.1482  0.4751
 7462SOL    HW134040   4.530   4.665   1.370  0.3412 -0.0712 -0.6236
 7462SOL    HW234041   4.446   4.525   1.352 -0.9459 -0.1497  5.0207
 7463SOL     OW34042   3.596   2.975   0.247  0.0243 -0.4955  0.2331
 7463SOL    HW134043   3.597   2.931   0.337  2.7992 -1.4526 -0.2167
 7463SOL    HW234044   3.667   3.045   0.243 -0.6528  0.1322 -0.9268
 7464SOL     OW34045   4.720   9.274   7.266 -0.6722 -0.0687 -0.4795
 7464SOL    HW134046   4.679   9.305   7.180 -1.6667 -2.1087 -0.7846
 7464SOL    HW234047   4.650   9.276   7.338 -0.8847 -1.9321 -0.6049
 7465SOL     OW34048   4.163   6.229   3.124 -0.0430 -0.3791  0.0085
 7465SOL    HW134049   4.121   6.142   3.100 -1.7541  0.5971 -0.6310
 7465SOL    HW234050   4.195   6.276   3.041  0.1367 -0.0284  0.2709
 7466SOL     OW34051   1.947   7.869   7.739  0.3268 -0.1013  0.2437
 7466SOL    HW134052   1.913   7.849   7.831 -0.0343 -0.4328  0.0414
 7466SOL    HW234053   2.045   7.886   7.742  0.1697  0.7193  0.8152
 7467SOL     OW34054   7.507   5.680   2.769  0.1102 -0.2784 -0.4788
 7467SOL    HW134055   7.533   5.615   2.842  0.8097 -0.6792 -1.0734
 7467SOL    HW234056   7.590   5.712   2.723 -0.3658 -0.5134 -1.5135
 7468SOL     OW34057   9.197   5.739   7.028 -0.3684  0.0778  0.7941
 7468SOL    HW134058   9.109   5.780   7.006 -0.8222 -1.1400  0.3063
 7468SOL    HW234059   9.271   5.800   6.999 -1.0167 -0.0080 -1.0591
 7469SOL     OW34060   8.336   0.251   2.051  0.1732  0.0923 -0.4717
 7469SOL    HW134061   8.320   0.195   2.132 -0.6748 -0.8895 -1.3004
 7469SOL    HW234062   8.253   0.305   2.032 -0.0315 -0.5418 -1.3538
 7470SOL     OW34063   0.570   6.124   2.514  0.5178 -0.7775  0.5426
 7470SOL    HW134064   0.571   6.028   2.542  0.8942 -0.5595  1.2971
 7470SOL    HW234065   0.532   6.180   2.589  1.5546 -0.1853  0.6331
 7471SOL     OW34066   6.661   4.476   7.626 -0.2076 -0.0579  0.1227
 7471SOL    HW134067   6.757   4.476   7.655  0.1107  0.4217 -0.8930
 7471SOL    HW234068   6.622   4.385   7.640  0.7111 -0.5523 -0.4423
 7472SOL     OW34069   7.697   0.750   4.504 -0.1031 -0.2438  0.6741
 7472SOL    HW134070   7.693   0.847   4.482  0.5442 -0.7283 -1.7352
 7472SOL    HW234071   7.784   0.730   4.550 -0.9293  0.5643  2.6437
 7473SOL     OW34072   0.209   7.342   3.735 -0.5229 -0.7563 -0.1580
 7473SOL    HW134073   0.229   7.289   3.652 -1.4743 -1.8586  0.3056
 7473SOL    HW234074   0.117   7.320   3.767 -0.2437 -0.1516  1.0687
 7474SOL     OW34075   8.489   4.316   5.202 -0.5449  0.4796 -0.3971
 7474SOL    HW134076   8.463   4.250   5.273 -1.4910  2.2400  0.9392
 7474SOL    HW234077   8.497   4.269   5.114  0.4762 -1.7190  0.8204
 7475SOL     OW34078   6.235   0.413   4.806 -0.3784  0.2648 -0.1470
 7475SOL    HW134079   6.217   0.344   4.736  0.0133 -0.5258  0.5147
 7475SOL    HW234080   6.150   0.436   4.853 -0.4491 -0.0463 -0.1221
 7476SOL     OW34081   3.614   2.005   6.374  0.3946  0.3347 -0.1465
 7476SOL    HW134082   3.628   2.097   6.409 -0.6681  0.5595 -0.2866
 7476SOL    HW234083   3.596   2.009   6.276  1.4450 -0.1221 -0.3646
 7477SOL     OW34084   2.044   4.461   2.412  0.1351 -0.2309  0.6386
 7477SOL    HW134085   2.011   4.430   2.501  0.4438 -0.7512  0.5743
 7477SOL    HW234086   1.981   4.530   2.375 -1.2949 -1.7413  0.1883
 7478SOL     OW34087   8.800   7.486   3.795  0.2297  0.1145 -0.3094
 7478SOL    HW134088   8.802   7.475   3.695  1.1056 -2.0500 -0.0852
 7478SOL    HW234089   8.707   7.506   3.825  0.0457  1.2974 -1.5930
 7479SOL     OW34090   0.315   3.492   2.013 -0.2701  0.0149 -0.0157
 7479SOL    HW134091   0.221   3.476   1.982 -0.3305  0.0099  0.1708
 7479SOL    HW234092   0.378   3.482   1.936 -0.3273 -0.8948  0.0582
 7480SOL     OW34093   4.345   2.065   1.389  0.7016  0.4326 -0.1697
 7480SOL    HW134094   4.361   2.163   1.397  1.7643  0.3450 -1.1258
 7480SOL    HW234095   4.280   2.048   1.315  0.5708  0.4174 -0.0502
 7481SOL     OW34096   1.880   0.688   5.162 -0.2027 -0.3395 -0.2252
 7481SOL    HW134097   1.832   0.758   5.109 -1.7146  0.0020  1.5796
 7481SOL    HW234098   1.815   0.621   5.196  1.0495 -1.8119 -0.6536
 7482SOL     OW34099   0.938   5.849   1.472 -0.0667 -0.0713 -0.2257
 7482SOL    HW134100   0.900   5.757   1.469  1.7155 -0.8652  0.9436
 7482SOL    HW234101   0.898   5.900   1.548  0.3037 -0.4972  0.2558
 7483SOL     OW34102   6.105   0.323   5.202 -0.3775  0.2118  0.9851
 7483SOL    HW134103   6.053   0.268   5.137 -0.8741 -0.2599  1.7766
 7483SOL    HW234104   6.175   0.375   5.153 -0.1842 -0.7970  0.1737
 7484SOL     OW34105   3.694   2.669   2.193  0.0079  0.6046 -0.0931
 7484SOL    HW134106   3.763   2.730   2.232  0.2568  0.0856  0.2811
 7484SOL    HW234107   3.739   2.600   2.137 -0.3599  1.4419 -1.4334
 7485SOL     OW34108   7.824   5.533   2.078  0.1809  0.0326  0.1100
 7485SOL    HW134109   7.843   5.435   2.075 -0.9568 -0.2388  1.1100
 7485SOL    HW234110   7.736   5.552   2.033  0.0192  0.4868  0.6051
 7486SOL     OW34111   2.990   0.501   5.731 -0.1329 -0.3881  0.0266
 7486SOL    HW134112   2.905   0.496   5.678 -0.7002  0.1820  0.8662
 7486SOL    HW234113   3.044   0.418   5.717 -0.6035 -0.5387 -0.8925
 7487SOL     OW34114   3.456   3.964   7.929  0.0921 -0.2122  0.0082
 7487SOL    HW134115   3.405   3.923   8.005  1.0235  1.0403  1.3434
 7487SOL    HW234116   3.523   3.899   7.895 -0.5192 -0.8820  0.0682
 7488SOL     OW34117   4.059   3.259   3.777  0.2374 -0.1527 -0.6627
 7488SOL    HW134118   4.021   3.270   3.685 -0.6932  1.6898 -0.0633
 7488SOL    HW234119   4.159   3.257   3.771  0.1727 -1.1146 -1.8156
 7489SOL     OW34120   0.695   3.968   2.262 -0.1675 -0.8102  0.1254
 7489SOL    HW134121   0.621   3.906   2.287 -0.0596 -0.4295  1.3834
 7489SOL    HW234122   0.687   4.053   2.313  0.5102 -0.3312 -0.5425
 7490SOL     OW34123   3.473   7.686   5.385  0.5162 -0.3415 -0.1769
 7490SOL    HW134124   3.483   7.762   5.321  1.9328  0.0737  0.5159
 7490SOL    HW234125   3.447   7.721   5.475 -0.9310 -0.8764 -0.3721
 7491SOL     OW34126   9.326   6.721   4.149 -0.3021  0.4820  0.4344
 7491SOL    HW134127   9.246   6.695   4.096 -1.4811  0.6886  2.0687
 7491SOL    HW234128   9.312   6.811   4.190 -0.0593 -0.3314  2.3451
 7492SOL     OW34129   2.777   2.511   7.384 -0.2045  1.0948 -0.0746
 7492SOL    HW134130   2.813   2.587   7.439  1.1509  2.4415 -2.7198
 7492SOL    HW234131   2.822   2.511   7.295 -1.3857 -1.8584 -0.7091
 7493SOL     OW34132   6.259   1.411   6.004 -0.2615  0.5775 -1.0286
 7493SOL    HW134133   6.159   1.424   6.003 -0.3457 -0.1112 -2.1111
 7493SOL    HW234134   6.297   1.453   6.087 -1.1834  2.6665 -1.6428
 7494SOL     OW34135   9.565   1.705   1.636 -0.1230  0.3931 -0.2296
 7494SOL    HW134136   9.499   1.710   1.711  1.0933 -0.3951  0.9315
 7494SOL    HW234137   9.645   1.760   1.658  1.8333 -2.7171  0.7541
 7495SOL     OW34138   0.821   4.245   0.803  0.1274  0.1995  0.0870
 7495SOL    HW134139   0.834   4.170   0.738  2.1364  1.4825 -1.0320
 7495SOL    HW234140   0.880   4.231   0.882  0.0462  0.3022  0.1669
 7496SOL     OW34141   7.002   9.172   5.606  0.4209  0.4523 -0.1352
 7496SOL    HW134142   6.988   9.187   5.704 -0.3751  1.2285 -0.3668
 7496SOL    HW234143   7.075   9.105   5.593  2.1228  2.0344  0.9704
 7497SOL     OW34144   7.670   4.802   0.202 -0.2919  0.0710  0.6490
 7497SOL    HW134145   7.761   4.813   0.162  0.3594 -2.1945  1.4630
 7497SOL    HW234146   7.674   4.826   0.299 -0.2111 -1.5145  1.0400
 7498SOL     OW34147   8.045   8.409   2.255  0.2024 -0.6176  0.3269
 7498SOL    HW134148   8.086   8.371   2.337  1.9843  0.1012 -0.1990
 7498SOL    HW234149   8.082   8.501   2.239 -0.9260 -0.3245 -0.6884
 7499SOL     OW34150   2.081   3.893   2.746 -0.2003  0.8912  0.3359
 7499SOL    HW134151   2.051   3.980   2.784  0.2220  0.3823  1.8761
 7499SOL    HW234152   2.175   3.903   2.712 -0.6549  1.4053 -0.7810
 7500SOL     OW34153   7.935   6.021   0.497 -0.1643 -0.3068  0.4692
 7500SOL    HW134154   7.958   5.936   0.545 -2.5119 -1.0611  0.3237
 7500SOL    HW234155   8.015   6.053   0.445  0.8956 -2.1293  0.9332
 7501SOL     OW34156   0.689   0.650   1.978 -0.2148  0.2754 -0.7024
 7501SOL    HW134157   0.745   0.570   2.002 -0.1610  1.6082  4.0754
 7501SOL    HW234158   0.748   0.731   1.973 -1.3261  1.3305  2.3473
 7502SOL     OW34159   6.928   4.844   2.128  0.0630 -0.4346 -0.4119
 7502SOL    HW134160   6.852   4.779   2.116  0.2174 -0.6427 -0.2604
 7502SOL    HW234161   6.965   4.868   2.039  0.1504 -0.7256 -0.4546
 7503SOL     OW34162   3.135   4.945   7.150  0.1034  0.3052  0.4530
 7503SOL    HW134163   3.121   5.039   7.116 -0.9924  0.1638  0.4872
 7503SOL    HW234164   3.186   4.893   7.082 -1.4525  0.2322 -0.7037
 7504SOL     OW34165   4.997   7.797   4.249 -0.3385  0.0963 -0.4395
 7504SOL    HW134166   5.006   7.890   4.284  0.4729 -0.1737  0.0853
 7504SOL    HW234167   5.078   7.774   4.194  0.0783 -0.7523  0.5136
 7505SOL     OW34168   4.050   6.116   2.694  0.1217 -0.0690 -0.1569
 7505SOL    HW134169   4.149   6.126   2.708  0.0438  1.6365 -0.7808
 7505SOL    HW234170   4.001   6.182   2.751 -0.5535  0.6750 -1.5673
 7506SOL     OW34171   8.487   9.391   5.485 -0.2725 -0.3151  0.0088
 7506SOL    HW134172   8.587   9.380   5.492 -0.4252 -1.1285  0.9529
 7506SOL    HW234173   8.442   9.310   5.522 -1.3277  1.1656  2.0733
 7507SOL     OW34174   1.774   3.840   6.176 -0.3023 -0.0309 -0.4371
 7507SOL    HW134175   1.869   3.810   6.188  0.0734  1.2645 -0.0272
 7507SOL    HW234176   1.729   3.782   6.109  0.9377 -0.3423 -1.0150
 7508SOL     OW34177   2.847   2.714   2.608 -0.0656 -0.0925  0.0712
 7508SOL    HW134178   2.764   2.668   2.576  0.4149 -0.8888 -0.0392
 7508SOL    HW234179   2.859   2.696   2.706 -0.1676  0.2455  0.1456
 7509SOL     OW34180   2.606   5.931   8.025 -0.0166 -0.2625  0.6224
 7509SOL    HW134181   2.637   5.902   7.935 -0.7824  0.6045  0.0749
 7509SOL    HW234182   2.573   5.852   8.077 -2.2618 -0.3699 -0.9192
 7510SOL     OW34183   1.853   1.854   1.163 -0.4015 -0.3894  0.2993
 7510SOL    HW134184   1.840   1.768   1.113 -0.0050 -0.3760  0.1706
 7510SOL    HW234185   1.769   1.908   1.159  1.2105  2.0348 -4.9359
 7511SOL     OW34186   2.767   5.261   2.887 -0.2435 -0.0258  0.2233
 7511SOL    HW134187   2.802   5.342   2.934 -0.4481  0.3161 -0.2167
 7511SOL    HW234188   2.760   5.279   2.789  0.5785 -0.8760 -0.0042
 7512SOL     OW34189   0.647   5.671   7.766  0.5268  0.3402 -0.0379
 7512SOL    HW134190   0.632   5.752   7.822 -0.4601 -0.0557  0.2917
 7512SOL    HW234191   0.632   5.589   7.821  2.9539 -0.0877  0.0113
 7513SOL     OW34192   0.333   9.198   6.340 -0.7726  0.0403 -0.5946
 7513SOL    HW134193   0.304   9.271   6.403  0.2881  0.8211 -1.0039
 7513SOL    HW234194   0.258   9.178   6.277 -1.1561  0.6246 -0.3321
 7514SOL     OW34195   6.147   4.740   1.909 -0.3842  0.2826 -1.1324
 7514SOL    HW134196   6.241   4.709   1.925 -0.9660 -0.0683  1.9630
 7514SOL    HW234197   6.107   4.687   1.834  0.8916 -1.7595 -0.4236
 7515SOL     OW34198   2.764   7.052   4.287 -0.1137  1.0588 -0.3668
 7515SOL    HW134199   2.792   7.143   4.255  0.0474  0.6155 -1.4842
 7515SOL    HW234200   2.845   7.000   4.314 -0.0210  0.5240 -1.6426
 7516SOL     OW34201   0.377   0.700   5.897  0.0567  0.8151 -0.4390
 7516SOL    HW134202   0.476   0.703   5.880  0.0963 -0.7819 -0.5747
 7516SOL    HW234203   0.360   0.659   5.987 -0.5693 -2.2141 -1.8658
 7517SOL     OW34204   7.926   2.838   4.190 -0.2754 -0.1004  0.0825
 7517SOL    HW134205   8.017   2.879   4.196 -1.2119  2.1754 -0.7784
 7517SOL    HW234206   7.860   2.907   4.162 -2.2849 -1.7368  0.6504
 7518SOL     OW34207   3.832   7.881   7.057  0.3057  0.0930  0.0207
 7518SOL    HW134208   3.911   7.941   7.071  0.3422  0.0485  0.0039
 7518SOL    HW234209   3.751   7.924   7.097  0.1397  0.6098 -0.8589
 7519SOL     OW34210   1.320   9.678   7.515  0.0434  0.2026  0.0926
 7519SOL    HW134211   1.274   9.764   7.492  1.6850  0.9661 -0.4317
 7519SOL    HW234212   1.395   9.663   7.450  0.1037 -1.3507  0.5158
 7520SOL     OW34213   8.890   3.261   4.904  0.3587  0.0391  0.0182
 7520SOL    HW134214   8.885   3.360   4.921  0.3965 -0.0860  0.7948
 7520SOL    HW234215   8.964   3.222   4.959  1.6824 -0.1074 -1.8423
 7521SOL     OW34216   9.527   0.124   7.168  0.5907  0.6244  0.0044
 7521SOL    HW134217   9.583   0.166   7.240  1.3605  0.4857 -0.5066
 7521SOL    HW234218   9.462   0.061   7.209  0.5989  1.0176  0.6355
 7522SOL     OW34219   7.857   0.229   4.455 -0.6156  1.0039 -0.6249
 7522SOL    HW134220   7.840   0.304   4.391 -0.6669  0.7513 -0.9090
 7522SOL    HW234221   7.801   0.150   4.429 -0.1222  0.6679 -0.6773
 7523SOL     OW34222   2.447   9.247   8.092  0.7430 -0.0828 -0.0879
 7523SOL    HW134223   2.405   9.161   8.065 -2.2595  0.6169  2.1356
 7523SOL    HW234224   2.446   9.310   8.015 -3.0161  0.1583  0.0968
 7524SOL     OW34225   5.870   2.644   0.397 -0.1220  0.1712 -0.5297
 7524SOL    HW134226   5.948   2.706   0.409 -1.3880  1.4530  1.3056
 7524SOL    HW234227   5.875   2.570   0.464 -0.8053  0.5906 -0.0167
 7525SOL     OW34228   5.393   8.438   2.786 -0.0487  0.9196  0.1703
 7525SOL    HW134229   5.341   8.365   2.830  0.6107  0.3096 -0.0515
 7525SOL    HW234230   5.404   8.416   2.689  0.7865  0.9410  0.2561
 7526SOL     OW34231   2.955   2.383   4.383  0.2165 -0.0632 -0.3751
 7526SOL    HW134232   2.999   2.383   4.473  2.3746  1.4983 -1.3835
 7526SOL    HW234233   2.977   2.298   4.335  0.0063 -0.3966  0.1126
 7527SOL     OW34234   3.695   4.020   2.284  0.5782  0.3308 -0.0970
 7527SOL    HW134235   3.600   4.012   2.312  0.9942 -2.1279  0.7534
 7527SOL    HW234236   3.755   4.000   2.362  1.7551 -1.8232 -1.4824
 7528SOL     OW34237   3.316   2.218   4.338 -0.2367 -0.1047 -0.1973
 7528SOL    HW134238   3.348   2.280   4.409 -1.8641  1.1587 -0.5586
 7528SOL    HW234239   3.338   2.124   4.365  0.3208  0.4467  1.3532
 7529SOL     OW34240   3.747   7.300   4.092  0.0422 -0.3391  0.6823
 7529SOL    HW134241   3.758   7.360   4.013  1.2427  2.4853  2.8905
 7529SOL    HW234242   3.675   7.336   4.151  0.2887 -1.4646  1.6990
 7530SOL     OW34243   5.914   8.342   3.068 -0.4168 -0.1562  0.1251
 7530SOL    HW134244   5.990   8.318   3.008  0.3762  1.0574  0.6363
 7530SOL    HW234245   5.891   8.439   3.055 -1.4210 -0.3401  0.4826
 7531SOL     OW34246   4.593   4.374   2.604 -0.2866  0.2044  0.4201
 7531SOL    HW134247   4.686   4.388   2.570 -0.5716  1.7608  0.2390
 7531SOL    HW234248   4.531   4.437   2.558 -1.1369  0.4338  1.8456
 7532SOL     OW34249   9.823   0.585   6.318 -0.1857  0.5214  0.8940
 7532SOL    HW134250   9.765   0.505   6.300  0.1107  0.1454  1.6205
 7532SOL    HW234251   9.909   0.575   6.269  1.0852 -1.0396  3.3657
 7533SOL     OW34252   6.798   9.769   1.226  0.5214 -0.2237  0.3188
 7533SOL    HW134253   6.815   9.836   1.153 -1.0392 -0.7523 -0.5609
 7533SOL    HW234254   6.845   9.684   1.205  0.8444 -0.0700  0.4145
 7534SOL     OW34255   3.006   6.461   7.000 -0.1299 -0.0543  0.0269
 7534SOL    HW134256   3.094   6.437   7.041 -0.3395 -0.2379  0.3816
 7534SOL    HW234257   2.997   6.560   6.996  0.3811 -0.0382 -0.6459
 7535SOL     OW34258   2.084   0.132   6.796 -0.0746  0.2170  0.1527
 7535SOL    HW134259   1.996   0.098   6.764 -0.9597  2.0143  0.6694
 7535SOL    HW234260   2.144   0.147   6.717 -0.5755  0.0005 -0.2724
 7536SOL     OW34261   5.684   0.697   4.749 -0.0731  0.3257 -0.9145
 7536SOL    HW134262   5.630   0.637   4.808  1.0079 -0.0478 -0.3045
 7536SOL    HW234263   5.625   0.732   4.676 -0.8065 -1.2289 -1.0986
 7537SOL     OW34264   5.183   7.162   2.279  0.5067 -0.1223 -0.7159
 7537SOL    HW134265   5.143   7.249   2.249 -0.2283 -0.0542  0.4540
 7537SOL    HW234266   5.194   7.102   2.200 -0.8179  0.2944 -1.2328
 7538SOL     OW34267   2.360   4.295   7.381 -1.0486  0.0490  0.3230
 7538SOL    HW134268   2.343   4.373   7.440  0.1823  0.2568  0.4269
 7538SOL    HW234269   2.296   4.296   7.304 -0.6675  1.4920  0.0105
 7539SOL     OW34270   4.491   4.440   7.376  0.1967  0.1301  0.3962
 7539SOL    HW134271   4.509   4.538   7.389  0.9953 -0.1659  1.6538
 7539SOL    HW234272   4.552   4.404   7.306  0.0749  0.4846  0.1071
 7540SOL     OW34273   2.019   8.904   3.540 -0.4518 -0.2414  0.0249
 7540SOL    HW134274   2.087   8.853   3.489 -1.1673 -0.5543 -0.6237
 7540SOL    HW234275   1.931   8.856   3.537 -1.3520  1.4204 -1.3201
 7541SOL     OW34276   9.196   8.041   2.689 -0.1638 -0.1134 -0.6515
 7541SOL    HW134277   9.282   8.092   2.693  0.1062 -0.4596 -1.8613
 7541SOL    HW234278   9.120   8.105   2.673 -0.2516  0.2928  1.2280
 7542SOL     OW34279   6.260   1.847   3.062  0.1793 -0.0222 -0.3321
 7542SOL    HW134280   6.244   1.752   3.088 -0.8481 -0.4490 -2.4424
 7542SOL    HW234281   6.201   1.907   3.115  1.0990 -0.5139  1.2766
 7543SOL     OW34282   0.681   5.204   2.739 -0.8251  0.2595 -0.3737
 7543SOL    HW134283   0.726   5.286   2.703 -0.3800  0.6184  0.9812
 7543SOL    HW234284   0.613   5.230   2.807 -1.1334 -0.4562 -0.4089
 7544SOL     OW34285   8.623   0.267   0.429  0.1766  0.5035 -0.3109
 7544SOL    HW134286   8.687   0.255   0.353 -0.3055 -0.7909 -0.5228
 7544SOL    HW234287   8.532   0.237   0.401  0.0457 -0.1952  0.8421
 7545SOL     OW34288   4.272   8.604   7.261 -0.1580 -0.8955  0.1983
 7545SOL    HW134289   4.224   8.579   7.177 -0.7198 -0.0566  0.2641
 7545SOL    HW234290   4.371   8.595   7.247 -0.1917  0.3519 -0.9238
 7546SOL     OW34291   0.013   6.443   1.426 -0.1290  0.5911 -0.4053
 7546SOL    HW134292   0.021   6.543   1.428  0.3827  0.5553 -0.5342
 7546SOL    HW234293  -0.037   6.412   1.507 -1.1686  1.0294 -0.8722
 7547SOL     OW34294   7.664   6.866   5.971 -0.3599 -0.2829 -0.0276
 7547SOL    HW134295   7.649   6.901   5.878  0.0003  1.2560  0.4730
 7547SOL    HW234296   7.587   6.810   5.999 -0.3623 -0.9613 -1.3470
 7548SOL     OW34297   0.910   1.000   3.014 -0.2794 -0.4241  0.7018
 7548SOL    HW134298   0.990   0.939   3.016  1.0567  1.2693 -0.2721
 7548SOL    HW234299   0.862   0.988   2.927  0.7260  0.8374 -0.0360
 7549SOL     OW34300   5.902   1.305   5.962 -0.1556 -0.6525  0.0278
 7549SOL    HW134301   5.889   1.359   5.879  1.6249 -0.5594 -0.2223
 7549SOL    HW234302   5.910   1.366   6.041 -1.1489 -0.7105  0.1851
 7550SOL     OW34303   8.515   9.913   5.307 -0.0912  0.5241 -0.3793
 7550SOL    HW134304   8.499   9.839   5.372  1.5929  2.1741  2.0145
 7550SOL    HW234305   8.488   9.884   5.215 -0.6670 -2.5707  0.7243
 7551SOL     OW34306   1.424   3.901   6.817 -0.8280  0.0069 -0.0119
 7551SOL    HW134307   1.340   3.850   6.797 -0.0414 -0.9611 -0.8531
 7551SOL    HW234308   1.453   3.951   6.736 -1.2699  1.3400  0.6397
 7552SOL     OW34309   4.696   5.108   2.588 -0.3150 -0.3656 -0.2048
 7552SOL    HW134310   4.730   5.134   2.497  0.4514 -1.3116 -0.2016
 7552SOL    HW234311   4.773   5.097   2.650 -0.6947 -1.4314  0.0991
 7553SOL     OW34312   6.925   0.610   2.597  0.6116 -0.4708 -0.3435
 7553SOL    HW134313   6.896   0.525   2.554 -0.7061  0.3965 -1.1742
 7553SOL    HW234314   6.934   0.682   2.528 -0.1292  0.5599  0.6104
 7554SOL     OW34315   4.051   2.865   1.489 -0.2869  0.1848  0.1430
 7554SOL    HW134316   4.121   2.875   1.419 -0.8585  0.0283 -0.4558
 7554SOL    HW234317   4.083   2.907   1.574  0.6111 -0.0577 -0.0644
 7555SOL     OW34318   9.292   4.850   3.797  0.3055  0.4008 -0.4294
 7555SOL    HW134319   9.326   4.757   3.813  0.7894  0.3109 -1.8638
 7555SOL    HW234320   9.359   4.899   3.740 -0.3796  1.3225 -0.4348
 7556SOL     OW34321   1.557   9.245   7.731 -0.1090  0.2442 -0.0083
 7556SOL    HW134322   1.611   9.291   7.661  1.3273 -0.8518  0.3567
 7556SOL    HW234323   1.463   9.233   7.698 -0.2885  2.6250 -0.4331
 7557SOL     OW34324   4.979   3.676   0.229 -0.2637 -0.3442  0.8329
 7557SOL    HW134325   5.028   3.711   0.149 -0.4180 -1.1366  0.3801
 7557SOL    HW234326   5.042   3.621   0.284  0.0938  0.9811  1.7731
 7558SOL     OW34327   4.282   0.399   7.609 -0.0745 -0.0250  0.4184
 7558SOL    HW134328   4.199   0.358   7.648 -0.6024  0.0298 -0.6229
 7558SOL    HW234329   4.316   0.340   7.535  0.0190  0.6439 -0.0760
 7559SOL     OW34330   5.018   1.284   5.879  0.2172 -0.2135  0.2932
 7559SOL    HW134331   5.070   1.370   5.886 -1.1449  0.7094 -0.6787
 7559SOL    HW234332   5.079   1.207   5.898  1.6676  0.9174  0.3538
 7560SOL     OW34333   6.435   4.034   1.018 -0.4541  0.9484  0.0642
 7560SOL    HW134334   6.439   3.943   0.977  1.1457  0.1802  1.8341
 7560SOL    HW234335   6.419   4.103   0.948  0.3524 -0.5020 -1.5602
 7561SOL     OW34336   0.475   0.123   3.004  1.0234 -0.1440  0.3941
 7561SOL    HW134337   0.502   0.046   2.946 -2.0537 -0.1377 -1.1117
 7561SOL    HW234338   0.522   0.206   2.975  1.3872 -0.6602 -0.4888
 7562SOL     OW34339   4.913   2.536   6.553  0.0373 -0.3497 -0.5167
 7562SOL    HW134340   4.983   2.605   6.572  1.5716 -1.7888 -0.8690
 7562SOL    HW234341   4.895   2.482   6.635  0.0912 -0.6571 -0.7045
 7563SOL     OW34342   2.221   9.123   4.492 -0.3263 -0.8586  0.0996
 7563SOL    HW134343   2.204   9.025   4.481 -1.7669 -0.5470 -0.5828
 7563SOL    HW234344   2.183   9.153   4.579 -0.0138 -0.8730  0.2418
 7564SOL     OW34345   4.535   8.394   6.726  0.2754  0.5585  0.1452
 7564SOL    HW134346   4.580   8.460   6.786 -1.8429  0.0167  2.3944
 7564SOL    HW234347   4.464   8.441   6.674  1.0887  0.7187 -0.8357
 7565SOL     OW34348   3.876   4.242   6.486 -0.7381 -0.3024  0.3785
 7565SOL    HW134349   3.935   4.167   6.513  0.0447  0.6437  1.3475
 7565SOL    HW234350   3.781   4.213   6.489 -0.3022 -2.1885 -2.2663
 7566SOL     OW34351   3.012   2.849   7.876  0.1808 -0.1883  0.2652
 7566SOL    HW134352   3.069   2.921   7.836  0.1199 -0.8201 -0.9772
 7566SOL    HW234353   3.014   2.768   7.817 -2.6348  0.0409 -0.2001
 7567SOL     OW34354   1.785   4.392   6.898 -0.2408 -0.4256 -0.8213
 7567SOL    HW134355   1.762   4.300   6.866 -1.6862 -0.6183  0.7083
 7567SOL    HW234356   1.811   4.388   6.995  1.2654  0.5541 -1.1709
 7568SOL     OW34357   4.524   7.426   2.772 -0.3162 -0.2426 -0.0126
 7568SOL    HW134358   4.528   7.526   2.762  1.7844 -0.3613 -0.4844
 7568SOL    HW234359   4.445   7.391   2.720 -0.7867  1.1217 -0.2417
 7569SOL     OW34360   1.730   3.629   7.791  0.2465 -0.3922 -0.8043
 7569SOL    HW134361   1.662   3.583   7.734  1.4014 -0.6184 -2.0354
 7569SOL    HW234362   1.687   3.702   7.844 -0.9761 -0.6944 -1.3810
 7570SOL     OW34363   1.150   6.815   6.631 -0.3633  0.1889  0.1230
 7570SOL    HW134364   1.088   6.857   6.697 -0.8518 -1.7765  0.9308
 7570SOL    HW234365   1.131   6.717   6.623  1.3719 -0.0918 -1.0454
 7571SOL     OW34366   5.082   9.195   6.878  0.1971  0.4124 -0.1861
 7571SOL    HW134367   5.009   9.128   6.892  1.5569 -1.5929 -2.2789
 7571SOL    HW234368   5.050   9.267   6.817 -0.2445 -0.1572 -0.6344
 7572SOL     OW34369   8.301   9.434   7.925 -0.0996  0.1772 -0.3101
 7572SOL    HW134370   8.291   9.509   7.990 -1.8020 -1.7573  1.7725
 7572SOL    HW234371   8.388   9.443   7.877  0.4018  2.6421  0.9656
 7573SOL     OW34372   3.813   9.998   7.620 -1.3426  0.4214 -0.0110
 7573SOL    HW134373   3.818   9.986   7.720  1.6120  1.1290 -0.0313
 7573SOL    HW234374   3.862   9.923   7.576 -1.4110  0.8910 -0.8830
 7574SOL     OW34375   5.424   0.750   6.227 -0.2549 -0.0287 -0.5467
 7574SOL    HW134376   5.469   0.667   6.261 -0.0051 -0.0699 -0.9782
 7574SOL    HW234377   5.351   0.724   6.163 -1.2331  0.0129  0.5395
 7575SOL     OW34378   7.031   7.992   3.889 -0.2430 -0.0409 -0.0570
 7575SOL    HW134379   6.938   7.962   3.868 -0.6369  1.4483 -0.5244
 7575SOL    HW234380   7.096   7.924   3.856 -1.1097 -0.4621 -0.9317
 7576SOL     OW34381   8.074   5.540   6.028  0.4191  0.4489  0.1410
 7576SOL    HW134382   8.014   5.575   6.100 -0.9624 -2.2562  0.3901
 7576SOL    HW234383   8.158   5.593   6.026  0.2145  1.0033  3.3137
 7577SOL     OW34384   0.889   6.906   4.475  0.3848  0.3004  0.2328
 7577SOL    HW134385   0.937   6.897   4.388  0.3318 -0.9861  0.3243
 7577SOL    HW234386   0.831   6.987   4.474 -0.4099 -0.2720 -1.3108
 7578SOL     OW34387   2.133   6.200   3.157  0.4203 -0.7214  0.1629
 7578SOL    HW134388   2.224   6.167   3.130  0.3045  0.5487 -1.9242
 7578SOL    HW234389   2.093   6.251   3.081 -2.0312 -1.2196  1.0898
 7579SOL     OW34390   9.645   9.423   4.184 -0.4163  0.4841  0.3547
 7579SOL    HW134391   9.554   9.398   4.150 -0.7719 -0.2181  1.7631
 7579SOL    HW234392   9.644   9.518   4.214 -1.2740 -0.0402  2.1444
 7580SOL     OW34393   4.136   3.171   7.264  0.7810  0.0765 -0.1258
 7580SOL    HW134394   4.178   3.251   7.222 -0.6395  0.5299 -0.6942
 7580SOL    HW234395   4.083   3.199   7.345 -0.8607 -0.0933 -1.1255
 7581SOL     OW34396   9.785   0.823   5.699  0.0241  0.8199 -0.0700
 7581SOL    HW134397   9.700   0.790   5.739 -0.5548  0.6408 -1.4266
 7581SOL    HW234398   9.767   0.864   5.610  1.5742 -0.9392 -1.2517
 7582SOL     OW34399   1.067   5.576   6.704 -0.2888 -0.4125  0.2765
 7582SOL    HW134400   1.138   5.646   6.706  0.0279 -0.7473  2.8517
 7582SOL    HW234401   0.981   5.614   6.740 -1.3752 -0.1141 -2.4702
 7583SOL     OW34402   2.985   5.231   1.095 -0.4341  0.1390  0.5986
 7583SOL    HW134403   3.026   5.271   1.177 -0.2664  0.9475  0.1234
 7583SOL    HW234404   2.957   5.137   1.114  0.2057  0.1080  1.3889
 7584SOL     OW34405   8.990   8.115   2.152  0.3082  0.0612 -0.0737
 7584SOL    HW134406   8.911   8.174   2.133 -0.0611 -0.7222 -0.9971
 7584SOL    HW234407   9.074   8.161   2.123  0.1765  0.7733  0.6372
 7585SOL     OW34408   7.517   3.630   1.933  0.6646 -0.1358  0.6629
 7585SOL    HW134409   7.547   3.565   1.863  0.0371  0.3232 -0.0357
 7585SOL    HW234410   7.436   3.679   1.902 -0.0818 -0.4643  2.0347
 7586SOL     OW34411   5.588   9.604   6.405 -0.3379  0.7590  0.1393
 7586SOL    HW134412   5.621   9.688   6.449  0.4532  1.0515 -0.9960
 7586SOL    HW234413   5.591   9.615   6.306 -1.3403 -0.1956 -0.0003
 7587SOL     OW34414   0.225   0.528   5.547  0.1747 -0.0562 -0.5832
 7587SOL    HW134415   0.271   0.476   5.618 -0.2972  1.4214  0.8369
 7587SOL    HW234416   0.273   0.615   5.533 -0.3889  0.1519 -1.2854
 7588SOL     OW34417   1.228   8.739   1.848 -0.1101 -0.9177 -0.4269
 7588SOL    HW134418   1.319   8.766   1.880 -0.2706 -0.4149 -0.3790
 7588SOL    HW234419   1.225   8.744   1.748 -0.5126  0.4857 -0.3548
 7589SOL     OW34420   8.284   6.525   3.759 -0.2818  0.3879 -0.0790
 7589SOL    HW134421   8.312   6.478   3.674 -1.5042  0.9190 -0.7822
 7589SOL    HW234422   8.248   6.615   3.737  1.5901  1.5019  1.2315
 7590SOL     OW34423   2.608   4.362   8.021  0.8427  0.3894  0.2390
 7590SOL    HW134424   2.651   4.353   7.931  0.6950 -1.2092  0.3211
 7590SOL    HW234425   2.656   4.433   8.073  2.6792 -0.5538 -0.1061
 7591SOL     OW34426   3.820   1.221   0.956  0.0538 -0.1946 -0.5044
 7591SOL    HW134427   3.782   1.297   1.009 -2.0272 -0.8403 -1.0337
 7591SOL    HW234428   3.919   1.234   0.945  0.0702  1.3197  1.2268
 7592SOL     OW34429   6.830   8.052   5.674  0.0037 -0.0301  0.0895
 7592SOL    HW134430   6.744   8.007   5.696  0.2600 -0.5116  0.1121
 7592SOL    HW234431   6.832   8.143   5.716 -1.2500  0.7214 -1.4310
 7593SOL     OW34432   1.503   7.544   6.803 -0.9494  0.0774  0.6144
 7593SOL    HW134433   1.437   7.498   6.744 -0.6219 -1.2078  1.2260
 7593SOL    HW234434   1.569   7.594   6.746 -0.1442 -1.8143 -0.1839
 7594SOL     OW34435   6.739   1.006   0.607 -0.7312  0.2126 -0.4740
 7594SOL    HW134436   6.704   0.988   0.515 -0.3105 -0.9571 -0.4148
 7594SOL    HW234437   6.666   0.995   0.674 -1.4861  2.8646 -0.8258
 7595SOL     OW34438   6.392   4.241   0.812 -0.0320  0.4140 -0.1822
 7595SOL    HW134439   6.410   4.229   0.714 -1.0164  2.1022 -0.5935
 7595SOL    HW234440   6.294   4.249   0.827  0.0692 -0.5229  1.0412
 7596SOL     OW34441   9.899   3.668   6.767  0.2688  0.3873 -0.2749
 7596SOL    HW134442   9.814   3.680   6.818  0.1595 -1.2419 -0.0456
 7596SOL    HW234443   9.878   3.645   6.672  0.4264 -1.1550  0.0504
 7597SOL     OW34444   8.038   4.646   4.126  0.1428  0.0575 -0.1081
 7597SOL    HW134445   8.125   4.625   4.170  0.4362 -1.1230 -1.2359
 7597SOL    HW234446   7.975   4.684   4.194  0.9510 -0.7221  1.0969
 7598SOL     OW34447   0.204   4.201   5.736 -0.6062 -0.1362 -0.2904
 7598SOL    HW134448   0.208   4.122   5.798 -2.0140  0.9107  1.1991
 7598SOL    HW234449   0.199   4.170   5.642 -2.0945 -1.8677  0.3314
 7599SOL     OW34450   6.172   0.007   0.855  0.1077  0.3732 -0.0953
 7599SOL    HW134451   6.093  -0.046   0.887 -1.0474  2.0956 -0.0595
 7599SOL    HW234452   6.228   0.033   0.934  0.9184 -1.1146 -0.1485
 7600SOL     OW34453   7.102   0.945   6.541  0.1749 -0.6304 -0.5456
 7600SOL    HW134454   7.021   0.943   6.600  1.6222 -1.9108  1.4767
 7600SOL    HW234455   7.166   1.014   6.574  0.2375 -0.1311 -1.6914
 7601SOL     OW34456   2.187   5.446   2.406  0.1331  0.2586  0.3779
 7601SOL    HW134457   2.117   5.377   2.387 -1.1551  1.6303  0.0353
 7601SOL    HW234458   2.225   5.431   2.497  0.1020 -1.0915  0.1797
 7602SOL     OW34459   2.705   3.811   3.252 -0.5248 -0.4555  0.5434
 7602SOL    HW134460   2.803   3.823   3.270 -0.1023 -0.9850 -1.3666
 7602SOL    HW234461   2.669   3.892   3.206 -0.0110 -2.0156 -2.6857
 7603SOL     OW34462   3.001   9.908   1.757 -0.0604 -0.1772 -0.0137
 7603SOL    HW134463   3.062   9.849   1.703  1.1993  1.6594 -0.6796
 7603SOL    HW234464   2.910   9.907   1.717  0.5732  0.2292 -1.5124
 7604SOL     OW34465   8.591   5.751   3.225  0.7048  0.2509 -0.1924
 7604SOL    HW134466   8.635   5.776   3.311 -0.0071 -0.7116  0.4663
 7604SOL    HW234467   8.515   5.814   3.206 -0.0495 -0.4013  0.6254
 7605SOL     OW34468   9.424   3.163   8.143  0.5777  0.4039 -0.2166
 7605SOL    HW134469   9.478   3.227   8.198 -1.2873  1.1692  0.8046
 7605SOL    HW234470   9.421   3.074   8.189 -0.0556  0.7281  0.3959
 7606SOL     OW34471   0.358   0.955   6.765  0.0737 -0.1264  0.1101
 7606SOL    HW134472   0.395   1.047   6.765 -1.1640  0.3755 -1.3761
 7606SOL    HW234473   0.258   0.958   6.757  0.2198 -1.6419 -3.2718
 7607SOL     OW34474   7.747   3.020   0.737  0.5818  0.2163  0.4341
 7607SOL    HW134475   7.767   3.079   0.816  0.5208  0.0474  0.5766
 7607SOL    HW234476   7.648   3.010   0.728  0.6144 -1.8095  1.8737
 7608SOL     OW34477   6.642   2.452   1.404 -0.3927 -0.6470 -0.4253
 7608SOL    HW134478   6.644   2.549   1.429  1.9037 -0.4748 -1.1292
 7608SOL    HW234479   6.575   2.437   1.331 -0.2228  0.5504 -0.8346
 7609SOL     OW34480   2.788   7.629   2.253  0.0181 -0.3951  0.1341
 7609SOL    HW134481   2.868   7.570   2.238  1.3176  0.6204  2.7013
 7609SOL    HW234482   2.705   7.573   2.254  0.8125 -1.6272 -1.3967
 7610SOL     OW34483   1.327   1.278   0.970 -0.2374 -0.7862  0.4136
 7610SOL    HW134484   1.231   1.290   0.943 -0.2689 -2.5504 -0.3306
 7610SOL    HW234485   1.331   1.240   1.062 -0.2805 -1.1785  0.2576
 7611SOL     OW34486   1.557   8.780   3.953  0.2593  0.2907 -0.6567
 7611SOL    HW134487   1.581   8.787   3.856  0.4398  0.1169 -0.6254
 7611SOL    HW234488   1.633   8.816   4.008  0.2781  0.1158 -0.5698
 7612SOL     OW34489   3.571   4.118   4.997 -0.3786  0.1763 -0.4822
 7612SOL    HW134490   3.591   4.072   4.911 -1.3947  1.2981 -1.3372
 7612SOL    HW234491   3.476   4.099   5.023 -0.1290 -0.0136  0.3049
 7613SOL     OW34492   3.473   1.297   0.289  0.5581  0.1028 -0.0526
 7613SOL    HW134493   3.559   1.248   0.272  1.5451  2.4863 -2.4248
 7613SOL    HW234494   3.487   1.365   0.361  0.1753 -0.7161  0.7906
 7614SOL     OW34495   1.614   7.912   4.878  0.2245  0.2041 -0.2843
 7614SOL    HW134496   1.658   7.971   4.810  0.8161 -0.6942 -0.6885
 7614SOL    HW234497   1.627   7.952   4.969 -0.0392  1.0895 -0.6267
 7615SOL     OW34498   9.921   5.402   1.226  0.2769 -0.4121  0.4733
 7615SOL    HW134499  10.007   5.354   1.238 -0.3993 -1.5399  0.8489
 7615SOL    HW234500   9.920   5.483   1.285  1.2294 -0.1824  0.1747
 7616SOL     OW34501   5.155   1.955   0.299 -0.3843 -0.2957  0.0814
 7616SOL    HW134502   5.119   1.978   0.390 -1.1562  1.6541 -0.6861
 7616SOL    HW234503   5.114   1.870   0.267 -3.8009  1.4751 -0.4415
 7617SOL     OW34504   9.647   9.505   8.131  0.5524  0.3015 -0.1855
 7617SOL    HW134505   9.641   9.560   8.047 -0.5207  3.7614  2.0669
 7617SOL    HW234506   9.567   9.522   8.188  1.5380 -1.5873  1.8334
 7618SOL     OW34507   8.664   6.848   7.472 -0.0350  0.2684  0.1432
 7618SOL    HW134508   8.660   6.853   7.571 -0.9635 -1.9753  0.2298
 7618SOL    HW234509   8.747   6.800   7.443  1.1064  2.4114 -0.2388
 7619SOL     OW34510   4.432   4.579   2.499  0.4454 -0.2247  0.4155
 7619SOL    HW134511   4.417   4.639   2.577  0.6547  1.4646 -0.8198
 7619SOL    HW234512   4.433   4.633   2.415  0.0180 -2.0413 -0.7852
 7620SOL     OW34513   7.316   4.420   7.687 -0.1449 -0.1152 -0.0842
 7620SOL    HW134514   7.278   4.463   7.606  0.4355  0.4373 -0.0704
 7620SOL    HW234515   7.285   4.326   7.693 -0.9455  0.1243 -0.4384
 7621SOL     OW34516   4.165   7.683   6.212  0.5593 -0.0836  0.6789
 7621SOL    HW134517   4.070   7.659   6.193  0.8142 -0.0323 -0.6955
 7621SOL    HW234518   4.218   7.600   6.230  0.5624 -0.2331 -0.0091
 7622SOL     OW34519   7.463   3.427   2.886  0.7178  0.0867  0.0991
 7622SOL    HW134520   7.474   3.416   2.787  0.6372 -2.5194  0.3479
 7622SOL    HW234521   7.377   3.385   2.915  0.9958  0.3622  1.3715
 7623SOL     OW34522   5.969   2.509   0.761  0.4408  0.2255 -0.9228
 7623SOL    HW134523   6.017   2.589   0.797 -0.0293  1.0680 -2.1302
 7623SOL    HW234524   6.009   2.484   0.673  1.3350 -1.5765 -0.0330
 7624SOL     OW34525   3.729   1.811   1.258 -0.0612 -0.4261  0.0250
 7624SOL    HW134526   3.751   1.881   1.191  0.7856 -0.6805  0.0386
 7624SOL    HW234527   3.800   1.741   1.259 -1.4075 -1.8478 -0.7213
 7625SOL     OW34528   9.682   7.749   3.917  0.0679  0.8038 -0.6222
 7625SOL    HW134529   9.625   7.667   3.906 -0.0812  0.8712 -0.3697
 7625SOL    HW234530   9.769   7.736   3.869  0.2490  0.3004 -0.1649
 7626SOL     OW34531   8.910   2.469   7.620  0.5959 -0.5829  0.2937
 7626SOL    HW134532   8.872   2.562   7.622  1.0985 -0.3217 -1.9105
 7626SOL    HW234533   8.835   2.403   7.632  0.0844  0.0621  0.7156
 7627SOL     OW34534   9.311   4.177   0.816  0.2431  0.6792 -0.5737
 7627SOL    HW134535   9.271   4.241   0.750  1.9809  2.1839 -0.1928
 7627SOL    HW234536   9.271   4.194   0.906 -1.0696 -0.4205 -0.9233
 7628SOL     OW34537   7.842   9.811   1.118 -0.2476  0.0437 -0.1949
 7628SOL    HW134538   7.828   9.737   1.051 -1.3114 -0.3928  0.4936
 7628SOL    HW234539   7.839   9.899   1.071  0.6557 -0.3344 -0.9695
 7629SOL     OW34540   6.828   3.185   2.235 -0.1151 -0.1027  0.5505
 7629SOL    HW134541   6.839   3.175   2.137 -0.0083 -2.1829  0.7493
 7629SOL    HW234542   6.914   3.213   2.277 -0.2280  1.0332  0.0392
 7630SOL     OW34543   2.492   3.976   1.062 -0.0927 -0.0332 -0.1886
 7630SOL    HW134544   2.508   3.905   0.993  3.1242  0.2797  0.1568
 7630SOL    HW234545   2.562   3.970   1.132 -2.3096  0.7963  2.1715
 7631SOL     OW34546   2.928   0.333   2.648 -0.3109  0.2058 -0.3169
 7631SOL    HW134547   2.842   0.379   2.623  0.1391  0.8635 -0.6642
 7631SOL    HW234548   2.921   0.299   2.742 -2.1711 -2.6452 -1.4125
 7632SOL     OW34549   3.097   0.930   0.029  0.1443  0.0805 -0.0520
 7632SOL    HW134550   3.144   1.017   0.042  0.4025  0.0558 -0.8020
 7632SOL    HW234551   3.014   0.928   0.085 -1.0512  1.6998 -1.6969
 7633SOL     OW34552   6.644   0.621   2.087 -0.2019 -0.5298  0.3912
 7633SOL    HW134553   6.628   0.546   2.023  0.4546  0.1164 -0.5411
 7633SOL    HW234554   6.557   0.653   2.123 -0.7870  0.7218 -2.0453
 7634SOL     OW34555   9.350   7.413   4.237 -0.0620  0.2513  0.0951
 7634SOL    HW134556   9.309   7.443   4.323  0.2239  1.7683 -0.2840
 7634SOL    HW234557   9.420   7.343   4.255  1.7425  2.3247  1.3301
 7635SOL     OW34558   5.005   4.745   1.540  0.0182 -0.3125 -0.1058
 7635SOL    HW134559   4.967   4.726   1.630 -0.0062 -0.1956 -0.0912
 7635SOL    HW234560   4.994   4.665   1.481  1.7790 -1.0807  0.5870
 7636SOL     OW34561   1.370   1.216   8.052  0.0127  0.1186  0.1444
 7636SOL    HW134562   1.418   1.197   7.966 -0.0531  0.3196  0.0619
 7636SOL    HW234563   1.384   1.140   8.115  2.3415  1.1574  0.9531
 7637SOL     OW34564   4.902   3.120   5.915  0.4945  0.0339  0.0296
 7637SOL    HW134565   4.991   3.093   5.952  0.1099 -2.1574 -0.5585
 7637SOL    HW234566   4.911   3.140   5.817  0.1935 -1.1602 -0.2605
 7638SOL     OW34567   0.496   7.196   4.148  0.3823 -0.3832 -0.1545
 7638SOL    HW134568   0.486   7.102   4.115  2.3764 -0.2327 -1.2426
 7638SOL    HW234569   0.589   7.228   4.130  0.0398  1.4342  1.1848
 7639SOL     OW34570   0.919   9.784   7.064  0.3300  0.5092  0.1262
 7639SOL    HW134571   0.988   9.730   7.111 -0.2277 -1.7100 -1.5215
 7639SOL    HW234572   0.852   9.818   7.131  2.6016  2.1104  1.6254
 7640SOL     OW34573   2.314   1.156   2.000 -0.6361 -0.2969  0.1407
 7640SOL    HW134574   2.254   1.193   2.072 -1.0545 -0.3318 -0.1902
 7640SOL    HW234575   2.270   1.167   1.911  0.6084  1.3012 -0.2975
 7641SOL     OW34576   6.766   7.097   3.768 -0.0235 -0.2384  0.3942
 7641SOL    HW134577   6.813   7.066   3.686  0.4770  0.3129  0.4701
 7641SOL    HW234578   6.809   7.057   3.849  1.5811  1.7792  0.5944
 7642SOL     OW34579   2.920   1.283   1.727  0.1501  0.1625  0.4825
 7642SOL    HW134580   2.978   1.203   1.710 -1.5457 -0.6806 -1.3910
 7642SOL    HW234581   2.830   1.253   1.757  0.0126  1.4339  1.3595
 7643SOL     OW34582   4.479   9.156   2.113  0.2520  0.2915  0.7594
 7643SOL    HW134583   4.439   9.069   2.142  1.5658 -0.4788  0.2863
 7643SOL    HW234584   4.576   9.157   2.135  0.6277  0.9026 -0.9145
 7644SOL     OW34585   7.312   1.636   1.016  0.9063  0.2974 -0.1264
 7644SOL    HW134586   7.350   1.725   1.042  1.2658 -0.3517  1.6534
 7644SOL    HW234587   7.242   1.609   1.082  0.1757 -0.3447 -1.1506
 7645SOL     OW34588   2.188   1.630   3.531  0.0192 -0.3967 -0.2721
 7645SOL    HW134589   2.166   1.685   3.450  0.9666  0.1743 -0.1366
 7645SOL    HW234590   2.103   1.608   3.580 -0.3188  1.3305 -0.0680
 7646SOL     OW34591   3.693   3.962   2.018  0.3987  0.2306 -0.0697
 7646SOL    HW134592   3.702   3.971   2.118  1.9848  0.5718 -0.2318
 7646SOL    HW234593   3.648   4.043   1.981  0.1590  0.2768  0.3126
 7647SOL     OW34594   7.220   0.155   1.861 -0.5544 -0.4525  0.4056
 7647SOL    HW134595   7.212   0.216   1.940  0.1366  1.3905 -0.9290
 7647SOL    HW234596   7.139   0.165   1.803  1.1835  1.9583 -1.7093
 7648SOL     OW34597   2.699   0.567   6.904  0.3764 -0.3733  0.2863
 7648SOL    HW134598   2.730   0.637   6.969  0.4079 -1.1925  1.1495
 7648SOL    HW234599   2.724   0.595   6.811  2.8686 -0.5547  0.8719
 7649SOL     OW34600   6.162   4.142   8.013 -0.7480  0.0072 -0.1845
 7649SOL    HW134601   6.077   4.194   8.014  0.2887  1.7391  0.8769
 7649SOL    HW234602   6.217   4.168   7.934 -0.9938 -0.7860 -0.6243
 7650SOL     OW34603   7.775   0.465   0.424 -0.6569 -0.1309  0.4302
 7650SOL    HW134604   7.692   0.460   0.368 -1.3906 -3.0984  1.7005
 7650SOL    HW234605   7.830   0.382   0.410  1.1160  0.8974  1.1121
 7651SOL     OW34606   9.041   9.199   5.130  0.5907 -0.5573 -0.1519
 7651SOL    HW134607   8.956   9.195   5.182  1.0115  4.5100  1.1467
 7651SOL    HW234608   9.020   9.200   5.032 -0.7532 -0.6900  0.1254
 7652SOL     OW34609   2.935   9.395   3.518  0.4814 -0.3759 -0.0012
 7652SOL    HW134610   2.868   9.365   3.451  0.7625 -0.0286 -0.4370
 7652SOL    HW234611   3.016   9.429   3.472  0.6703 -0.1177  0.5122
 7653SOL     OW34612   1.157   0.263   2.994 -0.1040  0.1951  0.3205
 7653SOL    HW134613   1.168   0.335   2.924 -0.5856  1.3322  1.3910
 7653SOL    HW234614   1.244   0.215   3.006  0.7305  1.7997  0.8775
 7654SOL     OW34615   0.395   3.038   1.042  0.3095 -1.1788  0.2368
 7654SOL    HW134616   0.364   2.945   1.060  1.0771 -1.7363 -1.2011
 7654SOL    HW234617   0.376   3.061   0.947 -0.2366  0.2839  0.6985
 7655SOL     OW34618   3.587   0.636   3.233 -0.4795 -0.3110 -0.2867
 7655SOL    HW134619   3.572   0.617   3.330 -0.2865 -0.9861 -0.3825
 7655SOL    HW234620   3.595   0.734   3.219  0.0143 -0.2382  0.4621
 7656SOL     OW34621   7.604   6.364   4.445  0.4531 -0.3135  0.7909
 7656SOL    HW134622   7.684   6.376   4.387  0.6575  0.5211  1.2373
 7656SOL    HW234623   7.627   6.387   4.539 -0.1654 -0.6124  1.0174
 7657SOL     OW34624   1.846   9.964   6.298 -0.1546  0.1743  0.2784
 7657SOL    HW134625   1.911   9.976   6.223 -1.3674 -0.1177 -0.8383
 7657SOL    HW234626   1.877  10.016   6.378 -0.4775  3.1472 -1.4383
 7658SOL     OW34627   2.203   3.188   5.651 -0.1894 -0.1961 -0.4565
 7658SOL    HW134628   2.293   3.184   5.693 -0.6576  0.9665  0.7030
 7658SOL    HW234629   2.207   3.242   5.567  0.1548  0.0230 -0.2988
 7659SOL     OW34630   0.363   3.072   3.586 -0.5701  0.6249  0.1529
 7659SOL    HW134631   0.403   3.153   3.543  0.9190 -0.0324  0.2830
 7659SOL    HW234632   0.433   3.024   3.639 -0.9899 -1.7208 -1.3549
 7660SOL     OW34633   6.480   1.253   1.478 -0.2154 -0.2785  0.8233
 7660SOL    HW134634   6.578   1.236   1.468 -0.0897  0.5588  0.6247
 7660SOL    HW234635   6.434   1.242   1.390 -0.0227  1.1324  0.5444
 7661SOL     OW34636   9.439   6.159   5.886 -0.5532  0.1456 -0.6235
 7661SOL    HW134637   9.448   6.074   5.833 -1.2036 -0.4518  0.2001
 7661SOL    HW234638   9.528   6.205   5.891  0.3027 -1.6161  0.7750
 7662SOL     OW34639   5.948   9.575   3.629  0.1291 -0.1664 -0.3550
 7662SOL    HW134640   5.898   9.547   3.711  0.7608  0.0347  0.1035
 7662SOL    HW234641   5.930   9.672   3.611  1.1796  0.1695  0.4088
 7663SOL     OW34642   3.207   3.155   2.744 -0.1036  0.2425 -0.3314
 7663SOL    HW134643   3.107   3.150   2.738 -0.1489 -0.0927  0.6808
 7663SOL    HW234644   3.235   3.142   2.838  0.9631 -0.5422 -0.7603
 7664SOL     OW34645   0.617   9.859   5.708  0.3222  0.2375 -0.2643
 7664SOL    HW134646   0.640   9.807   5.626 -0.6670 -1.5590  0.5909
 7664SOL    HW234647   0.675   9.829   5.784 -0.9658 -0.3853  0.4942
 7665SOL     OW34648   6.957   2.382   5.818  0.2592  0.2021 -0.3232
 7665SOL    HW134649   6.945   2.286   5.843 -1.2425  0.4370 -0.0664
 7665SOL    HW234650   6.884   2.409   5.755 -0.7791  1.8108  1.5061
 7666SOL     OW34651   0.172   8.406   2.498  0.6664 -0.3315 -0.5220
 7666SOL    HW134652   0.107   8.459   2.444  1.3914  1.9534  0.7853
 7666SOL    HW234653   0.262   8.409   2.453  0.3709 -1.7244 -1.2256
 7667SOL     OW34654   2.809   7.100   8.117  0.0259 -0.9856 -0.1709
 7667SOL    HW134655   2.768   7.013   8.146  1.1979 -1.8461 -1.0110
 7667SOL    HW234656   2.901   7.107   8.156  0.1151 -0.3500 -0.5006
 7668SOL     OW34657   1.390   5.436   7.937  0.6767 -0.5621 -0.1869
 7668SOL    HW134658   1.315   5.481   7.987  0.3110 -1.3927  0.0205
 7668SOL    HW234659   1.476   5.450   7.985  0.7118  0.6349 -0.5688
 7669SOL     OW34660   2.539   1.529   4.174  0.0887  0.2135  0.1349
 7669SOL    HW134661   2.439   1.535   4.172  0.0208 -0.5074  0.8933
 7669SOL    HW234662   2.572   1.478   4.095 -0.0080  1.9446 -1.0580
 7670SOL     OW34663   9.353   9.322   0.106 -0.5224  0.1858  0.0575
 7670SOL    HW134664   9.366   9.386   0.030  0.7469 -0.3921 -0.2217
 7670SOL    HW234665   9.337   9.374   0.190 -1.4143  0.8350 -0.5013
 7671SOL     OW34666   5.505   5.761   1.557 -1.0063  0.4579 -0.2901
 7671SOL    HW134667   5.433   5.828   1.574 -1.3845  0.5960 -2.3509
 7671SOL    HW234668   5.464   5.673   1.534 -0.5101  0.2628 -0.4338
 7672SOL     OW34669   3.539   6.221   3.719 -0.0774 -0.0230  0.7973
 7672SOL    HW134670   3.599   6.291   3.680 -2.8269  0.0568 -3.5689
 7672SOL    HW234671   3.510   6.249   3.810  2.1896  2.5021  0.7942
 7673SOL     OW34672   3.408   9.835   4.987  0.2288 -0.2542 -0.1330
 7673SOL    HW134673   3.490   9.811   5.040  1.6523  1.3874 -1.4887
 7673SOL    HW234674   3.427   9.821   4.889 -1.3000 -0.3406 -0.4199
 7674SOL     OW34675   4.354   1.227   2.271  0.0237 -0.0176  0.2031
 7674SOL    HW134676   4.361   1.323   2.301 -0.6171  0.0518  0.1242
 7674SOL    HW234677   4.272   1.186   2.309  1.1703 -1.0404  1.6320
 7675SOL     OW34678   3.800   3.165   0.264 -0.3929 -0.3900  0.3748
 7675SOL    HW134679   3.798   3.243   0.326 -0.2795 -0.4313  0.4293
 7675SOL    HW234680   3.894   3.145   0.238 -0.3335 -1.1767  1.1985
 7676SOL     OW34681   7.555   2.128   2.860 -0.7102  0.1238  0.2542
 7676SOL    HW134682   7.564   2.071   2.778 -1.4359  1.1312 -0.5452
 7676SOL    HW234683   7.560   2.224   2.834 -2.7265  0.5029  1.1502
 7677SOL     OW34684   4.403   3.007   2.027 -0.0641  0.0049  0.3452
 7677SOL    HW134685   4.382   2.919   1.986 -0.0235 -0.2398  0.8462
 7677SOL    HW234686   4.502   3.021   2.028 -0.1250  0.6101 -0.8751
 7678SOL     OW34687   9.426   3.710   7.661 -0.2130 -0.0653  0.4636
 7678SOL    HW134688   9.344   3.761   7.688 -0.7703 -0.6007 -0.2086
 7678SOL    HW234689   9.499   3.774   7.641 -0.6307  0.4441  0.5514
 7679SOL     OW34690   9.974   1.292   5.986  0.6391 -0.3755 -0.4679
 7679SOL    HW134691   9.938   1.205   5.953  0.2973  0.1256 -1.4667
 7679SOL    HW234692   9.899   1.357   5.998  1.0042  0.1217 -0.8165
 7680SOL     OW34693   2.424   9.238   6.528  0.0254 -0.9053  0.1849
 7680SOL    HW134694   2.355   9.311   6.532  0.8196 -0.1795  0.9910
 7680SOL    HW234695   2.378   9.149   6.529 -0.8768 -0.4607  2.0790
 7681SOL     OW34696   6.541   0.323   5.173  0.7973  0.5518  0.4553
 7681SOL    HW134697   6.455   0.362   5.139  0.5725 -0.7232 -0.4323
 7681SOL    HW234698   6.600   0.299   5.096  1.8514  1.1680  1.0598
 7682SOL     OW34699   9.561   7.117   8.059  0.3719 -0.5846 -0.5067
 7682SOL    HW134700   9.660   7.122   8.046  0.5075 -1.0714  0.3548
 7682SOL    HW234701   9.521   7.207   8.042  1.2858  0.3345  1.9393
 7683SOL     OW34702   5.767   9.899   6.343  0.8191 -0.0687 -0.1394
 7683SOL    HW134703   5.754   9.847   6.427  0.2701  1.0179  0.4441
 7683SOL    HW234704   5.842   9.964   6.355  0.0998  0.7686 -0.1710
 7684SOL     OW34705   5.123   5.758   1.828 -0.3333 -0.0841 -0.4395
 7684SOL    HW134706   5.217   5.768   1.794 -0.1689 -0.1582 -0.0101
 7684SOL    HW234707   5.096   5.842   1.874 -0.1208 -0.4176  0.3047
 7685SOL     OW34708   6.409   7.954   5.589  0.0849 -0.5117 -0.3256
 7685SOL    HW134709   6.472   7.888   5.547  0.5738 -0.3418  0.1204
 7685SOL    HW234710   6.392   8.029   5.527  1.4634  0.1570  0.0849
 7686SOL     OW34711   8.308   0.350   7.804 -0.0321  0.1635  0.0067
 7686SOL    HW134712   8.281   0.385   7.894  1.0697  0.0982  0.3698
 7686SOL    HW234713   8.394   0.301   7.812 -0.0263 -0.0096 -1.0566
 7687SOL     OW34714   0.573   0.578   5.158  0.0153 -0.2184 -0.4647
 7687SOL    HW134715   0.519   0.643   5.106 -2.4935 -0.5800  1.5463
 7687SOL    HW234716   0.648   0.625   5.204 -0.8988  1.0160 -0.2206
 7688SOL     OW34717   2.974   4.259   5.318 -0.1096 -0.4074 -0.1443
 7688SOL    HW134718   2.913   4.183   5.297  2.2071 -2.8228  1.5688
 7688SOL    HW234719   3.062   4.245   5.272  0.4828  1.0260  0.5178
 7689SOL     OW34720   2.607   8.174   7.538  0.1802  0.3610 -0.3064
 7689SOL    HW134721   2.622   8.078   7.564 -0.5104  0.5944  1.0346
 7689SOL    HW234722   2.651   8.193   7.450  3.0819 -0.3337  0.9485
 7690SOL     OW34723   3.663   3.829   4.910  0.6244 -0.0024  0.1759
 7690SOL    HW134724   3.680   3.747   4.856 -1.6079 -0.9600  0.8856
 7690SOL    HW234725   3.617   3.897   4.853 -0.1602 -0.3543  0.3862
 7691SOL     OW34726   4.899   8.326   3.355  0.2906 -0.5876  0.4748
 7691SOL    HW134727   4.877   8.423   3.351  1.5549 -0.2497  1.4166
 7691SOL    HW234728   4.917   8.292   3.263  0.9322  0.3392  0.2535
 7692SOL     OW34729   3.089   7.094   1.835  0.3599 -0.0823  0.1355
 7692SOL    HW134730   3.140   7.120   1.753  1.4936  0.7063  1.0669
 7692SOL    HW234731   3.011   7.037   1.809  1.3035 -0.7172 -1.3919
 7693SOL     OW34732   4.411   1.394   2.856  0.0631 -0.2949  0.1545
 7693SOL    HW134733   4.465   1.451   2.795 -0.3586 -0.6529 -0.5627
 7693SOL    HW234734   4.315   1.423   2.854 -0.2810 -1.4667 -0.7558
 7694SOL     OW34735   1.599   5.177   5.441  0.6520 -0.1028  0.0421
 7694SOL    HW134736   1.546   5.227   5.509  0.6810  0.8515 -0.6227
 7694SOL    HW234737   1.677   5.133   5.485  0.4185  0.1362  0.7000
 7695SOL     OW34738   1.959   8.702   4.565 -0.1007 -0.2538 -0.1785
 7695SOL    HW134739   1.965   8.607   4.596  0.7730 -0.1021  0.1478
 7695SOL    HW234740   1.898   8.708   4.486 -1.4913 -0.8097  0.8340
 7696SOL     OW34741   1.286   0.588   0.995  0.1194  0.2360  0.0112
 7696SOL    HW134742   1.315   0.683   1.008 -0.4988  0.7540 -2.2152
 7696SOL    HW234743   1.202   0.571   1.046  2.6662 -0.4833  4.2229
 7697SOL     OW34744   0.033   7.072   1.692  0.0808 -0.6068  0.0297
 7697SOL    HW134745   0.133   7.068   1.686  0.1292  0.4559  0.0142
 7697SOL    HW234746  -0.003   7.118   1.611 -0.4169 -0.9949  0.0350
 7698SOL     OW34747   1.938   7.228   6.646 -0.1881  0.0623 -0.0179
 7698SOL    HW134748   1.945   7.220   6.745  2.8106  0.1680 -0.1651
 7698SOL    HW234749   1.845   7.205   6.616 -0.4401 -2.3993  2.5423
 7699SOL     OW34750   4.616   1.325   8.033  0.1239 -0.4555  0.2118
 7699SOL    HW134751   4.701   1.281   8.003  0.0498 -0.1781 -0.3997
 7699SOL    HW234752   4.547   1.314   7.962 -0.7668 -1.8712  1.2764
 7700SOL     OW34753   1.273   6.391   3.958  0.0156 -0.2928  0.1441
 7700SOL    HW134754   1.337   6.438   4.019  0.9333 -0.2836 -0.8086
 7700SOL    HW234755   1.312   6.303   3.930 -0.6954 -0.5962  0.1130
 7701SOL     OW34756   2.792   9.591   4.762  0.2194 -0.4611 -0.0903
 7701SOL    HW134757   2.878   9.624   4.802 -0.3767  1.3411 -0.2547
 7701SOL    HW234758   2.811   9.551   4.672  0.8569  0.0893 -0.2041
 7702SOL     OW34759   1.595   8.013   4.548  0.2516  0.0234  0.3324
 7702SOL    HW134760   1.529   7.938   4.548  1.2179 -0.8765  3.0254
 7702SOL    HW234761   1.659   8.001   4.472 -0.2599 -1.2820  0.0987
 7703SOL     OW34762   3.890   4.683   6.592  0.4269 -0.1933  0.4539
 7703SOL    HW134763   3.955   4.670   6.666 -0.6839 -2.1007  1.1182
 7703SOL    HW234764   3.938   4.678   6.504  1.4221  0.1354  0.9689
 7704SOL     OW34765   2.476   0.250   7.686  0.2722 -0.6717 -0.6618
 7704SOL    HW134766   2.569   0.284   7.668  0.1936 -0.5850 -0.9025
 7704SOL    HW234767   2.411   0.302   7.631  0.0456 -0.5041 -0.2322
 7705SOL     OW34768   3.819   9.332   0.240 -0.7100 -0.3362  0.0394
 7705SOL    HW134769   3.882   9.264   0.203  0.1953  0.1806  0.6300
 7705SOL    HW234770   3.798   9.310   0.336  1.3070  1.4190  0.9172
 7706SOL     OW34771   2.405   7.232   0.235  0.3080  0.4740  0.1220
 7706SOL    HW134772   2.368   7.268   0.320 -0.0719 -0.6291  0.4434
 7706SOL    HW234773   2.463   7.301   0.190 -1.9173  2.1303 -0.2631
 7707SOL     OW34774   1.746   2.271   7.111  0.3510 -0.3695 -0.0915
 7707SOL    HW134775   1.727   2.367   7.091 -0.2794 -0.8204 -1.7413
 7707SOL    HW234776   1.844   2.253   7.102  0.2806 -0.2016 -1.2577
 7708SOL     OW34777   1.073   3.082   4.133 -0.6949  0.3135 -0.1266
 7708SOL    HW134778   0.989   3.124   4.166 -0.6047  0.0909  0.3944
 7708SOL    HW234779   1.120   3.036   4.209  1.1596  2.5501  0.1295
 7709SOL     OW34780   3.024   1.186   0.582  0.3415 -0.0563  0.4632
 7709SOL    HW134781   2.929   1.217   0.592  1.1351  2.8725 -0.7707
 7709SOL    HW234782   3.072   1.199   0.669 -0.4150 -1.8171  1.1796
 7710SOL     OW34783   7.986   5.130   6.265 -0.8127  0.6688  0.0015
 7710SOL    HW134784   7.967   5.036   6.238 -0.6455  0.8794 -0.8641
 7710SOL    HW234785   8.034   5.177   6.191 -1.4969  1.6317  0.1586
 7711SOL     OW34786   2.154   9.747   0.554  0.1416 -0.0848 -0.3731
 7711SOL    HW134787   2.096   9.703   0.623 -0.7660  0.8010 -0.5572
 7711SOL    HW234788   2.116   9.730   0.463  1.0975 -0.8838 -0.6459
 7712SOL     OW34789   8.487   3.739   1.289 -0.1432  0.1865 -0.3490
 7712SOL    HW134790   8.417   3.768   1.224 -0.1848 -1.7579 -1.2137
 7712SOL    HW234791   8.575   3.728   1.241  0.5689  1.8301  0.5664
 7713SOL     OW34792   8.747   8.263   6.727 -0.2945  0.5149  0.2644
 7713SOL    HW134793   8.701   8.250   6.815  0.4974  0.5642  0.6882
 7713SOL    HW234794   8.846   8.260   6.740 -0.1006 -3.6131 -1.1948
 7714SOL     OW34795   9.640   2.426   2.155 -0.3622 -0.0093  0.3727
 7714SOL    HW134796   9.557   2.379   2.125 -1.2022  1.3444  0.5815
 7714SOL    HW234797   9.716   2.360   2.158 -1.3619 -1.1923 -0.0446
 7715SOL     OW34798   1.388   3.745   0.090  0.1317 -0.0791 -0.1329
 7715SOL    HW134799   1.347   3.716   0.004  2.7785  0.2368 -1.5675
 7715SOL    HW234800   1.408   3.664   0.146  0.0546 -0.4280 -0.6044
 7716SOL     OW34801   9.741   8.558   2.057  0.3321  0.0304 -0.1541
 7716SOL    HW134802   9.740   8.544   2.157  0.3335  2.5433  0.2269
 7716SOL    HW234803   9.662   8.512   2.016  0.0099 -0.5334  1.0736
 7717SOL     OW34804   0.333   0.774   1.761 -0.1422  0.1221 -0.5983
 7717SOL    HW134805   0.367   0.850   1.704 -0.1284  0.7796  0.2831
 7717SOL    HW234806   0.380   0.775   1.849 -0.3028 -0.7841 -0.5006
 7718SOL     OW34807   2.410   0.111   5.681  0.3742  0.2879  0.4435
 7718SOL    HW134808   2.326   0.084   5.729 -0.5271  0.2832 -1.0870
 7718SOL    HW234809   2.464   0.171   5.739 -0.3088 -0.3592  1.7595
 7719SOL     OW34810   9.460   8.323   3.031  0.2071  0.6790  0.1815
 7719SOL    HW134811   9.431   8.360   2.943 -1.0795  1.7268  1.0222
 7719SOL    HW234812   9.409   8.239   3.051 -0.5964  1.2613  0.6029
 7720SOL     OW34813   7.678   7.026   7.403 -0.0273  0.0182  0.1770
 7720SOL    HW134814   7.723   7.012   7.491 -2.4730 -0.1409  1.4623
 7720SOL    HW234815   7.606   7.095   7.413 -0.4358 -0.1083 -1.6579
 7721SOL     OW34816   0.018   4.666   1.244 -0.7756 -0.6121  0.0412
 7721SOL    HW134817   0.012   4.749   1.299  1.7265 -1.8076  2.1807
 7721SOL    HW234818  -0.074   4.641   1.212 -2.2196  0.4844  3.1275
 7722SOL     OW34819   8.212   3.072   0.668  0.0872 -0.4591 -0.5677
 7722SOL    HW134820   8.262   3.060   0.583  1.7422  0.6206  0.2202
 7722SOL    HW234821   8.271   3.048   0.745 -0.8900  0.0271  0.3535
 7723SOL     OW34822   7.700   7.507   5.191  0.0375 -0.1674 -0.6066
 7723SOL    HW134823   7.616   7.458   5.168 -0.2411 -0.1706  0.3935
 7723SOL    HW234824   7.683   7.565   5.271 -0.2206  3.0677 -2.8815
 7724SOL     OW34825   9.767   2.062   0.057 -0.0206 -0.1707 -0.0110
 7724SOL    HW134826   9.805   1.973   0.082  0.4353 -0.0148 -0.1601
 7724SOL    HW234827   9.671   2.051   0.031 -0.4283 -0.3899  1.5264
 7725SOL     OW34828   3.172   8.803   0.812 -0.2206  0.1661  0.0529
 7725SOL    HW134829   3.254   8.781   0.864  0.1792 -0.5802 -0.8551
 7725SOL    HW234830   3.193   8.800   0.714 -1.6923 -1.6576 -0.2462
 7726SOL     OW34831   6.808   8.419   3.651  0.2316 -0.1514 -0.2723
 7726SOL    HW134832   6.863   8.383   3.575 -0.6819  0.2596 -1.1418
 7726SOL    HW234833   6.869   8.456   3.721  1.0799 -0.2219 -0.9632
 7727SOL     OW34834   6.742   0.183   3.843 -0.1894  0.3084 -0.7638
 7727SOL    HW134835   6.643   0.174   3.856 -0.0094 -0.1075  0.3672
 7727SOL    HW234836   6.766   0.279   3.833 -0.6167  0.4730 -0.2361
 7728SOL     OW34837   3.167   0.604   1.343 -0.1523 -0.6673 -0.0595
 7728SOL    HW134838   3.138   0.602   1.247  0.3028 -0.7124 -0.1979
 7728SOL    HW234839   3.157   0.513   1.383  3.2621 -1.6228 -1.1605
 7729SOL     OW34840   2.842   1.545   4.490 -0.2026  0.4984 -0.3477
 7729SOL    HW134841   2.763   1.496   4.453  0.4028  0.0643 -1.0744
 7729SOL    HW234842   2.828   1.644   4.480  0.1722  0.3896 -2.2298
 7730SOL     OW34843   9.838   4.646   5.163  0.7382 -0.0197  0.3773
 7730SOL    HW134844   9.883   4.558   5.183  1.1015  0.1271  0.2139
 7730SOL    HW234845   9.908   4.717   5.152  0.4256  0.3935  0.9972
 7731SOL     OW34846   3.470   7.766   1.528 -0.3150 -0.1788  0.3000
 7731SOL    HW134847   3.451   7.764   1.627  0.1939  0.0510  0.4047
 7731SOL    HW234848   3.441   7.680   1.487  1.2911 -1.0666  0.9816
 7732SOL     OW34849   9.781   3.857   3.352  0.5401  0.2657 -0.1078
 7732SOL    HW134850   9.703   3.881   3.409  1.1122 -0.0369  0.8147
 7732SOL    HW234851   9.814   3.766   3.377  0.6967  0.0563 -1.0353
 7733SOL     OW34852   4.059   5.594   1.445  0.2463  0.6239 -0.6187
 7733SOL    HW134853   4.056   5.623   1.349 -0.9233 -0.3473 -0.8853
 7733SOL    HW234854   4.126   5.521   1.455 -1.7344 -1.3528 -1.3044
 7734SOL     OW34855   9.721   4.898   6.866  0.2274  0.7905  0.0692
 7734SOL    HW134856   9.790   4.889   6.938  1.0837 -0.2629 -0.8736
 7734SOL    HW234857   9.708   4.810   6.821 -2.5634  0.7065  0.9557
 7735SOL     OW34858   5.571   5.725   2.241 -0.2631  0.0711  0.9337
 7735SOL    HW134859   5.584   5.761   2.149 -1.6874  1.6068  1.3086
 7735SOL    HW234860   5.596   5.629   2.243  0.4901  0.2101 -0.8789
 7736SOL     OW34861   3.882   5.243   3.254 -0.2345 -0.0505 -0.0602
 7736SOL    HW134862   3.848   5.226   3.162  0.4310 -0.8381 -0.1616
 7736SOL    HW234863   3.815   5.299   3.304 -1.0193 -0.3939 -0.7117
 7737SOL     OW34864   0.896   4.892   5.801 -0.5699  0.7879  0.0091
 7737SOL    HW134865   0.923   4.981   5.837 -0.4609  0.3046  1.1604
 7737SOL    HW234866   0.872   4.832   5.878 -0.5603 -0.1918 -0.7533
 7738SOL     OW34867   9.370   3.068   7.801  0.5436 -0.0774 -0.3268
 7738SOL    HW134868   9.342   3.099   7.711 -1.2788 -0.7124  0.0032
 7738SOL    HW234869   9.463   3.099   7.820  1.7133 -1.6136 -3.2349
 7739SOL     OW34870   7.875   5.485   7.326  0.2940  0.3479 -0.0401
 7739SOL    HW134871   7.806   5.533   7.381 -1.4707  1.0018 -2.7359
 7739SOL    HW234872   7.896   5.397   7.368 -1.2874  0.6592  1.4633
 7740SOL     OW34873   8.568   1.222   2.026 -0.3360 -0.6635 -0.2310
 7740SOL    HW134874   8.570   1.322   2.037  0.8537 -0.3939 -2.5310
 7740SOL    HW234875   8.610   1.179   2.106 -1.5586  0.6292  1.1326
 7741SOL     OW34876   1.175   9.966   0.437  0.0253  0.0789 -0.2433
 7741SOL    HW134877   1.181   9.908   0.356 -0.7532 -0.9142  0.3982
 7741SOL    HW234878   1.084  10.008   0.441 -0.0514 -0.1331  0.2866
 7742SOL     OW34879   4.642   1.339   7.114 -0.4499 -0.0077  0.1092
 7742SOL    HW134880   4.565   1.397   7.142  0.0332  0.3129  0.7547
 7742SOL    HW234881   4.706   1.392   7.059  0.0408  0.0931  0.7793
 7743SOL     OW34882   8.301   7.375   1.903  0.2221 -0.0490 -0.7247
 7743SOL    HW134883   8.371   7.370   1.974  0.5104  0.8405 -0.9425
 7743SOL    HW234884   8.213   7.398   1.944 -0.2481 -2.4966 -0.2681
 7744SOL     OW34885   2.616   3.957   2.876  0.2356  0.3363 -0.1105
 7744SOL    HW134886   2.670   3.873   2.871  1.5982  1.1674  0.2875
 7744SOL    HW234887   2.597   3.978   2.972 -3.7362 -1.7532 -0.3226
 7745SOL     OW34888   8.246   2.282   6.988  0.4898  0.1328  0.1895
 7745SOL    HW134889   8.179   2.356   6.994 -0.4014 -0.6712  0.2365
 7745SOL    HW234890   8.225   2.225   6.909  2.0000  0.7221 -0.6616
 7746SOL     OW34891   4.203   9.912   0.317  0.2437 -0.0506 -0.0323
 7746SOL    HW134892   4.180   9.825   0.273 -0.8777  0.2780 -0.1064
 7746SOL    HW234893   4.138   9.982   0.289  0.0449  0.3694  1.4469
 7747SOL     OW34894   6.373   4.913   0.235 -0.1785  0.0279  0.0765
 7747SOL    HW134895   6.294   4.884   0.288  0.0730 -0.3086  0.2685
 7747SOL    HW234896   6.343   4.942   0.144 -0.4614 -0.5825 -0.0263
 7748SOL     OW34897   3.774   6.011   0.250  0.1322  0.6313 -0.4220
 7748SOL    HW134898   3.690   5.960   0.229  0.4287  0.8213 -2.2099
 7748SOL    HW234899   3.805   5.989   0.342 -1.6345  0.2149  0.0907
 7749SOL     OW34900   2.015   1.887   1.928  0.3141 -0.4915  0.1489
 7749SOL    HW134901   2.098   1.920   1.971 -0.0252  0.5639  0.0003
 7749SOL    HW234902   1.950   1.857   1.998 -0.4044  1.6099  0.4189
 7750SOL     OW34903   1.853   6.838   3.925 -0.0314 -0.5483 -0.0309
 7750SOL    HW134904   1.797   6.855   3.843 -0.2701 -0.2659  0.1912
 7750SOL    HW234905   1.926   6.906   3.929 -0.1880 -0.3897  0.1409
 7751SOL     OW34906   2.156   4.233   1.622 -0.2311 -0.1851 -0.0172
 7751SOL    HW134907   2.069   4.280   1.638 -0.2056  0.0044 -0.4243
 7751SOL    HW234908   2.139   4.139   1.592 -0.2793 -0.5102  1.0101
 7752SOL     OW34909   6.884   7.690   4.029 -0.0885  0.2924  0.4129
 7752SOL    HW134910   6.836   7.775   4.009 -0.0469  1.1196  3.6352
 7752SOL    HW234911   6.837   7.614   3.984 -0.4979  1.8842 -1.9629
 7753SOL     OW34912   1.769   2.084   0.166 -0.1529 -0.1288 -0.4488
 7753SOL    HW134913   1.689   2.028   0.143 -0.4687 -0.5849  1.6534
 7753SOL    HW234914   1.738   2.168   0.211  0.4773  0.4339 -1.0656
 7754SOL     OW34915   6.161   2.000   5.511 -0.6470 -0.2344 -0.2958
 7754SOL    HW134916   6.105   1.929   5.469 -1.1153 -0.7625  1.1732
 7754SOL    HW234917   6.109   2.045   5.583  0.3472  0.2179  0.1517
 7755SOL     OW34918   2.919   9.722   7.855  0.2057 -0.0777 -0.1585
 7755SOL    HW134919   2.893   9.681   7.768 -1.9821  0.7448  0.0717
 7755SOL    HW234920   3.010   9.763   7.847 -0.4991  1.1261 -2.4520
 7756SOL     OW34921   8.123   4.583   2.955  0.5293  0.1777 -0.3609
 7756SOL    HW134922   8.214   4.542   2.953 -0.2408 -1.7546  1.7283
 7756SOL    HW234923   8.058   4.520   2.913 -0.5890 -0.5810  2.3899
 7757SOL     OW34924   6.493   9.361   3.397  0.2311  0.0369  0.1792
 7757SOL    HW134925   6.412   9.420   3.406  0.5216  0.6549 -1.1074
 7757SOL    HW234926   6.570   9.416   3.366  0.5869 -0.9652 -0.7056
 7758SOL     OW34927   8.325   5.616   0.056 -0.2589 -0.0609  0.7431
 7758SOL    HW134928   8.372   5.653   0.137  0.8095 -0.8981  0.5139
 7758SOL    HW234929   8.356   5.665  -0.025  0.2082 -0.6049  0.5930
 7759SOL     OW34930   2.636   3.430   6.310 -0.2849  0.2277 -0.2599
 7759SOL    HW134931   2.695   3.418   6.229 -0.9626  1.4295 -0.9350
 7759SOL    HW234932   2.687   3.478   6.381 -0.7679  2.2604 -1.2488
 7760SOL     OW34933   1.081   5.812   6.039 -0.4334 -0.0531 -0.2226
 7760SOL    HW134934   1.166   5.851   6.073 -0.5325 -0.2306  0.2358
 7760SOL    HW234935   1.098   5.762   5.954 -0.1880  0.4187 -0.4490
 7761SOL     OW34936   7.592   7.396   2.879  0.4446 -0.4598 -0.1980
 7761SOL    HW134937   7.511   7.402   2.936  0.2758  0.7496 -0.5352
 7761SOL    HW234938   7.659   7.464   2.910  0.5895 -0.2051 -1.0589
 7762SOL     OW34939   2.094   6.952   7.234  0.1899  0.4743 -0.4033
 7762SOL    HW134940   2.086   6.928   7.330  0.8024  0.6230 -0.3156
 7762SOL    HW234941   2.066   6.874   7.178  2.4286 -0.5872 -0.1136
 7763SOL     OW34942   1.659   7.218   6.817 -0.3725 -0.0987  0.1111
 7763SOL    HW134943   1.656   7.303   6.871 -0.5914  0.5095 -0.8500
 7763SOL    HW234944   1.591   7.154   6.854  0.0189  0.0151  1.0448
 7764SOL     OW34945   1.722   6.722   4.133  0.0617 -0.4463 -0.6579
 7764SOL    HW134946   1.751   6.776   4.212 -2.7910  1.0090 -0.5552
 7764SOL    HW234947   1.751   6.769   4.049  1.1993 -0.8938 -0.5275
 7765SOL     OW34948   0.920   9.958   5.708  0.4294 -0.3548  0.2761
 7765SOL    HW134949   0.850   9.908   5.759  0.5319 -1.8103 -0.9711
 7765SOL    HW234950   0.883  10.045   5.677  0.0044  0.0356  1.8258
 7766SOL     OW34951   8.024   7.281   6.184 -0.6215  0.3100 -0.4816
 7766SOL    HW134952   8.089   7.350   6.154 -0.7827  1.0828  0.9085
 7766SOL    HW234953   8.071   7.192   6.192 -0.3535  0.3142 -1.9888
 7767SOL     OW34954   4.852   2.098   3.659  0.0037  0.0279  0.1538
 7767SOL    HW134955   4.911   2.019   3.675 -0.3098 -0.1309  0.5339
 7767SOL    HW234956   4.880   2.144   3.575  0.9813  0.2418  0.5914
 7768SOL     OW34957   3.154   3.675   4.267 -0.6708  0.0472 -0.2205
 7768SOL    HW134958   3.075   3.737   4.266 -0.0770  0.7979 -1.6133
 7768SOL    HW234959   3.213   3.694   4.189  1.4609  0.1962  1.3880
 7769SOL     OW34960   8.110   4.217   7.269  0.3445  0.0417  0.2160
 7769SOL    HW134961   8.167   4.209   7.187 -1.5078  0.8386 -1.2085
 7769SOL    HW234962   8.039   4.146   7.267  2.0876 -1.8575  2.6903
 7770SOL     OW34963   7.629   6.714   4.670 -0.1490 -0.0802  0.1747
 7770SOL    HW134964   7.666   6.625   4.646 -2.0801 -0.7447 -0.4413
 7770SOL    HW234965   7.691   6.786   4.638  1.6427 -1.1917  1.0935
 7771SOL     OW34966   2.804   9.770   3.213  0.0771 -0.7193  0.0304
 7771SOL    HW134967   2.794   9.862   3.176  1.0967 -1.4010 -2.0400
 7771SOL    HW234968   2.716   9.724   3.214  0.1173 -0.9188 -2.2769
 7772SOL     OW34969   4.225   6.915   1.432 -0.2323 -0.0425  0.2946
 7772SOL    HW134970   4.244   6.991   1.370  0.2827  0.6002  1.2248
 7772SOL    HW234971   4.302   6.903   1.495  0.0793 -1.9187 -0.4140
 7773SOL     OW34972   6.655   1.963   5.424 -0.4987 -0.3861 -0.0327
 7773SOL    HW134973   6.649   2.053   5.381 -0.4921 -1.1144 -1.5830
 7773SOL    HW234974   6.566   1.939   5.463  0.5563  2.1177  4.2203
 7774SOL     OW34975   6.982   1.161   0.584  0.4984  0.2111  0.1328
 7774SOL    HW134976   6.934   1.085   0.627  0.3907 -0.1690 -0.6518
 7774SOL    HW234977   6.916   1.231   0.556  0.2305 -1.0051 -2.3381
 7775SOL     OW34978   8.312   1.507   8.186 -0.2041 -0.7159 -0.4084
 7775SOL    HW134979   8.257   1.504   8.269 -0.1193  0.6329 -0.2938
 7775SOL    HW234980   8.402   1.466   8.203 -0.2079 -0.4858  0.1554
 7776SOL     OW34981   0.934   9.959   4.210 -0.2353 -0.6281 -0.5648
 7776SOL    HW134982   0.966  10.004   4.293  0.7855 -1.4976 -0.4761
 7776SOL    HW234983   0.834   9.953   4.211 -0.2320 -0.4764  0.5028
 7777SOL     OW34984   6.915   8.972   1.602  0.2538  0.4971  0.2051
 7777SOL    HW134985   6.985   8.988   1.672 -1.7112  3.1108  1.6522
 7777SOL    HW234986   6.947   9.008   1.514  1.4506  0.0265  0.4354
 7778SOL     OW34987   9.599   7.024   5.161 -0.1628  0.5436  0.2935
 7778SOL    HW134988   9.685   6.972   5.160  0.4600  1.5470  1.1634
 7778SOL    HW234989   9.614   7.114   5.121 -0.8892  0.6103  0.1656
 7779SOL     OW34990   2.963   7.444   2.185 -0.0307 -0.7285 -0.4528
 7779SOL    HW134991   3.030   7.418   2.116  1.8571  0.7122  0.7902
 7779SOL    HW234992   2.996   7.415   2.275 -1.1943 -0.2297  0.1397
 7780SOL     OW34993   1.474   9.714   3.494  0.2612 -0.2998 -0.2755
 7780SOL    HW134994   1.437   9.622   3.480  0.7653 -0.7457  1.1661
 7780SOL    HW234995   1.459   9.742   3.589  1.8718  0.2951 -0.1649
 7781SOL     OW34996   6.999   9.348   3.866 -0.1977 -0.1619  0.4030
 7781SOL    HW134997   6.951   9.309   3.788 -1.5581  0.3101  0.9789
 7781SOL    HW234998   6.988   9.288   3.946 -1.0596  0.6599  0.9118
 7782SOL     OW34999   1.396   1.174   7.748 -0.1647  0.6851  0.1132
 7782SOL    HW135000   1.465   1.174   7.676 -1.9766 -1.3261 -1.6781
 7782SOL    HW235001   1.354   1.084   7.755 -1.1098  1.2639  2.6777
 7783SOL     OW35002   2.544   0.389   6.151  0.1723  0.1958 -0.0750
 7783SOL    HW135003   2.644   0.382   6.161 -0.0963 -0.8327  2.1731
 7783SOL    HW235004   2.507   0.301   6.122 -0.3292 -0.1196  1.4892
 7784SOL     OW35005   6.243   9.132   6.151  1.0720  0.2649  0.0525
 7784SOL    HW135006   6.268   9.093   6.062  1.3774  1.1651 -0.2621
 7784SOL    HW235007   6.303   9.210   6.171  0.0964  0.9359  0.4007
 7785SOL     OW35008   0.093   7.533   0.692 -0.0706 -0.1937  0.3470
 7785SOL    HW135009   0.107   7.565   0.599  2.8734 -2.0896  0.0702
 7785SOL    HW235010   0.106   7.608   0.757  1.9055  0.2800 -0.5636
 7786SOL     OW35011   2.175   6.586   6.877  0.5188  0.2654  0.4938
 7786SOL    HW135012   2.264   6.631   6.870  0.6296 -0.0335 -0.0294
 7786SOL    HW235013   2.178   6.518   6.950  1.1492 -0.7136 -0.4265
 7787SOL     OW35014   4.555   6.875   1.176 -0.1521 -0.3154 -0.4288
 7787SOL    HW135015   4.633   6.858   1.115  0.2880  0.7475 -0.1647
 7787SOL    HW235016   4.479   6.913   1.123  0.0132  0.0176 -0.4278
 7788SOL     OW35017   1.926   6.384   7.867  0.1821  0.1228 -0.5351
 7788SOL    HW135018   2.004   6.335   7.829  0.7446  1.5057 -1.1959
 7788SOL    HW235019   1.956   6.472   7.904 -1.0135  0.5614 -0.5605
 7789SOL     OW35020   0.222   2.615   4.195 -0.1803  0.0046 -0.0175
 7789SOL    HW135021   0.143   2.567   4.235 -0.7064 -2.1525 -3.4455
 7789SOL    HW235022   0.200   2.712   4.187 -1.2167 -0.0122  2.0093
 7790SOL     OW35023   0.580   0.916   7.202  0.0788  0.1990  0.1930
 7790SOL    HW135024   0.508   0.873   7.258 -0.0380  1.4250  1.0016
 7790SOL    HW235025   0.630   0.845   7.153 -0.9838 -0.7605  0.4678
 7791SOL     OW35026   2.414   5.667   4.759 -0.6689  0.4392 -0.3279
 7791SOL    HW135027   2.452   5.749   4.715 -0.8946  1.6313  1.6053
 7791SOL    HW235028   2.485   5.596   4.764 -0.8920 -0.0341 -3.3058
 7792SOL     OW35029   2.391   9.651   6.371  0.9276  0.5765  0.5230
 7792SOL    HW135030   2.298   9.613   6.376  1.4519 -0.6578  1.3456
 7792SOL    HW235031   2.409   9.704   6.454  1.2183  0.1905  0.7063
 7793SOL     OW35032   4.430   6.131   0.864 -0.3915 -0.4089  0.5211
 7793SOL    HW135033   4.332   6.120   0.884 -0.6290 -0.5652 -0.6694
 7793SOL    HW235034   4.447   6.104   0.769  0.4965  1.3858  0.1563
 7794SOL     OW35035   4.810   2.066   6.612  0.2254  0.0842 -0.5332
 7794SOL    HW135036   4.870   2.084   6.534  1.5550  0.9872  0.6914
 7794SOL    HW235037   4.857   2.087   6.697 -1.8476  0.8992  0.4687
 7795SOL     OW35038   7.938   8.147   6.092  0.0721 -0.0536 -0.1944
 7795SOL    HW135039   7.870   8.079   6.067 -0.9412  0.5916  0.7604
 7795SOL    HW235040   7.935   8.162   6.191  0.9304  0.6891 -0.2736
 7796SOL     OW35041   9.623   8.702   6.448  0.0209 -0.1088  0.0478
 7796SOL    HW135042   9.721   8.696   6.433  0.0380  0.5289 -0.1029
 7796SOL    HW235043   9.577   8.730   6.364 -0.3075 -0.5459  0.0771
 7797SOL     OW35044   9.684   1.703   2.391 -0.1226  0.5019  0.1208
 7797SOL    HW135045   9.614   1.759   2.347 -2.5478 -1.0493  1.8195
 7797SOL    HW235046   9.661   1.693   2.488  2.6883  0.2401  0.7964
 7798SOL     OW35047   1.498   8.958   1.643 -0.7059 -0.1012 -0.8402
 7798SOL    HW135048   1.584   8.923   1.680 -0.8521  2.1891  1.8054
 7798SOL    HW235049   1.516   9.019   1.566 -0.0245 -0.2400 -0.7886
 7799SOL     OW35050   9.785   6.376   6.408  0.2737 -0.7857 -0.0278
 7799SOL    HW135051   9.830   6.392   6.320  0.9277 -1.9429  0.0848
 7799SOL    HW235052   9.698   6.330   6.393  0.8012 -1.7976 -0.0205
 7800SOL     OW35053   9.123   2.137   4.008  0.2283  0.2126 -1.0155
 7800SOL    HW135054   9.069   2.221   4.016 -0.5313 -0.1617 -2.0647
 7800SOL    HW235055   9.074   2.072   3.950  0.4539 -1.2528  0.4213
 7801SOL     OW35056   1.742   4.115   6.877 -0.3153  0.3269  0.3524
 7801SOL    HW135057   1.810   4.085   6.944 -1.4946 -0.8167  1.0695
 7801SOL    HW235058   1.753   4.063   6.792 -1.0616 -0.7424  0.8944
 7802SOL     OW35059   5.339   3.841   1.256  0.2756 -0.0527 -0.1823
 7802SOL    HW135060   5.432   3.878   1.258 -0.3507  1.5711 -0.1963
 7802SOL    HW235061   5.305   3.840   1.162  0.6602 -1.6719 -0.3217
 7803SOL     OW35062   3.080   6.491   2.620 -0.5161 -0.4046 -0.0573
 7803SOL    HW135063   3.124   6.421   2.676 -1.3223 -0.9621 -0.1208
 7803SOL    HW235064   2.983   6.495   2.642 -0.5006  0.6173 -0.1374
 7804SOL     OW35065   0.868   4.630   1.941  0.3648 -0.0841 -0.0644
 7804SOL    HW135066   0.967   4.616   1.944  0.3741 -0.3379 -1.2854
 7804SOL    HW235067   0.830   4.585   1.859 -0.7678 -0.0586  0.4338
 7805SOL     OW35068   3.949   4.271   5.347  0.0378  0.7221  0.6764
 7805SOL    HW135069   3.999   4.330   5.410  1.3923  0.3655 -0.0326
 7805SOL    HW235070   3.852   4.292   5.351  0.3010  1.7855  1.7169
 7806SOL     OW35071   6.361   9.625   2.647 -0.1460 -0.4675 -0.0342
 7806SOL    HW135072   6.277   9.661   2.606 -1.3493 -0.0068  2.7119
 7806SOL    HW235073   6.417   9.582   2.576 -2.7732 -0.9380 -1.9041
 7807SOL     OW35074   1.154   6.519   6.961 -0.4376  0.1476  0.0454
 7807SOL    HW135075   1.099   6.596   6.993 -0.7487  0.5530 -1.4265
 7807SOL    HW235076   1.251   6.543   6.968 -0.4355 -0.5066  2.4830
 7808SOL     OW35077   6.787   2.344   5.321 -0.3479 -0.0970  0.7005
 7808SOL    HW135078   6.827   2.375   5.235 -0.5421  0.1068  0.6810
 7808SOL    HW235079   6.827   2.257   5.348 -0.9123 -0.5950 -0.0431
 7809SOL     OW35080   0.041   8.975   3.061 -0.1778 -0.0685 -0.7508
 7809SOL    HW135081   0.103   8.921   3.005  0.1944 -1.1141  0.6297
 7809SOL    HW235082   0.091   9.010   3.141 -1.4376 -1.3555  0.6527
 7810SOL     OW35083   1.297   2.782   1.876 -0.2095 -0.3907 -0.0849
 7810SOL    HW135084   1.326   2.698   1.830  0.9043 -0.5248  0.8348
 7810SOL    HW235085   1.326   2.861   1.822  2.2783 -0.5093  1.0048
 7811SOL     OW35086   3.039   1.228   7.515 -0.2436  0.1982 -0.1116
 7811SOL    HW135087   3.052   1.287   7.595  1.5078 -0.9388  0.4675
 7811SOL    HW235088   2.942   1.205   7.506 -0.5846  1.0798  1.1542
 7812SOL     OW35089   5.339   1.741   5.607 -0.0204 -0.5346  0.5478
 7812SOL    HW135090   5.276   1.806   5.650 -0.6965 -0.2047 -0.9073
 7812SOL    HW235091   5.289   1.657   5.584 -0.5698  0.6183 -2.7756
 7813SOL     OW35092   3.322   9.599   7.084 -0.2456 -0.0086  0.3881
 7813SOL    HW135093   3.309   9.684   7.135 -0.6083 -0.5084  1.1445
 7813SOL    HW235094   3.419   9.586   7.064 -0.5610  2.5756 -3.2654
 7814SOL     OW35095   1.750   9.373   7.592  0.1645  0.5493 -0.1624
 7814SOL    HW135096   1.714   9.447   7.649 -0.4793  0.8891 -1.0020
 7814SOL    HW235097   1.799   9.411   7.514  0.3848  0.0892 -0.2518
 7815SOL     OW35098   9.298   9.347   4.462 -0.1516  0.4873  0.4533
 7815SOL    HW135099   9.214   9.322   4.415  0.2236  1.0701 -0.5395
 7815SOL    HW235100   9.344   9.264   4.494  0.0504  0.0150 -1.0283
 7816SOL     OW35101   5.063   7.051   5.471  0.2475  0.5055 -0.2291
 7816SOL    HW135102   5.003   7.105   5.530 -1.6112 -2.9263  1.1271
 7816SOL    HW235103   5.112   6.984   5.526  0.7128 -0.8001 -2.2010
 7817SOL     OW35104   0.699   8.379   0.374  0.1459  0.3820  0.2544
 7817SOL    HW135105   0.732   8.363   0.467 -1.1536  5.0834  1.6872
 7817SOL    HW235106   0.766   8.433   0.324 -0.8059  1.1472 -0.2210
 7818SOL     OW35107   9.609   9.284   1.072  0.1626  0.2711  0.2354
 7818SOL    HW135108   9.702   9.251   1.084  0.3087  0.5981 -0.0008
 7818SOL    HW235109   9.557   9.269   1.156  0.3335 -0.2165  0.2543
 7819SOL     OW35110   0.232   9.870   2.130 -0.6259  0.4446 -1.0699
 7819SOL    HW135111   0.180   9.955   2.115 -0.4263  0.3835 -2.1325
 7819SOL    HW235112   0.292   9.853   2.052 -0.2810 -0.4090 -0.6278
 7820SOL     OW35113   9.217   2.648   2.147  0.2271  0.3215  0.0638
 7820SOL    HW135114   9.282   2.712   2.106 -1.2961  1.8265 -0.0794
 7820SOL    HW235115   9.176   2.593   2.075 -0.5845  1.2124 -0.1715
 7821SOL     OW35116   3.564   9.275   1.333 -0.1641 -0.2935 -0.3979
 7821SOL    HW135117   3.592   9.223   1.252  1.0509  0.6796 -0.6247
 7821SOL    HW235118   3.567   9.373   1.312 -0.5396 -0.0586  0.6074
 7822SOL     OW35119   8.198   4.716   7.163  0.0457  0.8161 -0.0375
 7822SOL    HW135120   8.218   4.708   7.066  1.3308 -0.4917  0.3182
 7822SOL    HW235121   8.157   4.631   7.196 -2.0883  1.8911  0.1956
 7823SOL     OW35122   7.549   9.995   3.998  0.1018  0.0302  0.6408
 7823SOL    HW135123   7.496   9.945   4.066  0.1215  0.5357  1.0378
 7823SOL    HW235124   7.628  10.038   4.043  2.1525 -2.5905 -0.3425
 7824SOL     OW35125   3.446   8.756   0.915 -0.7092 -0.1738 -0.0536
 7824SOL    HW135126   3.488   8.679   0.866  1.4480  0.8341  0.1244
 7824SOL    HW235127   3.377   8.722   0.979  0.4892 -2.0107  0.3003
 7825SOL     OW35128   4.445   8.159   1.564 -0.1343 -0.3349  0.5496
 7825SOL    HW135129   4.497   8.075   1.546  1.3808  0.5196  0.8083
 7825SOL    HW235130   4.433   8.170   1.663 -1.4887 -0.9209  0.4572
 7826SOL     OW35131   1.915   8.754   2.892 -0.1864 -0.3684 -0.1458
 7826SOL    HW135132   1.993   8.703   2.856 -0.2064 -0.6018  0.1393
 7826SOL    HW235133   1.940   8.850   2.905 -0.2062 -0.2668 -0.8680
 7827SOL     OW35134   4.498   1.306   3.111 -0.3171  0.2187  0.9101
 7827SOL    HW135135   4.484   1.208   3.099  3.2878 -0.3062  0.7120
 7827SOL    HW235136   4.468   1.354   3.028 -0.9889 -0.7819  0.5633
 7828SOL     OW35137   7.209   6.322   5.537 -0.1192  0.4009 -0.3796
 7828SOL    HW135138   7.183   6.290   5.628  1.8739 -1.8399 -0.5553
 7828SOL    HW235139   7.141   6.388   5.505 -1.7557 -0.0379  2.0166
 7829SOL     OW35140   3.048   2.543   0.192  0.0937 -0.6842 -0.2031
 7829SOL    HW135141   3.003   2.471   0.244  0.1006 -1.4148 -1.2121
 7829SOL    HW235142   3.085   2.611   0.255 -1.5282 -0.5996  0.6777
 7830SOL     OW35143   8.558   0.406   1.977  0.1423  0.4881 -0.6428
 7830SOL    HW135144   8.475   0.351   1.984 -0.6787  1.6499 -1.0918
 7830SOL    HW235145   8.568   0.462   2.058  1.3489 -0.7967  0.1267
 7831SOL     OW35146   3.973   5.695   2.478  0.2809 -0.0599 -0.0358
 7831SOL    HW135147   3.916   5.765   2.435  0.9553  0.6151  0.1566
 7831SOL    HW235148   4.054   5.738   2.518  0.6126 -0.9294  0.2376
 7832SOL     OW35149   9.066   3.566   2.618  0.4630  0.3705  0.1575
 7832SOL    HW135150   8.972   3.553   2.586  0.6286 -0.2275 -0.0980
 7832SOL    HW235151   9.124   3.591   2.541  0.8310 -0.9189  0.0006
 7833SOL     OW35152   9.670   4.679   4.076 -0.0982  0.1525  0.0488
 7833SOL    HW135153   9.768   4.659   4.070  0.0029  0.8459 -0.6122
 7833SOL    HW235154   9.632   4.688   3.984 -0.9688 -0.9688  0.2847
 7834SOL     OW35155   2.160   5.861   3.061  0.5545 -0.5159 -0.1538
 7834SOL    HW135156   2.242   5.814   3.031  0.3943  0.4001 -2.0883
 7834SOL    HW235157   2.151   5.948   3.014 -2.4908 -1.4179 -1.4052
 7835SOL     OW35158   5.050   9.569   3.607 -0.0838  0.2273  0.1678
 7835SOL    HW135159   5.009   9.505   3.541  1.8164  1.3574 -2.1891
 7835SOL    HW235160   5.136   9.531   3.640  0.6666  1.2036 -0.6494
 7836SOL     OW35161   6.381   1.028   7.375 -0.2378  0.1908  0.3338
 7836SOL    HW135162   6.385   1.045   7.276  1.4442  1.7821  0.6479
 7836SOL    HW235163   6.285   1.017   7.402 -0.6915 -0.8698 -1.5535
 7837SOL     OW35164   0.270   7.511   3.279  0.5352  0.0786 -0.5545
 7837SOL    HW135165   0.265   7.417   3.246  0.4966 -0.4596  0.9455
 7837SOL    HW235166   0.254   7.513   3.377 -0.6228  1.7944 -0.7574
 7838SOL     OW35167   3.452   9.397   4.537  0.2715  0.0599 -0.2882
 7838SOL    HW135168   3.541   9.418   4.496  0.0381  0.9096 -0.3590
 7838SOL    HW235169   3.412   9.318   4.490  1.1770 -0.5786  0.0201
 7839SOL     OW35170   3.727   1.732   3.121  0.3309  0.3322 -0.5767
 7839SOL    HW135171   3.775   1.676   3.054  0.1453 -0.2832 -0.2014
 7839SOL    HW235172   3.746   1.698   3.213 -2.4979 -1.2995 -0.5132
 7840SOL     OW35173   8.671   6.773   7.096 -0.4494  0.5995  0.7105
 7840SOL    HW135174   8.744   6.713   7.129 -0.4870  0.8522  1.2639
 7840SOL    HW235175   8.632   6.736   7.012  0.6691  0.7384  0.1253
 7841SOL     OW35176   4.144   5.808   0.758  0.1882  0.3242  0.3864
 7841SOL    HW135177   4.165   5.719   0.718  1.6163  0.1952  1.4088
 7841SOL    HW235178   4.044   5.818   0.764  0.0031 -0.9040 -0.3950
 7842SOL     OW35179   3.508   6.221   7.935 -0.3904  0.4229  0.0336
 7842SOL    HW135180   3.543   6.240   7.844  0.1263  0.2696  0.1995
 7842SOL    HW235181   3.443   6.293   7.962 -1.2176 -0.0039 -0.8054
 7843SOL     OW35182   5.043   9.586   7.489  0.4787  0.1545  0.1346
 7843SOL    HW135183   4.948   9.597   7.519  0.8699  1.9843  0.7142
 7843SOL    HW235184   5.087   9.515   7.544 -0.9816 -1.8316 -1.1710
 7844SOL     OW35185   2.369   7.376   6.181 -0.5335  0.4346 -0.0755
 7844SOL    HW135186   2.270   7.384   6.181 -0.4859  1.0249  0.7014
 7844SOL    HW235187   2.408   7.435   6.110 -0.8745 -1.6988 -2.1165
 7845SOL     OW35188   4.842   0.737   1.706 -0.2910 -0.0957 -0.2115
 7845SOL    HW135189   4.743   0.733   1.720 -0.1138  1.9607  1.9137
 7845SOL    HW235190   4.872   0.832   1.707  1.5305 -0.5905 -2.4825
 7846SOL     OW35191   6.861   2.531   4.092  0.0870 -0.3892  0.7924
 7846SOL    HW135192   6.795   2.597   4.128  0.7119 -0.0257  1.2812
 7846SOL    HW235193   6.865   2.539   3.992 -0.0778  0.0856  0.8218
 7847SOL     OW35194   9.487   1.279   5.986  0.7466  0.0103 -0.1166
 7847SOL    HW135195   9.537   1.268   6.073  0.3863  1.6154  0.3111
 7847SOL    HW235196   9.520   1.361   5.939 -0.3838  0.2095 -0.5773
 7848SOL     OW35197   7.587   9.973   2.080 -0.1216  0.2895  0.5346
 7848SOL    HW135198   7.592  10.030   2.162 -0.0358  2.6387 -1.0430
 7848SOL    HW235199   7.574  10.032   2.000 -1.9670 -2.0687 -0.9676
 7849SOL     OW35200   8.837   0.550   0.239  0.3561  0.1970  0.2753
 7849SOL    HW135201   8.881   0.539   0.150  0.0255 -3.2199  0.4704
 7849SOL    HW235202   8.738   0.547   0.228  0.3109 -0.0355  0.7197
 7850SOL     OW35203   8.405   4.200   4.363  0.2306  0.4629  0.1811
 7850SOL    HW135204   8.324   4.184   4.306 -0.0050 -2.1333  1.1412
 7850SOL    HW235205   8.398   4.290   4.406 -2.1975  0.2713  0.2933
 7851SOL     OW35206   1.288   3.215   0.007 -0.4316  0.7986  0.4304
 7851SOL    HW135207   1.223   3.140  -0.002 -1.1440  1.3618  0.8276
 7851SOL    HW235208   1.380   3.182  -0.014 -0.6991 -0.2526  0.8607
 7852SOL     OW35209   6.817   1.270   0.891 -0.3466  0.2370 -0.5074
 7852SOL    HW135210   6.782   1.330   0.963  1.0589 -1.1042  1.3437
 7852SOL    HW235211   6.752   1.196   0.874 -0.5344  0.3712 -0.3731
 7853SOL     OW35212   1.678   0.235   7.762 -0.1216  0.1056  0.7759
 7853SOL    HW135213   1.612   0.231   7.837  0.3040 -2.1343  1.0796
 7853SOL    HW235214   1.656   0.165   7.694 -1.8629  3.5955 -2.4339
 7854SOL     OW35215   4.696   1.739   1.041 -0.0875  0.2204 -0.3690
 7854SOL    HW135216   4.630   1.781   1.104  0.0021  0.7773 -0.6363
 7854SOL    HW235217   4.737   1.811   0.984  1.1618 -0.0552  0.1819
 7855SOL     OW35218   7.400   1.577   0.755  0.7205  0.2632 -0.1362
 7855SOL    HW135219   7.391   1.570   0.854 -1.2543  2.4752 -0.1142
 7855SOL    HW235220   7.311   1.565   0.713  1.0574  2.1434 -1.4415
 7856SOL     OW35221   4.849   0.550   3.088  0.4781  0.1192  0.5565
 7856SOL    HW135222   4.908   0.471   3.106  0.7118  0.0228 -0.5893
 7856SOL    HW235223   4.784   0.526   3.015  0.0170  0.7217  0.7709
 7857SOL     OW35224   8.480   9.156   3.051 -0.5222  0.0016  0.0562
 7857SOL    HW135225   8.487   9.063   3.087 -1.1129  1.1175  3.1841
 7857SOL    HW235226   8.390   9.169   3.009 -1.6819  0.0768  2.4716
 7858SOL     OW35227   7.247   5.399   1.847 -0.4536  0.3085  0.0152
 7858SOL    HW135228   7.190   5.425   1.925 -1.3443 -0.6336 -0.3210
 7858SOL    HW235229   7.252   5.476   1.783 -0.2114  0.8739  0.7082
 7859SOL     OW35230   6.252   1.294   3.927 -0.5036  0.0348  0.2575
 7859SOL    HW135231   6.305   1.212   3.947  0.6771  0.6108 -0.4732
 7859SOL    HW235232   6.155   1.269   3.915 -0.5648 -0.8854  2.4725
 7860SOL     OW35233   8.621   8.798   1.258  0.0361  0.2002  0.1786
 7860SOL    HW135234   8.687   8.746   1.312 -0.1971 -0.8480 -0.5203
 7860SOL    HW235235   8.667   8.876   1.215  0.6350 -0.0299  0.3939
 7861SOL     OW35236   6.428   1.854   4.296  0.2169  0.0719 -0.4369
 7861SOL    HW135237   6.438   1.761   4.261 -0.2948  0.2977 -1.1934
 7861SOL    HW235238   6.507   1.909   4.270  0.6702 -0.2271  0.2817
 7862SOL     OW35239   2.928   9.680   6.821 -0.1369  0.1732  0.0560
 7862SOL    HW135240   2.953   9.641   6.732 -0.3679 -0.5071  0.2880
 7862SOL    HW235241   2.840   9.728   6.812 -1.3828 -1.9753  0.4671
 7863SOL     OW35242   3.356   2.279   5.671 -0.1762 -0.1550  0.4299
 7863SOL    HW135243   3.425   2.344   5.700 -0.2008 -0.3876  1.0242
 7863SOL    HW235244   3.281   2.277   5.738  0.2424 -1.4293  0.8864
 7864SOL     OW35245   3.390   7.431   7.703  0.2391 -0.7127 -0.2848
 7864SOL    HW135246   3.422   7.341   7.674  0.3032 -0.7333 -0.1517
 7864SOL    HW235247   3.419   7.448   7.798  1.7599  0.1702 -0.8779
 7865SOL     OW35248   7.810   7.258   6.339 -0.0665  0.2352 -0.2974
 7865SOL    HW135249   7.891   7.265   6.279 -1.3987  0.6941 -2.0780
 7865SOL    HW235250   7.737   7.210   6.290 -0.8201 -0.3435  1.3764
 7866SOL     OW35251   4.774   7.292   1.329 -0.7301 -0.3564  0.2953
 7866SOL    HW135252   4.702   7.356   1.300 -1.4919 -1.4206 -0.2322
 7866SOL    HW235253   4.782   7.293   1.428  1.1625  2.5559  0.1769
 7867SOL     OW35254   1.340   6.237   2.058  0.2860 -0.1170  0.3226
 7867SOL    HW135255   1.315   6.172   1.986  0.1364 -1.3433  1.4575
 7867SOL    HW235256   1.402   6.193   2.123 -0.2238  0.7163  1.3921
 7868SOL     OW35257   0.365   3.270   7.796 -0.2547 -0.0781  0.1425
 7868SOL    HW135258   0.345   3.188   7.742 -0.9515  0.9891 -1.2722
 7868SOL    HW235259   0.279   3.311   7.826  0.1014 -0.0360  1.0989
 7869SOL     OW35260   6.717   6.516   4.625  0.0193  0.1275 -0.0062
 7869SOL    HW135261   6.757   6.424   4.619 -0.7939 -0.2366  0.1786
 7869SOL    HW235262   6.678   6.541   4.536  0.0302  0.2029  0.0096
 7870SOL     OW35263   9.723   8.948   6.009  0.2045  0.0938  0.4084
 7870SOL    HW135264   9.734   8.851   5.985  1.1295  0.4680 -0.6900
 7870SOL    HW235265   9.637   8.982   5.971  0.4659  0.0213 -0.2511
 7871SOL     OW35266   7.532   4.618   2.977 -0.6923  0.2186  0.3603
 7871SOL    HW135267   7.608   4.630   3.041  0.0311  0.7794 -0.6006
 7871SOL    HW235268   7.486   4.706   2.963 -1.4732 -0.1064  0.8859
 7872SOL     OW35269   0.179   0.450   0.790 -0.6570 -0.0081  0.9237
 7872SOL    HW135270   0.135   0.521   0.845 -2.0168  0.0658 -0.2288
 7872SOL    HW235271   0.113   0.377   0.770 -0.7452  0.7875 -2.0331
 7873SOL     OW35272   1.278   9.581   4.965  0.5625 -0.1216 -0.1144
 7873SOL    HW135273   1.233   9.528   4.893  0.0239  0.0980  0.0558
 7873SOL    HW235274   1.359   9.532   4.997  0.1882 -0.7413 -0.1028
 7874SOL     OW35275   2.739   8.243   7.318 -0.5816 -0.0472  0.0171
 7874SOL    HW135276   2.836   8.219   7.306 -0.5628  0.4643 -0.9024
 7874SOL    HW235277   2.692   8.231   7.231 -1.1752  0.5221  0.2621
 7875SOL     OW35278   2.075   4.171   0.515  0.6119 -0.5784 -0.3599
 7875SOL    HW135279   2.028   4.258   0.529  0.2416 -0.8506  0.1022
 7875SOL    HW235280   2.012   4.105   0.475  0.5433 -0.9981  0.4289
 7876SOL     OW35281   4.048   2.336   1.253  0.3503  0.3771  0.3997
 7876SOL    HW135282   4.033   2.424   1.297 -0.2853  0.0274  0.8921
 7876SOL    HW235283   3.960   2.291   1.237  0.5398  0.6725 -1.6175
 7877SOL     OW35284   6.290   6.895   5.629  0.3968  0.2081 -0.0050
 7877SOL    HW135285   6.333   6.870   5.542 -0.8288  0.6029 -0.7277
 7877SOL    HW235286   6.326   6.836   5.701  2.2704  0.6274 -0.5681
 7878SOL     OW35287   0.359   2.003   4.168 -0.0575  0.2510 -0.3792
 7878SOL    HW135288   0.379   2.095   4.133  0.1112  1.0863  1.8269
 7878SOL    HW235289   0.270   1.973   4.134  0.6750  0.4764 -2.5673
 7879SOL     OW35290   8.226   6.308   2.525  0.0038 -0.7660 -0.7720
 7879SOL    HW135291   8.221   6.259   2.613  0.6040  1.4813  0.5422
 7879SOL    HW235292   8.318   6.299   2.487  0.1877 -0.4120 -0.4050
 7880SOL     OW35293   0.603   2.897   3.351 -0.6550  0.1649 -0.1708
 7880SOL    HW135294   0.520   2.912   3.405  0.5599  1.2770  1.4577
 7880SOL    HW235295   0.632   2.801   3.360  0.4705  0.7045  2.6239
 7881SOL     OW35296   1.062   5.316   4.111 -0.3351 -0.2025 -0.0292
 7881SOL    HW135297   1.020   5.315   4.202 -2.3536 -0.1647 -0.9309
 7881SOL    HW235298   1.075   5.222   4.080 -3.0435 -0.2509 -1.1792
 7882SOL     OW35299   2.661   4.326   1.727  0.0270  0.1802 -0.1266
 7882SOL    HW135300   2.574   4.345   1.683  0.5447 -0.5738 -1.4891
 7882SOL    HW235301   2.693   4.236   1.700  1.7615  0.8889 -0.4894
 7883SOL     OW35302   7.421   0.580   4.144 -0.0971  0.2184 -0.5435
 7883SOL    HW135303   7.385   0.604   4.234 -0.1543 -0.5346 -0.3632
 7883SOL    HW235304   7.513   0.618   4.134 -0.1929  0.5319 -0.2777
 7884SOL     OW35305   4.790   7.338   1.595  0.0847  0.0822 -0.0819
 7884SOL    HW135306   4.778   7.432   1.627  0.6721  0.4751 -0.9921
 7884SOL    HW235307   4.768   7.275   1.669  0.4329  0.9504  0.7724
 7885SOL     OW35308   2.499   2.422   1.086 -0.4616 -0.3186 -0.0154
 7885SOL    HW135309   2.598   2.419   1.105 -0.6157  0.5523  0.9662
 7885SOL    HW235310   2.481   2.491   1.016 -0.3819 -0.3850 -0.1009
 7886SOL     OW35311   7.827   3.824   2.544 -0.0957  0.4578  0.1858
 7886SOL    HW135312   7.822   3.924   2.548  0.2204  0.4486  0.8413
 7886SOL    HW235313   7.735   3.787   2.532 -0.3276  0.7828  0.9276
 7887SOL     OW35314   1.402   0.352   1.102  0.5152 -0.4166  0.2112
 7887SOL    HW135315   1.340   0.423   1.069  1.6571  0.0778 -0.8843
 7887SOL    HW235316   1.423   0.368   1.198 -1.2514 -0.7336  0.6601
 7888SOL     OW35317   7.736   1.374   2.522  0.5307  0.1133 -0.1861
 7888SOL    HW135318   7.686   1.289   2.504  0.4986  0.3452 -1.1792
 7888SOL    HW235319   7.790   1.363   2.606 -0.6841 -0.3568  0.5618
 7889SOL     OW35320   3.383   1.646   5.488  0.0915  0.1569 -0.0923
 7889SOL    HW135321   3.442   1.596   5.425  0.4395  1.2087 -0.6068
 7889SOL    HW235322   3.332   1.716   5.438  1.5349  2.0730  1.0218
 7890SOL     OW35323   1.037   0.884   4.150  0.4450  0.5239 -0.1380
 7890SOL    HW135324   0.960   0.942   4.127  1.2952  1.8603  0.3218
 7890SOL    HW235325   1.024   0.793   4.109 -0.8644  1.0426 -0.9037
 7891SOL     OW35326   1.100   7.702   5.225 -0.7173 -0.3524 -0.5211
 7891SOL    HW135327   1.005   7.731   5.232 -0.2838  1.2927 -1.1869
 7891SOL    HW235328   1.123   7.643   5.303 -1.9848  0.0456  0.1666
 7892SOL     OW35329   1.485   8.475   7.421 -0.0973 -0.4004 -0.4655
 7892SOL    HW135330   1.397   8.426   7.422  0.2057 -0.9693 -1.1493
 7892SOL    HW235331   1.553   8.421   7.471 -0.0399 -0.1418 -0.2686
 7893SOL     OW35332   1.103   4.482   4.924  0.0046 -0.2570 -0.6567
 7893SOL    HW135333   1.073   4.531   4.843 -1.6819 -0.5213 -0.2192
 7893SOL    HW235334   1.169   4.537   4.975  0.1026  0.4378 -1.5314
 7894SOL     OW35335   6.269   7.288   4.208  0.0784 -0.1015 -0.6094
 7894SOL    HW135336   6.292   7.241   4.123 -0.4211  0.9857 -1.3584
 7894SOL    HW235337   6.170   7.298   4.215  0.0306 -1.2242  0.6834
 7895SOL     OW35338   4.841   9.526   5.921  0.0198  0.2974 -0.1293
 7895SOL    HW135339   4.874   9.449   5.976 -1.0968  0.5948  0.9815
 7895SOL    HW235340   4.850   9.611   5.973 -0.7540  0.6277 -0.5130
 7896SOL     OW35341   3.694   5.009   3.828  0.4585  0.0536 -0.0020
 7896SOL    HW135342   3.782   4.986   3.787 -0.5430 -0.9124 -1.6403
 7896SOL    HW235343   3.673   4.943   3.900  0.7625 -0.1044 -0.0562
 7897SOL     OW35344   1.215   8.677   3.837  0.1310  0.1208 -0.2745
 7897SOL    HW135345   1.241   8.741   3.910  1.1319 -0.2904 -0.2584
 7897SOL    HW235346   1.160   8.603   3.876  0.3286  0.1142 -0.0069
 7898SOL     OW35347   8.318   3.160   5.982  0.6937  0.2363  0.5637
 7898SOL    HW135348   8.331   3.246   5.933 -0.0867  0.6276  1.0521
 7898SOL    HW235349   8.254   3.173   6.057  0.1844 -0.8807  0.3327
 7899SOL     OW35350   1.600   6.121   3.471 -0.1810  0.4225  0.3189
 7899SOL    HW135351   1.634   6.048   3.531  2.4587  0.7770 -0.6771
 7899SOL    HW235352   1.673   6.188   3.456 -1.7693  1.9298 -0.8595
 7900SOL     OW35353   0.881   9.509   7.354  0.2398  0.5786 -0.1895
 7900SOL    HW135354   0.812   9.579   7.333 -0.5219  0.0965  0.6580
 7900SOL    HW235355   0.915   9.524   7.447 -0.4243 -0.5775  0.2460
 7901SOL     OW35356   1.485   3.500   3.293 -0.1842 -0.7516 -0.8510
 7901SOL    HW135357   1.446   3.589   3.268 -0.3674 -0.6524 -0.2197
 7901SOL    HW235358   1.410   3.434   3.305 -0.3161 -0.1402  2.0670
 7902SOL     OW35359   8.344   4.882   4.883 -0.1716  0.3301  0.7457
 7902SOL    HW135360   8.436   4.873   4.846  0.3121 -0.5725  2.1299
 7902SOL    HW235361   8.319   4.979   4.888 -0.1209  0.4904 -1.5699
 7903SOL     OW35362   1.013   1.456   3.971 -0.0889  0.0881 -0.0996
 7903SOL    HW135363   1.059   1.513   3.903  2.3419  0.8975  2.1552
 7903SOL    HW235364   1.041   1.361   3.959  0.5503  0.2700 -0.0270
 7904SOL     OW35365   8.614   0.273   3.368  0.2474  0.0570 -0.1796
 7904SOL    HW135366   8.549   0.324   3.425 -0.8910 -0.6559 -0.8403
 7904SOL    HW235367   8.667   0.211   3.426 -1.7100 -1.5085 -0.0298
 7905SOL     OW35368   5.397   3.640   7.721  0.1280 -0.5619 -0.0222
 7905SOL    HW135369   5.357   3.571   7.781 -1.3020  0.6290  0.4199
 7905SOL    HW235370   5.495   3.646   7.737 -0.0567 -1.1032  1.3390
 7906SOL     OW35371   5.537   8.125   4.644  0.6315 -0.0679 -0.3669
 7906SOL    HW135372   5.588   8.152   4.563  0.2100  1.2460 -0.2137
 7906SOL    HW235373   5.527   8.204   4.704  0.0805 -0.7897  0.4944
 7907SOL     OW35374   0.893   3.980   6.343 -0.0969  0.5493 -0.1620
 7907SOL    HW135375   0.849   4.031   6.269 -0.5517 -1.5599 -1.4057
 7907SOL    HW235376   0.989   3.964   6.319  0.3443  1.8152  0.7582
 7908SOL     OW35377   2.845   3.598   0.873 -0.1162 -0.3941  0.5093
 7908SOL    HW135378   2.801   3.525   0.819 -0.3299 -0.3895  0.6805
 7908SOL    HW235379   2.854   3.568   0.968  1.1253 -0.7838  0.2748
 7909SOL     OW35380   2.179   9.376   8.100 -0.0382 -0.2897 -0.4233
 7909SOL    HW135381   2.226   9.321   8.169 -0.3473  0.4490  0.3833
 7909SOL    HW235382   2.095   9.328   8.072 -0.8981  0.2697  1.1050
 7910SOL     OW35383   8.807   8.465   4.450 -0.3070 -0.2570  0.1983
 7910SOL    HW135384   8.823   8.371   4.420  1.2869  0.2644 -0.6209
 7910SOL    HW235385   8.748   8.464   4.531  1.6412 -2.1320  1.6737
 7911SOL     OW35386   9.308   0.363   5.627 -0.0943 -0.2122  0.4136
 7911SOL    HW135387   9.400   0.329   5.645  0.6171  0.7639 -1.2550
 7911SOL    HW235388   9.302   0.458   5.657 -0.0402  0.2357 -0.9398
 7912SOL     OW35389   2.464   6.359   7.677  0.1696  0.1518 -0.2344
 7912SOL    HW135390   2.438   6.285   7.739  1.0702  0.1787  0.1829
 7912SOL    HW235391   2.500   6.436   7.731 -0.8046  0.9073 -0.6623
 7913SOL     OW35392   2.871   6.618   6.049  0.0582  0.0261  0.3300
 7913SOL    HW135393   2.888   6.616   5.951 -0.4324 -0.4385  0.2555
 7913SOL    HW235394   2.953   6.586   6.098  0.2856  0.2152  0.0751
 7914SOL     OW35395   4.945   4.253   2.023 -0.2347  0.2124  0.3253
 7914SOL    HW135396   4.930   4.328   2.088  0.6656  2.3059 -1.7986
 7914SOL    HW235397   4.930   4.286   1.930  2.7712 -1.5408 -0.8559
 7915SOL     OW35398   4.543   7.500   3.747  0.5540  0.3074  0.2715
 7915SOL    HW135399   4.605   7.573   3.772  1.6356 -0.7585  0.7541
 7915SOL    HW235400   4.482   7.479   3.824  0.4010  0.5479  0.2143
 7916SOL     OW35401   0.136   8.954   2.037  0.6349  0.1921 -0.6949
 7916SOL    HW135402   0.226   8.913   2.023  0.9501 -0.1809  2.3003
 7916SOL    HW235403   0.065   8.887   2.014  1.1399 -1.0101  1.1852
 7917SOL     OW35404   0.022   6.216   5.422 -0.3433 -0.1565 -0.1757
 7917SOL    HW135405  -0.024   6.160   5.353 -0.8881 -1.2826  1.0839
 7917SOL    HW235406   0.119   6.191   5.426 -0.2956 -0.0429 -0.5714
 7918SOL     OW35407   0.708   9.117   4.692 -0.2979  0.2588  0.5106
 7918SOL    HW135408   0.653   9.147   4.769 -1.2192  0.1543 -0.0959
 7918SOL    HW235409   0.803   9.104   4.721 -0.4558  1.0784  1.4105
 7919SOL     OW35410   1.053   6.564   6.562 -0.0449 -0.1686  0.0626
 7919SOL    HW135411   1.054   6.491   6.493  0.4197  0.0029 -0.1104
 7919SOL    HW235412   0.974   6.623   6.546 -0.6308 -0.8400  0.4224
 7920SOL     OW35413   6.842   5.579   0.656  0.0457  0.0040  0.2649
 7920SOL    HW135414   6.810   5.502   0.601  0.9456  0.9374 -1.6350
 7920SOL    HW235415   6.828   5.560   0.753 -3.6095 -0.7799 -0.3599
 7921SOL     OW35416   5.010   9.620   6.386 -0.4486  0.4401  0.0660
 7921SOL    HW135417   5.041   9.675   6.308 -0.2082  0.8499  0.4529
 7921SOL    HW235418   5.085   9.561   6.417 -0.4194  0.5671  0.2402
 7922SOL     OW35419   2.709   8.988   0.644 -0.0658  0.3541 -0.0540
 7922SOL    HW135420   2.657   9.066   0.678  0.7595  0.8614  0.0534
 7922SOL    HW235421   2.781   9.020   0.583  0.7903 -0.2473  0.6229
 7923SOL     OW35422   9.606   3.827   1.267 -0.0139  0.8241 -0.6703
 7923SOL    HW135423   9.582   3.773   1.186  1.0295  1.5527 -1.4789
 7923SOL    HW235424   9.695   3.871   1.252  2.0658 -2.1000  2.3419
 7924SOL     OW35425   3.984   3.121   5.145 -0.0317  0.6801 -0.0639
 7924SOL    HW135426   3.917   3.188   5.176  0.4126  1.3663 -0.5451
 7924SOL    HW235427   4.074   3.145   5.181  0.2455  0.7234 -0.7613
 7925SOL     OW35428   2.539   3.262   4.189  0.4005 -0.6299 -0.2561
 7925SOL    HW135429   2.476   3.330   4.154 -0.8199 -0.9832  1.2102
 7925SOL    HW235430   2.630   3.278   4.150 -0.5749 -0.1522 -2.4124
 7926SOL     OW35431   3.696   9.325   1.904 -0.1333 -0.8464  0.6855
 7926SOL    HW135432   3.685   9.420   1.933  0.9227 -0.9338  1.3813
 7926SOL    HW235433   3.606   9.287   1.881 -0.1626  1.4120 -3.2011
 7927SOL     OW35434   0.530   6.766   7.495  0.1359  0.7020 -0.3194
 7927SOL    HW135435   0.468   6.687   7.496  1.3477 -0.2876  1.0249
 7927SOL    HW235436   0.566   6.779   7.403  1.6956 -1.7981 -0.1231
 7928SOL     OW35437   9.036   3.730   0.481  0.1449 -0.2415 -0.1444
 7928SOL    HW135438   9.044   3.701   0.385  1.2669  0.4529 -0.2711
 7928SOL    HW235439   8.999   3.823   0.485 -1.1618 -0.7711  0.1563
 7929SOL     OW35440   6.414   6.898   4.777 -0.7126 -0.5841  0.3737
 7929SOL    HW135441   6.414   6.987   4.823 -1.2906 -1.6295  2.4689
 7929SOL    HW235442   6.320   6.867   4.764 -0.5330 -0.6084 -0.9530
 7930SOL     OW35443   5.329   4.208   0.815 -0.1375  0.3062 -0.1684
 7930SOL    HW135444   5.272   4.177   0.891 -0.6532  3.0118  0.5790
 7930SOL    HW235445   5.275   4.206   0.731  0.0227 -1.3614 -0.2531
 7931SOL     OW35446   3.232   4.226   3.842 -0.3228 -0.3135 -0.6689
 7931SOL    HW135447   3.135   4.210   3.860 -0.4042 -0.4210 -1.1818
 7931SOL    HW235448   3.275   4.139   3.815 -0.2697 -0.1138 -1.2451
 7932SOL     OW35449   3.017   4.371   1.346 -0.0893  0.0697  0.0494
 7932SOL    HW135450   2.963   4.423   1.280  0.5282 -0.5392 -0.9418
 7932SOL    HW235451   3.030   4.277   1.314 -1.7917 -0.9317  2.1730
 7933SOL     OW35452   0.617   8.906   1.429 -0.6774  0.0230 -0.0386
 7933SOL    HW135453   0.703   8.884   1.383 -1.2044  0.4886 -1.2731
 7933SOL    HW235454   0.595   9.003   1.413 -0.6366  0.3116  1.5807
 7934SOL     OW35455   0.909   6.816   3.697  0.2736  0.4196 -0.5771
 7934SOL    HW135456   0.956   6.814   3.609 -0.8823 -0.1485 -1.1879
 7934SOL    HW235457   0.811   6.802   3.683 -0.1554  2.0136  0.6386
 7935SOL     OW35458   4.582   6.875   3.733 -0.6195 -0.0429  0.5225
 7935SOL    HW135459   4.517   6.949   3.748  0.9219  1.1607  1.4423
 7935SOL    HW235460   4.675   6.911   3.742  0.1415 -2.1425  1.2169
 7936SOL     OW35461   6.820   5.630   1.505 -0.0344  0.2707  0.3981
 7936SOL    HW135462   6.843   5.646   1.601 -0.6769 -1.5750  0.8837
 7936SOL    HW235463   6.780   5.713   1.465 -1.4048  0.5188  2.2279
 7937SOL     OW35464   8.882   1.207   2.373  0.0358  0.5102 -0.3880
 7937SOL    HW135465   8.932   1.280   2.421 -1.2581  1.0067  0.2133
 7937SOL    HW235466   8.856   1.135   2.437 -0.6475  0.5960 -0.5620
 7938SOL     OW35467   1.502   6.291   4.219  0.1719  0.2364 -0.0597
 7938SOL    HW135468   1.514   6.375   4.167  0.1987  1.4727  1.8712
 7938SOL    HW235469   1.592   6.253   4.241  0.1773  0.1023 -0.3161
 7939SOL     OW35470   7.816   5.881   0.942  0.2514 -0.3762  0.6146
 7939SOL    HW135471   7.837   5.971   0.904 -0.5162  0.2527  1.6610
 7939SOL    HW235472   7.735   5.887   1.001  0.9647 -1.4844  1.7335
 7940SOL     OW35473   8.141   3.397   2.135  0.3425  0.5576 -0.1583
 7940SOL    HW135474   8.217   3.429   2.191 -0.2405  1.6040  0.0361
 7940SOL    HW235475   8.140   3.446   2.048 -0.5821  1.1014  0.1580
 7941SOL     OW35476   7.790   3.387   0.801  0.3698  0.7238  0.9980
 7941SOL    HW135477   7.735   3.332   0.739  1.6066 -0.4210  0.8828
 7941SOL    HW235478   7.750   3.478   0.811 -1.0791  0.1654  0.3031
 7942SOL     OW35479   2.826   3.545   2.360 -0.1021  0.3180  0.2364
 7942SOL    HW135480   2.771   3.462   2.352  1.6693 -0.7917 -0.7808
 7942SOL    HW235481   2.908   3.526   2.414  1.9036  0.5370 -2.6163
 7943SOL     OW35482   8.418   3.277   6.632 -0.2018  0.1145 -0.2655
 7943SOL    HW135483   8.415   3.193   6.578 -1.1448  0.5623 -0.9122
 7943SOL    HW235484   8.423   3.254   6.730 -0.3341 -0.6853 -0.4464
 7944SOL     OW35485   9.888   1.494   3.546  0.1032  0.4147  0.2757
 7944SOL    HW135486   9.951   1.426   3.510 -0.3782  0.2925 -0.3400
 7944SOL    HW235487   9.867   1.473   3.642 -1.0724 -1.0672 -0.2935
 7945SOL     OW35488   1.806   2.621   5.773 -0.1522  0.0054 -0.6974
 7945SOL    HW135489   1.813   2.706   5.825  2.4898  0.2868 -1.4643
 7945SOL    HW235490   1.712   2.609   5.742 -0.2858  3.3894 -1.8170
 7946SOL     OW35491   8.024   3.719   7.217 -0.7858 -0.1036  0.4102
 7946SOL    HW135492   8.039   3.625   7.186 -2.9463 -1.0641  2.1136
 7946SOL    HW235493   7.928   3.743   7.202 -1.0645  0.6035  3.1475
 7947SOL     OW35494   5.004   0.608   3.380 -0.7008  0.0735  0.8760
 7947SOL    HW135495   4.957   0.528   3.417 -1.3328 -0.3572 -0.8021
 7947SOL    HW235496   5.044   0.584   3.291  1.9608  0.6822  1.8699
 7948SOL     OW35497   7.795   8.366   1.856 -0.5473 -0.2253 -0.1191
 7948SOL    HW135498   7.793   8.464   1.832  0.0543 -0.7146 -2.2318
 7948SOL    HW235499   7.785   8.357   1.955 -3.1391  1.8831 -0.0930
 7949SOL     OW35500   5.258   8.279   3.172 -0.2863 -0.7530  0.6557
 7949SOL    HW135501   5.353   8.308   3.182  0.2284 -1.5301 -1.6116
 7949SOL    HW235502   5.202   8.357   3.145 -0.3975 -0.1853  2.4803
 7950SOL     OW35503   4.596   9.424   7.520  0.0018  0.3292 -0.6646
 7950SOL    HW135504   4.509   9.414   7.471 -0.3697  1.0072 -0.1428
 7950SOL    HW235505   4.634   9.333   7.537  0.5862  0.1002 -3.0027
 7951SOL     OW35506   8.864   6.897   2.094  0.5774 -0.6667  0.4565
 7951SOL    HW135507   8.815   6.862   2.014  0.1860  0.3789  0.2366
 7951SOL    HW235508   8.947   6.944   2.064 -0.8732  1.9509  0.4786
 7952SOL     OW35509   4.506   3.155   7.937  0.0543 -0.0971  0.3329
 7952SOL    HW135510   4.406   3.150   7.944  0.2918 -1.8221  3.4144
 7952SOL    HW235511   4.540   3.225   8.001  0.8561  0.0736 -0.2807
 7953SOL     OW35512   5.422   3.040   8.168  0.1996  0.3198  0.3945
 7953SOL    HW135513   5.378   2.952   8.152  2.3897 -0.8671  0.6444
 7953SOL    HW235514   5.394   3.105   8.097 -0.6647 -0.8757 -0.3720
 7954SOL     OW35515   9.929   8.970   5.016 -0.4261  0.1725 -0.0548
 7954SOL    HW135516   9.962   9.058   5.051 -0.7531 -0.1353  1.0613
 7954SOL    HW235517  10.006   8.919   4.978  0.3210 -0.3118  2.0387
 7955SOL     OW35518   4.586   2.714   7.798  0.6089  0.3803 -0.2117
 7955SOL    HW135519   4.621   2.744   7.710 -1.6550 -0.2698 -1.3803
 7955SOL    HW235520   4.621   2.622   7.819 -0.2606 -0.2095 -1.3005
 7956SOL     OW35521   7.925   6.614   6.206  0.2466  0.4744 -0.0544
 7956SOL    HW135522   7.968   6.524   6.198 -0.6461 -0.1188  1.6740
 7956SOL    HW235523   7.839   6.606   6.257 -0.2329  2.1853 -0.5506
 7957SOL     OW35524   5.305   2.276   4.547  0.4230  0.2038  0.0183
 7957SOL    HW135525   5.402   2.252   4.555  0.2618  0.2601  2.6692
 7957SOL    HW235526   5.290   2.366   4.589 -0.7572  0.2500 -0.4877
 7958SOL     OW35527   2.723   2.837   0.756 -0.3585 -0.1048 -0.4143
 7958SOL    HW135528   2.753   2.770   0.823  0.3094  0.6753  0.0744
 7958SOL    HW235529   2.776   2.827   0.672 -0.7055 -0.6096 -0.5773
 7959SOL     OW35530   6.381   2.879   4.154 -0.1620  0.4225 -0.0458
 7959SOL    HW135531   6.356   2.888   4.250 -0.1174  0.1009 -0.0035
 7959SOL    HW235532   6.478   2.903   4.142  0.2173 -0.9050  0.2255
 7960SOL     OW35533   8.314   6.078   3.622 -0.3984 -0.0048  0.0550
 7960SOL    HW135534   8.386   6.143   3.600 -0.3132  0.4912  1.7431
 7960SOL    HW235535   8.312   6.062   3.720 -0.9719 -1.9112 -0.2388
 7961SOL     OW35536   1.299   5.644   3.798 -0.0330  0.5136  0.3350
 7961SOL    HW135537   1.214   5.695   3.810 -0.2645  0.3320 -0.5099
 7961SOL    HW235538   1.374   5.694   3.840 -0.2167  1.6784 -0.7114
 7962SOL     OW35539   2.205   9.855   4.218  0.0069 -0.1337 -0.6983
 7962SOL    HW135540   2.125   9.899   4.260  0.7314  0.1569  0.3864
 7962SOL    HW235541   2.253   9.802   4.287  0.2135 -1.1035 -1.5753
 7963SOL     OW35542   2.855   5.651   4.272 -0.2990 -0.3440  0.0647
 7963SOL    HW135543   2.953   5.642   4.254  0.0297  0.8582  1.1420
 7963SOL    HW235544   2.834   5.746   4.295 -1.4412 -0.9035  1.4677
 7964SOL     OW35545   2.737   2.745   1.393  0.3925 -0.0298 -0.5745
 7964SOL    HW135546   2.712   2.727   1.488  0.1032  0.8248 -0.4823
 7964SOL    HW235547   2.834   2.726   1.380  0.6540  0.7757  0.1333
 7965SOL     OW35548   4.756   8.498   4.314  0.3787  0.7457 -0.4116
 7965SOL    HW135549   4.704   8.444   4.380 -1.1975  3.6843  0.8364
 7965SOL    HW235550   4.749   8.456   4.224 -3.5974  0.6840 -0.1389
 7966SOL     OW35551   9.089   5.607   2.098  0.3839  0.4300  0.1291
 7966SOL    HW135552   9.064   5.701   2.077 -1.7783  0.3013  1.9260
 7966SOL    HW235553   9.162   5.607   2.167  1.9333  0.7782 -1.4843
 7967SOL     OW35554   0.288   5.707   5.580  0.0544  0.1452  0.7632
 7967SOL    HW135555   0.259   5.771   5.652 -0.2059  0.8085  0.0746
 7967SOL    HW235556   0.240   5.728   5.495  0.9321 -0.1387  0.1902
 7968SOL     OW35557   3.554   4.173   1.911 -0.2945 -0.2405 -0.0899
 7968SOL    HW135558   3.558   4.271   1.930 -1.5623 -0.4180  1.1746
 7968SOL    HW235559   3.495   4.157   1.831 -1.2378 -0.0842  0.5747
 7969SOL     OW35560   0.523   3.565   0.659 -0.3162  0.3145 -0.4345
 7969SOL    HW135561   0.582   3.590   0.735  0.2554 -0.8069 -0.5034
 7969SOL    HW235562   0.427   3.573   0.687 -0.1297  1.6097 -0.1547
 7970SOL     OW35563   2.788   7.190   7.225 -0.6958 -0.1076 -0.1545
 7970SOL    HW135564   2.795   7.200   7.125  1.4387 -1.3348 -0.1578
 7970SOL    HW235565   2.810   7.278   7.269  1.9164 -0.4493 -0.6796
 7971SOL     OW35566   8.385   3.874   5.727 -0.2895 -0.4089  0.1077
 7971SOL    HW135567   8.287   3.880   5.743 -0.2457 -1.8864  0.9636
 7971SOL    HW235568   8.416   3.779   5.736  1.1149 -0.0573 -0.7651
 7972SOL     OW35569   6.968   6.420   4.352 -0.4776 -0.3606  0.5994
 7972SOL    HW135570   6.956   6.456   4.259  0.8842 -4.3221 -1.2164
 7972SOL    HW235571   7.065   6.402   4.369 -0.6263  1.0303  3.1117
 7973SOL     OW35572   0.218   7.611   3.808  0.5874  0.7994 -1.2257
 7973SOL    HW135573   0.209   7.513   3.793 -1.0746  0.6865  0.2980
 7973SOL    HW235574   0.304   7.644   3.768  0.8732 -1.1506 -2.2552
 7974SOL     OW35575   8.769   7.146   2.219 -0.0599 -0.0905 -0.4355
 7974SOL    HW135576   8.826   7.064   2.225  0.7939  0.4654 -0.9743
 7974SOL    HW235577   8.825   7.228   2.228 -1.2039  0.4360  2.3952
 7975SOL     OW35578   0.373   1.248   0.241 -0.0349 -0.2096 -0.2083
 7975SOL    HW135579   0.298   1.194   0.202  0.5057 -1.2362  0.1480
 7975SOL    HW235580   0.460   1.210   0.211  0.3561  1.3687 -1.1475
 7976SOL     OW35581   1.929   5.764   1.695 -0.4661  0.0867  0.2133
 7976SOL    HW135582   1.973   5.854   1.695 -1.4293  0.5645  0.6689
 7976SOL    HW235583   1.966   5.709   1.770  1.0420 -0.3654 -0.8432
 7977SOL     OW35584   5.945   7.393   1.828 -0.1904 -0.4868 -0.0587
 7977SOL    HW135585   5.858   7.428   1.793 -0.3558  0.5342  1.3217
 7977SOL    HW235586   5.983   7.327   1.763 -1.4360 -0.1000 -1.2102
 7978SOL     OW35587   7.160   7.783   2.953  0.2314 -0.0064  0.4064
 7978SOL    HW135588   7.103   7.838   3.014 -0.6812 -2.5311  1.9206
 7978SOL    HW235589   7.251   7.772   2.994  0.1767 -0.2501  0.4596
 7979SOL     OW35590   3.713   2.347   4.399 -0.3090  0.4113  0.2046
 7979SOL    HW135591   3.756   2.436   4.383  1.5674 -0.3989  0.5419
 7979SOL    HW235592   3.702   2.299   4.312 -0.7283  0.7127  0.0917
 7980SOL     OW35593   5.705   9.280   6.153 -0.1955 -0.5319  0.7892
 7980SOL    HW135594   5.693   9.306   6.057  0.9006 -1.0133  0.5049
 7980SOL    HW235595   5.760   9.350   6.199 -1.0570 -0.1045  1.1672
 7981SOL     OW35596   9.900   9.769   6.246  0.0887 -0.4124  0.4370
 7981SOL    HW135597   9.858   9.750   6.334  0.1152 -1.8841  0.1323
 7981SOL    HW235598   9.988   9.815   6.260 -0.4454  0.4126  1.1346
 7982SOL     OW35599   7.593   6.173   2.698  0.0824 -0.2504  0.3442
 7982SOL    HW135600   7.547   6.254   2.733  0.6820 -0.6189  2.0118
 7982SOL    HW235601   7.549   6.091   2.735 -0.7580 -0.7225 -1.6213
 7983SOL     OW35602   1.200   4.620   7.594 -0.5056 -0.2280  0.5378
 7983SOL    HW135603   1.134   4.545   7.588  1.1309 -1.7857  1.8821
 7983SOL    HW235604   1.230   4.645   7.502 -1.2803 -0.9914  0.0724
 7984SOL     OW35605   4.701   2.903   5.224 -0.6687  0.2225  0.0706
 7984SOL    HW135606   4.640   2.844   5.172 -0.9524  0.7336 -0.1914
 7984SOL    HW235607   4.767   2.945   5.161  0.4247 -0.8873  0.4506
 7985SOL     OW35608   1.875   3.573   3.168 -0.1662  0.0164 -0.0036
 7985SOL    HW135609   1.809   3.542   3.099  0.5013  0.7297 -0.9735
 7985SOL    HW235610   1.882   3.672   3.165  2.0552 -0.1412 -0.9430
 7986SOL     OW35611   0.065   2.848   4.447 -0.1866 -0.3894  0.2784
 7986SOL    HW135612   0.011   2.917   4.496  0.6782  0.0572  0.6125
 7986SOL    HW235613   0.113   2.891   4.371  1.4611 -0.3267  1.3284
 7987SOL     OW35614   7.254   8.015   5.197  0.1391  0.4376  0.4916
 7987SOL    HW135615   7.192   7.971   5.262  0.3442  1.4117  1.3661
 7987SOL    HW235616   7.286   8.101   5.235  3.5019 -0.9093  0.8947
 7988SOL     OW35617   3.193   4.738   6.217  0.1093 -0.1488  0.7908
 7988SOL    HW135618   3.178   4.647   6.177  1.6927  0.0281 -0.2669
 7988SOL    HW235619   3.115   4.762   6.275 -1.5934 -1.0404 -1.0526
 7989SOL     OW35620   3.380   6.013   6.202 -0.1994 -0.3767 -0.2901
 7989SOL    HW135621   3.470   5.994   6.242 -0.7321 -0.8403  0.7052
 7989SOL    HW235622   3.381   5.988   6.105 -0.0956 -3.0584  0.3611
 7990SOL     OW35623   1.981   6.488   3.055  0.1469  0.1502 -0.3987
 7990SOL    HW135624   1.970   6.422   2.981 -1.1085 -1.1140  0.8777
 7990SOL    HW235625   1.922   6.568   3.038 -0.9476 -0.6149 -0.2389
 7991SOL     OW35626   2.577   6.001   1.190  0.2684  0.4819 -0.2837
 7991SOL    HW135627   2.552   6.088   1.147 -1.5103  0.7329  1.1894
 7991SOL    HW235628   2.494   5.956   1.225  1.2610 -1.4335 -0.3182
 7992SOL     OW35629   1.403   5.028   4.326 -0.0437  0.5826 -0.0986
 7992SOL    HW135630   1.373   5.045   4.232 -1.1345 -1.0162 -0.0495
 7992SOL    HW235631   1.392   5.112   4.380 -1.0590  1.0217 -0.9672
 7993SOL     OW35632   3.326   1.140   0.602 -0.2898  0.1245 -0.0040
 7993SOL    HW135633   3.280   1.112   0.517 -0.5073  0.6369 -0.0577
 7993SOL    HW235634   3.402   1.078   0.621 -0.0348  0.2093 -0.7532
 7994SOL     OW35635   2.566   0.351   4.637  0.1873  0.1456  0.3952
 7994SOL    HW135636   2.634   0.308   4.577  0.2861  1.7025 -0.6153
 7994SOL    HW235637   2.507   0.280   4.676  1.6446 -1.1147  0.3739
 7995SOL     OW35638   4.124   1.079   2.923 -0.1973  0.5626 -0.0661
 7995SOL    HW135639   4.111   1.030   2.837 -3.0023 -0.6398  0.9849
 7995SOL    HW235640   4.063   1.158   2.926  0.4700  1.0585  0.4704
 7996SOL     OW35641   8.439   7.844   3.983  0.2794  0.0036 -0.2396
 7996SOL    HW135642   8.382   7.902   4.041 -0.2781 -0.4912 -0.2809
 7996SOL    HW235643   8.428   7.748   4.010  0.9090 -0.1213 -0.4067
 7997SOL     OW35644   9.246   0.100   1.000 -0.0151 -0.0241  0.0477
 7997SOL    HW135645   9.304   0.111   0.920 -0.6174  0.0492 -0.3813
 7997SOL    HW235646   9.216   0.190   1.033 -2.3394 -0.1673 -1.5465
 7998SOL     OW35647   3.685   2.056   1.951 -0.1399  0.6098 -0.1970
 7998SOL    HW135648   3.614   2.088   1.888 -0.1913  0.8446 -0.0185
 7998SOL    HW235649   3.646   2.045   2.042 -0.1959 -0.2506 -0.3211
 7999SOL     OW35650   2.301   8.524   3.537 -0.0554  0.1162  0.4211
 7999SOL    HW135651   2.375   8.489   3.594 -0.8273 -0.0966  1.3030
 7999SOL    HW235652   2.217   8.473   3.557 -0.2860 -0.1086 -1.0585
 8000SOL     OW35653   8.406   1.334   2.424  0.0116  0.7214  0.0956
 8000SOL    HW135654   8.376   1.356   2.331 -1.5294  1.1784  0.6809
 8000SOL    HW235655   8.446   1.242   2.425  0.7715  1.0310 -1.1684
 8001SOL     OW35656   2.099   6.192   3.689 -0.2698  0.0287  0.0377
 8001SOL    HW135657   2.174   6.227   3.745 -0.3528  0.4621 -0.1257
 8001SOL    HW235658   2.032   6.264   3.674 -0.7156 -0.3571  0.1756
 8002SOL     OW35659   2.047   4.148   3.968  0.3085  0.4084 -0.0573
 8002SOL    HW135660   1.965   4.098   3.940 -0.5926  2.6574 -1.5412
 8002SOL    HW235661   2.124   4.123   3.908  0.1929 -0.0960 -0.0024
 8003SOL     OW35662   8.096   4.808   5.975 -0.2406 -0.0342 -0.3034
 8003SOL    HW135663   8.115   4.868   5.898  0.8464  0.5257  0.3760
 8003SOL    HW235664   8.048   4.859   6.046  0.1602 -0.1222  0.0329
 8004SOL     OW35665   0.644   5.923   0.802  0.3344  1.0369 -0.1348
 8004SOL    HW135666   0.598   5.836   0.820 -1.7173  1.8007 -1.4522
 8004SOL    HW235667   0.650   5.938   0.704  1.3512  2.0313  0.0675
 8005SOL     OW35668   9.674   8.056   0.520  0.2670 -0.2546  0.2630
 8005SOL    HW135669   9.731   8.011   0.450  1.2030 -1.3079  1.6671
 8005SOL    HW235670   9.625   8.132   0.479  1.1064 -0.6138 -1.4601
 8006SOL     OW35671   4.530   1.271   0.470 -0.3117  0.4948  0.2582
 8006SOL    HW135672   4.598   1.272   0.397  1.2017 -0.6881  1.6155
 8006SOL    HW235673   4.488   1.180   0.476 -2.8020  1.4879 -1.2367
 8007SOL     OW35674   5.114   0.188   4.229  0.2900 -0.1122  0.5348
 8007SOL    HW135675   5.191   0.226   4.177  1.4411 -0.3222  2.0681
 8007SOL    HW235676   5.029   0.201   4.177  1.2760  0.6406 -0.9082
 8008SOL     OW35677   2.635   2.814   8.209 -0.6542 -0.0716 -0.8650
 8008SOL    HW135678   2.677   2.737   8.258  1.5511  1.1397 -0.7854
 8008SOL    HW235679   2.539   2.794   8.192 -0.4974 -2.1867  0.5200
 8009SOL     OW35680   8.851   2.907   5.014  0.3267  0.2860 -0.5710
 8009SOL    HW135681   8.914   2.888   4.939 -0.6396 -2.2325 -0.7720
 8009SOL    HW235682   8.903   2.939   5.093  1.5555  0.9082 -1.6101
 8010SOL     OW35683   3.400   7.402   2.350  0.4488  0.1477 -0.5155
 8010SOL    HW135684   3.412   7.352   2.264  0.5311 -0.7822  0.0391
 8010SOL    HW235685   3.483   7.392   2.406  1.1100  2.2058 -1.0703
 8011SOL     OW35686   4.752   4.816   7.223  0.0866  0.8218  0.3263
 8011SOL    HW135687   4.808   4.894   7.250  0.0661  1.9210 -2.6737
 8011SOL    HW235688   4.810   4.746   7.180 -0.3222  0.4366  0.3892
 8012SOL     OW35689   1.892   2.059   3.574  0.0930  0.2262 -0.0755
 8012SOL    HW135690   1.872   2.004   3.655 -0.0753  1.3648  0.6666
 8012SOL    HW235691   1.859   2.152   3.588 -0.1368  0.3741 -1.5492
 8013SOL     OW35692   1.867   4.402   8.027 -0.1659  0.2026  0.3943
 8013SOL    HW135693   1.900   4.495   8.045 -0.4165  0.3806 -0.0500
 8013SOL    HW235694   1.770   4.406   8.003 -0.6766 -0.3614  2.2404
 8014SOL     OW35695   9.237   2.014   2.700 -0.0851 -0.1781  0.2781
 8014SOL    HW135696   9.334   2.024   2.720 -0.1280  0.6474  0.1117
 8014SOL    HW235697   9.187   2.092   2.738 -0.4008  0.4573 -1.3991
 8015SOL     OW35698   1.475   7.728   0.514  0.2883  0.1150  0.2628
 8015SOL    HW135699   1.421   7.685   0.441  0.7167  0.5654 -0.3343
 8015SOL    HW235700   1.525   7.658   0.564 -0.9064 -0.3079  0.8670
 8016SOL     OW35701   8.544   1.860   0.644 -0.3471  0.0266 -0.4539
 8016SOL    HW135702   8.497   1.808   0.572  0.3815  0.1272 -1.0037
 8016SOL    HW235703   8.599   1.932   0.602 -0.9131  0.8926  0.2805
 8017SOL     OW35704   9.400   1.342   3.716  0.1001  0.4338  0.3233
 8017SOL    HW135705   9.387   1.308   3.810  2.6515  2.8744  1.6299
 8017SOL    HW235706   9.345   1.424   3.703  0.7970  0.8777  0.1540
 8018SOL     OW35707   6.122   3.843   2.217 -0.4759  0.5112  0.1780
 8018SOL    HW135708   6.153   3.773   2.152 -0.8643  0.3263  0.1921
 8018SOL    HW235709   6.198   3.906   2.236 -0.3589  0.5661 -0.4535
 8019SOL     OW35710   2.734   1.156   7.271  0.3756  0.1185  0.3060
 8019SOL    HW135711   2.787   1.185   7.191 -0.4399 -1.1833 -0.7065
 8019SOL    HW235712   2.740   1.057   7.282 -1.1890  0.0534  0.6634
 8020SOL     OW35713   7.206   2.807   0.338  0.4552  0.1809  0.3319
 8020SOL    HW135714   7.242   2.721   0.301 -0.5019 -0.5723  1.1003
 8020SOL    HW235715   7.115   2.823   0.302  0.0584  0.1293  1.3017
 8021SOL     OW35716   5.041   3.357   1.734  0.6086  0.3243 -0.2826
 8021SOL    HW135717   5.037   3.444   1.684  0.4350  0.0315 -0.7884
 8021SOL    HW235718   5.134   3.321   1.730  0.8005  0.7523  0.3856
 8022SOL     OW35719   7.920   4.434   0.354 -0.1304 -0.7619 -0.3871
 8022SOL    HW135720   7.992   4.425   0.422  0.0270  0.5790 -0.3665
 8022SOL    HW235721   7.945   4.381   0.272  1.4048  0.5465 -0.7952
 8023SOL     OW35722   3.430   7.218   2.152  0.0547  0.0200 -0.4763
 8023SOL    HW135723   3.425   7.246   2.056 -0.1041  0.0981 -0.4442
 8023SOL    HW235724   3.490   7.138   2.160 -1.9786 -1.5876 -0.9986
 8024SOL     OW35725   2.443   9.717   5.875 -0.3916 -0.7002 -0.0651
 8024SOL    HW135726   2.524   9.689   5.823  0.0224 -0.6750  0.5541
 8024SOL    HW235727   2.430   9.655   5.951  1.2247  1.3963  2.0275
 8025SOL     OW35728   7.400   8.461   6.585 -0.8842 -0.4413 -0.4452
 8025SOL    HW135729   7.395   8.362   6.574  0.7345 -0.4923 -0.9860
 8025SOL    HW235730   7.310   8.498   6.605 -1.2709 -2.1842  1.1539
 8026SOL     OW35731   0.342   0.495   1.628  0.6027  0.1589 -0.3528
 8026SOL    HW135732   0.433   0.486   1.668 -0.4322 -0.9486  1.8237
 8026SOL    HW235733   0.303   0.583   1.653 -0.0334 -0.5216  1.1448
 8027SOL     OW35734   8.599   2.535   5.698 -0.7170 -0.4937  0.0516
 8027SOL    HW135735   8.507   2.541   5.658 -0.8075 -1.0456  0.1804
 8027SOL    HW235736   8.596   2.565   5.793 -0.3133  1.8279 -0.6187
 8028SOL     OW35737   7.125   0.130   2.175 -0.1376  0.7738 -0.2907
 8028SOL    HW135738   7.110   0.045   2.225  1.6151  0.4721 -0.2242
 8028SOL    HW235739   7.040   0.182   2.169 -1.8139 -2.1069 -2.4963
 8029SOL     OW35740   9.763   1.230   6.541 -0.2906  0.3471  0.3729
 8029SOL    HW135741   9.742   1.133   6.551 -0.2145  0.4112  1.1599
 8029SOL    HW235742   9.703   1.284   6.600  0.5333  0.6861  0.9094
 8030SOL     OW35743   0.786   3.664   4.796 -0.1249 -0.6143  0.1960
 8030SOL    HW135744   0.744   3.686   4.708  1.4377 -2.1738 -0.9624
 8030SOL    HW235745   0.873   3.617   4.781  0.5025 -0.2666  2.5799
 8031SOL     OW35746   8.482   1.670   6.580 -0.0125  0.5306  0.7037
 8031SOL    HW135747   8.520   1.578   6.589 -1.4368 -0.1022  0.3607
 8031SOL    HW235748   8.556   1.737   6.587  1.1844 -0.6796 -0.0943
 8032SOL     OW35749   9.826   3.020   1.425 -0.4730  0.0975 -0.2260
 8032SOL    HW135750   9.729   3.011   1.450 -1.0501  0.9978 -2.0583
 8032SOL    HW235751   9.857   2.937   1.380 -0.6592  0.1679 -0.4845
 8033SOL     OW35752   2.268   8.015   1.490 -0.6951  0.2567 -0.7850
 8033SOL    HW135753   2.271   8.046   1.395  0.1964 -0.0275 -0.8590
 8033SOL    HW235754   2.238   7.919   1.493  2.8943 -0.9873 -1.1408
 8034SOL     OW35755   8.391   7.494   6.241 -0.6136  0.2938 -0.4644
 8034SOL    HW135756   8.349   7.577   6.205  0.4796  1.4063  0.7538
 8034SOL    HW235757   8.455   7.456   6.174  0.2502  1.4725 -0.3164
 8035SOL     OW35758   2.687   4.292   7.764 -0.0130  0.2322  0.2310
 8035SOL    HW135759   2.744   4.317   7.686  5.5958 -1.4586  3.5676
 8035SOL    HW235760   2.664   4.195   7.759  0.9289 -0.0371  0.9838
 8036SOL     OW35761   9.950   9.066   4.425  0.0974  0.0361  0.1632
 8036SOL    HW135762   9.945   9.166   4.427 -2.0913 -0.0255 -1.0261
 8036SOL    HW235763  10.017   9.037   4.356 -0.0894  0.6700 -0.2907
 8037SOL     OW35764   9.642   0.813   6.799 -0.3771 -0.1433 -0.2505
 8037SOL    HW135765   9.543   0.827   6.801 -0.3661 -0.2521  1.7114
 8037SOL    HW235766   9.682   0.844   6.885  1.3464  0.2095 -1.1662
 8038SOL     OW35767   8.713   3.873   5.787  0.5583  0.1073  0.4784
 8038SOL    HW135768   8.777   3.814   5.739 -0.0830 -0.1751 -0.0370
 8038SOL    HW235769   8.730   3.969   5.762  0.1046 -0.0561 -0.4529
 8039SOL     OW35770   2.743   2.336   2.562 -0.2714  0.0871  0.0788
 8039SOL    HW135771   2.747   2.245   2.521 -0.4685  1.1131 -2.3145
 8039SOL    HW235772   2.648   2.367   2.565 -0.1992  0.2417  0.8262
 8040SOL     OW35773   4.074   2.782   5.812 -0.1500 -0.0932 -0.4805
 8040SOL    HW135774   4.086   2.686   5.791  0.9674  0.5466 -2.9274
 8040SOL    HW235775   4.027   2.828   5.736 -1.1052  1.2217  0.8485
 8041SOL     OW35776   6.763   9.020   4.417  0.5768  0.5949 -0.0046
 8041SOL    HW135777   6.728   9.012   4.324  0.4512 -0.5808  0.1362
 8041SOL    HW235778   6.701   9.076   4.472  0.1258  0.4423 -0.3586
 8042SOL     OW35779   7.828   3.508   4.440 -0.6876  0.0063  0.3087
 8042SOL    HW135780   7.902   3.444   4.460 -2.2041 -1.4233  1.4984
 8042SOL    HW235781   7.775   3.474   4.362 -1.5720 -0.2835  1.0221
 8043SOL     OW35782   1.962   9.914   7.852  0.2648 -0.8834  0.6371
 8043SOL    HW135783   1.962   9.874   7.760  0.3501 -1.0850  0.7245
 8043SOL    HW235784   2.024   9.992   7.854 -2.2175  1.1897 -0.3702
 8044SOL     OW35785   7.752   0.300   6.876 -0.1697  0.5697  0.5579
 8044SOL    HW135786   7.829   0.306   6.812 -1.9106  0.9897 -1.5230
 8044SOL    HW235787   7.672   0.344   6.836 -1.6133 -0.2211  2.5448
 8045SOL     OW35788   0.888   2.532   1.605  0.2998  0.1294  0.1274
 8045SOL    HW135789   0.816   2.572   1.548 -0.8719 -0.8021  0.9313
 8045SOL    HW235790   0.928   2.454   1.558  0.3989  0.2935 -0.0650
 8046SOL     OW35791   2.930   2.938   3.019  0.0905  0.7841  0.1624
 8046SOL    HW135792   2.839   2.971   3.043 -0.6097 -0.4174 -0.7686
 8046SOL    HW235793   2.961   2.872   3.087 -0.2009  0.3730 -0.1026
 8047SOL     OW35794   2.604   0.513   3.698 -0.3393  0.1750 -0.5412
 8047SOL    HW135795   2.518   0.508   3.648 -0.3610  0.8411 -0.5710
 8047SOL    HW235796   2.667   0.575   3.651  0.7246 -1.4845 -1.3650
 8048SOL     OW35797   2.588   5.396   0.100  0.1079 -0.3975  0.0543
 8048SOL    HW135798   2.500   5.350   0.092  0.2877 -0.6926 -0.2200
 8048SOL    HW235799   2.620   5.391   0.194 -0.7536  0.7802  0.4303
 8049SOL     OW35800   8.235   0.396   1.139  0.1549  0.1118 -0.2349
 8049SOL    HW135801   8.317   0.340   1.133 -0.3827 -0.7685  0.5465
 8049SOL    HW235802   8.192   0.384   1.228  0.0759  1.8294 -0.0292
 8050SOL     OW35803   0.118   2.959   7.029  0.1045  0.4037 -0.3351
 8050SOL    HW135804   0.147   3.053   7.010 -1.6345  1.0633  0.1835
 8050SOL    HW235805   0.018   2.954   7.029  0.1780 -1.4859 -0.4932
 8051SOL     OW35806   7.463   0.603   4.911 -0.3040 -0.2946  0.1023
 8051SOL    HW135807   7.495   0.592   5.005 -0.5323 -0.7884  0.1253
 8051SOL    HW235808   7.370   0.567   4.903 -0.5005  0.2825 -0.1793
 8052SOL     OW35809   2.087   0.187   2.297  0.3903  0.5023  0.1159
 8052SOL    HW135810   2.167   0.170   2.239  0.8023  3.2304 -0.1493
 8052SOL    HW235811   2.008   0.207   2.240 -0.2079 -0.8792  0.4242
 8053SOL     OW35812   8.129   2.595   3.506  0.1610 -0.3058 -0.7098
 8053SOL    HW135813   8.054   2.637   3.557  1.0202  0.2543  0.1035
 8053SOL    HW235814   8.176   2.664   3.451  1.9694 -0.0421  1.1148
 8054SOL     OW35815   0.380   8.664   5.688  0.7078  0.2577  0.7468
 8054SOL    HW135816   0.417   8.704   5.604 -1.9647  0.3512 -0.4279
 8054SOL    HW235817   0.386   8.564   5.683  0.6185  0.2656  0.4718
 8055SOL     OW35818   0.745   4.907   0.427 -0.4586 -0.3078  0.2864
 8055SOL    HW135819   0.801   4.989   0.441 -0.5499 -0.4229  1.3500
 8055SOL    HW235820   0.680   4.897   0.502 -0.2868 -1.4812  0.2986
 8056SOL     OW35821   9.876   8.794   6.417  0.1159  0.6380 -0.3919
 8056SOL    HW135822   9.909   8.874   6.367  0.8323  0.3953 -0.3140
 8056SOL    HW235823   9.884   8.811   6.515  1.7924 -0.1295 -0.3662
 8057SOL     OW35824   4.235   7.333   4.992  0.1053  0.7852 -0.0685
 8057SOL    HW135825   4.282   7.273   5.056  0.9736  1.0700 -0.4275
 8057SOL    HW235826   4.153   7.370   5.034  0.3515  0.4999  0.6645
 8058SOL     OW35827   8.554   9.194   5.227  0.3932  0.1188  0.4355
 8058SOL    HW135828   8.557   9.111   5.172 -0.0735 -0.1712  0.8379
 8058SOL    HW235829   8.520   9.172   5.319 -0.3245  0.8505  0.3512
 8059SOL     OW35830   7.653   8.175   6.647 -0.0090 -0.0619  0.2692
 8059SOL    HW135831   7.593   8.095   6.656  1.4749 -1.1134  1.0115
 8059SOL    HW235832   7.630   8.242   6.718 -0.8979 -0.0615 -0.0182
 8060SOL     OW35833   7.635   8.277   5.718 -0.2030  0.0345 -0.1080
 8060SOL    HW135834   7.668   8.238   5.632  1.2307 -0.9594  0.8572
 8060SOL    HW235835   7.677   8.367   5.732  2.2735 -1.2446  1.1376
 8061SOL     OW35836   3.157   9.028   1.608 -0.5065 -0.3083 -0.8111
 8061SOL    HW135837   3.250   9.054   1.585 -0.6316  0.1036 -0.8480
 8061SOL    HW235838   3.126   8.956   1.545 -0.1028 -0.6755 -0.5959
 8062SOL     OW35839   0.551   4.205   3.913 -0.1448  0.3077 -0.4282
 8062SOL    HW135840   0.522   4.147   3.989 -0.3894  1.8503  0.6855
 8062SOL    HW235841   0.514   4.297   3.925 -0.8876  0.3564 -2.8838
 8063SOL     OW35842   2.809   4.211   4.838 -0.6404 -0.5532  0.3874
 8063SOL    HW135843   2.802   4.140   4.768 -0.1316 -2.1490  1.9101
 8063SOL    HW235844   2.902   4.210   4.876 -0.7496  0.6668  0.6871
 8064SOL     OW35845   3.412   6.287   1.239  0.2790  0.0171  0.5584
 8064SOL    HW135846   3.469   6.285   1.321  3.4509  2.4224 -1.4678
 8064SOL    HW235847   3.345   6.212   1.243  1.5084 -1.0036  4.4475
 8065SOL     OW35848   8.767   2.998   8.012 -0.1192 -0.2752  0.3773
 8065SOL    HW135849   8.754   3.000   8.111  1.7056  0.4835  0.6306
 8065SOL    HW235850   8.768   2.904   7.980  0.2718 -0.5596  1.2177
 8066SOL     OW35851   4.599   8.823   3.237 -0.3829  0.3433  0.0524
 8066SOL    HW135852   4.568   8.851   3.329 -1.4125 -2.2235  0.5112
 8066SOL    HW235853   4.571   8.892   3.171  0.6225  2.3919  1.6775
 8067SOL     OW35854   2.569   1.978   0.808  0.0803 -0.1030  0.1694
 8067SOL    HW135855   2.644   2.014   0.752  0.5010  1.8803  1.9585
 8067SOL    HW235856   2.605   1.945   0.895 -0.9010 -0.7518  0.3320
 8068SOL     OW35857   3.679   6.766   3.491 -0.0458  0.3278  0.1434
 8068SOL    HW135858   3.778   6.776   3.501 -0.2052  1.7141  0.4099
 8068SOL    HW235859   3.652   6.786   3.397  0.0848 -1.4390 -0.2853
 8069SOL     OW35860   6.019   7.172   1.681  0.0511 -0.1698  0.3234
 8069SOL    HW135861   6.044   7.144   1.589  2.4240 -3.1759  1.8089
 8069SOL    HW235862   5.930   7.135   1.705  0.2515 -0.9174 -0.0948
 8070SOL     OW35863   2.090   4.934   7.013  0.1233 -0.6506 -0.3416
 8070SOL    HW135864   2.001   4.933   6.967  0.0306  0.8129 -0.2190
 8070SOL    HW235865   2.102   5.021   7.061  1.9228 -0.5307 -0.9500
 8071SOL     OW35866   4.854   8.819   5.174  0.7608  0.6511 -0.3322
 8071SOL    HW135867   4.915   8.833   5.252  1.2481 -2.1814 -0.1809
 8071SOL    HW235868   4.763   8.793   5.207  0.1289  2.3689 -0.6475
 8072SOL     OW35869   4.842   8.575   0.582  0.3054  0.2071 -0.0629
 8072SOL    HW135870   4.863   8.608   0.490  1.6632 -0.9519 -0.1863
 8072SOL    HW235871   4.808   8.651   0.637  0.8020  1.2190 -1.1239
 8073SOL     OW35872   5.822   3.999   1.068 -0.8949  0.0218 -0.1963
 8073SOL    HW135873   5.830   3.905   1.101 -0.4888 -0.5715 -1.9054
 8073SOL    HW235874   5.911   4.044   1.073 -1.0395  0.2434  0.4067
 8074SOL     OW35875   7.452   9.737   3.032 -0.0726  0.2985 -0.0550
 8074SOL    HW135876   7.513   9.658   3.021  0.3535  0.5438  0.4829
 8074SOL    HW235877   7.505   9.816   3.062 -1.1176 -0.4021  3.9712
 8075SOL     OW35878   2.501   5.152   0.315 -0.2971  0.1680 -0.1094
 8075SOL    HW135879   2.560   5.151   0.397  0.8176 -0.1538 -0.9052
 8075SOL    HW235880   2.428   5.219   0.328  0.4682  0.8601  0.7455
 8076SOL     OW35881   3.079   5.158   1.663  0.3664  0.4024  0.4881
 8076SOL    HW135882   3.155   5.196   1.609 -0.6511  2.3682  0.4012
 8076SOL    HW235883   3.059   5.218   1.740 -2.2695  0.9003 -0.5082
 8077SOL     OW35884   8.827   1.264   8.070  0.0826 -0.6521 -0.0948
 8077SOL    HW135885   8.903   1.304   8.019  0.4092 -2.4113 -1.0226
 8077SOL    HW235886   8.809   1.172   8.036 -0.8966 -1.1618  1.7430
 8078SOL     OW35887   4.843   4.606   5.444  0.7943 -0.8003 -1.0550
 8078SOL    HW135888   4.903   4.681   5.416  1.3690 -0.3034  1.3695
 8078SOL    HW235889   4.897   4.535   5.490 -0.2792 -0.8874  0.1100
 8079SOL     OW35890   7.256   1.873   0.400  0.2475  0.8813 -0.1522
 8079SOL    HW135891   7.333   1.812   0.415 -2.2468 -1.6763  3.1836
 8079SOL    HW235892   7.200   1.839   0.324 -0.5010 -0.4396  0.9526
 8080SOL     OW35893   1.485   6.323   4.685  0.9740 -0.4656 -0.2585
 8080SOL    HW135894   1.466   6.348   4.590 -0.1075 -0.7682 -0.1277
 8080SOL    HW235895   1.437   6.239   4.708  0.5996  0.0222  0.7836
 8081SOL     OW35896   5.100   8.210   2.066 -0.0701 -0.3273  0.9868
 8081SOL    HW135897   5.093   8.216   1.967  0.2277  0.6038  1.0132
 8081SOL    HW235898   5.195   8.222   2.094 -0.2198 -0.1056  1.4119
 8082SOL     OW35899   4.287   9.388   3.002  0.4860 -0.3482  0.7247
 8082SOL    HW135900   4.274   9.426   2.911 -0.4486 -0.6002  0.7488
 8082SOL    HW235901   4.385   9.383   3.023  0.8238 -2.3317 -1.1360
 8083SOL     OW35902   9.799   2.877   4.818 -0.0422  0.2311 -0.5829
 8083SOL    HW135903   9.824   2.913   4.728  0.6066 -0.8583 -0.8489
 8083SOL    HW235904   9.825   2.942   4.889  0.1003  0.7728 -1.1306
 8084SOL     OW35905   1.318   9.280   0.287 -0.4122 -0.1427 -0.1600
 8084SOL    HW135906   1.311   9.378   0.300 -1.6874 -0.1504 -0.7793
 8084SOL    HW235907   1.392   9.244   0.344 -1.0408  0.9175  1.3478
 8085SOL     OW35908   4.903   0.094   5.819  0.0565 -0.1666 -0.4097
 8085SOL    HW135909   4.890   0.076   5.721  0.2615 -0.0679 -0.4543
 8085SOL    HW235910   4.983   0.151   5.832  0.2305 -0.4668 -0.1544
 8086SOL     OW35911   9.931   5.262   6.657  0.1808  0.2472 -0.5256
 8086SOL    HW135912   9.885   5.273   6.569 -0.0413  1.0327 -0.3214
 8086SOL    HW235913   9.868   5.220   6.722  0.6483 -1.1854 -0.9919
 8087SOL     OW35914   7.998   8.619   0.829  0.2084 -0.6451 -0.0044
 8087SOL    HW135915   8.025   8.662   0.915  2.3249  0.0125 -0.9528
 8087SOL    HW235916   7.900   8.602   0.829 -0.2785  1.9725  1.3688
 8088SOL     OW35917   8.950   9.583   0.839 -0.3865  0.0437  0.2511
 8088SOL    HW135918   8.854   9.606   0.822 -0.0389  1.2949 -0.0051
 8088SOL    HW235919   9.005   9.609   0.760  0.1795 -0.6747  0.3964
 8089SOL     OW35920   9.151   4.921   6.598 -0.3179 -0.2147  0.1819
 8089SOL    HW135921   9.187   4.852   6.661  1.5358  1.8076  1.3988
 8089SOL    HW235922   9.224   4.950   6.536 -1.2926  0.0943 -0.8298
 8090SOL     OW35923   3.908   5.017   3.403  0.3791 -0.1605 -0.3117
 8090SOL    HW135924   3.911   5.035   3.502  0.4696 -0.6513 -0.2227
 8090SOL    HW235925   3.916   5.103   3.353 -0.9440  0.2423  0.1243
 8091SOL     OW35926   8.867   0.080   1.345  0.2420 -0.0633  0.2773
 8091SOL    HW135927   8.787   0.106   1.400 -0.1987  0.1176 -0.4453
 8091SOL    HW235928   8.858   0.118   1.253  1.8454  1.1839  0.5923
 8092SOL     OW35929   7.633   3.876   3.809 -0.0814 -0.1763  0.0250
 8092SOL    HW135930   7.535   3.890   3.796 -0.2094  0.6337  1.8060
 8092SOL    HW235931   7.679   3.964   3.817  1.1587 -0.4755 -3.2217
 8093SOL     OW35932   1.580   2.556   6.105  0.1359 -0.1381  0.5543
 8093SOL    HW135933   1.503   2.524   6.160 -0.3377  0.4545  0.2400
 8093SOL    HW235934   1.655   2.582   6.166 -0.2084  0.0478  0.9080
 8094SOL     OW35935   6.936   9.347   1.786  0.8099  0.3884 -0.1253
 8094SOL    HW135936   6.949   9.404   1.867  1.5992  0.0978 -0.0463
 8094SOL    HW235937   6.906   9.256   1.814 -0.3104  0.7076 -0.2441
 8095SOL     OW35938   5.163   1.934   5.683  0.2719  0.3336  0.3287
 8095SOL    HW135939   5.201   2.005   5.743 -0.2312  0.6242  0.3078
 8095SOL    HW235940   5.149   1.972   5.592 -1.4005  0.6506  0.6992
 8096SOL     OW35941   9.363   6.969   5.925  0.1997  0.1140  0.1976
 8096SOL    HW135942   9.404   6.921   5.848  1.2133  0.8595  0.2672
 8096SOL    HW235943   9.269   6.996   5.902  1.3087  2.5052 -1.7059
 8097SOL     OW35944   1.916   4.151   0.021 -0.4508 -0.0125 -0.3706
 8097SOL    HW135945   1.889   4.225  -0.041 -1.6491 -0.1243  0.0038
 8097SOL    HW235946   1.842   4.132   0.086 -0.3851 -1.9007 -0.7961
 8098SOL     OW35947   9.642   3.274   6.437 -0.4780  0.3866  0.3974
 8098SOL    HW135948   9.567   3.288   6.502 -1.0464 -1.1206  0.0928
 8098SOL    HW235949   9.721   3.237   6.486 -0.1680  1.2754  0.5870
 8099SOL     OW35950   4.963   1.866   1.239 -0.6767  0.6769  0.0925
 8099SOL    HW135951   4.921   1.956   1.252 -2.8187 -0.3497  0.3148
 8099SOL    HW235952   4.988   1.855   1.142 -3.2459  0.3011 -0.5450
 8100SOL     OW35953   3.478   7.632   5.970 -0.5137  0.4204 -0.0833
 8100SOL    HW135954   3.550   7.579   6.015 -1.6141 -0.5889  0.5307
 8100SOL    HW235955   3.409   7.659   6.037 -2.7091 -2.0102 -1.2602
 8101SOL     OW35956   8.155   9.370   3.655  0.3406 -0.2234 -0.2923
 8101SOL    HW135957   8.160   9.463   3.618 -1.5858 -0.1816 -0.5064
 8101SOL    HW235958   8.080   9.321   3.610  0.4675 -1.4320  0.7999
 8102SOL     OW35959   7.829   5.009   3.837 -0.7571 -0.0888  0.1293
 8102SOL    HW135960   7.872   5.001   3.747  0.6504  2.8682  0.4618
 8102SOL    HW235961   7.761   5.083   3.834 -0.7168  0.0173  1.4748
 8103SOL     OW35962   0.467   7.318   5.954 -0.3278  0.5294 -0.0822
 8103SOL    HW135963   0.469   7.247   6.024 -2.1082 -0.3696 -0.9122
 8103SOL    HW235964   0.560   7.349   5.935  0.2276  0.4012  2.2687
 8104SOL     OW35965   4.481   2.246   7.424 -0.3062  0.2602 -0.0839
 8104SOL    HW135966   4.577   2.267   7.411 -0.5017  1.6544  0.6719
 8104SOL    HW235967   4.455   2.264   7.519 -1.4880  0.6297 -0.4681
 8105SOL     OW35968   7.669   4.181   7.384 -0.3000 -0.2022  0.3059
 8105SOL    HW135969   7.762   4.150   7.400 -0.8297 -1.1514  1.6761
 8105SOL    HW235970   7.627   4.206   7.471 -1.3545  0.1163 -0.2846
 8106SOL     OW35971   7.281   2.714   5.691 -0.0063 -0.0567  0.4946
 8106SOL    HW135972   7.187   2.716   5.659  0.3605  1.5499 -0.5468
 8106SOL    HW235973   7.300   2.626   5.735 -2.5685  0.3901  2.5584
 8107SOL     OW35974   2.353   4.488   1.033 -0.0569  0.4957  0.4214
 8107SOL    HW135975   2.361   4.587   1.017  0.3673  0.4449  0.3124
 8107SOL    HW235976   2.388   4.439   0.953 -0.1689  0.2572  0.5197
 8108SOL     OW35977   2.444   4.808   6.109 -0.6378  0.1742 -0.1045
 8108SOL    HW135978   2.460   4.782   6.205  0.0318  1.3520  0.1087
 8108SOL    HW235979   2.347   4.801   6.088 -0.8249  0.1831  0.7493
 8109SOL     OW35980   1.450   6.099   3.840  0.2916  0.3604  0.6017
 8109SOL    HW135981   1.452   6.037   3.761 -2.2528  1.0148 -0.0093
 8109SOL    HW235982   1.505   6.060   3.914  0.0752 -1.8103 -0.3450
 8110SOL     OW35983   9.977   5.394   2.103  0.4973 -0.2909  0.2884
 8110SOL    HW135984   9.926   5.354   2.178 -0.3287  0.7060  0.2613
 8110SOL    HW235985   9.937   5.482   2.077  1.5189 -0.0364 -0.4944
 8111SOL     OW35986   5.046   4.516   0.741 -0.0406  0.5201 -0.4647
 8111SOL    HW135987   5.016   4.426   0.708 -0.3783  0.3475  0.2880
 8111SOL    HW235988   5.068   4.575   0.664 -1.3904  0.3216 -1.0177
 8112SOL     OW35989   9.593   5.328   7.158  0.1594  0.3014 -0.0886
 8112SOL    HW135990   9.631   5.384   7.085  1.7208 -0.7523 -0.1213
 8112SOL    HW235991   9.604   5.231   7.135 -2.0447 -0.0292  0.1950
 8113SOL     OW35992   1.652   8.615   7.681  0.6403  1.0285 -0.3079
 8113SOL    HW135993   1.609   8.700   7.650  2.4830  2.7218  1.6609
 8113SOL    HW235994   1.597   8.537   7.651 -1.8108  2.9689 -0.9860
 8114SOL     OW35995   8.257   8.167   7.805  0.8395  0.7184 -0.4206
 8114SOL    HW135996   8.271   8.069   7.815  0.5584  0.6704 -0.5003
 8114SOL    HW235997   8.328   8.206   7.747 -0.2183  0.2188 -2.0975
 8115SOL     OW35998   7.669   5.634   5.088 -0.2238 -0.3669  0.1336
 8115SOL    HW135999   7.646   5.575   5.166  0.1082 -1.3731 -0.5131
 8115SOL    HW236000   7.590   5.641   5.028 -0.1919 -0.3508  0.0929
 8116SOL     OW36001   8.303   8.070   5.216  0.6166 -0.5045 -0.0400
 8116SOL    HW136002   8.376   8.002   5.206  1.1937  0.0971  0.0552
 8116SOL    HW236003   8.238   8.060   5.141  0.5842 -1.2934  0.0823
 8117SOL     OW36004   1.943   8.107   1.598  0.0723  0.3211  0.2620
 8117SOL    HW136005   2.007   8.164   1.547 -0.0574  1.3175  1.1949
 8117SOL    HW236006   1.980   8.089   1.690 -1.3216  1.5391  1.0715
 8118SOL     OW36007   9.349   3.554   5.369 -0.0048  0.4235 -0.4748
 8118SOL    HW136008   9.374   3.575   5.274 -0.0616  1.6191 -0.2391
 8118SOL    HW236009   9.430   3.564   5.428  0.3327 -1.5898 -0.5760
 8119SOL     OW36010   6.563   9.180   2.334 -0.3862  0.2862  0.4391
 8119SOL    HW136011   6.570   9.167   2.235  0.7792  2.6199  0.1698
 8119SOL    HW236012   6.480   9.137   2.368 -1.6577  0.8937 -1.8240
 8120SOL     OW36013   6.826   4.717   8.062  0.4504 -0.4112 -0.1419
 8120SOL    HW136014   6.784   4.713   7.971  0.5524 -1.3856 -0.1470
 8120SOL    HW236015   6.836   4.624   8.098  1.6788 -0.1209  0.2815
 8121SOL     OW36016   2.505   6.573   4.940 -0.8125  0.0438 -0.4589
 8121SOL    HW136017   2.521   6.539   4.847  0.9654  1.2004 -0.6204
 8121SOL    HW236018   2.434   6.643   4.938 -0.9395 -0.0950 -0.9252
 8122SOL     OW36019   7.326   0.277   5.171  0.0904 -0.6152 -0.1695
 8122SOL    HW136020   7.339   0.240   5.079 -0.9617 -1.1769 -0.0993
 8122SOL    HW236021   7.229   0.274   5.194  0.5782 -2.3603  1.7383
 8123SOL     OW36022   4.674   0.823   0.294  0.4287 -0.0569  0.6888
 8123SOL    HW136023   4.601   0.819   0.226  0.3223 -2.6796  0.9059
 8123SOL    HW236024   4.741   0.893   0.267  0.9198 -1.6931 -2.6957
 8124SOL     OW36025   5.191   0.481   5.724 -0.4283 -0.5677  0.0906
 8124SOL    HW136026   5.188   0.576   5.753 -0.0699 -0.4465 -0.2628
 8124SOL    HW236027   5.101   0.439   5.736 -0.9019  0.1542 -0.8823
 8125SOL     OW36028   1.475   2.939   2.260  0.3055 -0.3337  0.8336
 8125SOL    HW136029   1.566   2.919   2.296  0.4504 -1.3722 -0.0689
 8125SOL    HW236030   1.482   3.011   2.191  0.2900  0.3518  1.5490
 8126SOL     OW36031   5.607   3.221   1.137 -0.2276  0.4615 -0.5178
 8126SOL    HW136032   5.681   3.267   1.088  0.7653 -0.8558 -0.2949
 8126SOL    HW236033   5.577   3.141   1.084 -0.7873  0.3953 -0.1077
 8127SOL     OW36034   2.375   0.637   4.198  0.2144 -0.2821  0.3416
 8127SOL    HW136035   2.392   0.565   4.131 -1.6654 -1.4247  1.0671
 8127SOL    HW236036   2.352   0.722   4.149 -0.1501 -0.8461 -0.4838
 8128SOL     OW36037   2.328   2.403   2.797 -0.1479 -0.6838 -0.3217
 8128SOL    HW136038   2.351   2.382   2.702 -0.0558 -0.0639 -0.4368
 8128SOL    HW236039   2.249   2.348   2.825 -0.5426 -0.4355 -0.9433
 8129SOL     OW36040   7.745   5.658   2.348  0.1143 -0.6775  0.1244
 8129SOL    HW136041   7.824   5.703   2.391  0.7376 -0.4634 -1.2287
 8129SOL    HW236042   7.761   5.648   2.250 -1.9251  0.2017 -0.3386
 8130SOL     OW36043   7.518   7.813   3.935  0.0201 -0.0129  0.2807
 8130SOL    HW136044   7.443   7.845   3.878  0.3885  1.5102  0.6299
 8130SOL    HW236045   7.529   7.874   4.014  0.1178 -1.5600  1.4903
 8131SOL     OW36046   4.902   8.726   7.408  0.0634 -0.2560  0.4870
 8131SOL    HW136047   4.994   8.709   7.444  0.2218 -0.4903 -0.0200
 8131SOL    HW236048   4.907   8.732   7.308 -0.4381 -0.0507  0.4782
 8132SOL     OW36049   6.691   4.350   1.784  0.4002  0.7270  0.2577
 8132SOL    HW136050   6.651   4.441   1.798  0.4533  0.8221 -0.1973
 8132SOL    HW236051   6.699   4.303   1.872 -0.0267  0.9945  0.4401
 8133SOL     OW36052   0.612   2.610   0.865  0.3970  0.1683 -0.3534
 8133SOL    HW136053   0.605   2.605   0.965 -2.0337 -0.0930 -0.4897
 8133SOL    HW236054   0.534   2.661   0.829  0.4332 -1.0326 -2.2260
 8134SOL     OW36055   0.298   5.658   2.528 -0.6548 -0.2478  0.3230
 8134SOL    HW136056   0.304   5.594   2.451  1.1020  0.1760  0.0879
 8134SOL    HW236057   0.270   5.748   2.495  1.5329  0.3161 -0.0683
 8135SOL     OW36058   0.332   6.077   3.791  0.3092  0.2958  0.0115
 8135SOL    HW136059   0.401   6.103   3.724 -0.5406  0.4209 -0.8217
 8135SOL    HW236060   0.355   5.988   3.831 -0.3587 -0.8606 -2.0975
 8136SOL     OW36061   0.619   7.148   8.188 -0.0224 -0.1342  0.0127
 8136SOL    HW136062   0.606   7.247   8.184  0.6382  0.0573  2.1781
 8136SOL    HW236063   0.576   7.105   8.108 -2.5853  1.6554  0.3718
 8137SOL     OW36064   4.765   5.727   0.698  0.4161  0.8552 -0.8363
 8137SOL    HW136065   4.690   5.666   0.670 -0.5906  1.3336  0.7788
 8137SOL    HW236066   4.727   5.811   0.737  1.7919  0.8992  0.4617
 8138SOL     OW36067   9.337   8.421   4.396 -0.6734 -0.2830  0.2141
 8138SOL    HW136068   9.342   8.328   4.431 -0.5164 -1.3083 -2.3639
 8138SOL    HW236069   9.429   8.459   4.387 -0.8156  0.6905  2.6363
 8139SOL     OW36070   0.674   6.529   6.641  0.0958  0.4588  0.0390
 8139SOL    HW136071   0.579   6.525   6.610  0.3788 -0.0614 -0.7821
 8139SOL    HW236072   0.712   6.619   6.620 -0.3106  0.7769  0.6570
 8140SOL     OW36073   6.663   2.842   4.036  0.2282  0.3446  0.3398
 8140SOL    HW136074   6.760   2.869   4.035  0.3420 -0.0576  0.3401
 8140SOL    HW236075   6.636   2.811   3.945  0.5247 -1.0127  0.7037
 8141SOL     OW36076   5.139   1.570   7.243  0.4887 -0.4657 -0.3472
 8141SOL    HW136077   5.213   1.521   7.290  0.1649 -0.5721  0.0535
 8141SOL    HW236078   5.072   1.601   7.311  1.1315  1.2829 -0.4846
 8142SOL     OW36079   7.451   1.492   7.459 -0.3719 -0.1838 -0.1974
 8142SOL    HW136080   7.353   1.487   7.438 -0.1697 -1.7904 -0.8303
 8142SOL    HW236081   7.502   1.515   7.376 -0.2136  0.7966  0.1643
 8143SOL     OW36082   0.420   2.426   5.473  0.0784  0.0777  0.5224
 8143SOL    HW136083   0.438   2.430   5.375 -1.1984 -0.6301  0.2477
 8143SOL    HW236084   0.393   2.333   5.499  0.7079  0.1880  1.5971
 8144SOL     OW36085   8.927   0.146   2.301 -0.1337 -0.1402  0.3652
 8144SOL    HW136086   8.890   0.104   2.384  0.0120 -0.0602  0.4700
 8144SOL    HW236087   9.002   0.207   2.325 -0.6785  0.5721  0.2644
 8145SOL     OW36088   4.510   5.283   0.232 -0.0024 -0.3180 -0.2578
 8145SOL    HW136089   4.586   5.221   0.249 -0.0157 -0.5060 -0.8587
 8145SOL    HW236090   4.450   5.244   0.161 -0.5078 -0.0481  0.0140
 8146SOL     OW36091   2.175   9.340   6.522 -0.4900  0.0282 -0.2542
 8146SOL    HW136092   2.178   9.408   6.449 -0.9647  0.7792  0.4280
 8146SOL    HW236093   2.101   9.275   6.504 -1.2504  0.8032  0.0882
 8147SOL     OW36094   3.369   3.373   4.756 -0.1509  0.0288 -0.0165
 8147SOL    HW136095   3.308   3.427   4.698  0.6373  0.1394 -0.7568
 8147SOL    HW236096   3.403   3.294   4.704  2.8156  1.6713 -0.6805
 8148SOL     OW36097   3.336   9.938   3.919  0.3883  0.2389  0.5120
 8148SOL    HW136098   3.279   9.886   3.984  2.7314 -2.0915  0.7571
 8148SOL    HW236099   3.290   9.940   3.830 -0.3491 -1.1514  0.8374
 8149SOL     OW36100   8.856   1.627   1.619 -0.8100 -0.0338  0.1309
 8149SOL    HW136101   8.775   1.579   1.585 -1.4705  1.2436 -0.1379
 8149SOL    HW236102   8.938   1.575   1.595 -1.3798  0.0028 -1.9877
 8150SOL     OW36103   3.258   7.158   1.621  0.3101  0.0543 -0.0062
 8150SOL    HW136104   3.259   7.238   1.561 -0.7186  0.9947  1.2254
 8150SOL    HW236105   3.352   7.137   1.650  0.6847  0.2535 -1.0506
 8151SOL     OW36106   5.117   4.664   0.542  0.0204  0.3125 -0.4877
 8151SOL    HW136107   5.021   4.678   0.515  0.1445 -0.9903 -1.6638
 8151SOL    HW236108   5.175   4.727   0.492 -0.1273  0.3953 -0.5560
 8152SOL     OW36109   2.794   3.766   5.142 -0.3205 -0.3405 -0.6613
 8152SOL    HW136110   2.770   3.747   5.237 -0.0268  0.6380 -0.3875
 8152SOL    HW236111   2.716   3.745   5.083  0.6133 -4.2918 -0.6182
 8153SOL     OW36112   2.896   1.555   1.650  0.7280  0.5438 -0.3615
 8153SOL    HW136113   2.936   1.469   1.683  0.0182  0.3832  0.0745
 8153SOL    HW236114   2.882   1.617   1.727 -0.1180  0.4990 -0.4790
 8154SOL     OW36115   5.679   1.094   1.249 -0.1614  0.5744  0.4664
 8154SOL    HW136116   5.717   1.059   1.164 -0.3493  1.1838  0.1285
 8154SOL    HW236117   5.583   1.066   1.257  0.5769 -1.7387  1.7529
 8155SOL     OW36118   4.484   0.386   4.323  0.0976 -0.5418 -0.2598
 8155SOL    HW136119   4.530   0.368   4.236 -0.8253  0.5206 -0.9696
 8155SOL    HW236120   4.514   0.474   4.359 -0.0263 -0.6785  0.1859
 8156SOL     OW36121   6.587   9.297   5.908 -0.3545  0.0931 -0.3572
 8156SOL    HW136122   6.605   9.202   5.935 -2.5445 -0.1361  0.3661
 8156SOL    HW236123   6.583   9.355   5.989 -1.6230  0.3330 -0.5827
 8157SOL     OW36124   6.425   4.449   2.077  0.3386  0.3151  0.1648
 8157SOL    HW136125   6.444   4.544   2.102 -0.2087  1.3759 -3.1540
 8157SOL    HW236126   6.362   4.447   2.000  3.2031 -2.6162 -2.2565
 8158SOL     OW36127   9.246   3.553   0.233 -0.1457 -0.1170  0.3573
 8158SOL    HW136128   9.232   3.652   0.234 -1.3126 -0.2636 -0.7878
 8158SOL    HW236129   9.166   3.508   0.194  0.6733 -1.4704  0.1978
 8159SOL     OW36130   0.077   1.754   7.048  0.4681 -0.1871 -0.0824
 8159SOL    HW136131   0.091   1.774   7.145  0.2580  0.0873 -0.1085
 8159SOL    HW236132   0.108   1.661   7.029  1.7860  0.2224 -0.0272
 8160SOL     OW36133   0.544   3.255   4.479 -0.0059  0.1346  0.2321
 8160SOL    HW136134   0.614   3.320   4.452  0.1114  0.1092  0.4797
 8160SOL    HW236135   0.524   3.265   4.576  1.2942 -1.4094  0.6790
 8161SOL     OW36136   2.128   6.675   2.746 -0.6162  0.2447 -0.6589
 8161SOL    HW136137   2.080   6.725   2.675 -0.9076  0.5201 -0.2710
 8161SOL    HW236138   2.083   6.587   2.762 -0.3216  0.0132 -1.0819
 8162SOL     OW36139   0.596   6.635   6.990  0.0093 -0.5256 -0.1057
 8162SOL    HW136140   0.506   6.608   6.956  0.6646 -2.7424 -0.1433
 8162SOL    HW236141   0.663   6.564   6.968  1.4371  0.3040  1.4173
 8163SOL     OW36142   8.539   2.576   0.218 -0.4637  0.0216 -0.0552
 8163SOL    HW136143   8.576   2.563   0.310 -0.7896  1.5975  0.3074
 8163SOL    HW236144   8.603   2.539   0.151  0.0769 -0.5477  0.7637
 8164SOL     OW36145   3.232   6.427   2.372  0.1147  0.1864  0.6550
 8164SOL    HW136146   3.289   6.508   2.359  0.6668 -0.2746  0.1529
 8164SOL    HW236147   3.181   6.436   2.457  2.3333 -0.2112  2.0771
 8165SOL     OW36148   9.456   5.807   0.706  0.5203  0.0134 -0.0763
 8165SOL    HW136149   9.365   5.823   0.667  0.4931 -0.7287 -0.3181
 8165SOL    HW236150   9.459   5.845   0.799 -0.0956 -0.1216  0.0021
 8166SOL     OW36151   4.620   4.851   7.823 -0.2110  0.5502 -0.7248
 8166SOL    HW136152   4.705   4.902   7.830 -0.2304  0.5512 -0.4919
 8166SOL    HW236153   4.637   4.755   7.845 -0.5237  0.7979  0.6715
 8167SOL     OW36154   1.144   2.050   1.277 -0.1012  0.5504 -0.2666
 8167SOL    HW136155   1.074   1.986   1.309  0.0438 -0.2032 -1.4446
 8167SOL    HW236156   1.220   1.999   1.238  0.5578  1.4118 -0.1256
 8168SOL     OW36157   7.883   0.148   5.852  0.5937 -0.2064 -0.2927
 8168SOL    HW136158   7.982   0.142   5.866  0.6350  0.4305 -0.3056
 8168SOL    HW236159   7.843   0.203   5.925  0.4014  0.5165 -0.9397
 8169SOL     OW36160   5.653   8.926   1.949 -0.0266 -0.2706 -0.3588
 8169SOL    HW136161   5.725   8.893   1.888  0.6490 -0.9221  0.7836
 8169SOL    HW236162   5.567   8.880   1.926  0.1065 -0.1477 -1.1400
 8170SOL     OW36163   1.157   6.265   8.142 -0.5953  0.5654 -0.3848
 8170SOL    HW136164   1.143   6.334   8.214  0.1986  0.3130  0.0095
 8170SOL    HW236165   1.221   6.300   8.074 -0.6499  0.4464 -0.4985
 8171SOL     OW36166   8.997   8.189   8.030  0.4665  0.5881  0.2798
 8171SOL    HW136167   9.018   8.259   7.962 -2.1077  0.6991 -0.4319
 8171SOL    HW236168   8.963   8.107   7.984  1.9836 -0.6096  1.2203
 8172SOL     OW36169   7.457   3.691   7.807  0.1842  0.4617  0.3988
 8172SOL    HW136170   7.556   3.692   7.792  0.3450  2.0005  1.5464
 8172SOL    HW236171   7.433   3.612   7.863  0.7024 -0.1234 -0.1892
 8173SOL     OW36172   0.250   5.972   7.725  0.5195 -0.1759  0.4349
 8173SOL    HW136173   0.350   5.967   7.727  0.4752 -1.0685  0.9740
 8173SOL    HW236174   0.213   5.880   7.716 -0.2564  0.1671  0.1159
 8174SOL     OW36175   2.847   4.906   2.281  0.5662 -0.4815  0.4918
 8174SOL    HW136176   2.863   4.892   2.184  0.9544 -2.4323  0.8239
 8174SOL    HW236177   2.881   4.828   2.333  0.8596  0.7639  2.2551
 8175SOL     OW36178   8.402   1.672   5.729 -0.1434 -0.9530  0.3198
 8175SOL    HW136179   8.324   1.713   5.775 -0.2938 -1.7486  0.7941
 8175SOL    HW236180   8.398   1.572   5.740 -0.4600 -1.2218 -1.8368
 8176SOL     OW36181   0.961   0.309   5.710 -0.1557  0.1508  0.1561
 8176SOL    HW136182   0.919   0.391   5.750 -1.0819 -0.7941  1.1878
 8176SOL    HW236183   0.891   0.256   5.663 -0.2393 -1.5947  2.1423
 8177SOL     OW36184   2.053   1.024   3.434  0.4836 -0.2330  0.0270
 8177SOL    HW136185   2.126   1.027   3.366  1.0483 -2.9376  0.4541
 8177SOL    HW236186   1.964   1.019   3.388  0.7245  0.4098 -0.5058
 8178SOL     OW36187   1.985   5.415   4.956 -0.3373  0.3013  0.5019
 8178SOL    HW136188   1.929   5.491   4.921 -0.2567  0.1742  0.0954
 8178SOL    HW236189   2.072   5.413   4.908  0.0196  0.4974  1.1367
 8179SOL     OW36190   9.840   5.723   2.146 -0.2743  0.3548  0.8369
 8179SOL    HW136191   9.862   5.715   2.049 -0.2600 -0.5546  0.9058
 8179SOL    HW236192   9.745   5.694   2.161 -0.5732  1.3917  0.9650
 8180SOL     OW36193   3.758   8.641   1.029  0.1018 -0.1851 -0.0591
 8180SOL    HW136194   3.743   8.607   1.122 -0.2935  2.4627  0.9020
 8180SOL    HW236195   3.695   8.597   0.966 -1.1259 -0.4364  1.3183
 8181SOL     OW36196   5.254   0.680   6.781  0.8068 -0.2754  0.0370
 8181SOL    HW136197   5.228   0.595   6.735  0.6790 -0.3505  0.2467
 8181SOL    HW236198   5.196   0.693   6.862  1.2208 -0.2865  0.3352
 8182SOL     OW36199   0.665   8.756   6.659  0.1452 -0.0869  0.9508
 8182SOL    HW136200   0.673   8.846   6.701 -0.0087  0.5908 -0.4489
 8182SOL    HW236201   0.639   8.766   6.563 -0.6981 -1.6567  1.0038
 8183SOL     OW36202   4.141   6.646   1.361  0.3111 -1.1567 -0.0386
 8183SOL    HW136203   4.228   6.598   1.359  1.3267  0.7168 -2.6579
 8183SOL    HW236204   4.156   6.742   1.386 -1.0276 -0.8666 -0.2831
 8184SOL     OW36205   8.575   3.400   3.946 -0.6461  0.1135  0.4689
 8184SOL    HW136206   8.497   3.388   4.008 -0.6018  1.0349  0.7166
 8184SOL    HW236207   8.543   3.437   3.859 -0.5223  0.2543  0.4820
 8185SOL     OW36208   8.440   4.881   0.134 -0.0640 -0.0526 -0.3262
 8185SOL    HW136209   8.369   4.909   0.069  1.2858  1.9015 -1.0245
 8185SOL    HW236210   8.448   4.782   0.135  0.3144 -0.1149 -3.6835
 8186SOL     OW36211   9.177   2.082   1.599 -0.2733 -0.2163  0.3451
 8186SOL    HW136212   9.154   2.154   1.534  1.4178  1.9081  2.0695
 8186SOL    HW236213   9.241   2.018   1.556  2.2397  2.1591  0.4416
 8187SOL     OW36214   8.175   3.848   3.576  0.2004 -0.1809  0.2290
 8187SOL    HW136215   8.106   3.919   3.567 -0.2909 -0.3700  2.2696
 8187SOL    HW236216   8.197   3.834   3.673  3.5533  0.3020 -0.3830
 8188SOL     OW36217   0.316   2.840   1.393  0.2361  0.3445  0.2188
 8188SOL    HW136218   0.393   2.842   1.457  0.0893  0.0463  0.4069
 8188SOL    HW236219   0.350   2.824   1.301  0.1902 -2.8589  0.6751
 8189SOL     OW36220   2.716   7.552   1.197  0.1139  0.8570 -0.2161
 8189SOL    HW136221   2.647   7.579   1.264  0.3294  0.3665  0.2089
 8189SOL    HW236222   2.790   7.619   1.198 -1.6615  2.9520 -2.6907
 8190SOL     OW36223   2.789   8.751   5.981 -0.4642 -0.2281  0.2163
 8190SOL    HW136224   2.708   8.788   6.026  0.0153  0.4003  0.5764
 8190SOL    HW236225   2.869   8.764   6.040 -0.3981 -2.5280  0.6971
 8191SOL     OW36226   6.063   9.259   2.154 -0.4126 -0.2294  0.1192
 8191SOL    HW136227   6.094   9.251   2.059 -0.8066  1.4170 -0.1624
 8191SOL    HW236228   6.070   9.354   2.183 -0.4245 -0.7087  1.7051
 8192SOL     OW36229   2.040   6.258   6.712  0.2006 -0.4344  0.0465
 8192SOL    HW136230   1.992   6.204   6.781 -0.3288  0.4115  0.3538
 8192SOL    HW236231   2.094   6.329   6.757 -1.3092  1.0620 -0.4493
 8193SOL     OW36232   6.783   0.656   6.779 -0.1622  0.1220 -0.7847
 8193SOL    HW136233   6.684   0.640   6.781 -0.3050  0.9822 -0.7344
 8193SOL    HW236234   6.809   0.714   6.856  0.3125  0.2866 -1.0661
 8194SOL     OW36235   9.344   8.281   2.758  0.5157  0.0115 -0.2879
 8194SOL    HW136236   9.280   8.325   2.694  0.1334  0.1218  0.1684
 8194SOL    HW236237   9.409   8.226   2.706 -0.2889 -0.5471 -0.7227
 8195SOL     OW36238   7.185   6.582   2.793 -0.3449 -0.7189  0.3793
 8195SOL    HW136239   7.160   6.508   2.731 -0.8635 -0.3405  0.1384
 8195SOL    HW236240   7.182   6.549   2.888 -0.8270 -0.9363  0.2876
 8196SOL     OW36241   8.444   7.689   4.810 -0.4365  0.3219  0.0451
 8196SOL    HW136242   8.513   7.623   4.781 -1.1352 -0.1441 -0.5742
 8196SOL    HW236243   8.353   7.654   4.789 -0.8892  0.7340  1.2709
 8197SOL     OW36244   4.255   4.233   0.247 -0.4013 -0.0189  0.2592
 8197SOL    HW136245   4.334   4.196   0.295  0.1302 -0.4126 -0.9080
 8197SOL    HW236246   4.176   4.174   0.264 -0.5341  0.5585  1.6910
 8198SOL     OW36247   2.340   9.916   3.457 -0.2479 -0.0366  0.0528
 8198SOL    HW136248   2.388   9.884   3.539 -1.1356 -0.3757  0.4445
 8198SOL    HW236249   2.243   9.897   3.466 -0.4704  0.7166 -0.7092
 8199SOL     OW36250   3.673   5.172   4.623  0.4184 -0.0337 -1.0416
 8199SOL    HW136251   3.690   5.248   4.560  1.2654  1.9926  1.5103
 8199SOL    HW236252   3.597   5.195   4.684  0.4097 -1.4141 -0.5119
 8200SOL     OW36253   1.098   9.589   6.257 -0.2976 -0.2737  0.2901
 8200SOL    HW136254   1.038   9.667   6.272  0.1320  0.3293 -1.0012
 8200SOL    HW236255   1.193   9.621   6.249  0.0525 -1.0757  1.0740
 8201SOL     OW36256   0.551   4.084   6.895  0.2175 -0.2583 -0.0732
 8201SOL    HW136257   0.616   4.020   6.853  0.4061 -0.1518  0.0569
 8201SOL    HW236258   0.458   4.058   6.870  0.2632 -0.8991  0.4222
 8202SOL     OW36259   9.871   0.829   2.458  0.0803  0.2034  0.1804
 8202SOL    HW136260   9.791   0.845   2.400  0.6311 -0.3866 -0.7499
 8202SOL    HW236261   9.933   0.908   2.452 -0.9994  1.2247  1.8800
 8203SOL     OW36262   3.380   3.407   2.894 -0.0038 -0.3499 -0.0597
 8203SOL    HW136263   3.290   3.373   2.921 -0.8400  2.2699  0.6020
 8203SOL    HW236264   3.379   3.432   2.797 -0.4784  1.1757  0.3312
 8204SOL     OW36265   2.341   2.450   0.504 -0.6147  0.0950 -0.1881
 8204SOL    HW136266   2.409   2.523   0.502  1.2126 -1.4796  1.4568
 8204SOL    HW236267   2.309   2.438   0.598 -1.0762 -1.0339 -0.4825
 8205SOL     OW36268   9.547   6.409   1.610 -0.1588 -0.1487 -0.7406
 8205SOL    HW136269   9.541   6.327   1.553 -0.9976 -1.7435  1.5691
 8205SOL    HW236270   9.591   6.386   1.696 -1.6029  1.5322  0.4743
 8206SOL     OW36271   7.646   0.001   4.395 -0.2810  0.3708 -0.5746
 8206SOL    HW136272   7.566  -0.058   4.397  0.4759 -0.6323  1.0447
 8206SOL    HW236273   7.683   0.005   4.302 -0.3834 -1.6591 -0.7141
 8207SOL     OW36274   0.506   6.014   5.955 -0.3862 -0.1465  0.0319
 8207SOL    HW136275   0.603   6.023   5.974 -0.1821 -0.7253 -0.7306
 8207SOL    HW236276   0.457   6.094   5.992  0.5047  0.6587 -0.5156
 8208SOL     OW36277   9.593   3.783   5.456  0.1373 -0.0146 -0.3956
 8208SOL    HW136278   9.541   3.863   5.488 -1.6854 -0.7598 -1.3846
 8208SOL    HW236279   9.584   3.776   5.356  0.7094 -1.1581 -0.3686
 8209SOL     OW36280   7.599   6.560   3.050  0.1257  0.2886  0.2854
 8209SOL    HW136281   7.601   6.657   3.028  1.2603  0.5995  1.6608
 8209SOL    HW236282   7.567   6.549   3.145  0.0099 -0.6745  0.1373
 8210SOL     OW36283   0.758   9.963   7.200  0.1246  0.5589 -0.2045
 8210SOL    HW136284   0.772  10.001   7.292 -1.9655 -2.5370  1.4938
 8210SOL    HW236285   0.670   9.995   7.164  0.6317  1.2240 -0.8685
 8211SOL     OW36286   0.483   8.359   6.595 -0.6112 -0.1838  0.5457
 8211SOL    HW136287   0.420   8.356   6.518 -1.2190 -0.5031  1.0444
 8211SOL    HW236288   0.575   8.332   6.565 -1.2310 -2.1432  0.3054
 8212SOL     OW36289   3.059   7.851   4.720 -0.7632 -0.4827 -0.1812
 8212SOL    HW136290   2.972   7.854   4.769 -0.5778  0.2349  0.1156
 8212SOL    HW236291   3.103   7.941   4.725  0.8586 -1.3228  1.2259
 8213SOL     OW36292   0.542   9.352   3.491  0.4002 -0.3395 -0.3079
 8213SOL    HW136293   0.638   9.375   3.480  0.3728 -0.1749 -0.2015
 8213SOL    HW236294   0.489   9.389   3.415 -0.0412  2.2474  1.2168
 8214SOL     OW36295   6.078   7.555   5.468 -0.7817 -0.0059 -0.0487
 8214SOL    HW136296   5.985   7.554   5.430 -0.5278 -0.4229 -0.6669
 8214SOL    HW236297   6.082   7.496   5.548 -0.4776 -1.8689 -1.4088
 8215SOL     OW36298   2.600   5.608   3.615 -0.2246  0.1514 -0.0521
 8215SOL    HW136299   2.653   5.564   3.686  0.1289 -0.0078 -0.4122
 8215SOL    HW236300   2.583   5.704   3.639 -1.4240 -0.3158  0.9681
 8216SOL     OW36301   8.771   1.311   5.859  0.0597 -0.8931  0.4999
 8216SOL    HW136302   8.678   1.301   5.896 -0.1316 -1.2384 -0.0757
 8216SOL    HW236303   8.830   1.241   5.898 -0.1438 -1.2607  0.1422
 8217SOL     OW36304   9.871   4.135   1.793  0.1081 -0.7947 -0.0940
 8217SOL    HW136305   9.963   4.104   1.818  0.7473 -0.5508 -2.0330
 8217SOL    HW236306   9.819   4.059   1.754  0.5119 -0.2703 -1.6993
 8218SOL     OW36307   1.490   8.733   2.227  0.0241  0.2602 -0.2099
 8218SOL    HW136308   1.430   8.666   2.183 -1.6363  0.2411  1.9876
 8218SOL    HW236309   1.583   8.699   2.229 -0.4444 -1.0912 -0.9059
 8219SOL     OW36310   8.780   4.610   1.094 -0.1118 -0.5413  0.1118
 8219SOL    HW136311   8.738   4.528   1.132 -1.1848 -0.2007 -0.3214
 8219SOL    HW236312   8.758   4.689   1.151  0.5985 -0.4929  0.3177
 8220SOL     OW36313   8.780   8.929   4.172  0.1007 -0.1736 -0.3585
 8220SOL    HW136314   8.797   8.876   4.255 -0.2631  0.4253  0.1085
 8220SOL    HW236315   8.826   9.017   4.178 -2.0817  0.9764  0.4067
 8221SOL     OW36316   8.843   5.395   6.834  0.2193 -0.1880 -0.1166
 8221SOL    HW136317   8.809   5.473   6.887 -0.0801 -0.3515 -0.0672
 8221SOL    HW236318   8.941   5.406   6.817  0.9018 -1.4372  2.7315
 8222SOL     OW36319   0.320   8.417   3.394  0.4424 -0.0098 -0.1239
 8222SOL    HW136320   0.332   8.403   3.295  0.2384  1.4516 -0.3671
 8222SOL    HW236321   0.254   8.351   3.429 -0.6574  0.4554 -1.2642
 8223SOL     OW36322   6.584   0.147   1.007 -0.3401 -0.4858  0.0366
 8223SOL    HW136323   6.505   0.088   1.022 -1.2765  0.8031  0.3176
 8223SOL    HW236324   6.567   0.236   1.048  0.8704  0.1218 -0.7416
 8224SOL     OW36325   7.197   2.831   1.659  0.0484 -0.3080 -0.4598
 8224SOL    HW136326   7.152   2.868   1.740 -0.2275  2.2442 -1.7020
 8224SOL    HW236327   7.202   2.732   1.665 -0.8457 -0.2236  2.2042
 8225SOL     OW36328   3.041   2.703   3.638 -0.0473  0.4415  0.1395
 8225SOL    HW136329   3.141   2.699   3.637 -0.0780 -0.8780  1.1708
 8225SOL    HW236330   3.011   2.758   3.716 -0.1280  0.1819  0.2946
 8226SOL     OW36331   3.113   7.123   8.143 -0.7343 -0.4675  0.1650
 8226SOL    HW136332   3.202   7.158   8.114 -0.5155 -1.2052 -0.0694
 8226SOL    HW236333   3.053   7.199   8.165 -0.6658  0.1008 -1.5333
 8227SOL     OW36334   6.363   4.203   7.831 -0.1384  0.2764  0.3625
 8227SOL    HW136335   6.341   4.281   7.773 -0.9597 -0.0784  0.1868
 8227SOL    HW236336   6.401   4.129   7.775  1.5588  0.9021  0.6729
 8228SOL     OW36337   4.240   9.797   6.765 -0.4160  0.0963 -0.6241
 8228SOL    HW136338   4.284   9.792   6.676  1.3533  3.5200 -0.0179
 8228SOL    HW236339   4.298   9.754   6.834 -0.6654 -0.3977 -0.7176
 8229SOL     OW36340   2.179   3.668   0.462  0.0260 -0.1042  0.0286
 8229SOL    HW136341   2.094   3.616   0.473 -0.9612  1.3347 -0.7555
 8229SOL    HW236342   2.241   3.618   0.401 -0.0328 -1.3887  0.9826
 8230SOL     OW36343   0.049   1.056   7.498  0.1888 -0.0175  0.4557
 8230SOL    HW136344   0.109   1.128   7.532 -1.2726  0.8405  1.2865
 8230SOL    HW236345  -0.036   1.097   7.463  0.2030 -1.1748 -0.9927
 8231SOL     OW36346   0.534   4.833   1.335  0.3053 -0.2293 -0.0118
 8231SOL    HW136347   0.535   4.873   1.243  0.0427  2.7235  1.1984
 8231SOL    HW236348   0.440   4.825   1.366  0.4870  1.6474  1.1292
 8232SOL     OW36349   1.085   9.555   3.053 -1.0069  0.4283  0.5594
 8232SOL    HW136350   1.064   9.615   3.130  0.1206 -0.0408  1.2414
 8232SOL    HW236351   1.171   9.584   3.011 -3.1076  2.6365 -2.4961
 8233SOL     OW36352   0.203   3.166   0.385  0.1710 -0.1755 -0.3819
 8233SOL    HW136353   0.240   3.147   0.476 -1.6257  0.2111  0.4703
 8233SOL    HW236354   0.204   3.082   0.330 -1.8641 -1.2666  1.1774
 8234SOL     OW36355   9.771   3.192   1.125  0.9384 -0.1883  0.0419
 8234SOL    HW136356   9.760   3.271   1.186  2.3001  2.3864 -2.8834
 8234SOL    HW236357   9.695   3.189   1.060  2.2661  0.3411 -1.5695
 8235SOL     OW36358   0.123   4.208   2.063 -0.0452  0.9039  0.4231
 8235SOL    HW136359   0.121   4.307   2.071 -0.0806  0.7698  2.2917
 8235SOL    HW236360   0.036   4.170   2.095 -0.8222  0.3678 -2.1846
 8236SOL     OW36361   4.403   1.826   2.016 -0.3893 -0.3696 -0.0450
 8236SOL    HW136362   4.445   1.868   1.935  0.6993 -0.1811  0.6089
 8236SOL    HW236363   4.366   1.737   1.992  1.4879 -1.0844 -0.3556
 8237SOL     OW36364   1.880   1.123   2.900  0.2917 -0.1571  0.1007
 8237SOL    HW136365   1.953   1.124   2.831 -0.2608  0.3330 -0.4791
 8237SOL    HW236366   1.914   1.163   2.984  1.1005 -1.1333  0.2540
 8238SOL     OW36367   4.902   8.034   3.549  0.1507 -0.3457 -0.2354
 8238SOL    HW136368   4.890   8.124   3.509 -1.2847  0.2232  1.3975
 8238SOL    HW236369   4.948   8.043   3.638 -1.5326 -0.9979  0.7415
 8239SOL     OW36370   8.388   4.244   2.523 -0.4932  0.3443  0.0645
 8239SOL    HW136371   8.395   4.326   2.466 -0.9396  0.3177 -0.0292
 8239SOL    HW236372   8.297   4.204   2.513  0.5132 -1.5695 -1.8019
 8240SOL     OW36373   8.271   8.566   5.894 -0.0867 -0.5394  0.3518
 8240SOL    HW136374   8.321   8.485   5.923 -0.7367 -1.4322 -0.9561
 8240SOL    HW236375   8.324   8.615   5.825 -0.3018 -0.6206  0.1267
 8241SOL     OW36376   9.327   1.756   0.165  0.1259 -0.2108 -0.3889
 8241SOL    HW136377   9.415   1.726   0.129 -0.0153 -0.1231 -0.8011
 8241SOL    HW236378   9.319   1.855   0.155 -1.6152 -0.6608 -3.8434
 8242SOL     OW36379   6.214   0.138   3.963 -0.0380 -0.5566 -0.1765
 8242SOL    HW136380   6.119   0.167   3.950 -0.2831 -0.7925  0.9916
 8242SOL    HW236381   6.215   0.051   4.014  0.7967 -0.6265 -0.3116
 8243SOL     OW36382   2.618   1.288   0.380 -0.1237 -0.2057  0.0801
 8243SOL    HW136383   2.568   1.373   0.373  0.5670  0.1846 -0.1492
 8243SOL    HW236384   2.565   1.222   0.434 -0.7585  0.2830  0.0534
 8244SOL     OW36385   2.995   3.641   0.248 -0.1106 -0.0496 -0.2231
 8244SOL    HW136386   3.076   3.644   0.305 -1.2732 -2.1169  1.6214
 8244SOL    HW236387   3.007   3.574   0.174 -0.4666 -1.0670  0.6262
 8245SOL     OW36388   0.630   0.684   1.669  0.2570  0.8294 -0.0139
 8245SOL    HW136389   0.728   0.677   1.652 -0.2259  1.1372 -3.2780
 8245SOL    HW236390   0.612   0.679   1.767  3.5218  0.7791  0.6165
 8246SOL     OW36391   2.202   5.726   2.735  0.8294  0.1575 -0.1606
 8246SOL    HW136392   2.156   5.730   2.646  0.9872 -2.1746 -0.3781
 8246SOL    HW236393   2.245   5.815   2.754 -0.4502  1.1456 -1.7176
 8247SOL     OW36394   7.944   4.082   3.959 -0.2283  0.0193 -0.2712
 8247SOL    HW136395   7.886   4.153   3.999 -1.6470 -1.2542 -0.0036
 8247SOL    HW236396   7.948   4.094   3.860  0.2362  0.9858 -0.1298
 8248SOL     OW36397   1.324   0.046   2.977  0.0842  0.3248  0.1897
 8248SOL    HW136398   1.273  -0.037   3.002  1.9298 -0.3650  1.7634
 8248SOL    HW236399   1.390   0.067   3.048  2.0667  1.1677 -1.8379
 8249SOL     OW36400   0.475   6.615   4.483 -0.1570 -0.5287 -0.1415
 8249SOL    HW136401   0.566   6.576   4.501  0.5113  1.3572  0.7597
 8249SOL    HW236402   0.460   6.692   4.545 -2.1027 -0.3881 -0.7694
 8250SOL     OW36403   5.255   5.115   7.393  0.1551  0.3338 -0.1808
 8250SOL    HW136404   5.276   5.108   7.295  0.5796 -0.0580 -0.0639
 8250SOL    HW236405   5.296   5.037   7.441 -0.0908  0.5046  0.3032
 8251SOL     OW36406   6.492   8.237   3.550 -0.4185 -0.2481 -0.5055
 8251SOL    HW136407   6.548   8.316   3.524  1.8049 -2.1890 -1.8723
 8251SOL    HW236408   6.443   8.204   3.470  0.4572 -1.6158 -0.4879
 8252SOL     OW36409   2.657   1.664   0.531 -0.5874  0.0057  0.3460
 8252SOL    HW136410   2.624   1.706   0.616 -0.6005  0.6754  0.0087
 8252SOL    HW236411   2.675   1.735   0.463  0.0055 -0.4847 -0.0124
 8253SOL     OW36412   9.372   9.975   7.597 -0.0252 -0.3368  0.0244
 8253SOL    HW136413   9.450   9.934   7.550  0.9378 -0.0243  1.3540
 8253SOL    HW236414   9.377  10.074   7.589  1.7442 -0.1125  3.2739
 8254SOL     OW36415   1.318   2.533   2.321  0.1962  0.4123 -0.8783
 8254SOL    HW136416   1.338   2.625   2.355  1.0990  0.4016 -1.3556
 8254SOL    HW236417   1.227   2.505   2.351  0.1735  1.2077 -0.1907
 8255SOL     OW36418   2.547   6.274   1.144 -0.1783 -0.4933 -0.5658
 8255SOL    HW136419   2.501   6.299   1.058 -0.8829  1.3249  0.3118
 8255SOL    HW236420   2.494   6.309   1.221 -0.5434 -3.7220  0.7224
 8256SOL     OW36421   3.719   3.544   1.995  0.2438  0.3395 -0.1919
 8256SOL    HW136422   3.648   3.533   2.065 -0.0964  2.0055 -0.2641
 8256SOL    HW236423   3.809   3.537   2.038  0.0589 -1.9168 -0.1190
 8257SOL     OW36424   4.147   2.777   2.822 -0.0253 -0.2501 -0.1245
 8257SOL    HW136425   4.108   2.805   2.909  1.3958  0.7515  0.2004
 8257SOL    HW236426   4.162   2.678   2.822 -0.0216 -0.2515  0.7634
 8258SOL     OW36427   9.415   8.677   6.847  0.3835 -0.1102  0.5906
 8258SOL    HW136428   9.318   8.671   6.822 -0.3629 -0.5213  3.3181
 8258SOL    HW236429   9.432   8.765   6.891  1.3826  0.1567 -0.3166
 8259SOL     OW36430   2.004   7.682   4.285 -0.4288 -0.6815  0.6835
 8259SOL    HW136431   1.914   7.654   4.252  0.0317 -0.3979 -0.8859
 8259SOL    HW236432   2.047   7.606   4.333 -1.3336 -0.9526  1.0698
 8260SOL     OW36433   9.484   2.955   0.130 -0.1838 -0.0208  0.1747
 8260SOL    HW136434   9.495   2.859   0.106 -0.0327 -0.1262  0.6562
 8260SOL    HW236435   9.528   2.973   0.218 -1.3385  0.1895  0.7314
 8261SOL     OW36436   2.008   9.865   1.952  0.2182  0.1498  0.0433
 8261SOL    HW136437   2.002   9.876   1.853  2.4569 -2.6193 -0.4630
 8261SOL    HW236438   1.957   9.783   1.979 -2.2220  2.0685  1.5210
 8262SOL     OW36439   0.892   7.076   0.078 -0.5315  0.7239  0.3730
 8262SOL    HW136440   0.798   7.083   0.046 -0.5885  0.4009  0.4700
 8262SOL    HW236441   0.942   7.159   0.054 -0.5693  0.4703 -0.5876
 8263SOL     OW36442   9.192   4.343   5.945  0.2513 -0.0515 -0.1861
 8263SOL    HW136443   9.243   4.409   5.890 -1.8605  0.0323 -2.1111
 8263SOL    HW236444   9.097   4.374   5.955  0.1027 -1.0779  1.8291
 8264SOL     OW36445   0.551   3.703   3.718 -0.7824  0.1360  0.2120
 8264SOL    HW136446   0.490   3.671   3.646  0.1302 -1.3782  0.0787
 8264SOL    HW236447   0.608   3.777   3.683  1.9190 -2.7307 -1.6945
 8265SOL     OW36448   8.583   6.172   8.003  0.1185  0.0263 -0.2423
 8265SOL    HW136449   8.638   6.248   8.036 -1.9802  2.0477 -1.2883
 8265SOL    HW236450   8.642   6.093   7.984  2.6159  2.0818 -1.2460
 8266SOL     OW36451   3.357   2.837   3.148 -0.0654 -0.4434 -0.1959
 8266SOL    HW136452   3.374   2.779   3.068 -1.9562 -1.6443  0.2357
 8266SOL    HW236453   3.312   2.783   3.219  0.2914  0.9844  1.1400
 8267SOL     OW36454   2.341   4.119   4.687 -0.5869  0.1520  0.2221
 8267SOL    HW136455   2.399   4.102   4.607  0.4374  1.7975  0.5976
 8267SOL    HW236456   2.355   4.047   4.755  0.9325  0.4677  0.2607
 8268SOL     OW36457   8.124   1.438   5.835  0.4570  0.0834  0.4590
 8268SOL    HW136458   8.147   1.493   5.754 -2.4110  0.3332 -0.2487
 8268SOL    HW236459   8.141   1.491   5.917 -0.8496  1.5207 -0.1655
 8269SOL     OW36460   1.967   2.512   0.811  0.4500  0.5136 -0.5851
 8269SOL    HW136461   2.066   2.508   0.799  0.5058  0.3400 -0.0847
 8269SOL    HW236462   1.944   2.584   0.877  0.1951  1.0111 -1.2101
 8270SOL     OW36463   6.857   2.340   6.133  0.1512 -0.4368  0.3822
 8270SOL    HW136464   6.805   2.395   6.199 -1.6708 -0.9208 -0.6149
 8270SOL    HW236465   6.936   2.391   6.101  1.7122 -0.5974  3.7704
 8271SOL     OW36466   2.161   4.904   2.271 -0.3465 -0.0375 -0.3520
 8271SOL    HW136467   2.204   4.868   2.188 -0.3235  1.8540 -1.1672
 8271SOL    HW236468   2.072   4.944   2.249 -0.5671  0.0269  0.6202
 8272SOL     OW36469   7.201   4.167   1.773 -0.2722  0.2406  0.0409
 8272SOL    HW136470   7.172   4.101   1.842  1.4924 -0.5954 -0.0094
 8272SOL    HW236471   7.192   4.260   1.809 -1.6469 -0.0723  0.5222
 8273SOL     OW36472   7.390   4.943   6.845 -0.0815  0.1205  0.2594
 8273SOL    HW136473   7.354   4.880   6.913 -1.5459 -1.5150 -1.9329
 8273SOL    HW236474   7.465   4.899   6.795 -2.7417 -0.9383 -2.9631
 8274SOL     OW36475   1.813   8.594   8.003 -0.6379 -0.6580  0.1439
 8274SOL    HW136476   1.722   8.569   7.971 -1.8148  1.7035  1.5208
 8274SOL    HW236477   1.853   8.662   7.941 -1.7468  1.7577  1.9807
 8275SOL     OW36478   0.497   7.375   2.356 -0.1336 -0.0466 -0.1208
 8275SOL    HW136479   0.581   7.402   2.404  1.6941 -2.3678 -1.8803
 8275SOL    HW236480   0.468   7.285   2.388 -0.4114 -0.4331 -1.4331
 8276SOL     OW36481   2.062   1.960   7.252 -0.5284  0.7979 -0.0192
 8276SOL    HW136482   2.161   1.972   7.246 -0.7901  1.5793 -3.6136
 8276SOL    HW236483   2.033   1.885   7.193 -2.0598  0.2816  1.3366
 8277SOL     OW36484   6.178   8.322   4.947 -0.4508  0.3641  0.3121
 8277SOL    HW136485   6.103   8.374   4.989 -0.1107 -0.5248  2.0720
 8277SOL    HW236486   6.265   8.354   4.985 -0.0596  0.1597 -0.4069
 8278SOL     OW36487   8.698   0.107   5.352  0.4066  0.4325 -0.0787
 8278SOL    HW136488   8.615   0.055   5.333  1.3093 -1.0089 -0.1405
 8278SOL    HW236489   8.695   0.194   5.303 -1.3474  0.6790  0.4280
 8279SOL     OW36490   1.903   7.392   1.038 -0.4192 -0.2087  0.0035
 8279SOL    HW136491   1.911   7.393   0.938 -1.8450 -1.5916 -0.1466
 8279SOL    HW236492   1.992   7.374   1.079  0.4934  1.8981 -0.9505
 8280SOL     OW36493   5.890   4.090   7.778  0.5700 -0.4386  0.5863
 8280SOL    HW136494   5.808   4.106   7.723  0.1349 -1.3608  0.9428
 8280SOL    HW236495   5.876   4.009   7.836  3.3888 -3.4327 -2.6770
 8281SOL     OW36496   4.477   1.081   0.230  0.7835  0.5248  0.0254
 8281SOL    HW136497   4.390   1.120   0.259  0.1910 -0.2615 -0.6731
 8281SOL    HW236498   4.527   1.147   0.174  1.2020  1.4378  1.4342
 8282SOL     OW36499   2.475   1.185   6.913 -0.1171 -0.3945 -0.2168
 8282SOL    HW136500   2.416   1.208   6.990  0.2963  2.2217 -0.6416
 8282SOL    HW236501   2.515   1.269   6.875  1.2706 -1.8229 -2.0076
 8283SOL     OW36502   0.048   2.942   7.737 -0.0997  0.1546 -0.5635
 8283SOL    HW136503   0.010   2.963   7.827 -1.0357 -0.6990 -0.7646
 8283SOL    HW236504   0.147   2.957   7.739 -0.1613  0.4672  0.5029
 8284SOL     OW36505   4.588   1.701   6.982 -0.4655  0.2473  0.3254
 8284SOL    HW136506   4.640   1.761   7.043  0.4496 -0.4048  0.1998
 8284SOL    HW236507   4.502   1.676   7.026 -0.7394  1.4327  0.4881
 8285SOL     OW36508   1.732   1.971   6.708  0.3929 -0.1604  0.3785
 8285SOL    HW136509   1.636   1.951   6.727  0.3158  1.0711  1.3290
 8285SOL    HW236510   1.748   2.069   6.716  1.4385 -0.1824 -1.1360
 8286SOL     OW36511   6.863   1.446   5.398 -0.0766 -0.0821  0.1233
 8286SOL    HW136512   6.957   1.428   5.428 -0.5843 -1.2596  1.0422
 8286SOL    HW236513   6.842   1.543   5.412  1.2007  0.3407 -0.7017
 8287SOL     OW36514   4.116   3.292   2.501  0.1661 -0.5394  0.2236
 8287SOL    HW136515   4.077   3.370   2.548 -1.6088 -0.1541 -1.7963
 8287SOL    HW236516   4.211   3.310   2.478 -0.0195  0.7215  0.4467
 8288SOL     OW36517   3.155   3.367   4.546 -0.3429 -0.0217  0.2890
 8288SOL    HW136518   3.057   3.347   4.538 -0.2375 -0.0719 -0.9513
 8288SOL    HW236519   3.170   3.465   4.530 -0.1893 -0.0005  0.5494
 8289SOL     OW36520   5.330   0.344   1.249 -0.3971 -0.5284  0.3044
 8289SOL    HW136521   5.325   0.433   1.205  1.7355 -0.6986 -0.3219
 8289SOL    HW236522   5.283   0.349   1.338 -1.3491  0.8624 -0.2512
 8290SOL     OW36523   7.703   6.229   5.545  0.3043 -0.2676 -0.2199
 8290SOL    HW136524   7.615   6.189   5.520  0.5761 -0.1863 -1.3467
 8290SOL    HW236525   7.690   6.293   5.622 -0.4019 -1.2130  0.4617
 8291SOL     OW36526   2.570   4.392   6.998  0.0003 -0.0670 -0.2816
 8291SOL    HW136527   2.495   4.327   7.000  1.0529 -1.2792  0.5393
 8291SOL    HW236528   2.567   4.444   6.913 -1.4411 -0.4819 -0.4922
 8292SOL     OW36529   0.808   0.110   1.410 -0.2034 -0.2143 -0.0763
 8292SOL    HW136530   0.757   0.118   1.495 -0.1740 -2.3905  0.1660
 8292SOL    HW236531   0.904   0.136   1.425 -0.3404  0.0008  0.4057
 8293SOL     OW36532   1.688   0.773   4.509  0.2210 -0.6005 -0.0012
 8293SOL    HW136533   1.714   0.861   4.471 -2.1091 -0.0193 -0.3186
 8293SOL    HW236534   1.735   0.759   4.597 -0.6144  1.6669  0.8426
 8294SOL     OW36535   7.147   9.672   6.144  0.2485 -0.6578 -0.4969
 8294SOL    HW136536   7.128   9.699   6.239 -2.5464 -0.0526 -1.1613
 8294SOL    HW236537   7.239   9.700   6.119  0.2696  1.1090  1.3944
 8295SOL     OW36538   5.563   9.661   2.856  0.3010 -0.0900  0.0668
 8295SOL    HW136539   5.583   9.573   2.814 -1.4514 -0.8394  0.7298
 8295SOL    HW236540   5.608   9.667   2.945 -1.0562 -1.1114  0.8477
 8296SOL     OW36541   3.198   7.863   2.799 -0.2434  0.2205 -0.7381
 8296SOL    HW136542   3.192   7.951   2.846 -2.7167  1.1737 -2.7602
 8296SOL    HW236543   3.123   7.804   2.828  0.1310 -0.4182 -1.0441
 8297SOL     OW36544   0.122   6.779   6.584  0.3081  0.1229 -0.2978
 8297SOL    HW136545   0.078   6.695   6.553  0.3108 -0.5024  1.3473
 8297SOL    HW236546   0.198   6.801   6.523 -0.5516 -0.2956 -1.5528
 8298SOL     OW36547   1.353   4.928   8.150 -0.3275 -0.1297  0.1845
 8298SOL    HW136548   1.319   4.926   8.244 -0.8108  0.2069  0.0180
 8298SOL    HW236549   1.450   4.905   8.149 -0.4042 -0.4819  0.7295
 8299SOL     OW36550   5.762   8.177   5.685 -0.5008 -0.1725  0.3256
 8299SOL    HW136551   5.763   8.272   5.714 -1.1394 -0.6027  1.8002
 8299SOL    HW236552   5.738   8.172   5.588  1.8271  1.2998 -0.3640
 8300SOL     OW36553   7.356   5.738   1.477 -0.0412  0.3437 -0.4042
 8300SOL    HW136554   7.331   5.827   1.514  0.5906  0.3733 -0.0350
 8300SOL    HW236555   7.456   5.729   1.477 -0.1116 -0.4888 -0.1306
 8301SOL     OW36556   1.356   1.636   5.146 -0.1300  0.1939  0.2665
 8301SOL    HW136557   1.445   1.676   5.124 -0.8905  1.5744 -0.3706
 8301SOL    HW236558   1.308   1.694   5.211 -0.5350 -0.6059  0.6982
 8302SOL     OW36559   6.400   1.336   4.980 -0.3364 -0.1491  0.5172
 8302SOL    HW136560   6.328   1.361   5.044  0.0724  2.2962  0.0746
 8302SOL    HW236561   6.388   1.386   4.894  1.2301 -0.5399  0.0435
 8303SOL     OW36562   6.689   1.089   2.266  0.2169 -0.2718  0.5941
 8303SOL    HW136563   6.743   1.161   2.310  1.8519 -0.8120 -0.4798
 8303SOL    HW236564   6.623   1.131   2.203  0.7677  0.3322  0.4104
 8304SOL     OW36565   0.669   8.557   8.097  0.1562  0.5380 -0.3738
 8304SOL    HW136566   0.691   8.613   8.016 -0.1878  1.3729  0.1042
 8304SOL    HW236567   0.671   8.615   8.179 -0.1342 -0.1715  0.1375
 8305SOL     OW36568   5.365   5.942   1.812 -0.1789  0.1624 -0.3807
 8305SOL    HW136569   5.278   5.987   1.832 -0.9369 -1.3359 -0.2360
 8305SOL    HW236570   5.433   6.011   1.786 -1.3214  1.3730 -0.2162
 8306SOL     OW36571   3.107   8.861   1.811  0.0404 -0.2712  0.5547
 8306SOL    HW136572   3.189   8.824   1.856 -0.1330  0.3319  1.3706
 8306SOL    HW236573   3.135   8.914   1.731  0.5497  1.1589  1.6630
 8307SOL     OW36574   6.846   0.489   5.839  0.3528 -0.3534  0.0222
 8307SOL    HW136575   6.943   0.482   5.818  0.6070  1.7658  0.2869
 8307SOL    HW236576   6.792   0.482   5.756  0.7839 -0.8974 -0.2069
 8308SOL     OW36577   0.318   2.818   6.917 -0.5259 -0.2623  0.6605
 8308SOL    HW136578   0.315   2.746   6.986 -0.6814 -0.9370 -0.0426
 8308SOL    HW236579   0.247   2.887   6.937 -3.0824 -2.3428 -0.8623
 8309SOL     OW36580   4.580   4.778   0.534 -0.1608  0.0828  0.0715
 8309SOL    HW136581   4.528   4.842   0.590  0.8981  0.4119  0.6892
 8309SOL    HW236582   4.607   4.699   0.589 -0.2043 -0.1958 -0.3028
 8310SOL     OW36583   8.725   9.582   5.150  0.4481 -0.8332 -0.1256
 8310SOL    HW136584   8.693   9.497   5.109 -1.1424 -0.3184  0.0123
 8310SOL    HW236585   8.718   9.657   5.084  1.5056 -0.7441 -0.1357
 8311SOL     OW36586   8.433   6.735   5.797  0.4897 -1.4209 -0.5162
 8311SOL    HW136587   8.334   6.739   5.806  0.4136 -1.7615 -1.1567
 8311SOL    HW236588   8.457   6.717   5.702  1.2000  0.0672 -0.6472
 8312SOL     OW36589   4.656   7.653   4.522 -0.3157  0.2144 -0.0319
 8312SOL    HW136590   4.674   7.678   4.426 -1.5484  1.3300  0.0151
 8312SOL    HW236591   4.601   7.569   4.524 -0.8301  0.5406 -0.3178
 8313SOL     OW36592   5.028   7.304   1.037  0.3100  0.1701 -0.1002
 8313SOL    HW136593   5.064   7.368   0.969  0.1280 -0.7395 -1.0635
 8313SOL    HW236594   4.948   7.257   1.000 -1.3325  1.4874  1.6777
 8314SOL     OW36595   0.249   8.738   3.728 -0.2776 -0.4979 -0.6222
 8314SOL    HW136596   0.293   8.757   3.640  0.2542  0.1482 -0.2289
 8314SOL    HW236597   0.236   8.640   3.739  0.2245 -0.6267 -1.1517
 8315SOL     OW36598   7.567   1.237   2.807 -0.1927  0.1239  0.3833
 8315SOL    HW136599   7.509   1.309   2.769 -1.7278 -1.7983 -0.9679
 8315SOL    HW236600   7.522   1.199   2.888 -1.0071 -1.5702 -0.8392
 8316SOL     OW36601   0.997   4.291   1.734 -0.0502 -0.0193  0.0413
 8316SOL    HW136602   0.973   4.209   1.787  0.7111  1.0484  2.1102
 8316SOL    HW236603   0.919   4.353   1.732  0.4504  0.6835  1.4033
 8317SOL     OW36604   1.811   4.853   1.478  0.3475  0.4362 -0.1784
 8317SOL    HW136605   1.901   4.850   1.434 -0.7290 -1.1292 -2.3545
 8317SOL    HW236606   1.788   4.762   1.514  0.0223  1.0447  1.1640
 8318SOL     OW36607   5.756   0.734   5.330 -0.2088  0.5818 -0.0453
 8318SOL    HW136608   5.814   0.778   5.261 -1.3841  1.7355 -0.3242
 8318SOL    HW236609   5.755   0.790   5.413  0.5569 -0.3922  0.6335
 8319SOL     OW36610   6.212   3.453   1.153 -0.2708 -0.5298 -0.6018
 8319SOL    HW136611   6.289   3.417   1.100  0.0920 -0.5415 -0.0769
 8319SOL    HW236612   6.248   3.506   1.231 -0.7923 -1.2334  0.1161
 8320SOL     OW36613   3.854   8.203   6.231  0.1642  0.1434  0.0005
 8320SOL    HW136614   3.804   8.289   6.227  0.4831  0.3298  0.0815
 8320SOL    HW236615   3.905   8.190   6.146 -2.2558 -1.3951 -1.2887
 8321SOL     OW36616   1.700   5.528   5.522  0.2830 -0.2938 -0.1427
 8321SOL    HW136617   1.632   5.577   5.469  1.0967  0.5737 -0.3981
 8321SOL    HW236618   1.661   5.443   5.558 -1.0621  0.4357  0.1235
 8322SOL     OW36619   2.333   4.958   0.181 -0.2080 -0.3187  0.0485
 8322SOL    HW136620   2.409   5.017   0.210 -0.3917 -0.9423  1.8311
 8322SOL    HW236621   2.325   4.881   0.243 -0.9125 -1.4643 -1.4312
 8323SOL     OW36622   5.172   1.633   5.227  0.1779 -0.2746 -0.0225
 8323SOL    HW136623   5.256   1.581   5.241  0.8008 -0.4257 -3.8498
 8323SOL    HW236624   5.194   1.729   5.214 -0.3538 -0.1471 -0.0165
 8324SOL     OW36625   9.858   4.014   0.920  0.4218  0.4356 -0.5817
 8324SOL    HW136626   9.884   3.942   0.854  1.6825  0.6266 -0.3171
 8324SOL    HW236627   9.804   3.973   0.993  1.8975 -0.4509  0.0471
 8325SOL     OW36628   6.107   5.609   8.188 -0.2548  0.1972 -1.1320
 8325SOL    HW136629   6.051   5.557   8.253  2.5931 -0.5119  0.8728
 8325SOL    HW236630   6.089   5.707   8.199 -0.2882  0.0385  0.3207
 8326SOL     OW36631   4.618   3.921   1.742  0.3458  0.1803 -0.1370
 8326SOL    HW136632   4.711   3.937   1.776 -0.1838 -2.7683  2.9997
 8326SOL    HW236633   4.613   3.831   1.699 -0.7808  0.8712 -1.5013
 8327SOL     OW36634   1.549   8.548   7.959  0.8845  0.0423 -0.3512
 8327SOL    HW136635   1.549   8.497   7.873  1.1631 -0.5044 -0.0306
 8327SOL    HW236636   1.530   8.485   8.035  1.1702  0.4299  0.0422
 8328SOL     OW36637   0.304   1.491   4.148 -0.1239  0.5566 -0.5364
 8328SOL    HW136638   0.338   1.583   4.131  2.2495 -0.4394 -1.3747
 8328SOL    HW236639   0.380   1.426   4.151 -1.7984 -1.5235 -0.8818
 8329SOL     OW36640   4.302   0.275   3.752  0.7069  0.1512  0.1438
 8329SOL    HW136641   4.345   0.192   3.715 -0.7984 -0.7045  0.2789
 8329SOL    HW236642   4.280   0.337   3.677  0.5838 -0.1842 -0.1028
 8330SOL     OW36643   6.025   9.511   4.415  0.1606  0.4102  0.5286
 8330SOL    HW136644   6.086   9.590   4.411  0.4482  0.1896  0.5839
 8330SOL    HW236645   5.944   9.535   4.469 -0.7083  1.3185 -1.1260
 8331SOL     OW36646   7.400   8.867   2.007  0.5667  0.5926 -0.2287
 8331SOL    HW136647   7.430   8.930   1.936  0.3720  0.8560 -0.0739
 8331SOL    HW236648   7.322   8.905   2.056 -0.7867 -0.6043 -1.3868
 8332SOL     OW36649   6.985   9.952   6.032 -0.4151  0.2522  0.1454
 8332SOL    HW136650   7.068   9.913   5.992  0.1684  0.5116  1.0894
 8332SOL    HW236651   6.981  10.050   6.012 -0.7977  0.1212 -0.4126
 8333SOL     OW36652   2.925   9.770   2.543 -0.4260 -0.3894 -0.2125
 8333SOL    HW136653   2.979   9.691   2.514  0.3454 -0.4890  1.4725
 8333SOL    HW236654   2.838   9.739   2.581  0.2583 -0.4988  1.2958
 8334SOL     OW36655   1.668   1.322   4.228  0.0762  0.0687 -0.3143
 8334SOL    HW136656   1.582   1.281   4.196  0.3688 -0.6574 -0.1841
 8334SOL    HW236657   1.655   1.361   4.319 -0.6747  1.8504 -1.1666
 8335SOL     OW36658   2.333   1.228   1.669 -0.0751 -0.0561 -0.2213
 8335SOL    HW136659   2.315   1.323   1.644  0.6801  0.0962 -0.1925
 8335SOL    HW236660   2.432   1.212   1.672 -0.1767 -1.7427 -3.6713
 8336SOL     OW36661   0.854   4.239   5.304  0.0025  0.8591  0.1550
 8336SOL    HW136662   0.773   4.203   5.350  0.0925  1.2055  0.5970
 8336SOL    HW236663   0.855   4.210   5.209 -0.3272  0.3479  0.3064
 8337SOL     OW36664   1.721   3.542   2.639 -0.2176  0.3608  0.4765
 8337SOL    HW136665   1.751   3.487   2.562  0.6489  2.4575 -0.7082
 8337SOL    HW236666   1.639   3.501   2.679  0.1380 -1.5065 -0.6771
 8338SOL     OW36667   6.687   9.420   1.643 -0.1768 -0.5185 -0.0388
 8338SOL    HW136668   6.781   9.416   1.678  0.0252  2.0168 -0.2440
 8338SOL    HW236669   6.653   9.514   1.648 -2.5849 -1.3308 -0.3317
 8339SOL     OW36670   1.655   1.409   3.006 -0.8015  0.3667 -0.6846
 8339SOL    HW136671   1.693   1.453   2.925  0.3004  0.9387  0.1331
 8339SOL    HW236672   1.728   1.363   3.057 -1.5932 -0.5791 -0.3697
 8340SOL     OW36673   3.255   3.625   1.568  0.2468 -0.0280 -0.4562
 8340SOL    HW136674   3.298   3.659   1.652  0.3085 -0.1093 -0.4546
 8340SOL    HW236675   3.160   3.603   1.585  0.2959 -0.1750 -0.3740
 8341SOL     OW36676   1.451   8.390   7.736  0.6401 -0.3920 -0.7254
 8341SOL    HW136677   1.362   8.395   7.781  1.1827  0.4788  0.2587
 8341SOL    HW236678   1.488   8.297   7.746  1.7183  0.3092  2.5499
 8342SOL     OW36679   9.246   0.687   2.392 -0.3292 -0.1986 -0.1911
 8342SOL    HW136680   9.148   0.668   2.393 -0.2813 -0.7360 -2.5941
 8342SOL    HW236681   9.263   0.771   2.340  0.5804 -0.8156 -0.9093
 8343SOL     OW36682   3.243   0.600   5.328  0.0362  0.0875  0.2788
 8343SOL    HW136683   3.329   0.645   5.354 -0.4321 -0.3882  2.7833
 8343SOL    HW236684   3.170   0.669   5.323 -0.4870 -0.1874  3.2237
 8344SOL     OW36685   6.324   0.384   2.703 -0.0628  0.5749 -0.6431
 8344SOL    HW136686   6.320   0.481   2.679 -1.2182  0.9480  0.9472
 8344SOL    HW236687   6.231   0.349   2.716  0.4070 -0.3240  0.3977
 8345SOL     OW36688   2.351   4.506   4.133 -0.3299  0.1374  0.4179
 8345SOL    HW136689   2.398   4.591   4.113 -1.9159  1.1687  0.9787
 8345SOL    HW236690   2.284   4.486   4.061  0.9002 -1.3057 -0.3661
 8346SOL     OW36691   8.349   4.411   0.743 -0.1130  0.4514 -0.0712
 8346SOL    HW136692   8.389   4.497   0.776 -0.4091  0.1494  1.0919
 8346SOL    HW236693   8.416   4.338   0.749  0.3579  0.7244 -1.7008
 8347SOL     OW36694   2.052   4.833   0.237 -0.0498 -0.2832 -0.2195
 8347SOL    HW136695   2.148   4.814   0.261 -0.1100 -1.7427 -1.0495
 8347SOL    HW236696   1.993   4.799   0.310  0.0093 -0.3538 -0.2038
 8348SOL     OW36697   0.817   3.117   5.230  0.0701  0.0862 -0.3532
 8348SOL    HW136698   0.808   3.022   5.199  3.0897 -0.6702  0.9136
 8348SOL    HW236699   0.839   3.175   5.151  0.7167 -0.6841 -0.7493
 8349SOL     OW36700   9.881   4.175   3.077  0.4952  0.0137 -0.0371
 8349SOL    HW136701   9.906   4.231   3.155 -1.7628 -0.1757  0.8591
 8349SOL    HW236702   9.819   4.102   3.106  0.1204 -0.4392 -1.8887
 8350SOL     OW36703   5.300   9.874   6.512 -0.3341  0.7225 -0.6066
 8350SOL    HW136704   5.301   9.776   6.534  1.9398  0.5606 -1.2907
 8350SOL    HW236705   5.242   9.890   6.432 -0.1277 -0.1811 -0.9442
 8351SOL     OW36706   0.431   7.737   7.471 -0.7516 -0.2452 -0.5994
 8351SOL    HW136707   0.399   7.726   7.565  0.8567 -0.3390 -0.0499
 8351SOL    HW236708   0.495   7.663   7.449 -0.7740  0.0350 -1.6182
 8352SOL     OW36709   0.882   3.535   4.005  0.3402 -0.0444  0.0175
 8352SOL    HW136710   0.871   3.437   3.989 -2.4064  0.0209  1.1932
 8352SOL    HW236711   0.907   3.581   3.920  1.3200 -1.6997 -0.6136
 8353SOL     OW36712   8.281   0.901   2.076 -0.5614 -0.4000  0.1403
 8353SOL    HW136713   8.288   0.802   2.084  1.4627 -0.3091 -0.3291
 8353SOL    HW236714   8.346   0.934   2.008 -0.6870  1.3180  0.8273
 8354SOL     OW36715   9.222   0.710   3.478  0.3290 -0.0208 -0.0063
 8354SOL    HW136716   9.237   0.674   3.570 -1.6431  1.4453  0.9140
 8354SOL    HW236717   9.125   0.701   3.454  1.0270 -1.5582 -2.4683
 8355SOL     OW36718   8.570   2.587   7.170  0.0887 -0.2879 -0.2689
 8355SOL    HW136719   8.496   2.645   7.140 -0.9474 -0.2908  2.1331
 8355SOL    HW236720   8.650   2.643   7.193 -0.7031  0.1589  1.4554
 8356SOL     OW36721   9.387   3.587   4.883  0.2212 -0.2239 -0.2989
 8356SOL    HW136722   9.319   3.514   4.870 -1.1626  1.0319 -0.2086
 8356SOL    HW236723   9.340   3.675   4.893  1.8731  0.6669 -0.2547
 8357SOL     OW36724   2.686   1.249   4.548  0.3420 -0.3201 -0.6007
 8357SOL    HW136725   2.664   1.165   4.498 -2.7158  0.5524 -0.8104
 8357SOL    HW236726   2.628   1.323   4.517 -0.2385  0.7566  2.7912
 8358SOL     OW36727   3.168   8.071   2.945  0.1137  0.0220 -0.2380
 8358SOL    HW136728   3.230   8.140   2.982  0.6891  0.0984 -1.3025
 8358SOL    HW236729   3.073   8.100   2.956  0.2843  0.0858  1.0580
 8359SOL     OW36730   0.172   1.350   1.763  0.1713  0.1256  0.0238
 8359SOL    HW136731   0.113   1.335   1.683  1.7068 -2.8425 -0.6262
 8359SOL    HW236732   0.268   1.351   1.734  0.7195 -0.4566  1.7774
 8360SOL     OW36733   1.704   9.723   2.599 -0.2976 -0.2351 -0.5457
 8360SOL    HW136734   1.780   9.704   2.536  0.0985  0.1775 -0.1956
 8360SOL    HW236735   1.722   9.679   2.687 -0.4388 -0.0866 -0.4426
 8361SOL     OW36736   8.090   2.531   4.822 -0.2855  0.0284 -0.1693
 8361SOL    HW136737   8.042   2.493   4.743 -1.7986  1.1107  0.2064
 8361SOL    HW236738   8.126   2.457   4.878 -1.9398 -0.8287 -0.2036
 8362SOL     OW36739   8.186   0.752   4.430 -0.0786  0.1486  0.2596
 8362SOL    HW136740   8.096   0.753   4.387  0.2001 -0.3622 -0.3570
 8362SOL    HW236741   8.252   0.795   4.368 -0.0428  1.1914  1.0307
 8363SOL     OW36742   4.457   0.709   3.763 -0.1901 -0.3852 -0.4583
 8363SOL    HW136743   4.548   0.751   3.763 -1.7328  3.1026 -1.4281
 8363SOL    HW236744   4.442   0.661   3.676  1.2435 -2.3008  0.3086
 8364SOL     OW36745   3.120   2.709   6.749  0.6464  0.2884 -0.4437
 8364SOL    HW136746   3.119   2.808   6.743 -2.7151  0.2352 -2.0184
 8364SOL    HW236747   3.028   2.676   6.772  1.9685 -2.4028  1.2811
 8365SOL     OW36748   1.824   4.888   6.886  0.1888 -0.4369 -0.1654
 8365SOL    HW136749   1.759   4.950   6.840  0.0333 -1.2414 -1.0453
 8365SOL    HW236750   1.800   4.793   6.865  1.7298 -0.7414 -0.6175
 8366SOL     OW36751   3.852   0.926   1.794  0.0230 -0.1206  0.1536
 8366SOL    HW136752   3.782   0.949   1.725  1.7407  1.4301 -1.1211
 8366SOL    HW236753   3.840   0.985   1.874 -0.1157  0.1488 -0.0627
 8367SOL     OW36754   4.990   3.636   1.633 -0.0681 -0.4101  0.4367
 8367SOL    HW136755   4.949   3.727   1.631 -1.2022 -0.9264 -0.5400
 8367SOL    HW236756   4.982   3.594   1.543  1.4382 -1.0517  0.5995
 8368SOL     OW36757   5.398   9.003   2.558  0.1699 -0.3376  0.4388
 8368SOL    HW136758   5.381   9.016   2.656 -1.3465  0.9582  0.0206
 8368SOL    HW236759   5.353   8.920   2.527  0.3610 -0.5643  0.7595
 8369SOL     OW36760   0.310   2.458   7.268 -0.2791 -0.2768  0.1774
 8369SOL    HW136761   0.385   2.409   7.312 -0.2515 -0.7703 -0.4162
 8369SOL    HW236762   0.347   2.523   7.202 -0.3820 -0.8228 -0.4252
 8370SOL     OW36763   3.172   9.802   4.095  0.2285 -0.5484 -0.2249
 8370SOL    HW136764   3.193   9.830   4.189  1.2075 -1.1141 -0.2615
 8370SOL    HW236765   3.129   9.712   4.096 -0.9343  0.0080 -0.2379
 8371SOL     OW36766   1.283   7.378   6.274  0.1811  0.1113 -0.8344
 8371SOL    HW136767   1.234   7.436   6.339 -1.0447 -0.5138 -1.1737
 8371SOL    HW236768   1.220   7.350   6.201  1.4093  0.4039 -2.0274
 8372SOL     OW36769   8.548   0.577   5.776  0.4245  0.2855  0.0728
 8372SOL    HW136770   8.451   0.570   5.753  0.7467  2.1942 -2.0586
 8372SOL    HW236771   8.594   0.490   5.755 -0.6595 -0.3555  0.3335
 8373SOL     OW36772   7.097   1.701   4.062  0.2092 -0.1829  0.2126
 8373SOL    HW136773   7.072   1.654   3.977 -0.0311  2.8457 -1.4806
 8373SOL    HW236774   7.146   1.638   4.122 -1.5119 -3.0209 -1.2333
 8374SOL     OW36775   0.657   7.834   2.561 -0.0820  0.1610 -0.0054
 8374SOL    HW136776   0.730   7.841   2.494  0.5073  1.1148  0.7294
 8374SOL    HW236777   0.696   7.831   2.653 -0.9098 -0.5158  0.3348
 8375SOL     OW36778   4.331   4.262   2.316  0.0078  0.3313  0.1517
 8375SOL    HW136779   4.349   4.215   2.402 -0.1970  2.2929  1.2781
 8375SOL    HW236780   4.404   4.242   2.251  1.7321  1.2406  1.7819
 8376SOL     OW36781   3.850   2.574   4.333  0.4645 -0.1110  0.0317
 8376SOL    HW136782   3.944   2.561   4.365  1.2639  0.3083 -2.0472
 8376SOL    HW236783   3.844   2.658   4.280 -0.4687 -1.4300 -2.0161
 8377SOL     OW36784   9.038   9.013   4.539 -0.0196  0.1846  0.0853
 8377SOL    HW136785   9.047   9.061   4.627 -0.5040 -2.3219  1.5630
 8377SOL    HW236786   9.129   8.985   4.507  0.2058  1.5523 -0.4827
 8378SOL     OW36787   3.590   9.783   7.525  0.2681  0.2253  0.5389
 8378SOL    HW136788   3.540   9.848   7.583  2.5308  1.8159  0.7641
 8378SOL    HW236789   3.668   9.747   7.576  0.9645 -0.1158 -0.7698
 8379SOL     OW36790   2.203   7.342   3.511  0.7240  0.0119 -0.1646
 8379SOL    HW136791   2.121   7.395   3.493  1.8077  1.0148 -2.3690
 8379SOL    HW236792   2.281   7.404   3.521  1.9275 -1.1105 -2.3027
 8380SOL     OW36793   3.369   3.542   6.646  0.7722 -0.2305  0.4323
 8380SOL    HW136794   3.415   3.472   6.700  2.0396  0.3538  0.1324
 8380SOL    HW236795   3.294   3.582   6.699  0.7296 -1.0595  0.9963
 8381SOL     OW36796   6.650   4.583   7.395  0.2063  0.1615  0.0916
 8381SOL    HW136797   6.742   4.566   7.357  0.8587  0.2965  1.5866
 8381SOL    HW236798   6.649   4.559   7.492 -1.6095 -0.7223 -0.1234
 8382SOL     OW36799   9.274   6.765   4.984  0.4877 -0.3416  0.0233
 8382SOL    HW136800   9.203   6.726   4.926 -0.3834 -0.9719  1.4865
 8382SOL    HW236801   9.359   6.713   4.972  0.5822  0.1199 -1.3702
 8383SOL     OW36802   7.536   8.212   3.091 -0.6932  0.2787 -0.2770
 8383SOL    HW136803   7.484   8.291   3.122 -0.8814 -0.5240  1.5098
 8383SOL    HW236804   7.545   8.147   3.166  2.8976  0.3945 -0.5449
 8384SOL     OW36805   2.670   7.289   5.281  0.1288 -0.1507  0.0383
 8384SOL    HW136806   2.648   7.298   5.183  1.0403 -1.4021 -0.2829
 8384SOL    HW236807   2.586   7.301   5.335 -0.8042 -1.8317 -1.0165
 8385SOL     OW36808   7.024   1.570   3.840  0.3989 -0.0078  0.3912
 8385SOL    HW136809   6.967   1.639   3.797  0.8031  0.1018  0.0336
 8385SOL    HW236810   7.052   1.502   3.772  0.8748  0.0582  0.5214
 8386SOL     OW36811   7.177   0.546   4.980 -0.1166 -1.1020  0.6106
 8386SOL    HW136812   7.135   0.501   5.059  2.2479 -1.4462  1.6991
 8386SOL    HW236813   7.178   0.645   4.995 -0.7733 -1.0659  0.4489
 8387SOL     OW36814   1.925   0.768   3.041  0.4046  0.4087  0.3439
 8387SOL    HW136815   1.831   0.748   3.070  0.3076  1.8738  1.0802
 8387SOL    HW236816   1.963   0.689   2.993 -0.9144 -0.4954  0.7799
 8388SOL     OW36817   2.362   3.832   5.957 -0.5169 -0.3593 -0.4720
 8388SOL    HW136818   2.378   3.887   5.875 -0.1952 -2.2257 -1.6874
 8388SOL    HW236819   2.312   3.749   5.932 -1.0314 -0.6253  1.3443
 8389SOL     OW36820   2.832   8.586   7.609  0.2637 -0.1940  0.6988
 8389SOL    HW136821   2.739   8.619   7.620  0.0957 -0.7834  1.0573
 8389SOL    HW236822   2.864   8.607   7.516  0.1882  1.0239  0.9436
 8390SOL     OW36823   0.993   0.085   1.831  0.7172  0.5954 -0.4457
 8390SOL    HW136824   1.029   0.003   1.877  0.7591  1.2996  0.7921
 8390SOL    HW236825   1.065   0.125   1.774  0.3096 -0.9704 -2.1333
 8391SOL     OW36826   5.882   0.843   5.137  0.3776 -0.2019  0.1010
 8391SOL    HW136827   5.874   0.877   5.043  2.5191 -1.1710 -0.4594
 8391SOL    HW236828   5.977   0.849   5.166 -0.1455 -0.6597  1.9484
 8392SOL     OW36829   3.104   7.949   5.024 -0.4790  0.3055  0.5675
 8392SOL    HW136830   3.049   8.021   4.983  0.3983 -0.0556 -1.2897
 8392SOL    HW236831   3.142   7.981   5.110 -2.9129  0.8394  1.4917
 8393SOL     OW36832   8.088   8.759   1.447  0.2683 -0.0308 -0.0810
 8393SOL    HW136833   8.114   8.783   1.541 -1.6265  0.7417  0.2667
 8393SOL    HW236834   8.007   8.701   1.448 -0.4896  0.9576 -1.2650
 8394SOL     OW36835   9.907   8.207   1.750 -0.2051  0.4100  0.1420
 8394SOL    HW136836   9.913   8.261   1.834  0.2353  0.9497 -0.2223
 8394SOL    HW236837   9.912   8.269   1.671  0.3005 -0.1651 -0.2831
 8395SOL     OW36838   4.966   2.089   7.154  1.1836  0.0800  0.3145
 8395SOL    HW136839   4.922   2.176   7.174 -0.4469 -0.6989  0.1818
 8395SOL    HW236840   5.014   2.056   7.235  2.4149  1.4317  0.1593
 8396SOL     OW36841   0.585   1.200   5.657 -0.9160 -0.4886  0.2689
 8396SOL    HW136842   0.601   1.160   5.567 -2.6048 -0.7065  0.0480
 8396SOL    HW236843   0.494   1.243   5.659 -0.4715  0.4322  1.5416
 8397SOL     OW36844   2.531   2.100   4.081  0.4284  0.2715 -0.2356
 8397SOL    HW136845   2.615   2.143   4.114  1.8499 -1.5997 -1.2922
 8397SOL    HW236846   2.504   2.026   4.143  1.6383 -1.5171 -1.7769
 8398SOL     OW36847   9.597   1.337   1.325  0.2170  0.3220 -0.1802
 8398SOL    HW136848   9.530   1.411   1.332 -0.9012 -0.7564  0.7645
 8398SOL    HW236849   9.602   1.288   1.412  0.7845 -0.8651 -0.8629
 8399SOL     OW36850   1.990   4.272   5.576 -0.2220  0.2100 -0.7598
 8399SOL    HW136851   2.045   4.341   5.528 -1.8831 -0.0046 -3.0488
 8399SOL    HW236852   2.000   4.184   5.530 -1.9128  0.0268 -0.8210
 8400SOL     OW36853   1.997   1.923   2.672  0.0669 -0.5709 -0.0445
 8400SOL    HW136854   1.935   1.999   2.691  0.4330  0.2706 -2.0433
 8400SOL    HW236855   2.039   1.892   2.757 -1.6888  0.0576  1.0872
 8401SOL     OW36856   1.013   2.697   1.977  0.1589  0.3565 -0.2629
 8401SOL    HW136857   1.106   2.734   1.985 -0.3920  1.4435  1.4948
 8401SOL    HW236858   0.983   2.664   2.067 -0.8949 -0.6566 -0.9764
 8402SOL     OW36859   3.792   8.336   7.481 -0.1128 -0.0823 -0.4223
 8402SOL    HW136860   3.772   8.390   7.563  1.6264  1.1191 -0.7685
 8402SOL    HW236861   3.884   8.298   7.487 -0.4295 -1.0104 -1.2719
 8403SOL     OW36862   9.330   5.579   0.140 -0.8083 -0.2640 -0.3613
 8403SOL    HW136863   9.369   5.566   0.232 -0.9888  2.9710  0.2245
 8403SOL    HW236864   9.256   5.513   0.126 -1.4077 -0.1886  2.2028
 8404SOL     OW36865   3.254   1.220   1.964 -0.3150  0.0952 -0.0010
 8404SOL    HW136866   3.161   1.227   2.000 -0.4560  0.2592 -0.3926
 8404SOL    HW236867   3.250   1.189   1.869  0.0207  0.2825 -0.0760
 8405SOL     OW36868   1.356   3.467   5.570  0.1010  0.4568  0.1590
 8405SOL    HW136869   1.349   3.563   5.544  0.6625  0.5520  0.3574
 8405SOL    HW236870   1.452   3.443   5.585 -0.1163  0.1308  1.0999
 8406SOL     OW36871   3.127   0.282   4.853 -0.7208 -0.0458  0.0566
 8406SOL    HW136872   3.154   0.271   4.757 -1.0639 -0.7946  0.0483
 8406SOL    HW236873   3.045   0.340   4.858 -0.4888  0.2967 -0.0746
 8407SOL     OW36874   9.093   6.784   0.731  0.2658 -0.2979 -0.5870
 8407SOL    HW136875   9.071   6.746   0.641 -1.1540 -2.6542  0.7118
 8407SOL    HW236876   9.168   6.732   0.772 -0.4027 -0.4853  0.4049
 8408SOL     OW36877   5.299   1.978   7.598 -0.3016  0.1089  0.0525
 8408SOL    HW136878   5.251   1.993   7.511  0.3998  0.3179 -0.2960
 8408SOL    HW236879   5.386   1.933   7.581 -0.9824 -1.5434  0.8102
 8409SOL     OW36880   9.219   3.714   3.953 -0.0254 -0.7095  0.3641
 8409SOL    HW136881   9.124   3.689   3.933 -0.6737  1.4087  0.6976
 8409SOL    HW236882   9.259   3.760   3.874  0.3004 -0.4373  0.6821
 8410SOL     OW36883   4.554   9.139   5.663 -0.3626 -0.2082  0.4960
 8410SOL    HW136884   4.578   9.192   5.581  1.1523  0.0629  1.1020
 8410SOL    HW236885   4.455   9.139   5.675 -0.3639  2.6973  0.6240
 8411SOL     OW36886   6.913   7.551   5.785  0.4276 -0.3553  0.0716
 8411SOL    HW136887   6.835   7.523   5.729  0.5009 -3.3333  1.3275
 8411SOL    HW236888   6.881   7.609   5.860 -0.5504 -1.1406  0.2841
 8412SOL     OW36889   2.816   8.791   3.175  0.3175  0.0060 -0.2661
 8412SOL    HW136890   2.807   8.842   3.089 -0.5491  1.4135  0.6468
 8412SOL    HW236891   2.866   8.846   3.242 -0.0139 -0.6188  0.5109
 8413SOL     OW36892   9.660   4.165   5.627 -0.0094 -0.2286  0.5767
 8413SOL    HW136893   9.715   4.246   5.648  0.9335 -1.5743  3.4440
 8413SOL    HW236894   9.564   4.191   5.619  0.3543  1.2502  0.8722
 8414SOL     OW36895   4.533   6.204   3.564 -0.5370  0.0308  0.4473
 8414SOL    HW136896   4.451   6.253   3.592 -2.3802 -0.6743 -3.3769
 8414SOL    HW236897   4.603   6.269   3.534 -1.2312  0.5158 -0.1445
 8415SOL     OW36898   6.605   0.315   0.477 -0.3158  0.5131 -0.0502
 8415SOL    HW136899   6.691   0.288   0.433 -1.2543  0.8563 -2.1179
 8415SOL    HW236900   6.528   0.277   0.426 -1.4327  1.0134  1.2466
 8416SOL     OW36901   9.668   4.560   3.017  0.4239 -0.4753  0.2005
 8416SOL    HW136902   9.709   4.616   3.089 -0.3449  0.3131  0.0413
 8416SOL    HW236903   9.666   4.613   2.932 -1.2010 -0.3803  0.2869
 8417SOL     OW36904   2.728   8.575   5.788 -0.2753 -0.1078 -0.1669
 8417SOL    HW136905   2.735   8.601   5.692  2.3850 -1.6883 -0.4273
 8417SOL    HW236906   2.757   8.652   5.846  3.2188 -0.8912 -0.8037
 8418SOL     OW36907   8.280   7.550   3.019  0.1137 -0.2346  0.5554
 8418SOL    HW136908   8.295   7.451   3.022 -2.4087 -0.8430 -3.8408
 8418SOL    HW236909   8.202   7.574   3.077 -0.6367 -1.1468 -0.0663
 8419SOL     OW36910   9.997   2.701   3.737 -0.5822 -0.1999 -0.5706
 8419SOL    HW136911   9.947   2.659   3.661 -2.6882  1.8010 -0.3730
 8419SOL    HW236912  10.038   2.787   3.706 -0.2818 -0.0551  0.2093
 8420SOL     OW36913   3.996   3.162   6.919 -0.8892  0.1534 -0.4316
 8420SOL    HW136914   3.919   3.108   6.953 -0.8431 -0.0010 -0.5701
 8420SOL    HW236915   4.078   3.105   6.916 -0.8877  0.1706 -0.7836
 8421SOL     OW36916   4.184   0.211   5.313 -0.1854  0.1279 -0.0574
 8421SOL    HW136917   4.108   0.157   5.349  0.8354 -1.2445  0.0566
 8421SOL    HW236918   4.201   0.186   5.218  0.4699  0.0430  0.0809
 8422SOL     OW36919   5.912   8.178   5.261  0.3513 -0.0786 -0.3832
 8422SOL    HW136920   5.936   8.184   5.164  0.1056  0.4006 -0.4145
 8422SOL    HW236921   5.979   8.121   5.308 -1.4683 -3.1985 -1.4740
 8423SOL     OW36922   9.420   1.011   4.185 -0.2682 -0.4769 -0.1869
 8423SOL    HW136923   9.326   1.007   4.219  0.1054  1.1703  1.0921
 8423SOL    HW236924   9.447   1.106   4.175  1.4271 -0.9401 -0.0995
 8424SOL     OW36925   2.257   8.634   7.150 -0.0357 -0.2623 -0.0937
 8424SOL    HW136926   2.249   8.687   7.234 -2.5244 -1.2876  0.3356
 8424SOL    HW236927   2.351   8.599   7.142  0.7786  1.5275  1.1869
 8425SOL     OW36928   6.946   1.881   0.414 -0.2096 -0.4022  0.4919
 8425SOL    HW136929   6.860   1.868   0.364 -1.0525 -3.5505  2.5855
 8425SOL    HW236930   6.928   1.931   0.499  0.6844  2.0883 -0.7328
 8426SOL     OW36931   1.818   5.623   4.891  0.0707  0.3227  0.0739
 8426SOL    HW136932   1.759   5.624   4.972 -0.2413  0.2134 -0.1504
 8426SOL    HW236933   1.772   5.672   4.817  0.2799  0.2678 -0.0896
 8427SOL     OW36934   2.373   4.145   5.383 -0.3804  0.3492 -0.1658
 8427SOL    HW136935   2.380   4.053   5.344 -1.5400  0.2828 -0.2507
 8427SOL    HW236936   2.464   4.186   5.390 -0.0462 -0.0254 -2.0147
 8428SOL     OW36937   7.032   7.641   3.501 -0.0336 -0.1877 -0.1463
 8428SOL    HW136938   7.037   7.600   3.411  0.5161 -0.5428  0.0482
 8428SOL    HW236939   6.959   7.710   3.502  1.5721  1.5949 -1.5804
 8429SOL     OW36940   9.335   8.458   4.737 -0.0406 -0.3340  0.5398
 8429SOL    HW136941   9.433   8.474   4.735 -0.1189  0.1527  0.5799
 8429SOL    HW236942   9.304   8.422   4.649  0.1120 -0.1436  0.4112
 8430SOL     OW36943   0.332   3.170   5.633  0.1972 -0.5951  0.6468
 8430SOL    HW136944   0.283   3.257   5.630  1.1628  0.0130  1.7946
 8430SOL    HW236945   0.295   3.108   5.564  0.0223  0.9950 -0.6996
 8431SOL     OW36946   2.200   0.118   6.547  0.1851  0.4797 -0.3900
 8431SOL    HW136947   2.209   0.044   6.480 -0.7261  0.0257 -0.0174
 8431SOL    HW236948   2.283   0.123   6.602 -0.6447 -1.7907  1.1236
 8432SOL     OW36949   5.230   0.738   2.756 -0.0540 -0.1822  0.1654
 8432SOL    HW136950   5.323   0.753   2.790  0.5647  0.8425 -1.9264
 8432SOL    HW236951   5.200   0.818   2.704 -1.6339 -1.0102 -0.2167
 8433SOL     OW36952   9.275   5.548   5.542  0.1344 -0.0699  0.3790
 8433SOL    HW136953   9.231   5.476   5.597  2.1467 -2.1214 -0.6025
 8433SOL    HW236954   9.371   5.524   5.528  0.5597  2.3130 -0.8906
 8434SOL     OW36955   1.074   3.837   2.513  0.2145 -0.6235  0.1337
 8434SOL    HW136956   1.152   3.781   2.483 -1.6008 -2.9219 -0.4777
 8434SOL    HW236957   1.008   3.778   2.560 -0.6525  1.5070  1.6369
 8435SOL     OW36958   3.006   4.430   6.129 -0.0209  0.5706  0.1966
 8435SOL    HW136959   2.930   4.438   6.065 -0.3363  2.1055  0.7289
 8435SOL    HW236960   2.971   4.423   6.222  0.4726  1.0663  0.4250
 8436SOL     OW36961   6.352   9.747   1.467  0.1963  0.7079  0.6817
 8436SOL    HW136962   6.273   9.697   1.432 -1.3068  3.0323  0.6169
 8436SOL    HW236963   6.391   9.802   1.393  0.5689  1.1765  1.2239
 8437SOL     OW36964   0.843   3.591   6.067  0.2116  0.4429 -0.5476
 8437SOL    HW136965   0.841   3.526   5.991 -0.4637 -0.0900 -0.0893
 8437SOL    HW236966   0.865   3.543   6.152  0.8049  1.0039 -0.3831
 8438SOL     OW36967   0.241   6.767   8.074  0.9153 -0.9972 -0.1494
 8438SOL    HW136968   0.268   6.838   8.009 -0.7408  0.2424  0.4786
 8438SOL    HW236969   0.185   6.698   8.027  1.2214 -1.0590 -0.4241
 8439SOL     OW36970   2.766   6.412   1.111 -0.5211 -0.3755 -0.0698
 8439SOL    HW136971   2.699   6.338   1.121 -0.2644 -0.5195  0.6663
 8439SOL    HW236972   2.742   6.487   1.173 -1.9091  1.0227 -2.2509
 8440SOL     OW36973   6.929   5.183   1.971  0.3249  0.3830  0.0460
 8440SOL    HW136974   6.876   5.099   1.980 -1.9587  2.0511  3.3030
 8440SOL    HW236975   6.873   5.261   2.001  3.2990  2.7259 -0.2594
 8441SOL     OW36976   8.700   6.981   3.240 -0.0777 -0.0238 -0.2510
 8441SOL    HW136977   8.705   6.957   3.337 -1.1478 -0.2476 -0.2465
 8441SOL    HW236978   8.792   6.983   3.201  0.4047  0.6517  0.9097
 8442SOL     OW36979   8.060   4.025   0.086 -0.4304  0.1424  0.2900
 8442SOL    HW136980   7.973   3.978   0.069 -0.0801 -0.8541  1.2256
 8442SOL    HW236981   8.094   4.063   0.000 -1.8978  0.7329 -0.0508
 8443SOL     OW36982   1.862   9.673   4.439 -0.1795  0.1482 -0.2513
 8443SOL    HW136983   1.918   9.590   4.436 -1.5957 -0.7913 -1.6170
 8443SOL    HW236984   1.796   9.666   4.513 -1.2968 -0.6356 -1.2969
 8444SOL     OW36985   1.875   3.829   2.166 -0.4562  0.1754 -0.0997
 8444SOL    HW136986   1.938   3.838   2.244 -1.7321 -0.5904  1.0411
 8444SOL    HW236987   1.924   3.789   2.088  0.2104 -1.4552  1.1195
 8445SOL     OW36988   3.682   8.683   4.150 -0.0659 -0.0492  0.3660
 8445SOL    HW136989   3.759   8.680   4.214 -0.0063 -2.1784  0.2097
 8445SOL    HW236990   3.614   8.616   4.176  0.1816 -1.3103 -2.0723
 8446SOL     OW36991   2.043   6.526   1.553  0.3400 -0.6200 -0.0593
 8446SOL    HW136992   2.013   6.479   1.636  1.0821 -3.4899 -1.3311
 8446SOL    HW236993   2.015   6.473   1.473  3.7391 -0.4215 -1.4763
 8447SOL     OW36994   8.397   1.012   1.420  0.2246  0.8947 -0.1636
 8447SOL    HW136995   8.376   1.089   1.481 -0.5185  2.1706 -1.9721
 8447SOL    HW236996   8.402   0.928   1.473 -0.6638  1.9333  1.6236
 8448SOL     OW36997   0.904   3.235   7.203  0.7603  0.8463  0.1204
 8448SOL    HW136998   0.909   3.235   7.303  0.8688  0.4040  0.1164
 8448SOL    HW236999   0.840   3.164   7.173  3.7195 -1.7673 -0.2599
 8449SOL     OW37000   7.525   8.578   4.876 -0.0884 -0.6161  0.1409
 8449SOL    HW137001   7.498   8.577   4.779 -0.2064 -1.0316  0.1796
 8449SOL    HW237002   7.487   8.660   4.920 -0.1272 -0.4832 -0.1358
 8450SOL     OW37003   9.414   3.518   1.138  0.2647 -0.7887  0.0564
 8450SOL    HW137004   9.459   3.594   1.090  1.1846 -1.5269 -0.2648
 8450SOL    HW237005   9.378   3.550   1.225  2.5812 -0.4623  0.9437
 8451SOL     OW37006   4.350   4.965   7.186  0.1670  0.3675 -0.2261
 8451SOL    HW137007   4.375   4.924   7.274 -1.5991  1.5551  0.8775
 8451SOL    HW237008   4.395   5.054   7.177  0.8337 -0.0289 -0.7998
 8452SOL     OW37009   0.799   1.068   3.844  0.3750  0.2938 -0.7576
 8452SOL    HW137010   0.832   1.050   3.752  1.0240  0.5615 -0.5881
 8452SOL    HW237011   0.718   1.126   3.840  1.2488  1.5180 -1.1210
 8453SOL     OW37012   2.954   3.174   0.616  0.2584 -0.5120 -0.8136
 8453SOL    HW137013   2.904   3.251   0.577  1.2257  0.4105 -0.2763
 8453SOL    HW237014   2.952   3.179   0.716  1.9985 -0.0342 -0.7700
 8454SOL     OW37015   4.876   5.692   7.807  0.1038 -0.5422 -0.3783
 8454SOL    HW137016   4.861   5.759   7.734  0.6485 -1.3548 -1.2529
 8454SOL    HW237017   4.955   5.635   7.784 -2.2171 -3.5701 -1.2097
 8455SOL     OW37018   3.676   6.009   1.892  0.3755  0.3070 -0.0722
 8455SOL    HW137019   3.631   5.945   1.830 -1.3717 -0.8376  2.3050
 8455SOL    HW237020   3.701   6.092   1.841 -0.3277 -0.8808 -2.4446
 8456SOL     OW37021   1.481   4.682   1.903  0.4242  0.0633  0.8066
 8456SOL    HW137022   1.476   4.670   1.804  0.9893 -0.7983  0.8753
 8456SOL    HW237023   1.421   4.757   1.931  0.3315  0.3690 -0.1964
 8457SOL     OW37024   9.532   3.999   0.957  0.2465  0.9502 -0.1156
 8457SOL    HW137025   9.519   4.027   0.862 -2.1004  0.6070  0.0858
 8457SOL    HW237026   9.503   4.072   1.018 -0.8341  0.1334  0.3580
 8458SOL     OW37027   8.702   6.469   7.610  0.2702 -0.0345  0.1713
 8458SOL    HW137028   8.605   6.444   7.599 -0.1018  0.9428  1.1616
 8458SOL    HW237029   8.753   6.390   7.644 -0.1755 -0.5589 -0.3593
 8459SOL     OW37030   5.981   0.442   5.899  1.0723  0.4809  0.6353
 8459SOL    HW137031   5.931   0.466   5.983 -1.4827  0.8088 -0.9081
 8459SOL    HW237032   5.937   0.486   5.821  2.6215 -0.8818 -1.0560
 8460SOL     OW37033   0.240   4.293   1.586 -0.3723 -0.4172 -0.3107
 8460SOL    HW137034   0.205   4.343   1.508 -0.2669 -0.9971 -0.7322
 8460SOL    HW237035   0.221   4.344   1.670  0.5164  0.7505 -0.8006
 8461SOL     OW37036   3.534   2.082   2.523  0.0117  0.1211  0.5993
 8461SOL    HW137037   3.630   2.079   2.496  0.1039 -1.2332  1.0767
 8461SOL    HW237038   3.497   1.989   2.529 -1.4142  0.6369  0.1215
 8462SOL     OW37039   3.326   0.515   5.075 -0.4456 -0.2838 -0.5175
 8462SOL    HW137040   3.289   0.555   5.159  0.3868  0.5915 -0.5576
 8462SOL    HW237041   3.338   0.417   5.088 -0.5732 -0.2014  0.2937
 8463SOL     OW37042   6.347   7.977   6.419  0.0086 -0.0176 -0.2083
 8463SOL    HW137043   6.320   8.071   6.440 -1.3006 -0.7173  1.3104
 8463SOL    HW237044   6.363   7.969   6.320 -2.2638  1.1994 -0.7125
 8464SOL     OW37045   2.861   6.089   7.730  0.1546  0.1693  0.5161
 8464SOL    HW137046   2.933   6.067   7.795  0.2157  0.4183  0.5342
 8464SOL    HW237047   2.829   6.183   7.746  2.0516  1.2205 -1.5605
 8465SOL     OW37048   3.473   2.588   5.103  0.2353 -0.1253  0.4337
 8465SOL    HW137049   3.572   2.601   5.103  0.2107  0.4300 -2.0605
 8465SOL    HW237050   3.452   2.492   5.089  0.4378 -0.0170 -0.6596
 8466SOL     OW37051   2.460   2.244   6.022  0.0311 -0.3208 -0.6340
 8466SOL    HW137052   2.382   2.194   6.061 -0.9015  0.4516 -1.4923
 8466SOL    HW237053   2.543   2.190   6.035 -0.7922 -1.6228 -0.5916
 8467SOL     OW37054   8.589   4.992   5.039  0.5655  0.5505 -0.2024
 8467SOL    HW137055   8.512   5.055   5.024  1.5422  1.8947  0.2962
 8467SOL    HW237056   8.622   4.959   4.951  0.1141  0.8390 -0.4858
 8468SOL     OW37057   2.886   3.129   6.179  0.7600 -0.4831  0.4090
 8468SOL    HW137058   2.799   3.089   6.208 -0.6831  2.5337  0.3906
 8468SOL    HW237059   2.899   3.111   6.081 -1.1860  1.3317 -0.2231
 8469SOL     OW37060   7.932   1.319   2.703  0.3040 -0.0134  0.2786
 8469SOL    HW137061   7.923   1.398   2.763  3.6706  0.0496  0.8109
 8469SOL    HW237062   7.993   1.341   2.627  2.7139 -2.5536  1.3674
 8470SOL     OW37063   3.904   0.895   5.338  0.9978  0.2668  0.3738
 8470SOL    HW137064   3.921   0.875   5.434  1.6200 -1.6513 -0.1104
 8470SOL    HW237065   3.991   0.898   5.288  0.5445 -1.0763 -0.5411
 8471SOL     OW37066   3.702   8.109   0.499  0.5497 -0.2982 -0.0084
 8471SOL    HW137067   3.679   8.058   0.416 -0.3014  1.2676 -0.7698
 8471SOL    HW237068   3.801   8.107   0.513  0.6793 -0.7715 -0.9479
 8472SOL     OW37069   1.984   1.124   0.932 -0.0285 -0.4503 -0.6903
 8472SOL    HW137070   2.039   1.045   0.905  0.4858 -0.8961  1.5270
 8472SOL    HW237071   1.971   1.184   0.854  2.3139 -1.1206 -1.6358
 8473SOL     OW37072   4.233   4.688   6.637  0.1487 -0.2738 -0.0124
 8473SOL    HW137073   4.292   4.692   6.557 -0.7089  0.1895 -0.6415
 8473SOL    HW237074   4.194   4.597   6.646 -0.6183 -0.0340 -0.7787
 8474SOL     OW37075   3.562   1.117   5.924  0.0438  0.0337  0.5898
 8474SOL    HW137076   3.658   1.116   5.897  0.1338 -1.1946  0.9215
 8474SOL    HW237077   3.506   1.148   5.847  0.5309 -1.0653 -0.2154
 8475SOL     OW37078   2.474   6.527   7.895  0.2135  0.0638  0.0222
 8475SOL    HW137079   2.448   6.616   7.932 -0.4280 -0.5186  0.9775
 8475SOL    HW237080   2.421   6.455   7.940 -0.5123 -0.6689 -1.9751
 8476SOL     OW37081   3.375   5.810   7.979  0.2313 -0.7104 -0.2272
 8476SOL    HW137082   3.385   5.725   7.927  0.3213  0.4705 -2.1993
 8476SOL    HW237083   3.424   5.883   7.932 -0.6740  0.6608  0.9308
 8477SOL     OW37084   6.242   1.481   8.178 -0.8157  0.0117 -0.1893
 8477SOL    HW137085   6.242   1.399   8.235  0.6004 -0.3174 -0.6400
 8477SOL    HW237086   6.198   1.461   8.090 -0.2517 -0.3357 -0.3940
 8478SOL     OW37087   4.225   8.248   1.409 -0.0526  0.3646 -0.3787
 8478SOL    HW137088   4.306   8.220   1.462 -0.1891 -0.9870 -0.8654
 8478SOL    HW237089   4.248   8.328   1.354  0.4147  1.1078  0.8843
 8479SOL     OW37090   9.611   3.672   4.110 -0.1952 -0.0055 -0.0388
 8479SOL    HW137091   9.685   3.740   4.112 -0.2727  0.1092 -0.8527
 8479SOL    HW237092   9.651   3.581   4.114  0.0257  0.0447 -0.9026
 8480SOL     OW37093   8.599   0.862   6.111  0.3544 -0.8326 -0.2786
 8480SOL    HW137094   8.581   0.957   6.137  0.7585 -0.6219 -0.7574
 8480SOL    HW237095   8.696   0.843   6.125  0.3800 -1.0105 -0.7041
 8481SOL     OW37096   9.910   7.478   6.217 -0.4112 -0.5683 -0.3293
 8481SOL    HW137097   9.996   7.463   6.168 -2.2968 -0.1201 -3.9019
 8481SOL    HW237098   9.866   7.390   6.234 -1.0699 -0.5628 -1.9427
 8482SOL     OW37099   8.691   9.851   4.988 -0.0335  0.3908 -0.0725
 8482SOL    HW137100   8.724   9.876   4.897 -1.6907 -0.4423 -0.9231
 8482SOL    HW237101   8.596   9.880   4.999  0.6628  2.0040  2.0433
 8483SOL     OW37102   1.321   2.998   1.676 -0.2589 -0.3899  0.0636
 8483SOL    HW137103   1.273   3.085   1.689 -0.0541 -0.4389  1.1831
 8483SOL    HW237104   1.334   2.981   1.579 -0.3564  0.7998 -0.1559
 8484SOL     OW37105   2.261   0.710   3.770 -0.2258  0.5658 -0.5332
 8484SOL    HW137106   2.225   0.680   3.858 -0.8163  0.8533 -0.6717
 8484SOL    HW237107   2.187   0.751   3.716  0.4088  1.5886 -0.6334
 8485SOL     OW37108   2.343   1.771   6.078  0.6260  0.4233  0.2255
 8485SOL    HW137109   2.244   1.781   6.091  0.4554 -0.0757 -0.6505
 8485SOL    HW237110   2.360   1.726   5.990  1.6371  0.6896  0.2869
 8486SOL     OW37111   0.050   9.345   3.589  0.2794  0.3766 -0.5939
 8486SOL    HW137112   0.133   9.331   3.641  0.5010  0.3675 -0.9473
 8486SOL    HW237113   0.072   9.388   3.501  0.0816 -0.9623 -1.3102
 8487SOL     OW37114   6.079   9.015   2.290  0.2141  0.0814  0.2038
 8487SOL    HW137115   6.032   9.050   2.371 -1.4434 -1.4021 -0.0844
 8487SOL    HW237116   6.080   9.085   2.219  0.3120  0.8484  0.9512
 8488SOL     OW37117   5.151   9.080   7.304 -0.3881  0.1113  0.8211
 8488SOL    HW137118   5.061   9.046   7.279 -0.1629 -0.4816  0.7843
 8488SOL    HW237119   5.187   9.138   7.231  0.1119 -1.3071 -0.1000
 8489SOL     OW37120   9.155   7.655   1.374  0.0570 -0.1895  0.1897
 8489SOL    HW137121   9.219   7.597   1.324  0.3848  1.4946 -1.3875
 8489SOL    HW237122   9.071   7.605   1.393  1.0624 -1.7860  0.5568
 8490SOL     OW37123   4.269   6.140   1.694  0.0811 -0.0258  0.8585
 8490SOL    HW137124   4.263   6.128   1.793 -0.0574  1.5845  1.0528
 8490SOL    HW237125   4.250   6.052   1.649  0.0504 -0.7447  2.2465
 8491SOL     OW37126   8.423   5.398   6.412 -0.5021  0.1101  0.0601
 8491SOL    HW137127   8.453   5.311   6.451  0.6308  0.0602 -0.8758
 8491SOL    HW237128   8.398   5.385   6.316  1.0470  1.0811 -0.4895
 8492SOL     OW37129   2.642   2.991   4.083 -0.4378  0.2903 -0.2329
 8492SOL    HW137130   2.596   3.062   4.137  1.4673  2.0878 -0.8988
 8492SOL    HW237131   2.706   2.941   4.142 -2.0697 -1.2120  0.3344
 8493SOL     OW37132   7.455   4.705   2.641 -0.4289  0.4961  0.4983
 8493SOL    HW137133   7.485   4.776   2.576 -0.1510  0.1985  0.3020
 8493SOL    HW237134   7.495   4.617   2.615 -0.9372  0.2270  0.6289
 8494SOL     OW37135   7.306   0.136   3.918 -0.2416 -0.2815 -0.1348
 8494SOL    HW137136   7.243   0.069   3.958 -0.1035 -0.3724 -0.0697
 8494SOL    HW237137   7.400   0.101   3.923 -0.2593 -0.4278 -0.8216
 8495SOL     OW37138   2.271   5.071   2.032 -0.4286 -0.1295 -0.1964
 8495SOL    HW137139   2.296   5.067   2.128 -1.7606  2.3006  0.2935
 8495SOL    HW237140   2.173   5.049   2.022 -0.3370 -0.2153 -0.9838
 8496SOL     OW37141   8.918   0.038   8.139 -0.6504  0.1428 -0.4086
 8496SOL    HW137142   9.007   0.083   8.125  0.5035 -2.2693 -0.9898
 8496SOL    HW237143   8.903   0.025   8.237 -2.2338  4.1307 -0.0140
 8497SOL     OW37144   6.410   0.969   2.870  0.9317 -0.1578  0.3774
 8497SOL    HW137145   6.360   1.004   2.790 -1.8867 -0.1298  2.0696
 8497SOL    HW237146   6.387   0.872   2.884  2.3237 -0.4834  0.4856
 8498SOL     OW37147   4.710   0.386   6.214 -0.3648 -0.0324  0.2714
 8498SOL    HW137148   4.613   0.374   6.194 -0.5564  1.0498  0.4780
 8498SOL    HW237149   4.729   0.357   6.308 -1.0778  2.4082  1.2172
 8499SOL     OW37150   0.450   3.332   0.496 -0.3362 -0.0389  0.6129
 8499SOL    HW137151   0.462   3.407   0.561 -2.0040 -1.7800  3.0063
 8499SOL    HW237152   0.539   3.293   0.473  0.6158  3.0845 -1.2065
 8500SOL     OW37153   3.799   6.856   0.208 -0.0888 -0.3100 -0.3188
 8500SOL    HW137154   3.863   6.919   0.253 -1.6080  1.0066  0.0288
 8500SOL    HW237155   3.801   6.768   0.256 -0.9099  0.7415  1.7237
 8501SOL     OW37156   5.814   5.093   0.248 -0.2881  0.2881  0.2048
 8501SOL    HW137157   5.895   5.140   0.283 -0.1184 -0.3877  0.7406
 8501SOL    HW237158   5.815   4.998   0.280 -1.8668  0.5775  1.1480
 8502SOL     OW37159   2.084   9.680   7.145  0.5195  0.8929  0.0567
 8502SOL    HW137160   2.041   9.616   7.209 -0.0006  0.1125 -1.0525
 8502SOL    HW237161   2.173   9.708   7.180  0.8060 -0.5441  0.4940
 8503SOL     OW37162   7.626   9.146   2.119 -0.2918  0.3165  0.3409
 8503SOL    HW137163   7.696   9.204   2.158  1.9604 -2.1638  0.1415
 8503SOL    HW237164   7.575   9.101   2.192  0.5553 -0.4350  0.4743
 8504SOL     OW37165   2.361   3.780   3.929 -0.1741 -0.2879  0.3697
 8504SOL    HW137166   2.355   3.755   4.026 -3.3312 -1.6145 -0.1171
 8504SOL    HW237167   2.354   3.698   3.873  2.0227  0.4310 -1.0142
 8505SOL     OW37168   1.028   5.501   7.388 -0.4207  0.6985 -0.1194
 8505SOL    HW137169   0.943   5.525   7.434 -1.5002 -2.2165 -0.4692
 8505SOL    HW237170   1.083   5.443   7.448 -1.1395 -1.8536 -1.8575
 8506SOL     OW37171   0.757   6.538   2.500  0.5403  0.4740  0.4459
 8506SOL    HW137172   0.769   6.442   2.476  0.2057  0.5599 -0.0803
 8506SOL    HW237173   0.829   6.592   2.457 -0.1114  0.6389 -0.4500
 8507SOL     OW37174   0.672   0.867   8.124 -0.5904  0.3793  0.5645
 8507SOL    HW137175   0.691   0.790   8.063  2.2435  1.5406 -0.0997
 8507SOL    HW237176   0.712   0.849   8.214 -0.6303  0.6969  0.6472
 8508SOL     OW37177   2.031   9.964   6.083  0.0597 -0.1684  0.1182
 8508SOL    HW137178   2.002  10.008   5.998  1.0317  1.2990  0.5421
 8508SOL    HW237179   2.122   9.924   6.071  1.0300  1.7219  1.0375
 8509SOL     OW37180   9.608   7.224   1.371 -0.6306 -0.3467  0.5237
 8509SOL    HW137181   9.670   7.302   1.378 -0.2094 -0.6748  0.5035
 8509SOL    HW237182   9.592   7.203   1.274 -1.4072  0.2330  0.5246
 8510SOL     OW37183   8.372   0.314   5.222  0.2293 -0.3227  0.2262
 8510SOL    HW137184   8.359   0.258   5.303  2.0570 -0.5339  0.4014
 8510SOL    HW237185   8.331   0.404   5.235 -1.1130 -0.9936  0.6508
 8511SOL     OW37186   2.350   8.745   3.944 -0.2086 -0.4345 -0.0662
 8511SOL    HW137187   2.319   8.696   4.026 -1.6169 -0.6410 -0.7044
 8511SOL    HW237188   2.396   8.829   3.971 -0.4749 -0.6095  0.9508
 8512SOL     OW37189   0.673   2.126   7.990  0.2049  1.3816  0.1327
 8512SOL    HW137190   0.646   2.111   8.085 -2.1382  0.4318 -0.6396
 8512SOL    HW237191   0.593   2.115   7.931  2.3011 -1.7189 -2.2836
 8513SOL     OW37192   4.302   0.959   7.496  0.1154 -0.2064 -0.1458
 8513SOL    HW137193   4.250   0.948   7.581 -0.7059  0.6874 -0.5321
 8513SOL    HW237194   4.288   0.879   7.438  0.4555 -0.6929  0.4316
 8514SOL     OW37195   1.750   6.274   3.781  0.3037  0.3080  0.2209
 8514SOL    HW137196   1.789   6.213   3.711  0.3646  0.8156 -0.1900
 8514SOL    HW237197   1.784   6.247   3.871  0.2494 -0.3327  0.0550
 8515SOL     OW37198   4.559   9.010   0.580 -0.4941 -0.2205  0.0082
 8515SOL    HW137199   4.627   9.022   0.508 -1.6138 -2.6372 -1.4916
 8515SOL    HW237200   4.482   9.071   0.563  0.1457  0.6964  0.3252
 8516SOL     OW37201   3.338   0.369   0.322 -0.0091 -0.2765 -0.2177
 8516SOL    HW137202   3.366   0.396   0.414 -0.4416 -0.6756  0.0367
 8516SOL    HW237203   3.260   0.425   0.293 -0.7311 -1.0563  0.2004
 8517SOL     OW37204   0.166   1.205   1.085  0.1686  0.4683  0.2424
 8517SOL    HW137205   0.086   1.179   1.030  0.9634 -1.1589 -0.1926
 8517SOL    HW237206   0.247   1.208   1.026  0.9817 -1.0026  1.2532
 8518SOL     OW37207   1.198   9.572   3.764 -0.0801  0.1119  0.1505
 8518SOL    HW137208   1.270   9.524   3.713 -0.6897 -0.8487  0.1842
 8518SOL    HW237209   1.129   9.507   3.794 -0.6229  0.9323  0.7114
 8519SOL     OW37210   1.542   0.374   1.630 -0.0018 -0.1626  0.4544
 8519SOL    HW137211   1.525   0.280   1.659 -0.3956 -0.6500 -1.3618
 8519SOL    HW237212   1.617   0.412   1.686 -1.0848 -0.8951  2.4696
 8520SOL     OW37213   4.174   1.146   1.867  0.1500  0.2178  0.5676
 8520SOL    HW137214   4.217   1.056   1.866 -1.2786 -0.4641 -0.2393
 8520SOL    HW237215   4.105   1.151   1.795 -1.4814  1.1174  2.1455
 8521SOL     OW37216   3.012   7.370   2.843  0.4946 -0.2413 -0.4092
 8521SOL    HW137217   2.962   7.385   2.758 -0.6335  1.0150  0.4570
 8521SOL    HW237218   2.981   7.284   2.885 -1.2377  0.7295  0.3262
 8522SOL     OW37219   4.802   7.606   1.035  0.0201 -0.3939 -0.0335
 8522SOL    HW137220   4.748   7.537   0.987 -0.3884 -0.3995  0.4292
 8522SOL    HW237221   4.858   7.561   1.106  0.1900 -0.3190 -0.1191
 8523SOL     OW37222   7.779   0.918   2.498 -0.2868 -0.4613 -0.6137
 8523SOL    HW137223   7.748   1.013   2.486 -0.1989 -0.4303 -0.5937
 8523SOL    HW237224   7.879   0.915   2.493 -0.2572 -0.4670 -0.0285
 8524SOL     OW37225   2.691   7.948   8.103 -0.5357 -0.2405  0.7017
 8524SOL    HW137226   2.680   7.876   8.034 -0.3782  0.8007 -0.4321
 8524SOL    HW237227   2.604   7.995   8.116 -0.5304 -0.3461  1.0970
 8525SOL     OW37228   9.837   2.115   6.035  0.1712 -0.3382 -0.4737
 8525SOL    HW137229   9.897   2.195   6.025 -1.7921  0.8523 -3.4344
 8525SOL    HW237230   9.749   2.144   6.073 -0.6381 -1.0406 -1.7967
 8526SOL     OW37231   9.825   2.482   7.220  0.4306 -0.4073  0.5918
 8526SOL    HW137232   9.921   2.508   7.226  0.5768 -0.8345  0.1457
 8526SOL    HW237233   9.781   2.494   7.309  0.4560  1.4640  0.3846
 8527SOL     OW37234   4.819   8.723   2.981  0.1366  0.1346 -0.2330
 8527SOL    HW137235   4.802   8.796   2.915 -0.6252 -0.9976 -1.3247
 8527SOL    HW237236   4.898   8.746   3.037  0.5935  1.2801 -1.3208
 8528SOL     OW37237   9.557   8.871   1.346  0.1897 -0.3048  0.4755
 8528SOL    HW137238   9.483   8.929   1.313 -0.7285 -0.5460  2.0641
 8528SOL    HW237239   9.559   8.872   1.446  0.5625 -2.4961  0.5157
 8529SOL     OW37240   8.848   3.701   1.560 -0.4808  0.5526  0.0846
 8529SOL    HW137241   8.752   3.688   1.586 -0.2846  0.0339  0.5476
 8529SOL    HW237242   8.904   3.630   1.602 -0.1093 -0.1170 -1.5107
 8530SOL     OW37243   7.396   0.749   0.842 -0.3107 -0.2740 -0.1665
 8530SOL    HW137244   7.484   0.751   0.793  0.0606  0.1652  0.5090
 8530SOL    HW237245   7.412   0.732   0.939 -1.0152 -0.6792 -0.1157
 8531SOL     OW37246   2.643   9.366   3.903 -0.1682 -0.4905 -0.0428
 8531SOL    HW137247   2.546   9.346   3.889 -0.3438  0.0028  0.4244
 8531SOL    HW237248   2.667   9.449   3.851 -0.2507 -0.0162  0.6714
 8532SOL     OW37249   2.259   6.701   6.290 -0.1527  0.3491 -0.2922
 8532SOL    HW137250   2.278   6.638   6.365 -1.7785 -0.0008 -0.1624
 8532SOL    HW237251   2.225   6.787   6.327  0.4246  0.7010 -0.5671
 8533SOL     OW37252   7.115   6.901   4.929  0.6105  0.0214  0.2816
 8533SOL    HW137253   7.127   6.973   4.860 -1.7527  0.5214  0.3574
 8533SOL    HW237254   7.147   6.814   4.892  3.1420  1.0253  0.0440
 8534SOL     OW37255   9.816   8.151   2.105 -0.1092  0.4050 -0.3562
 8534SOL    HW137256   9.881   8.208   2.055  1.5939 -0.0037  1.3203
 8534SOL    HW237257   9.856   8.061   2.122 -0.5732  0.5719  1.8083
 8535SOL     OW37258   8.766   3.760   6.303 -0.2700  0.1183  0.0022
 8535SOL    HW137259   8.733   3.777   6.210  3.5324  1.5021 -1.1708
 8535SOL    HW237260   8.840   3.693   6.301  0.1818  0.5192  1.9705
 8536SOL     OW37261   7.670   4.853   6.028  0.4403  0.6302 -0.4843
 8536SOL    HW137262   7.631   4.796   5.955 -0.3849  0.4240  0.1071
 8536SOL    HW237263   7.634   4.946   6.020 -0.2952  0.4018  0.1541
 8537SOL     OW37264   1.227   2.978   4.774 -0.3399 -0.0353  0.5536
 8537SOL    HW137265   1.229   2.893   4.721 -1.2869  0.6605 -0.6410
 8537SOL    HW237266   1.318   2.998   4.809 -0.0607 -1.4104  0.6264
 8538SOL     OW37267   9.398   9.980   6.645  0.3211  0.0808  0.0516
 8538SOL    HW137268   9.324  10.012   6.703 -0.0304 -0.2198 -0.2316
 8538SOL    HW237269   9.462  10.056   6.627  0.5737  0.1073  1.0389
 8539SOL     OW37270   4.000   3.992   0.265 -0.1137 -0.2333 -0.2926
 8539SOL    HW137271   4.060   3.922   0.227  1.9503  2.6581 -2.6693
 8539SOL    HW237272   4.033   4.020   0.355  1.3233  0.3801 -1.0037
 8540SOL     OW37273   9.369   6.301   3.699 -0.2998 -0.2429  0.0058
 8540SOL    HW137274   9.304   6.363   3.742 -0.0058  1.5778 -2.0386
 8540SOL    HW237275   9.458   6.309   3.744 -0.2517  0.9103 -0.2744
 8541SOL     OW37276   5.719   4.133   0.864 -0.5603  0.5299 -0.4229
 8541SOL    HW137277   5.772   4.072   0.923  0.1429  0.9789 -0.5918
 8541SOL    HW237278   5.692   4.214   0.915  1.3651  1.6433 -1.1446
 8542SOL     OW37279   1.964   2.284   6.642 -0.2288 -0.2277 -0.1851
 8542SOL    HW137280   2.012   2.300   6.728 -0.9433  1.0902 -0.0180
 8542SOL    HW237281   2.007   2.336   6.569  0.4792 -1.4799 -0.6631
 8543SOL     OW37282   4.734   5.907   2.419 -0.1176 -0.1602  0.2078
 8543SOL    HW137283   4.700   5.975   2.355 -1.2061 -1.2993 -0.4478
 8543SOL    HW237284   4.740   5.946   2.511  1.2448  1.4165 -0.5239
 8544SOL     OW37285   1.598   0.515   3.726 -0.3488  0.2865 -0.3328
 8544SOL    HW137286   1.547   0.483   3.806 -1.4456 -0.7216 -1.4099
 8544SOL    HW237287   1.678   0.457   3.712  0.8385  1.5552  1.0590
 8545SOL     OW37288   9.468   3.337   2.603 -0.4220 -0.6370 -0.0086
 8545SOL    HW137289   9.540   3.275   2.636 -1.7857 -1.6143  1.1954
 8545SOL    HW237290   9.485   3.429   2.639 -0.0634 -0.9714  0.7058
 8546SOL     OW37291   1.221   9.207   7.972  0.3979 -0.3720  0.2019
 8546SOL    HW137292   1.281   9.248   8.042  0.6330  0.1640 -0.3122
 8546SOL    HW237293   1.141   9.265   7.959  0.3638 -0.4617  0.0168
 8547SOL     OW37294   0.526   6.832   0.360 -0.2358  0.2843 -0.4942
 8547SOL    HW137295   0.490   6.837   0.453 -0.8499  1.8393 -0.8013
 8547SOL    HW237296   0.559   6.740   0.342  0.1367  0.0371  1.3572
 8548SOL     OW37297   7.615   4.166   6.018 -0.1323 -0.2323 -0.1866
 8548SOL    HW137298   7.527   4.213   6.019 -0.0068  0.1511 -3.3570
 8548SOL    HW237299   7.689   4.233   6.019  0.1344 -0.5298  1.3483
 8549SOL     OW37300   1.500   0.712   3.289  0.3421 -0.9597 -0.5414
 8549SOL    HW137301   1.492   0.784   3.358  0.3414 -1.2900 -0.1953
 8549SOL    HW237302   1.409   0.691   3.253  0.6382  1.2057 -2.7114
 8550SOL     OW37303   5.250   0.157   5.865 -0.3916  0.1555  0.1139
 8550SOL    HW137304   5.211   0.183   5.777 -0.4559 -0.6701 -0.1109
 8550SOL    HW237305   5.262   0.238   5.922 -1.8987  0.4868 -0.0228
 8551SOL     OW37306   4.199   6.837   3.550  0.1376  0.1218  0.1008
 8551SOL    HW137307   4.103   6.853   3.571  0.8028  1.6098  2.0911
 8551SOL    HW237308   4.243   6.789   3.625  1.1776  0.3224 -0.3649
 8552SOL     OW37309   8.713   1.497   1.910 -0.0890  0.2597  0.2452
 8552SOL    HW137310   8.770   1.485   1.829 -1.3505 -0.2048 -0.5927
 8552SOL    HW237311   8.770   1.525   1.987  1.0520  1.2184 -0.9242
 8553SOL     OW37312   1.069   8.974   5.333  0.3009  0.7950 -0.3388
 8553SOL    HW137313   1.000   8.929   5.390  1.3323 -0.4413 -0.0337
 8553SOL    HW237314   1.125   9.036   5.389 -0.4265  1.6467 -0.5474
 8554SOL     OW37315   3.343   6.184   2.390 -0.3734  0.1138  0.6458
 8554SOL    HW137316   3.308   6.273   2.417  0.3994  0.9757 -1.1585
 8554SOL    HW237317   3.305   6.159   2.301 -1.1149 -1.6722  1.4363
 8555SOL     OW37318   4.933   7.173   2.786  0.3962 -0.6056 -0.2302
 8555SOL    HW137319   4.842   7.139   2.808  0.3619 -0.9189 -0.8377
 8555SOL    HW237320   4.948   7.261   2.831 -0.9913  0.4334 -1.7812
 8556SOL     OW37321   8.558   3.060   5.894  0.3849  0.3601 -0.1794
 8556SOL    HW137322   8.464   3.088   5.913  0.3297 -1.3407  2.2893
 8556SOL    HW237323   8.594   3.008   5.972  3.9509  2.4061 -0.3549
 8557SOL     OW37324   0.932   0.608   6.085 -0.2801  0.3337 -0.4298
 8557SOL    HW137325   0.998   0.629   6.157 -0.3845  0.9977 -0.5209
 8557SOL    HW237326   0.850   0.568   6.126 -0.5212  1.1292 -0.1292
 8558SOL     OW37327   2.167   8.381   6.124  0.0649  0.2438 -0.3627
 8558SOL    HW137328   2.257   8.424   6.127  0.0175  0.3910 -1.0235
 8558SOL    HW237329   2.138   8.370   6.029 -0.0495 -0.9777 -0.2011
 8559SOL     OW37330   0.043   9.320   5.505 -0.2539  0.1750 -0.1538
 8559SOL    HW137331   0.138   9.298   5.524 -0.2537 -0.5753 -1.0053
 8559SOL    HW237332   0.038   9.389   5.433 -0.3695 -0.1867 -0.4923
 8560SOL     OW37333   0.175   8.787   2.473 -0.1338  0.4819  0.4546
 8560SOL    HW137334   0.226   8.701   2.482  0.6688  1.0097  1.1492
 8560SOL    HW237335   0.103   8.790   2.543 -0.0987  0.4196  0.4936
 8561SOL     OW37336   7.129   9.094   6.122 -0.8072  0.1469 -0.4322
 8561SOL    HW137337   7.199   9.027   6.146  0.1483  0.7350 -1.5943
 8561SOL    HW237338   7.060   9.050   6.064  0.5911  0.5088 -2.4271
 8562SOL     OW37339   1.204   9.978   7.389 -0.4783  0.6040  0.5800
 8562SOL    HW137340   1.257  10.064   7.389  3.3124 -1.6052  1.0932
 8562SOL    HW237341   1.201   9.942   7.295 -1.2397  0.8032  0.5268
 8563SOL     OW37342   1.185   2.529   5.789 -0.6429  0.3250 -0.1568
 8563SOL    HW137343   1.232   2.617   5.791  0.3107 -0.1252 -1.9108
 8563SOL    HW237344   1.193   2.488   5.698 -2.9431 -0.5892  0.0002
 8564SOL     OW37345   3.281   1.915   2.152  0.5849 -0.0831  0.9074
 8564SOL    HW137346   3.320   1.995   2.197 -0.2126  0.5764  0.4362
 8564SOL    HW237347   3.328   1.900   2.065 -1.4039  1.8327 -0.5607
 8565SOL     OW37348   0.278   8.409   6.767 -0.0492 -0.0341  0.1771
 8565SOL    HW137349   0.242   8.329   6.816 -0.1497 -0.3849 -0.4621
 8565SOL    HW237350   0.351   8.380   6.704 -2.1259 -0.0878 -2.2774
 8566SOL     OW37351   0.034   3.925   2.734 -0.6215  0.3856 -0.0786
 8566SOL    HW137352   0.041   3.884   2.825 -1.5930 -0.2192 -0.2744
 8566SOL    HW237353  -0.055   3.903   2.694 -0.3469  0.9685 -1.0210
 8567SOL     OW37354   2.116   0.992   3.865  1.1935  0.0603  0.2713
 8567SOL    HW137355   2.131   1.090   3.873  2.2329 -0.2501  2.2467
 8567SOL    HW237356   2.018   0.975   3.853  0.9551  1.2979  0.3691
 8568SOL     OW37357   2.780   7.810   4.329 -0.1373  0.0829  0.1563
 8568SOL    HW137358   2.777   7.856   4.240 -2.3563  1.1979  0.7549
 8568SOL    HW237359   2.772   7.711   4.316 -1.1952  0.2924 -0.8741
 8569SOL     OW37360   5.271   9.565   2.263  0.1242  0.3410  0.1367
 8569SOL    HW137361   5.299   9.584   2.357 -0.4597  0.0111  0.3826
 8569SOL    HW237362   5.214   9.639   2.230 -1.8094 -0.7295  0.9513
 8570SOL     OW37363   9.279   6.541   0.746 -0.0389 -0.2087 -0.0886
 8570SOL    HW137364   9.219   6.543   0.666 -2.2562  1.1054  1.5293
 8570SOL    HW237365   9.264   6.457   0.797  0.2908 -0.3714 -0.2581
 8571SOL     OW37366   1.864   0.921   3.780 -0.8150 -0.3789  0.4181
 8571SOL    HW137367   1.900   0.829   3.766 -0.3714 -0.0704 -0.4942
 8571SOL    HW237368   1.779   0.916   3.832 -0.4018 -1.2478  1.0151
 8572SOL     OW37369   7.273   2.609   3.157 -0.1783 -0.0903  0.3228
 8572SOL    HW137370   7.353   2.663   3.186 -0.8570  1.0711  0.0917
 8572SOL    HW237371   7.304   2.530   3.105  0.8519  0.0970  0.6214
 8573SOL     OW37372   5.750   8.097   2.532  0.2447  0.4223 -0.3525
 8573SOL    HW137373   5.814   8.020   2.537  0.6180  0.7051 -0.8011
 8573SOL    HW237374   5.764   8.157   2.611 -0.1559 -0.0488  0.0860
 8574SOL     OW37375   1.583   3.553   1.468  0.6402  0.7043  0.2601
 8574SOL    HW137376   1.616   3.577   1.560 -2.6164 -1.2826  2.0529
 8574SOL    HW237377   1.582   3.453   1.459 -4.5352  0.6369  0.3027
 8575SOL     OW37378   3.652   5.793   3.829  0.1543 -0.2224 -0.4866
 8575SOL    HW137379   3.722   5.850   3.872 -0.0675 -0.3598  0.0584
 8575SOL    HW237380   3.637   5.712   3.885 -0.2810 -0.3067 -0.7255
 8576SOL     OW37381   1.092   9.588   6.822  0.2840  0.1016  0.5214
 8576SOL    HW137382   1.061   9.641   6.744  1.0802  0.2249  0.2877
 8576SOL    HW237383   1.015   9.572   6.884 -0.4987 -0.5465 -0.5991
 8577SOL     OW37384   6.300   8.267   5.945 -0.4816  0.3936  0.0939
 8577SOL    HW137385   6.357   8.197   5.903  0.5724 -0.2435  2.5322
 8577SOL    HW237386   6.210   8.228   5.967  0.3836 -0.4477  2.2011
 8578SOL     OW37387   3.668   4.902   4.698 -0.6265 -0.3037 -0.0825
 8578SOL    HW137388   3.751   4.849   4.678 -0.2158 -1.0669  3.3403
 8578SOL    HW237389   3.686   4.999   4.681  1.6024 -0.2414  2.3345
 8579SOL     OW37390   9.553   6.831   2.576 -0.5104  0.1292 -0.5239
 8579SOL    HW137391   9.493   6.910   2.592 -2.0849 -1.2244  0.4225
 8579SOL    HW237392   9.645   6.851   2.609 -1.0627  1.3115  0.3115
 8580SOL     OW37393   4.132   0.782   7.702  0.1578 -0.1565 -0.2940
 8580SOL    HW137394   4.077   0.732   7.636  1.6257 -2.6234  0.2713
 8580SOL    HW237395   4.075   0.808   7.780 -0.6693 -0.7913 -0.6834
 8581SOL     OW37396   8.002   2.148   6.445  0.1338 -0.3565 -0.3221
 8581SOL    HW137397   8.060   2.066   6.439  0.1300 -0.3717 -0.1428
 8581SOL    HW237398   8.027   2.201   6.526  0.3754  0.0033 -0.6279
 8582SOL     OW37399   6.249   1.495   2.537  0.1944  0.0332  0.0033
 8582SOL    HW137400   6.302   1.556   2.477 -0.9873  1.3864  0.3113
 8582SOL    HW237401   6.258   1.526   2.631  0.1578 -0.7091  0.2524
 8583SOL     OW37402   0.339   8.846   4.298  0.0913 -0.1794 -0.1533
 8583SOL    HW137403   0.281   8.896   4.233  2.5258  0.2310 -2.0748
 8583SOL    HW237404   0.390   8.775   4.250  2.1634  0.3054  1.2429
 8584SOL     OW37405   3.339   8.515   3.452  0.3940  0.0641 -0.4189
 8584SOL    HW137406   3.364   8.602   3.495 -0.6376  0.4519 -0.5849
 8584SOL    HW237407   3.239   8.504   3.455  0.6611 -2.0488  1.3942
 8585SOL     OW37408   4.064   1.390   3.550 -0.2085 -0.5431  0.9108
 8585SOL    HW137409   3.985   1.328   3.558 -0.5542  0.1498  3.1370
 8585SOL    HW237410   4.148   1.338   3.562 -0.3207 -1.2591 -1.2938
 8586SOL     OW37411   5.434   1.988   0.367  0.7195 -0.3073 -0.5882
 8586SOL    HW137412   5.337   1.965   0.354  1.1488 -1.9614 -0.8946
 8586SOL    HW237413   5.464   2.048   0.293  0.0041  0.0106 -0.6317
 8587SOL     OW37414   7.643   3.140   0.293  0.0109  0.2195 -0.4378
 8587SOL    HW137415   7.646   3.234   0.258 -1.3446  0.7430  0.7752
 8587SOL    HW237416   7.566   3.092   0.252  0.6871 -0.3530 -1.0350
 8588SOL     OW37417   8.560   7.720   6.718 -0.7215  0.4233  0.0548
 8588SOL    HW137418   8.640   7.752   6.669 -1.0046  1.2354  0.1162
 8588SOL    HW237419   8.586   7.690   6.810  0.1257 -2.8496 -1.1814
 8589SOL     OW37420   3.836   8.564   0.663 -0.2942  0.0604  0.3684
 8589SOL    HW137421   3.830   8.530   0.569  0.4644  0.7470  0.0745
 8589SOL    HW237422   3.892   8.646   0.666  0.2827 -0.3676  1.5421
 8590SOL     OW37423   2.897   0.091   0.998 -0.2203 -0.1191 -0.0070
 8590SOL    HW137424   2.875   0.029   0.924  0.2463 -1.8277  1.2581
 8590SOL    HW237425   2.882   0.046   1.086  1.9437  0.8943  0.9257
 8591SOL     OW37426   3.359   4.724   1.136 -0.2904 -0.1172  0.1421
 8591SOL    HW137427   3.318   4.633   1.144 -0.0749 -0.2206  0.0732
 8591SOL    HW237428   3.451   4.716   1.096  0.3271 -0.0134  1.5073
 8592SOL     OW37429   6.267   1.552   4.059  0.1890 -0.2531 -0.9330
 8592SOL    HW137430   6.221   1.595   3.981 -0.0786 -1.0559 -1.2332
 8592SOL    HW237431   6.260   1.452   4.050 -2.6435 -0.3613  1.7768
 8593SOL     OW37432   1.668   1.652   3.702 -0.0164  0.2934 -0.3950
 8593SOL    HW137433   1.603   1.644   3.627 -0.5606  0.4593  0.0576
 8593SOL    HW237434   1.628   1.708   3.775  0.2601 -0.4045  0.2942
 8594SOL     OW37435   2.539   8.218   3.449 -0.2073  0.3557 -0.4652
 8594SOL    HW137436   2.558   8.270   3.532 -0.2641 -1.6252  0.8240
 8594SOL    HW237437   2.539   8.279   3.370  0.8716  2.1010  0.8602
 8595SOL     OW37438   4.229   7.444   2.230 -0.1659  0.3277  0.2497
 8595SOL    HW137439   4.257   7.378   2.300 -0.1895  1.7271  1.5738
 8595SOL    HW237440   4.144   7.413   2.187  1.3641 -2.0354 -1.2153
 8596SOL     OW37441   6.640   6.472   6.022 -0.0314 -0.1661  0.0822
 8596SOL    HW137442   6.734   6.499   6.003  0.8704 -3.4927 -0.5940
 8596SOL    HW237443   6.599   6.431   5.941 -1.4618 -0.3533  0.8726
 8597SOL     OW37444   5.602   1.304   7.538  0.1247 -0.2072  0.6621
 8597SOL    HW137445   5.687   1.348   7.568  0.7563 -1.5424  0.8866
 8597SOL    HW237446   5.528   1.328   7.601  0.5071  0.3402  0.9098
 8598SOL     OW37447   1.664   6.591   2.737  0.2206  0.2470  0.0042
 8598SOL    HW137448   1.696   6.578   2.644 -1.4959  2.7051 -0.9852
 8598SOL    HW237449   1.565   6.577   2.741  0.0102  1.8584  1.0585
 8599SOL     OW37450   4.225   2.592   3.844 -0.1599  0.6641  0.1767
 8599SOL    HW137451   4.301   2.627   3.898  0.8989  1.3739 -1.7345
 8599SOL    HW237452   4.167   2.668   3.814  2.0874  0.9503 -3.8886
 8600SOL     OW37453   4.596   2.226   4.740  0.0394 -0.4807  0.0385
 8600SOL    HW137454   4.571   2.220   4.644 -0.0185  0.0245  0.0171
 8600SOL    HW237455   4.547   2.158   4.793 -0.2692 -0.4594 -0.2241
 8601SOL     OW37456   6.439   4.377   1.222 -0.5292  0.0432  0.2826
 8601SOL    HW137457   6.404   4.443   1.288  0.1549  1.0109 -0.3171
 8601SOL    HW237458   6.406   4.285   1.246  1.1974  0.1003  3.0112
 8602SOL     OW37459   0.208   4.454   5.137 -0.3886 -0.2374  0.1041
 8602SOL    HW137460   0.212   4.440   5.038  0.9973 -1.2521  0.2871
 8602SOL    HW237461   0.278   4.521   5.163 -1.3863  0.7541  0.2946
 8603SOL     OW37462   3.497   7.505   7.959 -0.8952  0.0912  0.0271
 8603SOL    HW137463   3.573   7.473   8.016 -0.0035  1.0142 -0.6289
 8603SOL    HW237464   3.506   7.603   7.943 -1.1509 -0.1640 -1.6912
 8604SOL     OW37465   7.972   1.617   7.761  0.2030 -0.0556  0.0283
 8604SOL    HW137466   7.980   1.705   7.808  0.2482  0.1051 -0.2814
 8604SOL    HW237467   7.946   1.632   7.665  0.0182 -0.3875  0.0255
 8605SOL     OW37468   5.521   2.133   5.671  0.1719 -0.2478 -0.0006
 8605SOL    HW137469   5.434   2.097   5.705 -0.2387  0.2825 -0.4747
 8605SOL    HW237470   5.574   2.058   5.630 -0.3631 -0.4491 -0.3344
 8606SOL     OW37471   2.509   8.450   8.198  0.5153  0.1900  0.2400
 8606SOL    HW137472   2.455   8.527   8.233 -1.3458 -1.1415  0.3659
 8606SOL    HW237473   2.484   8.432   8.104  0.3641 -0.7874  0.4667
 8607SOL     OW37474   8.858   2.325   4.960  0.6270  0.0981 -0.5143
 8607SOL    HW137475   8.759   2.315   4.973  0.7864 -0.2781  0.4485
 8607SOL    HW237476   8.875   2.401   4.898 -0.3751 -1.7790 -3.1677
 8608SOL     OW37477   9.288   0.190   6.119 -0.4994 -0.1077  0.3328
 8608SOL    HW137478   9.285   0.140   6.032 -0.6900 -1.7133  1.2408
 8608SOL    HW237479   9.329   0.280   6.104  1.1733 -1.0668 -1.0663
 8609SOL     OW37480   7.293   1.047   2.758  0.3229  0.6003  0.3061
 8609SOL    HW137481   7.376   1.062   2.811 -1.2141  1.1595  2.6212
 8609SOL    HW237482   7.247   0.964   2.789  0.2747 -0.0159 -1.3399
 8610SOL     OW37483   3.081   9.250   6.393 -0.7657  0.2426  0.1266
 8610SOL    HW137484   3.145   9.326   6.403 -1.4506  0.9852 -1.0318
 8610SOL    HW237485   3.104   9.178   6.458  1.6142  0.2360 -0.6939
 8611SOL     OW37486   8.905   5.383   4.756  0.2714  0.2624 -0.7177
 8611SOL    HW137487   8.827   5.322   4.748 -1.0116  1.6886  0.5198
 8611SOL    HW237488   8.975   5.340   4.813 -2.0015  1.1736  2.9815
 8612SOL     OW37489   9.393   2.828   2.005  0.3500  0.5591  0.6890
 8612SOL    HW137490   9.337   2.901   2.043  1.3196  1.5522  0.2692
 8612SOL    HW237491   9.481   2.866   1.975  0.1277 -0.4166 -1.3195
 8613SOL     OW37492   9.452   5.821   4.752 -0.2590  0.2229 -0.2882
 8613SOL    HW137493   9.476   5.779   4.665  3.2677  0.3434  0.5605
 8613SOL    HW237494   9.432   5.918   4.737  1.1264  0.4247 -0.8338
 8614SOL     OW37495   0.868   6.270   2.839 -0.2914  0.4214 -0.1814
 8614SOL    HW137496   0.883   6.198   2.906 -0.6201 -0.8220 -1.4164
 8614SOL    HW237497   0.956   6.309   2.812 -0.1065  0.4312  0.4394
 8615SOL     OW37498   9.458   9.348   6.263 -0.2920 -0.1990  0.0683
 8615SOL    HW137499   9.419   9.431   6.303 -1.0677 -0.5436  0.0317
 8615SOL    HW237500   9.454   9.273   6.329 -1.9253 -0.8679 -0.7709
 8616SOL     OW37501   9.817   5.911   7.060 -0.3997  0.0312  0.0458
 8616SOL    HW137502   9.880   5.986   7.038 -1.0831  0.3066 -0.9990
 8616SOL    HW237503   9.730   5.925   7.012 -2.4728  1.3667  3.9332
 8617SOL     OW37504   7.593   2.952   3.439 -0.2556  0.0526  0.0383
 8617SOL    HW137505   7.692   2.966   3.437  0.2032 -2.7649  0.6213
 8617SOL    HW237506   7.563   2.945   3.534 -0.6348 -1.4852 -0.1930
 8618SOL     OW37507   2.372   1.278   7.982  0.2756 -0.1541 -0.5866
 8618SOL    HW137508   2.467   1.279   8.012  0.1362 -0.5824 -0.1221
 8618SOL    HW237509   2.344   1.370   7.955  0.8754 -0.0620 -0.9042
 8619SOL     OW37510   1.752   2.299   6.289 -0.8176 -0.1307 -0.0210
 8619SOL    HW137511   1.677   2.358   6.259 -1.8825 -0.6320  1.5695
 8619SOL    HW237512   1.715   2.212   6.322  0.6772 -1.3995 -1.5940
 8620SOL     OW37513   0.972   9.347   8.023  0.3036 -0.0154  0.4179
 8620SOL    HW137514   0.909   9.384   7.954  1.8869  1.0272 -0.4986
 8620SOL    HW237515   0.948   9.252   8.042 -2.5466  0.8112  1.2741
 8621SOL     OW37516   9.748   4.811   0.104 -0.1140  0.1022  0.3164
 8621SOL    HW137517   9.746   4.902   0.147 -1.0324 -0.2349  0.9881
 8621SOL    HW237518   9.698   4.815   0.018  1.1039  0.5952 -0.3822
 8622SOL     OW37519   3.662   8.217   1.831 -0.3804  0.3929  0.1883
 8622SOL    HW137520   3.690   8.229   1.736 -1.0211  0.7108  0.0373
 8622SOL    HW237521   3.668   8.120   1.855 -0.5528  0.2672 -0.2773
 8623SOL     OW37522   0.762   8.403   0.796  0.1362  0.2987  0.0271
 8623SOL    HW137523   0.745   8.373   0.890  0.7785  0.3116  0.1489
 8623SOL    HW237524   0.680   8.449   0.761 -0.3088 -0.2205  0.3750
 8624SOL     OW37525   4.256   0.906   5.741  0.2600 -0.0173 -0.1526
 8624SOL    HW137526   4.176   0.868   5.787  0.4208  1.3255  1.2591
 8624SOL    HW237527   4.238   1.000   5.714  0.6179 -0.3887 -1.7488
 8625SOL     OW37528   1.778   9.074   7.306 -0.1719  0.5889  0.1036
 8625SOL    HW137529   1.810   8.981   7.293 -1.2891  0.6418 -3.9279
 8625SOL    HW237530   1.687   9.073   7.348 -0.1798 -0.1365  0.0668
 8626SOL     OW37531   8.368   7.452   5.907 -0.3510  0.1814  0.7010
 8626SOL    HW137532   8.365   7.530   5.971 -0.6297  0.0110  0.8932
 8626SOL    HW237533   8.283   7.447   5.856 -0.1995  0.2038  0.4461
 8627SOL     OW37534   1.442   3.513   2.627 -0.2425  0.8598  0.1960
 8627SOL    HW137535   1.453   3.481   2.533  0.1747  2.0683 -0.1756
 8627SOL    HW237536   1.426   3.435   2.687  1.4143 -0.1196 -0.5961
 8628SOL     OW37537   1.884   2.026   5.800  0.1770  0.0180  0.1692
 8628SOL    HW137538   1.915   2.017   5.705  0.9423  0.5910  0.3634
 8628SOL    HW237539   1.797   2.074   5.802 -0.3390 -0.8767 -0.3188
 8629SOL     OW37540   9.819   7.112   7.310 -0.2925 -0.3798  0.0592
 8629SOL    HW137541   9.753   7.094   7.238 -1.3291 -1.6904  1.3231
 8629SOL    HW237542   9.910   7.085   7.280 -0.6803 -0.6641 -0.8522
 8630SOL     OW37543   6.218   0.456   1.278  0.0093 -0.1931 -0.1956
 8630SOL    HW137544   6.133   0.469   1.330  0.3754  2.4628 -0.2036
 8630SOL    HW237545   6.199   0.465   1.181  0.3969  1.0141 -0.1627
 8631SOL     OW37546   4.002   0.691   2.247 -0.2317  0.2795  0.2062
 8631SOL    HW137547   3.975   0.616   2.187  2.5950 -1.8405  1.4210
 8631SOL    HW237548   3.945   0.690   2.329  0.5351 -1.3392  0.7459
 8632SOL     OW37549   1.016   5.929   0.872  0.3308 -0.0001  0.1172
 8632SOL    HW137550   0.991   5.837   0.842 -1.1961  0.1607  0.8810
 8632SOL    HW237551   1.046   5.926   0.967 -1.0142  0.4945  0.5655
 8633SOL     OW37552   4.030   7.436   5.140 -0.4285 -0.0135  0.2752
 8633SOL    HW137553   3.982   7.522   5.155 -0.5423  0.0100 -0.2287
 8633SOL    HW237554   3.966   7.368   5.105 -0.1237 -0.0220 -0.2698
 8634SOL     OW37555   2.144   8.884   2.585 -0.5378 -0.2724  0.6405
 8634SOL    HW137556   2.149   8.923   2.493 -1.2568 -0.8208  0.3611
 8634SOL    HW237557   2.182   8.948   2.651 -2.2163  1.1346  0.2688
 8635SOL     OW37558   0.526   0.463   0.267  0.1796  0.1898 -0.7893
 8635SOL    HW137559   0.493   0.548   0.227  0.1886  1.0458  0.9838
 8635SOL    HW237560   0.511   0.465   0.366  0.3670 -1.7831 -0.7043
 8636SOL     OW37561   8.281   4.953   2.216  0.2500  0.3402 -0.5738
 8636SOL    HW137562   8.229   4.877   2.254  0.2352  0.8574  0.4715
 8636SOL    HW237563   8.376   4.924   2.200  0.3388  0.1974  0.1647
 8637SOL     OW37564   0.956   8.291   5.049 -0.5562 -0.2246  0.1077
 8637SOL    HW137565   0.962   8.199   5.086 -4.0250 -1.0573 -1.2337
 8637SOL    HW237566   1.015   8.299   4.969  0.3802 -0.9897  0.7112
 8638SOL     OW37567   5.165   1.931   0.766  0.2755  0.3743  0.3894
 8638SOL    HW137568   5.251   1.984   0.764  0.2149  0.5100  1.3177
 8638SOL    HW237569   5.138   1.916   0.860 -1.5558  1.6749  0.0908
 8639SOL     OW37570   9.639   7.817   5.900  0.2928  0.0531 -0.2971
 8639SOL    HW137571   9.644   7.891   5.833  1.0807  1.7866  1.6369
 8639SOL    HW237572   9.577   7.746   5.866 -0.0174  1.3035 -2.4514
 8640SOL     OW37573   7.939   8.711   6.896 -0.5931 -0.2617 -0.6116
 8640SOL    HW137574   7.989   8.639   6.944 -0.1174  0.5733  0.1663
 8640SOL    HW237575   7.970   8.715   6.801  0.0476 -0.4697 -0.4181
 8641SOL     OW37576   7.545   2.455   1.512 -0.5601 -0.4060 -0.0766
 8641SOL    HW137577   7.596   2.444   1.426  0.3632  1.6701  0.1826
 8641SOL    HW237578   7.500   2.544   1.513 -0.5568 -0.4056  1.6030
 8642SOL     OW37579   3.231   5.477   7.185  0.2296  0.1033 -0.6038
 8642SOL    HW137580   3.210   5.383   7.213 -0.4301 -0.0780 -1.6487
 8642SOL    HW237581   3.243   5.534   7.265 -1.7375 -0.3671  0.0560
 8643SOL     OW37582   8.938   3.603   0.720  0.3547  0.6901  0.2595
 8643SOL    HW137583   8.960   3.510   0.750  2.1442  1.8473  2.7205
 8643SOL    HW237584   8.990   3.625   0.637  1.8680  0.3511  1.1055
 8644SOL     OW37585   2.175   1.052   4.242  0.2495  0.0537  0.4728
 8644SOL    HW137586   2.223   0.981   4.190  1.6621  0.3041  1.3841
 8644SOL    HW237587   2.089   1.074   4.197  0.3126 -1.4524 -0.4190
 8645SOL     OW37588   5.082   5.440   2.343  0.0737 -0.4822 -0.1328
 8645SOL    HW137589   5.052   5.512   2.405 -1.9391 -2.1622  0.8928
 8645SOL    HW237590   5.127   5.481   2.263 -1.5121  1.9163  0.1701
 8646SOL     OW37591   6.903   0.909   6.711  0.4560 -0.2773  0.1892
 8646SOL    HW137592   6.958   0.852   6.771 -0.1628 -1.6793 -0.5225
 8646SOL    HW237593   6.844   0.850   6.654 -0.7451  1.1068 -0.0468
 8647SOL     OW37594   3.704   5.562   7.853  0.4300  0.2311 -0.6333
 8647SOL    HW137595   3.679   5.636   7.792  0.7932 -0.2556 -1.3790
 8647SOL    HW237596   3.656   5.573   7.940 -1.5889 -0.1452 -1.6834
 8648SOL     OW37597   5.311   9.130   3.759  0.4761  0.4994 -0.2415
 8648SOL    HW137598   5.355   9.119   3.670  1.6356 -1.5721  0.5611
 8648SOL    HW237599   5.359   9.074   3.827 -1.2169  1.0193  1.4086
 8649SOL     OW37600   7.500   3.893   2.524  0.3247  0.2024  0.3504
 8649SOL    HW137601   7.524   3.955   2.449  0.5785  0.7470  0.8908
 8649SOL    HW237602   7.496   3.799   2.488  0.9217  0.3994 -0.2442
 8650SOL     OW37603   5.567   6.092   0.682  0.1655  0.6106  0.3142
 8650SOL    HW137604   5.564   6.183   0.641  0.1767  0.9413  1.0503
 8650SOL    HW237605   5.594   6.025   0.612 -2.2705  0.7971 -0.8515
 8651SOL     OW37606   2.157   4.734   1.997 -0.1617 -0.2887 -0.1450
 8651SOL    HW137607   2.067   4.714   1.958  0.5268 -1.5940 -1.1000
 8651SOL    HW237608   2.228   4.687   1.944  1.1999  1.7706 -0.1899
 8652SOL     OW37609   0.589   4.274   7.759 -0.3681  0.0584 -0.0419
 8652SOL    HW137610   0.571   4.331   7.839 -2.9992  0.0032 -0.5343
 8652SOL    HW237611   0.626   4.331   7.685  3.4070 -0.1415  1.5890
 8653SOL     OW37612   1.117   3.505   4.893 -0.0637  0.3830  0.5386
 8653SOL    HW137613   1.126   3.413   4.856  0.9606  0.6004  0.2397
 8653SOL    HW237614   1.190   3.563   4.857 -0.4178  1.1872  1.1036
 8654SOL     OW37615   7.475   5.742   0.755  0.6876 -0.2252  0.2201
 8654SOL    HW137616   7.498   5.826   0.706  1.3792 -0.8343 -0.5109
 8654SOL    HW237617   7.427   5.680   0.694 -0.5907 -0.0232  1.0004
 8655SOL     OW37618   4.630   7.970   4.370  0.3934 -0.7226 -0.2971
 8655SOL    HW137619   4.689   7.948   4.447 -0.5806 -1.6173  0.2044
 8655SOL    HW237620   4.667   7.928   4.287  1.3370  0.0771 -0.2960
 8656SOL     OW37621   9.144   2.451   4.374 -0.0932  0.4283 -0.1955
 8656SOL    HW137622   9.098   2.432   4.461  0.6762  0.0209  0.1338
 8656SOL    HW237623   9.119   2.380   4.308 -2.1472  1.7687 -0.8912
 8657SOL     OW37624   0.029   6.242   4.186 -0.3525  1.1009  0.1090
 8657SOL    HW137625   0.045   6.336   4.215  0.6716  0.7231  0.7809
 8657SOL    HW237626   0.116   6.196   4.169 -0.6860 -0.6237  2.6933
 8658SOL     OW37627   5.000   2.947   8.190 -0.0764  0.1464  0.2678
 8658SOL    HW137628   5.035   2.999   8.268 -0.8155  1.9978 -0.6258
 8658SOL    HW237629   4.911   2.907   8.214  0.7266 -1.1344  1.1277
 8659SOL     OW37630   4.134   1.531   5.734  0.0437 -0.5076  0.1774
 8659SOL    HW137631   4.075   1.471   5.788 -0.6549  0.3904  0.4294
 8659SOL    HW237632   4.078   1.599   5.687  0.8818  0.3470  0.4003
 8660SOL     OW37633   8.743   3.233   5.778  0.0923 -0.1687 -0.0505
 8660SOL    HW137634   8.668   3.178   5.813 -1.2490  1.9811  0.4944
 8660SOL    HW237635   8.766   3.304   5.844 -0.3676  1.9578 -2.1365
 8661SOL     OW37636   0.715   3.453   4.407 -0.4563 -0.3417 -0.1478
 8661SOL    HW137637   0.672   3.447   4.317 -1.3324  0.6073  0.2055
 8661SOL    HW237638   0.722   3.548   4.435  0.9647 -0.5525  0.2497
 8662SOL     OW37639   9.235   3.117   5.815  0.4063 -0.5381  0.2356
 8662SOL    HW137640   9.139   3.093   5.832  0.1045 -0.2830 -1.0149
 8662SOL    HW237641   9.272   3.057   5.744  0.3910  0.9919 -1.1171
 8663SOL     OW37642   5.847   1.442   7.594  0.0525 -0.1131  0.0412
 8663SOL    HW137643   5.910   1.482   7.528 -0.4440  2.4849  1.0406
 8663SOL    HW237644   5.870   1.476   7.686  0.5523 -3.4110  1.1810
 8664SOL     OW37645   4.627   2.244   1.382  0.4477 -0.0101  0.3711
 8664SOL    HW137646   4.551   2.252   1.318 -0.2262 -0.0879  1.1528
 8664SOL    HW237647   4.604   2.176   1.452  1.9686 -1.3856 -0.4147
 8665SOL     OW37648   0.128   0.955   2.745  0.5260 -0.3068 -0.1052
 8665SOL    HW137649   0.132   1.020   2.820  0.2744 -1.6257  1.0684
 8665SOL    HW237650   0.220   0.920   2.725  0.3368 -1.4179  0.9078
 8666SOL     OW37651   1.434   9.933   0.368 -0.1320 -0.3218  0.2653
 8666SOL    HW137652   1.427   9.928   0.269  0.0915  0.3587  0.2122
 8666SOL    HW237653   1.342   9.940   0.408 -0.1405  1.5026 -0.0219
 8667SOL     OW37654   6.433   3.416   0.518  0.1187  0.6943  0.0467
 8667SOL    HW137655   6.461   3.440   0.425 -1.2054  0.5855 -0.4025
 8667SOL    HW237656   6.335   3.394   0.518  0.4972 -1.1023  1.1269
 8668SOL     OW37657   0.225   8.462   3.800  0.3543  0.1992 -0.0129
 8668SOL    HW137658   0.145   8.406   3.781 -0.8672  1.7837  0.3356
 8668SOL    HW237659   0.237   8.472   3.898  1.1174 -0.2255 -0.0607
 8669SOL     OW37660   6.343   2.553   4.169 -0.1716  0.3960  0.2126
 8669SOL    HW137661   6.275   2.608   4.218  0.2207  1.3722 -0.3234
 8669SOL    HW237662   6.302   2.517   4.085  0.2614  1.8520 -0.6445
 8670SOL     OW37663   1.084   7.621   1.081  0.7375 -0.5749 -0.3321
 8670SOL    HW137664   1.056   7.623   0.985  0.1795 -2.0998 -0.2195
 8670SOL    HW237665   1.036   7.693   1.130 -0.4926 -1.0296 -0.8257
 8671SOL     OW37666   7.772   4.493   0.812 -0.0757  0.3539 -0.0713
 8671SOL    HW137667   7.756   4.583   0.851 -0.2398  0.5992 -0.7041
 8671SOL    HW237668   7.769   4.498   0.713  1.3015 -0.0896 -0.1469
 8672SOL     OW37669   3.378   5.566   7.853 -0.1305 -0.2202  0.2507
 8672SOL    HW137670   3.324   5.548   7.771  0.1504  0.5883 -0.1205
 8672SOL    HW237671   3.424   5.483   7.883 -0.3154 -0.5380 -0.3519
 8673SOL     OW37672   3.151   9.973   2.537  0.0755 -0.3562 -0.6643
 8673SOL    HW137673   3.083   9.901   2.551 -0.8309  0.3723 -1.3175
 8673SOL    HW237674   3.215   9.973   2.614 -1.6191  0.0072  0.7852
 8674SOL     OW37675   8.214   9.202   2.981 -0.0730  0.2317 -0.2017
 8674SOL    HW137676   8.192   9.269   3.052 -1.3488  0.7876 -1.0851
 8674SOL    HW237677   8.145   9.129   2.981  0.6758 -0.4862  0.0119
 8675SOL     OW37678   9.473   9.503   1.674  0.3635  0.2404 -0.2901
 8675SOL    HW137679   9.542   9.471   1.610 -1.6133 -3.0086 -0.9436
 8675SOL    HW237680   9.410   9.565   1.627  0.5456  0.0655 -0.7655
 8676SOL     OW37681   7.099   8.216   4.014  0.5882 -0.0918 -0.4580
 8676SOL    HW137682   7.093   8.287   3.944  0.1380 -1.3577 -1.7227
 8676SOL    HW237683   7.052   8.134   3.983  0.3592 -0.6757  1.3485
 8677SOL     OW37684   3.300   7.753   2.094  0.2195  0.3705  0.1674
 8677SOL    HW137685   3.313   7.747   2.193  0.6089  1.5347  0.2040
 8677SOL    HW237686   3.375   7.806   2.054 -0.0046  0.0169 -0.7356
 8678SOL     OW37687   0.543   4.814   2.406 -0.1318 -0.6064  0.0308
 8678SOL    HW137688   0.521   4.892   2.466  1.8308  0.5215 -0.6625
 8678SOL    HW237689   0.484   4.816   2.326 -1.2367 -0.8046  0.8383
 8679SOL     OW37690   8.970   2.737   8.000  0.0186  0.3916 -0.4648
 8679SOL    HW137691   8.902   2.711   8.069 -0.1078  0.8976 -0.4001
 8679SOL    HW237692   9.061   2.726   8.039  0.0520 -1.9489 -1.1086
 8680SOL     OW37693   1.446   5.646   1.846  0.6179 -0.7649  0.4593
 8680SOL    HW137694   1.505   5.702   1.787  1.1607 -2.7612 -0.9452
 8680SOL    HW237695   1.395   5.581   1.789 -1.3994 -0.4522  1.8757
 8681SOL     OW37696   1.007   0.240   2.447 -0.3376 -0.0706  0.1535
 8681SOL    HW137697   0.949   0.318   2.423 -0.9656 -0.1825  1.2681
 8681SOL    HW237698   0.975   0.158   2.398  0.1262  0.3030 -0.7736
 8682SOL     OW37699   2.402   1.852   6.692  0.5451  0.0850 -0.5645
 8682SOL    HW137700   2.460   1.896   6.625 -0.7901 -1.5736 -2.8996
 8682SOL    HW237701   2.435   1.759   6.710 -0.2716 -0.2012 -0.4867
 8683SOL     OW37702   3.935   8.619   7.293 -0.0984  0.4935  0.0959
 8683SOL    HW137703   3.980   8.618   7.383  0.0834 -0.7743 -0.0021
 8683SOL    HW237704   3.845   8.576   7.301 -0.2490  0.7436 -0.2525
 8684SOL     OW37705   9.272   3.837   4.865  0.3097  0.0194 -0.1437
 8684SOL    HW137706   9.204   3.890   4.815  1.7431 -0.5889 -2.8026
 8684SOL    HW237707   9.313   3.894   4.936 -0.5941  1.3923 -0.7169
 8685SOL     OW37708   0.296   1.808   1.303 -0.1839 -0.5053  0.1110
 8685SOL    HW137709   0.224   1.870   1.335 -0.2288 -0.6360  0.2586
 8685SOL    HW237710   0.270   1.714   1.323 -1.1262 -0.7437 -2.0256
 8686SOL     OW37711   7.838   1.470   6.973  0.1809 -0.3885 -0.3546
 8686SOL    HW137712   7.793   1.405   7.035 -2.2053 -0.2718 -1.8858
 8686SOL    HW237713   7.798   1.561   6.986  0.6830 -0.0668 -1.0325
 8687SOL     OW37714   7.111   1.829   7.829 -0.6666  0.0986  0.6115
 8687SOL    HW137715   7.025   1.789   7.862 -1.0660  0.3018 -0.1722
 8687SOL    HW237716   7.134   1.788   7.741  0.6989 -0.8736  1.3895
 8688SOL     OW37717   5.957   8.700   3.306  0.2879 -0.2545  0.3188
 8688SOL    HW137718   5.880   8.692   3.243 -0.0716 -1.1905  0.8670
 8688SOL    HW237719   6.042   8.673   3.260  0.4439  1.5764 -0.5408
 8689SOL     OW37720   4.380   0.780   7.809  0.3184  0.0798 -0.3911
 8689SOL    HW137721   4.299   0.774   7.750 -0.3558 -1.0173  0.6186
 8689SOL    HW237722   4.403   0.688   7.842  0.7154  0.6725  1.0058
 8690SOL     OW37723   3.527   0.286   1.865 -0.1117  0.2308 -0.5795
 8690SOL    HW137724   3.562   0.364   1.813 -0.0703  0.5542 -0.0721
 8690SOL    HW237725   3.448   0.248   1.818 -0.4036  0.8563 -0.6018
 8691SOL     OW37726   0.299   1.076   5.201  0.3407 -0.0620  0.2725
 8691SOL    HW137727   0.375   1.136   5.177 -1.0125  1.2780 -0.7409
 8691SOL    HW237728   0.219   1.132   5.226 -0.6799 -1.4489  0.1572
 8692SOL     OW37729   6.342   0.141   3.651 -0.0469 -0.3421  0.0092
 8692SOL    HW137730   6.323   0.050   3.689 -1.6163  1.1436  2.9153
 8692SOL    HW237731   6.428   0.176   3.688 -0.8207  0.4760  1.0670
 8693SOL     OW37732   2.791   1.821   4.454 -0.1956  0.2897  0.0449
 8693SOL    HW137733   2.747   1.885   4.517  0.2045  0.5702  0.0438
 8693SOL    HW237734   2.725   1.790   4.386 -0.7058 -0.2289  0.7613
 8694SOL     OW37735   6.717   2.350   0.413 -0.3053  0.2707 -0.9467
 8694SOL    HW137736   6.815   2.327   0.415 -0.1742  0.7984 -1.2450
 8694SOL    HW237737   6.693   2.394   0.500 -0.7366 -1.6786 -0.0416
 8695SOL     OW37738   0.458   9.161   2.299 -0.2017 -0.3403 -0.6392
 8695SOL    HW137739   0.389   9.089   2.290 -0.1542 -0.7179  1.7162
 8695SOL    HW237740   0.515   9.163   2.217 -1.0809 -2.0697 -1.3131
 8696SOL     OW37741   8.021   6.004   5.118  0.1242 -0.3249 -0.7621
 8696SOL    HW137742   7.989   5.935   5.182 -0.7778  0.3027 -0.5282
 8696SOL    HW237743   8.090   5.964   5.058 -0.9081 -1.6074 -1.1010
 8697SOL     OW37744   1.585   5.581   3.051  0.0477  0.3334  0.0673
 8697SOL    HW137745   1.544   5.581   3.142 -0.0072  0.4286  0.0423
 8697SOL    HW237746   1.516   5.605   2.983  0.1675  0.6048  0.0375
 8698SOL     OW37747   8.209   7.907   7.161  0.3050 -0.4520 -0.3131
 8698SOL    HW137748   8.234   7.865   7.074 -1.4603 -1.3608 -0.4158
 8698SOL    HW237749   8.151   7.987   7.144 -2.3574 -2.2421  0.0592
 8699SOL     OW37750   8.421   8.078   1.099 -0.3156 -0.3892 -0.2485
 8699SOL    HW137751   8.434   7.992   1.050  0.4730 -0.6321  0.3784
 8699SOL    HW237752   8.498   8.139   1.081 -0.1829 -0.3529  0.4182
 8700SOL     OW37753   4.698   9.149   3.716  0.3220  0.4712  0.2713
 8700SOL    HW137754   4.702   9.176   3.812  1.8536 -1.9448  0.9293
 8700SOL    HW237755   4.765   9.201   3.664  0.9498  0.2897  0.8952
 8701SOL     OW37756   1.171   6.106   3.664  0.4163  0.3383  0.3995
 8701SOL    HW137757   1.132   6.198   3.662  0.2569  0.2425 -1.0817
 8701SOL    HW237758   1.266   6.111   3.694  0.2562  0.9179  0.8415
 8702SOL     OW37759   0.401   0.726   7.413 -0.3051  0.3053  0.2410
 8702SOL    HW137760   0.353   0.651   7.367  1.9242 -0.0528 -1.6141
 8702SOL    HW237761   0.345   0.808   7.410 -0.8716 -0.1308 -1.7587
 8703SOL     OW37762   6.575   3.599   2.263 -0.2084  0.4435 -0.0270
 8703SOL    HW137763   6.576   3.621   2.165 -0.5992  1.5945  0.2263
 8703SOL    HW237764   6.667   3.577   2.294 -0.0923  0.0173 -0.6656
 8704SOL     OW37765   9.705   8.291   7.809 -0.1587 -0.1969  0.6440
 8704SOL    HW137766   9.649   8.266   7.730  1.1857  1.8864 -1.0149
 8704SOL    HW237767   9.648   8.290   7.891 -2.5930  1.4896 -0.9409
 8705SOL     OW37768   3.305   5.963   1.895  0.1822 -0.2897  0.0275
 8705SOL    HW137769   3.297   6.022   1.976  0.1718 -2.9198  2.0354
 8705SOL    HW237770   3.250   5.880   1.909  0.7072 -1.0966 -2.4152
 8706SOL     OW37771   0.004   6.082   7.549  0.1043  0.4888 -0.4736
 8706SOL    HW137772  -0.016   6.030   7.465 -0.1673  0.9837 -0.7168
 8706SOL    HW237773   0.098   6.063   7.578 -0.1139 -0.4384 -0.3454
 8707SOL     OW37774   7.489   1.444   0.053  0.8008  0.1559 -0.3295
 8707SOL    HW137775   7.560   1.419  -0.013  1.9195  0.7257  0.6355
 8707SOL    HW237776   7.527   1.438   0.146 -1.2646 -2.4747  0.4166
 8708SOL     OW37777   7.210   6.014   6.381 -0.0086  0.2505  0.5410
 8708SOL    HW137778   7.297   5.987   6.340  0.9916  2.1229  1.3762
 8708SOL    HW237779   7.222   6.024   6.480 -0.8636  1.6498  0.5155
 8709SOL     OW37780   5.119   7.316   5.697 -0.0926  0.3028  0.3409
 8709SOL    HW137781   5.034   7.344   5.742  0.8029  0.1758  2.1841
 8709SOL    HW237782   5.121   7.351   5.604 -2.0675  0.4950  0.3512
 8710SOL     OW37783   2.967   7.060   2.780 -0.2543 -0.1059  0.0923
 8710SOL    HW137784   2.898   7.030   2.714  0.6371 -1.2282 -0.3305
 8710SOL    HW237785   2.953   7.011   2.866  0.3000 -0.6940 -0.1447
 8711SOL     OW37786   9.283   9.357   5.072  0.4808 -0.0147 -0.0626
 8711SOL    HW137787   9.238   9.280   5.118 -0.1006  1.2996  1.6191
 8711SOL    HW237788   9.335   9.323   4.994  0.7896 -2.2180  1.0509
 8712SOL     OW37789   5.662   7.703   1.867 -0.5336  0.1404  0.8454
 8712SOL    HW137790   5.761   7.718   1.861 -0.3926 -1.4155 -0.9173
 8712SOL    HW237791   5.644   7.627   1.929 -0.6359  0.3942  1.1292
 8713SOL     OW37792   1.324   1.509   0.788 -0.6864 -0.0503  0.0617
 8713SOL    HW137793   1.320   1.520   0.688 -0.1191 -1.5922 -0.1496
 8713SOL    HW237794   1.384   1.433   0.810 -0.0606  0.8922  1.6412
 8714SOL     OW37795   5.043   1.009   2.827  0.4947 -0.3387  0.2697
 8714SOL    HW137796   5.010   0.926   2.872  1.7063 -1.7989 -1.4568
 8714SOL    HW237797   5.069   1.076   2.896 -0.3153 -1.4590  1.7050
 8715SOL     OW37798   5.701   5.415   1.558  0.1396 -0.2197  0.3211
 8715SOL    HW137799   5.706   5.437   1.655 -1.4040  1.4212  0.0479
 8715SOL    HW237800   5.613   5.446   1.521  1.4497  0.8687 -1.9975
 8716SOL     OW37801   0.796   9.244   7.304  0.0754  0.0062  0.6760
 8716SOL    HW137802   0.839   9.187   7.234 -1.5834  0.0556 -0.4012
 8716SOL    HW237803   0.826   9.338   7.294 -0.6283  0.1219 -0.3594
 8717SOL     OW37804   9.918   8.793   2.262  0.1665 -1.1941 -0.2967
 8717SOL    HW137805   9.841   8.854   2.243  0.1597 -1.4746 -1.2248
 8717SOL    HW237806   9.972   8.782   2.178  1.3028 -0.8792  0.3813
 8718SOL     OW37807   1.560   0.044   6.874 -0.2047  0.6843 -0.3738
 8718SOL    HW137808   1.535   0.136   6.843  0.4718  1.4272  1.2500
 8718SOL    HW237809   1.513   0.024   6.960  0.1614 -0.2386 -0.3819
 8719SOL     OW37810   3.994   2.657   0.352  0.3946  0.2805  0.6797
 8719SOL    HW137811   3.995   2.694   0.445  0.9752 -0.9482  1.1626
 8719SOL    HW237812   4.067   2.590   0.341 -1.2817 -1.5082  0.1091
 8720SOL     OW37813   5.191   4.305   7.643 -0.6198  0.7762 -0.0527
 8720SOL    HW137814   5.168   4.222   7.592 -1.3297 -0.7416  2.5951
 8720SOL    HW237815   5.139   4.382   7.606 -0.9270 -0.2099 -1.7513
 8721SOL     OW37816   9.189   8.920   0.120  0.3699 -0.2168 -0.1965
 8721SOL    HW137817   9.132   8.920   0.201  0.4765  0.3308 -0.1232
 8721SOL    HW237818   9.170   9.001   0.065  2.1342  0.7563  0.5778
 8722SOL     OW37819   1.304   5.670   5.752  0.2561 -0.0134 -0.8924
 8722SOL    HW137820   1.336   5.624   5.670  0.4863 -1.5903  0.0563
 8722SOL    HW237821   1.226   5.728   5.730 -1.2249 -2.3050 -1.8019
 8723SOL     OW37822   8.884   1.879   0.814  0.0729  0.0568  0.4005
 8723SOL    HW137823   8.861   1.971   0.782 -1.0493 -0.6358 -0.8418
 8723SOL    HW237824   8.803   1.820   0.809  0.7122 -0.9342  1.4326
 8724SOL     OW37825   6.921   2.159   3.333 -0.8091 -1.0338  0.2500
 8724SOL    HW137826   6.921   2.059   3.333  1.5012 -1.0790 -0.8397
 8724SOL    HW237827   6.990   2.192   3.398 -0.2035 -0.2061 -0.7941
 8725SOL     OW37828   7.523   8.706   6.564  0.1677  0.0446  0.3943
 8725SOL    HW137829   7.596   8.724   6.630  0.4769 -1.8939  0.6063
 8725SOL    HW237830   7.491   8.612   6.574  0.1717 -0.2719 -2.1957
 8726SOL     OW37831   0.067   9.509   4.527  0.4307 -0.7707 -0.3733
 8726SOL    HW137832   0.028   9.460   4.605 -1.7037  0.4080 -0.6589
 8726SOL    HW237833   0.145   9.563   4.557 -0.9253  0.3759  1.1536
 8727SOL     OW37834   8.300   5.160   4.001  0.5198 -0.0686  0.0416
 8727SOL    HW137835   8.261   5.082   4.051 -0.4932  0.1803 -0.3522
 8727SOL    HW237836   8.393   5.137   3.972  1.4898  0.0963  2.7845
 8728SOL     OW37837   3.229   6.137   7.148  0.7057 -0.6757 -0.0358
 8728SOL    HW137838   3.166   6.062   7.127  0.5030 -0.7637  0.8698
 8728SOL    HW237839   3.244   6.192   7.066  0.0311 -1.0917 -0.4428
 8729SOL     OW37840   2.949   4.295   2.531 -0.5480 -0.2435 -0.2595
 8729SOL    HW137841   2.936   4.241   2.614 -1.0109 -0.6668 -0.6001
 8729SOL    HW237842   2.933   4.391   2.550  0.4630 -0.1998  0.4023
 8730SOL     OW37843   3.918   5.588   4.153  0.2771 -0.0485  0.5526
 8730SOL    HW137844   3.989   5.642   4.107  0.0894 -1.5090 -1.5043
 8730SOL    HW237845   3.956   5.500   4.180 -0.4165 -0.3375  0.5904
 8731SOL     OW37846   3.521   9.765   1.723  0.3079 -0.1561 -0.5913
 8731SOL    HW137847   3.483   9.673   1.726  1.2851 -0.5451  0.4318
 8731SOL    HW237848   3.603   9.766   1.666  1.3221 -0.3439  0.8175
 8732SOL     OW37849   0.859   4.367   4.670 -0.4082 -0.1805  0.0081
 8732SOL    HW137850   0.954   4.379   4.641 -0.7225  0.4209 -0.7892
 8732SOL    HW237851   0.813   4.302   4.609 -0.6547 -0.0595  0.0625
 8733SOL     OW37852   7.503   2.985   2.589 -0.5248  0.3008 -0.4236
 8733SOL    HW137853   7.494   2.922   2.512 -1.8580 -1.7903  1.3780
 8733SOL    HW237854   7.599   3.014   2.597  0.1859 -1.7275 -1.1341
 8734SOL     OW37855   1.537   6.241   2.283 -0.5982  0.0377 -0.4187
 8734SOL    HW137856   1.504   6.317   2.339  0.3917 -0.3358  0.6991
 8734SOL    HW237857   1.578   6.171   2.343  0.4878 -0.3575 -1.6006
 8735SOL     OW37858   4.283   3.855   5.689 -0.3071  0.1300  0.0660
 8735SOL    HW137859   4.377   3.830   5.711  0.0920  3.6636  2.7203
 8735SOL    HW237860   4.280   3.898   5.599  0.6420  0.1572  0.0468
 8736SOL     OW37861   8.156   7.894   0.916  0.5724 -0.0517 -0.1182
 8736SOL    HW137862   8.247   7.899   0.956  0.6400  2.2769 -0.5431
 8736SOL    HW237863   8.140   7.973   0.857 -1.6661 -0.5288 -0.2052
 8737SOL     OW37864   1.778   2.568   8.103 -0.4951 -0.1260 -0.0029
 8737SOL    HW137865   1.738   2.554   8.193  0.0650 -0.0395  0.2656
 8737SOL    HW237866   1.867   2.523   8.099 -0.7201 -0.5074 -0.6650
 8738SOL     OW37867   6.100   0.812   7.808  0.4519  0.0308  0.2652
 8738SOL    HW137868   6.008   0.808   7.847 -0.1916  3.2361 -0.7881
 8738SOL    HW237869   6.167   0.825   7.881 -0.1630  0.2739  0.7908
 8739SOL     OW37870   6.335   3.101   0.536 -0.2523  0.1374  0.2737
 8739SOL    HW137871   6.245   3.123   0.573  1.0645  2.6702  2.0760
 8739SOL    HW237872   6.341   3.133   0.442 -0.3576  2.3424  1.0028
 8740SOL     OW37873   2.179   2.754   0.717  0.3887  0.0403 -0.7547
 8740SOL    HW137874   2.242   2.827   0.689  0.0574  0.6355  0.0390
 8740SOL    HW237875   2.231   2.679   0.757  0.6237  0.4343 -0.3110
 8741SOL     OW37876   2.617   1.025   6.538 -0.2778 -0.2036  0.3390
 8741SOL    HW137877   2.682   1.044   6.612  0.8433 -0.6173 -0.5176
 8741SOL    HW237878   2.567   1.109   6.515  0.2371  0.2199  0.7407
 8742SOL     OW37879   8.325   4.572   3.776  0.1415  0.6023  0.5721
 8742SOL    HW137880   8.369   4.604   3.693  0.6036  0.8779  0.9191
 8742SOL    HW237881   8.228   4.556   3.759  0.4163 -0.1738 -0.2378
 8743SOL     OW37882   9.491   7.437   6.872  0.5675 -0.1078  0.0048
 8743SOL    HW137883   9.551   7.379   6.816  0.7042  0.4295 -0.4120
 8743SOL    HW237884   9.475   7.524   6.824 -2.0370 -0.9612 -0.7626
 8744SOL     OW37885   1.511   6.227   1.003  0.4017  0.2731  0.1821
 8744SOL    HW137886   1.467   6.138   0.992 -0.4376  0.8216 -0.9693
 8744SOL    HW237887   1.453   6.286   1.058  0.3037  0.5706 -0.2401
 8745SOL     OW37888   4.202   5.274   3.809 -0.3259 -0.2542 -0.1871
 8745SOL    HW137889   4.203   5.341   3.734  0.0472  0.2533  0.2649
 8745SOL    HW237890   4.273   5.206   3.794 -1.0619 -0.8768 -0.9323
 8746SOL     OW37891   0.814   2.718   7.243  0.0526  0.5267 -0.4863
 8746SOL    HW137892   0.798   2.630   7.198  0.7393 -0.8426  1.8438
 8746SOL    HW237893   0.730   2.748   7.289  0.2741  0.2931  0.0684
 8747SOL     OW37894   8.836   0.667   5.817 -0.5514 -0.0381  0.3367
 8747SOL    HW137895   8.825   0.572   5.788  2.6924  0.1441 -1.6780
 8747SOL    HW237896   8.825   0.673   5.916 -0.5943 -2.5188  0.5198
 8748SOL     OW37897   2.500   5.589   2.688 -0.2884  0.2250 -0.3151
 8748SOL    HW137898   2.402   5.587   2.708 -0.0483 -0.5968  0.8135
 8748SOL    HW237899   2.516   5.646   2.608 -1.3874  2.6997  1.1855
 8749SOL     OW37900   3.512   5.674   5.983  0.5002 -0.4458  0.1768
 8749SOL    HW137901   3.608   5.646   5.975  0.0118 -2.0247 -0.3505
 8749SOL    HW237902   3.461   5.602   6.030 -0.6677 -0.1340 -0.6184
 8750SOL     OW37903   2.376   3.228   5.434 -0.2963  0.0187  0.2850
 8750SOL    HW137904   2.365   3.131   5.456  1.6606 -0.6239 -1.4096
 8750SOL    HW237905   2.473   3.247   5.416 -0.9253  1.8585 -1.3163
 8751SOL     OW37906   1.615   2.102   5.820 -0.5387 -0.6425  0.4389
 8751SOL    HW137907   1.589   2.188   5.863 -0.6763 -1.1575  1.3926
 8751SOL    HW237908   1.560   2.027   5.858 -2.2910 -0.7821 -2.2831
 8752SOL     OW37909   8.207   9.409   7.664 -0.2055  0.5343 -0.0055
 8752SOL    HW137910   8.123   9.464   7.658 -0.4940  0.2701  1.3338
 8752SOL    HW237911   8.231   9.397   7.761 -0.8576 -2.7544 -0.1836
 8753SOL     OW37912   0.825   9.989   1.153  0.0634 -0.5819  1.1690
 8753SOL    HW137913   0.821  10.053   1.230 -0.5232  0.0104  0.6569
 8753SOL    HW237914   0.743   9.931   1.153 -0.1401 -0.3006  0.7597
 8754SOL     OW37915   3.694   5.597   3.204 -0.3781 -0.0452  0.4869
 8754SOL    HW137916   3.702   5.522   3.270  0.8442  0.5490  1.0311
 8754SOL    HW237917   3.601   5.600   3.168 -0.9101 -0.7216  1.7735
 8755SOL     OW37918   2.339   2.432   7.528  0.0689 -0.5193  0.6158
 8755SOL    HW137919   2.326   2.409   7.432  0.4430  0.9429  0.2050
 8755SOL    HW237920   2.251   2.458   7.569 -0.1708 -1.5999  0.8024
 8756SOL     OW37921   7.468   8.996   6.032  0.4882 -0.3059 -0.3595
 8756SOL    HW137922   7.514   8.991   6.121 -2.3203  0.8604  1.2143
 8756SOL    HW237923   7.523   9.050   5.969  0.9749  1.6610  1.6986
 8757SOL     OW37924   5.580   3.577   1.599  0.2320  0.0011  0.0179
 8757SOL    HW137925   5.560   3.598   1.503 -0.6205 -0.2854  0.1257
 8757SOL    HW237926   5.658   3.631   1.629 -0.2855  1.0427 -0.4790
 8758SOL     OW37927   3.738   4.546   8.108  0.1320  0.3206 -0.0619
 8758SOL    HW137928   3.651   4.496   8.107  0.2335  0.1447 -0.3652
 8758SOL    HW237929   3.797   4.510   8.035  1.6282 -1.6461  2.0421
 8759SOL     OW37930   9.837   5.164   8.086  0.3363 -0.0859 -0.1534
 8759SOL    HW137931   9.882   5.093   8.140  0.4166  0.1701  0.1115
 8759SOL    HW237932   9.738   5.149   8.088  0.3542 -0.2026 -0.1133
 8760SOL     OW37933   8.310   8.380   2.386 -0.4919 -0.3251  0.0057
 8760SOL    HW137934   8.314   8.284   2.356  0.2556 -0.4047  0.3514
 8760SOL    HW237935   8.266   8.385   2.475 -2.3478 -0.1336 -0.9105
 8761SOL     OW37936   5.333   0.226   0.756  0.2459 -0.1403 -0.1487
 8761SOL    HW137937   5.326   0.200   0.852  1.2288 -1.3104 -0.3896
 8761SOL    HW237938   5.285   0.159   0.699 -0.7698  0.8175 -0.4545
 8762SOL     OW37939   9.621   3.028   7.371 -0.2046 -0.0625 -0.2388
 8762SOL    HW137940   9.549   2.996   7.433 -0.8901  0.2654 -0.8575
 8762SOL    HW237941   9.586   3.030   7.277  0.8475 -0.6187 -0.6514
 8763SOL     OW37942   4.089   7.067   1.816 -0.7578 -0.0433  0.0454
 8763SOL    HW137943   4.115   7.032   1.906  1.3646  0.8847 -0.1872
 8763SOL    HW237944   4.082   6.992   1.751  0.0782 -0.4567  0.4285
 8764SOL     OW37945   8.218   2.022   3.808 -0.0435 -0.8644  0.3298
 8764SOL    HW137946   8.172   2.090   3.751  2.2571 -0.0603 -0.6148
 8764SOL    HW237947   8.286   2.068   3.866  0.9119 -2.2547  0.3194
 8765SOL     OW37948   8.190   6.703   5.737  0.1798  0.1039 -0.3384
 8765SOL    HW137949   8.211   6.654   5.652 -1.3255 -1.2171  0.0243
 8765SOL    HW237950   8.112   6.763   5.721  0.0522  0.0375  0.0466
 8766SOL     OW37951   0.096   7.704   4.309 -0.8239  0.0715  0.7932
 8766SOL    HW137952   0.072   7.629   4.370  0.6241 -1.6051 -0.6424
 8766SOL    HW237953   0.068   7.681   4.216 -0.7388  1.4913  0.4110
 8767SOL     OW37954   4.641   2.592   5.846  0.2964 -0.0248 -0.0903
 8767SOL    HW137955   4.723   2.620   5.896 -0.1724  0.3453  0.4774
 8767SOL    HW237956   4.605   2.669   5.795  0.2250 -0.1501 -0.2287
 8768SOL     OW37957   3.602   3.487   1.448  0.2031 -0.1601 -0.2705
 8768SOL    HW137958   3.619   3.480   1.546  0.8099  1.4696 -0.2300
 8768SOL    HW237959   3.574   3.399   1.412 -0.1612 -0.7427  1.3978
 8769SOL     OW37960   0.859   8.205   0.202  0.3995  0.3160  0.4497
 8769SOL    HW137961   0.846   8.295   0.243 -0.1293 -0.3011  1.6606
 8769SOL    HW237962   0.917   8.149   0.260 -0.3729 -0.5784  0.3706
 8770SOL     OW37963   7.869   2.056   1.076 -0.5153  0.0785  0.1811
 8770SOL    HW137964   7.921   2.066   1.161 -1.0730  0.1341  0.5218
 8770SOL    HW237965   7.880   2.138   1.020 -1.5990  0.8184  1.0235
 8771SOL     OW37966   9.958   3.192   0.498 -0.1118 -0.2289  0.0153
 8771SOL    HW137967   9.879   3.205   0.438  0.4867  1.1770 -0.4944
 8771SOL    HW237968  10.041   3.191   0.442  0.3457 -0.2917  0.6994
 8772SOL     OW37969   5.573   8.214   6.208  0.9167  0.5273 -0.4835
 8772SOL    HW137970   5.530   8.303   6.191  2.2026  1.5082  1.3036
 8772SOL    HW237971   5.629   8.188   6.129  1.6525  1.9524 -0.4331
 8773SOL     OW37972   4.637   3.418   7.071 -1.1163 -0.3956 -0.3686
 8773SOL    HW137973   4.567   3.485   7.048  0.0195 -0.1619 -3.3465
 8773SOL    HW237974   4.700   3.458   7.138 -1.6413  0.7368 -0.5389
 8774SOL     OW37975   6.408   6.876   5.357  0.5355 -0.2197 -0.6081
 8774SOL    HW137976   6.353   6.806   5.311  0.9815 -0.5968 -0.5752
 8774SOL    HW237977   6.503   6.846   5.361  0.8012  0.5596 -0.9304
 8775SOL     OW37978   4.128   4.488   2.399  0.6066  0.2759 -0.4628
 8775SOL    HW137979   4.194   4.434   2.346  1.2040 -0.8986  1.4405
 8775SOL    HW237980   4.145   4.586   2.383  1.2220 -0.0505 -1.8888
 8776SOL     OW37981   9.507   4.262   5.232  0.7335  0.1745  0.0061
 8776SOL    HW137982   9.525   4.297   5.139 -1.1593 -0.9160 -0.7931
 8776SOL    HW237983   9.584   4.205   5.261  0.7306 -0.6182 -1.4635
 8777SOL     OW37984   8.243   5.128   2.978  0.7692  0.4404 -0.8716
 8777SOL    HW137985   8.330   5.092   2.943  0.2493 -0.6826 -1.0313
 8777SOL    HW237986   8.167   5.085   2.929  0.1013  0.6975 -0.0677
 8778SOL     OW37987   1.824   8.445   2.446  0.0622 -0.0629  0.5268
 8778SOL    HW137988   1.794   8.371   2.506 -0.6186  0.0781  0.3720
 8778SOL    HW237989   1.811   8.533   2.492 -2.0338  0.1568 -0.4344
 8779SOL     OW37990   5.134   8.499   3.037 -0.1596 -0.0516 -0.1396
 8779SOL    HW137991   5.119   8.594   3.063 -0.0003  0.4075 -1.7181
 8779SOL    HW237992   5.089   8.480   2.950  1.6365 -0.8052 -0.9361
 8780SOL     OW37993   3.796   7.545   2.852 -0.6267 -0.4359 -0.2728
 8780SOL    HW137994   3.732   7.608   2.896 -0.1437  1.0056 -1.5929
 8780SOL    HW237995   3.779   7.544   2.753  2.9696  1.8755 -1.0073
 8781SOL     OW37996   8.011   7.165   4.980  0.4153 -0.0161  0.0784
 8781SOL    HW137997   8.079   7.132   5.046  0.9128  0.2537 -0.2962
 8781SOL    HW237998   7.935   7.207   5.030 -0.0476 -1.3730  0.5409
 8782SOL     OW37999   4.636   0.205   4.675  0.3583  0.1961 -0.5205
 8782SOL    HW138000   4.620   0.127   4.736  0.0767 -0.4167 -1.3696
 8782SOL    HW238001   4.548   0.243   4.647  0.4941  0.7533 -0.2067
 8783SOL     OW38002   1.041   1.482   7.543 -0.0653 -0.1366 -0.0984
 8783SOL    HW138003   1.020   1.426   7.623 -0.7559  1.3925  0.8087
 8783SOL    HW238004   0.957   1.501   7.493  0.1261  0.3300 -0.2433
 8784SOL     OW38005   0.041   3.651   7.502 -0.1350  0.4222  0.0241
 8784SOL    HW138006   0.050   3.556   7.472 -1.8023  0.0111  0.7463
 8784SOL    HW238007  -0.009   3.654   7.589  2.6821  1.7439  1.6849
 8785SOL     OW38008   2.793   0.122   4.742 -0.2753 -0.0223  0.0222
 8785SOL    HW138009   2.712   0.067   4.763 -2.0269  1.8995 -1.4717
 8785SOL    HW238010   2.783   0.212   4.782  1.5704 -0.0644  0.5894
 8786SOL     OW38011   8.859   0.438   7.638  0.6798  0.2256  0.3412
 8786SOL    HW138012   8.777   0.387   7.611 -0.5719  2.7330 -0.7526
 8786SOL    HW238013   8.924   0.440   7.562  0.3030  1.0707  0.0351
 8787SOL     OW38014   8.303   9.659   8.067 -0.1477  0.7327 -0.0703
 8787SOL    HW138015   8.257   9.684   7.982  0.4856  1.3532 -0.2299
 8787SOL    HW238016   8.402   9.660   8.053 -0.0748 -0.9441  0.1667
 8788SOL     OW38017   3.783   9.321   7.303 -0.4539  0.1931  0.0827
 8788SOL    HW138018   3.798   9.288   7.210  0.8576  2.0411 -0.3891
 8788SOL    HW238019   3.725   9.402   7.301 -1.8518 -0.7635  1.0444
 8789SOL     OW38020   4.888   8.441   6.945  0.1069  0.2130  0.1699
 8789SOL    HW138021   4.923   8.361   6.895 -0.3230 -0.0174  0.2335
 8789SOL    HW238022   4.908   8.430   7.043 -0.4468 -0.0893  0.2544
 8790SOL     OW38023   4.413   0.048   8.077  0.0358 -0.1727 -0.2430
 8790SOL    HW138024   4.320   0.019   8.101 -0.5865  0.9320 -1.2592
 8790SOL    HW238025   4.456   0.090   8.156 -0.3827 -0.5505  0.1903
 8791SOL     OW38026   8.497   3.505   0.328  0.1555  0.4416  0.0402
 8791SOL    HW138027   8.486   3.416   0.283 -3.0696 -0.7139  2.8686
 8791SOL    HW238028   8.467   3.578   0.266 -2.0673 -0.9026 -0.5194
 8792SOL     OW38029   0.050   6.589   2.292 -0.1899 -0.4199 -0.1944
 8792SOL    HW138030   0.126   6.650   2.315 -0.1788 -1.3599  2.5501
 8792SOL    HW238031  -0.011   6.633   2.227  0.1758  2.2371  1.2115
 8793SOL     OW38032   1.768   5.162   2.940  0.2360 -0.4332 -0.2468
 8793SOL    HW138033   1.675   5.131   2.918 -0.5742  0.0274  2.3311
 8793SOL    HW238034   1.818   5.088   2.986  0.4385 -0.0270  0.1978
 8794SOL     OW38035   9.393   2.417   0.553  0.2069  0.2359  0.2125
 8794SOL    HW138036   9.326   2.424   0.479 -1.0701 -1.4124  1.1639
 8794SOL    HW238037   9.364   2.345   0.617  2.4924  0.0241  1.0496
 8795SOL     OW38038   5.307   3.169   7.956  0.1563  0.2521  0.0084
 8795SOL    HW138039   5.333   3.262   7.931  0.6159  0.1905  0.2597
 8795SOL    HW238040   5.277   3.119   7.874  0.4326  0.4507 -0.2133
 8796SOL     OW38041   4.654   0.093   3.366 -0.2623 -0.3782  0.2560
 8796SOL    HW138042   4.558   0.066   3.376 -0.4870 -0.6158 -2.2544
 8796SOL    HW238043   4.706   0.017   3.326  0.6591  0.2721  0.1971
 8797SOL     OW38044   0.875   7.838   6.121  0.4535 -0.3026  0.3198
 8797SOL    HW138045   0.962   7.819   6.166  0.0317 -0.3934  1.0942
 8797SOL    HW238046   0.841   7.927   6.151  0.0906 -0.4350  0.2949
 8798SOL     OW38047   0.411   6.951   3.288 -0.1667  0.1269  0.5051
 8798SOL    HW138048   0.381   7.026   3.229  0.4709 -0.0336 -0.0291
 8798SOL    HW238049   0.380   6.864   3.249  1.1873 -0.0531 -0.1699
 8799SOL     OW38050   4.037   9.134   7.217 -0.6899  0.1748  0.1976
 8799SOL    HW138051   3.981   9.052   7.216 -1.2500  0.5637 -0.5836
 8799SOL    HW238052   4.000   9.198   7.285 -1.3165  0.5167 -0.4649
 8800SOL     OW38053   2.350   2.327   5.280 -0.2499 -0.2724 -0.2092
 8800SOL    HW138054   2.277   2.372   5.229  0.7895 -1.8133 -3.1319
 8800SOL    HW238055   2.426   2.390   5.293 -1.5094  0.9223  1.7306
 8801SOL     OW38056   6.397   9.380   4.852  0.3921 -0.2155  0.0699
 8801SOL    HW138057   6.366   9.358   4.945  0.7081 -0.0055  0.2239
 8801SOL    HW238058   6.478   9.325   4.830  0.2804 -0.3100 -0.1062
 8802SOL     OW38059   9.356   2.427   7.477 -0.0471  0.2857  0.6936
 8802SOL    HW138060   9.433   2.421   7.541  0.8259 -2.1641 -0.5070
 8802SOL    HW238061   9.389   2.462   7.390 -0.4714  0.1011  0.4596
 8803SOL     OW38062   3.348   1.101   4.259 -0.2091  0.2929  0.2152
 8803SOL    HW138063   3.375   1.023   4.315  0.6409  1.0093  0.8285
 8803SOL    HW238064   3.297   1.167   4.315 -2.2245 -0.4974 -0.6528
 8804SOL     OW38065   1.156   4.710   2.734  0.2963 -0.0900  0.4681
 8804SOL    HW138066   1.238   4.766   2.745  0.9732 -0.7156 -1.1902
 8804SOL    HW238067   1.075   4.763   2.757  1.0419  1.0833  0.4012
 8805SOL     OW38068   3.891   4.671   1.442  0.3350  0.1691 -0.2630
 8805SOL    HW138069   3.897   4.699   1.347 -0.2658  1.7738  0.1495
 8805SOL    HW238070   3.982   4.658   1.480  0.5599 -1.0985 -1.2316
 8806SOL     OW38071   7.476   9.445   6.831  0.2754  0.4283 -0.0171
 8806SOL    HW138072   7.485   9.517   6.900 -2.1581 -0.5947  1.4332
 8806SOL    HW238073   7.379   9.425   6.817  0.9283 -3.9104  1.0633
 8807SOL     OW38074   1.762   4.051   7.365 -0.5011 -0.1393  0.2994
 8807SOL    HW138075   1.806   3.978   7.312  0.8073  1.1817 -0.4882
 8807SOL    HW238076   1.676   4.077   7.321  1.0951  1.6834 -1.8340
 8808SOL     OW38077   8.938   8.703   2.446 -0.2393 -0.0230  0.5850
 8808SOL    HW138078   8.848   8.740   2.468 -0.0911  1.6600 -1.5590
 8808SOL    HW238079   9.009   8.761   2.486 -0.0463  0.8093 -0.9401
 8809SOL     OW38080   2.438   9.879   0.859  0.1593 -0.3419 -0.0638
 8809SOL    HW138081   2.442   9.817   0.781  1.0433  0.3768 -0.5905
 8809SOL    HW238082   2.433   9.974   0.826 -0.0057 -0.0670  0.7459
 8810SOL     OW38083   7.304   3.594   8.184  0.8669 -0.3550  0.0132
 8810SOL    HW138084   7.249   3.522   8.228 -2.6651  1.3712 -1.3302
 8810SOL    HW238085   7.332   3.661   8.252  0.7761 -0.9342  0.6245
 8811SOL     OW38086   7.882   3.802   3.911  0.3614 -0.1029  0.1296
 8811SOL    HW138087   7.927   3.888   3.934  0.5983 -0.5697  1.3930
 8811SOL    HW238088   7.792   3.822   3.872  0.0871  0.6832  1.1601
 8812SOL     OW38089   4.690   1.499   3.403  0.4511  0.3573 -0.4849
 8812SOL    HW138090   4.722   1.455   3.487  0.1912 -0.2991 -0.7218
 8812SOL    HW238091   4.641   1.583   3.425 -0.4194 -0.2947  0.0745
 8813SOL     OW38092   1.348   4.387   6.224 -0.3132 -0.3153 -0.3912
 8813SOL    HW138093   1.425   4.444   6.197  0.1952 -1.8422 -2.2450
 8813SOL    HW238094   1.271   4.446   6.250  1.9267  1.2206  2.9851
 8814SOL     OW38095   3.966   4.438   0.932  0.5717 -0.0230 -0.5240
 8814SOL    HW138096   3.969   4.403   0.839  0.1709 -0.5325 -0.3430
 8814SOL    HW238097   3.872   4.437   0.965  0.6402  0.6516 -0.3030
 8815SOL     OW38098   7.786   2.731   4.548  0.5562 -0.0916 -0.0120
 8815SOL    HW138099   7.867   2.786   4.570  2.0103 -1.5724 -1.5248
 8815SOL    HW238100   7.812   2.634   4.542 -1.2398 -0.5404 -0.9412
 8816SOL     OW38101   3.008   5.178   0.228 -1.0094 -0.6924 -0.2446
 8816SOL    HW138102   2.909   5.161   0.229 -1.1733  0.2224 -0.2792
 8816SOL    HW238103   3.025   5.271   0.196 -0.1484 -0.7424  0.0621
 8817SOL     OW38104   2.596   9.341   4.240  0.2227 -0.1684 -0.2772
 8817SOL    HW138105   2.655   9.375   4.167  0.9540 -1.8252 -0.4829
 8817SOL    HW238106   2.639   9.360   4.329  0.6119 -0.5366 -0.3869
 8818SOL     OW38107   2.803   3.335   1.754 -0.4813 -0.4372  0.1481
 8818SOL    HW138108   2.732   3.370   1.693 -1.3839 -0.3314  1.2417
 8818SOL    HW238109   2.773   3.248   1.793 -0.5552  0.2257  1.5800
 8819SOL     OW38110   0.387   0.006   4.117  0.3459  0.4381  0.6538
 8819SOL    HW138111   0.468   0.028   4.170 -1.2999  2.6146  2.3651
 8819SOL    HW238112   0.307   0.048   4.160 -1.6490 -1.3783 -1.1654
 8820SOL     OW38113   9.266   2.598   0.863  0.0847  0.2025 -0.5319
 8820SOL    HW138114   9.352   2.573   0.908 -0.9754 -1.7620  0.4525
 8820SOL    HW238115   9.216   2.664   0.919  0.7142  0.9758 -0.8724
 8821SOL     OW38116   2.708   8.336   5.282 -0.5389  0.2122 -0.3171
 8821SOL    HW138117   2.709   8.238   5.261 -0.0009  0.3177 -0.7644
 8821SOL    HW238118   2.627   8.378   5.240  0.5078  0.4190 -2.1368
 8822SOL     OW38119   8.888   7.115   6.843 -0.1445 -0.0416  0.6232
 8822SOL    HW138120   8.953   7.188   6.820 -0.4954  0.2375  0.5223
 8822SOL    HW238121   8.939   7.031   6.863  0.1667 -0.3474 -1.3606
 8823SOL     OW38122   5.856   0.354   6.374 -0.0358  0.7381  0.4356
 8823SOL    HW138123   5.821   0.405   6.295 -0.5449  0.0249  0.1977
 8823SOL    HW238124   5.853   0.413   6.455 -0.8200  1.0201  0.2094
 8824SOL     OW38125   8.288   3.750   7.246  0.6253  0.4033 -0.1943
 8824SOL    HW138126   8.351   3.820   7.211  0.1631  1.0178  0.1759
 8824SOL    HW238127   8.194   3.778   7.229  0.4531 -0.5783 -0.8601
 8825SOL     OW38128   0.796   6.889   6.187 -0.0878  0.7230 -0.5162
 8825SOL    HW138129   0.792   6.921   6.281 -4.7483 -0.1690 -0.2984
 8825SOL    HW238130   0.746   6.952   6.127  0.3275 -0.2430 -1.9206
 8826SOL     OW38131   8.722   6.197   3.899 -0.1999  0.5359 -0.1696
 8826SOL    HW138132   8.806   6.181   3.848  1.6029  0.0050  2.8632
 8826SOL    HW238133   8.683   6.110   3.927 -0.1147  0.8666  1.0016
 8827SOL     OW38134   6.917   2.946   4.791 -0.1016 -0.3097  0.0133
 8827SOL    HW138135   6.947   3.008   4.862  1.1821 -1.1383  0.2045
 8827SOL    HW238136   6.863   2.872   4.831  1.2911 -1.2122  0.2335
 8828SOL     OW38137   1.390   4.689   1.618  0.3511 -0.7223 -0.2834
 8828SOL    HW138138   1.318   4.637   1.572  0.1919 -0.4070 -0.3918
 8828SOL    HW238139   1.380   4.787   1.597  0.8253 -0.6787 -0.3170
 8829SOL     OW38140   0.410   1.956   3.147 -0.3212 -0.1132 -0.1005
 8829SOL    HW138141   0.384   1.984   3.054 -1.4524 -0.2844  0.1502
 8829SOL    HW238142   0.347   1.884   3.178  0.5836 -0.6649  0.4702
 8830SOL     OW38143   2.985   1.067   6.235 -0.1618 -0.4242 -0.2809
 8830SOL    HW138144   2.886   1.062   6.218 -0.2657 -0.2447  0.2612
 8830SOL    HW238145   3.033   1.065   6.148 -0.6928  0.5570 -0.6126
 8831SOL     OW38146   7.076   5.161   0.017  0.2499 -0.4687  0.1460
 8831SOL    HW138147   7.016   5.153  -0.062 -0.7259 -1.3766  0.9768
 8831SOL    HW238148   7.161   5.206  -0.011  0.9613 -3.0034 -1.9970
 8832SOL     OW38149   0.191   2.354   5.267  0.1130 -0.3955  0.1561
 8832SOL    HW138150   0.198   2.437   5.211 -2.9705 -0.0112  0.2427
 8832SOL    HW238151   0.179   2.275   5.206  0.5508 -0.4508  0.1446
 8833SOL     OW38152   7.424   9.442   3.086  0.0415 -0.3889 -0.0121
 8833SOL    HW138153   7.435   9.434   3.185 -0.9376  1.2543  0.2517
 8833SOL    HW238154   7.336   9.486   3.065 -0.9819 -3.1207 -1.7061
 8834SOL     OW38155   0.103   6.740   1.390 -0.2740 -0.1925  0.2301
 8834SOL    HW138156   0.082   6.728   1.292  1.3586  0.9285 -0.2764
 8834SOL    HW238157   0.051   6.817   1.426 -0.2048 -0.0513  0.0265
 8835SOL     OW38158   3.694   6.220   1.111  0.2804  0.3168  0.3341
 8835SOL    HW138159   3.720   6.271   1.193 -0.9082  0.0853  0.8594
 8835SOL    HW238160   3.599   6.239   1.089  1.0407  1.6758 -1.9717
 8836SOL     OW38161   2.544   8.439   4.340 -0.2347  0.3637  0.3655
 8836SOL    HW138162   2.602   8.510   4.380  0.9496  1.0591 -2.5003
 8836SOL    HW238163   2.523   8.462   4.246 -3.5621 -0.9028  0.7383
 8837SOL     OW38164   7.439   2.693   5.096  0.2777  0.1133 -0.5813
 8837SOL    HW138165   7.415   2.602   5.131 -2.1585  0.6999 -0.6512
 8837SOL    HW238166   7.478   2.748   5.169  0.5869 -0.5654 -0.2279
 8838SOL     OW38167   6.478   1.667   5.409 -0.1333 -0.5131 -0.1468
 8838SOL    HW138168   6.544   1.725   5.457  0.4838 -1.0235 -0.3685
 8838SOL    HW238169   6.392   1.665   5.461  0.6834 -1.4655  1.2220
 8839SOL     OW38170   9.425   2.572   7.837  0.2648  0.7587 -0.1301
 8839SOL    HW138171   9.426   2.655   7.891  0.0740 -0.5610  1.9446
 8839SOL    HW238172   9.497   2.510   7.869  1.1042  0.5287 -2.3406
 8840SOL     OW38173   5.266   1.655   0.670 -0.1338 -0.1851  0.5022
 8840SOL    HW138174   5.358   1.693   0.671 -0.0679 -0.3273 -0.4175
 8840SOL    HW238175   5.200   1.728   0.690  0.1034  0.0968  0.2532
 8841SOL     OW38176   1.868   9.517   6.274 -0.2423 -0.6283 -0.0012
 8841SOL    HW138177   1.794   9.458   6.307 -1.3931 -0.4122 -2.0325
 8841SOL    HW238178   1.829   9.587   6.213  1.8143 -1.6010 -2.5423
 8842SOL     OW38179   8.374   9.790   3.157  0.6649 -0.0217 -0.7785
 8842SOL    HW138180   8.408   9.843   3.234 -0.8513 -1.0523  0.6290
 8842SOL    HW238181   8.447   9.780   3.089  2.7304 -0.9296  1.4831
 8843SOL     OW38182   9.434   4.934   2.345 -0.2152  0.0740 -0.1788
 8843SOL    HW138183   9.520   4.928   2.396 -0.6269  1.9286  0.7862
 8843SOL    HW238184   9.442   5.006   2.276  0.1929 -2.1326 -2.4898
 8844SOL     OW38185   2.700   9.709   0.687  0.3354  0.0981 -0.6636
 8844SOL    HW138186   2.600   9.713   0.690  0.3734 -0.2526  1.5471
 8844SOL    HW238187   2.732   9.747   0.600 -1.6841  0.8244 -1.1105
 8845SOL     OW38188   9.078   5.750   2.742  0.2527  0.2490  0.1339
 8845SOL    HW138189   9.100   5.784   2.833 -2.5291  1.0563  0.5439
 8845SOL    HW238190   9.081   5.826   2.677  2.8355 -0.4342 -0.5986
 8846SOL     OW38191   7.283   8.836   6.662  0.3601 -0.0681  0.5083
 8846SOL    HW138192   7.360   8.793   6.614  0.0881  0.3518 -0.3183
 8846SOL    HW238193   7.260   8.922   6.616  0.5549  0.6948  1.8354
 8847SOL     OW38194   5.732   3.435   8.159 -0.6323  0.0019  0.3999
 8847SOL    HW138195   5.819   3.461   8.118 -0.2472 -1.7463  0.0580
 8847SOL    HW238196   5.738   3.443   8.258  0.6152 -2.0550  0.5201
 8848SOL     OW38197   7.376   5.796   4.992  0.2561 -0.4433  0.4929
 8848SOL    HW138198   7.457   5.855   4.993  0.2067 -0.3841  2.1677
 8848SOL    HW238199   7.294   5.852   5.007  0.0875 -0.7543  0.7387
 8849SOL     OW38200   6.333   8.291   3.754 -0.0207  0.5201  0.4596
 8849SOL    HW138201   6.378   8.247   3.676  0.4837  0.1136  0.9715
 8849SOL    HW238202   6.388   8.369   3.784 -1.5686  2.3181 -1.2586
 8850SOL     OW38203   2.600   8.631   3.273  0.2402 -0.3400  0.2896
 8850SOL    HW138204   2.641   8.603   3.360 -1.0877 -0.6474  0.8348
 8850SOL    HW238205   2.662   8.692   3.224  1.0747 -0.3149  1.3723
 8851SOL     OW38206   8.898   2.135   0.681  0.1352  0.1831  0.7770
 8851SOL    HW138207   8.867   2.229   0.675 -2.6222 -0.7916 -1.1793
 8851SOL    HW238208   8.968   2.118   0.611 -0.3449  0.4320  0.2351
 8852SOL     OW38209   0.955   7.833   0.261 -0.3507  0.1755  0.6494
 8852SOL    HW138210   1.011   7.769   0.208  0.2551 -0.0099  1.5063
 8852SOL    HW238211   0.953   7.804   0.357 -1.2488  0.6413  0.7813
 8853SOL     OW38212   7.950   6.411   5.479 -0.9778  0.0767 -0.6163
 8853SOL    HW138213   7.974   6.322   5.439 -1.5639  0.4308 -1.7921
 8853SOL    HW238214   7.923   6.398   5.575 -0.0685 -0.8668 -0.4821
 8854SOL     OW38215   8.773   4.456   6.327 -0.4881 -0.1801 -0.0020
 8854SOL    HW138216   8.722   4.379   6.365  0.9846 -0.0681  2.3355
 8854SOL    HW238217   8.858   4.422   6.286 -0.8130 -0.0140 -0.8185
 8855SOL     OW38218   8.526   0.510   0.530  0.3369  0.4228 -0.2048
 8855SOL    HW138219   8.452   0.527   0.465  1.9837  0.0892 -2.1988
 8855SOL    HW238220   8.581   0.433   0.499  1.2329  0.3263  1.5374
 8856SOL     OW38221   3.163   1.791   3.619  0.6344 -0.2631 -0.1283
 8856SOL    HW138222   3.146   1.805   3.521 -0.2715  1.4568  0.2566
 8856SOL    HW238223   3.115   1.861   3.672  2.3353 -0.2497  1.4794
 8857SOL     OW38224   0.135   4.513   7.557 -0.5734  0.0999  0.0698
 8857SOL    HW138225   0.137   4.497   7.459 -1.7110 -0.9308  0.2000
 8857SOL    HW238226   0.202   4.583   7.581 -0.1347  0.1983 -1.4036
 8858SOL     OW38227   8.098   4.469   7.211 -0.3920 -0.3117 -0.0043
 8858SOL    HW138228   8.108   4.383   7.261 -1.4542 -1.0714 -1.0740
 8858SOL    HW238229   8.101   4.451   7.113  0.4617  1.0184 -0.2410
 8859SOL     OW38230   3.467   1.029   5.239  0.1683  0.6215 -0.0218
 8859SOL    HW138231   3.561   1.016   5.206  0.2628 -0.9783  0.8330
 8859SOL    HW238232   3.405   0.971   5.187 -0.2071  0.9474  0.0616
 8860SOL     OW38233   0.517   8.011   7.485 -0.1809 -0.1679  0.5227
 8860SOL    HW138234   0.464   8.068   7.422 -2.4785 -0.8609  1.7488
 8860SOL    HW238235   0.516   7.916   7.454  1.4514  0.0228 -0.1350
 8861SOL     OW38236   0.781   4.706   1.145  0.2865 -0.2887  0.1149
 8861SOL    HW138237   0.814   4.676   1.056 -0.7783  0.1366 -0.4344
 8861SOL    HW238238   0.755   4.626   1.200 -0.9688 -0.4793 -0.7228
 8862SOL     OW38239   6.609   2.641   4.221  0.4788  0.1525 -0.3217
 8862SOL    HW138240   6.519   2.599   4.219  0.7321 -0.3481 -1.5130
 8862SOL    HW238241   6.613   2.718   4.157  1.0018 -0.0496 -0.5392
 8863SOL     OW38242   8.800   6.540   0.603 -0.0660  0.4718  0.1959
 8863SOL    HW138243   8.731   6.610   0.620  1.7544  2.5113 -0.5057
 8863SOL    HW238244   8.883   6.583   0.567  1.6126 -1.8877  1.0936
 8864SOL     OW38245   2.167   6.886   0.431  0.1485  0.2729  1.0447
 8864SOL    HW138246   2.169   6.913   0.335  4.2762 -1.1540  0.6174
 8864SOL    HW238247   2.105   6.808   0.443 -1.0408  0.9961 -0.2634
 8865SOL     OW38248   0.339   3.679   5.000  0.0697 -0.2352 -0.2294
 8865SOL    HW138249   0.338   3.580   4.987 -1.0896  0.0309 -2.3152
 8865SOL    HW238250   0.434   3.710   5.010  0.5605 -1.3291 -1.3413
 8866SOL     OW38251   3.469   1.143   4.845 -0.0018  0.7985  0.6587
 8866SOL    HW138252   3.568   1.154   4.845 -0.1364  2.1596  0.4978
 8866SOL    HW238253   3.439   1.103   4.759  0.4583 -0.1651  0.9443
 8867SOL     OW38254   7.940   1.469   8.174 -0.3619 -0.2599  0.2990
 8867SOL    HW138255   8.013   1.422   8.123  0.2568  0.6154  0.3750
 8867SOL    HW238256   7.943   1.439   8.269 -0.2317 -0.3727  0.2612
 8868SOL     OW38257   4.762   9.116   7.827 -0.4611 -0.1788  1.0334
 8868SOL    HW138258   4.776   9.208   7.862 -0.9531 -0.0388  0.8696
 8868SOL    HW238259   4.701   9.066   7.889 -1.8484  0.2746  0.0646
 8869SOL     OW38260   8.145   7.003   4.341  0.0623 -0.4102 -0.1577
 8869SOL    HW138261   8.195   6.943   4.278  0.6661  0.7933 -0.8330
 8869SOL    HW238262   8.197   7.087   4.355 -1.1641  0.2937  0.1728
 8870SOL     OW38263   3.180   2.802   2.145  0.4826 -0.2716  0.5890
 8870SOL    HW138264   3.280   2.803   2.135  0.4102 -0.7919 -0.1485
 8870SOL    HW238265   3.148   2.708   2.156 -0.0486 -0.2026 -0.3425
 8871SOL     OW38266   9.401   0.058   2.546  0.4781  0.1197  0.2213
 8871SOL    HW138267   9.347   0.033   2.626  1.6889 -0.9416  0.7295
 8871SOL    HW238268   9.373   0.147   2.513 -0.8402  0.0468  1.1241
 8872SOL     OW38269   5.901   0.653   0.447 -0.1750 -0.2159  0.0471
 8872SOL    HW138270   5.929   0.716   0.520 -1.1628 -0.2035  0.4213
 8872SOL    HW238271   5.820   0.603   0.476  0.4306 -1.4625 -0.3615
 8873SOL     OW38272   7.325   9.652   1.662  0.6318  0.3258  0.3220
 8873SOL    HW138273   7.364   9.572   1.616 -0.0856 -0.0645  0.3908
 8873SOL    HW238274   7.287   9.624   1.751 -1.5556  0.3366 -0.5924
 8874SOL     OW38275   4.271   2.614   0.738  1.2038  0.6654 -0.5225
 8874SOL    HW138276   4.342   2.680   0.761  1.8597 -0.2819  0.2099
 8874SOL    HW238277   4.181   2.659   0.744  1.7118  1.8066 -1.2424
 8875SOL     OW38278   9.262   0.099   4.968  0.0239 -0.9508 -0.7371
 8875SOL    HW138279   9.234   0.152   4.888  2.1830  1.4853  0.0593
 8875SOL    HW238280   9.214   0.133   5.049  1.2441 -0.3488 -0.2593
 8876SOL     OW38281   0.496   3.597   1.093 -0.3811  0.5787  0.0269
 8876SOL    HW138282   0.533   3.680   1.136  1.6500 -0.2286 -0.0763
 8876SOL    HW238283   0.443   3.546   1.161  0.3732  0.7653  0.7722
 8877SOL     OW38284   0.153   8.524   1.242 -0.3785  0.0694  0.1622
 8877SOL    HW138285   0.080   8.473   1.195 -0.1860  0.5337 -0.6520
 8877SOL    HW238286   0.159   8.616   1.202  1.5396 -0.4053 -0.6831
 8878SOL     OW38287   1.802   7.615   4.563  0.1240  0.4373 -0.3084
 8878SOL    HW138288   1.838   7.565   4.642 -2.7774 -0.4784  0.5104
 8878SOL    HW238289   1.825   7.712   4.572 -0.4267  0.3953  1.8490
 8879SOL     OW38290   3.623   9.022   0.114 -0.1466 -0.7034 -0.1343
 8879SOL    HW138291   3.541   9.016   0.171  0.0243  1.4375  0.3949
 8879SOL    HW238292   3.596   9.041   0.020 -0.3386 -2.1333 -0.3757
 8880SOL     OW38293   7.249   3.515   5.015  0.4162  0.6700  0.1255
 8880SOL    HW138294   7.203   3.577   4.952 -0.2869 -1.0097 -1.0479
 8880SOL    HW238295   7.183   3.448   5.050  1.3179  0.1212  0.7967
 8881SOL     OW38296   0.207   5.350   5.839  0.0275  0.3294 -0.1486
 8881SOL    HW138297   0.281   5.416   5.825 -0.5194  1.0653  0.4050
 8881SOL    HW238298   0.198   5.292   5.758  1.8960 -0.4520  0.1870
 8882SOL     OW38299   1.181   5.596   3.132 -0.0654  0.4149 -0.3747
 8882SOL    HW138300   1.214   5.529   3.199 -0.1095  1.2887  0.5361
 8882SOL    HW238301   1.087   5.620   3.153  0.2529  1.4785 -0.1042
 8883SOL     OW38302   8.015   1.387   5.402  0.4306  0.6386 -0.0919
 8883SOL    HW138303   7.958   1.459   5.443 -0.3022  0.1614 -0.2599
 8883SOL    HW238304   8.097   1.374   5.457  1.3619  2.7421 -0.9534
 8884SOL     OW38305   3.699   4.851   6.183 -0.3176 -0.1361 -0.1758
 8884SOL    HW138306   3.623   4.808   6.233  0.3595 -0.8002  0.2854
 8884SOL    HW238307   3.698   4.950   6.200 -1.7321  0.0183 -1.0471
 8885SOL     OW38308   3.815   3.241   6.378 -0.4226  0.2415 -0.4347
 8885SOL    HW138309   3.886   3.193   6.327 -0.8343 -1.4388  0.5243
 8885SOL    HW238310   3.730   3.240   6.326 -0.6174 -0.7188 -0.1097
 8886SOL     OW38311   8.310   2.302   4.185  0.3246 -0.3970  0.3709
 8886SOL    HW138312   8.228   2.345   4.224  0.0944 -1.4479  1.0640
 8886SOL    HW238313   8.391   2.341   4.229  0.2797  1.4503 -1.0983
 8887SOL     OW38314   4.403   1.437   2.443 -0.2529 -0.1923  0.1251
 8887SOL    HW138315   4.410   1.532   2.471  1.0514 -0.2073 -0.1314
 8887SOL    HW238316   4.490   1.390   2.460 -0.5179 -1.0470 -0.8025
 8888SOL     OW38317   0.198   1.322   6.727 -0.3225  0.3710  0.7607
 8888SOL    HW138318   0.272   1.289   6.786  0.4147 -0.6241 -0.6713
 8888SOL    HW238319   0.200   1.422   6.723  0.5912  0.3763  1.1950
 8889SOL     OW38320   2.528   0.910   3.563 -0.1900 -0.2010  0.1062
 8889SOL    HW138321   2.466   0.979   3.599  1.2968  0.9854  0.4468
 8889SOL    HW238322   2.524   0.828   3.620 -1.6337 -0.2465 -0.0420
 8890SOL     OW38323   0.813   7.045   7.377 -0.2490 -0.4160 -0.1019
 8890SOL    HW138324   0.714   7.039   7.360 -0.1976  0.3878 -0.6823
 8890SOL    HW238325   0.832   7.121   7.438  0.0123 -0.5973  0.0446
 8891SOL     OW38326   7.982   4.566   8.136 -0.0504 -0.3407 -0.2646
 8891SOL    HW138327   8.049   4.504   8.178 -0.0962 -0.9812 -1.1291
 8891SOL    HW238328   7.919   4.513   8.079  0.2971  0.5774 -1.5219
 8892SOL     OW38329   8.642   5.902   1.366 -0.0869  0.6134 -0.1488
 8892SOL    HW138330   8.593   5.966   1.306  0.4868  1.5847  0.4070
 8892SOL    HW238331   8.699   5.841   1.310 -1.3231 -0.0094 -0.7387
 8893SOL     OW38332   8.520   3.441   3.690  0.5645 -0.9266  0.1190
 8893SOL    HW138333   8.567   3.528   3.671 -0.6974 -0.1105  0.6655
 8893SOL    HW238334   8.573   3.366   3.651  1.5830  0.1024 -0.5312
 8894SOL     OW38335   4.871   2.822   5.930  0.3237  0.0294  0.0084
 8894SOL    HW138336   4.906   2.900   5.982  0.3385 -0.3379  0.5549
 8894SOL    HW238337   4.777   2.840   5.902  0.3515  0.2726  0.0643
 8895SOL     OW38338   5.793   7.844   2.169 -0.2612 -0.3086 -0.0280
 8895SOL    HW138339   5.759   7.928   2.128 -2.0966 -1.3926 -0.7789
 8895SOL    HW238340   5.716   7.786   2.196  0.9493 -1.1032  1.8735
 8896SOL     OW38341   0.399   8.715   5.974  0.8436 -0.4388 -0.5887
 8896SOL    HW138342   0.402   8.698   5.876 -0.1180 -1.3569 -0.4637
 8896SOL    HW238343   0.321   8.774   5.996  3.8312  3.8604 -0.9507
 8897SOL     OW38344   1.108   4.420   4.546  0.6153 -0.1230 -0.2771
 8897SOL    HW138345   1.188   4.391   4.493  0.6232 -0.8862  0.1590
 8897SOL    HW238346   1.129   4.505   4.593  1.3556 -0.6087  0.2741
 8898SOL     OW38347   1.374   5.361   6.079 -0.8956  0.7753  0.2471
 8898SOL    HW138348   1.421   5.352   6.166 -0.7152  0.6064  0.1309
 8898SOL    HW238349   1.291   5.416   6.092 -0.0100  2.1347  0.2099
 8899SOL     OW38350   8.659   6.469   3.873 -0.1899  0.0664 -0.7115
 8899SOL    HW138351   8.677   6.381   3.917 -0.4314  0.1051 -0.5385
 8899SOL    HW238352   8.604   6.527   3.933 -2.0811 -0.5650 -1.8109
 8900SOL     OW38353   7.426   5.965   0.151  0.0120  0.4593 -0.2050
 8900SOL    HW138354   7.480   6.027   0.207  0.6133  0.9985 -1.3486
 8900SOL    HW238355   7.389   5.891   0.207  2.8916 -0.5552  0.4038
 8901SOL     OW38356   1.200   9.821   0.208 -0.0531 -0.0040 -0.3686
 8901SOL    HW138357   1.282   9.860   0.168  0.8287 -1.6070 -0.1355
 8901SOL    HW238358   1.197   9.723   0.191 -0.8593 -0.3151  1.4018
 8902SOL     OW38359   1.254   7.653   1.359 -0.2688  0.2005 -0.0327
 8902SOL    HW138360   1.156   7.636   1.348 -0.3268  0.0254  0.7265
 8902SOL    HW238361   1.306   7.586   1.306 -0.5567  0.3824 -0.5540
 8903SOL     OW38362   4.376   8.634   4.935 -0.3697 -0.8853  0.3954
 8903SOL    HW138363   4.277   8.635   4.921 -0.4220 -0.1092  0.8300
 8903SOL    HW238364   4.404   8.715   4.986  0.7714 -0.0257 -1.5517
 8904SOL     OW38365   5.638   1.053   4.367 -0.1417  0.0965  0.1034
 8904SOL    HW138366   5.621   1.005   4.281 -0.3540  3.4611 -1.8659
 8904SOL    HW238367   5.550   1.082   4.406  0.0268 -0.3002  0.7763
 8905SOL     OW38368   1.137   7.544   7.034 -0.0072  0.3669  0.4321
 8905SOL    HW138369   1.198   7.619   7.008  0.8720 -0.7240 -0.7045
 8905SOL    HW238370   1.150   7.467   6.971 -0.8346 -0.7739  1.6311
 8906SOL     OW38371   9.871   7.829   4.382 -0.1916 -0.0368  0.0363
 8906SOL    HW138372   9.820   7.860   4.462 -0.0042  0.6697 -0.1141
 8906SOL    HW238373   9.966   7.813   4.407 -0.8683 -3.1427  0.7456
 8907SOL     OW38374   6.626   0.670   2.840  0.0542  0.7181 -0.6492
 8907SOL    HW138375   6.589   0.609   2.910 -0.7119  1.4815 -0.3759
 8907SOL    HW238376   6.693   0.731   2.882  1.1750 -0.2536 -1.0197
 8908SOL     OW38377   8.044   1.648   3.091 -0.2512  0.1997  0.2318
 8908SOL    HW138378   7.990   1.610   3.166  1.0478 -1.6528  0.2746
 8908SOL    HW238379   8.141   1.631   3.108 -0.0528 -2.1774 -2.8488
 8909SOL     OW38380   6.682   0.038   3.437  0.2870  0.3115 -0.2382
 8909SOL    HW138381   6.721   0.018   3.527  1.3428  1.3949 -0.4419
 8909SOL    HW238382   6.605   0.101   3.446  0.2300  0.2183 -0.0790
 8910SOL     OW38383   1.669   7.613   6.598  0.0461  0.8609  0.4519
 8910SOL    HW138384   1.761   7.631   6.634  0.6104 -2.4925  0.8618
 8910SOL    HW238385   1.676   7.562   6.512 -1.4102 -0.4389  1.0753
 8911SOL     OW38386   3.269   1.649   0.213  0.6339  0.2419 -0.2368
 8911SOL    HW138387   3.222   1.571   0.255  0.5314 -0.0517 -0.8921
 8911SOL    HW238388   3.357   1.620   0.177 -0.1811  0.0137 -2.1006
 8912SOL     OW38389   9.617   4.636   5.032  0.2074 -0.1980 -0.5807
 8912SOL    HW138390   9.696   4.636   5.094  0.5531  0.1976 -1.0180
 8912SOL    HW238391   9.649   4.645   4.938 -0.3687  0.0475 -0.7536
 8913SOL     OW38392   2.284   3.978   6.552  0.8309  0.0600  0.0875
 8913SOL    HW138393   2.324   4.068   6.572  2.5026 -0.5492 -0.4057
 8913SOL    HW238394   2.240   3.942   6.634  0.6704  1.0689  0.4526
 8914SOL     OW38395   2.563   9.106   1.542  0.5895  0.1830 -0.2314
 8914SOL    HW138396   2.657   9.117   1.574  0.4500 -0.8035  0.5727
 8914SOL    HW238397   2.502   9.095   1.621 -0.0021 -0.5653 -0.7843
 8915SOL     OW38398   2.406   2.902   1.041  0.4482  0.7209 -0.0347
 8915SOL    HW138399   2.418   2.988   1.090 -0.4191  0.5705  0.4426
 8915SOL    HW238400   2.315   2.865   1.060 -0.2322  1.0640 -2.3691
 8916SOL     OW38401   2.690   2.712   1.686  0.3546 -0.2379 -0.0407
 8916SOL    HW138402   2.713   2.653   1.763 -1.0281 -0.7186  0.0115
 8916SOL    HW238403   2.758   2.785   1.679  1.4846 -1.2198  0.5285
 8917SOL     OW38404   1.599   3.027   1.788 -0.4847 -0.2387  0.0964
 8917SOL    HW138405   1.508   3.036   1.829  0.1590  2.1348  1.0983
 8917SOL    HW238406   1.646   3.115   1.793  1.8806 -1.4427 -0.4044
 8918SOL     OW38407   3.174   5.129   5.475 -0.2733  0.2006 -0.0818
 8918SOL    HW138408   3.170   5.216   5.427  0.1307  0.0942 -0.3114
 8918SOL    HW238409   3.224   5.062   5.420 -2.8362 -0.9462 -1.0798
 8919SOL     OW38410   2.155   4.987   5.142 -0.3941  0.4004  0.6981
 8919SOL    HW138411   2.221   4.918   5.113 -0.5602  1.2639 -1.8497
 8919SOL    HW238412   2.167   5.070   5.088 -3.8861  0.4003 -0.2441
 8920SOL     OW38413   2.869   2.957   1.687 -0.6341  0.0490  0.0224
 8920SOL    HW138414   2.967   2.971   1.679 -0.5217 -1.0601 -0.5047
 8920SOL    HW238415   2.837   2.997   1.773  0.3158  0.1759  0.3202
 8921SOL     OW38416   7.105   9.998   2.979  0.3069 -0.0208  0.6398
 8921SOL    HW138417   7.098  10.069   3.050  0.2381 -1.0877  1.7050
 8921SOL    HW238418   7.016   9.954   2.968 -0.1966  1.4102 -1.4671
 8922SOL     OW38419   5.652   1.798   6.128  0.3549  0.3696 -0.0032
 8922SOL    HW138420   5.648   1.797   6.028 -1.9515  1.9672  0.0345
 8922SOL    HW238421   5.739   1.838   6.157  0.0623  2.1214 -1.4130
 8923SOL     OW38422   1.603   4.409   7.668  0.1300 -0.6259  0.0658
 8923SOL    HW138423   1.634   4.318   7.643  1.2166 -0.1343 -0.3985
 8923SOL    HW238424   1.506   4.405   7.694 -0.1861 -1.6700 -1.2080
 8924SOL     OW38425   0.181   1.462   3.741 -0.4851  0.4038 -0.1502
 8924SOL    HW138426   0.270   1.505   3.760 -0.0114 -0.6719  0.1307
 8924SOL    HW238427   0.152   1.411   3.822 -0.2515 -1.1463 -1.0237
 8925SOL     OW38428   8.161   1.000   5.473  0.2105 -0.2801  0.1348
 8925SOL    HW138429   8.233   1.069   5.483 -0.5982  0.4569  0.9783
 8925SOL    HW238430   8.172   0.954   5.385  0.1146  1.7113 -0.9626
 8926SOL     OW38431   6.253   1.369   7.711 -0.6155  0.9154  0.2344
 8926SOL    HW138432   6.221   1.279   7.742 -0.9881  0.8975 -0.1993
 8926SOL    HW238433   6.307   1.411   7.784 -0.7125  0.4804  0.5655
 8927SOL     OW38434   8.077   8.702   1.076 -0.1901 -0.2285 -0.3724
 8927SOL    HW138435   8.059   8.785   1.129 -0.8661 -0.0767 -0.8300
 8927SOL    HW238436   8.105   8.628   1.137  2.4918  0.8992 -0.1854
 8928SOL     OW38437   0.686   6.378   0.995 -0.4099 -0.0050  0.2695
 8928SOL    HW138438   0.662   6.348   0.903  1.3346  1.2094 -0.6199
 8928SOL    HW238439   0.771   6.333   1.024  0.1021  1.0733  0.4942
 8929SOL     OW38440   2.794   0.261   7.013 -0.0561  0.0581 -0.2229
 8929SOL    HW138441   2.740   0.330   6.964 -0.4730  0.6364  1.0066
 8929SOL    HW238442   2.874   0.305   7.053 -0.1627 -0.2243  0.3110
 8930SOL     OW38443   1.208   4.660   5.115  0.6254 -0.3200  0.1188
 8930SOL    HW138444   1.281   4.729   5.113  1.3091 -1.0751 -1.8157
 8930SOL    HW238445   1.137   4.689   5.180  0.1384  2.9996 -1.7875
 8931SOL     OW38446   8.354   6.066   3.876 -0.0046 -0.0791 -0.5619
 8931SOL    HW138447   8.305   6.022   3.951  1.8057 -1.9623 -0.4126
 8931SOL    HW238448   8.367   6.163   3.897 -3.0522  0.3153 -0.3416
 8932SOL     OW38449   3.593   0.891   7.086 -0.0452 -0.2813  0.5795
 8932SOL    HW138450   3.569   0.963   7.150  0.5045  1.5772 -1.2491
 8932SOL    HW238451   3.681   0.913   7.042 -1.2159 -0.6206 -2.0300
 8933SOL     OW38452   2.246   9.409   1.209  0.4400  0.4340 -0.3793
 8933SOL    HW138453   2.291   9.396   1.120 -0.0020  0.0516 -0.5479
 8933SOL    HW238454   2.163   9.464   1.196 -0.3666 -0.7921 -0.4073
 8934SOL     OW38455   6.965   0.361   1.105 -0.1706 -0.2230 -0.2996
 8934SOL    HW138456   7.019   0.413   1.171 -0.9838 -0.7605  0.8230
 8934SOL    HW238457   7.018   0.281   1.075 -0.3784 -0.8479  0.9334
 8935SOL     OW38458   3.597   2.986   5.791 -0.0498 -0.2149  0.2058
 8935SOL    HW138459   3.673   3.050   5.805  0.3358 -0.4559 -0.7886
 8935SOL    HW238460   3.521   3.012   5.851 -0.0508  1.4212 -0.4637
 8936SOL     OW38461   1.788   1.507   6.327 -0.5275 -0.1228 -0.0888
 8936SOL    HW138462   1.853   1.443   6.368 -0.9561  0.1639  1.0826
 8936SOL    HW238463   1.810   1.521   6.231  0.1693 -1.2600 -0.1022
 8937SOL     OW38464   8.266   3.403   8.024  0.3988  0.0800 -0.2998
 8937SOL    HW138465   8.342   3.338   8.029  1.1989  0.9712 -0.6405
 8937SOL    HW238466   8.288   3.474   7.956 -0.8249  0.2310 -0.5413
 8938SOL     OW38467   9.445   9.556   5.183  0.0613  0.5120 -0.1334
 8938SOL    HW138468   9.444   9.457   5.189 -0.7569  0.5558  0.4565
 8938SOL    HW238469   9.511   9.593   5.249  1.6911  0.2866 -1.5948
 8939SOL     OW38470   7.981   1.887   1.889 -0.4620 -0.1191 -0.4443
 8939SOL    HW138471   8.048   1.937   1.945  1.4837 -2.5972 -0.4691
 8939SOL    HW238472   7.972   1.932   1.800 -1.1943  2.0309  0.6843
 8940SOL     OW38473   2.322   6.092   0.561 -0.4178  0.1177  0.1531
 8940SOL    HW138474   2.399   6.123   0.617 -0.8648  1.0205  0.2711
 8940SOL    HW238475   2.291   6.166   0.502 -1.1056 -0.2814  0.0038
 8941SOL     OW38476   8.213   7.442   7.057 -0.2876 -0.3636 -0.5722
 8941SOL    HW138477   8.180   7.477   6.969 -1.4036 -0.1505 -0.0772
 8941SOL    HW238478   8.239   7.346   7.047  1.6344  0.2300 -1.6421
 8942SOL     OW38479   0.122   7.243   0.580 -0.4079  0.4851 -0.0352
 8942SOL    HW138480   0.167   7.277   0.497 -0.1587  1.4993  0.5034
 8942SOL    HW238481   0.083   7.321   0.630 -1.2028 -0.1986  0.4192
 8943SOL     OW38482   4.921   2.275   3.448  0.4624  0.5453 -0.4759
 8943SOL    HW138483   4.866   2.359   3.457 -0.5846  0.1837 -3.0652
 8943SOL    HW238484   5.016   2.299   3.429  0.1385  1.1668 -1.3419
 8944SOL     OW38485   7.916   2.926   3.143  0.6410 -0.2651 -0.0324
 8944SOL    HW138486   7.897   2.828   3.138  0.9049 -0.4347  1.7047
 8944SOL    HW238487   8.015   2.941   3.137  0.7687 -0.2939  1.5331
 8945SOL     OW38488   8.848   1.736   0.191  0.1544  0.0371 -0.5499
 8945SOL    HW138489   8.942   1.729   0.160 -0.0547 -0.6314 -1.0516
 8945SOL    HW238490   8.840   1.811   0.257  1.4190 -1.1447  0.9673
 8946SOL     OW38491   0.422   5.105   7.660  0.0839  0.4132 -0.3740
 8946SOL    HW138492   0.497   5.166   7.688 -0.7895  0.7330  1.3636
 8946SOL    HW238493   0.365   5.151   7.593 -0.3354  1.3715  0.6256
 8947SOL     OW38494   2.348   5.519   2.194  0.3385  0.6596  0.1153
 8947SOL    HW138495   2.442   5.486   2.203 -0.3984 -1.8937 -1.1762
 8947SOL    HW238496   2.294   5.487   2.272  0.8528  3.4090  1.6590
 8948SOL     OW38497   6.297   6.637   5.249 -0.3029 -0.0385  0.5035
 8948SOL    HW138498   6.333   6.610   5.338 -0.9224 -1.5554  0.3149
 8948SOL    HW238499   6.372   6.643   5.183  0.1396  0.9834  1.0858
 8949SOL     OW38500   8.996   9.716   2.302 -0.6625  0.1806  0.1519
 8949SOL    HW138501   9.032   9.775   2.375  0.8481 -0.7899  0.2255
 8949SOL    HW238502   9.003   9.621   2.331 -3.5636 -0.0257  0.2469
 8950SOL     OW38503   8.695   2.106   4.103 -0.0069  0.3939  0.6974
 8950SOL    HW138504   8.751   2.023   4.102 -0.0485  0.3722 -0.4135
 8950SOL    HW238505   8.679   2.137   4.009 -0.3304  1.4345  1.0865
 8951SOL     OW38506   4.312   9.253   0.191 -0.1207 -0.1780 -0.6961
 8951SOL    HW138507   4.255   9.328   0.225  0.5221 -0.0349  0.0849
 8951SOL    HW238508   4.364   9.285   0.111 -1.3815 -0.4161 -1.6296
 8952SOL     OW38509   8.820   8.652   1.402 -0.3731 -0.0397 -0.3781
 8952SOL    HW138510   8.812   8.654   1.501 -0.5690 -1.4615 -0.3557
 8952SOL    HW238511   8.877   8.574   1.374  2.0367  1.9708 -1.2492
 8953SOL     OW38512   0.746   4.628   3.992 -0.6306  0.5321  0.2167
 8953SOL    HW138513   0.691   4.619   4.075 -1.6704 -1.9162 -0.6804
 8953SOL    HW238514   0.843   4.635   4.017 -0.9326 -0.1605  1.6434
 8954SOL     OW38515   1.929   1.206   0.002 -0.6061  0.4951  0.3172
 8954SOL    HW138516   2.019   1.219  -0.038 -0.5400  2.9040  1.2185
 8954SOL    HW238517   1.916   1.109   0.024  0.5664 -0.3677 -2.5948
 8955SOL     OW38518   6.923   3.091   0.085  0.4731  0.4308  0.1933
 8955SOL    HW138519   6.954   3.110   0.178 -0.8468  0.3219  0.6693
 8955SOL    HW238520   6.909   3.176   0.036  0.4579  0.5062  0.3290
 8956SOL     OW38521   6.911   4.944   1.272 -0.1587 -0.1564 -0.0078
 8956SOL    HW138522   6.883   4.947   1.176 -0.1570 -0.4849 -0.0180
 8956SOL    HW238523   6.860   4.873   1.320  0.3144 -0.4409  0.0815
 8957SOL     OW38524   3.112   4.957   8.114  0.2038  0.0996  0.0031
 8957SOL    HW138525   3.045   5.001   8.054 -0.2712  0.1760  0.5787
 8957SOL    HW238526   3.097   4.859   8.115 -1.3775  0.3156  1.8737
 8958SOL     OW38527   4.980   0.335   2.672  0.6212  0.2331 -0.1895
 8958SOL    HW138528   5.031   0.257   2.708  3.2445  1.6594 -0.7276
 8958SOL    HW238529   4.967   0.403   2.743 -0.4605 -0.0794 -0.0820
 8959SOL     OW38530   0.726   3.955   3.621 -0.3885  0.0913 -0.4896
 8959SOL    HW138531   0.743   4.043   3.664  2.4105 -0.5324 -0.2151
 8959SOL    HW238532   0.807   3.926   3.571 -0.7458 -2.9247  0.5534
 8960SOL     OW38533   1.832   3.691   3.576 -0.6441  0.1735  0.4234
 8960SOL    HW138534   1.863   3.612   3.523 -0.2777 -0.1109  1.0603
 8960SOL    HW238535   1.754   3.733   3.530 -0.3039 -0.0454 -0.3698
 8961SOL     OW38536   7.728   6.657   2.394  1.1818  0.2417 -0.2429
 8961SOL    HW138537   7.739   6.558   2.390  0.6016  0.2234 -2.1183
 8961SOL    HW238538   7.776   6.698   2.316  0.6323  1.3506 -0.0011
 8962SOL     OW38539   3.501   3.168   5.469 -0.4712  0.2919  0.1505
 8962SOL    HW138540   3.533   3.230   5.540  1.1641  0.0040 -0.3149
 8962SOL    HW238541   3.402   3.154   5.478 -0.4201  0.9740  1.7863
 8963SOL     OW38542   3.756   8.305   4.404 -0.5390  0.2857 -0.4962
 8963SOL    HW138543   3.753   8.319   4.503  0.5931  1.9454 -0.6711
 8963SOL    HW238544   3.685   8.241   4.377 -0.9583 -0.0660  1.3759
 8964SOL     OW38545   8.380   4.816   5.292 -0.3090 -0.3540 -0.0540
 8964SOL    HW138546   8.424   4.853   5.210 -0.6531 -2.7358 -1.3315
 8964SOL    HW238547   8.283   4.804   5.276 -0.5134 -0.1318  0.9735
 8965SOL     OW38548   9.776   0.100   2.335 -1.1744 -0.2170  0.0951
 8965SOL    HW138549   9.744   0.195   2.327 -1.5597 -0.3731 -0.1823
 8965SOL    HW238550   9.759   0.067   2.428  0.1691  0.4271  0.5914
 8966SOL     OW38551   3.401   7.116   3.972  0.1604 -0.4932  0.7027
 8966SOL    HW138552   3.351   7.145   3.891  0.3856  1.7595  1.3302
 8966SOL    HW238553   3.489   7.076   3.945  0.3206  0.4410 -0.1605
 8967SOL     OW38554   9.300   7.680   5.913 -0.7608 -0.1566 -0.5977
 8967SOL    HW138555   9.330   7.764   5.959  0.8973 -0.2178 -1.5161
 8967SOL    HW238556   9.277   7.611   5.981  1.4604 -0.1742  0.1604
 8968SOL     OW38557   2.089   8.748   6.618 -0.1976  0.2737  0.1916
 8968SOL    HW138558   2.111   8.821   6.683  0.8200 -0.9334  1.2080
 8968SOL    HW238559   2.115   8.777   6.526 -1.7921  2.0555  0.2478
 8969SOL     OW38560   2.709   3.943   3.643 -0.4011  0.2407 -0.1345
 8969SOL    HW138561   2.617   3.944   3.683 -0.0978  0.5745  0.5600
 8969SOL    HW238562   2.714   4.011   3.570 -0.1397  1.5947  1.1212
 8970SOL     OW38563   2.477   5.382   5.035 -0.3973 -0.0199 -0.0070
 8970SOL    HW138564   2.502   5.464   5.087  1.2100  0.2383 -1.1370
 8970SOL    HW238565   2.448   5.310   5.098 -0.1116  0.8513  1.1296
 8971SOL     OW38566   8.442   1.937   2.454  0.9148 -0.1439 -0.2432
 8971SOL    HW138567   8.527   1.925   2.403  1.7175  1.3288  0.7156
 8971SOL    HW238568   8.450   1.891   2.542 -0.0275 -1.6794 -0.9502
 8972SOL     OW38569   8.408   3.296   7.625 -0.1462  0.4219 -0.1061
 8972SOL    HW138570   8.357   3.220   7.667 -1.2056 -0.0680 -2.2027
 8972SOL    HW238571   8.496   3.262   7.591 -0.1206  0.3838 -0.0002
 8973SOL     OW38572   3.623   2.737   3.224  0.1191 -0.0143 -0.2731
 8973SOL    HW138573   3.588   2.650   3.259  0.2970 -0.8269 -2.0679
 8973SOL    HW238574   3.547   2.800   3.208 -0.0741 -0.1032  0.2679
 8974SOL     OW38575   4.921   8.348   5.557 -0.0208  0.3553  0.2740
 8974SOL    HW138576   4.865   8.265   5.566 -0.7422  0.9538  1.4465
 8974SOL    HW238577   4.944   8.362   5.461 -0.8567 -0.5803 -0.0732
 8975SOL     OW38578   0.613   3.200   7.692 -0.2311  0.1531 -0.0107
 8975SOL    HW138579   0.624   3.124   7.628  0.0646  0.6908 -0.6070
 8975SOL    HW238580   0.516   3.221   7.701 -0.4653 -1.5404  1.6426
 8976SOL     OW38581   3.951   0.830   0.114 -0.3259  0.2286 -0.9942
 8976SOL    HW138582   3.867   0.874   0.147 -0.1610  1.0947 -1.7336
 8976SOL    HW238583   4.024   0.842   0.181 -0.0578  1.7776 -1.5517
 8977SOL     OW38584   4.601   6.670   3.530 -0.5508 -0.1837 -0.1542
 8977SOL    HW138585   4.542   6.716   3.463 -2.8961 -1.3535  1.0582
 8977SOL    HW238586   4.637   6.737   3.594  0.0555  0.6571 -1.3622
 8978SOL     OW38587   3.958   8.806   1.117 -0.0009  0.2560 -0.5002
 8978SOL    HW138588   4.024   8.833   1.047  0.5597 -1.6247 -0.7235
 8978SOL    HW238589   3.885   8.751   1.074  1.0192 -1.9886  0.5618
 8979SOL     OW38590   9.859   9.202   4.125 -0.0834 -0.5229 -0.4273
 8979SOL    HW138591   9.778   9.156   4.161  0.1484 -0.7428 -0.1846
 8979SOL    HW238592   9.904   9.254   4.198  0.1807 -0.6734 -0.4838
 8980SOL     OW38593   4.528   4.371   6.881 -0.6182  0.0282 -0.0620
 8980SOL    HW138594   4.619   4.404   6.856 -0.9367  0.6946 -0.3538
 8980SOL    HW238595   4.484   4.332   6.800 -1.7700  2.4636 -0.6590
 8981SOL     OW38596   2.780   0.884   4.944 -0.1531 -0.2032  0.2587
 8981SOL    HW138597   2.750   0.968   4.898 -0.0304 -1.1073 -1.4968
 8981SOL    HW238598   2.699   0.828   4.966 -0.2551  0.4629  1.6479
 8982SOL     OW38599   0.107   6.301   2.632 -0.6586 -0.4044  0.1136
 8982SOL    HW138600   0.204   6.317   2.655 -0.4605 -0.6668 -0.5424
 8982SOL    HW238601   0.101   6.252   2.545 -1.4326  1.1744 -0.7309
 8983SOL     OW38602   1.054   5.174   2.409 -0.4244  0.6080 -0.2368
 8983SOL    HW138603   1.063   5.230   2.492 -3.1847  0.8482 -0.0599
 8983SOL    HW238604   1.077   5.079   2.431  1.0189  1.0452  0.2480
 8984SOL     OW38605   9.116   0.975   2.478 -0.1217 -0.5342 -0.0255
 8984SOL    HW138606   9.061   0.977   2.395  0.3634  0.3279 -0.3388
 8984SOL    HW238607   9.096   0.892   2.530  1.0876 -2.1418 -2.0362
 8985SOL     OW38608   1.949   8.288   6.856  0.0748 -0.2037  0.1618
 8985SOL    HW138609   1.884   8.362   6.870 -0.9050 -1.4754  2.7389
 8985SOL    HW238610   1.946   8.258   6.760 -1.0841  1.6106 -0.3882
 8986SOL     OW38611   7.906   4.048   7.406  0.0007 -0.4640 -0.0254
 8986SOL    HW138612   7.832   3.980   7.406  0.3339 -0.8482  1.1055
 8986SOL    HW238613   7.979   4.016   7.467  0.9336  0.0867 -0.8514
 8987SOL     OW38614   0.770   8.186   8.123 -0.0164 -0.0941  0.5428
 8987SOL    HW138615   0.832   8.110   8.103 -0.4858 -0.8372  1.8816
 8987SOL    HW238616   0.789   8.221   8.215 -0.5979  0.6408  0.3864
 8988SOL     OW38617   4.150   9.183   6.816 -0.6517  0.0328  0.1936
 8988SOL    HW138618   4.113   9.091   6.821 -1.6196  0.5068  2.3846
 8988SOL    HW238619   4.082   9.244   6.775 -0.4725 -0.0016 -0.1536
 8989SOL     OW38620   3.127   9.596   8.138 -0.9794 -0.0271  0.3611
 8989SOL    HW138621   3.113   9.575   8.042  1.4639  1.2787 -0.3138
 8989SOL    HW238622   3.202   9.540   8.174  0.5793  2.0533  0.4895
 8990SOL     OW38623   3.344   1.956   7.750  0.2325 -0.4102 -0.5667
 8990SOL    HW138624   3.290   1.879   7.784 -1.1953  0.2591 -1.2518
 8990SOL    HW238625   3.282   2.026   7.714  1.5917  0.1479 -1.8617
 8991SOL     OW38626   9.244   4.443   6.859 -0.2808  0.4286 -0.3165
 8991SOL    HW138627   9.171   4.439   6.790  1.4277  0.9395 -2.1998
 8991SOL    HW238628   9.291   4.355   6.863 -1.1532 -0.0015  1.1246
 8992SOL     OW38629   2.436   1.919   4.258  0.4860  0.1814  0.3465
 8992SOL    HW138630   2.414   1.924   4.355 -0.4963  0.8822  0.1045
 8992SOL    HW238631   2.502   1.846   4.241 -0.5641 -1.0119  1.3192
 8993SOL     OW38632   3.116   7.335   1.971  0.1140 -0.3569 -0.3298
 8993SOL    HW138633   3.200   7.377   1.935  0.4947 -1.2909 -0.5298
 8993SOL    HW238634   3.109   7.241   1.939 -0.8487 -0.3873 -0.0394
 8994SOL     OW38635   5.415   4.284   8.013 -0.1510 -0.2495 -0.5007
 8994SOL    HW138636   5.368   4.246   7.932 -0.8530  0.3074 -0.3677
 8994SOL    HW238637   5.353   4.279   8.092  0.6023 -0.9573  0.0445
 8995SOL     OW38638   3.450   0.020   1.209 -0.3685 -0.8508 -0.1045
 8995SOL    HW138639   3.401   0.094   1.256 -0.9457 -1.3027  0.0095
 8995SOL    HW238640   3.423  -0.068   1.248  0.9674 -1.0762  0.3486
 8996SOL     OW38641   3.983   1.457   0.562 -0.0975 -0.1230 -0.3280
 8996SOL    HW138642   4.013   1.362   0.568 -1.4975 -0.5607 -0.2420
 8996SOL    HW238643   4.059   1.514   0.530  1.3846 -0.9290  1.6695
 8997SOL     OW38644   0.816   6.176   6.988 -0.1913  0.7330  0.4839
 8997SOL    HW138645   0.742   6.186   7.055  0.4753 -0.4686  1.4262
 8997SOL    HW238646   0.873   6.098   7.013  0.4881  0.7025 -1.1077
 8998SOL     OW38647   9.790   8.572   2.652  0.1696  0.1496 -0.0704
 8998SOL    HW138648   9.739   8.558   2.737  0.1885  1.2765  0.1279
 8998SOL    HW238649   9.846   8.491   2.633 -0.2371 -0.3161  0.7087
 8999SOL     OW38650   8.974   1.117   1.096 -0.1561  0.0585  0.4302
 8999SOL    HW138651   8.976   1.076   1.187 -3.2800 -1.3897 -0.0839
 8999SOL    HW238652   8.999   1.048   1.028  1.9548  1.0783  0.1273
 9000SOL     OW38653   1.453   9.785   8.033  0.0076  0.0962 -0.5821
 9000SOL    HW138654   1.550   9.786   8.058 -0.3906  0.3165  1.0115
 9000SOL    HW238655   1.423   9.691   8.022 -0.3583 -0.1542  2.1119
 9001SOL     OW38656   7.456   5.422   6.952  0.2813  0.1672  0.2009
 9001SOL    HW138657   7.536   5.446   7.008 -0.6292  1.1963  1.0937
 9001SOL    HW238658   7.466   5.463   6.861  0.5324  0.7295  0.4753
 9002SOL     OW38659   9.497   3.165   1.825 -0.5994  0.3510  0.0452
 9002SOL    HW138660   9.440   3.131   1.751 -0.1696  1.4136 -0.7882
 9002SOL    HW238661   9.561   3.094   1.854 -0.6325  0.0052 -0.7387
 9003SOL     OW38662   8.175   0.865   6.887 -0.0008  0.5406 -0.3175
 9003SOL    HW138663   8.139   0.845   6.978 -0.4878  1.4841 -0.2963
 9003SOL    HW238664   8.138   0.799   6.821 -2.2254  1.7926 -0.3847
 9004SOL     OW38665   4.330   8.176   3.447  0.5377 -0.3247  0.1307
 9004SOL    HW138666   4.285   8.107   3.389 -1.2304 -0.1096  1.2167
 9004SOL    HW238667   4.344   8.139   3.539 -1.2117  1.0332  0.9711
 9005SOL     OW38668   9.560   4.973   4.989 -0.5167 -0.0206  0.6226
 9005SOL    HW138669   9.506   4.898   5.027  1.3863 -1.5379  0.4233
 9005SOL    HW238670   9.591   5.033   5.063 -0.0494 -0.7992  1.0705
 9006SOL     OW38671   7.267   7.520   3.607  0.5585  0.1192  0.2886
 9006SOL    HW138672   7.315   7.517   3.519  0.2935 -1.1928  0.1636
 9006SOL    HW238673   7.174   7.555   3.593  0.7814  0.6581  0.1743
 9007SOL     OW38674   0.888   1.610   6.157  0.0605  0.2622 -0.3623
 9007SOL    HW138675   0.972   1.625   6.104  1.0790  0.0786  1.1917
 9007SOL    HW238676   0.906   1.545   6.231 -1.8217 -0.8920 -0.8940
 9008SOL     OW38677   7.804   0.016   6.481  0.3288 -0.0258  0.0187
 9008SOL    HW138678   7.837   0.015   6.387 -0.1217 -1.0523 -0.1311
 9008SOL    HW238679   7.719   0.068   6.487 -0.4222 -1.1964 -0.4093
 9009SOL     OW38680   3.001   2.831   3.262  0.2894 -0.0581  0.2943
 9009SOL    HW138681   3.058   2.805   3.340  0.4199  2.2328  0.9818
 9009SOL    HW238682   2.944   2.909   3.287 -0.3364  0.1096 -1.6242
 9010SOL     OW38683   1.688   5.355   3.352  0.2637  0.2448  0.3324
 9010SOL    HW138684   1.753   5.411   3.404  1.5218 -0.3625 -0.5553
 9010SOL    HW238685   1.695   5.378   3.255  0.7759 -1.4221 -0.0423
 9011SOL     OW38686   9.117   7.484   6.688  0.2186 -0.4328 -0.3027
 9011SOL    HW138687   9.129   7.403   6.747 -0.1176  0.6269  1.2488
 9011SOL    HW238688   9.027   7.524   6.705  1.7206  2.2975  1.5407
 9012SOL     OW38689   9.014   9.520   5.198  0.1084  0.4449  0.2959
 9012SOL    HW138690   8.924   9.557   5.174 -0.2571  0.6673  1.9742
 9012SOL    HW238691   9.026   9.431   5.153 -1.5088 -0.2217  1.1472
 9013SOL     OW38692   8.483   6.333   7.519 -0.2463 -0.5036  0.1361
 9013SOL    HW138693   8.449   6.414   7.471  2.1939  0.4617  0.0008
 9013SOL    HW238694   8.440   6.251   7.479 -1.4338  0.5747 -0.8689
 9014SOL     OW38695   9.078   4.537   3.529 -0.3493 -0.0053 -0.0065
 9014SOL    HW138696   9.171   4.572   3.517 -1.0086  2.4272  1.5718
 9014SOL    HW238697   9.060   4.464   3.462  2.0583  0.7285 -1.4990
 9015SOL     OW38698   6.780   5.899   1.648  0.4401 -0.3911  0.0393
 9015SOL    HW138699   6.869   5.913   1.691  0.4561 -1.2357  0.3022
 9015SOL    HW238700   6.785   5.920   1.551  1.6171 -2.9018 -0.4930
 9016SOL     OW38701   3.380   7.727   1.783  0.1389 -0.5918 -0.1808
 9016SOL    HW138702   3.428   7.796   1.837  1.1963 -0.4257 -1.3167
 9016SOL    HW238703   3.286   7.719   1.815  0.1598  0.9985  0.3121
 9017SOL     OW38704   4.843   5.865   1.007  0.0189  0.5310  0.0740
 9017SOL    HW138705   4.797   5.791   0.957  1.0502  0.0108 -0.1227
 9017SOL    HW238706   4.785   5.894   1.083 -1.4587  1.1767 -1.2768
 9018SOL     OW38707   6.552   7.638   5.926  0.5110 -0.4220  0.0643
 9018SOL    HW138708   6.563   7.587   5.841  0.0448 -1.7901  0.8090
 9018SOL    HW238709   6.632   7.623   5.985  1.0911  0.9679 -0.3486
 9019SOL     OW38710   8.581   2.245   6.705 -0.2198 -0.3609 -0.0070
 9019SOL    HW138711   8.609   2.154   6.736  0.6987 -0.5559 -1.3421
 9019SOL    HW238712   8.544   2.239   6.612  1.9060  0.9064 -0.9835
 9020SOL     OW38713   9.967   8.208   2.883  0.4948 -0.2509 -0.3863
 9020SOL    HW138714   9.903   8.134   2.863  0.4548 -0.6192  1.0688
 9020SOL    HW238715   9.948   8.286   2.823 -0.4274 -0.8559 -0.8863
 9021SOL     OW38716   9.143   3.156   4.317  0.3658 -0.2303 -0.3099
 9021SOL    HW138717   9.238   3.125   4.318  0.8942  1.2851 -1.5212
 9021SOL    HW238718   9.094   3.112   4.242  0.4180 -0.1120 -0.4123
 9022SOL     OW38719   3.286   7.305   6.273  0.1131 -0.7865  0.0531
 9022SOL    HW138720   3.250   7.212   6.281  0.2614 -0.8795 -0.3711
 9022SOL    HW238721   3.312   7.338   6.364 -1.2701 -0.6257  0.4093
 9023SOL     OW38722   9.828   1.469   6.438  0.1821  0.2668  0.1845
 9023SOL    HW138723   9.918   1.484   6.479 -0.5668  0.2475  1.8697
 9023SOL    HW238724   9.795   1.378   6.462 -0.3183  0.2978 -0.3785
 9024SOL     OW38725   9.060   6.992   2.579  0.4593  0.1432 -0.2452
 9024SOL    HW138726   9.143   7.017   2.528 -0.8878 -1.1664 -3.2265
 9024SOL    HW238727   9.001   7.072   2.587  0.1396  0.1068 -1.9061
 9025SOL     OW38728   0.547   9.380   3.776  0.0317  0.3430  0.2599
 9025SOL    HW138729   0.620   9.445   3.797  0.5926  0.1437 -1.0026
 9025SOL    HW238730   0.553   9.354   3.679  1.0391 -3.1033  1.1720
 9026SOL     OW38731   2.510   0.998   5.839  0.4755 -0.2117  0.0109
 9026SOL    HW138732   2.487   1.095   5.834  1.0742 -0.0591  0.2366
 9026SOL    HW238733   2.446   0.952   5.901 -0.3347 -0.1251 -0.7394
 9027SOL     OW38734   9.428   6.750   0.492 -0.1908 -0.2102 -0.1445
 9027SOL    HW138735   9.452   6.834   0.443 -1.4629 -0.4126 -1.1457
 9027SOL    HW238736   9.418   6.771   0.589  1.5205  0.3659 -0.0619
 9028SOL     OW38737   5.194   0.409   5.382 -0.1821 -0.0470  0.4524
 9028SOL    HW138738   5.196   0.401   5.482  0.0785  0.7993  0.5210
 9028SOL    HW238739   5.223   0.323   5.341  0.4324 -0.1596  1.1177
 9029SOL     OW38740   2.645   5.639   2.905 -0.1678 -0.1139 -0.1531
 9029SOL    HW138741   2.599   5.622   2.817  0.1834  0.5561 -0.4635
 9029SOL    HW238742   2.742   5.617   2.896 -0.1543 -0.1621  0.1070
 9030SOL     OW38743   0.845   9.620   2.946 -0.3943 -0.4003 -0.7046
 9030SOL    HW138744   0.941   9.627   2.974 -0.2173 -0.0071 -1.3962
 9030SOL    HW238745   0.836   9.647   2.850 -0.8840 -2.3984 -1.2557
 9031SOL     OW38746   7.937   9.312   2.496  0.9773 -0.0708  0.1174
 9031SOL    HW138747   7.948   9.358   2.584  0.3736  1.6647 -0.6839
 9031SOL    HW238748   7.981   9.223   2.499  2.4915  0.6968  1.6205
 9032SOL     OW38749   5.955   0.198   0.798  0.6802  0.3420 -0.0037
 9032SOL    HW138750   6.031   0.133   0.802  0.1748 -0.1724  1.3588
 9032SOL    HW238751   5.936   0.234   0.889 -0.4364  0.7928 -0.3990
 9033SOL     OW38752   7.642   2.296   4.262  0.3126 -0.3135 -0.5292
 9033SOL    HW138753   7.625   2.389   4.231  1.0959  0.1445  0.3844
 9033SOL    HW238754   7.731   2.265   4.229  0.8123 -0.0974  0.5617
 9034SOL     OW38755   7.764   9.768   2.208  0.0855 -0.2932 -0.2537
 9034SOL    HW138756   7.698   9.826   2.159 -0.7548 -1.5668 -0.6790
 9034SOL    HW238757   7.855   9.808   2.202 -0.7555  1.8891  0.9781
 9035SOL     OW38758   0.213   4.182   3.608  0.2961  0.4636  0.3427
 9035SOL    HW138759   0.181   4.109   3.548  0.2157  1.1812 -0.5058
 9035SOL    HW238760   0.306   4.161   3.639  0.8586  0.6956 -1.1020
 9036SOL     OW38761   2.191   9.491   6.921 -0.0382 -0.0394  0.6882
 9036SOL    HW138762   2.176   9.552   6.842 -0.1286  1.7248  2.0336
 9036SOL    HW238763   2.145   9.530   7.001  0.4152 -1.6031  1.7121
 9037SOL     OW38764   7.883   5.804   6.472 -0.0697 -0.9326 -0.2691
 9037SOL    HW138765   7.793   5.796   6.430 -0.3837  0.9845 -0.0242
 9037SOL    HW238766   7.953   5.816   6.401 -0.8077  4.1656 -0.3285
 9038SOL     OW38767   4.190   0.342   4.972  0.0897  0.6412 -0.4308
 9038SOL    HW138768   4.261   0.395   5.017 -0.2961  1.1115 -0.3661
 9038SOL    HW238769   4.127   0.404   4.925 -0.9594  0.3138  0.5110
 9039SOL     OW38770   9.681   2.619   2.355  0.2146  0.1438 -0.1891
 9039SOL    HW138771   9.729   2.566   2.424  1.5546 -0.2207 -1.3630
 9039SOL    HW238772   9.671   2.564   2.272 -0.2942  0.9815 -0.6866
 9040SOL     OW38773   3.232   3.240   5.409 -0.2404  0.0545 -0.3382
 9040SOL    HW138774   3.222   3.331   5.450 -1.8891 -0.1214 -0.2916
 9040SOL    HW238775   3.187   3.239   5.320  0.3820 -0.5281 -0.6495
 9041SOL     OW38776   1.035   7.789   4.912 -0.2562  0.5470 -0.0422
 9041SOL    HW138777   1.095   7.808   4.834 -0.2060  0.3165 -0.0585
 9041SOL    HW238778   1.043   7.864   4.978 -0.5913  0.9320 -0.4368
 9042SOL     OW38779   8.036   0.355   5.067 -0.0436 -0.4208  0.4092
 9042SOL    HW138780   8.040   0.296   5.147  2.3788 -0.0397  0.6079
 9042SOL    HW238781   7.979   0.435   5.087 -0.0123 -0.6671  1.4942
 9043SOL     OW38782   3.683   3.014   7.779 -0.2838  0.1371 -0.7266
 9043SOL    HW138783   3.614   2.944   7.760  0.5749 -0.2469 -2.5272
 9043SOL    HW238784   3.703   3.015   7.877  0.5092 -2.9161 -0.8180
 9044SOL     OW38785   3.417   9.046   7.549  0.0990 -0.3955  0.2638
 9044SOL    HW138786   3.422   9.109   7.471  1.5288 -1.5769 -0.6399
 9044SOL    HW238787   3.474   8.966   7.530  1.7606  0.0254  3.1899
 9045SOL     OW38788   7.527   0.867   0.340 -0.0956  0.1083  0.2352
 9045SOL    HW138789   7.456   0.797   0.343  0.6593 -0.7445 -1.2728
 9045SOL    HW238790   7.555   0.883   0.245  0.6374  1.5377  0.6752
 9046SOL     OW38791   8.676   7.671   0.578 -0.5177 -0.3508 -0.2406
 9046SOL    HW138792   8.596   7.624   0.613 -0.6909  0.0789 -0.0506
 9046SOL    HW238793   8.752   7.663   0.643 -0.2875 -1.0925 -0.6028
 9047SOL     OW38794   0.837   9.343   6.388  0.0732  0.0404 -0.3042
 9047SOL    HW138795   0.876   9.423   6.435 -0.9871 -0.5250  1.5518
 9047SOL    HW238796   0.742   9.331   6.416  0.0602 -1.5566 -1.0157
 9048SOL     OW38797   9.120   6.982   3.471 -0.8806 -0.5824  0.6479
 9048SOL    HW138798   9.059   7.018   3.542 -0.3957 -2.0410  1.8228
 9048SOL    HW238799   9.179   6.911   3.510  1.8964  1.0777 -0.3323
 9049SOL     OW38800   9.025   5.820   4.364 -0.5384  0.1121 -0.0371
 9049SOL    HW138801   9.033   5.898   4.426 -0.4908  1.2653 -1.4593
 9049SOL    HW238802   8.930   5.787   4.364 -1.0940  1.6352 -1.1296
 9050SOL     OW38803   4.187   8.718   1.518 -0.5789  0.3875  0.0045
 9050SOL    HW138804   4.191   8.806   1.565 -0.3285 -0.5421  1.7437
 9050SOL    HW238805   4.279   8.692   1.488 -0.5656  0.4333  0.0061
 9051SOL     OW38806   0.019   3.724   4.492  0.3339  0.1066  0.2498
 9051SOL    HW138807   0.091   3.666   4.530  1.1834  1.5623  0.9174
 9051SOL    HW238808  -0.037   3.761   4.566 -0.9304 -0.7815 -0.2509
 9052SOL     OW38809   9.037   5.262   5.370 -0.3648 -0.5256 -0.2724
 9052SOL    HW138810   9.037   5.253   5.469  0.7342 -1.2331 -0.3322
 9052SOL    HW238811   8.997   5.180   5.328  1.7074 -1.4582 -0.4976
 9053SOL     OW38812   2.430   6.222   7.177 -0.2714 -0.6348 -0.3049
 9053SOL    HW138813   2.524   6.209   7.145 -0.0716 -0.6708  0.3024
 9053SOL    HW238814   2.401   6.316   7.158  0.9242  0.2599  2.2023
 9054SOL     OW38815   9.384   1.325   7.173  0.5214 -0.0180  0.4185
 9054SOL    HW138816   9.479   1.302   7.197  0.8513  0.6134 -0.2798
 9054SOL    HW238817   9.357   1.408   7.220  0.3465 -0.1335  0.5233
 9055SOL     OW38818   8.435   0.859   5.223 -0.4933  0.4102  0.1504
 9055SOL    HW138819   8.448   0.951   5.186 -0.4605  0.6276  0.7083
 9055SOL    HW238820   8.393   0.801   5.152 -0.6985  0.9034 -0.1354
 9056SOL     OW38821   3.402   2.243   6.407  0.3702 -0.7337 -0.6916
 9056SOL    HW138822   3.353   2.262   6.322  0.1411 -0.2380 -0.4501
 9056SOL    HW238823   3.499   2.263   6.394 -0.0040  1.5878 -0.1535
 9057SOL     OW38824   6.749   8.662   2.717  0.0743 -0.3660 -0.3838
 9057SOL    HW138825   6.715   8.755   2.702 -1.3323 -0.7639  0.2439
 9057SOL    HW238826   6.745   8.641   2.815 -0.2857 -1.3376 -0.6039
 9058SOL     OW38827   7.753   7.871   5.619 -0.2113 -0.4957 -0.1296
 9058SOL    HW138828   7.698   7.829   5.547  1.2135 -0.2648 -1.3803
 9058SOL    HW238829   7.793   7.800   5.677 -1.0361 -0.7016  0.1859
 9059SOL     OW38830   1.758   6.559   6.998 -0.4318 -0.0423 -0.0546
 9059SOL    HW138831   1.708   6.539   6.913  0.5091  2.2451 -1.2063
 9059SOL    HW238832   1.709   6.630   7.049 -0.1948 -0.3341  0.5812
 9060SOL     OW38833   2.683   1.644   6.164 -0.1992 -0.5996  0.0144
 9060SOL    HW138834   2.621   1.650   6.242 -0.0321 -2.7491  0.3519
 9060SOL    HW238835   2.772   1.679   6.190 -0.9003  1.2873 -0.0700
 9061SOL     OW38836   5.775   3.380   1.015 -0.2449 -0.0734 -0.1227
 9061SOL    HW138837   5.852   3.353   1.072 -0.7224  1.4193  1.2444
 9061SOL    HW238838   5.767   3.480   1.013 -2.0406 -0.1951 -0.3815
 9062SOL     OW38839   4.014   5.056   2.862 -0.0548 -0.3712 -0.3064
 9062SOL    HW138840   4.100   5.107   2.855 -0.1293  0.0118  1.2549
 9062SOL    HW238841   4.020   4.972   2.810  0.8968  0.1575 -1.0648
 9063SOL     OW38842   6.833   2.010   1.295 -0.4429  0.2284  0.0925
 9063SOL    HW138843   6.789   1.923   1.269  0.1555 -0.0511  0.0110
 9063SOL    HW238844   6.816   2.078   1.225  1.1550 -0.5222 -1.0607
 9064SOL     OW38845   0.179   5.494   0.827 -0.3795  0.5369 -0.3543
 9064SOL    HW138846   0.143   5.444   0.748 -0.2525  1.1179 -0.7821
 9064SOL    HW238847   0.215   5.429   0.894 -0.4559  0.0436 -0.7890
 9065SOL     OW38848   1.041   3.774   6.160 -0.4911 -0.1161  0.4389
 9065SOL    HW138849   1.090   3.796   6.076  2.0365 -0.5811  1.7686
 9065SOL    HW238850   0.965   3.712   6.139  1.0720 -1.4816 -1.2900
 9066SOL     OW38851   0.799   7.827   4.755 -0.0800  0.1316  0.6770
 9066SOL    HW138852   0.856   7.814   4.837  0.5816  0.2132  0.2355
 9066SOL    HW238853   0.723   7.762   4.757 -0.6329  0.8079  1.8510
 9067SOL     OW38854   1.814   1.914   4.944  0.4092 -0.1532 -0.2807
 9067SOL    HW138855   1.867   1.911   5.029  1.4215 -0.3244 -0.9064
 9067SOL    HW238856   1.793   1.821   4.914  0.4821 -0.1053 -0.4802
 9068SOL     OW38857   8.414   2.458   6.833  0.6078  0.4907  0.1439
 9068SOL    HW138858   8.485   2.396   6.798 -2.2219 -1.1613 -3.0442
 9068SOL    HW238859   8.370   2.416   6.912  1.4428  0.3190  0.5228
 9069SOL     OW38860   3.630   8.507   3.576  0.2136 -0.8525  0.0569
 9069SOL    HW138861   3.579   8.424   3.553 -0.1129 -0.5222 -0.4380
 9069SOL    HW238862   3.681   8.493   3.660 -0.4363 -1.3093  0.3787
 9070SOL     OW38863   9.934   0.640   7.313  0.3144  0.0895  0.8674
 9070SOL    HW138864   9.920   0.544   7.335  1.0711 -0.5702 -1.4081
 9070SOL    HW238865   9.847   0.682   7.289 -0.1139  0.1564  2.5011
 9071SOL     OW38866   0.942   9.621   1.586 -0.0052  0.5877  0.5750
 9071SOL    HW138867   1.037   9.613   1.616 -0.6224  0.6604  2.6112
 9071SOL    HW238868   0.929   9.708   1.537  0.5450  1.4827  1.9932
 9072SOL     OW38869   3.197   7.468   3.746  0.4034 -0.2866 -0.1221
 9072SOL    HW138870   3.240   7.473   3.836 -0.2095 -1.2684  0.2207
 9072SOL    HW238871   3.217   7.553   3.696  0.0610  0.6035  1.2299
 9073SOL     OW38872   6.108   1.202   1.099  0.3039 -0.0200  0.6267
 9073SOL    HW138873   6.155   1.116   1.115  1.0004  0.4299  1.0299
 9073SOL    HW238874   6.034   1.213   1.165  2.2008  1.1237  2.6519
 9074SOL     OW38875   7.793   7.827   5.284  0.0512  0.2003  0.2397
 9074SOL    HW138876   7.808   7.773   5.366  0.4477  1.9791  1.3673
 9074SOL    HW238877   7.695   7.832   5.265 -0.0444 -0.1790  0.6258
 9075SOL     OW38878   7.411   0.775   1.124 -0.2522  0.2423 -0.3009
 9075SOL    HW138879   7.460   0.862   1.131 -1.5346  0.9851 -0.3915
 9075SOL    HW238880   7.415   0.728   1.212 -1.1030  1.2508  0.2929
 9076SOL     OW38881   1.393   4.143   3.990  0.5267 -0.0622 -0.4499
 9076SOL    HW138882   1.450   4.191   4.057 -1.8061 -0.1433  1.6566
 9076SOL    HW238883   1.393   4.046   4.011 -1.8204  0.1461  0.7583
 9077SOL     OW38884   5.078   5.520   7.737 -0.7923 -0.4896 -0.1637
 9077SOL    HW138885   5.138   5.544   7.814 -1.3859  1.7933 -0.3616
 9077SOL    HW238886   5.131   5.476   7.665  0.4893  0.6835  0.0453
 9078SOL     OW38887   0.323   7.994   6.017 -0.0417 -0.4484  0.0490
 9078SOL    HW138888   0.404   7.978   6.074  0.8131 -0.8386 -1.2433
 9078SOL    HW238889   0.289   7.906   5.983 -0.6021 -0.2285  0.0427
 9079SOL     OW38890   4.342   5.366   1.066  0.1469 -0.0718  0.2279
 9079SOL    HW138891   4.355   5.433   1.139 -0.8840  2.3510 -1.6995
 9079SOL    HW238892   4.254   5.383   1.022  1.2690 -0.6780 -2.3310
 9080SOL     OW38893   1.706   6.583   5.210 -0.1298  0.6644  0.1532
 9080SOL    HW138894   1.608   6.586   5.227 -0.0294  0.9436  0.6769
 9080SOL    HW238895   1.756   6.613   5.292  0.3615  1.4386 -0.4153
 9081SOL     OW38896   8.606   9.960   0.855 -0.0441  0.0776 -0.0902
 9081SOL    HW138897   8.617  10.054   0.889  1.5645 -0.0689 -0.1791
 9081SOL    HW238898   8.551   9.961   0.772  2.5126  1.3004 -1.8155
 9082SOL     OW38899   0.245   5.921   2.430 -0.1466 -0.3400 -0.3439
 9082SOL    HW138900   0.271   6.013   2.400  0.1220 -0.6814 -1.1759
 9082SOL    HW238901   0.198   5.873   2.356  0.0584 -1.0088 -0.0538
 9083SOL     OW38902   9.536   8.554   7.672  0.7587  0.0513  0.2391
 9083SOL    HW138903   9.585   8.577   7.588 -0.7496  1.6543 -0.2328
 9083SOL    HW238904   9.590   8.582   7.751  2.1068 -1.3095 -0.1851
 9084SOL     OW38905   8.428   9.187   3.985  0.4146  0.0913 -0.5009
 9084SOL    HW138906   8.339   9.205   3.943  0.8288  0.3679 -1.2811
 9084SOL    HW238907   8.496   9.174   3.913  0.7727 -1.3156  0.0769
 9085SOL     OW38908   8.194   5.054   7.865  0.2323 -0.2242  0.1749
 9085SOL    HW138909   8.211   5.152   7.877 -0.6436 -0.1904  1.2709
 9085SOL    HW238910   8.097   5.035   7.878  0.0612 -0.9764 -2.0089
 9086SOL     OW38911   0.308   0.636   0.618  0.6637  0.0075  0.5649
 9086SOL    HW138912   0.257   0.573   0.677 -0.7615 -0.2148 -0.8555
 9086SOL    HW238913   0.354   0.704   0.675 -1.0710  0.0902  1.9485
 9087SOL     OW38914   1.507   0.136   1.501 -0.5637  0.0767  0.6770
 9087SOL    HW138915   1.562   0.218   1.481 -0.2021  0.0481  1.5430
 9087SOL    HW238916   1.541   0.059   1.447 -0.7475  0.4328  0.0436
 9088SOL     OW38917   7.381   2.770   2.719 -0.1982 -0.1976  0.1251
 9088SOL    HW138918   7.441   2.846   2.694 -0.6291 -0.3988 -1.5887
 9088SOL    HW238919   7.315   2.801   2.788 -0.6555  1.1214 -0.8827
 9089SOL     OW38920   9.855   8.014   4.185  0.0430 -0.5689  0.6481
 9089SOL    HW138921   9.851   7.967   4.273  2.2354  0.5955  1.4206
 9089SOL    HW238922   9.928   7.974   4.129  0.4913  0.4751  0.4675
 9090SOL     OW38923   5.202   3.408   0.983  0.0493  0.1559  0.3906
 9090SOL    HW138924   5.294   3.392   1.020  0.6086 -0.3540 -1.1662
 9090SOL    HW238925   5.144   3.329   1.002  0.4578 -0.2883 -0.1893
 9091SOL     OW38926   8.647   3.753   7.208  0.3920  0.2194  0.4302
 9091SOL    HW138927   8.682   3.811   7.281  1.0651  3.5370 -2.4223
 9091SOL    HW238928   8.717   3.742   7.138 -0.4731 -2.4109 -0.0929
 9092SOL     OW38929   1.016   0.412   6.622  0.5163  0.1709  0.2083
 9092SOL    HW138930   0.972   0.423   6.710  1.1543 -0.5943  0.6272
 9092SOL    HW238931   1.042   0.316   6.608 -0.5472  0.0756 -1.2753
 9093SOL     OW38932   6.615   9.904   2.947  0.1297  0.0578 -0.0098
 9093SOL    HW138933   6.567   9.988   2.972  0.1892  0.2879 -0.6513
 9093SOL    HW238934   6.550   9.837   2.913  0.0313 -0.3047  0.8862
 9094SOL     OW38935   3.493   7.816   3.791  0.4022 -0.0649 -0.5464
 9094SOL    HW138936   3.571   7.760   3.763  1.6629  1.6643 -0.5192
 9094SOL    HW238937   3.471   7.882   3.720 -0.1696  0.3866  0.0398
 9095SOL     OW38938   4.351   3.582   8.174 -0.3747 -0.6296 -0.0930
 9095SOL    HW138939   4.439   3.569   8.220 -1.1481 -1.2194  1.2497
 9095SOL    HW238940   4.355   3.665   8.118  1.1354 -0.8210 -0.3004
 9096SOL     OW38941   3.647   5.565   1.160  0.2619 -0.4046  0.9667
 9096SOL    HW138942   3.678   5.602   1.248 -1.1181 -0.9524  1.6872
 9096SOL    HW238943   3.548   5.552   1.162 -0.0935  1.5327 -1.3939
 9097SOL     OW38944   2.266   1.651   4.117 -0.0025 -0.0766 -0.0112
 9097SOL    HW138945   2.258   1.627   4.213  1.6275 -1.3837 -0.1742
 9097SOL    HW238946   2.234   1.745   4.102 -2.4069 -0.6635  1.3928
 9098SOL     OW38947   3.900   1.744   3.367 -0.0588 -0.1695 -0.0814
 9098SOL    HW138948   3.961   1.694   3.429  1.6493  0.7958 -0.9489
 9098SOL    HW238949   3.913   1.842   3.379 -0.6659  0.0380 -1.0466
 9099SOL     OW38950   1.380   1.966   7.738  0.3909 -0.7200  0.2397
 9099SOL    HW138951   1.329   1.981   7.653 -0.7367 -1.0994  0.8386
 9099SOL    HW238952   1.401   2.054   7.780 -0.5984 -0.5899  0.4724
 9100SOL     OW38953   1.860   1.818   0.174  0.0979 -0.7519  0.2424
 9100SOL    HW138954   1.881   1.801   0.077  0.1650 -2.1123  0.4827
 9100SOL    HW238955   1.816   1.907   0.183 -0.0700 -0.6842 -1.0714
 9101SOL     OW38956   3.421   4.404   5.055 -0.2210 -0.0847 -0.3384
 9101SOL    HW138957   3.326   4.378   5.040 -0.1959  0.4004 -1.3899
 9101SOL    HW238958   3.477   4.366   4.981  0.4416 -0.5998  0.4235
 9102SOL     OW38959   5.075   9.734   4.986  0.4776 -0.9666  0.5996
 9102SOL    HW138960   5.173   9.724   5.002  0.3356  0.0550  2.2946
 9102SOL    HW238961   5.060   9.799   4.911  1.0780  0.6902  1.8897
 9103SOL     OW38962   2.671   0.156   4.481  0.1198  0.7277 -0.1653
 9103SOL    HW138963   2.614   0.089   4.432  0.1056  1.1187 -0.7014
 9103SOL    HW238964   2.713   0.113   4.560  0.3956 -0.0107 -0.7023
 9104SOL     OW38965   8.586   8.842   6.590  0.0515  0.3463  0.0750
 9104SOL    HW138966   8.553   8.859   6.683 -1.5028  0.3065 -0.4480
 9104SOL    HW238967   8.562   8.749   6.562  1.3843  0.0258 -0.0125
 9105SOL     OW38968   2.785   4.710   4.652 -0.2731  0.3152 -0.1880
 9105SOL    HW138969   2.880   4.690   4.631  0.0360 -0.5860  1.9768
 9105SOL    HW238970   2.747   4.638   4.710 -1.8453  1.3997  0.1803
 9106SOL     OW38971   2.473   9.621   5.295  0.1255  0.3015 -0.3111
 9106SOL    HW138972   2.441   9.570   5.375  0.0341 -0.6687 -0.9557
 9106SOL    HW238973   2.424   9.588   5.213  0.6571  0.8590 -0.8563
 9107SOL     OW38974   8.222   4.818   7.711  0.0227 -0.3240  0.1990
 9107SOL    HW138975   8.277   4.839   7.630 -0.8215 -1.7011 -0.7634
 9107SOL    HW238976   8.229   4.893   7.777  0.0810  1.1999 -1.4887
 9108SOL     OW38977   6.099   9.565   1.786 -0.1233 -0.0788 -0.2784
 9108SOL    HW138978   6.067   9.476   1.755 -0.1521 -0.2396  0.2090
 9108SOL    HW238979   6.198   9.562   1.801 -0.5543 -0.9672  2.8104
 9109SOL     OW38980   1.083   0.664   3.940  0.2509  0.2228 -0.5221
 9109SOL    HW138981   1.004   0.645   3.883  0.2229  1.8611 -1.0606
 9109SOL    HW238982   1.102   0.585   3.999 -0.9090 -0.7158 -1.3907
 9110SOL     OW38983   2.391   3.473   6.084 -0.6453  0.5568  0.2574
 9110SOL    HW138984   2.301   3.429   6.083 -1.7819  2.7969 -2.0071
 9110SOL    HW238985   2.407   3.515   6.173 -1.1618 -1.1418  1.1771
 9111SOL     OW38986   7.244   3.313   2.993 -0.2618 -0.0166  0.5407
 9111SOL    HW138987   7.171   3.245   2.979  0.0626 -0.2424 -0.0566
 9111SOL    HW238988   7.232   3.356   3.083 -0.8428 -0.4078  0.6554
 9112SOL     OW38989   2.058   2.222   0.669 -0.2467  0.3046 -0.5648
 9112SOL    HW138990   2.033   2.205   0.764 -1.9784 -0.9367 -1.2063
 9112SOL    HW238991   2.038   2.317   0.645 -0.5747  0.3971  0.0714
 9113SOL     OW38992   4.567   1.707   7.738  0.1740 -0.1555 -0.1657
 9113SOL    HW138993   4.646   1.647   7.745 -0.2443 -1.0157 -2.5674
 9113SOL    HW238994   4.504   1.689   7.814  0.3560 -2.2737 -0.5142
 9114SOL     OW38995   9.606   0.332   3.566  0.3708  0.6871  0.0337
 9114SOL    HW138996   9.530   0.395   3.548  1.0204  1.9188  1.5216
 9114SOL    HW238997   9.596   0.251   3.509 -2.1061  0.7944  0.2740
 9115SOL     OW38998   9.639   7.282   7.706 -0.1497 -0.1009  0.1467
 9115SOL    HW138999   9.727   7.317   7.737  0.2557 -1.2676  0.3462
 9115SOL    HW239000   9.640   7.272   7.607  0.1501 -0.6487  0.2022
 9116SOL     OW39001   0.023   2.540   1.072 -0.6999  0.4046  0.3688
 9116SOL    HW139002   0.110   2.570   1.111 -1.0451  0.0843  1.4100
 9116SOL    HW239003  -0.016   2.468   1.130 -2.3063  1.4976  0.6541
 9117SOL     OW39004   7.276   2.032   5.151  0.6347  0.3815  0.6711
 9117SOL    HW139005   7.268   1.984   5.238  0.6800  0.2021  0.5772
 9117SOL    HW239006   7.269   1.967   5.076 -0.2013  0.6390  0.5200
 9118SOL     OW39007   1.922   5.967   1.120  0.1262 -0.4405  0.2857
 9118SOL    HW139008   1.977   6.027   1.177 -1.7186  0.3815  1.2488
 9118SOL    HW239009   1.891   5.889   1.174 -0.3806 -0.4304  0.0153
 9119SOL     OW39010   4.890   2.122   0.002  0.3183  0.8770 -0.4293
 9119SOL    HW139011   4.886   2.211  -0.043  1.4153 -0.1195 -2.5509
 9119SOL    HW239012   4.979   2.112   0.047  0.1435  0.9008 -0.0769
 9120SOL     OW39013   7.171   9.301   5.399 -0.4288  0.1236  0.3127
 9120SOL    HW139014   7.154   9.219   5.454 -0.5144 -0.8407 -1.1209
 9120SOL    HW239015   7.234   9.279   5.325 -0.7759  1.2629 -0.3326
 9121SOL     OW39016   0.404   0.682   1.167 -0.0272  0.1401 -0.2881
 9121SOL    HW139017   0.375   0.589   1.144  1.8877 -0.8265  1.0946
 9121SOL    HW239018   0.326   0.744   1.159 -1.4313 -1.6494 -0.8062
 9122SOL     OW39019   1.013   3.087   5.428 -0.3685 -0.0127  0.2299
 9122SOL    HW139020   0.948   3.088   5.352 -0.8831 -0.6758  0.6524
 9122SOL    HW239021   0.963   3.083   5.514  0.1706  1.9567  0.6694
 9123SOL     OW39022   8.005   2.812   5.341 -0.3060 -0.1923  0.3334
 9123SOL    HW139023   7.970   2.720   5.324  0.0596 -0.3960  0.6748
 9123SOL    HW239024   8.105   2.811   5.338 -0.3207  0.6535 -2.0596
 9124SOL     OW39025   7.896   2.985   6.085  0.3762  0.0448 -0.5896
 9124SOL    HW139026   7.830   3.006   6.158  0.3213  0.1442 -0.6682
 9124SOL    HW239027   7.975   3.046   6.091 -1.2698  2.5230 -2.8240
 9125SOL     OW39028   9.752   8.317   3.177 -0.0849 -0.0546 -0.3964
 9125SOL    HW139029   9.736   8.235   3.122 -0.2568  0.1023 -0.5798
 9125SOL    HW239030   9.850   8.339   3.176  0.0011 -0.4072 -0.1328
 9126SOL     OW39031   6.336   0.382   5.570 -0.5616  0.5642  0.0746
 9126SOL    HW139032   6.237   0.376   5.557 -0.3508  1.9638 -2.4120
 9126SOL    HW239033   6.372   0.291   5.591 -2.4519  0.1628  1.6548
 9127SOL     OW39034   7.648   0.278   4.655  0.3809 -0.3726 -0.1012
 9127SOL    HW139035   7.692   0.257   4.743  1.0461  0.5675 -0.1992
 9127SOL    HW239036   7.715   0.273   4.582  0.4666  1.5784 -0.1841
 9128SOL     OW39037   7.479   0.582   3.325 -0.4388  0.6713 -0.1717
 9128SOL    HW139038   7.472   0.599   3.227 -0.7341 -0.3652 -0.3331
 9128SOL    HW239039   7.567   0.541   3.346 -0.4210  0.7874 -0.0172
 9129SOL     OW39040   0.329   9.152   5.016  0.5605  0.7556  0.2589
 9129SOL    HW139041   0.241   9.161   4.969  0.1884  0.2838  0.8601
 9129SOL    HW239042   0.402   9.186   4.957  0.3863 -2.0325 -1.6366
 9130SOL     OW39043   9.423   0.880   3.110  0.0886  0.6051  0.5378
 9130SOL    HW139044   9.373   0.816   3.167 -0.1493 -0.1357 -0.4861
 9130SOL    HW239045   9.521   0.868   3.123  0.0441 -0.1195  0.1694
 9131SOL     OW39046   8.430   3.193   7.955 -0.0294 -0.6516  0.1992
 9131SOL    HW139047   8.513   3.189   7.899 -0.0120 -0.3327  0.2004
 9131SOL    HW239048   8.350   3.189   7.896 -0.0249  1.7580 -0.0222
 9132SOL     OW39049   1.848   7.167   5.744 -0.2121 -0.6311 -0.5761
 9132SOL    HW139050   1.794   7.228   5.687 -0.7418  2.8576  3.4358
 9132SOL    HW239051   1.788   7.121   5.810  0.7283 -2.6232 -1.0672
 9133SOL     OW39052   2.196   2.858   7.923 -0.1869 -0.1025 -0.1294
 9133SOL    HW139053   2.213   2.769   7.881  0.7375 -0.5729  1.2047
 9133SOL    HW239054   2.132   2.847   7.998  1.3718  0.0228  1.2484
 9134SOL     OW39055   7.846   8.458   6.671 -0.8643  0.2446  0.4903
 9134SOL    HW139056   7.751   8.455   6.703 -0.6127  0.1271  1.2408
 9134SOL    HW239057   7.885   8.366   6.673 -0.9925  0.1687 -0.6110
 9135SOL     OW39058   4.932   0.109   3.516 -0.2820 -0.2252  0.1976
 9135SOL    HW139059   4.951   0.044   3.442  0.4257 -1.1134  1.1373
 9135SOL    HW239060   4.872   0.065   3.583 -1.9332  1.0006 -0.4549
 9136SOL     OW39061   3.046   2.190   0.568  0.4229  0.3538  0.2703
 9136SOL    HW139062   3.112   2.206   0.641  1.2480 -1.9595  0.0892
 9136SOL    HW239063   3.087   2.131   0.499 -0.8175  1.4022 -1.3869
 9137SOL     OW39064   8.666   4.832   4.301  0.1249  0.4309  0.8302
 9137SOL    HW139065   8.641   4.736   4.300 -0.4699  0.5706 -1.7979
 9137SOL    HW239066   8.730   4.851   4.225 -0.9083  2.3709  0.3996
 9138SOL     OW39067   3.204   3.987   6.912  0.4221  0.2930 -0.1639
 9138SOL    HW139068   3.118   3.950   6.946  0.2879  0.1932 -0.6119
 9138SOL    HW239069   3.185   4.053   6.839  0.6548  1.1965  0.5674
 9139SOL     OW39070   2.407   2.198   0.786 -0.1088  0.2614  0.0389
 9139SOL    HW139071   2.337   2.149   0.734  1.2865  1.0815 -2.6635
 9139SOL    HW239072   2.469   2.132   0.830 -1.1845 -0.4240  0.5572
 9140SOL     OW39073   1.599   5.614   6.962 -0.2789  0.4398 -0.8024
 9140SOL    HW139074   1.684   5.667   6.955  0.2327 -0.3691 -0.8058
 9140SOL    HW239075   1.532   5.665   7.015  1.4402 -0.4123  2.3752
 9141SOL     OW39076   8.513   0.239   7.975 -0.3029  0.0737  0.2628
 9141SOL    HW139077   8.478   0.146   7.964  0.8571 -0.0937 -2.4308
 9141SOL    HW239078   8.613   0.236   7.981  0.1422  1.3844 -4.4274
 9142SOL     OW39079   2.707   1.958   3.060 -0.1538 -0.0379 -0.3479
 9142SOL    HW139080   2.774   2.022   3.098 -0.0109 -0.4283  0.0624
 9142SOL    HW239081   2.641   1.932   3.131 -0.2983 -0.2334 -0.5519
 9143SOL     OW39082   5.305   8.726   2.695  0.4657 -0.0154  0.7107
 9143SOL    HW139083   5.243   8.776   2.634  0.4136  1.4302  1.9502
 9143SOL    HW239084   5.266   8.722   2.787  0.9691 -1.4323  0.8771
 9144SOL     OW39085   7.399   9.410   3.349 -0.2416  0.1231  0.1809
 9144SOL    HW139086   7.353   9.338   3.296  0.6333 -0.7544  0.5959
 9144SOL    HW239087   7.437   9.370   3.433  2.4546  0.5440 -0.7997
 9145SOL     OW39088   0.346   4.862   1.107 -0.1092  0.2439  0.3198
 9145SOL    HW139089   0.298   4.933   1.056  1.6709 -0.6351 -2.7216
 9145SOL    HW239090   0.311   4.772   1.081  1.4431 -0.2656 -0.0783
 9146SOL     OW39091   8.410   4.369   1.303  0.9185 -0.2438 -0.7572
 9146SOL    HW139092   8.324   4.368   1.353 -0.2954  3.0970 -2.6439
 9146SOL    HW239093   8.486   4.382   1.367 -0.4354  2.0201  0.4552
 9147SOL     OW39094   2.570   9.291   5.337  0.1986 -0.5587  0.2669
 9147SOL    HW139095   2.561   9.360   5.409 -1.3552  0.5584 -0.9840
 9147SOL    HW239096   2.650   9.313   5.280  0.5282 -0.5930  0.7099
 9148SOL     OW39097   0.058   7.714   8.175 -0.3996  0.1188  0.2416
 9148SOL    HW139098  -0.015   7.647   8.191 -2.2756  1.7436 -1.2723
 9148SOL    HW239099   0.134   7.696   8.237 -1.9386 -1.8221  1.6210
 9149SOL     OW39100   8.288   8.592   6.820  0.1470  0.2172  0.3417
 9149SOL    HW139101   8.308   8.513   6.763 -1.1117  0.3045 -0.2645
 9149SOL    HW239102   8.299   8.676   6.766 -0.6210  0.3261  0.3410
 9150SOL     OW39103   1.637   7.017   5.276  0.7144  0.2046  0.4837
 9150SOL    HW139104   1.727   7.049   5.304 -0.6692  2.8533  2.0865
 9150SOL    HW239105   1.619   6.927   5.317  2.0418  0.3295  1.3586
 9151SOL     OW39106   4.076   5.316   2.424  0.1045  0.2561 -0.4802
 9151SOL    HW139107   4.057   5.224   2.388 -0.4882  0.5030 -0.8120
 9151SOL    HW239108   3.991   5.369   2.423  0.4114  0.7484 -0.1194
 9152SOL     OW39109   4.761   6.276   2.173 -0.1026  0.3006 -0.8097
 9152SOL    HW139110   4.846   6.235   2.139  1.5470  1.2240  2.0254
 9152SOL    HW239111   4.701   6.203   2.207  1.1865 -0.0760  0.6905
 9153SOL     OW39112   1.133   1.392   3.308  0.2523  0.6032 -0.6458
 9153SOL    HW139113   1.218   1.343   3.328 -0.3691 -0.1337  0.2533
 9153SOL    HW239114   1.083   1.345   3.236 -1.8966 -1.9993  2.4150
 9154SOL     OW39115   4.901   1.355   7.580 -0.3739 -0.0660  0.2598
 9154SOL    HW139116   4.981   1.310   7.620  2.1718  1.3134 -3.0315
 9154SOL    HW239117   4.860   1.294   7.512 -1.6226 -0.4072  1.2953
 9155SOL     OW39118   3.462   7.319   5.443 -0.1656  0.1748  0.4613
 9155SOL    HW139119   3.410   7.276   5.517 -0.0473  1.3937  1.2654
 9155SOL    HW239120   3.418   7.404   5.417 -0.4406 -0.4539 -1.1830
 9156SOL     OW39121   8.088   3.405   0.750  0.3510 -0.2327 -0.1680
 9156SOL    HW139122   8.084   3.382   0.653 -0.1160  0.0356 -0.2126
 9156SOL    HW239123   7.995   3.407   0.787  0.5052  0.0537  0.1950
 9157SOL     OW39124   8.242   2.339   4.973 -0.0188 -0.2405 -0.0172
 9157SOL    HW139125   8.279   2.343   5.066  0.0480 -1.7035  0.0160
 9157SOL    HW239126   8.314   2.310   4.910 -0.6129 -1.2727 -0.2218
 9158SOL     OW39127   1.903   1.144   1.399 -0.5187 -0.1512  0.1615
 9158SOL    HW139128   1.939   1.051   1.390 -0.9886 -0.2528 -0.6543
 9158SOL    HW239129   1.936   1.183   1.485  1.0413 -0.4586 -0.2816
 9159SOL     OW39130   2.387   9.435   0.630 -0.1834  0.4920 -0.5591
 9159SOL    HW139131   2.449   9.379   0.685  0.0558  1.3077  0.0103
 9159SOL    HW239132   2.307   9.460   0.684  0.3063  1.7401 -0.3844
 9160SOL     OW39133   5.865   5.967   0.412  0.8075 -0.0792  0.3608
 9160SOL    HW139134   5.892   5.924   0.499  0.9318 -1.7491 -0.4878
 9160SOL    HW239135   5.850   5.896   0.343  1.2554  1.2678 -1.1456
 9161SOL     OW39136   5.843   4.252   0.363  0.0160 -0.3835  0.2025
 9161SOL    HW139137   5.761   4.289   0.319  0.4372 -0.9497 -1.0771
 9161SOL    HW239138   5.820   4.170   0.414 -0.1622 -0.7011 -0.3904
 9162SOL     OW39139   1.954   1.056   1.720  0.1891 -0.3392  0.2119
 9162SOL    HW139140   1.860   1.032   1.746 -0.3685 -0.8405 -2.1085
 9162SOL    HW239141   2.011   0.975   1.723  0.3745 -0.1836  0.9015
 9163SOL     OW39142   2.125   1.983   3.465  0.3206 -0.3698 -0.1330
 9163SOL    HW139143   2.032   1.995   3.498  0.2648  0.5742 -0.6087
 9163SOL    HW239144   2.129   1.904   3.403 -0.0057 -0.8611  0.4760
 9164SOL     OW39145   9.920   4.038   6.933  0.1431  0.4380  0.6020
 9164SOL    HW139146   9.864   3.968   6.976 -0.6158 -0.5897 -1.9782
 9164SOL    HW239147   9.904   4.126   6.977 -1.5578 -0.3330  1.5466
 9165SOL     OW39148   0.068   6.876   1.951  0.0273 -0.6311 -0.0997
 9165SOL    HW139149   0.067   6.844   1.856  0.1864 -0.7600 -0.0573
 9165SOL    HW239150   0.141   6.831   2.001 -0.2861 -0.8369  0.1785
 9166SOL     OW39151   4.924   3.617   7.757  0.0319 -0.5191 -0.4038
 9166SOL    HW139152   4.942   3.550   7.685  0.1958 -0.4433 -0.4327
 9166SOL    HW239153   4.930   3.709   7.719 -0.1303 -0.4862 -0.3502
 9167SOL     OW39154   9.888   7.993   5.345 -0.7568 -0.3636  0.1249
 9167SOL    HW139155   9.867   8.076   5.397 -0.8554 -1.6366  2.2274
 9167SOL    HW239156   9.931   8.016   5.259 -0.4919  1.8517  0.8333
 9168SOL     OW39157   1.564   2.370   4.703  0.0407 -0.3782 -0.3525
 9168SOL    HW139158   1.628   2.319   4.645  0.0781  1.3539 -1.9048
 9168SOL    HW239159   1.613   2.411   4.780  0.3450 -1.1268 -0.1490
 9169SOL     OW39160   7.581   9.614   4.323  0.2287 -0.2554  0.0842
 9169SOL    HW139161   7.481   9.617   4.325  0.1741 -0.4087 -1.6379
 9169SOL    HW239162   7.618   9.707   4.324  0.0715 -0.1989  0.7151
 9170SOL     OW39163   3.506   1.943   6.739  0.1859  0.3456  0.6233
 9170SOL    HW139164   3.414   1.973   6.767 -1.3354 -2.7407 -0.8593
 9170SOL    HW239165   3.521   1.969   6.643  0.3240 -0.3623  0.4559
 9171SOL     OW39166   6.813   2.769   2.996  0.7451 -0.0868 -0.2032
 9171SOL    HW139167   6.793   2.695   3.060 -1.2876  0.3507 -0.2825
 9171SOL    HW239168   6.779   2.744   2.905  2.1307 -0.0062 -0.7623
 9172SOL     OW39169   1.150   2.994   7.369  0.2090  0.2781 -0.1597
 9172SOL    HW139170   1.103   2.948   7.293 -0.8504  0.5208  0.3448
 9172SOL    HW239171   1.151   3.093   7.351 -0.4002  0.3778  0.3261
 9173SOL     OW39172   2.001   8.308   6.342 -0.4883 -0.7976 -0.0015
 9173SOL    HW139173   1.910   8.350   6.347  0.4254  1.2666 -0.0937
 9173SOL    HW239174   2.050   8.345   6.263  1.1564 -0.3624  1.2015
 9174SOL     OW39175   2.705   1.935   7.463  0.8674  0.4487  0.5644
 9174SOL    HW139176   2.747   1.977   7.543 -0.7929  0.2442  1.5652
 9174SOL    HW239177   2.692   1.837   7.479  0.5569  0.3994  0.0434
 9175SOL     OW39178   0.925   0.922   5.669 -1.0799 -0.6157  0.2909
 9175SOL    HW139179   0.857   0.978   5.716 -0.9239  0.2711 -0.5256
 9175SOL    HW239180   0.886   0.832   5.649 -1.2012 -0.9365  1.9460
 9176SOL     OW39181   1.695   2.544   1.233 -0.2214 -0.1404  0.2923
 9176SOL    HW139182   1.596   2.547   1.248 -0.1819  0.0731  0.5221
 9176SOL    HW239183   1.742   2.537   1.321 -0.0437 -0.5897  0.1616
 9177SOL     OW39184   6.989   0.976   8.138  0.0759 -0.1750 -0.7617
 9177SOL    HW139185   7.042   1.038   8.079 -0.1546 -1.0097 -1.8605
 9177SOL    HW239186   6.906   0.948   8.091 -1.1880  0.8179  0.8066
 9178SOL     OW39187   8.410   6.411   0.055  0.2526  0.1122  0.3121
 9178SOL    HW139188   8.472   6.393   0.131 -1.0260  2.6365  2.0331
 9178SOL    HW239189   8.462   6.413  -0.031  2.2455  0.4045  1.4919
 9179SOL     OW39190   0.267   1.491   0.247 -0.2121  0.3542  0.4067
 9179SOL    HW139191   0.197   1.484   0.318 -0.2354 -1.6316  0.2315
 9179SOL    HW239192   0.320   1.407   0.245  0.8981  1.0666 -0.7947
 9180SOL     OW39193   2.483   9.965   7.326 -0.5403 -0.1394 -0.1743
 9180SOL    HW139194   2.450  10.029   7.256  0.0113  1.1149  0.7023
 9180SOL    HW239195   2.581   9.951   7.314 -0.4581  0.0189  0.2989
 9181SOL     OW39196   0.461   7.995   5.428 -0.3298  0.3172 -0.4823
 9181SOL    HW139197   0.370   7.998   5.469 -0.2940  0.1915 -0.3938
 9181SOL    HW239198   0.463   8.053   5.347 -0.1703  1.2190  0.1563
 9182SOL     OW39199   7.730   1.822   7.411  0.1033  0.4670 -0.0324
 9182SOL    HW139200   7.775   1.752   7.467  0.4995  1.7351  1.2807
 9182SOL    HW239201   7.774   1.827   7.322 -0.0674 -1.1013 -0.2109
 9183SOL     OW39202   8.851   5.660   4.929  0.0262  0.1984 -0.0360
 9183SOL    HW139203   8.928   5.704   4.883  1.9597 -0.3989  2.4965
 9183SOL    HW239204   8.843   5.565   4.897  0.4602  0.2093 -0.1809
 9184SOL     OW39205   0.738   8.369   2.526  0.2146 -0.0070 -0.0944
 9184SOL    HW139206   0.733   8.270   2.542 -0.5561 -0.0494 -0.5638
 9184SOL    HW239207   0.769   8.386   2.433  1.1802  0.2057  0.2618
 9185SOL     OW39208   1.343   3.854   3.332 -0.1750 -0.4943 -0.0265
 9185SOL    HW139209   1.278   3.801   3.386 -1.4331 -0.2854 -1.2769
 9185SOL    HW239210   1.355   3.945   3.372 -2.5525  0.3310 -1.1021
 9186SOL     OW39211   1.681   5.299   1.260  0.6546  0.0745 -0.1381
 9186SOL    HW139212   1.778   5.322   1.269  0.0215  1.9455  2.3233
 9186SOL    HW239213   1.663   5.211   1.303  1.2699 -0.2792 -0.6073
 9187SOL     OW39214   0.450   2.878   5.421  0.0695  0.4843  0.7890
 9187SOL    HW139215   0.499   2.867   5.507  0.2970 -0.3388  0.5548
 9187SOL    HW239216   0.442   2.790   5.375  2.3580  1.3333 -1.3278
 9188SOL     OW39217   1.945   3.863   3.197  0.4370  0.6126  0.5821
 9188SOL    HW139218   2.017   3.915   3.242  1.6496 -0.2876 -0.2830
 9188SOL    HW239219   1.888   3.925   3.143 -0.2388  1.5066  2.2857
 9189SOL     OW39220   4.014   0.712   4.268 -0.2900  0.3783  0.1305
 9189SOL    HW139221   4.112   0.689   4.271 -0.4643 -0.2525  1.4357
 9189SOL    HW239222   3.962   0.639   4.312 -1.2497  1.2345  0.4248
 9190SOL     OW39223   9.573   1.049   5.198  0.2293 -0.0104 -0.4652
 9190SOL    HW139224   9.560   1.148   5.187  1.4911  0.0540 -1.5387
 9190SOL    HW239225   9.512   1.000   5.136  1.9726  0.1986 -2.4222
 9191SOL     OW39226   1.838   4.486   0.189  0.0477 -0.5866  0.5717
 9191SOL    HW139227   1.789   4.510   0.105 -1.6619  0.0266  1.7150
 9191SOL    HW239228   1.936   4.497   0.174 -0.3151  0.9871 -0.8888
 9192SOL     OW39229   3.471   4.787   5.528 -0.0745 -0.4238 -0.0761
 9192SOL    HW139230   3.404   4.847   5.484  2.4227  1.4557 -1.4307
 9192SOL    HW239231   3.481   4.813   5.624 -1.4438 -0.9006  0.2133
 9193SOL     OW39232   1.906   0.941   0.062 -0.0948 -0.8825  0.1441
 9193SOL    HW139233   1.980   0.875   0.075 -1.4691 -2.3581  0.6065
 9193SOL    HW239234   1.874   0.973   0.151 -0.3222 -0.5869 -0.0457
 9194SOL     OW39235   0.853   6.944   2.193 -0.3601  0.2191  0.0239
 9194SOL    HW139236   0.928   6.883   2.221  0.4141  0.5998 -1.1651
 9194SOL    HW239237   0.772   6.890   2.171 -0.3935 -0.2105  1.1657
 9195SOL     OW39238   7.312   2.886   1.169  0.4129  0.1605 -0.7296
 9195SOL    HW139239   7.246   2.862   1.240 -0.1307  1.0951 -0.9036
 9195SOL    HW239240   7.394   2.829   1.178 -0.4331 -1.0433 -0.5450
 9196SOL     OW39241   2.379   0.558   3.574 -0.0418  0.4583 -0.1905
 9196SOL    HW139242   2.348   0.546   3.480 -2.8016 -1.6400  0.9248
 9196SOL    HW239243   2.304   0.595   3.629  2.0407  3.2311  0.8989
 9197SOL     OW39244   0.343   1.587   7.054 -0.3180  0.3134  0.3889
 9197SOL    HW139245   0.334   1.487   7.057 -1.8841  0.4421  0.3738
 9197SOL    HW239246   0.408   1.617   7.124  1.1424 -0.8117 -0.4473
 9198SOL     OW39247   9.472   5.459   0.339  0.2667 -0.3564 -0.1006
 9198SOL    HW139248   9.566   5.432   0.316 -0.1928  0.1224 -2.7323
 9198SOL    HW239249   9.442   5.409   0.419  2.6508 -0.7901  0.5820
 9199SOL     OW39250   4.005   7.904   5.573 -0.1135 -0.2799 -0.0907
 9199SOL    HW139251   4.025   7.974   5.505  0.9410  1.7568  2.2169
 9199SOL    HW239252   3.919   7.858   5.550  0.3200  0.1874 -2.8487
 9200SOL     OW39253   6.476   8.353   6.372 -0.1626 -0.1304 -0.1551
 9200SOL    HW139254   6.455   8.423   6.441  0.8272  0.4009 -0.3802
 9200SOL    HW239255   6.503   8.398   6.287 -0.7669 -0.7896 -0.7023
 9201SOL     OW39256   3.658   6.732   5.794 -0.4478  0.1693 -0.0410
 9201SOL    HW139257   3.660   6.830   5.773  2.6439  0.4490  1.1445
 9201SOL    HW239258   3.585   6.713   5.860 -1.7060  1.4926 -1.0311
 9202SOL     OW39259   9.870   7.498   6.510  0.5470 -0.1070 -0.4302
 9202SOL    HW139260   9.923   7.548   6.579 -1.2247 -0.1801  0.9960
 9202SOL    HW239261   9.828   7.563   6.446  0.2209  0.0952 -0.0114
 9203SOL     OW39262   0.651   6.432   2.817  0.2017 -0.2406  0.4013
 9203SOL    HW139263   0.729   6.369   2.823  0.8339  0.4343 -0.5516
 9203SOL    HW239264   0.684   6.524   2.795 -0.8108  0.2098  0.7156
 9204SOL     OW39265   2.974   2.414   5.400  0.3435  0.2705 -0.2815
 9204SOL    HW139266   2.957   2.494   5.342  0.8933  0.3587 -0.3315
 9204SOL    HW239267   3.073   2.400   5.407  0.2948  0.4481  0.8797
 9205SOL     OW39268   3.764   3.290   5.238 -0.4076 -0.0913  0.6451
 9205SOL    HW139269   3.679   3.246   5.208  0.3747 -0.7759 -0.6266
 9205SOL    HW239270   3.775   3.376   5.189 -0.2071 -0.1696  0.5513
 9206SOL     OW39271   7.257   6.703   4.809 -0.3736 -0.1212 -0.3892
 9206SOL    HW139272   7.188   6.631   4.802  0.1347 -0.6409 -0.1460
 9206SOL    HW239273   7.307   6.711   4.723 -0.5263  0.0341 -0.4621
 9207SOL     OW39274   9.583   1.984   1.528  0.3064  0.2141 -0.1262
 9207SOL    HW139275   9.627   1.923   1.462 -2.0534 -1.4836 -0.2148
 9207SOL    HW239276   9.628   1.975   1.617 -0.8517 -2.8524  0.2456
 9208SOL     OW39277   4.103   1.842   1.890 -0.1050 -0.5631  0.1913
 9208SOL    HW139278   4.153   1.756   1.895 -1.8164 -1.4659  2.0838
 9208SOL    HW239279   4.141   1.907   1.956  1.0425  0.0793 -1.0810
 9209SOL     OW39280   2.257   7.499   2.645 -0.5381  0.4061  0.0100
 9209SOL    HW139281   2.266   7.402   2.666  0.2888  0.5432  0.2894
 9209SOL    HW239282   2.341   7.547   2.671 -0.4557  0.9829 -1.2884
 9210SOL     OW39283   4.526   2.600   5.447  0.5549 -0.0878  0.3782
 9210SOL    HW139284   4.625   2.615   5.457  0.3798 -0.1501  2.5202
 9210SOL    HW239285   4.477   2.684   5.467  0.1214 -0.3332  0.3476
 9211SOL     OW39286   3.064   0.696   1.708 -0.0588 -0.0941  0.0269
 9211SOL    HW139287   3.120   0.614   1.695 -0.7183 -0.6606  0.7459
 9211SOL    HW239288   2.980   0.688   1.655 -1.3234 -1.0387  2.1434
 9212SOL     OW39289   1.159   3.557   1.457 -0.3721  0.2981 -0.2799
 9212SOL    HW139290   1.139   3.646   1.415  1.3423  1.1003  0.5189
 9212SOL    HW239291   1.083   3.495   1.442 -2.1166  2.2706  0.1085
 9213SOL     OW39292   0.925   9.162   3.267 -0.2589  0.2172  0.0515
 9213SOL    HW139293   0.859   9.110   3.212 -1.5044  0.1610  1.5771
 9213SOL    HW239294   1.016   9.153   3.226 -0.6893 -2.0339 -0.5217
 9214SOL     OW39295   6.687   8.035   6.274  0.2177 -0.0835  0.6548
 9214SOL    HW139296   6.697   8.134   6.282  2.0526 -0.0808 -1.2798
 9214SOL    HW239297   6.630   8.013   6.194  0.9189 -0.6214  0.2982
 9215SOL     OW39298   7.111   3.504   1.077  0.2050 -0.1101 -0.1485
 9215SOL    HW139299   7.116   3.490   0.978 -1.5916  0.9792 -0.4136
 9215SOL    HW239300   7.060   3.430   1.119 -0.4780  0.2990 -0.2535
 9216SOL     OW39301   3.335   4.502   0.025  0.0705  0.0591 -0.1365
 9216SOL    HW139302   3.249   4.492   0.074 -0.1956  0.7270 -0.4613
 9216SOL    HW239303   3.319   4.551  -0.061  0.5043 -1.2483 -0.9718
 9217SOL     OW39304   9.708   0.972   6.572 -0.1208 -0.0289 -0.2288
 9217SOL    HW139305   9.756   0.915   6.505  1.7665  2.4421 -1.0634
 9217SOL    HW239306   9.698   0.922   6.658 -2.0282 -3.0105 -2.1092
 9218SOL     OW39307   9.287   4.675   5.348 -0.4635 -0.2567 -0.4648
 9218SOL    HW139308   9.330   4.586   5.366 -0.4518  0.0253  0.9261
 9218SOL    HW239309   9.188   4.662   5.338 -0.5080 -0.3565  0.1467
 9219SOL     OW39310   8.136   1.918   6.457  0.1052 -0.0744  0.6116
 9219SOL    HW139311   8.229   1.885   6.442 -0.0865 -0.2426 -0.2369
 9219SOL    HW239312   8.097   1.874   6.538 -0.0033 -1.6371 -0.2726
 9220SOL     OW39313   4.820   3.010   0.303 -0.0972  0.0074 -0.1564
 9220SOL    HW139314   4.822   2.963   0.215 -1.7498  0.1108 -0.2629
 9220SOL    HW239315   4.847   3.105   0.291  2.0131 -0.5560 -0.1436
 9221SOL     OW39316   1.121   1.719   2.339  0.7296  0.2739 -0.1647
 9221SOL    HW139317   1.100   1.780   2.263 -1.5832  0.9781  0.9939
 9221SOL    HW239318   1.119   1.770   2.425 -2.4059 -1.5860  0.9402
 9222SOL     OW39319   3.798   3.858   6.281 -0.4035  0.0538 -0.1550
 9222SOL    HW139320   3.782   3.954   6.257  0.4781  0.2022 -0.1782
 9222SOL    HW239321   3.729   3.828   6.347 -0.9603  0.5685 -0.5053
 9223SOL     OW39322   8.895   9.954   6.883 -0.5151 -0.0082 -0.1432
 9223SOL    HW139323   8.874   9.866   6.926  0.2940  0.0268  0.3289
 9223SOL    HW239324   8.994   9.970   6.887 -0.6803  1.0102 -0.0676
 9224SOL     OW39325   8.226   4.166   5.569  0.3353  0.1116  0.1764
 9224SOL    HW139326   8.313   4.147   5.524  0.4859  0.9469  0.1113
 9224SOL    HW239327   8.242   4.185   5.666 -0.0985 -2.7757  0.8662
 9225SOL     OW39328   4.402   1.201   1.997 -0.3014  0.4098  0.6613
 9225SOL    HW139329   4.331   1.166   1.936  0.5304  0.0895 -0.1357
 9225SOL    HW239330   4.369   1.202   2.091 -1.9727  1.8749  0.0850
 9226SOL     OW39331   7.322   0.473   0.809 -0.5107 -0.0690  0.6113
 9226SOL    HW139332   7.360   0.561   0.781 -2.2143  0.6394  0.4968
 9226SOL    HW239333   7.269   0.484   0.893  1.8269 -1.5683  2.3381
 9227SOL     OW39334   5.611   2.512   5.173 -0.3392  0.3348  0.0915
 9227SOL    HW139335   5.646   2.557   5.090  0.5251  0.7303  0.6633
 9227SOL    HW239336   5.540   2.568   5.215 -1.5247 -0.3549 -0.9391
 9228SOL     OW39337   2.106   9.201   7.710 -0.4850  0.0387 -0.2759
 9228SOL    HW139338   2.151   9.288   7.728 -0.4134  0.0236 -0.3810
 9228SOL    HW239339   2.174   9.127   7.717 -1.0811 -0.2814  2.4828
 9229SOL     OW39340   8.173   4.342   6.960  0.1335 -0.6884 -0.1028
 9229SOL    HW139341   8.202   4.248   6.979  0.1735 -0.7852 -0.6288
 9229SOL    HW239342   8.132   4.346   6.869 -1.2177 -0.4878  0.4981
 9230SOL     OW39343   1.692   2.898   7.175  0.2966 -0.0170 -0.6329
 9230SOL    HW139344   1.618   2.832   7.182 -1.1514  1.1236 -4.1282
 9230SOL    HW239345   1.691   2.958   7.255 -1.6130 -0.9450  0.0601
 9231SOL     OW39346   9.838   3.535   1.520  0.0659  0.0541 -0.2920
 9231SOL    HW139347   9.742   3.558   1.502 -0.2015 -0.7410  0.0964
 9231SOL    HW239348   9.896   3.609   1.487 -0.6711  0.4724 -0.6803
 9232SOL     OW39349   4.684   2.983   5.475  0.9246  0.1950 -0.2439
 9232SOL    HW139350   4.711   2.943   5.388  1.7166  0.2640 -0.0296
 9232SOL    HW239351   4.763   3.026   5.519  0.3202  1.0221  0.0482
 9233SOL     OW39352   9.358   0.224   6.447  0.4855  0.1996  0.5340
 9233SOL    HW139353   9.446   0.179   6.457  1.5346  1.7325 -1.3694
 9233SOL    HW239354   9.352   0.267   6.356 -2.4316 -0.3409  0.4080
 9234SOL     OW39355   0.491   6.829   6.219 -0.0255  0.3384 -0.3790
 9234SOL    HW139356   0.486   6.851   6.122  0.8889  0.3688 -0.4182
 9234SOL    HW239357   0.552   6.751   6.233 -1.4834 -0.7653 -0.0043
 9235SOL     OW39358   2.633   1.323   3.541 -0.3077 -0.1480  0.2536
 9235SOL    HW139359   2.565   1.388   3.510  0.8387  0.9037 -0.0968
 9235SOL    HW239360   2.704   1.312   3.471  0.1522 -0.8498  0.8138
 9236SOL     OW39361   2.358   0.348   7.436  0.1471  0.5596 -0.1073
 9236SOL    HW139362   2.361   0.294   7.351 -0.6609  0.6395 -0.1943
 9236SOL    HW239363   2.262   0.368   7.458  0.2407 -0.8790  1.7144
 9237SOL     OW39364   3.518   4.358   2.625 -0.2973 -0.1954  0.5643
 9237SOL    HW139365   3.541   4.264   2.599  0.8597  0.8251 -2.3021
 9237SOL    HW239366   3.420   4.364   2.644 -0.8967 -1.3848 -2.0047
 9238SOL     OW39367   8.309   6.257   5.662 -0.0422  0.1317 -0.1484
 9238SOL    HW139368   8.400   6.249   5.702 -0.2937 -1.1623  0.2150
 9238SOL    HW239369   8.244   6.288   5.731  0.2595  1.8126 -0.6088
 9239SOL     OW39370   1.799   6.480   0.138  0.6394 -0.2645  0.0196
 9239SOL    HW139371   1.729   6.424   0.093  2.0243  0.0596 -2.6309
 9239SOL    HW239372   1.779   6.576   0.121  0.3147 -0.0761  1.4461
 9240SOL     OW39373   5.197   4.979   1.849  0.1624  0.2810  0.0989
 9240SOL    HW139374   5.139   4.908   1.809  0.5127 -0.0469  0.1669
 9240SOL    HW239375   5.246   5.027   1.775  0.4660 -0.0233  0.1011
 9241SOL     OW39376   9.879   4.706   6.348 -0.3483  0.1523 -0.2473
 9241SOL    HW139377   9.953   4.640   6.337 -1.2417 -1.4804  2.9583
 9241SOL    HW239378   9.809   4.689   6.278 -0.4679 -2.2111  0.3966
 9242SOL     OW39379   7.096   1.756   5.217  0.0974  0.0924 -0.4415
 9242SOL    HW139380   7.025   1.803   5.270  0.4495  1.0162 -0.7877
 9242SOL    HW239381   7.113   1.806   5.133  0.6641 -0.5160 -0.6891
 9243SOL     OW39382   8.043   8.898   6.534  0.5662  0.1907  0.2327
 9243SOL    HW139383   8.054   8.820   6.595  1.5480 -0.0605 -0.2533
 9243SOL    HW239384   8.069   8.871   6.441  2.2227  1.4627  0.3140
 9244SOL     OW39385   6.603   8.071   3.242 -0.2531 -0.1542  0.2239
 9244SOL    HW139386   6.524   8.058   3.302 -0.4570 -0.0681 -0.0288
 9244SOL    HW239387   6.672   8.001   3.263 -1.0387 -1.2022 -0.6231
 9245SOL     OW39388   5.998   3.457   0.873  0.1640 -0.0567 -0.1948
 9245SOL    HW139389   6.080   3.404   0.894 -0.6684  0.0107  3.4716
 9245SOL    HW239390   5.917   3.400   0.888 -0.5968  0.9922 -0.2641
 9246SOL     OW39391   2.527   6.277   5.010 -0.1197 -0.2894  0.3448
 9246SOL    HW139392   2.442   6.278   4.958  1.4179 -1.2480 -2.2713
 9246SOL    HW239393   2.559   6.371   5.024 -0.5938 -0.0157 -0.3934
 9247SOL     OW39394   5.502   0.519   2.260 -0.2922  0.0756 -0.0494
 9247SOL    HW139395   5.429   0.552   2.201 -0.9838 -0.9505  0.2270
 9247SOL    HW239396   5.582   0.497   2.204 -1.3173 -1.9543 -0.7603
 9248SOL     OW39397   2.213   8.604   7.619 -0.6934 -0.6081  0.4268
 9248SOL    HW139398   2.284   8.671   7.641 -1.8367  1.2104 -1.2489
 9248SOL    HW239399   2.147   8.599   7.694 -1.1837  0.9345  0.1048
 9249SOL     OW39400   0.325   6.928   3.601 -0.1029  0.2830  0.2031
 9249SOL    HW139401   0.344   6.951   3.505 -1.2551  1.6503  0.2850
 9249SOL    HW239402   0.306   6.830   3.608 -0.5780  0.2740 -1.0700
 9250SOL     OW39403   3.361   8.730   8.194  0.2840 -0.0343 -0.2977
 9250SOL    HW139404   3.315   8.800   8.139 -0.0708  0.1128  0.1793
 9250SOL    HW239405   3.457   8.754   8.205  0.3312 -0.0102 -0.7675
 9251SOL     OW39406   3.590   0.780   0.874  0.0975  0.3200 -0.1639
 9251SOL    HW139407   3.583   0.686   0.909 -2.2597  1.0734  1.4662
 9251SOL    HW239408   3.660   0.829   0.925  0.4935 -0.1898 -0.2054
 9252SOL     OW39409   5.070   0.154   1.540  0.2366 -0.9326  0.1344
 9252SOL    HW139410   4.972   0.172   1.532  0.0318 -2.1303 -0.0914
 9252SOL    HW239411   5.094   0.074   1.485  1.5665  0.1072 -0.8287
 9253SOL     OW39412   3.089   9.103   3.202  0.3473 -0.3953  0.4416
 9253SOL    HW139413   3.009   9.080   3.258  0.6527 -2.1388  0.1774
 9253SOL    HW239414   3.086   9.052   3.117  0.6780  1.1183 -0.4893
 9254SOL     OW39415   8.784   9.588   4.597  0.5049  0.0122 -0.2295
 9254SOL    HW139416   8.844   9.592   4.676  0.7512 -0.9804 -0.3585
 9254SOL    HW239417   8.759   9.493   4.579 -1.9576  0.5032  0.4605
 9255SOL     OW39418   8.504   8.006   1.754  0.1290  0.6110  0.2612
 9255SOL    HW139419   8.471   7.953   1.832 -0.3128 -2.0225 -1.6459
 9255SOL    HW239420   8.495   8.104   1.774 -2.1743 -0.0165  2.5717
 9256SOL     OW39421   9.011   5.183   3.777  0.2961 -0.2916 -0.2137
 9256SOL    HW139422   8.990   5.215   3.685 -1.5410  1.1272  0.6652
 9256SOL    HW239423   9.109   5.187   3.793  0.4885  0.8469 -1.6048
 9257SOL     OW39424   1.278   5.752   2.038 -0.1368 -0.0241  0.1580
 9257SOL    HW139425   1.326   5.749   2.126 -1.0191 -0.0135  0.6405
 9257SOL    HW239426   1.342   5.726   1.965  0.0606 -2.0431  1.0143
 9258SOL     OW39427   2.480   1.042   7.837  0.2191  0.5577 -0.0533
 9258SOL    HW139428   2.425   1.122   7.859 -0.1654  0.9152 -2.2069
 9258SOL    HW239429   2.575   1.070   7.822  0.1015  0.6064 -0.7219
 9259SOL     OW39430   2.133   9.495   2.706  0.0532 -0.5832  0.8224
 9259SOL    HW139431   2.199   9.438   2.657 -0.1094 -0.1026  0.0274
 9259SOL    HW239432   2.175   9.583   2.728  0.2890 -0.9803  2.0042
 9260SOL     OW39433   2.822   7.953   3.090  0.7756 -0.1654  0.1563
 9260SOL    HW139434   2.730   7.920   3.070 -0.6800  2.2626  2.5224
 9260SOL    HW239435   2.864   7.894   3.158 -0.0122  0.0820  0.8778
 9261SOL     OW39436   1.727   6.757   7.413 -0.2879 -1.0200 -0.2455
 9261SOL    HW139437   1.650   6.735   7.473 -0.5685  0.2797 -0.1230
 9261SOL    HW239438   1.803   6.695   7.433 -0.1956 -0.2998  1.8029
 9262SOL     OW39439   4.884   8.960   0.996  0.0213 -0.4781 -0.6785
 9262SOL    HW139440   4.799   8.981   0.949 -0.1960  1.1271  0.4010
 9262SOL    HW239441   4.887   8.862   1.018 -2.0876 -0.3401  0.3260
 9263SOL     OW39442   0.710   9.921   3.751  0.1686 -0.0867 -0.3934
 9263SOL    HW139443   0.620   9.885   3.775 -0.4452  1.3098 -0.5008
 9263SOL    HW239444   0.707   9.959   3.658  0.3145  1.7063  0.3103
 9264SOL     OW39445   4.784   9.645   6.957 -0.1495 -0.1553 -0.2629
 9264SOL    HW139446   4.772   9.546   6.955 -1.5112 -0.0167  0.5255
 9264SOL    HW239447   4.753   9.680   7.045 -2.5439  1.3349 -1.6653
 9265SOL     OW39448   7.278   1.515   6.239 -0.0202 -0.2583 -0.0392
 9265SOL    HW139449   7.330   1.511   6.153 -0.7007 -0.8554 -0.4293
 9265SOL    HW239450   7.304   1.439   6.298  1.3896  0.8862  0.8362
 9266SOL     OW39451   4.310   2.384   4.099  0.1481  0.1428  0.0274
 9266SOL    HW139452   4.264   2.367   4.012  0.7289 -1.7339  0.0638
 9266SOL    HW239453   4.244   2.375   4.173  0.2762 -1.2314 -0.0153
 9267SOL     OW39454   0.170   3.177   8.149 -0.0845 -0.0257 -0.0081
 9267SOL    HW139455   0.190   3.257   8.093 -0.2130 -0.1105 -0.1743
 9267SOL    HW239456   0.089   3.131   8.114  1.6235 -1.8856 -1.6658
 9268SOL     OW39457   6.928   1.114   0.164  0.1143 -0.3459  0.3574
 9268SOL    HW139458   6.938   1.100   0.065  1.2414  0.3389  0.3611
 9268SOL    HW239459   6.993   1.184   0.194 -2.4207  1.8029  1.0459
 9269SOL     OW39460   3.142   9.817   6.454  0.0514 -0.7890 -0.0968
 9269SOL    HW139461   3.118   9.729   6.495  0.0893 -0.6549  0.2169
 9269SOL    HW239462   3.231   9.810   6.410  0.4651 -0.6571  0.7170
 9270SOL     OW39463   1.609   8.868   4.524  0.2605  0.2687 -0.7538
 9270SOL    HW139464   1.544   8.801   4.559  0.6329 -0.2447 -1.0442
 9270SOL    HW239465   1.637   8.930   4.598  0.9457 -0.7310 -0.1670
 9271SOL     OW39466   8.033   6.092   6.511 -0.0889  0.5220 -0.0681
 9271SOL    HW139467   8.061   6.016   6.569  0.6227 -0.5599 -1.8000
 9271SOL    HW239468   8.110   6.122   6.456 -0.6552  1.7917 -0.1860
 9272SOL     OW39469   8.811   5.202   3.963  0.2389  0.3337  0.4951
 9272SOL    HW139470   8.875   5.173   4.034  0.2563 -1.1571 -0.1015
 9272SOL    HW239471   8.848   5.176   3.873 -0.1963  1.4070 -0.0054
 9273SOL     OW39472   3.582   4.004   5.682  0.0824 -0.1887 -0.0143
 9273SOL    HW139473   3.672   3.984   5.723  0.9399 -0.9800 -2.2139
 9273SOL    HW239474   3.562   4.102   5.693  0.8406 -0.1580  1.2178
 9274SOL     OW39475   4.017   0.932   6.414  0.3357  0.2872 -0.3580
 9274SOL    HW139476   4.054   1.024   6.406 -1.4229  1.1331  0.9466
 9274SOL    HW239477   3.952   0.928   6.490  0.6928 -2.1357 -0.1087
 9275SOL     OW39478   0.511   1.400   7.666 -0.2403  0.4050  0.1113
 9275SOL    HW139479   0.587   1.401   7.731 -0.2103 -2.6191  0.1776
 9275SOL    HW239480   0.425   1.385   7.715 -0.7467  2.4855 -0.1052
 9276SOL     OW39481   0.121   5.498   7.841  0.1753  0.6086 -0.4607
 9276SOL    HW139482   0.104   5.503   7.939  1.9256  0.0656 -0.1124
 9276SOL    HW239483   0.058   5.432   7.799  0.3263 -0.1638  0.5158
 9277SOL     OW39484   0.331   9.268   0.469 -0.3508  0.0254 -0.1270
 9277SOL    HW139485   0.257   9.293   0.406 -1.1155  0.2309  0.8440
 9277SOL    HW239486   0.298   9.273   0.563  1.0694  0.6424  0.3467
 9278SOL     OW39487   6.735   3.430   0.778 -0.4719 -0.2378 -0.2300
 9278SOL    HW139488   6.786   3.514   0.797  0.7536 -1.0255 -0.0073
 9278SOL    HW239489   6.765   3.358   0.840 -0.9475 -1.0655 -0.9553
 9279SOL     OW39490   2.719   8.145   4.788  0.0575  0.0959  0.4314
 9279SOL    HW139491   2.724   8.190   4.877  0.6449  0.9959 -0.0574
 9279SOL    HW239492   2.738   8.047   4.800  1.0290  0.3624  1.1745
 9280SOL     OW39493   4.402   9.975   3.348  0.2621  0.1846 -0.0653
 9280SOL    HW139494   4.307  10.003   3.356  0.2583  0.2039 -0.1766
 9280SOL    HW239495   4.407   9.875   3.342  0.2314  0.1943 -0.2818
 9281SOL     OW39496   3.583   0.420   2.753 -0.1434 -0.1225  0.5470
 9281SOL    HW139497   3.554   0.459   2.839 -0.2076 -2.2534  1.5328
 9281SOL    HW239498   3.522   0.344   2.728  1.1532 -0.9233 -0.2629
 9282SOL     OW39499   3.938   0.615   7.125 -0.0723 -0.5988  0.1225
 9282SOL    HW139500   3.869   0.583   7.191  0.6302 -0.4589  0.9417
 9282SOL    HW239501   3.896   0.628   7.036 -1.3663  0.6002  0.8848
 9283SOL     OW39502   9.749   0.980   0.358 -0.3742  0.0538  0.1732
 9283SOL    HW139503   9.844   0.984   0.391 -0.5228 -0.0393  0.6072
 9283SOL    HW239504   9.695   0.921   0.417 -0.6846  0.0300 -0.1320
 9284SOL     OW39505   7.444   1.908   7.801  0.3229  0.0559 -0.0321
 9284SOL    HW139506   7.356   1.872   7.831  0.4388 -0.2965 -0.1113
 9284SOL    HW239507   7.458   1.885   7.705  1.0456 -0.9594  0.3080
 9285SOL     OW39508   1.640   2.893   1.162  0.1036 -0.1417  0.1077
 9285SOL    HW139509   1.696   2.870   1.084 -0.3212  1.5023 -0.7117
 9285SOL    HW239510   1.543   2.879   1.140 -0.0222  0.3610  0.3169
 9286SOL     OW39511   1.168   9.151   1.755  0.0927 -0.4398  0.2557
 9286SOL    HW139512   1.176   9.130   1.658  0.7023  1.4735 -0.1297
 9286SOL    HW239513   1.251   9.120   1.803 -0.2921 -1.5549  0.2127
 9287SOL     OW39514   5.027   4.399   5.602  0.0029 -0.4494 -0.1903
 9287SOL    HW139515   5.031   4.321   5.539 -1.4678 -0.5630 -0.1507
 9287SOL    HW239516   4.979   4.372   5.685 -0.5951  0.5337 -0.2155
 9288SOL     OW39517   1.500   2.506   4.984  1.0354 -0.4304  0.1954
 9288SOL    HW139518   1.551   2.513   5.069 -1.9254 -0.3307  2.0626
 9288SOL    HW239519   1.457   2.594   4.963 -2.2841 -1.6840  1.3414
 9289SOL     OW39520   5.366   0.877   4.788  0.0733  0.1404  0.0956
 9289SOL    HW139521   5.386   0.788   4.828 -2.4023 -0.5061  0.0033
 9289SOL    HW239522   5.327   0.864   4.696 -1.3408  1.2377  0.5176
 9290SOL     OW39523   6.538   9.867   3.954 -0.6128 -0.2350 -0.1793
 9290SOL    HW139524   6.578   9.944   4.004 -0.7097  1.3959 -2.5429
 9290SOL    HW239525   6.606   9.828   3.892 -1.8205  0.8581 -2.2742
 9291SOL     OW39526   2.573   3.890   4.111 -0.6361  0.4060  0.0832
 9291SOL    HW139527   2.569   3.878   4.011  0.1042  0.4298  0.0478
 9291SOL    HW239528   2.654   3.944   4.135  0.1497 -1.0549  0.8213
 9292SOL     OW39529   0.443   4.412   2.957 -0.8043 -0.5927 -0.4761
 9292SOL    HW139530   0.344   4.413   2.970 -0.7009  1.7633  0.3567
 9292SOL    HW239531   0.480   4.503   2.974  1.5459 -1.4842 -0.5973
 9293SOL     OW39532   1.608   3.740   0.321  0.3474 -0.5802  0.2795
 9293SOL    HW139533   1.588   3.828   0.277 -1.7987 -2.5606 -2.8943
 9293SOL    HW239534   1.693   3.702   0.284  0.1876 -0.8129  0.1537
 9294SOL     OW39535   2.101   0.145   0.391  0.1639  0.0327  0.2211
 9294SOL    HW139536   2.187   0.105   0.421 -0.8324 -0.9838  1.7724
 9294SOL    HW239537   2.079   0.111   0.299 -0.1841 -2.2532  1.1209
 9295SOL     OW39538   7.347   1.677   2.788 -0.1440  0.2650 -0.6309
 9295SOL    HW139539   7.427   1.620   2.775 -1.3862 -1.4161 -0.9909
 9295SOL    HW239540   7.376   1.769   2.815  1.9030 -0.1908 -1.2038
 9296SOL     OW39541   4.804   3.819   8.158 -0.4856 -0.4607  0.4062
 9296SOL    HW139542   4.809   3.874   8.242  0.9084  2.6522 -1.6152
 9296SOL    HW239543   4.896   3.792   8.130 -0.8878 -1.0332 -0.3936
 9297SOL     OW39544   5.020   1.170   5.141  0.0673 -0.1202 -0.1086
 9297SOL    HW139545   5.085   1.150   5.215 -0.8265 -1.0765  0.4306
 9297SOL    HW239546   5.025   1.099   5.072 -0.3959 -0.1899 -0.0730
 9298SOL     OW39547   7.784   7.448   4.640 -0.3292  0.3577 -0.5038
 9298SOL    HW139548   7.741   7.408   4.559 -0.7382 -0.3820  0.0629
 9298SOL    HW239549   7.718   7.509   4.685 -1.1413 -1.4355  0.8425
 9299SOL     OW39550   2.451   3.703   5.632  0.2345  0.2367  0.1907
 9299SOL    HW139551   2.461   3.799   5.659  4.1230 -0.7474  2.6728
 9299SOL    HW239552   2.415   3.651   5.710  0.8217 -0.7899 -0.2231
 9300SOL     OW39553   0.721   9.492   2.322  0.0988  0.3575  0.2188
 9300SOL    HW139554   0.625   9.465   2.313 -0.0937  0.9562  0.4864
 9300SOL    HW239555   0.774   9.452   2.247 -0.7962  2.0357 -1.3448
 9301SOL     OW39556   1.206   4.708   3.893 -1.0613 -0.1266 -0.3827
 9301SOL    HW139557   1.285   4.661   3.853 -0.1144  0.7121  0.4733
 9301SOL    HW239558   1.201   4.801   3.856 -1.5784 -0.1387 -0.3465
 9302SOL     OW39559   8.142   7.633   1.754  0.4856  0.2355  0.5099
 9302SOL    HW139560   8.221   7.577   1.780  0.5073  0.4526  0.9089
 9302SOL    HW239561   8.160   7.677   1.666 -0.2480 -1.8317 -0.7284
 9303SOL     OW39562   9.247   5.228   3.540 -0.3794 -0.1657 -0.0576
 9303SOL    HW139563   9.226   5.320   3.508 -0.3632  0.1119  0.7191
 9303SOL    HW239564   9.191   5.162   3.490 -0.0400  0.2218 -0.9552
 9304SOL     OW39565   9.911   7.900   0.931 -0.0014 -0.5079 -0.5733
 9304SOL    HW139566   9.860   7.836   0.989 -0.6500  0.1032 -0.4684
 9304SOL    HW239567   9.879   7.893   0.836 -0.5310  0.1305 -0.4439
 9305SOL     OW39568   1.659   5.872   8.115 -0.2085 -0.5473  0.5533
 9305SOL    HW139569   1.758   5.868   8.131 -0.1474  1.0015  0.6408
 9305SOL    HW239570   1.642   5.888   8.018 -0.3454  0.3789  0.7289
 9306SOL     OW39571   9.234   5.822   5.585 -0.2350 -0.3987  1.0317
 9306SOL    HW139572   9.248   5.723   5.571  1.0601 -0.2779  1.3846
 9306SOL    HW239573   9.244   5.843   5.683  1.7364  0.3966  0.6997
 9307SOL     OW39574   8.091   3.381   0.028 -0.2107  0.1116 -0.0206
 9307SOL    HW139575   8.111   3.294   0.074  0.8722  1.1029  1.4173
 9307SOL    HW239576   8.139   3.385  -0.059 -0.5707 -0.8832 -0.2742
 9308SOL     OW39577   6.137   7.626   6.007  0.3165  0.0734  0.1221
 9308SOL    HW139578   6.141   7.724   5.985 -0.6544 -0.0164 -0.4620
 9308SOL    HW239579   6.216   7.602   6.064  2.8583  0.3312 -3.1414
 9309SOL     OW39580   1.290   4.743   0.960  0.5148 -0.2985  0.3853
 9309SOL    HW139581   1.282   4.756   1.059  3.1343  1.2956  0.4459
 9309SOL    HW239582   1.381   4.708   0.938  0.5579  0.9674 -1.5886
 9310SOL     OW39583   1.557   8.484   5.094  0.2661 -0.0425 -0.0792
 9310SOL    HW139584   1.600   8.401   5.059  0.3426 -0.1277  0.2177
 9310SOL    HW239585   1.457   8.475   5.086  0.2122 -0.7976  1.3735
 9311SOL     OW39586   3.296   5.137   5.900  0.2020 -0.2635 -0.4137
 9311SOL    HW139587   3.247   5.061   5.857  0.6199  0.0344 -1.4429
 9311SOL    HW239588   3.376   5.103   5.948  0.8529 -0.3905 -1.5783
 9312SOL     OW39589   7.273   3.251   4.681  0.1470 -0.3409  0.2196
 9312SOL    HW139590   7.315   3.246   4.772 -0.5488  1.5347  0.6622
 9312SOL    HW239591   7.258   3.347   4.657 -1.0636 -0.8867 -1.2356
 9313SOL     OW39592   0.646   5.697   5.022 -0.2310  0.2869 -0.4670
 9313SOL    HW139593   0.693   5.693   5.110  1.3130 -2.3222 -1.3503
 9313SOL    HW239594   0.553   5.663   5.032  0.0197 -0.2257  0.1088
 9314SOL     OW39595   2.907   3.794   1.817  0.4391  0.8509  0.3289
 9314SOL    HW139596   2.841   3.866   1.840 -0.2926  0.4334 -0.4433
 9314SOL    HW239597   2.920   3.734   1.896 -0.9872  0.2495  0.1110
 9315SOL     OW39598   9.957   0.025   3.186 -1.2702  0.0511 -0.1948
 9315SOL    HW139599   9.911   0.075   3.260  1.3704  0.5453  1.1840
 9315SOL    HW239600   9.955  -0.073   3.205 -2.1706  0.0270 -0.3997
 9316SOL     OW39601   8.351   6.851   2.961  0.1868 -0.0066  0.0113
 9316SOL    HW139602   8.433   6.888   3.005  1.6985 -3.1504 -0.0763
 9316SOL    HW239603   8.333   6.902   2.877  1.2112  1.6389  0.7649
 9317SOL     OW39604   0.945   7.325   2.314  0.1608 -0.3725  1.1905
 9317SOL    HW139605   0.907   7.237   2.343  0.0705 -0.9227 -0.5245
 9317SOL    HW239606   0.945   7.330   2.214  0.9214  1.2513  1.2523
 9318SOL     OW39607   5.445   2.466   0.452  0.2297 -0.5776 -0.2270
 9318SOL    HW139608   5.442   2.528   0.531  0.3558 -0.7819 -0.0604
 9318SOL    HW239609   5.381   2.391   0.467  1.0297 -1.1826  0.1578
 9319SOL     OW39610   0.646   9.975   0.339 -0.1566  0.2465 -0.3430
 9319SOL    HW139611   0.591  10.041   0.390  0.1736  1.1257 -1.1193
 9319SOL    HW239612   0.720  10.022   0.292  2.3474 -1.1035  2.1000
 9320SOL     OW39613   9.677   2.903   4.125 -0.1529  0.2359  0.2971
 9320SOL    HW139614   9.704   2.860   4.210  0.8713 -0.5622 -0.4235
 9320SOL    HW239615   9.582   2.878   4.103  0.4102 -1.6063 -0.0776
 9321SOL     OW39616   2.952   8.599   1.689 -0.1362  0.0540  0.1183
 9321SOL    HW139617   2.862   8.593   1.734 -0.1528 -1.2822 -0.0539
 9321SOL    HW239618   3.019   8.547   1.743 -0.0224 -1.0498 -1.0569
 9322SOL     OW39619   1.019   7.777   7.020 -0.0358  0.1334  0.4341
 9322SOL    HW139620   0.940   7.809   6.968 -0.7717  0.8454  1.9501
 9322SOL    HW239621   1.022   7.677   7.020  0.8218  0.1309 -2.1883
 9323SOL     OW39622   6.500   8.748   4.407 -0.3178 -0.1863  0.3873
 9323SOL    HW139623   6.554   8.700   4.338 -0.3521 -0.7712  0.7587
 9323SOL    HW239624   6.403   8.727   4.394 -0.4635  0.8938 -0.3027
 9324SOL     OW39625   5.507   1.434   6.689 -0.3871  0.2732 -0.1054
 9324SOL    HW139626   5.602   1.427   6.659 -0.5428  1.1687 -0.8624
 9324SOL    HW239627   5.447   1.426   6.609 -0.7844  3.3283 -0.1988
 9325SOL     OW39628   1.668   8.130   3.681  0.4053 -0.1867 -0.0488
 9325SOL    HW139629   1.692   8.043   3.638  2.7123  0.2988  0.2198
 9325SOL    HW239630   1.596   8.174   3.627 -0.0108 -1.7277 -0.8063
 9326SOL     OW39631   6.611   1.417   4.563  0.1120 -0.6259  0.3491
 9326SOL    HW139632   6.700   1.441   4.603  0.3329 -0.4891 -0.2179
 9326SOL    HW239633   6.623   1.392   4.467 -0.3948 -1.1018  0.4074
 9327SOL     OW39634   2.429   2.959   8.037 -0.1281 -0.4025  0.4732
 9327SOL    HW139635   2.336   2.925   8.019  0.3533 -1.6177  0.2127
 9327SOL    HW239636   2.481   2.961   7.951  0.2840 -0.3297  0.7222
 9328SOL     OW39637   2.422   7.808   0.278  0.5524  0.1523 -0.8680
 9328SOL    HW139638   2.476   7.891   0.263 -0.5416  0.8388 -1.0604
 9328SOL    HW239639   2.329   7.823   0.246  0.1238 -0.8699 -0.1131
 9329SOL     OW39640   2.609   5.284   7.007 -0.1791 -0.6575  0.0952
 9329SOL    HW139641   2.686   5.341   7.036  1.5037 -2.8920  0.1158
 9329SOL    HW239642   2.629   5.244   6.917 -2.0401  0.0307 -0.6588
 9330SOL     OW39643   3.777   7.757   6.195 -0.3337  0.4076  0.1108
 9330SOL    HW139644   3.730   7.699   6.262 -1.8876 -0.5409 -1.7487
 9330SOL    HW239645   3.710   7.816   6.150  0.5034  0.1896 -1.4443
 9331SOL     OW39646   9.758   2.601   0.740  0.2701  0.3303  0.6428
 9331SOL    HW139647   9.853   2.570   0.746  0.4239  0.5963 -0.3814
 9331SOL    HW239648   9.755   2.701   0.740 -0.0417  0.3227  1.0946
 9332SOL     OW39649   3.177   0.263   2.538  0.6683  0.5045 -0.0667
 9332SOL    HW139650   3.098   0.293   2.592  0.1718  0.7930 -0.9485
 9332SOL    HW239651   3.173   0.164   2.526  0.3787  0.5311 -0.2036
 9333SOL     OW39652   1.011   7.056   1.145  0.2378  0.6553 -0.1930
 9333SOL    HW139653   0.949   7.132   1.166 -2.6168 -1.4463 -0.8562
 9333SOL    HW239654   1.037   7.061   1.048  0.2094  0.8873 -0.1910
 9334SOL     OW39655   2.686   3.492   7.939 -0.2176  0.3480  0.6749
 9334SOL    HW139656   2.735   3.577   7.961  0.5122  0.3685 -0.9439
 9334SOL    HW239657   2.640   3.458   8.020  1.2051  1.1841  1.8543
 9335SOL     OW39658   7.172   8.448   4.443 -0.1626  0.0768  0.3894
 9335SOL    HW139659   7.115   8.529   4.458  0.0532  0.2086  0.5176
 9335SOL    HW239660   7.201   8.411   4.531  0.8133  0.6371  0.3097
 9336SOL     OW39661   7.257   4.500   1.591  0.0989 -0.1212  0.3433
 9336SOL    HW139662   7.285   4.554   1.511  1.6420  0.1340  1.0322
 9336SOL    HW239663   7.227   4.562   1.664 -0.9548 -0.3372  0.1036
 9337SOL     OW39664   6.844   0.811   3.691 -0.2071  0.4837  0.3935
 9337SOL    HW139665   6.941   0.826   3.674  0.1478 -1.2928  0.7918
 9337SOL    HW239666   6.829   0.799   3.789 -0.8913  1.0932  0.3733
 9338SOL     OW39667   3.160   8.101   4.776 -0.2809  0.5233  0.1888
 9338SOL    HW139668   3.097   8.176   4.756 -0.2817  0.7920  1.1776
 9338SOL    HW239669   3.249   8.138   4.803 -0.4114  0.1847  1.1184
 9339SOL     OW39670   7.489   7.861   5.977 -0.0605  0.1151 -0.1243
 9339SOL    HW139671   7.460   7.904   6.062  0.6347 -1.0272  0.6951
 9339SOL    HW239672   7.416   7.804   5.941 -0.2524  0.3809 -0.1585
 9340SOL     OW39673   4.299   8.150   4.476 -0.2174  0.0910  0.2954
 9340SOL    HW139674   4.334   8.115   4.563  0.4086 -1.1373 -0.4380
 9340SOL    HW239675   4.276   8.073   4.416 -1.4435  0.9177 -0.3102
 9341SOL     OW39676   1.548   0.354   3.231  0.1587  0.2945  0.0509
 9341SOL    HW139677   1.600   0.415   3.292  1.9138 -1.0713 -0.0563
 9341SOL    HW239678   1.530   0.401   3.145  1.9473  0.5099 -0.2242
 9342SOL     OW39679   8.881   0.800   6.348  0.3439  0.2261  0.0226
 9342SOL    HW139680   8.967   0.836   6.311  1.2287 -0.6967  1.1101
 9342SOL    HW239681   8.827   0.875   6.386  0.9831  0.7443 -0.0677
 9343SOL     OW39682   4.781   2.558   3.380  0.7400 -0.0628  0.5187
 9343SOL    HW139683   4.702   2.540   3.439  1.2586  0.9860  1.5502
 9343SOL    HW239684   4.755   2.543   3.284 -0.7725  0.5074  0.8296
 9344SOL     OW39685   7.758   5.210   0.065  0.0348  0.5949  0.1816
 9344SOL    HW139686   7.663   5.177   0.065  0.3870 -0.4643 -0.2498
 9344SOL    HW239687   7.769   5.279  -0.006 -0.3625  0.5495  0.0737
 9345SOL     OW39688   6.400   6.001   0.479 -0.0229  0.2087  0.4856
 9345SOL    HW139689   6.411   5.904   0.456  0.1461  0.1867  0.6651
 9345SOL    HW239690   6.310   6.032   0.448 -0.6466 -0.3713  1.6905
 9346SOL     OW39691   9.941   2.822   4.044 -0.2128 -0.4253 -0.0398
 9346SOL    HW139692   9.927   2.781   3.954  1.4966  0.8780 -0.9214
 9346SOL    HW239693   9.853   2.855   4.079 -0.9909 -1.5053 -0.9518
 9347SOL     OW39694   7.535   2.256   4.533  0.4599 -0.2699 -0.3080
 9347SOL    HW139695   7.539   2.328   4.603  0.5074 -0.8434  0.2871
 9347SOL    HW239696   7.543   2.297   4.443 -1.2571  0.6698 -0.0618
 9348SOL     OW39697   6.353   0.685   1.769  0.0719  0.1680  0.6361
 9348SOL    HW139698   6.375   0.594   1.736 -0.4301  0.5832 -0.8725
 9348SOL    HW239699   6.257   0.689   1.796 -0.6853  0.9930 -2.0025
 9349SOL     OW39700   3.338   9.748   1.292  0.3282 -0.0451 -0.1304
 9349SOL    HW139701   3.300   9.685   1.225  0.2170 -0.6259  0.4789
 9349SOL    HW239702   3.331   9.709   1.383  1.4364  0.2866  0.1082
 9350SOL     OW39703   4.045   2.035   7.664  0.6915 -0.2760  0.0345
 9350SOL    HW139704   4.111   1.981   7.612  0.1383 -2.5037  1.5642
 9350SOL    HW239705   3.981   1.974   7.710 -1.0678  1.7744  0.4029
 9351SOL     OW39706   0.635   9.895   2.911 -0.9949 -0.1831  0.5393
 9351SOL    HW139707   0.655   9.846   2.827 -0.3038  1.1198 -0.0685
 9351SOL    HW239708   0.589   9.834   2.976  0.7809 -1.9210  0.1868
 9352SOL     OW39709   7.379   2.535   1.858 -0.1314  0.4472 -0.1508
 9352SOL    HW139710   7.323   2.568   1.934  0.7597 -0.6625  1.0073
 9352SOL    HW239711   7.451   2.475   1.893  2.0683  2.1913 -1.5643
 9353SOL     OW39712   0.112   2.951   3.685  0.2778 -0.0955  0.2221
 9353SOL    HW139713   0.044   3.016   3.652  0.6418  1.6260  2.7337
 9353SOL    HW239714   0.203   2.977   3.652  0.1091 -0.7235 -0.7462
 9354SOL     OW39715   4.613   7.238   3.744 -0.0653 -0.1286 -0.2320
 9354SOL    HW139716   4.598   7.336   3.732  1.6337  0.1165 -0.5499
 9354SOL    HW239717   4.536   7.198   3.793 -0.8858  1.3207 -0.3088
 9355SOL     OW39718   5.976   0.089   2.966  0.0203  0.8386  0.2618
 9355SOL    HW139719   6.074   0.068   2.968 -0.2447 -0.9705 -2.9406
 9355SOL    HW239720   5.928   0.034   3.034  1.1981  1.6832  1.8020
 9356SOL     OW39721   9.651   9.257   4.396  0.0139  0.0790 -0.5351
 9356SOL    HW139722   9.660   9.323   4.321 -2.5938 -0.6374 -1.5492
 9356SOL    HW239723   9.649   9.164   4.357  3.0465 -0.6015  0.8184
 9357SOL     OW39724   1.449   4.619   4.323 -0.1009  0.3608  0.1468
 9357SOL    HW139725   1.509   4.700   4.320 -0.1391  0.3622 -0.9127
 9357SOL    HW239726   1.466   4.563   4.242 -0.3147 -0.5269  0.7164
 9358SOL     OW39727   4.219   0.767   4.887 -0.2339  0.3765  0.1883
 9358SOL    HW139728   4.261   0.798   4.973 -0.4360  1.2801 -0.0273
 9358SOL    HW239729   4.130   0.812   4.876 -0.0247  0.5796 -0.6883
 9359SOL     OW39730   7.256   5.767   7.800 -0.4141 -1.1218 -1.0349
 9359SOL    HW139731   7.241   5.669   7.809 -1.2721 -0.9784 -0.9059
 9359SOL    HW239732   7.278   5.789   7.705  0.5362 -1.5370 -0.9146
 9360SOL     OW39733   3.144   3.071   1.116  0.6526 -0.3762 -0.5802
 9360SOL    HW139734   3.232   3.062   1.163  0.3857 -0.1381 -0.0389
 9360SOL    HW239735   3.072   3.033   1.173  0.4646 -1.0280 -1.2385
 9361SOL     OW39736   4.681   5.379   1.262 -0.3250  0.3171 -0.2732
 9361SOL    HW139737   4.624   5.297   1.251  0.1786 -0.0047 -0.4884
 9361SOL    HW239738   4.771   5.363   1.221  0.3322  0.3885  1.1093
 9362SOL     OW39739   9.302   1.196   6.421  0.0475  0.3546 -0.2714
 9362SOL    HW139740   9.213   1.213   6.465  0.0018  1.9647 -0.9754
 9362SOL    HW239741   9.346   1.118   6.466 -1.4778 -0.1255  0.4374
 9363SOL     OW39742   3.311   8.719   1.193 -0.2228 -0.0512  0.2485
 9363SOL    HW139743   3.287   8.632   1.148  0.9858 -0.3657  0.2007
 9363SOL    HW239744   3.314   8.705   1.292  0.8020 -0.2793  0.1912
 9364SOL     OW39745   9.608   5.752   4.526 -0.0078  0.3997 -0.4562
 9364SOL    HW139746   9.637   5.847   4.521  1.1244 -0.0006 -1.7877
 9364SOL    HW239747   9.579   5.721   4.436 -1.1298 -0.2837  0.1311
 9365SOL     OW39748   5.517   0.114   2.356  0.2079  0.5814 -0.7516
 9365SOL    HW139749   5.617   0.113   2.353  0.1751  0.2580 -2.6612
 9365SOL    HW239750   5.482   0.025   2.326 -0.6538  1.2135 -1.6720
 9366SOL     OW39751   8.516   3.600   4.624  0.0246  0.6795  0.6579
 9366SOL    HW139752   8.499   3.657   4.544  0.4353 -1.2361 -0.8329
 9366SOL    HW239753   8.615   3.590   4.638 -0.0365  1.3300  1.6771
 9367SOL     OW39754   2.201   7.082   6.665 -0.4690 -0.9565 -0.1088
 9367SOL    HW139755   2.136   7.029   6.719 -0.3957  1.1211  2.1050
 9367SOL    HW239756   2.155   7.122   6.586 -1.0759 -2.2880 -0.4384
 9368SOL     OW39757   1.820   9.505   8.208  0.1356  0.3790  0.1967
 9368SOL    HW139758   1.808   9.483   8.112 -2.1639  1.2739  0.2397
 9368SOL    HW239759   1.742   9.470   8.260  1.3070 -0.0149  1.7298
 9369SOL     OW39760   8.783   5.968   8.002 -0.4996  0.4641 -0.5491
 9369SOL    HW139761   8.849   6.040   7.979 -0.3253  0.5281  0.1356
 9369SOL    HW239762   8.771   5.907   7.923 -0.7731  1.3394 -1.1956
 9370SOL     OW39763   0.955   7.063   5.633  0.1403  0.3180 -0.2984
 9370SOL    HW139764   0.911   7.020   5.555  1.4940  0.3679 -1.0993
 9370SOL    HW239765   1.013   7.138   5.602 -0.7546  1.5539  0.9205
 9371SOL     OW39766   3.446   1.540   1.985 -0.2355  0.2625 -0.2094
 9371SOL    HW139767   3.532   1.510   1.945  0.5126  1.3843  0.5338
 9371SOL    HW239768   3.420   1.477   2.058  0.5608  0.5753  0.3494
 9372SOL     OW39769   1.735   0.455   6.073  0.1587  0.0375  0.2035
 9372SOL    HW139770   1.649   0.490   6.036  0.5107  1.4764  0.7260
 9372SOL    HW239771   1.800   0.440   5.998 -0.1135  0.1829 -0.0612
 9373SOL     OW39772   0.559   6.208   0.796  0.0061 -0.4049  0.8338
 9373SOL    HW139773   0.596   6.116   0.784 -0.3557 -0.5640  0.9365
 9373SOL    HW239774   0.494   6.229   0.722  2.4089  0.9478 -0.9663
 9374SOL     OW39775   2.897   1.299   3.393 -0.3615  0.1266 -0.0488
 9374SOL    HW139776   2.987   1.256   3.388 -0.5111  0.0383 -2.8754
 9374SOL    HW239777   2.852   1.294   3.304 -1.5381  3.6449  0.2370
 9375SOL     OW39778   8.701   1.500   0.500 -0.5087 -0.3628 -0.0999
 9375SOL    HW139779   8.628   1.440   0.533 -1.4898  2.6497  3.4339
 9375SOL    HW239780   8.662   1.578   0.452  0.4718  0.3695  0.2702
 9376SOL     OW39781   1.850   3.590   0.639  0.0388  0.0651 -0.5847
 9376SOL    HW139782   1.885   3.574   0.547  0.8386 -0.5163 -0.1841
 9376SOL    HW239783   1.760   3.547   0.649  0.5383 -1.0058 -0.6792
 9377SOL     OW39784   4.871   0.555   5.515 -0.0879  0.2128 -0.3853
 9377SOL    HW139785   4.921   0.574   5.430  0.5757  1.4046  0.2489
 9377SOL    HW239786   4.912   0.608   5.590 -0.0903 -1.5174  0.8663
 9378SOL     OW39787   3.444   5.648   6.640 -0.0139 -0.1534 -0.2803
 9378SOL    HW139788   3.481   5.563   6.679 -1.0482 -0.4261  0.1242
 9378SOL    HW239789   3.378   5.625   6.568 -0.3233  0.2982 -0.1420
 9379SOL     OW39790   8.293   6.775   4.232 -0.2869 -0.4613 -0.9719
 9379SOL    HW139791   8.254   6.697   4.183  0.0339 -2.0073  1.1789
 9379SOL    HW239792   8.388   6.755   4.257 -0.5097  0.2246  0.4433
 9380SOL     OW39793   4.426   5.960   2.605  0.0523 -0.2968  0.2644
 9380SOL    HW139794   4.409   6.053   2.573  1.3938 -0.2123 -0.2417
 9380SOL    HW239795   4.518   5.954   2.645 -0.4331 -1.1441  1.2904
 9381SOL     OW39796   1.539   8.392   0.509  0.4068 -0.8599  0.1803
 9381SOL    HW139797   1.634   8.377   0.482  0.2901 -0.0933 -0.6739
 9381SOL    HW239798   1.483   8.407   0.428 -0.3277 -0.6823  0.7186
 9382SOL     OW39799   7.441   9.482   4.988  0.3134 -0.2670 -0.4680
 9382SOL    HW139800   7.436   9.476   5.087  1.5169 -0.5398 -0.4224
 9382SOL    HW239801   7.400   9.400   4.947 -0.8712  0.1934 -0.2197
 9383SOL     OW39802   3.484   4.526   1.898  0.5883 -0.2219 -0.1707
 9383SOL    HW139803   3.533   4.496   1.817 -1.9045 -2.2673 -0.9891
 9383SOL    HW239804   3.532   4.494   1.980  2.3608  0.6604 -0.8402
 9384SOL     OW39805   3.059   6.667   3.477 -0.5678  0.0210 -0.3064
 9384SOL    HW139806   3.012   6.713   3.402 -0.8599  0.1902 -0.0171
 9384SOL    HW239807   3.049   6.720   3.561 -1.3208 -0.8113  0.1336
 9385SOL     OW39808   6.871   8.915   5.220 -0.1689 -0.0875 -0.2184
 9385SOL    HW139809   6.855   8.967   5.304 -0.8040  2.4102 -1.8448
 9385SOL    HW239810   6.957   8.864   5.229 -0.2471  0.1156  1.9500
 9386SOL     OW39811   5.552   8.568   2.596  0.3209 -0.1580  0.1409
 9386SOL    HW139812   5.637   8.569   2.648  0.8430 -2.6015 -0.5936
 9386SOL    HW239813   5.476   8.598   2.654  1.4588  0.7273  1.1903
 9387SOL     OW39814   1.678   7.283   8.049 -0.3097  0.2960 -0.0518
 9387SOL    HW139815   1.738   7.287   8.129 -1.1801  0.5047  0.6054
 9387SOL    HW239816   1.666   7.375   8.011  0.7110  0.0909 -0.8908
 9388SOL     OW39817   0.837   4.555   5.132  0.5557  0.4238  0.5274
 9388SOL    HW139818   0.744   4.518   5.137  0.2687  1.0714  0.1639
 9388SOL    HW239819   0.869   4.551   5.038  0.5743  0.9628  0.5099
 9389SOL     OW39820   0.543   3.234   1.139  1.4955 -0.5247 -0.0216
 9389SOL    HW139821   0.491   3.286   1.207  1.2924 -1.5887  0.6436
 9389SOL    HW239822   0.507   3.141   1.133  1.6488 -0.5051 -1.4410
 9390SOL     OW39823   4.284   6.200   2.756 -0.2776  0.7690  0.3415
 9390SOL    HW139824   4.341   6.133   2.804  0.7472  1.6448  0.3755
 9390SOL    HW239825   4.343   6.269   2.714 -1.2299  0.7121 -1.1181
 9391SOL     OW39826   1.313   5.100   6.502 -0.2803  0.1586 -0.4872
 9391SOL    HW139827   1.277   5.008   6.517  0.7993 -0.3433 -0.8562
 9391SOL    HW239828   1.327   5.145   6.590 -0.2972 -0.2414 -0.2772
 9392SOL     OW39829   4.355   3.009   3.450  0.2559  0.4131 -0.0339
 9392SOL    HW139830   4.279   3.072   3.460  1.3238  2.3376 -3.2197
 9392SOL    HW239831   4.321   2.916   3.439 -1.7635  1.3965 -2.6495
 9393SOL     OW39832   0.112   9.854   7.693  0.3082 -0.2414 -0.3911
 9393SOL    HW139833   0.037   9.798   7.728  0.2831 -0.7082 -1.1645
 9393SOL    HW239834   0.197   9.801   7.696  0.5786  0.2230  0.3110
 9394SOL     OW39835   8.558   6.965   2.154  0.7530  0.3354  0.0346
 9394SOL    HW139836   8.517   6.978   2.064 -1.7510 -0.1547  1.0693
 9394SOL    HW239837   8.648   7.010   2.156  0.0117  2.0144 -2.0811
 9395SOL     OW39838   7.514   7.981   5.730  0.0196 -0.0734 -0.1930
 9395SOL    HW139839   7.606   7.983   5.691 -0.1658  0.7475 -0.6027
 9395SOL    HW239840   7.518   7.945   5.823  0.8469  0.5572  0.0264
 9396SOL     OW39841   7.110   4.015   1.970  0.0594  0.6349 -0.3473
 9396SOL    HW139842   7.010   4.023   1.968  0.0726  1.0630  0.4051
 9396SOL    HW239843   7.136   3.938   2.028  0.1918  1.5000  0.7840
 9397SOL     OW39844   0.411   6.069   4.420  0.7042  0.6545  0.2304
 9397SOL    HW139845   0.457   5.998   4.366 -0.4668  0.1030 -0.0415
 9397SOL    HW239846   0.312   6.062   4.408  0.5223  1.6226  1.0960
 9398SOL     OW39847   9.325   2.296   4.115 -0.0315 -0.1443 -0.1671
 9398SOL    HW139848   9.291   2.379   4.070  1.5178  0.0843 -0.9481
 9398SOL    HW239849   9.261   2.221   4.098 -1.1473  0.7459  0.0553
 9399SOL     OW39850   7.255   3.063   2.489 -0.7555 -0.0245 -0.3228
 9399SOL    HW139851   7.324   3.025   2.552 -1.8536 -0.4441  0.6572
 9399SOL    HW239852   7.298   3.130   2.429  0.5333 -0.3634  0.1931
 9400SOL     OW39853   3.292   2.403   3.230  0.1240  0.0698 -0.8296
 9400SOL    HW139854   3.299   2.307   3.259  0.0154  0.6906  1.3246
 9400SOL    HW239855   3.197   2.433   3.237 -0.2976 -0.3728 -3.9397
 9401SOL     OW39856   1.601   6.012   2.436  0.6477  0.4667  0.0757
 9401SOL    HW139857   1.661   5.939   2.403  0.8889  1.4861 -1.7530
 9401SOL    HW239858   1.622   6.031   2.532  1.6614 -0.7677  0.1112
 9402SOL     OW39859   5.087   9.271   4.489 -0.5135  0.3200  0.1489
 9402SOL    HW139860   5.019   9.309   4.428  0.8073  1.4241 -0.6736
 9402SOL    HW239861   5.123   9.185   4.451 -0.5909  0.3603 -0.0151
 9403SOL     OW39862   5.177   5.628   8.004 -0.1023 -0.3382  0.2850
 9403SOL    HW139863   5.255   5.573   8.031  0.5203 -0.0621 -0.9106
 9403SOL    HW239864   5.199   5.725   8.012 -0.4741 -0.2626  0.3957
 9404SOL     OW39865   0.944   7.287   2.051 -0.3648  0.3374  0.0004
 9404SOL    HW139866   0.984   7.195   2.057 -0.2639  0.3740 -0.0948
 9404SOL    HW239867   0.850   7.281   2.020 -0.8162  0.1599  1.3815
 9405SOL     OW39868   8.457   0.117   3.655 -0.2853  0.2256 -0.1683
 9405SOL    HW139869   8.472   0.018   3.652 -0.1802  0.2263  0.3505
 9405SOL    HW239870   8.540   0.164   3.626  0.1856  0.1949  1.1319
 9406SOL     OW39871   9.531   4.114   0.673 -0.3088 -0.1797 -0.0952
 9406SOL    HW139872   9.535   4.157   0.582  0.0015  0.1453  0.0754
 9406SOL    HW239873   9.443   4.136   0.715  0.3078  1.2410  0.4674
 9407SOL     OW39874   8.564   9.940   1.752 -0.6242  0.0343  0.1947
 9407SOL    HW139875   8.650   9.987   1.773 -0.8989  2.1200 -2.9684
 9407SOL    HW239876   8.487   9.997   1.782 -0.9291 -0.8584  1.1225
 9408SOL     OW39877   1.588   2.508   2.198  0.0846  0.2042  0.2053
 9408SOL    HW139878   1.587   2.465   2.107  2.1842 -1.2475  0.8445
 9408SOL    HW239879   1.494   2.524   2.227 -0.6430  0.1850 -1.9848
 9409SOL     OW39880   3.893   0.187   7.284 -0.7162  0.1204  0.6038
 9409SOL    HW139881   3.964   0.237   7.234 -2.0965  3.2511  1.6674
 9409SOL    HW239882   3.928   0.163   7.375 -0.2245 -0.4501  0.2726
 9410SOL     OW39883   1.737   7.590   2.226  0.8232  0.5379 -0.2647
 9410SOL    HW139884   1.736   7.501   2.180 -1.5854  0.7207 -0.6324
 9410SOL    HW239885   1.694   7.582   2.316 -1.5901  1.7521 -1.2433
 9411SOL     OW39886   7.054   5.796   1.056  0.3587  0.4316  0.3079
 9411SOL    HW139887   7.113   5.770   0.980 -1.6025 -0.8670 -0.8104
 9411SOL    HW239888   7.048   5.720   1.121  0.2844  0.7329  0.6555
 9412SOL     OW39889   8.068   5.444   7.605 -0.2715 -0.6193  0.2614
 9412SOL    HW139890   8.031   5.524   7.557 -0.9505  0.2554  2.2190
 9412SOL    HW239891   8.162   5.427   7.575  0.2248  1.5198  0.5841
 9413SOL     OW39892   2.558   7.614   3.124  0.2297 -0.0813 -0.0423
 9413SOL    HW139893   2.540   7.517   3.108 -0.9688 -0.1062  1.4004
 9413SOL    HW239894   2.479   7.668   3.093  0.8509  0.4431 -0.7511
 9414SOL     OW39895   2.133   4.760   6.162  0.1307  0.7282 -0.5597
 9414SOL    HW139896   2.056   4.697   6.163  2.6303 -2.5222 -2.9144
 9414SOL    HW239897   2.108   4.842   6.109 -1.8122 -0.0721 -0.9224
 9415SOL     OW39898   8.259   4.103   7.078 -0.1959  0.1799 -0.0329
 9415SOL    HW139899   8.169   4.060   7.068 -0.7757  1.3253  0.1068
 9415SOL    HW239900   8.319   4.043   7.131 -0.1527 -1.5942 -2.0027
 9416SOL     OW39901   3.764   2.851   3.618  0.0520  0.2525  0.3481
 9416SOL    HW139902   3.682   2.898   3.585  0.4784 -0.0718 -1.1993
 9416SOL    HW239903   3.742   2.755   3.636 -0.2358  0.4813  1.2068
 9417SOL     OW39904   8.840   8.581   6.556 -0.7219 -0.1964 -0.2770
 9417SOL    HW139905   8.893   8.497   6.569 -0.6354 -0.0633  0.2300
 9417SOL    HW239906   8.856   8.616   6.463 -0.0517 -0.2458 -0.1836
 9418SOL     OW39907   1.496   7.060   4.403 -0.4185 -0.1735  0.5981
 9418SOL    HW139908   1.491   7.143   4.348 -2.0812  0.6480  1.9264
 9418SOL    HW239909   1.450   6.985   4.355  0.4664 -0.1560 -0.2895
 9419SOL     OW39910   8.061   0.059   0.897  0.7444  0.3943 -0.0008
 9419SOL    HW139911   8.043   0.157   0.901  0.0421  0.2319  1.1340
 9419SOL    HW239912   8.143   0.037   0.951  0.6747  0.3056  0.0700
 9420SOL     OW39913   3.206   9.367   4.887  0.0844  0.3884 -0.1171
 9420SOL    HW139914   3.189   9.271   4.905  1.3406 -0.1751 -1.7568
 9420SOL    HW239915   3.166   9.423   4.959 -2.3892 -1.2422 -0.1896
 9421SOL     OW39916   7.697   2.757   0.353  0.1038 -0.1504  0.5504
 9421SOL    HW139917   7.784   2.723   0.387  0.2477 -0.4982 -0.1628
 9421SOL    HW239918   7.709   2.847   0.313  0.6958 -1.3374 -2.0737
 9422SOL     OW39919   4.223   7.510   5.596 -0.3397 -0.2367 -0.3669
 9422SOL    HW139920   4.201   7.563   5.677  0.6224  1.4583 -1.1872
 9422SOL    HW239921   4.172   7.424   5.597 -2.5599  1.0559  0.5819
 9423SOL     OW39922   3.635   1.405   0.636 -0.5848 -0.0121  0.3748
 9423SOL    HW139923   3.675   1.454   0.714  1.2563 -1.1636  0.1710
 9423SOL    HW239924   3.554   1.455   0.604  0.0294  1.7663  1.4976
 9424SOL     OW39925   2.173   2.708   7.284  0.0862  0.2709 -0.0992
 9424SOL    HW139926   2.100   2.773   7.263  1.5184  1.4489 -1.4280
 9424SOL    HW239927   2.165   2.628   7.224 -0.3683  0.1717  0.0837
 9425SOL     OW39928   0.622   0.622   7.533 -0.4507  0.1955 -0.1925
 9425SOL    HW139929   0.600   0.525   7.526  0.9088 -0.0665 -0.9021
 9425SOL    HW239930   0.545   0.675   7.498 -1.2222 -0.6126  0.2494
 9426SOL     OW39931   0.294   9.473   2.041 -0.2466 -0.1178 -0.5452
 9426SOL    HW139932   0.258   9.381   2.027  0.9536 -0.6404 -0.2841
 9426SOL    HW239933   0.316   9.514   1.953 -1.3048  0.1479 -0.6976
 9427SOL     OW39934   8.067   3.942   5.429 -0.0270  0.0689  0.6326
 9427SOL    HW139935   8.100   4.009   5.495 -0.5124 -0.3252  1.2748
 9427SOL    HW239936   8.088   3.973   5.336  0.2962  0.8097  0.9543
 9428SOL     OW39937   4.002   0.508   4.874  0.2634 -0.0905  0.2860
 9428SOL    HW139938   3.986   0.453   4.792 -2.2338  0.3830  0.4295
 9428SOL    HW239939   3.980   0.603   4.854  1.1009  0.2749  1.0951
 9429SOL     OW39940   0.787   6.309   6.488 -0.3738 -0.2897 -0.0245
 9429SOL    HW139941   0.749   6.380   6.548  1.7243 -1.5826  2.9257
 9429SOL    HW239942   0.864   6.348   6.436 -0.5590  0.1289  0.0089
 9430SOL     OW39943   7.837   2.501   7.766 -0.0126 -0.7207  0.5541
 9430SOL    HW139944   7.879   2.435   7.827 -1.0372 -1.2196  0.7321
 9430SOL    HW239945   7.897   2.518   7.688  1.0606 -0.4874  1.4169
 9431SOL     OW39946   3.909   4.278   7.527 -0.1833  0.0394  0.9470
 9431SOL    HW139947   3.872   4.367   7.551  0.4395  0.3792  0.6572
 9431SOL    HW239948   3.886   4.212   7.599 -2.9241 -0.1996 -0.0830
 9432SOL     OW39949   0.501   9.950   6.656  0.2216  0.1850  0.1269
 9432SOL    HW139950   0.445   9.993   6.586  0.1104  1.7656  1.1690
 9432SOL    HW239951   0.493   9.851   6.649 -0.4830  0.3467 -1.5188
 9433SOL     OW39952   2.434   8.944   2.666 -0.7219 -0.4806  0.0126
 9433SOL    HW139953   2.444   8.845   2.664 -0.7053 -0.4475 -2.2230
 9433SOL    HW239954   2.431   8.980   2.573 -1.1543  1.5834  0.7843
 9434SOL     OW39955   0.385   4.408   0.706  1.1646  0.4070 -0.0998
 9434SOL    HW139956   0.353   4.381   0.615 -0.1483 -0.2934  0.5451
 9434SOL    HW239957   0.314   4.460   0.753  1.2461 -0.4875  1.0647
 9435SOL     OW39958   7.288   7.077   5.105 -0.1381 -0.1107  0.5005
 9435SOL    HW139959   7.312   7.126   5.022 -0.3413  1.0244  1.1115
 9435SOL    HW239960   7.246   6.989   5.081 -0.9304  0.5663 -0.5970
 9436SOL     OW39961   0.926   1.267   0.227  0.0353  0.6475 -0.7857
 9436SOL    HW139962   1.020   1.242   0.250  0.5079  1.5435 -1.6751
 9436SOL    HW239963   0.908   1.361   0.256 -1.0064  0.0557  0.5273
 9437SOL     OW39964   1.837   8.535   6.885  0.3100 -0.5277 -0.4677
 9437SOL    HW139965   1.839   8.594   6.804  1.5421  0.5917  0.3554
 9437SOL    HW239966   1.910   8.562   6.948  0.6190 -2.6797  0.1313
 9438SOL     OW39967   2.121   5.280   3.865  0.1299  0.5283 -0.6245
 9438SOL    HW139968   2.149   5.364   3.911  2.0648 -0.1279 -0.5664
 9438SOL    HW239969   2.053   5.302   3.795 -1.3275  1.8001  1.1245
 9439SOL     OW39970   0.831   2.637   4.739  0.0515  0.2318  0.1248
 9439SOL    HW139971   0.887   2.554   4.744  1.2808  1.0686  0.4837
 9439SOL    HW239972   0.891   2.717   4.729 -1.1072  1.0996  0.0489
 9440SOL     OW39973   2.069   2.788   6.410 -0.4767 -0.0258 -0.0710
 9440SOL    HW139974   1.983   2.754   6.448 -0.6415 -0.2642 -0.6629
 9440SOL    HW239975   2.144   2.731   6.443 -0.5600  0.0774  0.3062
 9441SOL     OW39976   0.012   1.828   1.147  0.7677 -0.0663  0.0038
 9441SOL    HW139977  -0.002   1.785   1.236 -1.0424  2.2454  0.8895
 9441SOL    HW239978   0.084   1.898   1.154  0.2797  0.4645 -0.2265
 9442SOL     OW39979   2.210   4.284   1.245 -0.0348  0.1934  0.0525
 9442SOL    HW139980   2.306   4.309   1.233  0.0441  0.4164  1.0825
 9442SOL    HW239981   2.203   4.186   1.262 -0.1088 -0.0452 -1.2761
 9443SOL     OW39982   1.764   2.604   2.418 -0.1767 -0.7265 -0.1223
 9443SOL    HW139983   1.738   2.559   2.333  0.4595 -2.6210  0.6521
 9443SOL    HW239984   1.686   2.604   2.481 -0.8473  1.2573 -0.9149
 9444SOL     OW39985   2.650   1.337   6.729  0.0703  0.2944  0.4329
 9444SOL    HW139986   2.714   1.414   6.722 -0.8404  0.8863 -1.9472
 9444SOL    HW239987   2.702   1.252   6.727  0.8179  0.7542 -1.9875
 9445SOL     OW39988   0.997   3.346   3.413  0.1197 -0.1643  0.3708
 9445SOL    HW139989   0.972   3.366   3.318  0.9923  1.2241  0.4167
 9445SOL    HW239990   0.950   3.410   3.474  1.0126  0.1663  0.7240
 9446SOL     OW39991   0.518   1.333   8.090 -0.3670  0.1846  0.1085
 9446SOL    HW139992   0.464   1.249   8.098 -0.4046  0.0108 -1.7995
 9446SOL    HW239993   0.462   1.412   8.117 -0.4975 -0.3313  1.3876
 9447SOL     OW39994   0.853   3.988   5.864  0.2921 -0.1350  0.0137
 9447SOL    HW139995   0.778   3.932   5.829  0.0128  0.5642 -0.5184
 9447SOL    HW239996   0.940   3.947   5.839  0.0907 -0.7166  0.2568
 9448SOL     OW39997   1.172   0.156   4.069  0.0260 -0.0594  0.1102
 9448SOL    HW139998   1.165   0.071   4.120 -0.3172 -0.0380  0.0951
 9448SOL    HW239999   1.098   0.162   4.002 -0.4928  0.6822  0.7418
 9449SOL     OW40000   3.071   9.332   3.768 -0.1504 -0.1573 -0.1008
 9449SOL    HW140001   3.169   9.350   3.753  0.3664 -2.9909 -0.4973
 9449SOL    HW240002   3.024   9.329   3.680 -0.1317 -1.0933 -0.0877
 9450SOL     OW40003   5.874   0.593   2.631  0.1221  0.3498  0.0936
 9450SOL    HW140004   5.911   0.500   2.632  0.5224  0.5121  1.0404
 9450SOL    HW240005   5.923   0.649   2.698 -0.8894  0.9353  0.3529
 9451SOL     OW40006   6.084   2.722   4.717  0.0174 -0.0073  0.3700
 9451SOL    HW140007   6.016   2.712   4.646 -0.7684  0.6431  1.0228
 9451SOL    HW240008   6.039   2.729   4.806  1.0561 -2.5999  1.1246
 9452SOL     OW40009   3.729   4.419   0.184  0.4009 -0.0383 -0.5331
 9452SOL    HW140010   3.638   4.405   0.224  0.8235 -0.3439  0.3335
 9452SOL    HW240011   3.734   4.374   0.095 -0.3061  0.0115 -0.6006
 9453SOL     OW40012   8.704   8.905   5.598 -0.2675 -0.0300 -0.0074
 9453SOL    HW140013   8.697   8.902   5.499  3.1510 -1.1912 -0.2894
 9453SOL    HW240014   8.779   8.966   5.625  0.9704 -2.1962  1.6837
 9454SOL     OW40015   3.885   2.489   6.268 -0.1977 -0.3400 -0.6599
 9454SOL    HW140016   3.850   2.566   6.214  0.0111  1.0082  1.0923
 9454SOL    HW240017   3.963   2.519   6.322  0.7451 -2.1483 -0.9797
 9455SOL     OW40018   2.975   7.922   0.245 -0.4482  0.0686 -0.3046
 9455SOL    HW140019   3.040   7.990   0.212 -0.4211 -0.1303 -0.6577
 9455SOL    HW240020   3.016   7.831   0.240 -0.8598 -0.0868 -0.7961
 9456SOL     OW40021   0.956   7.270   4.979 -0.5670  0.1299 -0.1029
 9456SOL    HW140022   0.933   7.216   4.898 -0.4134  0.5611 -0.4338
 9456SOL    HW240023   0.934   7.366   4.963 -1.2948  0.1006  0.6639
 9457SOL     OW40024   4.986   9.742   5.449 -0.2586  0.1662  0.2083
 9457SOL    HW140025   4.896   9.748   5.406  0.0269  1.8648 -0.2010
 9457SOL    HW240026   5.049   9.694   5.388 -0.8128 -0.7907  0.3824
 9458SOL     OW40027   0.685   0.723   5.909  0.1242 -0.0026  0.2194
 9458SOL    HW140028   0.744   0.778   5.968  1.7277 -2.1189  0.6651
 9458SOL    HW240029   0.683   0.763   5.817 -0.4589  1.9628  1.0723
 9459SOL     OW40030   4.288   1.306   3.809 -0.3171 -0.4296 -0.1327
 9459SOL    HW140031   4.311   1.213   3.839 -0.1779 -0.0890  0.8236
 9459SOL    HW240032   4.191   1.324   3.829 -0.1284 -0.0673  0.4476
 9460SOL     OW40033   9.048   1.550   6.581  0.2065  0.6770  0.1953
 9460SOL    HW140034   9.032   1.458   6.545  0.5307  1.2122 -1.3382
 9460SOL    HW240035   8.972   1.575   6.641 -1.4616  0.5808 -1.7926
 9461SOL     OW40036   6.013   4.615   8.113 -0.6047 -0.5145 -0.0397
 9461SOL    HW140037   5.947   4.595   8.185 -0.2541  0.0990  0.4534
 9461SOL    HW240038   5.971   4.599   8.024 -1.8209  1.1059  0.2423
 9462SOL     OW40039   8.739   4.307   5.786  0.8837  0.2565 -0.0688
 9462SOL    HW140040   8.709   4.310   5.690 -1.2902  0.6280  0.5969
 9462SOL    HW240041   8.810   4.237   5.796 -0.0181 -0.9295 -1.6637
 9463SOL     OW40042   7.169   9.153   2.604  0.1173  0.7132 -0.3325
 9463SOL    HW140043   7.217   9.238   2.581  1.0770  1.0122  2.6338
 9463SOL    HW240044   7.221   9.104   2.674 -1.0908 -1.7163 -1.0932
 9464SOL     OW40045   4.299   7.351   2.613  0.1834 -0.0124  0.0146
 9464SOL    HW140046   4.264   7.445   2.613  1.4130  0.4532 -0.9656
 9464SOL    HW240047   4.244   7.296   2.675 -2.5685  0.6024 -1.7772
 9465SOL     OW40048   1.771   8.610   3.309 -0.0611 -0.3153  0.2246
 9465SOL    HW140049   1.700   8.561   3.358  0.4016  0.5488  1.7744
 9465SOL    HW240050   1.731   8.660   3.233 -1.3903  1.6448  2.1718
 9466SOL     OW40051   0.907   3.706   8.002 -0.0169 -0.3363 -0.6962
 9466SOL    HW140052   0.809   3.722   8.001  0.2715  1.5273 -1.5171
 9466SOL    HW240053   0.937   3.682   8.095 -0.9724  0.8116 -0.0954
 9467SOL     OW40054   9.013   2.076   5.790  0.7162 -0.3214  0.2464
 9467SOL    HW140055   9.023   2.028   5.704  1.9630  1.0956 -0.4226
 9467SOL    HW240056   9.097   2.070   5.843  0.3443 -0.2383  0.8576
 9468SOL     OW40057   3.316   6.226   0.090 -0.4356 -0.1007 -0.0718
 9468SOL    HW140058   3.350   6.205   0.181  0.8563  1.5880 -0.1382
 9468SOL    HW240059   3.371   6.300   0.050  0.0731 -1.9446 -2.8848
 9469SOL     OW40060   9.709   3.505   6.267 -0.4330 -0.5041 -0.0630
 9469SOL    HW140061   9.664   3.443   6.331 -1.4744  2.0483  1.7771
 9469SOL    HW240062   9.646   3.578   6.241  1.7483  1.6422  0.4358
 9470SOL     OW40063   6.923   0.469   1.933 -0.6244  0.3863 -0.1497
 9470SOL    HW140064   6.826   0.448   1.928 -0.7397  1.0992 -1.0079
 9470SOL    HW240065   6.948   0.531   1.859  0.5322  0.0292 -0.0768
 9471SOL     OW40066   1.617   7.322   2.743  0.5954 -0.2037 -0.0780
 9471SOL    HW140067   1.563   7.327   2.827  1.5636 -2.6196  0.7153
 9471SOL    HW240068   1.556   7.333   2.664 -0.7112 -0.5239  0.8712
 9472SOL     OW40069   3.176   2.734   0.340 -0.2902 -0.2472 -0.6066
 9472SOL    HW140070   3.203   2.737   0.436 -2.5172  0.0999  0.0403
 9472SOL    HW240071   3.255   2.753   0.282  0.4558  2.5862  1.2571
 9473SOL     OW40072   8.799   4.948   6.077 -0.0489 -0.6786 -0.1370
 9473SOL    HW140073   8.858   5.001   6.017  0.4437 -2.2421 -1.0637
 9473SOL    HW240074   8.719   4.916   6.026  0.3521 -1.9854  0.0204
 9474SOL     OW40075   9.622   2.006   1.197  0.3444 -0.2896  0.0964
 9474SOL    HW140076   9.532   2.004   1.153  0.8852 -0.3371 -1.0349
 9474SOL    HW240077   9.637   1.921   1.247  0.5141 -1.0887 -1.2789
 9475SOL     OW40078   3.595   1.819   1.715  0.8135 -0.2065 -0.4438
 9475SOL    HW140079   3.645   1.867   1.642  0.6274  0.5299 -0.0924
 9475SOL    HW240080   3.651   1.817   1.798  0.0144  1.2241  0.1607
 9476SOL     OW40081   3.769   1.985   1.069  0.2384  0.3774  0.1227
 9476SOL    HW140082   3.706   2.018   0.999  0.3430 -1.3018 -0.8051
 9476SOL    HW240083   3.862   1.983   1.031  0.3163 -0.4189  0.3478
 9477SOL     OW40084   4.734   9.417   2.929 -0.2003  0.1932 -0.1090
 9477SOL    HW140085   4.677   9.374   2.860 -0.7735  1.0989 -0.2062
 9477SOL    HW240086   4.678   9.478   2.986  0.6681  1.1187 -0.2287
 9478SOL     OW40087   2.729   4.949   4.988  1.1846  0.3626 -0.3786
 9478SOL    HW140088   2.772   4.955   5.078  0.5793  0.7445 -0.1125
 9478SOL    HW240089   2.715   4.853   4.964  0.2495  0.2735  0.4752
 9479SOL     OW40090   1.562   4.516   7.240 -0.0151  0.2852  0.7772
 9479SOL    HW140091   1.659   4.536   7.245 -0.6850  4.9541 -1.9124
 9479SOL    HW240092   1.542   4.468   7.155 -0.3275  1.5899  0.0942
 9480SOL     OW40093   4.049   5.259   6.939 -0.2263  0.2885 -0.3989
 9480SOL    HW140094   4.120   5.215   6.885 -0.1368 -0.1211  0.0528
 9480SOL    HW240095   4.018   5.197   7.010 -1.8594  0.0415 -1.3110
 9481SOL     OW40096   0.923   6.566   7.419 -0.4928  0.2710 -0.1593
 9481SOL    HW140097   1.012   6.548   7.462 -1.3115  0.9226  1.8682
 9481SOL    HW240098   0.933   6.637   7.350  0.2555  1.5229  1.2163
 9482SOL     OW40099   8.308   2.351   1.883  0.0711  0.3004  0.0183
 9482SOL    HW140100   8.370   2.367   1.959 -1.3153  0.7009  1.0931
 9482SOL    HW240101   8.306   2.253   1.862  0.6345  0.2182  0.3482
 9483SOL     OW40102   9.367   6.918   8.034 -0.3650 -0.5202 -0.9331
 9483SOL    HW140103   9.386   6.870   7.948  0.0639  0.7791 -1.5887
 9483SOL    HW240104   9.427   6.998   8.041 -1.5193  0.2994 -0.1995
 9484SOL     OW40105   1.419   5.766   7.106  0.1859 -0.1718  0.5879
 9484SOL    HW140106   1.321   5.784   7.106  0.0482 -0.8918 -0.1231
 9484SOL    HW240107   1.468   5.848   7.076 -0.1982  0.1471  0.8222
 9485SOL     OW40108   6.590   7.872   6.463  0.4871 -0.0238 -0.2004
 9485SOL    HW140109   6.504   7.919   6.479 -0.2578 -1.2482 -0.5163
 9485SOL    HW240110   6.641   7.920   6.391 -0.3962  0.1280 -0.7380
 9486SOL     OW40111   5.018   0.923   2.573  0.1827  0.0066 -0.4396
 9486SOL    HW140112   4.924   0.943   2.546  0.1613  0.4782 -0.0187
 9486SOL    HW240113   5.032   0.950   2.668  0.2787 -1.5522  0.0089
 9487SOL     OW40114   0.692   0.097   3.527  0.0952  0.3781 -0.1568
 9487SOL    HW140115   0.610   0.108   3.583 -0.1782 -1.3113 -0.1947
 9487SOL    HW240116   0.668   0.109   3.430 -0.8058 -3.1937 -0.4612
 9488SOL     OW40117   4.879   4.052   4.582  0.3620  0.0229 -0.3391
 9488SOL    HW140118   4.802   3.988   4.587  0.5269 -0.1658 -0.2270
 9488SOL    HW240119   4.857   4.124   4.516  0.1653 -0.1340 -0.4471
 9489SOL     OW40120   0.030   7.748   7.042  0.5870  0.3412  0.0935
 9489SOL    HW140121   0.086   7.665   7.049  1.1541  0.8270  1.5172
 9489SOL    HW240122  -0.020   7.762   7.128  0.7635  1.6662 -0.0094
 9490SOL     OW40123   6.446   6.237   0.908 -0.2410  0.6606 -0.2691
 9490SOL    HW140124   6.425   6.313   0.846  1.0147 -0.3564 -2.0095
 9490SOL    HW240125   6.441   6.151   0.857  2.1613 -0.0921  0.6796
 9491SOL     OW40126   2.624   5.949   3.291 -0.3588 -0.5625 -0.6225
 9491SOL    HW140127   2.717   5.967   3.258  0.0255 -1.1221  0.1309
 9491SOL    HW240128   2.618   5.854   3.322 -0.7148 -0.0653  0.8739
 9492SOL     OW40129   5.085   6.932   2.104 -0.0782 -0.2766 -0.0014
 9492SOL    HW140130   5.041   6.859   2.051  2.2783 -0.6786 -1.4959
 9492SOL    HW240131   5.112   7.006   2.043 -1.4612  1.3664  1.3492
 9493SOL     OW40132   0.279   3.889   3.799 -0.1046 -0.1289  0.1907
 9493SOL    HW140133   0.334   3.958   3.754  2.4288 -0.9685  1.8827
 9493SOL    HW240134   0.248   3.924   3.888 -1.7124  0.0799 -0.4453
 9494SOL     OW40135   8.245   5.048   3.429  0.1740 -0.1930  0.3760
 9494SOL    HW140136   8.341   5.075   3.442  0.5855 -2.0864  1.4211
 9494SOL    HW240137   8.210   5.008   3.513 -1.4584  0.2102 -0.1030
 9495SOL     OW40138   9.955   8.941   6.182 -0.3086 -0.2087 -0.2745
 9495SOL    HW140139   9.861   8.937   6.150 -0.6981 -0.3831  0.8501
 9495SOL    HW240140   9.977   9.036   6.207 -0.9054 -0.5088  1.4934
 9496SOL     OW40141   7.969   1.874   3.315 -0.1804  0.4234 -0.1917
 9496SOL    HW140142   7.910   1.887   3.394 -0.0243 -0.0670  0.0042
 9496SOL    HW240143   7.929   1.806   3.254  1.5302 -2.0220  1.3048
 9497SOL     OW40144   3.012   9.753   5.365  0.5761 -0.5511 -0.1159
 9497SOL    HW140145   3.090   9.806   5.332  0.9149 -1.1021 -0.2066
 9497SOL    HW240146   2.948   9.736   5.290  1.5065 -2.0857 -0.5704
 9498SOL     OW40147   3.357   1.348   6.019  0.7187 -0.1422  0.0112
 9498SOL    HW140148   3.271   1.310   5.985  1.7192 -0.6437 -2.0547
 9498SOL    HW240149   3.432   1.289   5.991  1.5197 -1.3065  4.3000
 9499SOL     OW40150   3.928   5.482   3.812  0.1624  0.7738  0.0367
 9499SOL    HW140151   3.872   5.412   3.857  0.1309  0.5788 -0.3056
 9499SOL    HW240152   3.874   5.526   3.741  0.6339  0.1697 -0.7013
 9500SOL     OW40153   2.883   6.008   6.853 -0.1846  0.2992 -0.4388
 9500SOL    HW140154   2.849   5.932   6.798  1.0735  0.0914 -0.9436
 9500SOL    HW240155   2.824   6.020   6.933 -1.5590  0.0944 -1.4078
 9501SOL     OW40156   2.766   4.013   1.897  0.4138 -0.1176  0.0758
 9501SOL    HW140157   2.696   3.996   1.966  1.2776  0.0988  1.0189
 9501SOL    HW240158   2.810   4.101   1.916  1.8186 -0.8566  0.2492
 9502SOL     OW40159   9.570   2.787   2.530  0.0361 -0.3876 -0.0839
 9502SOL    HW140160   9.472   2.777   2.512 -0.1158  1.9702 -0.8587
 9502SOL    HW240161   9.622   2.752   2.453 -0.1999 -1.6588  0.3338
 9503SOL     OW40162   3.217   2.758   7.608  0.6576 -0.0446 -0.4387
 9503SOL    HW140163   3.236   2.748   7.510  2.8829 -0.9067  0.0588
 9503SOL    HW240164   3.148   2.691   7.635 -1.2825  1.3614 -1.7376
 9504SOL     OW40165   0.559   3.913   5.349  0.0063  0.1098 -0.1438
 9504SOL    HW140166   0.614   3.920   5.266  0.4402  0.3760  0.1623
 9504SOL    HW240167   0.470   3.955   5.334  0.3035  0.6856 -0.2912
 9505SOL     OW40168   0.989   8.484   2.520  0.2077 -0.1569 -1.0456
 9505SOL    HW140169   0.898   8.465   2.485  0.4543 -0.9458 -1.2561
 9505SOL    HW240170   1.006   8.431   2.603 -0.3373  1.6377  0.2403
 9506SOL     OW40171   8.314   4.501   0.327 -0.5444  0.1684 -0.4541
 9506SOL    HW140172   8.360   4.556   0.397  0.6486 -1.1024 -0.2178
 9506SOL    HW240173   8.248   4.439   0.371  1.0286 -1.4403 -0.3321
 9507SOL     OW40174   8.239   0.709   7.523  0.3788 -0.1492 -0.5764
 9507SOL    HW140175   8.320   0.723   7.580  0.9162 -0.7228 -1.1902
 9507SOL    HW240176   8.256   0.746   7.431  0.0500 -0.5079 -0.7858
 9508SOL     OW40177   2.858   9.152   4.642  0.4207  0.3014 -0.0269
 9508SOL    HW140178   2.765   9.119   4.633  0.3927  0.9036 -2.0137
 9508SOL    HW240179   2.862   9.221   4.715 -0.6127  0.0561  0.2692
 9509SOL     OW40180   0.023   0.842   7.986  0.2837  0.4560  0.3575
 9509SOL    HW140181   0.108   0.871   7.943  0.4916  0.2030  0.5920
 9509SOL    HW240182  -0.021   0.921   8.029 -0.1718  0.7957 -0.7334
 9510SOL     OW40183   5.419   5.187   1.692 -0.2818 -0.0591  0.1066
 9510SOL    HW140184   5.323   5.208   1.675  0.2346  1.2958 -1.2768
 9510SOL    HW240185   5.465   5.270   1.725  0.6974 -0.3608 -0.5053
 9511SOL     OW40186   7.746   7.660   6.857 -1.1250  0.3308  0.0727
 9511SOL    HW140187   7.812   7.699   6.921 -0.3489 -0.6573 -0.1099
 9511SOL    HW240188   7.744   7.715   6.774  2.4314 -1.8178 -1.5686
 9512SOL     OW40189   0.587   8.855   6.129 -0.0059  0.1895 -0.4064
 9512SOL    HW140190   0.547   8.789   6.065  1.6294  0.3738 -1.6487
 9512SOL    HW240191   0.685   8.836   6.140  0.4048  2.1416 -0.4581
 9513SOL     OW40192   8.273   4.693   4.281 -0.0427 -0.0826 -0.2641
 9513SOL    HW140193   8.342   4.627   4.312  0.4858  0.2573 -0.7195
 9513SOL    HW240194   8.276   4.774   4.339 -1.9653 -1.2209  1.4833
 9514SOL     OW40195   3.726   2.045   6.920 -0.2006  0.2027 -0.5491
 9514SOL    HW140196   3.646   2.028   6.861  0.8801  1.1738 -2.3354
 9514SOL    HW240197   3.747   1.962   6.972  0.3645 -1.5382 -3.4438
 9515SOL     OW40198   2.437   9.886   1.575  0.2936 -0.4744 -0.2429
 9515SOL    HW140199   2.453   9.985   1.574  0.6394 -0.5059 -2.3884
 9515SOL    HW240200   2.376   9.862   1.650 -0.5965  1.5050 -0.3035
 9516SOL     OW40201   6.261   6.082   1.045  0.2229  0.5277  0.0690
 9516SOL    HW140202   6.301   5.991   1.042  1.4265  0.9760  1.5473
 9516SOL    HW240203   6.330   6.149   1.016  0.1757  1.1952  1.4732
 9517SOL     OW40204   2.789   8.510   8.044 -0.5772  0.1055  0.2800
 9517SOL    HW140205   2.817   8.604   8.064 -1.3960  0.1936  1.0219
 9517SOL    HW240206   2.718   8.482   8.108 -2.9125  0.2299 -2.1691
 9518SOL     OW40207   6.362   2.704   1.014 -0.0275 -0.1581  0.5199
 9518SOL    HW140208   6.437   2.717   1.079 -0.4187  1.0238  0.7469
 9518SOL    HW240209   6.400   2.685   0.923  0.5154 -3.1743  1.3362
 9519SOL     OW40210   2.399   4.640   1.446  0.2183  0.1593 -0.4360
 9519SOL    HW140211   2.305   4.655   1.417 -0.5137 -1.0620  1.3096
 9519SOL    HW240212   2.408   4.552   1.492  2.4453 -0.2506 -1.5434
 9520SOL     OW40213   3.488   3.600   8.125  0.2145 -0.8229  0.2379
 9520SOL    HW140214   3.497   3.661   8.204  0.0342  0.6581 -0.8702
 9520SOL    HW240215   3.574   3.598   8.074 -0.6308  0.7446 -1.3086
 9521SOL     OW40216   0.527   1.263   5.192  0.2824  0.3137  0.9986
 9521SOL    HW140217   0.561   1.304   5.107  1.3081 -2.0130  0.2445
 9521SOL    HW240218   0.602   1.214   5.238 -1.0507 -1.3205  1.4812
 9522SOL     OW40219   1.760   6.900   3.402  0.1564  0.1977  0.2538
 9522SOL    HW140220   1.849   6.898   3.356  0.1322  0.2903  0.2036
 9522SOL    HW240221   1.724   6.807   3.407  0.5446  0.0742  0.8430
 9523SOL     OW40222   1.710   6.150   6.571  0.0720  0.9167  0.0945
 9523SOL    HW140223   1.684   6.082   6.639  0.1984 -0.4800 -1.2366
 9523SOL    HW240224   1.806   6.139   6.547  0.1030  1.5866 -0.1119
 9524SOL     OW40225   4.061   9.762   1.345  0.4526  0.4198  0.3759
 9524SOL    HW140226   4.115   9.840   1.314 -0.0715  1.0693  1.0543
 9524SOL    HW240227   4.086   9.680   1.293  1.2071  0.9800 -0.1482
 9525SOL     OW40228   5.149   6.907   1.023  0.2091  0.6696  0.1945
 9525SOL    HW140229   5.204   6.896   0.940  1.4614 -0.6472  1.1719
 9525SOL    HW240230   5.208   6.934   1.099 -0.5472 -0.3546  1.1612
 9526SOL     OW40231   6.604   0.101   1.662  0.0683 -0.4532  0.0862
 9526SOL    HW140232   6.654   0.027   1.706  0.1713 -1.8067 -2.2479
 9526SOL    HW240233   6.509   0.101   1.694 -0.6233 -3.2516 -1.8090
 9527SOL     OW40234   7.433   9.932   2.337  0.8972 -0.2308  0.0219
 9527SOL    HW140235   7.458  10.029   2.331  0.9111 -0.1686  1.0098
 9527SOL    HW240236   7.360   9.920   2.404  1.7923 -1.0595  0.8873
 9528SOL     OW40237   0.189   9.360   7.443 -0.3027 -0.0425 -0.4553
 9528SOL    HW140238   0.095   9.327   7.430 -0.3590 -0.1199  0.1329
 9528SOL    HW240239   0.252   9.282   7.444 -0.1332  0.0684 -1.6746
 9529SOL     OW40240   3.956   1.999   4.390  0.8898 -0.2158 -0.5740
 9529SOL    HW140241   3.871   1.995   4.442  0.0741  2.5812 -1.5917
 9529SOL    HW240242   4.026   1.945   4.436 -0.7102 -0.4685  1.6557
 9530SOL     OW40243   0.079   1.993   0.799 -0.1391 -0.2774  0.4332
 9530SOL    HW140244   0.037   2.083   0.793  0.1633 -0.1200  0.6546
 9530SOL    HW240245   0.106   1.962   0.707 -2.0241 -1.0067  0.0953
 9531SOL     OW40246   0.969   0.165   4.422  0.1487  0.0998  0.3574
 9531SOL    HW140247   0.951   0.225   4.344 -1.5474 -2.4437 -1.2532
 9531SOL    HW240248   1.055   0.193   4.465  1.2404  1.4462 -2.5258
 9532SOL     OW40249   6.060   8.245   2.842 -0.4396 -0.5964 -0.4324
 9532SOL    HW140250   5.965   8.215   2.833 -0.0839 -2.5629  1.7059
 9532SOL    HW240251   6.121   8.175   2.805  0.2751 -0.8808  1.2066
 9533SOL     OW40252   2.757   0.696   5.254 -0.1199  0.4404 -0.1269
 9533SOL    HW140253   2.753   0.793   5.277  0.8010  0.5220 -0.2699
 9533SOL    HW240254   2.793   0.685   5.161  3.4329 -0.1534  1.2246
 9534SOL     OW40255   4.412   3.261   3.105 -0.0018  0.1717 -0.4542
 9534SOL    HW140256   4.449   3.271   3.198 -0.5729  1.1478 -0.3249
 9534SOL    HW240257   4.406   3.164   3.082  1.9517 -0.0337 -0.2011
 9535SOL     OW40258   1.651   4.623   1.592  0.2454  0.0721 -0.0395
 9535SOL    HW140259   1.557   4.650   1.614  0.4856  0.2785  0.7544
 9535SOL    HW240260   1.676   4.543   1.646 -0.4505 -1.7569 -2.3642
 9536SOL     OW40261   3.797   0.873   7.572  0.0285 -0.0085 -0.0514
 9536SOL    HW140262   3.733   0.819   7.627  0.6573  0.2117  0.9033
 9536SOL    HW240263   3.834   0.817   7.499 -2.4073  0.2701 -1.5644
 9537SOL     OW40264   8.085   9.097   2.106 -0.0617 -0.0552  0.6670
 9537SOL    HW140265   8.061   9.035   2.181 -0.3929  2.2602  2.5376
 9537SOL    HW240266   8.023   9.176   2.107  0.7052  0.5880 -1.3043
 9538SOL     OW40267   2.125   7.692   2.831  0.0658 -0.1151  0.1396
 9538SOL    HW140268   2.088   7.773   2.787 -1.0004 -0.6657  0.0015
 9538SOL    HW240269   2.143   7.622   2.762 -3.4056 -1.6863  0.7049
 9539SOL     OW40270   7.857   9.170   5.757 -0.2724  0.1177 -0.4080
 9539SOL    HW140271   7.792   9.159   5.832  0.6491  0.0766  0.4072
 9539SOL    HW240272   7.905   9.084   5.742  0.1163  0.3506 -0.4981
 9540SOL     OW40273   9.755   6.119   0.780  0.1806  0.2212  0.5606
 9540SOL    HW140274   9.687   6.119   0.706 -0.9989  1.4682  1.6267
 9540SOL    HW240275   9.716   6.162   0.861  2.3186  1.1234  1.1311
 9541SOL     OW40276   4.304   2.313   2.200 -0.3395 -0.3121  0.1404
 9541SOL    HW140277   4.238   2.241   2.222 -0.6865  0.3208  1.2007
 9541SOL    HW240278   4.258   2.401   2.202  0.9712  0.3553  2.9876
 9542SOL     OW40279   6.659   2.257   0.063 -0.6017 -0.2726 -0.1384
 9542SOL    HW140280   6.751   2.274   0.027 -0.8011 -0.4446 -0.7219
 9542SOL    HW240281   6.635   2.329   0.127 -0.1315 -0.1281 -0.1209
 9543SOL     OW40282   2.397   2.431   7.271 -0.8677  0.2495  0.1430
 9543SOL    HW140283   2.319   2.449   7.210 -0.7108  0.4661  0.0049
 9543SOL    HW240284   2.462   2.372   7.224 -1.4031 -0.7144  0.6160
 9544SOL     OW40285   8.732   2.836   4.578 -0.3428  0.1005  0.0674
 9544SOL    HW140286   8.809   2.826   4.516  1.2122  1.8700  1.6576
 9544SOL    HW240287   8.678   2.916   4.552 -0.6547 -0.1322 -0.0087
 9545SOL     OW40288   3.503   8.911   0.713 -0.9908  0.6709  0.1808
 9545SOL    HW140289   3.449   8.868   0.785 -1.4749 -0.6417 -0.9233
 9545SOL    HW240290   3.459   8.894   0.624  1.7205 -1.3189 -0.8607
 9546SOL     OW40291   4.157   8.186   7.942 -0.1588 -0.2412  0.4592
 9546SOL    HW140292   4.244   8.164   7.987 -0.0837 -1.0160 -0.0526
 9546SOL    HW240293   4.172   8.250   7.867 -0.1205  0.1309  0.7857
 9547SOL     OW40294   8.248   0.127   4.765  0.0880 -0.0071 -0.5317
 9547SOL    HW140295   8.324   0.103   4.704  1.5205  0.1803  1.1313
 9547SOL    HW240296   8.237   0.226   4.768  0.4578  0.0228  0.0069
 9548SOL     OW40297   4.674   3.405   8.083 -0.8128  0.6566  0.4847
 9548SOL    HW140298   4.656   3.503   8.076 -1.4742  0.4866 -0.4203
 9548SOL    HW240299   4.744   3.379   8.016 -0.3848  0.5661  0.9622
 9549SOL     OW40300   1.528   1.139   2.392 -0.2121  0.2307 -0.0394
 9549SOL    HW140301   1.491   1.109   2.304  0.8734 -0.5394 -0.2390
 9549SOL    HW240302   1.458   1.190   2.442 -1.7158 -1.6688 -0.1697
 9550SOL     OW40303   6.851   7.846   3.584  0.2918  0.2043  0.1541
 9550SOL    HW140304   6.772   7.801   3.626  0.5478 -0.6294 -0.2428
 9550SOL    HW240305   6.836   7.945   3.582 -0.9176  0.0177 -0.3130
 9551SOL     OW40306   7.621   1.428   0.901 -0.4180  0.2149 -0.2870
 9551SOL    HW140307   7.645   1.454   0.807  2.3466  1.1850  0.6489
 9551SOL    HW240308   7.643   1.503   0.963  1.4771 -1.8568  1.6154
 9552SOL     OW40309   2.396   8.663   1.758  0.3667 -0.5015  0.4777
 9552SOL    HW140310   2.394   8.728   1.834  0.4509  0.3247 -0.2220
 9552SOL    HW240311   2.389   8.570   1.794  2.5900 -0.2474  1.6446
 9553SOL     OW40312   5.565   4.895   0.154  0.1094 -0.3720 -0.4012
 9553SOL    HW140313   5.480   4.946   0.144 -0.1078 -0.5771  0.3484
 9553SOL    HW240314   5.615   4.895   0.067 -1.0280 -0.9124 -1.0641
 9554SOL     OW40315   7.308   1.216   5.119 -0.1832 -0.9125 -0.2217
 9554SOL    HW140316   7.275   1.308   5.140  0.0380 -0.7003 -0.7843
 9554SOL    HW240317   7.242   1.148   5.153 -1.9795 -0.4514 -2.6458
 9555SOL     OW40318   7.045   2.520   4.819  0.0655 -0.1860  0.4627
 9555SOL    HW140319   7.090   2.597   4.865  1.1532 -0.9304  0.6768
 9555SOL    HW240320   7.114   2.468   4.768 -0.8503 -0.3639 -0.6100
 9556SOL     OW40321   5.333   4.862   0.333 -0.0738  0.1602  0.0836
 9556SOL    HW140322   5.286   4.942   0.298 -1.2672  0.0939  1.4654
 9556SOL    HW240323   5.424   4.888   0.367  0.9155  0.2943 -2.5536
 9557SOL     OW40324   8.360   0.294   0.704  0.1928  0.3176  0.1011
 9557SOL    HW140325   8.314   0.351   0.773  0.9179  0.6831  0.2782
 9557SOL    HW240326   8.335   0.325   0.613  0.3919  0.7570  0.1993
 9558SOL     OW40327   8.137   4.731   1.178 -0.2622 -0.7716 -0.0751
 9558SOL    HW140328   8.130   4.686   1.267  1.2080  1.7448  1.3809
 9558SOL    HW240329   8.204   4.683   1.121 -1.2184 -2.3962  0.1436
 9559SOL     OW40330   3.313   8.165   4.511  0.1841 -0.4102 -0.1283
 9559SOL    HW140331   3.283   8.255   4.541  1.5706 -0.0473  0.2022
 9559SOL    HW240332   3.237   8.116   4.468 -0.6355  0.8028 -0.0517
 9560SOL     OW40333   2.920   5.258   6.050 -0.2208 -0.2704  0.1179
 9560SOL    HW140334   2.967   5.263   5.962  0.7384 -2.1005  0.4943
 9560SOL    HW240335   2.967   5.193   6.109 -1.0382  0.7067  1.8868
 9561SOL     OW40336   7.401   4.368   5.977  0.6493 -0.0719 -0.2501
 9561SOL    HW140337   7.329   4.428   6.011  0.3848 -0.1825 -0.6030
 9561SOL    HW240338   7.490   4.405   6.003  0.5156  0.8326 -1.0304
 9562SOL     OW40339   8.171   5.408   4.113 -0.0730 -0.0806 -0.0189
 9562SOL    HW140340   8.143   5.405   4.209 -0.9878 -0.3261 -0.2864
 9562SOL    HW240341   8.243   5.340   4.097  0.2454  0.1222  0.5406
 9563SOL     OW40342   0.506   8.448   0.702 -0.5477  0.0849 -0.0778
 9563SOL    HW140343   0.478   8.473   0.795  1.7965  1.5641  0.2764
 9563SOL    HW240344   0.484   8.524   0.640  1.7598  0.8903  0.0512
 9564SOL     OW40345   1.916   8.862   7.521 -0.1478 -0.8013 -0.3121
 9564SOL    HW140346   1.895   8.955   7.551  0.2341 -0.4217 -1.1864
 9564SOL    HW240347   1.879   8.848   7.429  0.3822 -1.2825 -0.4559
 9565SOL     OW40348   6.583   7.828   5.420  0.0363  0.3204 -0.3987
 9565SOL    HW140349   6.652   7.760   5.442 -0.3632 -0.4237 -1.4036
 9565SOL    HW240350   6.597   7.862   5.327 -0.3274  0.9361 -0.2389
 9566SOL     OW40351   5.704   8.340   3.785  0.0684 -0.1707 -0.0228
 9566SOL    HW140352   5.663   8.276   3.719  0.8819 -1.4141  0.6568
 9566SOL    HW240353   5.791   8.374   3.749  0.1285 -0.2412  0.0512
 9567SOL     OW40354   3.043   3.545   0.544 -0.1323 -0.3213  0.7409
 9567SOL    HW140355   3.034   3.643   0.562 -0.8634 -0.2830  0.2134
 9567SOL    HW240356   2.951   3.505   0.534  0.2000 -0.7449 -0.7263
 9568SOL     OW40357   0.686   2.801   0.610 -0.0327 -0.1793 -0.2827
 9568SOL    HW140358   0.724   2.743   0.538  2.1057  0.6565  0.1246
 9568SOL    HW240359   0.729   2.778   0.698 -1.8833 -0.5048  0.5671
 9569SOL     OW40360   5.151   8.014   5.644  0.6181  0.2828  0.0068
 9569SOL    HW140361   5.198   7.929   5.667  1.1269 -0.3624 -3.1661
 9569SOL    HW240362   5.052   8.001   5.654  0.6827 -0.7381 -0.6112
 9570SOL     OW40363   3.335   1.105   6.441  0.0130  0.3185  0.6407
 9570SOL    HW140364   3.317   1.187   6.387 -1.9096 -1.6840 -1.9321
 9570SOL    HW240365   3.250   1.071   6.481  0.6039 -0.9172  0.9009
 9571SOL     OW40366   1.432   8.184   5.650 -0.4200  0.2154 -0.0967
 9571SOL    HW140367   1.422   8.268   5.597 -1.2344  0.6799  0.7728
 9571SOL    HW240368   1.521   8.182   5.694  0.2138 -0.1127 -1.3537
 9572SOL     OW40369   2.000   5.044   3.265  0.4675  0.1453  0.2065
 9572SOL    HW140370   2.005   5.142   3.282 -2.5219  0.7524 -2.0065
 9572SOL    HW240371   1.957   4.999   3.343  0.7608  0.7671  0.7328
 9573SOL     OW40372   8.583   0.172   4.045 -0.9121 -0.4658 -0.4702
 9573SOL    HW140373   8.667   0.146   3.997 -1.0753 -1.9581  0.0506
 9573SOL    HW240374   8.606   0.225   4.127 -0.5041 -0.6073 -0.4950
 9574SOL     OW40375   3.080   1.775   7.203  0.2049  0.5215  0.3202
 9574SOL    HW140376   3.162   1.810   7.156  0.2473  0.3327  0.2527
 9574SOL    HW240377   3.018   1.851   7.222 -0.6567  0.3458 -1.6981
 9575SOL     OW40378   8.623   4.982   8.135 -0.3119  0.2498  0.3104
 9575SOL    HW140379   8.588   4.937   8.218  0.7126 -1.2025 -0.0324
 9575SOL    HW240380   8.570   4.951   8.056 -0.2177  0.3591  0.2061
 9576SOL     OW40381   1.062   4.327   2.643  0.3324  0.4071 -1.0608
 9576SOL    HW140382   1.024   4.372   2.562 -0.8841  0.7587 -0.3090
 9576SOL    HW240383   1.030   4.232   2.647 -1.8349  1.1746  0.4444
 9577SOL     OW40384   7.105   0.396   1.350  0.7937  0.4301  0.6664
 9577SOL    HW140385   7.137   0.485   1.380  2.3814  0.1680 -0.2138
 9577SOL    HW240386   7.154   0.324   1.399 -0.4152  0.0253  1.3078
 9578SOL     OW40387   8.284   9.926   6.131 -0.1623  0.6697 -0.1600
 9578SOL    HW140388   8.241   9.865   6.198  0.9125  0.6585  0.5219
 9578SOL    HW240389   8.270  10.021   6.157  1.6441  0.6481  0.9773
 9579SOL     OW40390   3.650   3.930   1.246  0.3945  0.3419 -0.3213
 9579SOL    HW140391   3.678   3.857   1.184  0.0715  0.6011 -0.7777
 9579SOL    HW240392   3.588   3.892   1.315  1.4478 -0.1221  0.3781
 9580SOL     OW40393   8.818   8.862   0.241  0.4283 -0.2238  0.4560
 9580SOL    HW140394   8.721   8.838   0.239  0.2137  0.7021 -2.8245
 9580SOL    HW240395   8.872   8.778   0.250 -0.6079 -1.0246 -0.6175
 9581SOL     OW40396   3.646   5.135   1.988 -0.0461 -0.4216 -0.5885
 9581SOL    HW140397   3.654   5.052   1.932  0.7953 -0.7301 -0.0126
 9581SOL    HW240398   3.580   5.197   1.945 -1.5982 -1.8834 -0.4212
 9582SOL     OW40399   5.228   4.011   1.446  0.0001  0.2254 -0.2013
 9582SOL    HW140400   5.269   3.942   1.386  1.3848 -0.1257  1.1265
 9582SOL    HW240401   5.277   4.098   1.434  0.0493  0.2459  0.1503
 9583SOL     OW40402   5.734   9.078   5.651 -0.0586  0.4273 -0.4242
 9583SOL    HW140403   5.739   9.024   5.567  2.9199 -0.0901  0.0329
 9583SOL    HW240404   5.703   9.020   5.727 -0.4470  0.2962 -0.6854
 9584SOL     OW40405   1.935   2.132   4.842  0.0685  0.2929  0.6689
 9584SOL    HW140406   2.000   2.072   4.796 -0.9463  0.5241 -1.0981
 9584SOL    HW240407   1.886   2.081   4.912 -1.3559 -1.1744 -1.3563
 9585SOL     OW40408   8.687   5.410   5.246 -0.0496  0.0644  0.3012
 9585SOL    HW140409   8.668   5.368   5.157  1.3556  0.0226  0.0095
 9585SOL    HW240410   8.729   5.499   5.232 -2.6118  1.4220  0.9208
 9586SOL     OW40411   4.224   8.451   0.118  0.2831 -0.0264 -0.4407
 9586SOL    HW140412   4.207   8.459   0.216 -1.9744 -2.1124 -0.6082
 9586SOL    HW240413   4.203   8.538   0.073 -0.2683  0.4468  0.7170
 9587SOL     OW40414   7.658   2.590   5.952 -0.2253  0.4065  0.4720
 9587SOL    HW140415   7.626   2.650   5.879 -1.0613  0.7701  1.1368
 9587SOL    HW240416   7.758   2.589   5.952 -0.2154  0.4454 -0.6377
 9588SOL     OW40417   8.392   0.571   2.691  0.4944 -1.0551 -0.3308
 9588SOL    HW140418   8.306   0.541   2.733  0.8472  0.3945  1.5031
 9588SOL    HW240419   8.467   0.516   2.727  0.8776  0.5895  1.4973
 9589SOL     OW40420   2.243   7.573   0.147 -0.2395  0.3147 -0.1669
 9589SOL    HW140421   2.167   7.515   0.176 -0.1657  0.9619  1.3772
 9589SOL    HW240422   2.223   7.613   0.058 -0.1624 -2.2985 -1.3859
 9590SOL     OW40423   0.072   8.350   4.876  0.0604  0.5401  0.2034
 9590SOL    HW140424   0.109   8.420   4.815 -0.1111  0.4615  0.0046
 9590SOL    HW240425   0.114   8.358   4.966 -1.4763  2.2610  0.8136
 9591SOL     OW40426   9.320   3.323   7.322  0.2982 -0.0069  0.4375
 9591SOL    HW140427   9.264   3.351   7.244  1.2056  0.4115 -0.0626
 9591SOL    HW240428   9.413   3.302   7.292  1.1871  1.9904  1.6764
 9592SOL     OW40429   1.074   0.164   6.531 -0.5161 -0.4360  0.1439
 9592SOL    HW140430   1.055   0.113   6.615 -2.0086 -1.6802 -0.9228
 9592SOL    HW240431   1.173   0.168   6.517 -0.2560 -0.2673  1.9232
 9593SOL     OW40432   8.120   3.650   4.325  0.2411 -0.6427 -0.9673
 9593SOL    HW140433   8.052   3.663   4.253 -0.9584 -0.4879  0.1673
 9593SOL    HW240434   8.077   3.663   4.414  1.5628 -1.4275 -0.1938
 9594SOL     OW40435   4.448   9.202   1.840 -0.4552 -0.3255 -0.2710
 9594SOL    HW140436   4.456   9.224   1.937 -2.0992  2.3071 -0.6585
 9594SOL    HW240437   4.519   9.137   1.814  1.4776  0.7152  2.2013
 9595SOL     OW40438   9.314   6.985   5.141 -0.3942  0.2759  0.4738
 9595SOL    HW140439   9.290   6.916   5.073 -0.2860  2.2158 -1.5895
 9595SOL    HW240440   9.412   6.981   5.160 -0.5756 -0.8721  1.2409
 9596SOL     OW40441   3.061   2.506   3.302  0.2426  0.7504  0.1034
 9596SOL    HW140442   2.964   2.525   3.285  0.2080  0.9030  0.4703
 9596SOL    HW240443   3.073   2.478   3.397  0.7575  2.1308  0.4619
 9597SOL     OW40444   1.998   8.934   5.060 -0.9468 -0.2204 -0.5007
 9597SOL    HW140445   2.067   8.976   5.001 -1.0931 -0.7795 -1.0709
 9597SOL    HW240446   1.939   9.006   5.097  0.3494  0.3439  0.5545
 9598SOL     OW40447   2.475   3.085   0.071  0.1185  0.3764  0.4540
 9598SOL    HW140448   2.540   3.048   0.137 -0.5647  0.4617  1.1965
 9598SOL    HW240449   2.476   3.029  -0.012  1.3656  0.5777  0.3243
 9599SOL     OW40450   6.211   4.365   1.837  0.1271 -0.4389 -0.3238
 9599SOL    HW140451   6.137   4.427   1.809  1.6152  1.1518 -0.7962
 9599SOL    HW240452   6.250   4.322   1.756  0.6928 -0.1522 -0.2033
 9600SOL     OW40453   5.320   8.987   3.346  0.4261  0.2185  0.0996
 9600SOL    HW140454   5.286   8.897   3.318 -0.0028 -0.3339  2.2942
 9600SOL    HW240455   5.250   9.056   3.325  1.4079  0.3533 -3.1096
 9601SOL     OW40456   3.741   5.461   2.768 -0.6223  0.4780  1.3210
 9601SOL    HW140457   3.823   5.426   2.815  0.5246  0.2907 -0.7711
 9601SOL    HW240458   3.750   5.560   2.755  0.9658 -0.0647 -2.1113
 9602SOL     OW40459   1.943   1.574   3.713  0.1156  0.2019  0.4141
 9602SOL    HW140460   1.929   1.488   3.763  1.9246  0.0231  0.6297
 9602SOL    HW240461   1.856   1.624   3.709 -1.1885 -2.0286 -0.4951
 9603SOL     OW40462   0.085   6.640   0.346 -0.3220 -0.3141 -0.3895
 9603SOL    HW140463   0.183   6.639   0.364 -0.5556 -0.5152  0.8756
 9603SOL    HW240464   0.070   6.627   0.248  0.8797 -1.5824 -0.4270
 9604SOL     OW40465   4.437   4.097   1.784  0.0436  0.1910  0.5018
 9604SOL    HW140466   4.514   4.034   1.773 -0.4882 -0.5725  1.0376
 9604SOL    HW240467   4.412   4.135   1.696 -0.5191 -1.4341 -0.0649
 9605SOL     OW40468   4.865   8.796   5.611 -0.3125  0.4177  0.0830
 9605SOL    HW140469   4.830   8.870   5.669  0.6624  1.2672 -0.3855
 9605SOL    HW240470   4.820   8.710   5.635  0.6969  0.5728  2.7135
 9606SOL     OW40471   5.771   4.994   7.943  0.5690 -0.2978 -0.0581
 9606SOL    HW140472   5.784   5.021   8.038 -0.7755 -0.7151  0.2412
 9606SOL    HW240473   5.858   4.959   7.907  1.3261  0.7283  0.7164
 9607SOL     OW40474   3.464   8.110   3.103  0.0345 -0.2965  0.2427
 9607SOL    HW140475   3.558   8.143   3.108  0.1830 -0.5226 -1.0408
 9607SOL    HW240476   3.401   8.188   3.103  0.1887 -0.1560  1.5526
 9608SOL     OW40477   8.610   4.551   6.813 -0.1288  0.2267  0.2333
 9608SOL    HW140478   8.565   4.472   6.854 -1.2431  0.4863 -0.4609
 9608SOL    HW240479   8.540   4.614   6.778  0.7983  0.4249 -1.2668
 9609SOL     OW40480   9.728   9.598   6.439 -0.0145 -0.3844 -0.1911
 9609SOL    HW140481   9.684   9.567   6.354 -0.0199 -0.8798 -0.0049
 9609SOL    HW240482   9.690   9.687   6.465 -1.5522 -1.2032  0.4450
 9610SOL     OW40483   6.174   3.444   0.469  0.5561 -0.4095 -0.0090
 9610SOL    HW140484   6.105   3.414   0.403 -0.2509 -0.1988  0.7380
 9610SOL    HW240485   6.172   3.543   0.476  1.3299 -0.3655 -0.4133
 9611SOL     OW40486   1.022   0.583   0.505  0.3279  0.3507 -0.4414
 9611SOL    HW140487   0.962   0.589   0.585 -0.9906  1.2646 -1.4579
 9611SOL    HW240488   1.063   0.492   0.501  0.1574  0.1929  1.0922
 9612SOL     OW40489   5.287   9.253   5.139  0.3254 -0.2783  0.2297
 9612SOL    HW140490   5.202   9.302   5.123  0.4926 -0.2380 -0.5865
 9612SOL    HW240491   5.330   9.231   5.051  1.4578  0.2423  0.6360
 9613SOL     OW40492   0.747   8.056   0.657 -0.2105 -0.4652 -0.1886
 9613SOL    HW140493   0.652   8.070   0.629  0.4596  1.2336 -1.7184
 9613SOL    HW240494   0.799   8.139   0.638  1.6507 -1.4980  0.3600
 9614SOL     OW40495   8.545   2.855   2.301 -0.2604  0.0557  0.9992
 9614SOL    HW140496   8.489   2.937   2.305 -0.8813 -0.3306  0.3942
 9614SOL    HW240497   8.642   2.881   2.297 -0.5061  0.7924 -0.5193
 9615SOL     OW40498   3.140   4.749   7.796  0.0559 -0.0578 -0.1925
 9615SOL    HW140499   3.082   4.683   7.748 -0.3876 -0.0026  0.2602
 9615SOL    HW240500   3.101   4.840   7.788  0.4979  0.0994 -0.5436
 9616SOL     OW40501   1.499   1.948   5.163  0.2330 -0.3007 -0.5655
 9616SOL    HW140502   1.467   1.975   5.253  1.8417 -1.3207  0.3325
 9616SOL    HW240503   1.466   2.013   5.095  1.9099  2.5362  1.2267
 9617SOL     OW40504   6.676   8.855   3.533  0.0103 -0.0851 -0.1864
 9617SOL    HW140505   6.719   8.860   3.623 -1.8345  0.2510  0.7137
 9617SOL    HW240506   6.651   8.948   3.503 -0.4870 -0.3106 -0.4766
 9618SOL     OW40507   2.002   7.276   2.620  0.4853 -0.1739 -0.0858
 9618SOL    HW140508   2.016   7.178   2.624 -1.0141 -0.4614 -1.5024
 9618SOL    HW240509   2.041   7.313   2.536  2.1797  0.6780  1.0189
 9619SOL     OW40510   3.912   6.520   0.700  0.5226 -0.4910  0.1319
 9619SOL    HW140511   3.989   6.559   0.649 -0.7861 -0.4373 -1.8684
 9619SOL    HW240512   3.930   6.424   0.720  0.2039 -1.0641 -2.2297
 9620SOL     OW40513   9.067   2.409   0.779  0.1031 -0.1676  0.3680
 9620SOL    HW140514   9.019   2.414   0.691  2.2650 -3.4513 -1.0842
 9620SOL    HW240515   9.144   2.473   0.778 -0.8214  0.9805  0.5431
 9621SOL     OW40516   7.721   4.245   4.031  0.3448 -0.2144  0.2253
 9621SOL    HW140517   7.745   4.342   4.023 -1.4711  0.4657  2.7817
 9621SOL    HW240518   7.675   4.215   3.947 -0.1107  1.4251 -0.1231
 9622SOL     OW40519   1.523   1.170   3.848 -0.1092 -0.3955 -0.0860
 9622SOL    HW140520   1.556   1.156   3.755 -3.7593 -0.7900 -1.3932
 9622SOL    HW240521   1.538   1.265   3.875  0.7394 -0.2210 -1.1590
 9623SOL     OW40522   8.635   8.811   4.580 -0.0486 -0.4605  0.0798
 9623SOL    HW140523   8.708   8.792   4.514 -1.3852  0.6327 -1.7794
 9623SOL    HW240524   8.551   8.766   4.550 -0.4963 -0.5374  1.4322
 9624SOL     OW40525   7.520   6.190   4.750 -0.5476  0.0393  0.0436
 9624SOL    HW140526   7.520   6.189   4.650 -0.2298  1.5740  0.0175
 9624SOL    HW240527   7.547   6.100   4.784 -1.4667 -0.7324 -1.2434
 9625SOL     OW40528   9.655   9.802   7.843  0.3688 -0.4663 -0.9282
 9625SOL    HW140529   9.625   9.896   7.827  0.6545 -0.2076  0.0244
 9625SOL    HW240530   9.745   9.788   7.802  0.9039  0.0641  0.0377
 9626SOL     OW40531   9.807   8.981   2.502  0.4057 -0.2241 -0.2280
 9626SOL    HW140532   9.865   8.943   2.431 -1.0741 -0.4688 -1.3397
 9626SOL    HW240533   9.734   8.916   2.524  0.6837 -0.0330  1.3192
 9627SOL     OW40534   1.541   1.897   0.037  0.1161  0.5067 -0.5127
 9627SOL    HW140535   1.462   1.867   0.090 -0.3933  1.2022 -0.8692
 9627SOL    HW240536   1.529   1.870  -0.059  0.8435 -0.3928 -0.3540
 9628SOL     OW40537   3.084   6.453   7.534 -0.6758 -0.3199  0.6091
 9628SOL    HW140538   3.075   6.396   7.452  0.6254  0.7453 -0.2864
 9628SOL    HW240539   3.011   6.521   7.535  0.2472  0.7096 -0.5209
 9629SOL     OW40540   7.695   7.377   6.553  0.3282 -0.3944  0.2041
 9629SOL    HW140541   7.755   7.375   6.634 -1.3600 -0.2819  1.4925
 9629SOL    HW240542   7.744   7.341   6.474  1.9440 -0.7255  1.3321
 9630SOL     OW40543   9.334   6.043   3.582  0.2234 -0.1010  0.2999
 9630SOL    HW140544   9.365   6.060   3.676 -2.4088 -1.2226  1.4095
 9630SOL    HW240545   9.400   6.083   3.518  0.1615  4.1006  2.6282
 9631SOL     OW40546   0.457   0.150   3.621  0.1993  0.7453  0.2393
 9631SOL    HW140547   0.378   0.194   3.578 -1.1911 -1.7320  0.1226
 9631SOL    HW240548   0.445   0.151   3.721 -0.0307  0.3336  0.2200
 9632SOL     OW40549   6.940   5.972   5.936  0.4723 -0.2863  0.3638
 9632SOL    HW140550   6.980   5.927   6.016  0.1869 -1.4159 -0.1303
 9632SOL    HW240551   6.856   6.018   5.964  0.0939 -1.1174  0.6144
 9633SOL     OW40552   4.403   1.749   1.126  0.1964 -0.0585 -0.1253
 9633SOL    HW140553   4.399   1.735   1.225 -0.1371 -1.1420 -0.2787
 9633SOL    HW240554   4.440   1.667   1.083  0.0309  0.2864 -0.9285
 9634SOL     OW40555   8.656   6.037   0.765  0.2496 -0.4335  0.4753
 9634SOL    HW140556   8.707   6.117   0.798  0.3868 -0.1266 -0.4698
 9634SOL    HW240557   8.716   5.957   0.764 -0.3493 -0.9426  3.0419
 9635SOL     OW40558   2.465   5.836   0.561 -0.1334 -0.0660 -1.1138
 9635SOL    HW140559   2.422   5.920   0.529 -0.0282  0.5176  0.2281
 9635SOL    HW240560   2.556   5.858   0.597 -1.6464 -0.0683  2.9561
 9636SOL     OW40561   1.753   3.966   0.797  0.0168 -0.1335 -0.6064
 9636SOL    HW140562   1.724   4.031   0.727  2.1928  0.6610 -0.8075
 9636SOL    HW240563   1.841   3.926   0.770  1.2656  0.7511  2.0050
 9637SOL     OW40564   5.672   8.672   6.245 -0.1270  0.3289  0.3947
 9637SOL    HW140565   5.651   8.764   6.280  2.2967  1.2952 -0.5811
 9637SOL    HW240566   5.707   8.615   6.319  0.2892  0.8374  0.5939
 9638SOL     OW40567   0.795   2.217   4.307  0.0407 -0.2608  0.4198
 9638SOL    HW140568   0.823   2.171   4.223 -1.1628  0.8501 -0.6181
 9638SOL    HW240569   0.862   2.199   4.379  2.6514  1.1476 -1.5827
 9639SOL     OW40570   9.694   9.643   5.294  0.0232  0.2778 -0.5864
 9639SOL    HW140571   9.665   9.736   5.319  2.6296  0.7788  0.8363
 9639SOL    HW240572   9.743   9.647   5.207 -0.7386  0.0577 -1.0303
 9640SOL     OW40573   9.814   3.380   3.512 -0.1276 -0.4306 -0.2783
 9640SOL    HW140574   9.864   3.412   3.431  0.7824 -0.8278  0.1290
 9640SOL    HW240575   9.716   3.397   3.499 -0.0545 -1.0696 -1.7372
 9641SOL     OW40576   4.956   6.717   1.978  0.2029  0.7590 -0.3064
 9641SOL    HW140577   4.971   6.647   2.048  0.8292 -0.6410 -1.8077
 9641SOL    HW240578   4.863   6.752   1.985 -0.0994 -0.1891  0.4968
 9642SOL     OW40579   7.618   5.753   6.453 -0.2961 -0.3641  0.1430
 9642SOL    HW140580   7.630   5.761   6.552  0.0756 -0.7263  0.1323
 9642SOL    HW240581   7.635   5.658   6.425 -1.4011 -0.4807 -0.1378
 9643SOL     OW40582   1.087   6.595   0.836 -0.1062  0.1723 -0.1294
 9643SOL    HW140583   1.052   6.508   0.801  0.9109 -0.5581  0.6041
 9643SOL    HW240584   1.088   6.593   0.936 -0.8051  1.3345 -0.0920
 9644SOL     OW40585   6.831   5.506   6.841 -0.2845 -0.5448 -0.2316
 9644SOL    HW140586   6.892   5.520   6.763 -2.3280  0.1547 -1.7332
 9644SOL    HW240587   6.764   5.435   6.818 -1.1248 -0.0809  0.7736
 9645SOL     OW40588   2.114   3.001   6.751 -0.8914  0.2869 -0.2480
 9645SOL    HW140589   2.119   3.009   6.652  1.9273 -0.7440 -0.2196
 9645SOL    HW240590   2.063   3.079   6.788  0.0815  1.9540 -2.3031
 9646SOL     OW40591   0.209   8.930   5.491 -0.5193 -0.1470  0.4778
 9646SOL    HW140592   0.120   8.931   5.538 -0.5899  0.6812  0.3452
 9646SOL    HW240593   0.195   8.935   5.393 -0.3691 -1.9183  0.3558
 9647SOL     OW40594   8.813   1.593   1.050 -0.0755 -0.8570  0.5455
 9647SOL    HW140595   8.755   1.652   0.995  0.2817 -0.4060  0.6519
 9647SOL    HW240596   8.816   1.502   1.010 -0.4663 -0.7478  0.2706
 9648SOL     OW40597   5.120   3.033   0.556 -0.0600 -0.8397  0.2731
 9648SOL    HW140598   5.199   3.094   0.562  1.4551 -2.9161  1.5958
 9648SOL    HW240599   5.091   3.026   0.460 -1.2605  3.1407  0.2409
 9649SOL     OW40600   4.498   8.569   4.182  0.3206  0.4803 -0.3202
 9649SOL    HW140601   4.455   8.491   4.227 -0.9944  0.2956 -1.8620
 9649SOL    HW240602   4.510   8.643   4.248  0.3816 -0.5431  0.8384
 9650SOL     OW40603   0.967   3.155   0.904  0.5163  0.6092  0.0822
 9650SOL    HW140604   1.053   3.199   0.879 -0.3005  2.6621  0.7808
 9650SOL    HW240605   0.953   3.162   1.003 -0.4163  0.2558 -0.0161
 9651SOL     OW40606   0.013   4.339   4.053 -0.4165  0.0204 -0.2691
 9651SOL    HW140607  -0.021   4.433   4.055 -1.6011 -0.4089  0.0313
 9651SOL    HW240608   0.107   4.337   4.088  0.1735  1.3133 -1.7120
 9652SOL     OW40609   6.326   0.730   2.953  0.1834 -0.1371  0.0614
 9652SOL    HW140610   6.246   0.739   3.013 -1.6835 -0.0723 -2.3656
 9652SOL    HW240611   6.362   0.637   2.960  0.7842  0.2281  2.2183
 9653SOL     OW40612   4.208   3.480   2.189  0.3384  0.3177  0.4537
 9653SOL    HW140613   4.217   3.478   2.090  0.9706  1.7764  0.4684
 9653SOL    HW240614   4.275   3.418   2.230  0.7693  0.4865  0.0058
 9654SOL     OW40615   1.412   5.503   3.299  0.3897  0.5252  0.0110
 9654SOL    HW140616   1.399   5.419   3.351 -0.8005  0.4429 -0.3956
 9654SOL    HW240617   1.388   5.581   3.357 -0.6583  0.4491 -0.3024
 9655SOL     OW40618   9.540   0.053   6.157 -0.5693 -0.1676 -0.5723
 9655SOL    HW140619   9.528  -0.046   6.163 -0.0224 -0.2495 -0.7691
 9655SOL    HW240620   9.451   0.098   6.157 -0.8171 -0.6576 -0.4321
 9656SOL     OW40621   1.553   0.625   4.970 -0.2066 -0.4949  0.0887
 9656SOL    HW140622   1.569   0.531   4.999  0.3210 -0.3324  0.3189
 9656SOL    HW240623   1.472   0.661   5.016 -0.7009 -1.0050 -0.3802
 9657SOL     OW40624   6.140   4.281   0.864 -0.1607  0.6029 -0.9599
 9657SOL    HW140625   6.125   4.253   0.959 -1.6044  0.5698 -1.1846
 9657SOL    HW240626   6.077   4.231   0.805  0.5528  0.8209 -1.9117
 9658SOL     OW40627   1.730   4.037   1.061 -0.0644 -0.2171  0.0405
 9658SOL    HW140628   1.730   3.994   0.971  0.3262 -0.4238  0.1391
 9658SOL    HW240629   1.824   4.050   1.092 -0.2157 -1.6985  1.1525
 9659SOL     OW40630   2.428   9.034   4.756 -0.3039 -0.5255  0.4699
 9659SOL    HW140631   2.441   9.047   4.657  1.2115  0.8908  0.8155
 9659SOL    HW240632   2.506   8.984   4.793  0.6241  1.5588  1.4112
 9660SOL     OW40633   4.255   7.317   4.322 -0.3766 -0.0196  0.2652
 9660SOL    HW140634   4.296   7.305   4.412  0.6827 -0.8996 -0.3291
 9660SOL    HW240635   4.292   7.400   4.280  0.0922 -0.3055  0.1130
 9661SOL     OW40636   2.967   8.580   0.281 -0.2909 -0.2029  0.1666
 9661SOL    HW140637   2.976   8.667   0.233  2.4032  0.2870  1.4933
 9661SOL    HW240638   2.998   8.506   0.221 -0.5700 -0.0344 -0.1946
 9662SOL     OW40639   7.970   8.218   4.808 -0.1145 -0.0834 -0.5136
 9662SOL    HW140640   7.917   8.268   4.740  1.5073  1.7202 -0.4890
 9662SOL    HW240641   7.979   8.273   4.891 -0.0370 -1.2683  0.2750
 9663SOL     OW40642   2.335   0.688   3.108 -0.0197  0.2176  0.0170
 9663SOL    HW140643   2.310   0.591   3.118  0.5876 -0.0190 -0.6790
 9663SOL    HW240644   2.325   0.734   3.196  0.7814 -0.7516  0.6403
 9664SOL     OW40645   7.809   8.825   4.797  0.5410 -0.2167 -0.4349
 9664SOL    HW140646   7.889   8.767   4.815  0.2942 -0.1109  1.0809
 9664SOL    HW240647   7.737   8.803   4.863  0.6933  2.3066  0.6242
 9665SOL     OW40648   6.720   1.899   0.758  0.1891 -0.3298 -0.0043
 9665SOL    HW140649   6.699   1.979   0.815  0.3347 -0.1179 -0.2488
 9665SOL    HW240650   6.781   1.926   0.684  0.3145 -0.6889 -0.0318
 9666SOL     OW40651   2.426   1.749   2.736 -0.2405 -0.4544  0.6144
 9666SOL    HW140652   2.397   1.801   2.655  1.2952  0.9025  0.8943
 9666SOL    HW240653   2.351   1.747   2.802  0.0295  2.4919  1.0899
 9667SOL     OW40654   7.496   1.740   3.703 -0.0758 -0.4519  0.2381
 9667SOL    HW140655   7.505   1.798   3.783 -1.3449  0.3169 -0.1487
 9667SOL    HW240656   7.586   1.724   3.662  0.1874  2.2656 -0.3510
 9668SOL     OW40657   7.679   5.923   2.138 -0.4597  0.8168 -0.5250
 9668SOL    HW140658   7.757   5.879   2.094 -1.5635 -1.4461 -0.2826
 9668SOL    HW240659   7.611   5.946   2.069 -1.2109 -0.6803 -0.3011
 9669SOL     OW40660   1.378   6.018   6.039  0.0418  0.3900 -0.5498
 9669SOL    HW140661   1.372   5.918   6.041 -0.0615  0.3660 -1.6071
 9669SOL    HW240662   1.470   6.046   6.011 -0.1621  0.5755 -1.0452
 9670SOL     OW40663   2.486   2.864   5.835 -0.0497  0.5864 -0.1961
 9670SOL    HW140664   2.389   2.838   5.842 -0.2615  1.4719  0.1994
 9670SOL    HW240665   2.517   2.851   5.741 -0.3329 -0.4656 -0.1481
 9671SOL     OW40666   9.162   6.916   2.849  0.0606 -0.1282 -0.0221
 9671SOL    HW140667   9.243   6.970   2.872  0.4833 -0.0926 -1.5667
 9671SOL    HW240668   9.144   6.921   2.751 -1.3207 -0.8320  0.1735
 9672SOL     OW40669   5.550   9.462   2.409  0.9015  0.1430  0.2653
 9672SOL    HW140670   5.499   9.534   2.458  2.2211  0.9821  0.4295
 9672SOL    HW240671   5.497   9.377   2.412 -0.0389  0.7318  1.2898
 9673SOL     OW40672   2.992   6.394   6.749 -0.3252  0.1947  0.1505
 9673SOL    HW140673   2.968   6.393   6.846 -1.6360 -0.6041 -0.1567
 9673SOL    HW240674   3.070   6.333   6.733  0.1188  0.5990  0.7484
 9674SOL     OW40675   7.640   0.782   2.712  0.0346  0.4673 -0.0527
 9674SOL    HW140676   7.564   0.758   2.652 -1.5044  0.3992  1.8713
 9674SOL    HW240677   7.687   0.863   2.676  0.2529 -0.6130 -2.2665
 9675SOL     OW40678   4.696   5.465   2.791 -0.4073  0.7850 -0.5559
 9675SOL    HW140679   4.662   5.376   2.822  1.2255  0.5734  0.6311
 9675SOL    HW240680   4.656   5.486   2.701 -1.5390 -0.6949 -0.4161
 9676SOL     OW40681   0.823   7.244   7.580 -0.2251  0.2820  0.3755
 9676SOL    HW140682   0.821   7.297   7.495  2.3105  2.2286  1.4566
 9676SOL    HW240683   0.775   7.294   7.652  2.2380  1.2120  1.4191
 9677SOL     OW40684   7.170   0.092   6.245  0.1497 -0.1147 -0.1608
 9677SOL    HW140685   7.101   0.040   6.294  1.3916 -1.6542 -0.0308
 9677SOL    HW240686   7.152   0.087   6.146  1.1724 -2.1550 -0.2668
 9678SOL     OW40687   8.772   5.819   1.144 -0.1566 -0.0057  0.7137
 9678SOL    HW140688   8.690   5.802   1.089  0.1961 -0.2652  0.2657
 9678SOL    HW240689   8.811   5.908   1.120 -0.1584  0.0007  0.7347
 9679SOL     OW40690   8.628   4.669   3.201  0.2304  0.3049 -0.1731
 9679SOL    HW140691   8.706   4.616   3.171  0.0064  0.5905 -1.2681
 9679SOL    HW240692   8.579   4.620   3.273  2.6508  1.0924  2.0651
 9680SOL     OW40693   1.440   8.228   0.271 -0.5066 -0.0183 -0.2406
 9680SOL    HW140694   1.459   8.298   0.203  1.5538 -0.7734 -0.4819
 9680SOL    HW240695   1.508   8.154   0.263 -1.7244 -1.3071  0.9887
 9681SOL     OW40696   0.469   9.053   7.163 -0.0981 -0.0165 -0.2654
 9681SOL    HW140697   0.543   8.999   7.204  1.0750  0.8061 -1.2574
 9681SOL    HW240698   0.451   9.021   7.070 -0.1748  0.5682 -0.4543
 9682SOL     OW40699   2.067   3.390   2.427  0.5496 -0.4859 -0.3648
 9682SOL    HW140700   2.082   3.300   2.385 -1.0485 -0.0321 -1.9520
 9682SOL    HW240701   2.081   3.462   2.359  1.2971  0.4560  0.7678
 9683SOL     OW40702   9.191   8.825   1.421 -0.1725 -0.4209 -0.1510
 9683SOL    HW140703   9.095   8.849   1.406 -0.1686  0.2129  0.8053
 9683SOL    HW240704   9.249   8.888   1.370 -0.2424 -0.1324  0.1218
 9684SOL     OW40705   0.886   7.594   6.782 -0.1457 -0.2752 -0.4244
 9684SOL    HW140706   0.801   7.646   6.784 -1.1430 -1.7958 -2.3350
 9684SOL    HW240707   0.869   7.500   6.813  1.3624  0.0679  1.6109
 9685SOL     OW40708   6.275   1.229   0.585  0.1108 -0.4867  0.3240
 9685SOL    HW140709   6.191   1.258   0.630 -0.3775 -0.7230 -0.4118
 9685SOL    HW240710   6.354   1.261   0.636 -0.4172 -2.5618  2.5417
 9686SOL     OW40711   7.360   1.948   2.891 -0.5846  0.8592  0.5429
 9686SOL    HW140712   7.431   2.019   2.891  0.1738  0.1134 -0.0852
 9686SOL    HW240713   7.271   1.991   2.903 -0.0364  1.8148  1.3199
 9687SOL     OW40714   3.887   1.547   5.162 -0.8388 -0.0672 -0.1199
 9687SOL    HW140715   3.980   1.573   5.138  0.9711 -3.6023  2.5859
 9687SOL    HW240716   3.851   1.485   5.093 -0.7390  0.3551 -0.5541
 9688SOL     OW40717   1.059   0.722   7.292  0.4866  0.7514  0.3752
 9688SOL    HW140718   1.107   0.712   7.205  0.9823  1.2045  0.5920
 9688SOL    HW240719   0.961   0.711   7.277  0.5844  0.6437 -0.2103
 9689SOL     OW40720   1.606   8.111   6.218  0.4375  0.1789 -0.9308
 9689SOL    HW140721   1.628   8.189   6.159  1.3315 -1.0664 -2.2859
 9689SOL    HW240722   1.690   8.062   6.241  0.0648  0.5052  1.2079
 9690SOL     OW40723   1.487   4.745   0.633 -0.2426  0.2721  0.0346
 9690SOL    HW140724   1.517   4.826   0.582 -0.6501  0.2684 -0.2105
 9690SOL    HW240725   1.557   4.721   0.700  0.0673  0.5825 -0.1723
 9691SOL     OW40726   3.318   7.549   5.753  0.0095 -0.4109 -0.7992
 9691SOL    HW140727   3.383   7.583   5.821  0.2414 -1.9617 -0.2256
 9691SOL    HW240728   3.303   7.451   5.768 -0.2980 -0.6592 -2.6969
 9692SOL     OW40729   9.707   9.860   1.485 -0.3662 -0.1998  0.6243
 9692SOL    HW140730   9.626   9.882   1.431 -0.2736 -0.0826  0.5340
 9692SOL    HW240731   9.679   9.817   1.571 -0.4511 -2.2413 -0.3787
 9693SOL     OW40732   6.903   8.175   2.968 -0.3212 -0.2250 -0.1365
 9693SOL    HW140733   6.956   8.233   2.906  0.1075 -2.0759 -1.5416
 9693SOL    HW240734   6.805   8.188   2.951 -0.1913 -2.0736 -2.5269
 9694SOL     OW40735   4.489   0.411   3.275  0.5106 -0.0419  0.4014
 9694SOL    HW140736   4.500   0.386   3.371 -1.4319  1.0652  0.9511
 9694SOL    HW240737   4.399   0.382   3.244  0.5542  0.9348 -0.6528
 9695SOL     OW40738   7.774   0.112   1.091  0.0799  0.0341 -0.1943
 9695SOL    HW140739   7.700   0.048   1.111  0.0125  0.4152  0.7661
 9695SOL    HW240740   7.766   0.193   1.148  0.2716  0.8372 -1.2887
 9696SOL     OW40741   8.185   6.934   3.557 -0.0638 -1.0909  0.6946
 9696SOL    HW140742   8.278   6.898   3.568  0.2037 -0.4328  0.6063
 9696SOL    HW240743   8.165   6.997   3.631  0.2201  0.1561 -0.2801
 9697SOL     OW40744   9.468   0.860   4.420  0.3109  0.3925 -0.1180
 9697SOL    HW140745   9.467   0.920   4.340  2.0538  1.1195  0.3859
 9697SOL    HW240746   9.519   0.776   4.398 -1.0867 -0.3849 -0.4442
 9698SOL     OW40747   8.419   0.007   1.240 -0.0610 -0.1803 -0.5875
 9698SOL    HW140748   8.372  -0.018   1.155 -1.2422 -2.2960  0.6495
 9698SOL    HW240749   8.486  -0.063   1.263 -1.5652 -0.9641  1.5562
 9699SOL     OW40750   8.020   1.417   2.282 -0.5143  0.6007  0.2565
 9699SOL    HW140751   7.943   1.452   2.229 -0.8241  0.2367  0.4704
 9699SOL    HW240752   8.048   1.485   2.349 -0.9419  0.5518  0.4865
 9700SOL     OW40753   6.391   9.931   2.456  0.3659 -0.5177 -0.0827
 9700SOL    HW140754   6.388   9.986   2.372  1.2662  0.9496  0.8186
 9700SOL    HW240755   6.373   9.835   2.434  0.9839 -0.2203 -2.0066
 9701SOL     OW40756   5.091   0.962   0.407 -0.2458  0.2233 -0.2371
 9701SOL    HW140757   5.085   1.024   0.485 -1.1277 -0.3428  0.1580
 9701SOL    HW240758   5.163   0.895   0.423 -0.5480 -0.0032  0.1756
 9702SOL     OW40759   3.205   9.093   6.021 -0.1266  0.0858  0.2602
 9702SOL    HW140760   3.304   9.090   6.013 -0.1660 -0.6595 -0.0186
 9702SOL    HW240761   3.176   9.044   6.103 -0.1199  2.3775  1.6439
 9703SOL     OW40762   0.266   4.427   3.598 -0.1241 -0.2154 -0.9238
 9703SOL    HW140763   0.350   4.440   3.545  0.1044 -0.7904 -0.7032
 9703SOL    HW240764   0.236   4.331   3.589 -0.2927 -0.2173 -0.3149
 9704SOL     OW40765   1.318   5.822   0.304  0.2643  0.1671 -0.0037
 9704SOL    HW140766   1.302   5.827   0.402  0.9954 -1.5282  0.2102
 9704SOL    HW240767   1.406   5.865   0.283  0.6109 -0.4223  0.2268
 9705SOL     OW40768   8.846   0.127   2.056  0.2132  0.4197  0.1915
 9705SOL    HW140769   8.871   0.140   2.152 -0.7124 -0.1218  0.5176
 9705SOL    HW240770   8.747   0.114   2.049  0.2962  0.2846 -0.8221
 9706SOL     OW40771   9.218   4.847   8.086  0.3194  0.3456  0.0451
 9706SOL    HW140772   9.281   4.805   8.152  0.7558 -0.0514 -0.6173
 9706SOL    HW240773   9.208   4.944   8.107  0.2147  0.1619  0.8836
 9707SOL     OW40774   7.947   1.950   5.444 -0.1785 -0.4336  0.2815
 9707SOL    HW140775   7.989   1.929   5.356  2.2950  1.5679  0.9386
 9707SOL    HW240776   7.919   2.046   5.446 -0.8363 -0.6315  1.4388
 9708SOL     OW40777   1.081   5.668   7.694 -0.2918  0.0838  0.0135
 9708SOL    HW140778   1.176   5.655   7.668  0.1064  1.6090  0.6548
 9708SOL    HW240779   1.040   5.739   7.637 -0.2280  1.4261  1.6102
 9709SOL     OW40780   3.138   0.106   5.747  0.1327 -0.0734  0.7923
 9709SOL    HW140781   3.217   0.167   5.757  0.5925 -0.6082  0.4541
 9709SOL    HW240782   3.117   0.094   5.649 -0.1634 -0.1984  0.8696
 9710SOL     OW40783   1.293   3.972   5.711 -0.1847 -0.2943  0.3867
 9710SOL    HW140784   1.350   4.047   5.745 -0.2064 -0.1918  0.1994
 9710SOL    HW240785   1.319   3.951   5.617 -2.0498  1.3606 -0.5611
 9711SOL     OW40786   4.231   9.137   7.451 -0.1089  0.1157  0.8717
 9711SOL    HW140787   4.183   9.164   7.534 -0.7525  2.0627 -0.1034
 9711SOL    HW240788   4.215   9.040   7.433 -3.1160  0.5428  0.9533
 9712SOL     OW40789   0.035   6.432   3.711  0.1779 -0.6254 -0.5097
 9712SOL    HW140790   0.090   6.354   3.741  0.5735  0.3408  1.3412
 9712SOL    HW240791  -0.010   6.474   3.790 -1.0340  0.2639 -1.6510
 9713SOL     OW40792   1.548   2.135   4.278  0.2283 -0.7343 -0.1899
 9713SOL    HW140793   1.517   2.071   4.349  0.6414 -0.9434 -0.1935
 9713SOL    HW240794   1.516   2.227   4.300  0.0800 -0.8530  0.1004
 9714SOL     OW40795   8.038   1.376   4.917 -0.1846  0.1804  0.0795
 9714SOL    HW140796   8.078   1.343   4.831  0.5841 -1.0998  0.9095
 9714SOL    HW240797   8.101   1.356   4.992 -0.5789  1.8479  0.8697
 9715SOL     OW40798   2.829   3.829   1.425  0.3225  0.3574  0.0488
 9715SOL    HW140799   2.771   3.813   1.505  0.1430  0.7326 -0.0064
 9715SOL    HW240800   2.875   3.744   1.400  0.0896  0.1494  0.3221
 9716SOL     OW40801   5.840   0.896   5.572  0.3816 -0.5884 -0.0689
 9716SOL    HW140802   5.786   0.849   5.642 -2.6853 -0.3360 -2.1762
 9716SOL    HW240803   5.810   0.991   5.563  2.9549  0.3270  0.4795
 9717SOL     OW40804   4.405   2.628   6.548  0.1430 -0.2416 -0.1221
 9717SOL    HW140805   4.435   2.607   6.641  0.2127  0.4511  0.0133
 9717SOL    HW240806   4.346   2.709   6.549 -0.8973 -0.9842 -0.5215
 9718SOL     OW40807   3.080   8.924   4.050 -0.0361 -0.3994 -0.8961
 9718SOL    HW140808   3.025   8.958   4.126 -1.7788 -0.8320 -1.9561
 9718SOL    HW240809   3.067   8.983   3.970  0.0512 -1.2301 -1.5324
 9719SOL     OW40810   1.056   9.035   0.711 -0.3140 -0.1522  0.0004
 9719SOL    HW140811   1.145   8.991   0.726  0.5723  1.8560  0.8473
 9719SOL    HW240812   0.990   8.999   0.777 -0.1436 -1.6876 -0.6592
 9720SOL     OW40813   1.965   4.800   6.432 -0.2714  0.1015  0.3786
 9720SOL    HW140814   2.041   4.866   6.430 -0.5313  0.4554  1.7866
 9720SOL    HW240815   1.969   4.748   6.517 -2.3559  1.0155  1.0650
 9721SOL     OW40816   8.121   0.408   2.003  0.7045 -0.0036 -0.3303
 9721SOL    HW140817   8.141   0.385   1.908  0.5837  0.6535 -0.5191
 9721SOL    HW240818   8.043   0.354   2.035  1.2081 -0.7560 -0.3738
 9722SOL     OW40819   3.881   0.136   3.008  0.3740 -0.2374 -0.0951
 9722SOL    HW140820   3.918   0.050   3.043  0.2174 -0.1325  0.3393
 9722SOL    HW240821   3.791   0.152   3.048 -0.7747 -1.1795 -2.2321
 9723SOL     OW40822   4.021   7.942   5.841  0.5867 -0.3866  0.4802
 9723SOL    HW140823   3.945   7.957   5.905 -0.3534  0.8362 -0.9104
 9723SOL    HW240824   3.985   7.909   5.754  1.8567 -1.8856  0.4947
 9724SOL     OW40825   1.811   1.033   3.267  0.6734 -0.0605  0.2662
 9724SOL    HW140826   1.809   0.966   3.192  1.5532 -2.1910  2.0742
 9724SOL    HW240827   1.732   1.019   3.326 -0.4740  2.1763 -0.6857
 9725SOL     OW40828   4.406   6.033   0.201 -0.3921 -0.0899 -0.7576
 9725SOL    HW140829   4.490   6.080   0.229  0.1696 -0.9654 -0.9497
 9725SOL    HW240830   4.332   6.058   0.263  0.3781 -0.5163  0.3506
 9726SOL     OW40831   2.169   3.263   7.332  0.0409  0.0194 -0.0466
 9726SOL    HW140832   2.137   3.358   7.336 -2.9016 -0.9590  1.2467
 9726SOL    HW240833   2.229   3.245   7.410 -1.4367  0.1477  1.1397
 9727SOL     OW40834   1.963   6.925   4.376  0.0198 -0.6602 -0.4109
 9727SOL    HW140835   2.021   6.989   4.428 -0.1398 -0.1166 -0.8954
 9727SOL    HW240836   1.923   6.859   4.438  0.2604 -0.3400  0.0899
 9728SOL     OW40837   2.481   2.361   2.511 -0.0215  0.1273 -0.8039
 9728SOL    HW140838   2.451   2.266   2.524  1.9351 -0.5080 -0.7215
 9728SOL    HW240839   2.445   2.396   2.425  1.3938 -1.5792 -2.1140
 9729SOL     OW40840   3.637   8.109   2.747  0.4136  0.3257 -0.3828
 9729SOL    HW140841   3.616   8.099   2.844 -0.7179  0.7266 -0.5751
 9729SOL    HW240842   3.717   8.054   2.724 -1.7453 -3.1268 -0.0882
 9730SOL     OW40843   7.199   0.556   3.275 -0.1170 -0.5748  0.5037
 9730SOL    HW140844   7.294   0.551   3.306 -0.1674 -0.7374  0.6324
 9730SOL    HW240845   7.149   0.476   3.308  0.5493 -2.2607 -2.4363
 9731SOL     OW40846   1.163   9.616   1.730 -0.3067  0.3969  0.0338
 9731SOL    HW140847   1.253   9.573   1.738 -0.0063  0.9671 -0.2749
 9731SOL    HW240848   1.113   9.602   1.815  0.6465  1.3580  0.7743
 9732SOL     OW40849   2.177   7.466   4.597  0.1958 -0.3582  0.0825
 9732SOL    HW140850   2.223   7.383   4.629 -1.2806 -0.6804  1.4471
 9732SOL    HW240851   2.232   7.546   4.620  2.5731 -1.0281 -2.9470
 9733SOL     OW40852   0.113   0.209   2.839  0.4920  0.1038 -0.2482
 9733SOL    HW140853   0.122   0.111   2.825  1.7549  0.3802 -1.5403
 9733SOL    HW240854   0.141   0.233   2.933 -0.0167 -0.7907  0.1280
 9734SOL     OW40855   9.171   7.506   4.442  0.3690 -0.1281  0.0240
 9734SOL    HW140856   9.097   7.535   4.381 -0.8560  0.0317  1.5518
 9734SOL    HW240857   9.163   7.555   4.529  0.7938 -1.9305  1.1039
 9735SOL     OW40858   4.146   4.891   4.079 -0.5453  0.3797 -0.3455
 9735SOL    HW140859   4.202   4.821   4.037  0.7170  1.0650  0.1667
 9735SOL    HW240860   4.124   4.962   4.012 -0.7733  0.1286 -0.5362
 9736SOL     OW40861   8.865   0.902   5.651  0.4053 -0.3538  0.6555
 9736SOL    HW140862   8.775   0.918   5.693 -0.6888 -0.4859 -1.5952
 9736SOL    HW240863   8.892   0.807   5.666 -0.4916 -0.7008  0.0887
 9737SOL     OW40864   8.830   3.749   8.120 -0.3427  0.0360  0.1592
 9737SOL    HW140865   8.911   3.714   8.073  0.0748  1.1508  0.0468
 9737SOL    HW240866   8.857   3.807   8.196 -1.0216  1.2678 -0.5129
 9738SOL     OW40867   4.566   5.915   7.900  0.1706 -0.4101 -0.6324
 9738SOL    HW140868   4.534   5.825   7.929 -0.0947 -0.3695 -0.7965
 9738SOL    HW240869   4.496   5.959   7.844  0.1305  0.0731 -0.2011
 9739SOL     OW40870   4.727   9.608   1.963 -0.6434 -0.0029  0.4515
 9739SOL    HW140871   4.726   9.676   2.036 -0.9142  1.3591 -0.8047
 9739SOL    HW240872   4.633   9.591   1.932 -0.2642  2.1118 -2.0171
 9740SOL     OW40873   2.141   9.295   2.031 -0.0758 -0.4539  0.1589
 9740SOL    HW140874   2.186   9.383   2.015 -0.2074 -0.6648 -1.3521
 9740SOL    HW240875   2.047   9.297   1.998  0.4757 -1.7362 -1.5903
 9741SOL     OW40876   0.985   0.874   2.513 -0.0084  0.1272 -0.0358
 9741SOL    HW140877   0.943   0.871   2.422  2.2819  2.9618 -1.2728
 9741SOL    HW240878   1.079   0.841   2.507  0.5539  1.4709  1.0439
 9742SOL     OW40879   5.066   8.618   3.865  0.0599  0.1446 -0.4557
 9742SOL    HW140880   5.102   8.651   3.953  0.2294  1.0885 -0.8732
 9742SOL    HW240881   5.140   8.576   3.813  0.2481  0.7891 -0.7091
 9743SOL     OW40882   4.858   1.556   1.182 -0.4985 -0.1711 -0.1683
 9743SOL    HW140883   4.907   1.623   1.239  0.8746  0.1992 -1.7583
 9743SOL    HW240884   4.782   1.601   1.136 -0.3276  0.0029 -0.2800
 9744SOL     OW40885   4.077   5.366   2.043 -0.2595  0.7350  0.0323
 9744SOL    HW140886   3.995   5.358   1.986  0.5278  0.5072 -1.0900
 9744SOL    HW240887   4.057   5.424   2.122 -2.1886 -1.2754  1.0586
 9745SOL     OW40888   3.997   1.441   4.441  0.2726  0.1205  0.0549
 9745SOL    HW140889   3.911   1.490   4.430  0.7966  1.4011  1.4165
 9745SOL    HW240890   4.059   1.494   4.499  2.7541  0.1807 -2.5145
 9746SOL     OW40891   6.658   7.117   5.998  0.4417 -0.8614  0.5720
 9746SOL    HW140892   6.563   7.143   6.017  0.2283  0.8411 -2.4729
 9746SOL    HW240893   6.664   7.017   5.990 -1.3797 -0.9023 -0.5690
 9747SOL     OW40894   8.728   5.589   0.894  0.2367 -0.2929  0.3168
 9747SOL    HW140895   8.659   5.653   0.927 -0.5101 -1.6271  1.4172
 9747SOL    HW240896   8.760   5.532   0.970  0.5353 -1.5358 -0.7238
 9748SOL     OW40897   9.030   4.743   6.900  0.0834 -0.1786  0.0068
 9748SOL    HW140898   8.966   4.671   6.874 -0.0566  0.5600 -1.7279
 9748SOL    HW240899   8.978   4.822   6.935  0.2344 -0.8729  1.8441
 9749SOL     OW40900   6.268   0.229   2.266 -0.5636 -0.4140 -0.6141
 9749SOL    HW140901   6.220   0.314   2.288 -0.0420 -0.1853 -0.3594
 9749SOL    HW240902   6.316   0.196   2.347 -0.4557 -0.7507 -0.8160
 9750SOL     OW40903   9.087   3.981   6.087  0.2621  0.0951 -0.3843
 9750SOL    HW140904   9.165   4.044   6.077 -1.1300  1.9218 -0.0723
 9750SOL    HW240905   9.091   3.912   6.016  1.3029  1.1128 -1.3479
 9751SOL     OW40906   0.467   5.478   3.657 -0.1703 -0.6371  0.2773
 9751SOL    HW140907   0.403   5.555   3.651 -0.7408 -1.0206  1.4030
 9751SOL    HW240908   0.484   5.443   3.565  0.7986  1.3994 -0.3472
 9752SOL     OW40909   3.783   5.885   3.468 -0.0101 -0.3448 -0.1228
 9752SOL    HW140910   3.702   5.937   3.497 -1.0191 -1.4495 -0.9184
 9752SOL    HW240911   3.802   5.904   3.372  2.2711  1.9333  0.7263
 9753SOL     OW40912   1.067   9.059   4.391 -0.2107  0.7802  0.2865
 9753SOL    HW140913   1.064   8.963   4.362  0.6356  1.1965 -1.2872
 9753SOL    HW240914   0.990   9.108   4.350  0.5680  1.2158 -0.6821
 9754SOL     OW40915   0.008   4.742   7.288  0.6668  0.3690  0.2260
 9754SOL    HW140916   0.064   4.660   7.282  0.2580 -0.0296  1.5636
 9754SOL    HW240917   0.012   4.778   7.382 -0.5183  0.8913  0.0849
 9755SOL     OW40918   5.238   1.106   5.862 -0.0538  0.0688  0.1582
 9755SOL    HW140919   5.210   1.068   5.950 -1.9135 -0.3153 -0.5645
 9755SOL    HW240920   5.230   1.035   5.791  0.2833  0.7043 -0.5212
 9756SOL     OW40921   1.053   7.674   3.433 -0.0214  0.3552  0.0295
 9756SOL    HW140922   1.106   7.719   3.505 -0.3134  1.3554 -0.3708
 9756SOL    HW240923   1.061   7.727   3.349 -0.7433 -0.1055 -0.3252
 9757SOL     OW40924   3.240   7.586   6.628  0.4051 -0.7155  0.0095
 9757SOL    HW140925   3.291   7.500   6.625  0.0591 -1.0065  1.7608
 9757SOL    HW240926   3.270   7.640   6.707 -0.7532 -0.1132  0.0534
 9758SOL     OW40927   0.625   3.742   6.087 -0.5355  0.0777  0.4844
 9758SOL    HW140928   0.563   3.677   6.042 -0.0945 -0.2219  0.3064
 9758SOL    HW240929   0.719   3.711   6.075 -0.0286  2.6696 -2.7300
 9759SOL     OW40930   3.092   4.399   0.171 -0.0154 -0.2163  0.2844
 9759SOL    HW140931   3.092   4.425   0.268 -0.5602  1.3815 -0.1329
 9759SOL    HW240932   3.005   4.423   0.129  0.3096 -0.6617 -0.6728
 9760SOL     OW40933   0.569   4.897   6.137  0.3846  0.2861  0.2525
 9760SOL    HW140934   0.534   4.913   6.044  0.5786 -0.5690  0.0294
 9760SOL    HW240935   0.495   4.912   6.203  0.0762  0.2635 -0.0861
 9761SOL     OW40936   7.653   9.729   2.616  0.1849  0.1111  0.3431
 9761SOL    HW140937   7.647   9.829   2.612  1.4355  0.3602  3.2204
 9761SOL    HW240938   7.733   9.698   2.565 -0.2644  0.5382 -0.6435
 9762SOL     OW40939   9.724   8.886   0.145 -0.0604  0.7504  0.2862
 9762SOL    HW140940   9.628   8.895   0.171 -0.7432 -0.7700 -1.6486
 9762SOL    HW240941   9.765   8.810   0.195 -0.7079 -0.5737 -1.1602
 9763SOL     OW40942   7.672   8.792   6.790  0.6112  0.0349  0.0677
 9763SOL    HW140943   7.621   8.866   6.832  1.3907  0.0185  1.0759
 9763SOL    HW240944   7.769   8.800   6.815  1.3336  0.7994 -2.8537
 9764SOL     OW40945   2.416   3.045   4.453  0.5818  0.0149  0.0183
 9764SOL    HW140946   2.498   3.080   4.408  1.4128 -1.6894  0.1809
 9764SOL    HW240947   2.423   3.063   4.552 -0.8080  2.8935 -0.3518
 9765SOL     OW40948   4.997   1.518   0.801 -0.0329  0.2930 -0.2775
 9765SOL    HW140949   5.076   1.547   0.746 -0.8254  2.1325 -0.4956
 9765SOL    HW240950   5.029   1.472   0.884  1.2275 -0.2647 -1.0594
 9766SOL     OW40951   8.391   4.628   6.673  0.0158 -0.4338  0.3382
 9766SOL    HW140952   8.363   4.554   6.612 -2.3962 -1.5351  2.6599
 9766SOL    HW240953   8.352   4.714   6.640  0.9883 -0.5518 -1.1508
 9767SOL     OW40954   8.694   1.329   2.723  0.3889 -0.0693  0.0241
 9767SOL    HW140955   8.757   1.365   2.792  0.2767 -0.6867  0.4440
 9767SOL    HW240956   8.687   1.230   2.732 -0.4469 -0.0345 -0.1890
 9768SOL     OW40957   8.452   9.170   4.357  0.1786 -0.6469  0.0007
 9768SOL    HW140958   8.498   9.246   4.313 -3.3123  1.5302 -0.0259
 9768SOL    HW240959   8.491   9.156   4.448  0.5470  1.4831  0.1906
 9769SOL     OW40960   6.274   1.236   0.085  0.3890 -0.3910  0.1175
 9769SOL    HW140961   6.299   1.194   0.172  2.0448 -1.7105 -0.9515
 9769SOL    HW240962   6.244   1.165   0.022  0.0350  0.4521 -0.6673
 9770SOL     OW40963   4.363   1.789   4.801  0.1494 -0.4787 -0.1706
 9770SOL    HW140964   4.462   1.799   4.790  0.3012 -0.6810  0.9784
 9770SOL    HW240965   4.333   1.703   4.759  0.2043  0.3896 -2.0121
 9771SOL     OW40966   5.749   0.481   3.757 -0.1860  0.5044 -0.2677
 9771SOL    HW140967   5.809   0.412   3.798 -0.6072  1.1724  1.5484
 9771SOL    HW240968   5.791   0.517   3.674  1.0703 -0.3618 -0.0193
 9772SOL     OW40969   8.038   9.650   3.883  0.0247  0.3238  0.0102
 9772SOL    HW140970   7.970   9.581   3.859 -1.5085  1.9916 -0.5300
 9772SOL    HW240971   8.014   9.692   3.970  1.3252 -0.2642  0.6754
 9773SOL     OW40972   8.738   2.037   0.113  0.1532  1.0107 -0.3886
 9773SOL    HW140973   8.740   2.069   0.207 -2.4579  1.3511 -0.4273
 9773SOL    HW240974   8.832   2.035   0.077  1.2054  0.5827  2.2718
 9774SOL     OW40975   0.726   0.954   7.434  0.0784 -0.1965 -0.1181
 9774SOL    HW140976   0.675   0.935   7.351 -1.2610 -1.8794  1.0716
 9774SOL    HW240977   0.821   0.975   7.411 -0.4510  0.0755 -2.1047
 9775SOL     OW40978   3.388   4.073   4.367  0.2880 -0.2931  0.3377
 9775SOL    HW140979   3.458   4.007   4.338  0.0437  0.2042 -1.4353
 9775SOL    HW240980   3.425   4.166   4.361 -0.5812 -0.0104 -0.8200
 9776SOL     OW40981   7.095   7.778   5.437 -0.0081 -0.1631 -0.1665
 9776SOL    HW140982   7.136   7.687   5.445 -0.0447 -0.3206 -1.6791
 9776SOL    HW240983   7.101   7.825   5.525 -0.2750 -1.7457  0.7209
 9777SOL     OW40984   2.200   2.138   6.961  0.5982 -0.6031  0.1754
 9777SOL    HW140985   2.218   2.233   6.987  0.1253 -0.6454  0.6663
 9777SOL    HW240986   2.282   2.083   6.977  0.2077 -0.7113  2.0223
 9778SOL     OW40987   0.120   4.311   7.732  0.5174  0.2453  0.0593
 9778SOL    HW140988   0.111   4.397   7.681 -0.2859  1.2724  1.8499
 9778SOL    HW240989   0.132   4.332   7.829 -0.5530 -1.6909  0.6331
 9779SOL     OW40990   6.950   8.929   4.098 -0.2670 -0.4573  0.6398
 9779SOL    HW140991   6.938   8.971   4.188 -1.1457  1.2381 -0.2420
 9779SOL    HW240992   6.975   8.833   4.109  0.1620 -0.1327  2.6923
 9780SOL     OW40993   5.874   0.587   2.361  0.3763 -0.9390  0.2676
 9780SOL    HW140994   5.881   0.569   2.459 -0.2998 -1.3753  0.2390
 9780SOL    HW240995   5.872   0.686   2.345  1.6002 -0.8498  0.6077
 9781SOL     OW40996   1.276   9.798   3.906  0.5227 -0.6575 -0.1257
 9781SOL    HW140997   1.190   9.848   3.917  1.1695  0.4718 -0.0846
 9781SOL    HW240998   1.262   9.720   3.845 -0.3664 -0.0587 -0.6974
 9782SOL     OW40999   8.753   5.881   1.644 -0.0996  0.2988 -0.0091
 9782SOL    HW141000   8.815   5.805   1.665  0.9436  1.4533  1.1904
 9782SOL    HW241001   8.745   5.891   1.545  0.8788 -0.4700 -0.1837
 9783SOL     OW41002   8.406   1.227   7.387 -0.1866 -0.2606  0.0632
 9783SOL    HW141003   8.424   1.184   7.476 -0.9242  1.8629  1.2722
 9783SOL    HW241004   8.475   1.298   7.370 -0.7883  0.2009 -0.4753
 9784SOL     OW41005   1.650   7.412   7.006  0.1071 -0.2910  0.9654
 9784SOL    HW141006   1.580   7.468   6.963  0.9638  0.0803  0.0448
 9784SOL    HW241007   1.734   7.465   7.018  0.8774 -1.3156  0.2289
 9785SOL     OW41008   5.230   7.610   3.665 -0.3952 -0.0978  0.1909
 9785SOL    HW141009   5.243   7.548   3.588 -0.5469  0.6185 -0.4213
 9785SOL    HW241010   5.233   7.705   3.632 -1.7064  0.1941  0.8734
 9786SOL     OW41011   2.427   5.006   7.585  0.1596 -0.2357 -0.6431
 9786SOL    HW141012   2.407   5.096   7.624 -0.0726 -0.3026 -0.6092
 9786SOL    HW241013   2.413   4.936   7.654  1.0657 -0.2335 -0.4526
 9787SOL     OW41014   2.340   5.184   6.957 -0.2731 -0.2038 -0.0711
 9787SOL    HW141015   2.429   5.225   6.974 -0.4910  0.0448  0.5021
 9787SOL    HW241016   2.294   5.167   7.044 -1.6252  1.5676 -0.4160
 9788SOL     OW41017   9.007   6.641   1.127 -0.2003 -0.1322  0.2851
 9788SOL    HW141018   9.034   6.545   1.131  0.5728  0.0898  0.3508
 9788SOL    HW241019   9.005   6.680   1.219 -2.2087 -0.5473  0.4427
 9789SOL     OW41020   8.323   8.237   1.514  0.2501 -0.3152 -0.1816
 9789SOL    HW141021   8.354   8.289   1.434  1.3193 -0.4237  0.1531
 9789SOL    HW241022   8.328   8.140   1.494  2.0478 -0.3851  0.5637
 9790SOL     OW41023   0.197   9.522   4.162  0.1231  0.0697 -0.5919
 9790SOL    HW141024   0.133   9.596   4.184 -0.9609 -1.4158  1.3974
 9790SOL    HW241025   0.241   9.541   4.074 -0.0501  3.1207 -0.0727
 9791SOL     OW41026   0.430   0.215   3.889  0.1042  0.0091 -0.5774
 9791SOL    HW141027   0.343   0.262   3.894  0.2859  0.6606 -3.2069
 9791SOL    HW241028   0.433   0.142   3.959 -1.8139  1.0992  0.6647
 9792SOL     OW41029   5.712   8.196   4.425  0.0727 -0.1311  0.0821
 9792SOL    HW141030   5.769   8.134   4.371  0.1929 -0.5855  0.7201
 9792SOL    HW241031   5.664   8.259   4.364  1.0497  0.0774 -0.4845
 9793SOL     OW41032   1.583   6.361   0.781  0.5042  0.1848 -0.8190
 9793SOL    HW141033   1.594   6.293   0.709  3.5216 -0.3897  0.1263
 9793SOL    HW241034   1.547   6.317   0.864 -1.3941  0.5405 -1.4274
 9794SOL     OW41035   2.654   3.215   6.605 -0.5379 -0.5299  0.2645
 9794SOL    HW141036   2.608   3.130   6.579 -3.8010  1.8285 -1.9821
 9794SOL    HW241037   2.744   3.219   6.561 -1.1083 -1.9487 -1.0801
 9795SOL     OW41038   4.648   2.231   6.963 -0.1328 -0.3568  0.0159
 9795SOL    HW141039   4.578   2.292   6.926 -1.4155 -2.0514 -0.3941
 9795SOL    HW241040   4.701   2.280   7.032 -0.3270  1.6030 -1.1824
 9796SOL     OW41041   0.202   2.680   6.166 -0.0767  0.1429 -0.1642
 9796SOL    HW141042   0.231   2.721   6.079  0.4963 -0.1644 -0.1216
 9796SOL    HW241043   0.103   2.691   6.177  0.2766  2.8959  0.5627
 9797SOL     OW41044   1.889   8.366   7.373  0.0545  0.2676 -0.0601
 9797SOL    HW141045   1.843   8.320   7.449 -0.9189 -1.5910 -1.7260
 9797SOL    HW241046   1.987   8.369   7.390 -0.1993  0.3276  1.4782
 9798SOL     OW41047   9.488   6.431   7.149  0.0177 -0.3256 -0.4422
 9798SOL    HW141048   9.470   6.498   7.221 -4.1586 -0.5132 -1.1952
 9798SOL    HW241049   9.520   6.478   7.067 -1.3072  0.5924 -0.4460
 9799SOL     OW41050   0.713   6.194   8.076 -0.0467 -0.7036 -0.3481
 9799SOL    HW141051   0.711   6.162   8.171 -1.1925 -0.1954 -0.1963
 9799SOL    HW241052   0.624   6.175   8.033 -0.4162  1.4221 -0.5352
 9800SOL     OW41053   4.491   9.733   5.270 -0.6580 -0.5195 -0.4514
 9800SOL    HW141054   4.400   9.691   5.275 -1.4285  1.0837 -0.6004
 9800SOL    HW241055   4.482   9.826   5.235  1.1250 -0.5599 -1.0380
 9801SOL     OW41056   0.774   0.877   1.414 -0.5737  0.2632 -0.1789
 9801SOL    HW141057   0.678   0.849   1.424 -1.1234  1.7990 -1.0338
 9801SOL    HW241058   0.790   0.908   1.321  1.3640 -2.1668 -0.6962
 9802SOL     OW41059   6.083   1.291   0.841  0.1685 -0.0377  0.1899
 9802SOL    HW141060   6.062   1.270   0.937  0.1720  1.1445  0.4518
 9802SOL    HW241061   6.082   1.390   0.827  0.7836 -0.1755 -0.8963
 9803SOL     OW41062   6.460   7.726   2.514  0.0865  0.1220  0.1308
 9803SOL    HW141063   6.543   7.720   2.570  1.2365 -2.1677 -1.7226
 9803SOL    HW241064   6.483   7.769   2.426 -0.4796 -1.3306 -0.7356
 9804SOL     OW41065   1.572   3.756   2.462  0.7869 -0.3791 -0.1623
 9804SOL    HW141066   1.575   3.842   2.512  0.4414 -0.4129 -0.0873
 9804SOL    HW241067   1.619   3.685   2.515  0.8882 -0.2867 -0.1289
 9805SOL     OW41068   7.069   0.980   4.216 -0.1267  0.8095  0.3916
 9805SOL    HW141069   7.015   0.981   4.300  1.3860  2.4768  1.3668
 9805SOL    HW241070   7.138   1.052   4.219  1.3308 -0.4469 -1.3845
 9806SOL     OW41071   8.641   4.868   3.852  0.1188  0.1307  0.3361
 9806SOL    HW141072   8.548   4.852   3.820  0.0804 -1.5218  1.2247
 9806SOL    HW241073   8.704   4.868   3.774 -0.4339 -0.2194 -0.1152
 9807SOL     OW41074   1.783   7.071   1.772 -0.4099  0.2715 -1.1021
 9807SOL    HW141075   1.812   7.166   1.782  0.2909  0.0884 -1.4131
 9807SOL    HW241076   1.708   7.066   1.705 -1.0385  0.7115 -0.4379
 9808SOL     OW41077   8.350   1.793   6.349 -0.5399  0.3978  0.5539
 9808SOL    HW141078   8.408   1.784   6.268 -0.6929  0.2421  0.4600
 9808SOL    HW241079   8.388   1.741   6.425 -0.8420 -0.1444  0.3343
 9809SOL     OW41080   6.320   8.480   4.247 -0.5045  0.5475  0.1046
 9809SOL    HW141081   6.306   8.382   4.235 -2.3857  0.5369  2.0506
 9809SOL    HW241082   6.351   8.521   4.161 -2.3282 -1.2832 -1.4528
 9810SOL     OW41083   2.570   2.853   2.864  0.1188 -0.8031 -0.1477
 9810SOL    HW141084   2.648   2.790   2.862  0.8933  0.0171  2.3768
 9810SOL    HW241085   2.486   2.804   2.840  0.9851 -2.3920  0.0283
 9811SOL     OW41086   2.021   9.113   6.522 -0.2934  0.9161  0.0180
 9811SOL    HW141087   1.978   9.071   6.602 -0.2939  0.9012  0.0103
 9811SOL    HW241088   2.120   9.115   6.536 -0.2497  0.4367 -0.2087
 9812SOL     OW41089   3.341   9.457   0.010  0.1388  0.3863 -0.0115
 9812SOL    HW141090   3.426   9.475   0.059  0.0268 -0.7016  0.5971
 9812SOL    HW241091   3.331   9.359  -0.005 -0.7700  0.5493 -0.5128
 9813SOL     OW41092   8.461   5.793   8.086  0.1065  0.8714 -0.6242
 9813SOL    HW141093   8.424   5.769   7.996  0.1846  2.1129 -1.0064
 9813SOL    HW241094   8.445   5.890   8.102  1.3252  0.9448  0.1146
 9814SOL     OW41095   3.376   5.352   3.012  0.0067 -0.3343  0.4032
 9814SOL    HW141096   3.395   5.449   3.028  1.0099 -0.5422  0.4938
 9814SOL    HW241097   3.349   5.339   2.916 -1.0406  0.1635  0.6228
 9815SOL     OW41098   2.894   3.356   5.225 -0.0894 -0.0535 -0.4012
 9815SOL    HW141099   2.985   3.319   5.208 -0.0687 -0.6653  0.9901
 9815SOL    HW241100   2.902   3.438   5.283 -0.3897  0.2180 -0.7405
 9816SOL     OW41101   3.782   1.571   4.347  0.2425 -0.2033 -0.4606
 9816SOL    HW141102   3.700   1.535   4.302 -0.6926 -0.8000  1.6937
 9816SOL    HW241103   3.802   1.663   4.310 -2.2114  0.5464  0.0015
 9817SOL     OW41104   6.137   7.137   5.220  0.1854  0.6981  0.1136
 9817SOL    HW141105   6.048   7.165   5.258  0.5985  0.4700  1.2738
 9817SOL    HW241106   6.127   7.049   5.174 -0.4212  1.1931 -0.7160
 9818SOL     OW41107   2.811   7.199   2.230 -0.0678  0.2520  0.4040
 9818SOL    HW141108   2.884   7.131   2.236  0.9571  1.2963 -0.0504
 9818SOL    HW241109   2.845   7.282   2.185 -1.8156  0.3850 -0.7291
 9819SOL     OW41110   8.420   0.023   6.813 -0.0890  0.0231 -0.1121
 9819SOL    HW141111   8.478   0.089   6.860 -0.9012  0.5740  0.1239
 9819SOL    HW241112   8.368  -0.029   6.881 -0.1607 -0.2093 -0.3431
 9820SOL     OW41113   4.223   7.944   5.139  0.5235 -0.6850 -0.1589
 9820SOL    HW141114   4.253   7.849   5.130  1.0007 -0.6632  1.0883
 9820SOL    HW241115   4.165   7.953   5.220  0.4790  0.0826 -0.2721
 9821SOL     OW41116   9.227   5.862   1.008  0.3077 -0.5505  0.0727
 9821SOL    HW141117   9.229   5.803   1.089  0.7103  3.3809  3.0820
 9821SOL    HW241118   9.319   5.896   0.989 -0.4718  1.9654  0.6592
 9822SOL     OW41119   6.783   3.916   1.528 -0.3533  0.2605 -0.3957
 9822SOL    HW141120   6.732   3.994   1.490  0.0696  0.4296 -0.6182
 9822SOL    HW241121   6.868   3.949   1.570  0.8254 -0.2882 -2.2679
 9823SOL     OW41122   4.382   8.768   0.534 -0.3536  0.3115 -0.4338
 9823SOL    HW141123   4.438   8.850   0.546  0.6279 -0.6751  2.3478
 9823SOL    HW241124   4.286   8.790   0.548 -0.1832  1.1602 -0.5753
 9824SOL     OW41125   9.013   2.966   3.198  0.6829 -0.2968 -0.4512
 9824SOL    HW141126   9.071   3.044   3.221  1.4875 -1.8277  3.0661
 9824SOL    HW241127   8.924   2.999   3.168  1.1504  1.9675  0.5379
 9825SOL     OW41128   0.632   3.340   2.630 -0.0530  0.1190 -0.4535
 9825SOL    HW141129   0.621   3.439   2.621 -2.1998 -0.2050 -1.9045
 9825SOL    HW241130   0.581   3.294   2.556 -0.9201 -2.1257  1.4590
 9826SOL     OW41131   6.727   8.135   3.615  0.1808  0.4373  0.2553
 9826SOL    HW141132   6.629   8.148   3.597  0.3673 -0.2437 -1.3877
 9826SOL    HW241133   6.767   8.222   3.645 -0.5018  1.2895 -1.2278
 9827SOL     OW41134   6.463   9.238   4.255 -0.1536 -0.0965  0.1185
 9827SOL    HW141135   6.527   9.178   4.301 -0.8309 -1.7822 -1.0844
 9827SOL    HW241136   6.379   9.188   4.233 -1.5615  1.8467  0.9271
 9828SOL     OW41137   8.413   8.342   4.648 -0.1241  0.1537  0.1699
 9828SOL    HW141138   8.509   8.368   4.652 -0.3087  0.9793 -0.5327
 9828SOL    HW241139   8.390   8.315   4.554 -0.0097 -2.3129  0.8063
 9829SOL     OW41140   8.691   9.383   6.640 -0.1637  0.3609  0.2820
 9829SOL    HW141141   8.686   9.331   6.725  0.3117  0.6789  0.5025
 9829SOL    HW241142   8.638   9.335   6.569 -0.3799 -0.0133  0.6916
 9830SOL     OW41143   0.555   2.662   3.086  0.3617 -0.0056  0.0071
 9830SOL    HW141144   0.566   2.757   3.115  0.4587  0.8547 -2.7832
 9830SOL    HW241145   0.644   2.617   3.087  0.5106  0.2889  0.0450
 9831SOL     OW41146   2.615   8.621   3.822 -0.1175  0.5915 -0.4910
 9831SOL    HW141147   2.665   8.695   3.778  0.4270  0.8880  0.5877
 9831SOL    HW241148   2.521   8.649   3.839 -0.4401  0.3207 -1.8264
 9832SOL     OW41149   1.156   7.837   1.742 -0.2618  0.7984 -0.1619
 9832SOL    HW141150   1.251   7.808   1.733 -0.3012  0.1461  1.4703
 9832SOL    HW241151   1.103   7.766   1.788 -2.3861 -0.4497 -4.2999
 9833SOL     OW41152   1.193   1.598   4.846  0.2456 -0.2157 -0.0549
 9833SOL    HW141153   1.224   1.635   4.934  1.2274  0.0813 -0.5245
 9833SOL    HW241154   1.220   1.660   4.772 -0.8513 -0.3057 -0.5500
 9834SOL     OW41155   9.550   1.943   6.762  0.3164  0.3421  0.6202
 9834SOL    HW141156   9.629   1.929   6.702 -0.1383 -0.6730  0.2459
 9834SOL    HW241157   9.522   1.855   6.801  0.3816  0.9381  2.0448
 9835SOL     OW41158   9.388   5.874   2.078 -0.1161 -0.0284  0.2155
 9835SOL    HW141159   9.430   5.785   2.059 -0.2424  0.0606 -0.4910
 9835SOL    HW241160   9.457   5.945   2.071  0.3874 -0.2510  2.5771
 9836SOL     OW41161   7.174   1.394   2.062  0.2498  0.4753  0.1520
 9836SOL    HW141162   7.203   1.303   2.033  0.6062  1.1158 -1.5649
 9836SOL    HW241163   7.076   1.393   2.081  0.8870 -1.1341  3.7427
 9837SOL     OW41164   3.194   0.291   7.088 -0.4026  0.0554 -0.5453
 9837SOL    HW141165   3.287   0.319   7.066 -1.2869  2.6206 -1.2133
 9837SOL    HW241166   3.169   0.211   7.034  1.1031 -0.0986 -1.0170
 9838SOL     OW41167   9.033   0.709   1.314  0.7076  0.1324 -0.2300
 9838SOL    HW141168   9.081   0.689   1.229  0.7472  0.7879 -0.3612
 9838SOL    HW241169   9.033   0.808   1.330 -0.3819  0.1092 -0.1035
 9839SOL     OW41170   3.225   3.437   0.744  0.4962  0.1505 -0.0188
 9839SOL    HW141171   3.187   3.435   0.837 -1.8281  0.0150 -0.9279
 9839SOL    HW241172   3.152   3.457   0.679  1.9568 -0.4473 -1.8902
 9840SOL     OW41173   0.452   5.184   0.907 -0.6428 -0.1742  0.9224
 9840SOL    HW141174   0.395   5.104   0.885 -0.5920  0.0142  0.0752
 9840SOL    HW241175   0.548   5.161   0.889 -0.7247  0.4005 -0.2971
 9841SOL     OW41176   5.235   1.632   4.558  0.4679  0.4843  0.8257
 9841SOL    HW141177   5.208   1.728   4.566  0.3236  0.5927 -0.8801
 9841SOL    HW241178   5.158   1.578   4.524  1.2941  0.1819 -0.5953
 9842SOL     OW41179   5.857   1.519   7.862  0.1437 -0.5099 -0.0989
 9842SOL    HW141180   5.939   1.525   7.919 -0.0516  0.9404  0.0382
 9842SOL    HW241181   5.787   1.465   7.910  0.4039 -0.2975  0.5270
 9843SOL     OW41182   9.163   5.302   1.449 -0.2750 -0.1952  0.5384
 9843SOL    HW141183   9.230   5.331   1.380  0.5245 -1.3070  0.8199
 9843SOL    HW241184   9.071   5.308   1.411 -0.2312  3.3947  0.8434
 9844SOL     OW41185   9.490   8.757   5.090 -0.4825 -0.1231 -0.0314
 9844SOL    HW141186   9.461   8.666   5.063 -0.9131  0.1790 -0.5858
 9844SOL    HW241187   9.542   8.799   5.016  0.8282 -0.4146  0.7088
 9845SOL     OW41188   8.257   3.306   3.395 -0.2773  0.4532 -0.2693
 9845SOL    HW141189   8.263   3.395   3.441 -1.1901 -0.4770  1.6874
 9845SOL    HW241190   8.251   3.320   3.296 -1.2617  2.6001  0.0762
 9846SOL     OW41191   7.026   6.196   5.161  0.1644 -0.5034 -0.3896
 9846SOL    HW141192   7.007   6.268   5.228 -2.0344 -1.2867 -0.1178
 9846SOL    HW241193   7.068   6.236   5.080  0.4021  0.8541  0.3870
 9847SOL     OW41194   0.474   6.154   3.249  0.2439 -0.0581  0.2040
 9847SOL    HW141195   0.438   6.226   3.308  0.3733 -1.4498  2.0525
 9847SOL    HW241196   0.399   6.095   3.219  0.4000 -0.4170  0.5039
 9848SOL     OW41197   0.734   3.346   0.678  0.0687 -0.4394  0.3182
 9848SOL    HW141198   0.690   3.282   0.742 -1.1345  1.9058  1.9261
 9848SOL    HW241199   0.685   3.433   0.680  1.6692  0.5417 -1.8309
 9849SOL     OW41200   9.454   6.398   1.090  0.4103  0.6328  0.1916
 9849SOL    HW141201   9.442   6.495   1.111  0.0767  0.2260  1.8925
 9849SOL    HW241202   9.410   6.343   1.160 -1.5033 -0.7429 -2.0333
 9850SOL     OW41203   9.673   7.044   4.124  0.0417  0.3178  0.1936
 9850SOL    HW141204   9.718   7.084   4.203  0.3816  1.1003 -0.3955
 9850SOL    HW241205   9.679   7.106   4.046  0.0480 -0.6140 -0.5636
 9851SOL     OW41206   6.740   0.709   3.249  0.5805 -0.3107 -0.0651
 9851SOL    HW141207   6.647   0.740   3.230  0.8708  1.7564  1.6700
 9851SOL    HW241208   6.805   0.771   3.204  1.1364 -0.8879 -0.0640
 9852SOL     OW41209   4.340   3.411   7.296 -0.6809  0.0602  0.1722
 9852SOL    HW141210   4.348   3.457   7.207  0.9002  1.1692  0.8681
 9852SOL    HW241211   4.427   3.368   7.318 -1.6692 -1.9219  0.2813
 9853SOL     OW41212   9.545   8.708   5.553 -0.0697  0.3559 -0.0552
 9853SOL    HW141213   9.453   8.746   5.546  0.0943  0.8861  0.6637
 9853SOL    HW241214   9.589   8.712   5.464 -1.1041 -0.8222 -0.6316
 9854SOL     OW41215   3.693   9.652   8.133 -0.1959 -0.2114  0.3352
 9854SOL    HW141216   3.687   9.750   8.152 -1.3605 -0.5888  2.0079
 9854SOL    HW241217   3.636   9.630   8.054 -0.6587  0.3293  0.5115
 9855SOL     OW41218   0.430   7.428   5.648  0.4272  0.2939 -0.2625
 9855SOL    HW141219   0.353   7.422   5.585  0.3255 -0.0947 -0.1034
 9855SOL    HW241220   0.508   7.377   5.612  0.6092  0.6845 -0.4222
 9856SOL     OW41221   6.272   9.592   3.729  0.0419  0.0003 -0.0006
 9856SOL    HW141222   6.322   9.676   3.749 -0.6382  0.4071 -0.0235
 9856SOL    HW241223   6.191   9.613   3.675  1.6250 -1.0340 -2.9006
 9857SOL     OW41224   9.929   9.328   0.617  0.2537 -0.6820  0.8119
 9857SOL    HW141225   9.946   9.426   0.611 -2.8603 -0.1782 -0.9113
 9857SOL    HW241226   9.856   9.310   0.683 -1.6570 -1.4217 -1.3934
 9858SOL     OW41227   7.835   6.556   6.830  0.1269  0.2498 -0.1486
 9858SOL    HW141228   7.930   6.567   6.800 -0.4075  1.0176 -1.5992
 9858SOL    HW241229   7.811   6.459   6.829  0.8553  0.0583  0.1269
 9859SOL     OW41230   2.127   4.269   6.800 -0.1182  0.0516 -0.1729
 9859SOL    HW141231   2.080   4.188   6.835  1.4775 -0.5426  0.6682
 9859SOL    HW241232   2.064   4.322   6.743 -2.0448 -0.2583  1.5884
 9860SOL     OW41233   1.595   9.093   5.693  0.0525 -0.2312 -0.1370
 9860SOL    HW141234   1.660   9.099   5.769 -1.9169  0.2658  1.5511
 9860SOL    HW241235   1.645   9.098   5.607  2.2013  0.7039  1.1064
 9861SOL     OW41236   3.392   9.210   1.059  0.2795  0.1658 -0.3878
 9861SOL    HW141237   3.361   9.146   1.129  0.6925  0.7071  0.2965
 9861SOL    HW241238   3.484   9.183   1.028  1.7640  2.1695  2.1124
 9862SOL     OW41239   3.178   3.071   6.203  0.5642 -0.7803 -0.7543
 9862SOL    HW141240   3.171   2.992   6.142 -2.6936  0.8671 -2.6693
 9862SOL    HW241241   3.097   3.076   6.262  1.4669  0.2599  0.4495
 9863SOL     OW41242   4.553   2.576   4.412  0.5235 -0.5016  0.3861
 9863SOL    HW141243   4.505   2.535   4.335 -1.9604  2.1515  0.4534
 9863SOL    HW241244   4.490   2.584   4.490  1.6655  1.0597  1.1749
 9864SOL     OW41245   5.041   6.850   1.559  0.1019 -0.3184 -0.7818
 9864SOL    HW141246   5.077   6.835   1.651 -1.8998  0.6766  0.1928
 9864SOL    HW241247   5.081   6.934   1.521 -1.6035  1.1219  0.5391
 9865SOL     OW41248   6.794   3.119   1.651  0.3856 -0.3722  0.5547
 9865SOL    HW141249   6.750   3.056   1.587 -0.0156  1.3952 -0.9701
 9865SOL    HW241250   6.893   3.116   1.638  0.2294  1.0113 -1.2011
 9866SOL     OW41251   9.877   7.073   1.919  0.1236  0.8976  0.6280
 9866SOL    HW141252   9.931   7.089   1.837  0.9017  2.7919  1.4817
 9866SOL    HW241253   9.917   6.996   1.971 -0.8662 -0.8613 -1.1438
 9867SOL     OW41254   9.251   8.960   1.711 -0.0802 -0.2585 -0.3067
 9867SOL    HW141255   9.215   9.015   1.636 -1.4617 -0.9944 -0.1876
 9867SOL    HW241256   9.295   8.878   1.674  0.3053 -0.0302 -0.3675
 9868SOL     OW41257   0.879   8.415   7.404 -0.1067 -0.3375  0.0783
 9868SOL    HW141258   0.947   8.466   7.351  0.6650 -0.5628  0.8498
 9868SOL    HW241259   0.788   8.450   7.383  0.2722  0.1907 -0.7102
 9869SOL     OW41260   4.953   8.114   2.254  0.3275 -0.5669  0.5935
 9869SOL    HW141261   4.903   8.031   2.227  0.0613 -0.5263  0.9557
 9869SOL    HW241262   5.008   8.146   2.177 -0.2447 -0.5851  0.1755
 9870SOL     OW41263   5.460   8.320   5.420 -0.6942  0.4655 -0.3132
 9870SOL    HW141264   5.413   8.335   5.333 -2.5097 -2.3417  0.0939
 9870SOL    HW241265   5.535   8.255   5.407 -0.6072  0.4772  0.1238
 9871SOL     OW41266   1.451   2.578   1.741 -0.1272 -0.3708 -0.8095
 9871SOL    HW141267   1.519   2.650   1.729  0.5509 -0.4019  2.4684
 9871SOL    HW241268   1.394   2.573   1.659  1.5712  1.9995 -2.2187
 9872SOL     OW41269   2.139   9.561   6.033 -0.5988  0.1392 -0.0324
 9872SOL    HW141270   2.218   9.622   6.036 -1.2102  0.8482  2.3755
 9872SOL    HW241271   2.158   9.485   5.970  3.0225 -1.0766  2.4005
 9873SOL     OW41272   9.639   0.719   1.650  0.1697 -0.0709  0.0450
 9873SOL    HW141273   9.594   0.635   1.681 -2.2480  1.3301  0.3922
 9873SOL    HW241274   9.690   0.760   1.726  1.1375 -1.0663 -0.0567
 9874SOL     OW41275   9.144   4.781   1.553  0.1640 -0.4831  0.4204
 9874SOL    HW141276   9.210   4.813   1.621 -0.1426  0.8920  0.0925
 9874SOL    HW241277   9.184   4.788   1.462 -0.2348 -0.1741  0.2666
 9875SOL     OW41278   0.178   5.261   7.202 -0.2441  0.0666  0.7893
 9875SOL    HW141279   0.267   5.227   7.171 -0.7029 -2.8784  2.4636
 9875SOL    HW241280   0.105   5.218   7.148 -0.6992  1.9414 -0.1258
 9876SOL     OW41281   3.231   4.096   4.605 -0.3234  0.2193  0.1281
 9876SOL    HW141282   3.296   4.086   4.530 -1.7978  0.3250 -1.1950
 9876SOL    HW241283   3.171   4.174   4.586 -1.8562 -0.8406  0.5516
 9877SOL     OW41284   9.355   3.975   7.061  0.0406  0.5328 -0.3413
 9877SOL    HW141285   9.393   4.067   7.053  0.5364  0.4834  1.2052
 9877SOL    HW241286   9.273   3.978   7.117  0.2891 -0.0170  0.0586
 9878SOL     OW41287   9.416   0.277   7.578 -0.2877  0.0590  0.2188
 9878SOL    HW141288   9.512   0.291   7.602 -0.4212 -0.2446  0.9624
 9878SOL    HW241289   9.376   0.363   7.548  0.6941 -0.1770 -1.8598
 9879SOL     OW41290   0.736   8.608   3.583  0.2867  0.6937  0.3974
 9879SOL    HW141291   0.657   8.546   3.586 -0.0078  1.1228  1.8904
 9879SOL    HW241292   0.724   8.680   3.651  1.4826  1.3625 -0.0887
 9880SOL     OW41293   3.389   4.208   1.685  0.4625  0.2211  0.1494
 9880SOL    HW141294   3.448   4.233   1.608  0.3703 -0.7983 -0.2528
 9880SOL    HW241295   3.346   4.120   1.667 -1.1400  0.9236  0.4703
 9881SOL     OW41296   8.354   3.620   3.238 -0.2386  0.1318  0.5027
 9881SOL    HW141297   8.323   3.593   3.329  1.1879 -2.8512  0.1636
 9881SOL    HW241298   8.299   3.571   3.169 -0.6069  1.5623 -0.2329
 9882SOL     OW41299   7.211   1.553   2.304  0.1677  0.5702  0.7528
 9882SOL    HW141300   7.291   1.523   2.355  1.6733  2.2743 -0.5295
 9882SOL    HW241301   7.205   1.503   2.217  0.8318  1.6336  0.0811
 9883SOL     OW41302   5.942   8.382   5.468 -0.1010  0.1660  0.0015
 9883SOL    HW141303   5.870   8.413   5.530 -0.0679 -0.3783  0.3175
 9883SOL    HW241304   5.900   8.339   5.388 -0.1340  0.3447 -0.0780
 9884SOL     OW41305   2.971   1.022   4.793  0.4494  0.2749 -0.1362
 9884SOL    HW141306   2.965   1.115   4.830  1.5330  0.8106 -1.2896
 9884SOL    HW241307   2.924   0.959   4.855 -0.9682  1.6925  0.2785
 9885SOL     OW41308   5.835   2.669   3.895 -0.1194  0.0499  0.1043
 9885SOL    HW141309   5.757   2.625   3.852  0.4064 -1.0570  0.2741
 9885SOL    HW241310   5.919   2.643   3.847  0.2068  0.8244  0.2350
 9886SOL     OW41311   7.875   5.507   6.626 -0.1758 -0.0555  0.3203
 9886SOL    HW141312   7.905   5.552   6.710 -1.3766  0.7078  0.3605
 9886SOL    HW241313   7.929   5.539   6.549  0.3969 -0.1574  0.6786
 9887SOL     OW41314   2.769   1.075   0.683  0.5500 -0.3132  0.1747
 9887SOL    HW141315   2.690   1.113   0.635  0.7091 -1.7210 -1.2425
 9887SOL    HW241316   2.757   0.977   0.696  1.8262 -0.4480  0.4238
 9888SOL     OW41317   0.236   9.080   1.651  0.2365  0.2157 -0.2034
 9888SOL    HW141318   0.283   9.006   1.699 -0.1960 -0.4658 -0.8319
 9888SOL    HW241319   0.187   9.044   1.572  0.2133  1.2042 -0.6572
 9889SOL     OW41320   8.297   7.170   7.037 -0.9487  0.3074 -0.6428
 9889SOL    HW141321   8.266   7.141   7.128  2.4064  0.6570  0.6621
 9889SOL    HW241322   8.364   7.105   7.002 -0.8377  1.1753 -2.0870
 9890SOL     OW41323   8.001   4.832   0.575 -0.1136 -0.2032  0.4482
 9890SOL    HW141324   7.952   4.777   0.507  1.8345 -1.5534  0.1008
 9890SOL    HW241325   7.987   4.793   0.666 -1.5705  0.7855  0.6669
 9891SOL     OW41326   2.538   3.216   0.606  0.3113  0.4966 -0.3436
 9891SOL    HW141327   2.481   3.148   0.651  0.0167  0.5268 -0.6689
 9891SOL    HW241328   2.578   3.175   0.523  1.2511  0.2790  0.2053
 9892SOL     OW41329   4.112   9.800   1.815 -0.2647  0.4869 -0.3061
 9892SOL    HW141330   4.207   9.816   1.790 -0.1700 -0.0615 -0.2968
 9892SOL    HW241331   4.067   9.746   1.743 -0.1419 -0.6156  0.4284
 9893SOL     OW41332   7.618   9.557   5.448 -0.0994  0.0796  0.4776
 9893SOL    HW141333   7.665   9.476   5.484 -0.1512 -0.5873 -0.9128
 9893SOL    HW241334   7.557   9.594   5.518  0.6341 -0.5112  1.4513
 9894SOL     OW41335   2.963   4.398   0.711 -0.6952  0.3759  0.4452
 9894SOL    HW141336   3.056   4.362   0.701 -1.3176 -0.3807 -3.2981
 9894SOL    HW241337   2.958   4.453   0.794  3.2971  1.0243  0.3825
 9895SOL     OW41338   9.741   6.731   1.512  0.1438 -0.0187 -0.3863
 9895SOL    HW141339   9.700   6.640   1.506 -1.5247  0.6458  0.4701
 9895SOL    HW241340   9.728   6.780   1.425  0.2503 -0.2657 -0.5413
 9896SOL     OW41341   6.346   7.420   4.685  0.2762  0.4111 -0.5851
 9896SOL    HW141342   6.384   7.409   4.593  0.1332  0.9898 -0.7198
 9896SOL    HW241343   6.341   7.518   4.706  1.3135  0.2457  0.4654
 9897SOL     OW41344   6.758   0.258   3.306 -0.0132  0.0003 -0.2068
 9897SOL    HW141345   6.715   0.264   3.216  0.1064 -2.0218 -0.4284
 9897SOL    HW241346   6.745   0.166   3.343  3.5189 -0.4884 -0.0017
 9898SOL     OW41347   3.002   5.820   4.858 -0.5998 -0.3444 -0.0924
 9898SOL    HW141348   2.919   5.846   4.906  0.9535  0.1802  2.3968
 9898SOL    HW241349   2.996   5.848   4.762 -1.5486  3.6131  1.0471
 9899SOL     OW41350   4.638   4.938   2.299 -0.1824  0.1714  0.4355
 9899SOL    HW141351   4.731   4.975   2.310  0.1789  0.0506 -1.7981
 9899SOL    HW241352   4.579   5.008   2.259 -0.2521 -0.6955 -1.0258
 9900SOL     OW41353   1.907   7.800   7.037  0.2498 -0.1845  0.1368
 9900SOL    HW141354   1.912   7.886   6.987  1.5406 -0.9949 -1.1759
 9900SOL    HW241355   1.984   7.793   7.100 -1.1223  0.6298  1.9381
 9901SOL     OW41356   7.560   3.507   4.799  0.1158 -0.3894 -0.2063
 9901SOL    HW141357   7.610   3.538   4.880 -1.6968 -0.5252  0.9833
 9901SOL    HW241358   7.604   3.425   4.762  0.4611 -0.8091  1.1309
 9902SOL     OW41359   2.245   0.294   1.223 -0.2381  0.2190  0.7782
 9902SOL    HW141360   2.325   0.309   1.164 -0.9659 -1.3784 -0.6542
 9902SOL    HW241361   2.167   0.345   1.186 -0.8934 -1.3855 -0.1134
 9903SOL     OW41362   3.840   1.350   7.316 -0.1992 -0.5178 -0.4620
 9903SOL    HW141363   3.913   1.379   7.377 -0.8352 -1.3213  0.7056
 9903SOL    HW241364   3.855   1.255   7.287  0.0508 -0.1713 -1.4793
 9904SOL     OW41365   1.782   3.145   4.318 -0.1939 -0.1358  0.0562
 9904SOL    HW141366   1.838   3.075   4.273 -1.7527 -1.0931 -0.4082
 9904SOL    HW241367   1.822   3.235   4.301  1.6019 -0.8568  0.3175
 9905SOL     OW41368   7.997   4.823   1.855 -0.2646  0.3597  0.3013
 9905SOL    HW141369   7.951   4.812   1.943 -0.8101  1.3444  0.1525
 9905SOL    HW241370   7.962   4.905   1.810  1.8707  1.3024  0.3261
 9906SOL     OW41371   3.447   6.376   3.074 -1.0664 -0.3701  0.6796
 9906SOL    HW141372   3.448   6.308   3.000 -2.8877 -0.1763  0.4395
 9906SOL    HW241373   3.455   6.330   3.162  0.7265 -0.6372  0.3994
 9907SOL     OW41374   4.238   3.697   3.893 -0.8338 -0.5131 -0.4948
 9907SOL    HW141375   4.215   3.675   3.799  0.5527  0.3651 -1.0578
 9907SOL    HW241376   4.212   3.792   3.913  1.4318  0.2363 -0.9026
 9908SOL     OW41377   3.476   2.999   2.906 -0.4579 -0.1211 -0.0275
 9908SOL    HW141378   3.516   3.081   2.945 -1.3827  0.1653  0.3449
 9908SOL    HW241379   3.404   2.965   2.967  1.3246 -2.4059  0.8670
 9909SOL     OW41380   1.195   4.161   6.721  0.4039  0.1664 -0.2397
 9909SOL    HW141381   1.229   4.112   6.640 -0.4921  0.2465 -0.6695
 9909SOL    HW241382   1.104   4.199   6.701 -0.4183 -0.9763  1.2766
 9910SOL     OW41383   1.125   4.078   4.186  0.2955 -0.0509  0.5900
 9910SOL    HW141384   1.160   3.987   4.162  0.1557  0.0789 -0.1304
 9910SOL    HW241385   1.200   4.145   4.180  0.5327 -0.2106  1.6950
 9911SOL     OW41386   3.309   9.039   4.757  0.1992 -0.1551  0.1551
 9911SOL    HW141387   3.229   9.057   4.814  1.3641  0.6238  1.5738
 9911SOL    HW241388   3.392   9.061   4.808  1.3477 -1.4244 -1.1149
 9912SOL     OW41389   5.277   2.130   7.854 -0.4415  0.2277  0.6828
 9912SOL    HW141390   5.314   2.082   7.774 -0.8248  1.5268 -0.2784
 9912SOL    HW241391   5.259   2.225   7.831  0.6383  0.9619  2.6675
 9913SOL     OW41392   9.645   4.940   2.041 -0.1543  0.1868  0.0387
 9913SOL    HW141393   9.663   4.862   2.101 -0.2292  0.1328 -0.0085
 9913SOL    HW241394   9.574   4.998   2.082 -0.5989 -0.1429 -0.2574
 9914SOL     OW41395   3.402   1.660   3.693 -0.0465 -0.0156 -0.3529
 9914SOL    HW141396   3.477   1.656   3.627  1.8845  2.9121  1.5093
 9914SOL    HW241397   3.330   1.721   3.658  0.7029  1.0623 -0.0396
 9915SOL     OW41398   1.498   5.689   5.393 -0.7162  0.3632  0.0220
 9915SOL    HW141399   1.519   5.783   5.419 -1.9006  0.4421  0.7197
 9915SOL    HW241400   1.462   5.688   5.299 -3.9846  1.0517  1.2080
 9916SOL     OW41401   6.163   8.758   2.352 -0.0354 -0.3704  0.3702
 9916SOL    HW141402   6.203   8.703   2.278 -0.1810 -0.2427  0.1957
 9916SOL    HW241403   6.135   8.847   2.316  0.3665 -0.1118  0.6928
 9917SOL     OW41404   9.571   0.097   3.443  0.5874 -0.0109 -0.2189
 9917SOL    HW141405   9.527   0.024   3.495 -0.6032  1.8190  1.3689
 9917SOL    HW241406   9.545   0.089   3.346 -1.0541 -0.5766  0.2507
 9918SOL     OW41407   5.153   7.331   4.448 -0.2026  0.1440  0.0730
 9918SOL    HW141408   5.104   7.417   4.436 -1.1664 -0.6117 -1.5057
 9918SOL    HW241409   5.241   7.336   4.400  0.2756  0.6720  0.9918
 9919SOL     OW41410   9.277   5.880   6.765  0.1900 -0.2305 -0.1103
 9919SOL    HW141411   9.231   5.965   6.740  0.0230 -0.3185 -0.1008
 9919SOL    HW241412   9.216   5.802   6.747 -0.3494 -0.2320  1.5952
 9920SOL     OW41413   7.974   7.244   2.175  0.4627 -0.1866 -0.5237
 9920SOL    HW141414   7.893   7.201   2.134  0.4299  0.4165 -1.0915
 9920SOL    HW241415   8.056   7.214   2.127  0.5707 -0.6768 -0.0458
 9921SOL     OW41416   1.578   9.802   4.855  0.2485  0.2243 -0.6361
 9921SOL    HW141417   1.510   9.875   4.846  0.0788  0.0594 -0.7221
 9921SOL    HW241418   1.614   9.801   4.948 -0.5826 -0.3107 -0.3085
 9922SOL     OW41419   3.059   7.163   4.475 -0.2546 -0.1462  0.4673
 9922SOL    HW141420   3.081   7.222   4.397 -0.7946  0.9047  1.0978
 9922SOL    HW241421   3.030   7.074   4.441 -0.5827  0.3294 -0.5536
 9923SOL     OW41422   7.429   0.724   6.446 -0.1204  0.5608 -0.4774
 9923SOL    HW141423   7.359   0.708   6.376  1.0731  0.3989 -1.6494
 9923SOL    HW241424   7.494   0.793   6.413  1.8341 -1.2448 -0.5373
 9924SOL     OW41425   1.657   2.544   7.333  0.3642 -0.3391  0.2831
 9924SOL    HW141426   1.704   2.531   7.246 -0.0479  1.0759 -0.1602
 9924SOL    HW241427   1.585   2.612   7.322  3.0553  3.1242  2.7023
 9925SOL     OW41428   6.607   7.548   4.867  0.0496 -0.3535  0.0159
 9925SOL    HW141429   6.526   7.561   4.925 -0.2424 -0.5572 -0.3389
 9925SOL    HW241430   6.622   7.451   4.852  1.4693 -0.4100  1.6016
 9926SOL     OW41431   3.036   4.983   7.396  0.5150  0.7107  0.1687
 9926SOL    HW141432   3.088   4.979   7.310  0.5959  0.0056  0.2408
 9926SOL    HW241433   2.950   5.030   7.381 -0.1351 -0.7036 -0.6650
 9927SOL     OW41434   6.743   9.866   1.797 -0.1753  0.0418 -0.4746
 9927SOL    HW141435   6.818   9.856   1.732  0.2288 -0.7089  0.1145
 9927SOL    HW241436   6.755   9.803   1.873 -2.1157 -1.0379 -1.0424
 9928SOL     OW41437   6.111   8.818   2.596  0.1042  0.0018 -0.1390
 9928SOL    HW141438   6.122   8.778   2.505  1.0109  2.4525 -1.1500
 9928SOL    HW241439   6.037   8.885   2.594  0.2517  0.2016  0.8763
 9929SOL     OW41440   1.009   6.690   6.205 -0.3540 -0.8563  0.6466
 9929SOL    HW141441   0.985   6.641   6.289  1.4030  0.2768  1.8479
 9929SOL    HW241442   0.966   6.781   6.206  0.3156 -0.5307  0.7330
 9930SOL     OW41443   7.451   3.060   0.762  0.4175  0.3649 -0.0629
 9930SOL    HW141444   7.399   3.022   0.686  2.1620 -1.7143 -0.2586
 9930SOL    HW241445   7.466   3.158   0.746 -1.1606  0.4420 -1.2489
 9931SOL     OW41446   8.496   1.750   2.680  0.0690 -0.0675  0.0920
 9931SOL    HW141447   8.553   1.770   2.760 -3.1182  0.5306  2.3262
 9931SOL    HW241448   8.509   1.654   2.653  0.3504 -0.6066  2.0631
 9932SOL     OW41449   8.339   7.848   7.419  0.3725 -0.4547 -0.7206
 9932SOL    HW141450   8.297   7.873   7.331  1.8813  0.2298 -1.2740
 9932SOL    HW241451   8.270   7.811   7.480 -0.8938 -0.0014 -1.8558
 9933SOL     OW41452   7.895   4.057   5.069 -0.0646 -0.0544 -0.0367
 9933SOL    HW141453   7.900   4.061   4.969  1.3715 -1.3896 -0.0419
 9933SOL    HW241454   7.988   4.053   5.107 -0.6075 -2.1333  1.1999
 9934SOL     OW41455   2.048   2.572   5.654 -0.1542 -0.0958 -0.0601
 9934SOL    HW141456   1.962   2.599   5.695  1.0884 -0.3805  2.8473
 9934SOL    HW241457   2.057   2.472   5.658 -0.9033 -0.3171 -2.9103
 9935SOL     OW41458   0.528   2.325   2.803 -0.1206 -0.5458  0.3872
 9935SOL    HW141459   0.559   2.320   2.898 -0.3503  0.9075  0.5497
 9935SOL    HW241460   0.428   2.330   2.800 -0.1630 -1.4462  0.0233
 9936SOL     OW41461   0.401   5.104   6.597  0.5276  0.2610  0.3610
 9936SOL    HW141462   0.466   5.156   6.542  1.9735  0.1370  1.9234
 9936SOL    HW241463   0.430   5.008   6.600 -0.9806 -0.2471 -0.7901
 9937SOL     OW41464   9.312   4.102   5.981  0.9723 -0.3652 -0.3930
 9937SOL    HW141465   9.252   4.181   5.968  1.2844 -0.0718 -0.0784
 9937SOL    HW241466   9.295   4.035   5.908  1.4464  0.4588 -1.2787
 9938SOL     OW41467   0.520   3.289   7.269 -0.4575  0.3181  0.2229
 9938SOL    HW141468   0.552   3.195   7.270 -0.9579  0.1264 -1.3150
 9938SOL    HW241469   0.585   3.347   7.319  0.7772 -0.5288 -0.3841
 9939SOL     OW41470   9.133   6.640   2.210  0.0024 -0.0961  0.7484
 9939SOL    HW141471   9.107   6.568   2.275 -0.3454 -0.6033  0.0550
 9939SOL    HW241472   9.223   6.619   2.172  0.0429  0.0037  0.7899
 9940SOL     OW41473   9.121   5.543   5.922 -0.2015  0.2128 -0.2526
 9940SOL    HW141474   9.028   5.517   5.949 -0.3429  1.6848  0.7482
 9940SOL    HW241475   9.117   5.597   5.838 -0.4379  1.7956  0.7525
 9941SOL     OW41476   9.899   6.348   6.878 -0.6694 -0.7736 -0.5192
 9941SOL    HW141477   9.939   6.415   6.941  0.2441 -1.5295 -0.2960
 9941SOL    HW241478   9.836   6.288   6.927 -0.7099 -0.7341 -0.5231
 9942SOL     OW41479   4.881   8.813   3.356  0.3461  0.1967  0.4060
 9942SOL    HW141480   4.784   8.815   3.331  0.5511  0.5126 -0.4104
 9942SOL    HW241481   4.936   8.812   3.272  1.0378 -0.6242  0.8676
 9943SOL     OW41482   1.484   2.033   7.389  0.1778 -0.5966 -0.5244
 9943SOL    HW141483   1.544   2.113   7.383  0.0387 -0.4220  0.3942
 9943SOL    HW241484   1.499   1.975   7.309  0.4315  0.2391 -1.0911
 9944SOL     OW41485   9.176   8.638   0.418 -0.0516  0.3856  0.0623
 9944SOL    HW141486   9.202   8.554   0.466  0.2741  0.0588 -0.6770
 9944SOL    HW241487   9.095   8.621   0.362 -0.6122  0.8466  0.7224
 9945SOL     OW41488   0.675   3.247   6.130  0.5496 -0.5897 -0.6525
 9945SOL    HW141489   0.754   3.296   6.168 -0.3213  0.6527 -0.4445
 9945SOL    HW241490   0.612   3.224   6.203 -0.2866  0.2647 -1.0913
 9946SOL     OW41491   2.876   7.903   7.348 -0.1477  0.3267 -0.4485
 9946SOL    HW141492   2.935   7.983   7.337 -2.1447  2.2288  2.1120
 9946SOL    HW241493   2.788   7.921   7.304 -1.4540  0.5328  2.1892
 9947SOL     OW41494   8.061   6.816   3.156 -0.0791  0.5722  0.6241
 9947SOL    HW141495   8.001   6.861   3.091  1.1504  1.0129 -0.2186
 9947SOL    HW241496   8.156   6.822   3.125  0.2674 -1.3729  1.1849
 9948SOL     OW41497   9.689   2.676   3.934 -1.2626  0.2594  0.0799
 9948SOL    HW141498   9.699   2.745   4.006 -2.1073 -0.3219  0.7644
 9948SOL    HW241499   9.611   2.699   3.876  0.0886  1.3392 -1.3700
 9949SOL     OW41500   3.289   4.335   2.947  0.6021 -0.0152 -0.2971
 9949SOL    HW141501   3.236   4.294   3.022  1.7465 -0.7063  0.1454
 9949SOL    HW241502   3.227   4.357   2.871 -0.4729  0.1072  0.5931
 9950SOL     OW41503   9.335   7.001   1.639  0.1831  0.4980 -0.1995
 9950SOL    HW141504   9.271   6.960   1.573 -0.1219 -1.0029  1.0075
 9950SOL    HW241505   9.329   7.101   1.633  0.5051  0.4076 -2.7655
 9951SOL     OW41506   1.831   2.748   3.619 -0.3263 -0.2052  0.5741
 9951SOL    HW141507   1.760   2.812   3.589 -0.9387 -1.5708 -0.9919
 9951SOL    HW241508   1.822   2.662   3.568  0.8187 -1.3436  2.2390
 9952SOL     OW41509   2.886   3.290   4.523  0.2575  0.8561 -0.2973
 9952SOL    HW141510   2.797   3.255   4.492 -0.3933  0.7048  1.6919
 9952SOL    HW241511   2.872   3.355   4.598  1.7492  1.9108 -0.9034
 9953SOL     OW41512   0.047   5.404   4.741 -0.6404 -0.2442  0.5204
 9953SOL    HW141513  -0.029   5.339   4.740 -0.9458  0.1084 -1.4953
 9953SOL    HW241514   0.023   5.484   4.686  0.3504  0.8519  1.6625
 9954SOL     OW41515   6.455   0.939   1.760  0.0040 -0.0239  0.2532
 9954SOL    HW141516   6.429   0.842   1.761  0.0893 -0.0419  1.1904
 9954SOL    HW241517   6.409   0.985   1.685  0.6835 -0.9881 -0.7785
 9955SOL     OW41518   9.927   2.119   4.165  0.6792  1.2455 -0.3482
 9955SOL    HW141519   9.965   2.109   4.257 -1.6800 -0.6270  0.4739
 9955SOL    HW241520   9.876   2.204   4.159  0.9113  1.4146  0.0270
 9956SOL     OW41521   0.296   3.704   0.068  0.1349  0.2192 -0.6483
 9956SOL    HW141522   0.233   3.685  -0.007  0.8753  1.6486 -1.6637
 9956SOL    HW241523   0.248   3.698   0.155 -0.7798 -1.2589 -1.2513
 9957SOL     OW41524   9.116   5.418   0.994  0.7891  0.2917  0.0749
 9957SOL    HW141525   9.132   5.388   1.088  1.3763  0.2404 -0.0387
 9957SOL    HW241526   9.129   5.516   0.987 -1.2032  0.6048  0.4614
 9958SOL     OW41527   0.720   0.088   4.532 -0.2975 -0.2454  0.6200
 9958SOL    HW141528   0.802   0.112   4.479 -0.6787  0.0723  0.1623
 9958SOL    HW241529   0.664   0.170   4.545  0.5763  0.0124  2.9273
 9959SOL     OW41530   2.433   9.336   7.453  0.3172 -0.5334  0.9920
 9959SOL    HW141531   2.373   9.383   7.389 -0.0339 -0.6146  1.2581
 9959SOL    HW241532   2.498   9.401   7.492  1.4835 -0.7646 -0.5251
 9960SOL     OW41533   1.758   3.823   4.069 -0.7854 -0.3991 -0.0066
 9960SOL    HW141534   1.793   3.898   4.013  1.2556 -1.6140 -0.4002
 9960SOL    HW241535   1.676   3.785   4.025 -0.0431 -0.4023 -1.4248
 9961SOL     OW41536   3.519   5.937   1.309  0.0253  0.0773 -0.1682
 9961SOL    HW141537   3.526   6.024   1.358  1.4835 -1.2638  2.0920
 9961SOL    HW241538   3.601   5.882   1.325 -0.6472 -1.5440 -1.9622
 9962SOL     OW41539   4.241   8.298   6.410 -0.4656 -0.1445 -0.0662
 9962SOL    HW141540   4.196   8.385   6.394  4.3415  2.5769  0.3363
 9962SOL    HW241541   4.245   8.246   6.324 -1.3091  1.0784 -0.8532
 9963SOL     OW41542   8.999   4.883   4.959 -0.0472 -0.3197  0.7458
 9963SOL    HW141543   8.982   4.833   5.044 -0.6152 -1.2306  0.1027
 9963SOL    HW241544   8.953   4.972   4.963  0.1821 -0.2270  1.5105
 9964SOL     OW41545   2.578   8.231   3.143 -0.0466 -0.6866 -0.3916
 9964SOL    HW141546   2.513   8.262   3.075  0.1732  0.2439 -0.1882
 9964SOL    HW241547   2.669   8.267   3.122 -0.1238  0.2643  0.8070
 9965SOL     OW41548   6.148   9.422   2.946 -0.3715 -0.7074 -0.3079
 9965SOL    HW141549   6.224   9.357   2.945 -0.5151 -0.8706 -0.7158
 9965SOL    HW241550   6.103   9.423   2.857  0.2535  0.7132 -0.6116
 9966SOL     OW41551   0.070   1.173   4.487  0.4903 -0.0305  0.1192
 9966SOL    HW141552   0.073   1.237   4.411  1.0844 -0.2055 -0.0080
 9966SOL    HW241553   0.014   1.211   4.561 -0.8152 -0.2448 -0.7489
 9967SOL     OW41554   8.680   4.150   6.791  0.5211 -0.0928 -0.2359
 9967SOL    HW141555   8.696   4.141   6.889 -1.9435  2.9574  0.5299
 9967SOL    HW241556   8.612   4.083   6.763 -0.7898  0.8019  0.7304
 9968SOL     OW41557   3.373   3.834   2.237  0.1592  0.5116  0.0008
 9968SOL    HW141558   3.397   3.882   2.152 -0.2879  0.5850 -0.0860
 9968SOL    HW241559   3.276   3.810   2.235  0.2410  0.1489  0.3150
 9969SOL     OW41560   3.602   1.327   6.339  0.2780  0.3782 -0.6963
 9969SOL    HW141561   3.601   1.336   6.439 -0.9565 -1.4652 -0.5257
 9969SOL    HW241562   3.644   1.241   6.313 -0.5404  0.2703 -1.7073
 9970SOL     OW41563   8.897   7.567   1.479  0.0058 -0.0573  0.4124
 9970SOL    HW141564   8.901   7.467   1.472  2.1582  0.0220  0.0527
 9970SOL    HW241565   8.911   7.595   1.574  0.3645 -0.0819  0.3698
 9971SOL     OW41566   8.619   1.000   5.794 -0.0106 -0.3383 -0.4051
 9971SOL    HW141567   8.537   0.942   5.793  0.2665 -0.7329 -0.6666
 9971SOL    HW241568   8.631   1.042   5.704 -0.1193 -0.0030 -0.2631
 9972SOL     OW41569   7.517   7.741   2.727 -0.9871  0.3215  0.7494
 9972SOL    HW141570   7.595   7.679   2.722 -0.2423  1.3101 -0.1375
 9972SOL    HW241571   7.497   7.762   2.823 -0.9127 -0.8431  1.0370
 9973SOL     OW41572   8.116   6.751   3.739  0.1951 -0.0941 -0.1167
 9973SOL    HW141573   8.033   6.770   3.791 -0.9845 -1.3766 -1.4465
 9973SOL    HW241574   8.122   6.815   3.662 -1.2153 -1.8763 -1.7798
 9974SOL     OW41575   4.677   1.188   1.585 -0.3219 -0.3607 -0.4121
 9974SOL    HW141576   4.645   1.205   1.678 -1.3289 -1.5533 -0.5282
 9974SOL    HW241577   4.676   1.274   1.534  1.2166  0.5042  0.9490
 9975SOL     OW41578   1.063   1.161   3.941 -0.4072 -0.3165 -0.6985
 9975SOL    HW141579   0.969   1.157   3.906 -0.3536  1.2506 -1.0292
 9975SOL    HW241580   1.124   1.114   3.878 -1.0340 -1.8090 -0.2246
 9976SOL     OW41581   0.512   3.838   3.446  0.6268 -0.5475 -0.1704
 9976SOL    HW141582   0.557   3.894   3.516  1.0051 -1.3519  0.2309
 9976SOL    HW241583   0.529   3.878   3.356  0.3358  0.3605  0.1743
 9977SOL     OW41584   8.654   5.267   4.710 -0.1589  0.1632 -0.5970
 9977SOL    HW141585   8.665   5.202   4.635  1.7715  0.7660 -0.8591
 9977SOL    HW241586   8.586   5.336   4.685 -0.3676 -0.2994 -1.3152
 9978SOL     OW41587   4.603   4.675   6.980  0.3219 -0.0502  0.0390
 9978SOL    HW141588   4.525   4.687   6.918  1.4987 -0.9403 -1.6309
 9978SOL    HW241589   4.593   4.737   7.058 -3.2476 -1.7837  1.0725
 9979SOL     OW41590   1.209   5.289   4.533 -0.6522 -0.2487  0.0754
 9979SOL    HW141591   1.296   5.254   4.499  0.5218  2.0313  0.5919
 9979SOL    HW241592   1.186   5.244   4.620 -0.9621 -2.2173 -1.0135
 9980SOL     OW41593   5.081   5.342   0.253  0.4569  0.0860  0.1738
 9980SOL    HW141594   5.117   5.353   0.160  1.5303 -0.9708  0.4514
 9980SOL    HW241595   4.981   5.336   0.249  0.4785  0.3126 -0.8881
 9981SOL     OW41596   0.690   9.535   4.761 -0.1548  0.1179 -0.1316
 9981SOL    HW141597   0.604   9.483   4.753 -0.7525  1.3927 -2.3716
 9981SOL    HW241598   0.674   9.630   4.734  2.1237  0.1900 -1.3752
 9982SOL     OW41599   9.862   9.664   4.451 -0.2219 -0.0342  0.2521
 9982SOL    HW141600   9.859   9.726   4.530 -0.6106 -1.7115  1.5761
 9982SOL    HW241601   9.931   9.594   4.467 -0.2229 -0.3183 -0.9651
 9983SOL     OW41602   9.377   7.822   0.664 -0.4786 -0.1735 -0.2772
 9983SOL    HW141603   9.278   7.839   0.669 -0.4814  0.1859 -1.4987
 9983SOL    HW241604   9.400   7.745   0.724 -1.5968 -0.6997 -0.5019
 9984SOL     OW41605   8.015   0.478   1.592  0.4988  0.2613  0.1355
 9984SOL    HW141606   7.932   0.422   1.600  0.4333  0.3311 -0.0616
 9984SOL    HW241607   7.994   0.563   1.544  0.7460  0.1529 -0.1664
 9985SOL     OW41608   7.458   0.815   4.715 -0.4298  0.1349  0.1625
 9985SOL    HW141609   7.516   0.786   4.639  1.1314  2.1927  0.5339
 9985SOL    HW241610   7.454   0.741   4.783  1.5168 -0.1787 -0.0282
 9986SOL     OW41611   4.711   9.999   5.357  0.0738 -0.1279 -0.5893
 9986SOL    HW141612   4.765   9.925   5.318 -0.8609 -0.5484 -1.0865
 9986SOL    HW241613   4.647   9.962   5.424 -0.7437  0.1568 -1.1998
 9987SOL     OW41614   9.974   6.851   4.088  0.3005 -0.3590  0.7115
 9987SOL    HW141615   9.973   6.951   4.084  0.3454 -0.4113 -1.0805
 9987SOL    HW241616   9.883   6.817   4.110  0.2204  0.0687  1.0448
 9988SOL     OW41617   7.448   5.916   6.292 -0.2590  0.0528 -0.0414
 9988SOL    HW141618   7.494   5.864   6.365 -0.6009 -0.6666 -0.3325
 9988SOL    HW241619   7.513   5.978   6.250 -0.0278  0.4029  0.8117
 9989SOL     OW41620   1.063   0.355   7.916 -0.5703 -0.4834 -0.1019
 9989SOL    HW141621   1.044   0.348   8.014 -3.7422 -1.6440 -0.7461
 9989SOL    HW241622   0.988   0.403   7.871  1.3005  0.8521 -1.8770
 9990SOL     OW41623   6.541   1.874   5.153 -0.3705 -0.0617  0.6166
 9990SOL    HW141624   6.487   1.912   5.228 -1.5499 -0.2325 -0.1254
 9990SOL    HW241625   6.559   1.777   5.171  2.2504  0.6947  2.2883
 9991SOL     OW41626   3.503   3.028   1.953 -0.2018 -0.3039 -0.1893
 9991SOL    HW141627   3.596   3.021   1.917 -1.0549  0.2885 -2.6035
 9991SOL    HW241628   3.481   3.124   1.969  0.3011 -0.5756  2.4121
 9992SOL     OW41629   8.801   0.434   2.264 -0.2889 -0.0360 -0.6257
 9992SOL    HW141630   8.707   0.401   2.260  0.0224 -0.7879 -1.9248
 9992SOL    HW241631   8.859   0.379   2.203  1.6713 -1.7618  2.6760
 9993SOL     OW41632   8.050   9.415   3.073 -0.2358  0.2921  0.3086
 9993SOL    HW141633   8.002   9.392   2.988  0.2830  0.7757 -0.1155
 9993SOL    HW241634   7.992   9.392   3.151 -0.1001 -1.6149 -0.1316
 9994SOL     OW41635   2.482   4.861   2.330 -0.0320 -0.0002 -0.5382
 9994SOL    HW141636   2.571   4.900   2.307 -0.2116  0.1806 -0.9388
 9994SOL    HW241637   2.473   4.854   2.429  1.4384 -2.4259 -0.5500
 9995SOL     OW41638   5.649   1.923   3.659 -0.2199  0.2324  0.3705
 9995SOL    HW141639   5.747   1.911   3.675  0.0037  1.7020  0.1668
 9995SOL    HW241640   5.599   1.904   3.744  0.3143  0.2581  0.6927
 9996SOL     OW41641   7.014   1.475   1.009 -0.0037  0.8977 -0.3589
 9996SOL    HW141642   7.044   1.379   1.006 -1.3128  0.4242  0.9076
 9996SOL    HW241643   7.070   1.529   0.947  0.5254 -0.7520 -1.3572
 9997SOL     OW41644   2.156   6.753   3.038 -0.2851  0.2787 -0.3380
 9997SOL    HW141645   2.127   6.727   2.945 -0.8187 -1.1761  0.2235
 9997SOL    HW241646   2.215   6.833   3.033  2.0233 -1.4672 -2.2080
 9998SOL     OW41647   9.574   4.468   4.568  0.0137  0.0283  0.3016
 9998SOL    HW141648   9.559   4.562   4.601  0.4552  0.2033  0.0079
 9998SOL    HW241649   9.578   4.468   4.469 -0.7332 -0.4185  0.2662
 9999SOL     OW41650   7.258   4.512   0.485 -0.0278 -0.4652  0.4757
 9999SOL    HW141651   7.332   4.571   0.518 -1.1180  1.5015 -0.4644
 9999SOL    HW241652   7.202   4.482   0.562  0.7159 -0.5443  0.9962
10000SOL     OW41653   0.232   7.618   5.246  0.3435  0.0605 -0.6695
10000SOL    HW141654   0.134   7.602   5.236  0.2066  1.4277 -1.6082
10000SOL    HW241655   0.251   7.652   5.338 -0.2401  1.0703 -0.9135
10001SOL     OW41656   3.839   9.091   2.418  0.5002  0.1701  0.4860
10001SOL    HW141657   3.793   9.161   2.363  4.2056  2.1658 -0.1737
10001SOL    HW241658   3.926   9.067   2.377  0.3342 -3.2443  1.9476
10002SOL     OW41659   9.692   1.806   1.348 -0.0173  0.1741  0.1625
10002SOL    HW141660   9.651   1.716   1.352  0.2886  0.0498  0.6216
10002SOL    HW241661   9.779   1.805   1.398 -0.2839  0.8630  0.6539
10003SOL     OW41662   4.922   8.876   4.235  0.0644  0.3112  0.0436
10003SOL    HW141663   4.835   8.837   4.265 -0.5229 -0.4814 -2.5607
10003SOL    HW241664   4.904   8.960   4.184  0.9019  0.5940  0.2066
10004SOL     OW41665   2.526   7.683   8.176  0.6190  0.1279  0.3472
10004SOL    HW141666   2.522   7.647   8.269  2.0460  0.7728  0.6615
10004SOL    HW241667   2.436   7.721   8.151  1.0712  2.8080  2.6156
10005SOL     OW41668   8.427   6.254   1.975  0.1238  0.3872 -0.3977
10005SOL    HW141669   8.375   6.336   2.000  1.4275  1.2292 -0.4044
10005SOL    HW241670   8.375   6.202   1.906 -1.2092  0.6190  0.4023
10006SOL     OW41671   3.901   0.342   0.568  0.1946 -0.0602 -0.9052
10006SOL    HW141672   3.938   0.417   0.514  2.1346  0.5156  1.1684
10006SOL    HW241673   3.963   0.264   0.564  0.2548 -0.0775  0.3433
10007SOL     OW41674   7.356   6.926   6.627  0.2068  0.1068  0.4480
10007SOL    HW141675   7.453   6.936   6.602 -0.2553  0.2627 -1.2823
10007SOL    HW241676   7.331   6.830   6.623  0.0433  0.1689 -0.0266
10008SOL     OW41677   7.119   9.161   4.537  0.2709  0.2689 -0.4273
10008SOL    HW141678   7.053   9.094   4.571  0.8416 -0.0823  0.0001
10008SOL    HW241679   7.125   9.154   4.437 -1.5760  1.4597 -0.6523
10009SOL     OW41680   1.189   0.882   3.005  0.0027 -0.4494 -0.2625
10009SOL    HW141681   1.196   0.976   2.973 -2.5224  0.0721  0.5591
10009SOL    HW241682   1.213   0.878   3.102 -0.5207 -0.5247 -0.1329
10010SOL     OW41683   4.831   4.104   7.771  0.7701  0.0890  0.0647
10010SOL    HW141684   4.835   4.099   7.871  0.6444 -1.8618 -0.0177
10010SOL    HW241685   4.735   4.098   7.742  0.8760 -0.1953 -0.2184
10011SOL     OW41686   3.323   1.704   3.958  0.5000 -0.2167 -0.5394
10011SOL    HW141687   3.370   1.689   3.871  1.2892  1.3750 -0.4142
10011SOL    HW241688   3.318   1.618   4.009  0.9704 -0.9400 -1.6949
10012SOL     OW41689   3.244   5.899   5.713  0.0186 -0.3436 -0.2357
10012SOL    HW141690   3.311   5.904   5.787 -0.3265 -0.5365  0.0926
10012SOL    HW241691   3.267   5.823   5.653 -0.9435 -1.5734  0.9155
10013SOL     OW41692   2.274   1.037   5.612  0.4455 -0.0355  0.5223
10013SOL    HW141693   2.354   0.978   5.601 -1.1793 -2.3205  0.7178
10013SOL    HW241694   2.217   1.002   5.686 -1.9878  0.1335 -1.2452
10014SOL     OW41695   7.520   3.525   1.150 -0.4084  0.5187 -0.1487
10014SOL    HW141696   7.618   3.544   1.154 -0.4716  0.9033 -0.3704
10014SOL    HW241697   7.504   3.441   1.099 -0.1045 -0.2814  1.0434
10015SOL     OW41698   5.383   0.049   3.435 -0.2459  0.3134  0.6513
10015SOL    HW141699   5.311   0.114   3.460  0.3059  0.7233  1.1819
10015SOL    HW241700   5.365  -0.040   3.476 -1.1227  0.0618 -0.2591
10016SOL     OW41701   5.435   1.356   5.840 -0.3264  0.0899 -0.0545
10016SOL    HW141702   5.374   1.293   5.888  0.3043 -0.2909  0.2544
10016SOL    HW241703   5.495   1.304   5.779 -0.0151  0.4129 -0.0285
10017SOL     OW41704   9.870   9.925   7.174 -0.2413  0.2861 -0.3590
10017SOL    HW141705   9.955   9.918   7.227 -1.7288 -1.1915  1.8773
10017SOL    HW241706   9.891   9.963   7.084  2.7063  0.5185  0.3684
10018SOL     OW41707   8.931   5.660   3.963  0.6164 -0.6983 -0.4634
10018SOL    HW141708   8.950   5.588   4.030  2.3485  0.8919  0.8213
10018SOL    HW241709   9.016   5.684   3.916  0.2539  1.1338 -0.2172
10019SOL     OW41710   2.707   6.610   7.777  1.0132 -0.2100 -0.1441
10019SOL    HW141711   2.729   6.707   7.775  0.6719 -0.1414 -0.7433
10019SOL    HW241712   2.627   6.595   7.835 -0.3289  0.1696 -1.8461
10020SOL     OW41713   6.095   8.632   3.949  0.2853 -0.2305  0.0130
10020SOL    HW141714   6.175   8.577   3.970  0.5758 -1.1409 -3.1714
10020SOL    HW241715   6.123   8.714   3.898 -0.4624  1.3336  2.0391
10021SOL     OW41716   8.102   5.788   1.064 -0.2470  0.0662  0.5815
10021SOL    HW141717   8.079   5.880   1.031  0.3028  0.1171  0.3279
10021SOL    HW241718   8.065   5.775   1.156 -0.0583  0.6581  0.7445
10022SOL     OW41719   1.461   4.949   2.433  0.3187 -0.7179  0.5885
10022SOL    HW141720   1.362   4.948   2.448  0.1659  0.9283 -0.1595
10022SOL    HW241721   1.494   4.856   2.420 -1.0385 -1.3360  1.4382
10023SOL     OW41722   2.268   4.679   6.787  0.6882 -0.2316 -0.2788
10023SOL    HW141723   2.312   4.750   6.842  1.3987 -0.7632 -0.1494
10023SOL    HW241724   2.337   4.635   6.730  0.3686 -1.2760  0.1392
10024SOL     OW41725   3.450   9.593   3.565  0.3414 -0.0283 -0.0715
10024SOL    HW141726   3.437   9.541   3.650 -0.6606 -0.5421 -0.5250
10024SOL    HW241727   3.436   9.532   3.487  1.7847  0.3196 -0.6123
10025SOL     OW41728   7.391   6.164   4.993 -0.4085  0.0933 -0.2275
10025SOL    HW141729   7.440   6.164   5.081 -0.4390  0.8458 -0.2060
10025SOL    HW241730   7.457   6.166   4.919 -0.4072  1.0547 -0.1994
10026SOL     OW41731   8.545   6.979   2.607  0.5439 -0.0195 -0.1307
10026SOL    HW141732   8.600   6.958   2.688  1.2588  0.5206 -0.4732
10026SOL    HW241733   8.586   6.934   2.527 -0.3845 -0.8837 -0.1340
10027SOL     OW41734   3.807   3.127   5.878 -0.0072 -0.4641  0.1512
10027SOL    HW141735   3.902   3.109   5.903  0.6748 -1.9209 -3.2178
10027SOL    HW241736   3.796   3.225   5.861  1.1808 -0.4337 -0.5267
10028SOL     OW41737   8.067   3.750   7.851 -0.2509  0.0122  0.3333
10028SOL    HW141738   8.140   3.757   7.920 -1.6746 -3.4601  2.3803
10028SOL    HW241739   7.981   3.783   7.890 -0.3354  1.5826 -1.1399
10029SOL     OW41740   8.333   1.939   4.439  0.0997 -0.1148  0.3422
10029SOL    HW141741   8.342   1.845   4.405  1.9498 -0.6643  2.2653
10029SOL    HW241742   8.398   1.998   4.391  0.7020 -0.3168  0.9117
10030SOL     OW41743   0.066   8.569   4.241  0.0313  0.4151 -0.1666
10030SOL    HW141744   0.034   8.591   4.333  0.2285  2.4801 -0.5683
10030SOL    HW241745   0.157   8.526   4.247  1.0438  2.5668  0.5158
10031SOL     OW41746   0.841   5.951   5.238 -0.0995  0.3546 -0.3453
10031SOL    HW141747   0.828   5.854   5.260  1.7124  0.1092 -0.3452
10031SOL    HW241748   0.753   5.990   5.208 -1.0436 -1.0429  0.5402
10032SOL     OW41749   1.168   7.113   2.576 -0.3295 -0.2545 -0.0015
10032SOL    HW141750   1.251   7.066   2.606  0.6688  1.2330 -0.3628
10032SOL    HW241751   1.192   7.203   2.539 -2.2157  0.6388  0.8706
10033SOL     OW41752   2.062   8.315   4.438  0.6078  0.6553 -0.0566
10033SOL    HW141753   2.034   8.346   4.347  1.6670  2.6477  0.2716
10033SOL    HW241754   2.161   8.321   4.446  0.5704 -0.0969  1.0363
10034SOL     OW41755   9.048   3.447   6.104 -0.6677 -0.3263  0.8212
10034SOL    HW141756   9.070   3.545   6.108 -0.6351 -0.3151  0.4147
10034SOL    HW241757   9.122   3.399   6.056 -0.8358 -0.5032  0.7415
10035SOL     OW41758   3.166   0.844   6.891  0.5986  0.5031 -0.0552
10035SOL    HW141759   3.227   0.921   6.873  0.5685  0.4013 -0.6006
10035SOL    HW241760   3.078   0.878   6.923  0.1507  0.7519 -1.5463
10036SOL     OW41761   9.765   1.506   7.883  0.3075  0.3725 -0.0118
10036SOL    HW141762   9.786   1.546   7.793 -0.0018  1.6910  0.4964
10036SOL    HW241763   9.676   1.462   7.879 -0.5117  1.9809  0.1300
10037SOL     OW41764   7.892   1.973   7.987  0.5761 -0.4547 -0.6369
10037SOL    HW141765   7.893   1.947   8.084  0.6886  0.8476 -0.2803
10037SOL    HW241766   7.979   2.014   7.963  0.0499  0.5066 -0.9306
10038SOL     OW41767   1.818   6.808   0.291 -0.2642  1.0697  0.3099
10038SOL    HW141768   1.899   6.749   0.297  0.1503  1.8061  2.4015
10038SOL    HW241769   1.756   6.773   0.220  0.9452 -0.6501  0.0710
10039SOL     OW41770   4.043   8.231   1.655 -0.0507 -0.5889  0.5721
10039SOL    HW141771   4.064   8.148   1.707  0.7185 -0.0553  1.1341
10039SOL    HW241772   4.091   8.228   1.568 -0.7029 -1.1217  0.2293
10040SOL     OW41773   2.016   1.952   3.043 -0.3258  0.0163 -0.0719
10040SOL    HW141774   1.939   2.016   3.044 -0.2649  0.1005 -0.7467
10040SOL    HW241775   1.997   1.878   2.978 -1.0045 -1.4015  1.6939
10041SOL     OW41776   9.512   6.957   6.434  0.7358  0.1337 -0.5092
10041SOL    HW141777   9.447   6.920   6.500  2.2627 -1.0954  0.3375
10041SOL    HW241778   9.594   6.989   6.482  1.5297 -0.0575 -1.7119
10042SOL     OW41779   9.872   6.626   3.347 -0.0721 -0.0832 -0.4095
10042SOL    HW141780   9.928   6.685   3.405 -0.7213  0.7004 -0.5668
10042SOL    HW241781   9.825   6.558   3.403 -0.2938  0.3459 -0.0702
10043SOL     OW41782   8.732   6.651   3.613 -0.0626 -0.2443 -0.2445
10043SOL    HW141783   8.719   6.575   3.549 -0.2869  0.1353 -0.6493
10043SOL    HW241784   8.705   6.622   3.705  1.8764 -1.3471  0.0096
10044SOL     OW41785   0.545   9.401   7.362 -0.0610  0.2812  0.0883
10044SOL    HW141786   0.488   9.415   7.281  0.0229  1.6662  0.2608
10044SOL    HW241787   0.597   9.316   7.352 -1.2045 -0.3436 -0.6276
10045SOL     OW41788   2.139   8.386   7.451  0.3552 -0.3890 -0.3270
10045SOL    HW141789   2.213   8.319   7.458  0.9160  0.2677 -0.0245
10045SOL    HW241790   2.165   8.471   7.495 -0.7612 -0.2983  0.1855
10046SOL     OW41791   1.807   0.295   6.948  0.1763 -0.5515  0.5637
10046SOL    HW141792   1.752   0.278   7.030 -0.6249 -0.0660  0.1360
10046SOL    HW241793   1.804   0.215   6.888 -2.4127  0.4637 -0.7754
10047SOL     OW41794   7.329   8.596   5.153  0.0839  0.0416  0.1802
10047SOL    HW141795   7.414   8.633   5.189 -0.8382  2.3865  0.0648
10047SOL    HW241796   7.315   8.503   5.188  1.9669  0.1666  1.3312
10048SOL     OW41797   3.891   5.355   0.221  0.2451 -0.0906 -0.2173
10048SOL    HW141798   3.852   5.263   0.223  0.8534 -0.3619 -0.7204
10048SOL    HW241799   3.871   5.402   0.307 -1.8500  0.0533 -0.7772
10049SOL     OW41800   1.663   3.256   6.511 -0.1317  0.0899 -0.0007
10049SOL    HW141801   1.595   3.213   6.451  0.1109  1.8419 -1.5698
10049SOL    HW241802   1.624   3.267   6.603 -1.2088 -0.8451 -0.3398
10050SOL     OW41803   5.617   7.198   4.238  0.5877 -0.3863  0.3258
10050SOL    HW141804   5.674   7.259   4.183  0.9291 -0.5328  0.5155
10050SOL    HW241805   5.644   7.103   4.221  1.0644 -0.4018  1.1591
10051SOL     OW41806   0.602   7.117   0.254  0.5193  0.1793 -0.7128
10051SOL    HW141807   0.560   7.028   0.273 -1.5846  0.9068 -1.7382
10051SOL    HW241808   0.608   7.130   0.155 -0.1724  1.5970 -0.5923
10052SOL     OW41809   5.367   7.365   4.291  0.1633  0.4406  0.1476
10052SOL    HW141810   5.386   7.455   4.252  0.6087 -0.1588 -1.0362
10052SOL    HW241811   5.431   7.298   4.254  0.4296 -0.2031  1.7179
10053SOL     OW41812   0.509   1.917   4.859 -0.5425  0.3552 -0.2342
10053SOL    HW141813   0.421   1.895   4.901 -0.3240  0.6350  0.3651
10053SOL    HW241814   0.516   2.016   4.846  0.1999  0.4460  0.8564
10054SOL     OW41815   6.086   7.721   4.254  0.5101  0.0393  0.7014
10054SOL    HW141816   6.185   7.719   4.265  0.4851 -1.6624  0.7890
10054SOL    HW241817   6.044   7.765   4.334  1.2519  1.8524  0.1023
10055SOL     OW41818   3.119   2.656   4.846 -0.2614  0.2525 -0.1809
10055SOL    HW141819   3.188   2.614   4.788 -0.6557  0.0218 -0.4880
10055SOL    HW241820   3.080   2.736   4.800  1.1668  1.5406  0.8032
10056SOL     OW41821   2.973   4.823   2.720 -0.0808 -0.1410 -0.6521
10056SOL    HW141822   2.950   4.810   2.816 -1.3860 -0.2160 -0.9650
10056SOL    HW241823   3.047   4.890   2.712  0.0668 -0.1747  0.4029
10057SOL     OW41824   7.468   6.704   6.382 -0.2565 -0.5970 -0.3260
10057SOL    HW141825   7.508   6.790   6.415 -0.9206 -0.2917 -0.3122
10057SOL    HW241826   7.386   6.724   6.328 -0.8418 -1.2534  0.3069
10058SOL     OW41827   7.113   5.680   0.831 -0.2158 -0.6598  0.0080
10058SOL    HW141828   7.022   5.639   0.826 -0.8401  0.5220  1.3250
10058SOL    HW241829   7.181   5.609   0.850 -1.0240 -1.3631  0.2828
10059SOL     OW41830   7.247   1.216   2.321  0.2246  0.2508 -0.4182
10059SOL    HW141831   7.223   1.264   2.406 -1.8650 -1.4682 -0.0027
10059SOL    HW241832   7.288   1.128   2.343 -0.1317 -0.1121 -1.2131
10060SOL     OW41833   1.406   1.167   7.425  0.2157  0.0615  0.0822
10060SOL    HW141834   1.335   1.236   7.434 -0.9915 -1.3533  1.6012
10060SOL    HW241835   1.472   1.196   7.355 -1.0013  2.0916 -0.2541
10061SOL     OW41836   4.694   1.441   3.705 -0.2535  0.1757  0.3790
10061SOL    HW141837   4.667   1.353   3.744 -0.6733  0.7755  1.4624
10061SOL    HW241838   4.792   1.454   3.715 -0.4872  0.7395  2.1214
10062SOL     OW41839   1.484   2.415   6.310 -0.0746  0.7909  0.0667
10062SOL    HW141840   1.416   2.351   6.346  2.7174 -1.5520  1.4874
10062SOL    HW241841   1.498   2.489   6.376 -0.7884  0.9353  0.0579
10063SOL     OW41842   3.572   8.764   3.905 -0.0589  0.3243  0.0162
10063SOL    HW141843   3.600   8.744   3.999  1.1125 -0.3022 -0.4559
10063SOL    HW241844   3.472   8.770   3.901 -0.0795  1.3150  1.4854
10064SOL     OW41845   0.933   6.488   4.238  0.2230  0.2477  0.1417
10064SOL    HW141846   0.979   6.577   4.243  0.6107  0.0223  0.5883
10064SOL    HW241847   0.836   6.502   4.218 -0.0638  0.8672  1.8879
10065SOL     OW41848   2.965   4.723   7.159  0.0807  0.5021  0.7909
10065SOL    HW141849   2.999   4.814   7.140  2.1512 -0.1749  1.1806
10065SOL    HW241850   2.932   4.718   7.254 -0.3785  0.9359  0.6556
10066SOL     OW41851   3.423   1.091   7.696 -0.0519  0.5567 -0.2690
10066SOL    HW141852   3.499   1.144   7.731 -0.7201  1.4841 -0.2171
10066SOL    HW241853   3.375   1.142   7.624 -0.3734 -0.1885 -0.6043
10067SOL     OW41854   5.451   8.171   1.791  0.2345  0.1815 -0.0436
10067SOL    HW141855   5.426   8.123   1.707  1.1311 -1.1943  0.4715
10067SOL    HW241856   5.514   8.245   1.769  0.5416 -0.2349 -0.5781
10068SOL     OW41857   5.419   0.860   2.423  0.2350 -0.2223  0.0227
10068SOL    HW141858   5.480   0.782   2.438  0.2288 -0.2358 -0.0231
10068SOL    HW241859   5.364   0.844   2.341  0.6768  0.1112 -0.3349
10069SOL     OW41860   0.239   6.008   8.006 -0.0424 -0.2229  0.2741
10069SOL    HW141861   0.257   6.105   8.024 -0.3162 -0.1583  0.2016
10069SOL    HW241862   0.237   5.993   7.908 -1.7988  0.0373  0.2604
10070SOL     OW41863   9.735   5.746   5.300 -0.4738 -0.4682 -0.3766
10070SOL    HW141864   9.772   5.657   5.325  0.0448 -0.5680 -1.4361
10070SOL    HW241865   9.679   5.736   5.217 -1.6536 -0.0597  0.3571
10071SOL     OW41866   0.211   6.580   0.699  0.1778  0.1068 -0.5059
10071SOL    HW141867   0.269   6.533   0.765  1.1816  1.0284 -0.7116
10071SOL    HW241868   0.121   6.538   0.697  0.1046  0.1468  1.5409
10072SOL     OW41869   1.555   3.797   0.771 -0.1468 -0.3812 -0.6113
10072SOL    HW141870   1.630   3.862   0.777 -1.7524  1.4010  0.7204
10072SOL    HW241871   1.571   3.735   0.694  2.0359  0.7707 -1.1280
10073SOL     OW41872   5.342   7.146   5.723  0.2022 -0.9349 -0.6103
10073SOL    HW141873   5.413   7.175   5.660 -0.5041  1.3959 -0.3819
10073SOL    HW241874   5.280   7.223   5.742 -1.1845 -2.3428  0.7758
10074SOL     OW41875   0.589   5.772   6.616  0.2136  0.3475 -0.0964
10074SOL    HW141876   0.510   5.711   6.624  1.3437 -1.0195  0.7586
10074SOL    HW241877   0.572   5.838   6.543 -1.6936  0.0249  0.0265
10075SOL     OW41878   7.546   8.116   5.232 -0.0095 -0.4740 -0.3180
10075SOL    HW141879   7.536   8.172   5.150 -0.4547  0.5339  0.4192
10075SOL    HW241880   7.525   8.021   5.210 -1.3758 -0.0068 -1.0908
10076SOL     OW41881   2.690   5.155   6.777  0.5372 -0.0110 -0.5102
10076SOL    HW141882   2.635   5.072   6.769  0.6477 -0.3847  2.2635
10076SOL    HW241883   2.785   5.135   6.751  0.0605 -0.1218 -2.2388
10077SOL     OW41884   6.771   9.102   3.232  0.0024  0.0010 -0.1058
10077SOL    HW141885   6.794   9.192   3.195 -1.7018  0.7574  0.5916
10077SOL    HW241886   6.748   9.040   3.157  0.8865  0.2329 -0.5737
10078SOL     OW41887   0.199   4.566   1.067 -0.1610  0.1216  0.2551
10078SOL    HW141888   0.113   4.597   1.109  0.6675  1.7389  0.8143
10078SOL    HW241889   0.235   4.489   1.119 -0.6083  0.2816  0.8149
10079SOL     OW41890   6.763   1.240   1.450  0.0884 -0.3847  0.7717
10079SOL    HW141891   6.817   1.231   1.366 -0.9923 -0.1751  0.0384
10079SOL    HW241892   6.795   1.174   1.517  2.8260  1.2901  1.2198
10080SOL     OW41893   5.631   7.415   3.327  0.0450 -0.0480 -0.3055
10080SOL    HW141894   5.646   7.514   3.328  0.3263 -0.0794 -1.0462
10080SOL    HW241895   5.696   7.371   3.389 -1.9116  0.4552  2.1990
10081SOL     OW41896   8.500   3.142   5.091 -0.4190  0.7681 -0.4729
10081SOL    HW141897   8.570   3.188   5.145  0.2549 -1.8791  1.0137
10081SOL    HW241898   8.427   3.110   5.152 -0.1333 -1.3823 -1.2085
10082SOL     OW41899   3.111   7.587   4.281 -0.0385 -0.4637  0.0548
10082SOL    HW141900   3.054   7.639   4.344 -0.3012 -0.1463 -0.4357
10082SOL    HW241901   3.188   7.643   4.251  1.2381 -1.3076  1.6662
10083SOL     OW41902   2.291   5.152   1.426 -0.3356  0.1048 -0.0957
10083SOL    HW141903   2.193   5.138   1.444 -0.1526 -0.8226  0.1718
10083SOL    HW241904   2.314   5.117   1.335 -0.3577  0.8036 -0.3726
10084SOL     OW41905   3.290   7.389   8.116  0.4785  0.2297  0.4286
10084SOL    HW141906   3.356   7.429   8.053 -0.6303 -1.5968 -1.9515
10084SOL    HW241907   3.233   7.462   8.155  1.5938  1.4359 -0.1441
10085SOL     OW41908   3.790   5.431   0.460 -0.3069 -1.1689 -0.2927
10085SOL    HW141909   3.823   5.449   0.553  3.0154 -3.4326 -0.9375
10085SOL    HW241910   3.725   5.502   0.433  0.3445  0.7590  2.9344
10086SOL     OW41911   8.979   0.995   5.028  0.6584 -0.3412  0.6017
10086SOL    HW141912   8.914   1.071   5.030  1.0418  0.0092  0.0202
10086SOL    HW241913   9.059   1.018   5.083  1.6723  0.5150 -1.1835
10087SOL     OW41914   5.198   7.125   1.951 -0.0915 -0.4251  0.0990
10087SOL    HW141915   5.160   7.216   1.935  2.9371  0.7899 -0.6868
10087SOL    HW241916   5.225   7.085   1.863 -0.3979 -1.6209  0.5442
10088SOL     OW41917   6.332   9.734   4.978 -0.0665  0.2371  0.0301
10088SOL    HW141918   6.428   9.753   4.958  0.1712 -1.3153 -0.3342
10088SOL    HW241919   6.293   9.678   4.905 -0.9682 -0.0161  0.6997
10089SOL     OW41920   3.867   1.237   5.467  0.2986 -0.4839 -0.3792
10089SOL    HW141921   3.931   1.267   5.396 -1.0248 -0.2054 -1.4597
10089SOL    HW241922   3.863   1.137   5.469  0.4814 -0.4952 -0.5642
10090SOL     OW41923   0.679   2.377   6.601 -0.4713 -0.1148  0.4683
10090SOL    HW141924   0.772   2.411   6.586 -1.3494  1.3065 -1.9448
10090SOL    HW241925   0.629   2.441   6.657 -1.4808  1.6411 -2.3473
10091SOL     OW41926   1.868   2.422   6.015 -0.2113 -0.1266  0.3377
10091SOL    HW141927   1.778   2.408   6.055 -0.4284  1.8074  0.5989
10091SOL    HW241928   1.858   2.448   5.919  0.0512  0.1181  0.3746
10092SOL     OW41929   3.686   0.398   5.532 -0.6129  0.1956 -0.0901
10092SOL    HW141930   3.784   0.410   5.549  0.0145 -3.3722 -0.7070
10092SOL    HW241931   3.640   0.373   5.617 -1.0120  1.8193  0.1892
10093SOL     OW41932   2.159   1.013   1.132 -0.3581 -0.3505  1.1598
10093SOL    HW141933   2.231   1.076   1.162  0.6211 -0.9387  0.0626
10093SOL    HW241934   2.086   1.065   1.086  0.4873 -0.0091  0.1854
10094SOL     OW41935   3.757   4.187   7.750 -0.2263 -0.5010  0.7805
10094SOL    HW141936   3.677   4.203   7.691  0.8140  0.5296 -0.3769
10094SOL    HW241937   3.792   4.095   7.734  0.1051 -0.1935 -0.2783
10095SOL     OW41938   1.526   0.846   2.260 -0.6693 -0.3380  0.3379
10095SOL    HW141939   1.619   0.808   2.258  0.6300  2.6999 -0.6159
10095SOL    HW241940   1.505   0.879   2.352 -0.4354 -0.2258  0.3523
10096SOL     OW41941   5.861   2.347   1.122 -0.1110  0.0675 -0.3022
10096SOL    HW141942   5.785   2.330   1.186  0.1888 -1.0268 -0.2204
10096SOL    HW241943   5.829   2.329   1.029  0.4953 -2.0082 -0.1277
10097SOL     OW41944   0.769   3.491   6.517 -0.1453 -0.6910  0.6565
10097SOL    HW141945   0.801   3.562   6.455 -1.3399 -0.1887  0.6081
10097SOL    HW241946   0.679   3.459   6.489  1.2327 -3.7219 -0.5362
10098SOL     OW41947   9.053   0.005   7.612 -0.1111 -0.4728  0.1907
10098SOL    HW141948   9.107  -0.023   7.691  0.7372 -1.6990 -0.8110
10098SOL    HW241949   9.000  -0.072   7.578 -1.6599  0.4366  0.4784
10099SOL     OW41950   2.913   9.837   6.304 -0.7180  0.1977  0.4264
10099SOL    HW141951   2.999   9.844   6.355 -0.5144 -2.1433  0.4866
10099SOL    HW241952   2.927   9.779   6.224 -2.1928 -0.1098  0.3773
10100SOL     OW41953   5.096   0.912   5.377  0.5439  0.0670 -0.1116
10100SOL    HW141954   5.134   0.819   5.378 -0.2605 -0.2718 -0.3333
10100SOL    HW241955   5.014   0.913   5.320  0.1236  0.7487  0.5082
10101SOL     OW41956   8.627   2.569   0.475  0.3078  0.7061 -0.4961
10101SOL    HW141957   8.704   2.624   0.507  0.9203 -0.5997  0.3212
10101SOL    HW241958   8.570   2.543   0.554 -0.0405  0.2845 -0.8847
10102SOL     OW41959   7.677   9.394   4.405  0.3977  0.0205  0.3292
10102SOL    HW141960   7.744   9.361   4.340 -0.2919 -1.6327  0.4342
10102SOL    HW241961   7.637   9.480   4.372  1.2359  0.0632 -0.5910
10103SOL     OW41962   5.506   2.560   0.930 -0.4530  0.2651  0.1628
10103SOL    HW141963   5.429   2.546   0.992 -0.9783  1.7439 -0.1323
10103SOL    HW241964   5.570   2.626   0.971 -0.5973  0.9384 -0.6703
10104SOL     OW41965   9.664   1.564   3.397  0.3846 -0.3054 -0.2845
10104SOL    HW141966   9.735   1.517   3.449  0.6682  0.0032 -0.3883
10104SOL    HW241967   9.627   1.639   3.451  0.0269 -0.5582 -0.1720
10105SOL     OW41968   7.799   0.310   4.877  0.1834  0.5000  0.0657
10105SOL    HW141969   7.769   0.251   4.953  0.4474  0.9995  0.5619
10105SOL    HW241970   7.868   0.262   4.823 -1.8754 -0.8839 -1.4227
10106SOL     OW41971   1.872   2.940   2.772 -0.0563  0.3571 -0.3596
10106SOL    HW141972   1.799   2.872   2.769 -0.0747  0.3747 -0.3085
10106SOL    HW241973   1.833   3.031   2.766 -0.0962  0.3939  0.3676
10107SOL     OW41974   2.797   8.377   0.361  0.2921 -0.0791  0.1052
10107SOL    HW141975   2.882   8.416   0.326  0.8089 -0.4669  0.9104
10107SOL    HW241976   2.817   8.319   0.440 -0.6026 -1.0352 -0.3606
10108SOL     OW41977   6.915   1.882   4.905  0.1631 -0.4028 -0.3306
10108SOL    HW141978   6.830   1.912   4.948  0.3070  0.4566 -0.6306
10108SOL    HW241979   6.901   1.794   4.861 -0.2237 -0.8624  0.7131
10109SOL     OW41980   2.952   7.412   1.590 -0.3745 -0.2727  0.1510
10109SOL    HW141981   2.938   7.511   1.597  0.7777  0.0680 -1.9226
10109SOL    HW241982   3.049   7.393   1.573 -1.0156 -1.5470 -2.4250
10110SOL     OW41983   4.498   6.789   1.441 -0.1667  0.0929  0.1688
10110SOL    HW141984   4.492   6.810   1.343  1.9598  1.3677  0.2790
10110SOL    HW241985   4.594   6.781   1.468 -0.7325 -0.6446  2.0830
10111SOL     OW41986   9.101   6.810   1.648 -0.7112 -0.2274 -0.0854
10111SOL    HW141987   9.167   6.801   1.723  0.0172  2.2213 -0.3837
10111SOL    HW241988   9.082   6.720   1.610  2.4468 -1.0192  0.0453
10112SOL     OW41989   4.495   5.420   3.123  0.4457  0.0871 -0.1792
10112SOL    HW141990   4.580   5.474   3.122  0.0345  0.7323 -1.5365
10112SOL    HW241991   4.417   5.481   3.134  0.1825 -0.5704  1.7443
10113SOL     OW41992   3.023   9.223   4.432 -0.1406  0.3483 -0.2728
10113SOL    HW141993   2.996   9.316   4.458  0.0697  0.7655 -1.4999
10113SOL    HW241994   2.991   9.158   4.501  0.6746  1.4468  1.1624
10114SOL     OW41995   9.114   1.452   5.364  0.2146 -0.2259  0.1164
10114SOL    HW141996   9.025   1.407   5.367  0.7878 -1.3923 -0.0906
10114SOL    HW241997   9.140   1.480   5.457 -0.4272  0.2425  0.1560
10115SOL     OW41998   7.217   6.638   3.654 -0.1486  0.1205  0.0209
10115SOL    HW141999   7.196   6.735   3.654 -4.3810 -0.6882 -1.2286
10115SOL    HW242000   7.249   6.610   3.745  3.1860  2.9974 -0.1769
10116SOL     OW42001   0.713   3.567   2.154 -0.4125  0.2579 -0.4587
10116SOL    HW142002   0.765   3.617   2.224  0.7648 -0.1631 -1.0235
10116SOL    HW242003   0.621   3.606   2.148 -0.2019  0.9639  0.6092
10117SOL     OW42004   8.458   3.307   4.625  0.4382  0.2164 -0.2203
10117SOL    HW142005   8.432   3.398   4.590 -0.2045  0.1023 -0.0481
10117SOL    HW242006   8.502   3.317   4.714  0.2272  0.3475 -0.1302
10118SOL     OW42007   0.053   9.916   2.360  0.1444 -0.3624  0.7152
10118SOL    HW142008  -0.002   9.989   2.318 -0.7777 -0.5881  1.5173
10118SOL    HW242009   0.107   9.870   2.289  0.3866  0.8030  0.1340
10119SOL     OW42010   8.393   3.078   2.313 -0.1819  0.4148  0.1560
10119SOL    HW142011   8.398   3.176   2.294 -0.2275  0.2031 -0.9654
10119SOL    HW242012   8.340   3.064   2.397  0.4602  1.3896  0.7390
10120SOL     OW42013   5.670   7.763   4.910 -0.3923  0.0317 -0.1435
10120SOL    HW142014   5.594   7.827   4.898  0.6120  1.5288  1.4888
10120SOL    HW242015   5.633   7.670   4.919 -1.9115  0.4924 -1.3444
10121SOL     OW42016   6.686   2.137   6.157 -0.3764 -0.2939 -0.1947
10121SOL    HW142017   6.652   2.116   6.065 -3.1199  2.0224  0.2230
10121SOL    HW242018   6.759   2.205   6.152 -0.5127 -0.1816 -0.6454
10122SOL     OW42019   4.205   9.455   4.891 -0.0196 -0.4674  0.2807
10122SOL    HW142020   4.286   9.410   4.927  0.6086  0.5155  0.1301
10122SOL    HW242021   4.131   9.453   4.959  1.0052  0.9850  1.4751
10123SOL     OW42022   5.903   1.753   5.636 -0.0149  0.2537 -0.4913
10123SOL    HW142023   5.829   1.817   5.616 -1.3086 -1.2018 -0.5145
10123SOL    HW242024   5.893   1.672   5.578  1.9316  0.2732 -0.8859
10124SOL     OW42025   1.341   1.016   3.296  0.0943  0.7104 -0.3273
10124SOL    HW142026   1.396   1.045   3.219 -0.3193  2.4904  0.0284
10124SOL    HW242027   1.400   0.982   3.369  0.5068 -0.5940 -1.2572
10125SOL     OW42028   9.826   5.672   2.763 -0.0732  0.8872 -0.2736
10125SOL    HW142029   9.884   5.668   2.844 -0.3004 -1.5507 -0.1900
10125SOL    HW242030   9.747   5.730   2.781  0.1530  0.7986  1.0627
10126SOL     OW42031   6.867   4.691   7.012  0.1605  0.7704  0.6779
10126SOL    HW142032   6.880   4.786   7.040  0.5473  0.9564 -0.1280
10126SOL    HW242033   6.770   4.667   7.019  0.1222  1.0965  1.2736
10127SOL     OW42034   3.292   8.764   5.046 -0.2460 -0.0741 -0.0086
10127SOL    HW142035   3.390   8.780   5.052 -0.6286  2.9279 -0.9545
10127SOL    HW242036   3.243   8.846   5.076 -2.4573 -1.2284 -0.3675
10128SOL     OW42037   7.457   1.803   6.570 -0.6927 -0.4205 -0.2109
10128SOL    HW142038   7.432   1.772   6.662 -2.0723  1.7129  0.1842
10128SOL    HW242039   7.547   1.845   6.572 -1.4093  1.1447  0.5691
10129SOL     OW42040   5.128   7.180   3.608 -0.1566  0.0871  0.1837
10129SOL    HW142041   5.084   7.093   3.582  1.1389 -0.4676 -0.2144
10129SOL    HW242042   5.077   7.222   3.683 -0.6669 -1.1460  0.5458
10130SOL     OW42043   7.676   9.841   5.601 -0.0523 -0.0613 -0.2966
10130SOL    HW142044   7.733   9.913   5.561 -0.8139  0.9981  0.4987
10130SOL    HW242045   7.675   9.762   5.540  0.9487  0.5261 -1.0960
10131SOL     OW42046   3.350   4.435   7.812  0.3170  0.2146  0.5606
10131SOL    HW142047   3.312   4.480   7.893  1.4015  0.7846  0.7608
10131SOL    HW242048   3.387   4.346   7.838  1.4891  0.7877  0.8746
10132SOL     OW42049   2.548   2.106   7.339 -0.0562  0.1994 -0.0029
10132SOL    HW142050   2.575   2.027   7.394  1.5072  1.2405  0.7648
10132SOL    HW242051   2.531   2.184   7.399 -2.0330  0.3489 -0.7185
10133SOL     OW42052   5.232   4.634   0.158  0.5907 -0.3269 -0.2037
10133SOL    HW142053   5.225   4.730   0.184  1.3505 -0.6453  1.2487
10133SOL    HW242054   5.140   4.596   0.142  0.1425  0.0723  1.3648
10134SOL     OW42055   8.104   1.817   1.388 -0.2845  0.2580 -0.5139
10134SOL    HW142056   8.095   1.777   1.479  0.2379  2.1017  0.3802
10134SOL    HW242057   8.074   1.913   1.390  1.0861  0.7531 -1.9416
10135SOL     OW42058   4.764   3.390   6.745  0.1252 -0.2085  0.1064
10135SOL    HW142059   4.684   3.414   6.800  1.4018  2.8161  0.7819
10135SOL    HW242060   4.847   3.409   6.797  1.3167 -0.9436 -1.4745
10136SOL     OW42061   9.190   8.711   4.935 -0.2339 -0.1191 -0.1939
10136SOL    HW142062   9.272   8.658   4.959 -1.0762 -1.3426  0.0514
10136SOL    HW242063   9.188   8.727   4.837  0.8486  0.8675 -0.0714
10137SOL     OW42064   3.587   3.769   6.411 -0.5137  0.7828  0.4485
10137SOL    HW142065   3.533   3.785   6.493  0.1624 -0.7276  1.2047
10137SOL    HW242066   3.576   3.674   6.381  1.1435  0.6428  0.1987
10138SOL     OW42067   4.945   6.514   2.197  0.5979  0.1072 -0.1089
10138SOL    HW142068   4.939   6.565   2.282 -0.6405  2.6159 -1.6298
10138SOL    HW242069   4.882   6.437   2.199 -0.4067  0.9451  0.7341
10139SOL     OW42070   1.127   6.409   0.154  1.1044 -0.5715 -0.6523
10139SOL    HW142071   1.183   6.461   0.090  3.2021 -1.3812  0.4665
10139SOL    HW242072   1.183   6.380   0.231 -1.6791  1.5819  2.3143
10140SOL     OW42073   1.602   1.120   1.346  0.1396 -0.3786  0.0189
10140SOL    HW142074   1.601   1.197   1.283  0.3007 -0.9495 -0.6789
10140SOL    HW242075   1.693   1.110   1.384  0.4814 -1.1235 -0.9924
10141SOL     OW42076   9.596   1.927   6.374  0.2141  0.1128 -0.1348
10141SOL    HW142077   9.668   1.905   6.308  1.0794 -0.2814  0.9169
10141SOL    HW242078   9.638   1.966   6.456 -0.8953  1.0313  0.0018
10142SOL     OW42079   5.977   9.082   3.024 -0.0556  0.4027 -0.1070
10142SOL    HW142080   5.948   8.993   2.988  1.4562 -0.1540 -0.0077
10142SOL    HW242081   5.967   9.082   3.123  1.3832 -0.2490  0.0650
10143SOL     OW42082   3.261   3.321   6.051 -0.0464  0.3705 -0.0211
10143SOL    HW142083   3.246   3.231   6.092 -1.5917  0.6462  0.0442
10143SOL    HW242084   3.353   3.353   6.075 -0.0612 -0.4985  1.2810
10144SOL     OW42085   4.090   9.548   6.774  0.1288  0.2838 -0.5259
10144SOL    HW142086   4.186   9.562   6.797  0.4663 -1.3384 -0.8835
10144SOL    HW242087   4.036   9.541   6.857  0.2446  1.5843 -0.3235
10145SOL     OW42088   4.582   9.194   0.258  0.0331 -0.3211  0.3178
10145SOL    HW142089   4.636   9.256   0.315  0.6349 -1.7376  1.3482
10145SOL    HW242090   4.486   9.221   0.259  0.5971  1.7844 -0.9208
10146SOL     OW42091   2.459   4.993   4.995 -0.2226  0.5321 -0.6385
10146SOL    HW142092   2.417   5.022   4.909  2.2845  3.6309 -0.9276
10146SOL    HW242093   2.559   4.991   4.984  0.0296 -1.0391  1.6295
10147SOL     OW42094   2.799   2.223   7.195 -0.6437 -0.3280 -0.1261
10147SOL    HW142095   2.735   2.227   7.272  2.4661  0.0110  2.5812
10147SOL    HW242096   2.793   2.307   7.142 -0.1451  1.1408  2.0767
10148SOL     OW42097   2.189   0.533   2.719  0.2397 -0.2987  0.7017
10148SOL    HW142098   2.167   0.474   2.642  0.9919 -0.2162  0.4159
10148SOL    HW242099   2.284   0.516   2.747  0.1441  0.0647  1.2520
10149SOL     OW42100   5.958   2.109   5.684  0.0554  0.5176 -0.1777
10149SOL    HW142101   5.944   2.208   5.680 -2.1805  0.2583  0.4705
10149SOL    HW242102   5.911   2.071   5.764  0.1743 -1.1631 -0.8678
10150SOL     OW42103   3.503   1.998   0.064  0.1327 -0.4421  0.0132
10150SOL    HW142104   3.579   1.943   0.098  0.6319 -0.2506 -0.7670
10150SOL    HW242105   3.536   2.060  -0.007 -0.5438  0.4389  0.4583
10151SOL     OW42106   1.087   2.158   3.586  0.1601  0.0339  0.3654
10151SOL    HW142107   1.107   2.069   3.626  0.2209 -0.7479 -1.3447
10151SOL    HW242108   1.067   2.224   3.658  0.8207 -1.1897  1.6775
10152SOL     OW42109   4.281   2.926   2.657 -0.3154  0.0779 -0.1311
10152SOL    HW142110   4.294   3.022   2.681 -1.4404  0.2003  0.0142
10152SOL    HW242111   4.246   2.877   2.737  2.5659 -0.9843  0.5530
10153SOL     OW42112   7.298   2.596   0.676 -0.0817 -0.1769  0.4982
10153SOL    HW142113   7.239   2.668   0.713 -0.9146 -0.1245 -0.9295
10153SOL    HW242114   7.385   2.637   0.648 -0.8737  0.4455 -1.1104
10154SOL     OW42115   8.092   6.359   0.918  0.2550 -0.0515  0.2304
10154SOL    HW142116   8.041   6.437   0.955  1.7615 -0.7013  3.9193
10154SOL    HW242117   8.187   6.364   0.947  0.2469 -3.5764  1.1041
10155SOL     OW42118   9.753   7.276   2.767 -0.0516 -0.2490  0.3624
10155SOL    HW142119   9.804   7.230   2.694 -0.6014  0.8196 -0.7146
10155SOL    HW242120   9.669   7.315   2.730 -0.3191  0.3601  1.5589
10156SOL     OW42121   3.666   8.580   2.120 -0.7666  0.0114 -0.3431
10156SOL    HW142122   3.628   8.564   2.211 -3.0397 -0.3807 -1.3235
10156SOL    HW242123   3.724   8.662   2.122 -0.6933 -0.0651  1.4676
10157SOL     OW42124   8.521   5.427   5.696  0.1311 -0.2855 -0.3855
10157SOL    HW142125   8.502   5.411   5.599 -1.3026  0.0894 -0.1709
10157SOL    HW242126   8.458   5.496   5.731  1.1018  0.0841  0.6486
10158SOL     OW42127   5.726   9.982   1.426 -0.1556 -0.2950 -0.6154
10158SOL    HW142128   5.783  10.061   1.404 -0.7499 -0.3358 -2.3190
10158SOL    HW242129   5.640  10.014   1.467 -0.8718  0.0309 -2.3234
10159SOL     OW42130   0.476   1.338   3.042 -0.2678 -0.2841 -0.1700
10159SOL    HW142131   0.550   1.287   2.998 -0.4945 -0.6175 -0.1595
10159SOL    HW242132   0.394   1.334   2.985  0.1354  1.3123 -0.9168
10160SOL     OW42133   0.486   7.667   4.579 -0.0937  0.4900  0.0296
10160SOL    HW142134   0.579   7.642   4.553 -0.4476 -1.1142  0.2430
10160SOL    HW242135   0.429   7.585   4.579 -1.0493  1.1341  1.8124
10161SOL     OW42136   7.756   9.239   6.406  0.0159 -0.3367 -0.3441
10161SOL    HW142137   7.728   9.299   6.481 -2.3535  0.0134 -1.4783
10161SOL    HW242138   7.792   9.154   6.444 -1.8187 -0.4525  1.2049
10162SOL     OW42139   4.751   8.570   5.726 -0.7738 -0.4331 -0.2843
10162SOL    HW142140   4.788   8.480   5.701  1.8287  0.3885  0.4207
10162SOL    HW242141   4.769   8.586   5.823  0.5630  1.6529 -0.8518
10163SOL     OW42142   2.684   6.998   0.481 -0.5080  0.1973  0.4052
10163SOL    HW142143   2.761   6.949   0.440 -1.6129 -2.3068  1.2308
10163SOL    HW242144   2.713   7.089   0.508  1.8468 -0.2895 -0.3979
10164SOL     OW42145   0.644   4.311   6.334 -0.1222 -0.4789  0.1475
10164SOL    HW142146   0.688   4.263   6.410  2.0509  0.2910 -0.6077
10164SOL    HW242147   0.709   4.325   6.260 -2.0749 -0.7459 -1.6788
10165SOL     OW42148   9.810   1.217   4.037 -0.1069 -0.2027 -0.4540
10165SOL    HW142149   9.872   1.167   4.098 -0.1658 -0.2070 -0.3973
10165SOL    HW242150   9.841   1.207   3.943  0.2444  0.1804 -0.3802
10166SOL     OW42151   6.082   1.411   7.952 -0.1360  0.5935  0.1818
10166SOL    HW142152   6.072   1.311   7.954  0.9029  0.4790  0.0988
10166SOL    HW242153   6.123   1.439   7.865  0.5271  0.9968  0.6194
10167SOL     OW42154   2.189   2.029   7.934 -0.4493 -0.1979 -0.3146
10167SOL    HW142155   2.261   2.064   7.994 -0.4400 -1.2684  0.3027
10167SOL    HW242156   2.211   2.052   7.839  0.0045  0.6873  0.0006
10168SOL     OW42157   8.826   7.252   7.709 -0.5640 -0.3637  0.5822
10168SOL    HW142158   8.806   7.157   7.686  0.2445 -0.4892  0.3886
10168SOL    HW242159   8.897   7.256   7.778  0.4967  0.1212 -0.5116
10169SOL     OW42160   5.238   2.798   8.152 -0.2333 -0.2582 -0.1509
10169SOL    HW142161   5.159   2.859   8.148  0.8264  1.1747  0.1026
10169SOL    HW242162   5.281   2.806   8.242 -0.8162 -2.3480  0.3280
10170SOL     OW42163   4.087   3.177   3.146 -0.3187  0.5881 -0.3123
10170SOL    HW142164   4.160   3.197   3.211  0.2263  0.1388 -0.7974
10170SOL    HW242165   4.066   3.080   3.147 -0.9181  0.7136 -0.1700
10171SOL     OW42166   0.037   0.046   0.544 -0.2078  0.3632 -0.1192
10171SOL    HW142167   0.020   0.119   0.610 -1.1386 -1.6548  1.9489
10171SOL    HW242168   0.096  -0.023   0.586 -0.7098 -0.9090 -1.4779
10172SOL     OW42169   2.358   2.025   5.436  0.0283 -0.6854 -0.6181
10172SOL    HW142170   2.280   2.087   5.429  1.1270  0.9689  1.4340
10172SOL    HW242171   2.427   2.050   5.368  1.0359  1.2275  1.0612
10173SOL     OW42172   4.456   2.741   3.908  0.0491  0.4046 -0.8069
10173SOL    HW142173   4.506   2.706   3.988 -0.1461  0.3969 -0.6881
10173SOL    HW242174   4.431   2.836   3.924  0.3669  0.5243 -1.0298
10174SOL     OW42175   8.615   9.079   5.973  0.0135 -0.3220  0.2778
10174SOL    HW142176   8.709   9.088   6.005 -0.1236  1.0208  0.3290
10174SOL    HW242177   8.554   9.076   6.051 -0.0528 -0.4265  0.2225
10175SOL     OW42178   9.269   4.399   7.159  1.0197  0.0368  0.1879
10175SOL    HW142179   9.223   4.360   7.239 -0.5566  1.0997 -0.1596
10175SOL    HW242180   9.231   4.359   7.076  2.4820 -0.8859 -0.0424
10176SOL     OW42181   2.042   5.091   4.257  0.4006 -0.2190  0.2129
10176SOL    HW142182   1.985   5.111   4.178  0.7873  0.1812  0.0344
10176SOL    HW242183   1.996   5.123   4.340  0.1127 -0.4098  0.1289
10177SOL     OW42184   0.929   9.647   3.945 -0.3785  0.2461  0.2852
10177SOL    HW142185   0.976   9.736   3.945  1.0614 -0.4974  2.4651
10177SOL    HW242186   0.968   9.589   3.874 -1.1014  1.2236 -0.9330
10178SOL     OW42187   9.768   9.325   7.842 -0.5635 -0.2995  0.2247
10178SOL    HW142188   9.763   9.226   7.851  0.0292 -0.4108 -0.6613
10178SOL    HW242189   9.863   9.354   7.833 -0.8725  0.1300 -1.9373
10179SOL     OW42190   7.146   6.990   6.111  0.2740  0.4302  0.2358
10179SOL    HW142191   7.161   7.074   6.059  0.0288  0.5149  0.3029
10179SOL    HW242192   7.099   7.011   6.196 -1.5628 -0.0172 -0.6401
10180SOL     OW42193   8.057   3.295   3.776  0.2357 -0.2966  0.1742
10180SOL    HW142194   8.028   3.262   3.686 -0.6874  0.6376  0.1231
10180SOL    HW242195   8.048   3.395   3.780  1.3269 -0.2202  0.9249
10181SOL     OW42196   3.784   9.749   6.918  0.5232  0.3233 -0.7892
10181SOL    HW142197   3.705   9.809   6.933  0.4185  0.0693 -0.2697
10181SOL    HW242198   3.866   9.803   6.903  0.3066  0.5926 -1.0034
10182SOL     OW42199   2.464   3.617   6.796 -0.4026  0.0591  0.0152
10182SOL    HW142200   2.452   3.524   6.762 -0.3971 -0.3609  1.1438
10182SOL    HW242201   2.561   3.642   6.792 -0.5264  0.3910 -1.2202
10183SOL     OW42202   1.620   2.540   3.222 -0.3547  0.6632  0.2105
10183SOL    HW142203   1.630   2.544   3.322  0.5954  1.4411  0.0969
10183SOL    HW242204   1.575   2.455   3.196  0.3595 -0.0372  1.2297
10184SOL     OW42205   4.480   8.823   0.119 -0.2151  0.2292 -0.4960
10184SOL    HW142206   4.535   8.907   0.117  1.1593 -0.6144  0.6203
10184SOL    HW242207   4.502   8.770   0.201 -0.6995 -1.4629 -1.4191
10185SOL     OW42208   4.385   8.553   4.587  0.2338  0.1610 -0.6205
10185SOL    HW142209   4.468   8.594   4.623 -0.1632  0.3509  0.0720
10185SOL    HW242210   4.310   8.620   4.587 -0.1606 -0.2728 -0.3888
10186SOL     OW42211   6.844   7.284   4.059 -0.0973 -0.1167  0.2353
10186SOL    HW142212   6.805   7.294   4.151  1.0578  2.6137  0.4741
10186SOL    HW242213   6.770   7.274   3.993 -0.9863 -0.8927  1.3141
10187SOL     OW42214   3.233   1.798   0.627  0.2033  0.2038  0.3327
10187SOL    HW142215   3.329   1.820   0.641  0.0286  0.0249  1.9475
10187SOL    HW242216   3.225   1.717   0.569  1.1021 -0.9767  1.8068
10188SOL     OW42217   8.777   3.432   1.114 -0.4385 -0.3454 -0.1750
10188SOL    HW142218   8.777   3.352   1.174  2.3807 -1.4611 -1.5726
10188SOL    HW242219   8.729   3.411   1.029  1.6456 -1.0930 -1.1860
10189SOL     OW42220   0.282   6.281   4.916 -0.4968 -0.4037  0.5985
10189SOL    HW142221   0.312   6.257   4.824 -0.3203 -4.2442  1.5965
10189SOL    HW242222   0.182   6.290   4.917 -0.4417  0.3218 -0.0983
10190SOL     OW42223   3.500   3.395   0.085 -0.1325  0.0396  0.6093
10190SOL    HW142224   3.473   3.475   0.031  1.8789 -0.3503 -1.0167
10190SOL    HW242225   3.443   3.317   0.060  1.5091 -0.4384 -1.8550
10191SOL     OW42226   3.099   9.265   6.978  1.0277 -0.1756  0.4879
10191SOL    HW142227   3.190   9.228   6.954  0.4669 -1.8434  0.8483
10191SOL    HW242228   3.042   9.267   6.896  0.3719 -2.1601  0.8812
10192SOL     OW42229   1.806   1.712   3.155  0.2342  0.3118  0.4828
10192SOL    HW142230   1.730   1.777   3.151 -0.9251 -1.0242  0.1511
10192SOL    HW242231   1.826   1.691   3.251 -0.5769 -0.1895  0.5466
10193SOL     OW42232   6.923   7.042   4.348 -0.1421 -0.0978  0.4422
10193SOL    HW142233   6.934   7.018   4.444 -2.1728 -3.0923  0.0193
10193SOL    HW242234   6.889   7.135   4.340  1.2632  0.6130  2.5512
10194SOL     OW42235   2.542   1.109   2.367  0.1986  0.1064 -0.0801
10194SOL    HW142236   2.573   1.192   2.321 -0.5891  0.7726  0.5774
10194SOL    HW242237   2.560   1.116   2.465 -0.2014 -0.3382  0.0298
10195SOL     OW42238   9.661   0.252   0.492 -0.3871  0.1785 -0.4990
10195SOL    HW142239   9.686   0.192   0.568  0.2682  0.2680 -0.6347
10195SOL    HW242240   9.598   0.204   0.431 -0.1862 -0.2323 -0.3873
10196SOL     OW42241   0.221   2.511   2.304 -0.0096  0.4030 -0.4583
10196SOL    HW142242   0.224   2.425   2.356  2.5454  2.1741  2.4649
10196SOL    HW242243   0.303   2.518   2.247  0.0913  1.1513 -0.2271
10197SOL     OW42244   2.363   1.494   6.492 -0.0032 -0.1402 -0.0667
10197SOL    HW142245   2.283   1.503   6.433 -0.3220  0.1666  0.4060
10197SOL    HW242246   2.332   1.480   6.586  0.5012  0.7107  0.2273
10198SOL     OW42247   7.396   7.985   2.552 -0.4068 -0.5045  0.2480
10198SOL    HW142248   7.477   7.927   2.560 -0.6083 -0.7188  0.8136
10198SOL    HW242249   7.393   8.049   2.629 -0.5611 -0.2299  0.0125
10199SOL     OW42250   4.355   5.248   7.993 -0.6837 -0.3357 -0.0349
10199SOL    HW142251   4.270   5.280   7.950 -0.7222 -0.5794 -0.1423
10199SOL    HW242252   4.339   5.159   8.036 -0.3225 -0.6746 -0.5933
10200SOL     OW42253   0.394   5.570   6.594  0.3505 -0.2733  0.4735
10200SOL    HW142254   0.440   5.558   6.506 -0.0151  1.0851  0.0919
10200SOL    HW242255   0.444   5.520   6.665  0.1443 -2.1206 -0.6501
10201SOL     OW42256   2.944   7.380   7.414 -0.1703 -0.7649  0.7444
10201SOL    HW142257   2.935   7.344   7.507  0.7232 -2.7118  0.0952
10201SOL    HW242258   2.894   7.467   7.407 -1.2059 -1.1714  2.7116
10202SOL     OW42259   8.445   2.152   2.625 -0.2639 -0.3992 -0.3723
10202SOL    HW142260   8.471   2.098   2.546 -0.0610 -0.2105 -0.4339
10202SOL    HW242261   8.376   2.219   2.598 -0.2789 -0.4107 -0.3638
10203SOL     OW42262   7.428   4.355   1.223  0.0419  0.4563 -0.0028
10203SOL    HW142263   7.391   4.330   1.312  0.0316 -0.6052 -0.2993
10203SOL    HW242264   7.397   4.290   1.154  1.1872  0.4516 -0.5346
10204SOL     OW42265   7.667   5.217   1.365 -0.3794 -0.1006  0.3165
10204SOL    HW142266   7.748   5.265   1.334 -0.2849 -0.6891 -0.3703
10204SOL    HW242267   7.678   5.119   1.349 -1.4732 -0.1261 -0.3803
10205SOL     OW42268   4.309   4.417   0.763 -0.1358  0.3495  0.0221
10205SOL    HW142269   4.357   4.475   0.830 -0.0704  0.2669  0.0472
10205SOL    HW242270   4.370   4.343   0.734  0.5093  1.4536 -1.5355
10206SOL     OW42271   2.081   3.253   4.381 -0.2375  0.7058  0.3659
10206SOL    HW142272   2.117   3.183   4.442  0.4048 -0.0503 -0.8585
10206SOL    HW242273   2.010   3.306   4.428  1.5140  1.3499  2.3633
10207SOL     OW42274   3.855   1.288   4.997  0.7702  0.2751  0.5670
10207SOL    HW142275   3.767   1.284   5.046  0.3066 -0.1794 -0.2920
10207SOL    HW242276   3.855   1.220   4.924  1.2627  1.2716 -0.3800
10208SOL     OW42277   3.355   2.886   0.952 -0.6312 -0.0231 -0.1894
10208SOL    HW142278   3.273   2.931   0.989  0.3107  0.1155  1.7720
10208SOL    HW242279   3.417   2.956   0.916 -1.6676 -0.1762 -2.3334
10209SOL     OW42280   4.152   1.019   2.624  0.3730 -0.4707 -0.7409
10209SOL    HW142281   4.227   0.972   2.579  0.6220 -0.8174  0.0285
10209SOL    HW242282   4.175   1.115   2.638  0.9538 -0.7322  0.1149
10210SOL     OW42283   0.921   7.894   2.430 -0.3648 -0.1725  0.2070
10210SOL    HW142284   0.939   7.967   2.364 -0.0224 -1.3829 -1.0449
10210SOL    HW242285   0.913   7.807   2.383  0.8526 -1.2184  1.8697
10211SOL     OW42286   4.107   7.787   1.210  0.3470  0.3669  0.2583
10211SOL    HW142287   4.007   7.779   1.211  0.4196 -0.6359  2.3171
10211SOL    HW242288   4.132   7.883   1.224 -0.3366  0.2879  2.2343
10212SOL     OW42289   6.620   9.106   3.461 -0.3841  0.2144  0.3232
10212SOL    HW142290   6.685   9.103   3.385 -0.5393  0.4892  0.1759
10212SOL    HW242291   6.554   9.180   3.445  0.1121  0.8490  1.1467
10213SOL     OW42292   2.237   7.709   7.551 -0.4685  0.1300 -0.0660
10213SOL    HW142293   2.213   7.761   7.633 -1.6545 -0.8027  0.1878
10213SOL    HW242294   2.325   7.742   7.515 -0.7913  1.7263  0.5683
10214SOL     OW42295   4.431   7.859   1.731  0.6186  0.4854 -0.0422
10214SOL    HW142296   4.528   7.875   1.748  0.3987  2.4838 -0.4693
10214SOL    HW242297   4.418   7.831   1.636  0.7981  0.1217  0.0429
10215SOL     OW42298   1.805   5.458   4.287  0.6660 -0.2935 -0.5724
10215SOL    HW142299   1.728   5.520   4.272 -1.2919 -2.4194  0.1959
10215SOL    HW242300   1.890   5.500   4.256 -0.1637  3.8120  2.3040
10216SOL     OW42301   8.897   0.457   8.155  0.2097  0.0581 -0.6964
10216SOL    HW142302   8.859   0.543   8.119 -0.8594 -0.4724 -0.8483
10216SOL    HW242303   8.864   0.381   8.100  0.5066 -0.5337 -0.0571
10217SOL     OW42304   7.245   3.189   0.339  0.1898  0.3395 -0.4303
10217SOL    HW142305   7.308   3.112   0.350 -0.0605  0.0770 -0.8192
10217SOL    HW242306   7.271   3.243   0.259 -0.4701 -0.1597 -0.9978
10218SOL     OW42307   8.400   5.407   3.703  0.0497  0.4146  0.0035
10218SOL    HW142308   8.384   5.440   3.611  2.9106 -1.0215 -1.0641
10218SOL    HW242309   8.329   5.341   3.728 -1.4943  1.8218 -0.6251
10219SOL     OW42310   3.099   0.209   0.775  0.2336 -0.1636  0.1117
10219SOL    HW142311   3.053   0.158   0.847 -1.5640 -1.7994 -2.1004
10219SOL    HW242312   3.075   0.306   0.782  0.0652 -0.3114  1.6796
10220SOL     OW42313   4.388   9.428   1.708 -0.0234 -0.3695 -0.0337
10220SOL    HW142314   4.373   9.340   1.753 -0.1891 -1.7369 -2.6123
10220SOL    HW242315   4.300   9.464   1.677  0.1586  0.1388  0.0475
10221SOL     OW42316   9.623   3.638   3.830  0.0175  0.0265 -0.6500
10221SOL    HW142317   9.592   3.625   3.924  0.5978  1.0430 -0.3126
10221SOL    HW242318   9.569   3.581   3.769 -0.2504 -0.7763  0.3208
10222SOL     OW42319   9.519   9.650   7.653  0.2893  0.2250 -0.3543
10222SOL    HW142320   9.557   9.685   7.739 -0.6295  1.6423 -0.5043
10222SOL    HW242321   9.529   9.719   7.582  0.5703 -0.7464 -1.2801
10223SOL     OW42322   8.170   5.768   2.190 -0.1314  0.6323  0.5899
10223SOL    HW142323   8.238   5.838   2.167  0.7233 -0.4256 -0.1370
10223SOL    HW242324   8.082   5.812   2.208 -0.0823  1.7341 -1.6991
10224SOL     OW42325   5.310   5.509   1.686 -0.4675 -0.5200 -0.1885
10224SOL    HW142326   5.215   5.538   1.691  0.2767  2.1169 -0.3130
10224SOL    HW242327   5.343   5.518   1.592  0.6420  1.1287  0.3381
10225SOL     OW42328   0.059   4.229   6.033 -0.8339 -0.1489 -0.0930
10225SOL    HW142329   0.128   4.198   5.967 -2.4531 -0.4554 -1.7055
10225SOL    HW242330   0.007   4.150   6.065  0.6875 -0.1533  2.4981
10226SOL     OW42331   0.994   2.342   7.001 -0.0622  0.2553 -0.1658
10226SOL    HW142332   1.078   2.331   7.054  0.6950  1.5845 -1.0844
10226SOL    HW242333   0.958   2.252   6.977  0.8464 -0.3235  0.6060
10227SOL     OW42334   4.169   7.047   1.158 -0.0213 -0.7465 -0.1350
10227SOL    HW142335   4.231   7.006   1.090  0.0046 -0.1567 -0.4644
10227SOL    HW242336   4.090   6.988   1.170  1.2173 -2.1889  1.2498
10228SOL     OW42337   4.343   7.146   3.293 -0.1385 -0.3708  0.0433
10228SOL    HW142338   4.333   7.136   3.392 -1.0720  0.2408  0.0129
10228SOL    HW242339   4.308   7.064   3.248 -1.8627  0.3079  0.1112
10229SOL     OW42340   8.006   5.756   0.582  0.1453 -0.1520  0.0999
10229SOL    HW142341   8.095   5.717   0.606  0.6422  0.4689 -0.7001
10229SOL    HW242342   7.953   5.689   0.530  1.2824  0.4673 -1.9013
10230SOL     OW42343   1.018   8.258   1.887 -0.6801  0.4688 -0.2909
10230SOL    HW142344   0.953   8.208   1.830 -0.1150 -1.1105  0.4102
10230SOL    HW242345   1.090   8.195   1.917 -0.3381  1.5584  1.1979
10231SOL     OW42346   4.752   8.959   0.360  0.1635 -0.6844  0.1939
10231SOL    HW142347   4.726   9.020   0.285  0.4486 -1.3582 -0.4603
10231SOL    HW242348   4.800   8.879   0.323  0.4986 -0.9155  1.1171
10232SOL     OW42349   7.127   4.688   0.074  0.1554 -0.4780 -0.1701
10232SOL    HW142350   7.196   4.652   0.011  0.4239 -1.7157  0.7851
10232SOL    HW242351   7.146   4.784   0.095  2.3437 -1.1378  1.0329
10233SOL     OW42352   6.073   0.912   5.455  0.3663 -0.0912  0.1115
10233SOL    HW142353   6.143   0.871   5.512 -1.9036 -3.2854  0.7097
10233SOL    HW242354   5.983   0.903   5.499 -0.9663  0.4758 -2.3561
10234SOL     OW42355   0.679   2.659   7.575  0.5740 -0.6008  0.6199
10234SOL    HW142356   0.714   2.687   7.664  2.0305 -4.5591  1.4165
10234SOL    HW242357   0.585   2.627   7.584 -0.0317  1.0741  0.3004
10235SOL     OW42358   5.784   1.663   4.579  0.1400  0.0025  0.0333
10235SOL    HW142359   5.859   1.598   4.565  0.9803  1.5147 -2.7139
10235SOL    HW242360   5.815   1.755   4.556 -2.2559  0.8199 -0.0250
10236SOL     OW42361   0.757   4.287   6.928  0.0957 -0.0612 -0.2608
10236SOL    HW142362   0.716   4.346   6.997  1.2352 -0.8087  1.0774
10236SOL    HW242363   0.709   4.199   6.926 -0.1151  0.0602 -0.6228
10237SOL     OW42364   1.879   4.882   3.450  0.0107  0.1865 -0.3928
10237SOL    HW142365   1.866   4.857   3.546 -0.1339 -1.4350 -0.8274
10237SOL    HW242366   1.790   4.890   3.405 -0.0128  2.7397  0.0311
10238SOL     OW42367   1.065   8.344   2.762  0.2191  0.4054 -0.1243
10238SOL    HW142368   1.091   8.423   2.818  1.0604  0.0859 -0.0680
10238SOL    HW242369   1.137   8.325   2.696  1.4018 -2.1753  1.8305
10239SOL     OW42370   0.270   9.291   4.536 -0.1602 -0.5430 -0.8723
10239SOL    HW142371   0.202   9.233   4.581 -0.3444  0.1973 -0.1823
10239SOL    HW242372   0.284   9.259   4.443 -1.1226 -0.9871 -0.8752
10240SOL     OW42373   8.927   6.883   4.197  0.6188  0.2716  0.0079
10240SOL    HW142374   8.981   6.936   4.262 -1.4262  0.2464  1.7520
10240SOL    HW242375   8.885   6.945   4.130  1.0553  0.4891 -0.0706
10241SOL     OW42376   2.620   8.460   6.070 -0.5430 -0.2698 -0.2464
10241SOL    HW142377   2.664   8.520   6.137  0.3891 -2.3695  1.0712
10241SOL    HW242378   2.608   8.510   5.984  0.5748  1.6569  0.6723
10242SOL     OW42379   5.234   5.219   7.846 -0.1340 -0.1617 -0.2144
10242SOL    HW142380   5.156   5.224   7.909  0.8183 -2.5072  1.2275
10242SOL    HW242381   5.319   5.231   7.896  0.6143 -1.4473 -1.1268
10243SOL     OW42382   3.581   0.837   3.699  0.4097 -0.1713  0.1432
10243SOL    HW142383   3.530   0.802   3.778 -1.6159 -0.8302 -1.4000
10243SOL    HW242384   3.647   0.768   3.670  2.1932  0.6388  2.0811
10244SOL     OW42385   9.910   4.852   7.052 -0.2649  0.4814 -0.5753
10244SOL    HW142386   9.915   4.811   7.143 -0.2318 -0.9378 -1.2114
10244SOL    HW242387   9.991   4.828   7.000 -0.7884  0.3830 -1.3546
10245SOL     OW42388   2.787   7.422   4.808  0.0896  0.2329 -0.4981
10245SOL    HW142389   2.736   7.429   4.722  1.3814 -0.2370 -1.3248
10245SOL    HW242390   2.858   7.353   4.799  0.8254  0.8182  0.6585
10246SOL     OW42391   2.636   9.536   6.275 -0.5334  0.3346  0.0176
10246SOL    HW142392   2.714   9.502   6.328 -0.3083 -0.5681 -0.8878
10246SOL    HW242393   2.574   9.586   6.336  0.7517  1.0785  0.7390
10247SOL     OW42394   0.042   9.473   5.267 -0.3422 -0.4012  0.1129
10247SOL    HW142395   0.110   9.542   5.289  0.8170 -1.4938  0.0327
10247SOL    HW242396  -0.034   9.515   5.217  0.2917  0.8107  0.1523
10248SOL     OW42397   0.174   9.116   7.719 -0.3400  0.0939  0.0279
10248SOL    HW142398   0.255   9.093   7.664 -0.7782  0.2125 -0.6718
10248SOL    HW242399   0.093   9.075   7.677 -0.7526  0.6452  0.2903
10249SOL     OW42400   0.783   0.310   3.269  0.2432  0.3027  0.1630
10249SOL    HW142401   0.692   0.269   3.265  0.3544  0.2320 -3.7007
10249SOL    HW242402   0.846   0.259   3.211  3.0164 -0.0785  3.3065
10250SOL     OW42403   9.472   5.568   1.366  0.1836  0.3469 -0.1388
10250SOL    HW142404   9.406   5.618   1.423 -0.3363  1.1051 -1.3851
10250SOL    HW242405   9.496   5.624   1.287  0.3992 -0.9614 -1.0140
10251SOL     OW42406   4.797   3.189   4.886  0.1750 -0.4001  0.4888
10251SOL    HW142407   4.849   3.274   4.894 -0.9065  0.1690  1.6162
10251SOL    HW242408   4.704   3.209   4.856  0.3056 -1.3226 -0.5716
10252SOL     OW42409   5.685   7.344   4.502  0.6910  0.3807  0.1526
10252SOL    HW142410   5.645   7.313   4.416 -2.7645  1.1905  1.4204
10252SOL    HW242411   5.665   7.278   4.574  0.9554  1.1995  0.9861
10253SOL     OW42412   9.022   8.210   3.038 -0.1633  0.0562 -0.2014
10253SOL    HW142413   9.006   8.169   2.948  0.5471  1.3932 -0.9567
10253SOL    HW242414   9.057   8.141   3.100  0.0416 -0.7195 -1.1587
10254SOL     OW42415   7.846   0.710   7.506  0.5298 -0.1168  0.2093
10254SOL    HW142416   7.803   0.781   7.563  0.6097 -0.2979  0.4972
10254SOL    HW242417   7.776   0.666   7.450  0.6306  0.8372 -0.6723
10255SOL     OW42418   2.322   2.672   3.258 -0.1764  0.0610  0.4194
10255SOL    HW142419   2.415   2.707   3.265  0.2033 -0.6727 -0.7052
10255SOL    HW242420   2.257   2.748   3.252  0.2241  0.5932  2.4826
10256SOL     OW42421   9.199   4.267   1.052 -0.5707 -0.2249 -0.0851
10256SOL    HW142422   9.221   4.307   1.141  1.5993 -2.0309  0.2676
10256SOL    HW242423   9.146   4.331   0.998  2.0189  2.7295  0.7654
10257SOL     OW42424   9.690   7.942   6.912 -0.0735  0.3514  0.1620
10257SOL    HW142425   9.683   7.843   6.900  1.5185  0.5003 -2.0423
10257SOL    HW242426   9.672   7.964   7.008 -0.1250 -2.0896  0.7535
10258SOL     OW42427   9.465   2.592   5.325  0.1015  0.1593  0.3709
10258SOL    HW142428   9.366   2.605   5.337 -0.0640  1.9117 -2.4011
10258SOL    HW242429   9.482   2.503   5.284 -0.3110 -0.2723  1.1338
10259SOL     OW42430   3.561   0.545   6.069 -0.1148 -0.7708 -0.3601
10259SOL    HW142431   3.611   0.555   5.983  0.2931  0.0033 -0.0386
10259SOL    HW242432   3.626   0.534   6.144 -0.3350  2.1768  0.3259
10260SOL     OW42433   5.935   7.931   2.388  0.2199 -0.8856  0.3359
10260SOL    HW142434   6.032   7.933   2.362 -0.3481 -0.9913 -1.8997
10260SOL    HW242435   5.881   7.891   2.314 -1.7608  0.8431  0.7810
10261SOL     OW42436   4.588   1.652   3.845 -0.0834 -0.1268  0.1643
10261SOL    HW142437   4.615   1.574   3.789 -0.0303 -0.1102  0.1671
10261SOL    HW242438   4.488   1.652   3.855 -0.1300  0.1029 -0.2715
10262SOL     OW42439   6.416   0.766   4.038 -0.2804  0.1089  0.3804
10262SOL    HW142440   6.400   0.705   3.961 -2.0220  0.3351  0.5453
10262SOL    HW242441   6.459   0.715   4.113 -0.4799 -0.5862  0.0240
10263SOL     OW42442   3.096   5.046   5.043  0.1966 -0.2092  0.2771
10263SOL    HW142443   3.080   4.977   4.973  0.4953 -0.6194  0.6164
10263SOL    HW242444   3.008   5.076   5.081  0.0068  0.3630 -0.6083
10264SOL     OW42445   0.617   3.777   5.020  0.0955  0.0184 -0.2473
10264SOL    HW142446   0.638   3.751   5.115 -0.4201  0.8019  0.0849
10264SOL    HW242447   0.691   3.746   4.960  1.1437  0.7822  0.6149
10265SOL     OW42448   9.022   0.839   2.222 -0.2398  0.2084 -0.3665
10265SOL    HW142449   9.118   0.843   2.195 -0.1137  0.4483  0.1033
10265SOL    HW242450   9.009   0.764   2.287  0.0730  1.5499  1.2719
10266SOL     OW42451   4.956   5.284   7.482 -0.4309  0.0139  0.0438
10266SOL    HW142452   4.920   5.338   7.558 -1.7662 -0.8754  0.0597
10266SOL    HW242453   5.055   5.272   7.493 -0.5921 -0.0025  1.5544
10267SOL     OW42454   4.690   2.820   0.833 -0.7841  0.5275 -0.5048
10267SOL    HW142455   4.613   2.807   0.771 -2.1923 -0.6163  1.4302
10267SOL    HW242456   4.667   2.892   0.899 -0.0189  0.4800 -0.1825
10268SOL     OW42457   3.358   7.572   1.085  0.2552 -0.3260  0.2092
10268SOL    HW142458   3.269   7.542   1.050 -0.0097 -0.0316  0.6259
10268SOL    HW242459   3.353   7.668   1.111  0.0190 -0.9356  2.4734
10269SOL     OW42460   7.863   8.742   1.983  0.3145 -0.2932  0.3252
10269SOL    HW142461   7.778   8.744   2.035  1.1751 -0.1842  1.7530
10269SOL    HW242462   7.850   8.688   1.900 -1.5329  0.8939 -0.1889
10270SOL     OW42463   7.438   2.428   5.171  0.3055  0.3932  0.5530
10270SOL    HW142464   7.486   2.340   5.179 -0.8105 -0.3547 -0.8122
10270SOL    HW242465   7.393   2.448   5.258 -1.0724 -1.3677  0.2774
10271SOL     OW42466   1.684   7.763   7.170 -0.1342  0.0638  0.4852
10271SOL    HW142467   1.645   7.854   7.163 -0.6655 -0.1629  0.4991
10271SOL    HW242468   1.771   7.761   7.120  0.0978  0.6926  0.8568
10272SOL     OW42469   0.823   3.063   4.481  0.2174 -0.6185  0.2885
10272SOL    HW142470   0.735   3.070   4.529 -0.4001  0.3121 -0.9685
10272SOL    HW242471   0.828   2.974   4.435  0.3783 -1.0910  1.2006
10273SOL     OW42472   0.438   4.693   3.352 -0.4007  0.5993 -0.2920
10273SOL    HW142473   0.343   4.723   3.346 -0.7870 -0.1081  1.6791
10273SOL    HW242474   0.441   4.603   3.396  1.2533  1.1187  0.7133
10274SOL     OW42475   6.347   8.960   5.891  0.3993 -0.1493 -0.2407
10274SOL    HW142476   6.334   9.041   5.834  0.5930 -0.2576 -0.4384
10274SOL    HW242477   6.324   8.878   5.839  0.4773 -0.2420 -0.1291
10275SOL     OW42478   7.248   3.650   2.783  0.3514  0.2047  0.4031
10275SOL    HW142479   7.278   3.744   2.767 -0.9642  0.8200  1.4373
10275SOL    HW242480   7.308   3.606   2.850  2.1428 -0.3513 -1.5264
10276SOL     OW42481   4.411   6.174   2.416  0.4671  0.2521 -0.3366
10276SOL    HW142482   4.326   6.201   2.373 -0.3263 -0.4840  0.7433
10276SOL    HW242483   4.452   6.252   2.464  0.2301  0.5135 -0.5619
10277SOL     OW42484   7.416   4.036   7.562 -0.3501  0.7600  0.1214
10277SOL    HW142485   7.336   4.052   7.620  0.1772  3.0850  0.2621
10277SOL    HW242486   7.480   4.112   7.572  0.6442  0.2466 -2.0349
10278SOL     OW42487   2.279   7.781   6.205 -0.0567  0.2796  0.5274
10278SOL    HW142488   2.286   7.878   6.224  1.0938  0.4526 -0.6793
10278SOL    HW242489   2.368   7.737   6.223 -0.6274 -0.5823  1.2742
10279SOL     OW42490   3.446   2.069   3.019 -0.1042  0.5005  0.0766
10279SOL    HW142491   3.457   1.987   2.962 -0.5105  0.6454 -0.2089
10279SOL    HW242492   3.533   2.090   3.064 -0.1832 -0.5158  0.7241
10280SOL     OW42493   0.211   5.770   6.153  0.1777  0.4116  0.3937
10280SOL    HW142494   0.198   5.793   6.250  1.1573 -0.1704  0.6719
10280SOL    HW242495   0.307   5.778   6.130  0.2098 -1.1678 -0.0847
10281SOL     OW42496   4.308   8.859   4.512 -0.0408  0.1338  0.4202
10281SOL    HW142497   4.312   8.927   4.585  0.1348  1.1393 -0.5041
10281SOL    HW242498   4.219   8.864   4.467 -1.2211 -2.4320  2.3731
10282SOL     OW42499   8.890   9.156   6.095  0.2053  0.0099 -0.6111
10282SOL    HW142500   8.937   9.158   6.183  1.8694  2.6975 -1.5250
10282SOL    HW242501   8.853   9.246   6.074 -2.6470 -1.2831 -1.4171
10283SOL     OW42502   9.783   9.528   0.277  0.3085 -0.0460  0.5130
10283SOL    HW142503   9.834   9.477   0.207 -0.4114  0.7132 -0.5867
10283SOL    HW242504   9.846   9.587   0.327  0.8800 -0.8193  0.7177
10284SOL     OW42505   5.455   3.467   8.113  0.2918 -0.2848  0.2637
10284SOL    HW142506   5.553   3.448   8.123  0.7702  1.7790 -0.2379
10284SOL    HW242507   5.429   3.538   8.179 -1.0674 -1.4757  1.0158
10285SOL     OW42508   0.599   5.813   5.588  0.1464  0.0543 -0.2558
10285SOL    HW142509   0.574   5.833   5.493 -0.4880 -0.5547 -0.2268
10285SOL    HW242510   0.516   5.810   5.644  0.2062 -2.4963 -0.2455
10286SOL     OW42511   9.778   4.405   5.644 -0.3369  0.2292  0.1676
10286SOL    HW142512   9.837   4.428   5.722  1.0689 -0.5284 -0.6476
10286SOL    HW242513   9.777   4.481   5.579 -2.7216  1.4850  1.6033
10287SOL     OW42514   3.226   0.429   3.910 -0.1272 -0.0753  0.4313
10287SOL    HW142515   3.226   0.422   4.010  0.1359  0.4696  0.4723
10287SOL    HW242516   3.301   0.375   3.873  0.3778  0.5095  0.5907
10288SOL     OW42517   1.007   1.268   3.104  0.3249  0.0188 -0.0472
10288SOL    HW142518   0.943   1.344   3.101  0.6256  0.3204  1.1420
10288SOL    HW242519   0.959   1.185   3.135  0.0838 -0.1944 -0.9796
10289SOL     OW42520   1.331   4.603   3.656  0.4111 -0.4822 -0.0262
10289SOL    HW142521   1.422   4.645   3.654 -0.1688  0.8383  0.6250
10289SOL    HW242522   1.309   4.567   3.565  1.2113  0.0107 -0.4215
10290SOL     OW42523   8.515   1.278   7.118 -0.2226  0.1339  0.0441
10290SOL    HW142524   8.454   1.274   7.198  0.2311  3.8658  0.6517
10290SOL    HW242525   8.602   1.234   7.141 -0.2155  0.8659  1.5081
10291SOL     OW42526   8.271   9.442   6.259 -0.4112 -0.0862  0.0850
10291SOL    HW142527   8.255   9.369   6.325  0.4676 -0.4343 -0.0785
10291SOL    HW242528   8.218   9.424   6.176 -0.9249 -0.0452  0.4054
10292SOL     OW42529   3.567   1.187   5.432 -0.3615 -0.0141 -0.8147
10292SOL    HW142530   3.625   1.248   5.378 -0.4182  0.6432 -0.1406
10292SOL    HW242531   3.534   1.113   5.374  2.4310 -1.3024 -0.8455
10293SOL     OW42532   3.136   9.195   0.987 -0.1248  0.1078 -0.1519
10293SOL    HW142533   3.233   9.199   1.013  0.2293 -2.0498 -1.0066
10293SOL    HW242534   3.079   9.215   1.066  1.0071  2.7146  0.0690
10294SOL     OW42535   9.127   8.173   5.387  0.4483 -0.0809 -0.3439
10294SOL    HW142536   9.098   8.217   5.472  0.0756  0.3139 -0.6752
10294SOL    HW242537   9.148   8.242   5.318  0.1831 -0.4116 -0.7630
10295SOL     OW42538   9.962   6.858   4.914  0.0614  0.1559 -0.5647
10295SOL    HW142539  10.028   6.867   4.988 -0.4250 -0.3038 -0.0707
10295SOL    HW242540   9.981   6.775   4.862 -1.7115 -1.4030  1.1948
10296SOL     OW42541   1.834   6.488   0.735 -0.0516 -0.0766  0.1000
10296SOL    HW142542   1.826   6.560   0.666 -1.4473  1.5249  1.8776
10296SOL    HW242543   1.758   6.424   0.725  1.2373 -1.3936 -1.5371
10297SOL     OW42544   2.441   0.392   2.481 -0.0888 -0.0089 -0.6681
10297SOL    HW142545   2.435   0.293   2.489 -0.1624  0.2376  3.1504
10297SOL    HW242546   2.350   0.431   2.471 -0.4975 -0.0782  2.3110
10298SOL     OW42547   9.002   7.873   0.609  0.3215 -0.1751 -0.0682
10298SOL    HW142548   9.039   7.845   0.521 -2.1041  0.0431 -1.1967
10298SOL    HW242549   8.940   7.950   0.597  0.7227  0.5020  1.9687
10299SOL     OW42550   0.168   4.805   3.340  0.1855 -0.0953 -0.1075
10299SOL    HW142551   0.151   4.897   3.375 -0.2109  0.5682 -1.9921
10299SOL    HW242552   0.126   4.738   3.402  1.2994  0.9218  1.7820
10300SOL     OW42553   0.814   2.928   2.459  0.2839  0.0971 -0.1501
10300SOL    HW142554   0.867   2.862   2.513 -0.6315 -0.2288  0.3661
10300SOL    HW242555   0.793   2.888   2.369 -0.1225 -0.2489  0.0973
10301SOL     OW42556   1.606   7.608   2.465 -0.5743  0.2457  0.0300
10301SOL    HW142557   1.587   7.511   2.481 -0.1444  0.0697 -0.5471
10301SOL    HW242558   1.557   7.662   2.534 -0.6145 -0.3895  0.5124
10302SOL     OW42559   2.419   9.048   1.746 -0.1254 -0.4232 -0.7008
10302SOL    HW142560   2.319   9.043   1.738 -0.0953 -2.5144  0.0963
10302SOL    HW242561   2.450   8.990   1.820  1.7984 -0.6905 -1.6827
10303SOL     OW42562   8.765   7.945   4.462  0.2975 -0.1250  0.6607
10303SOL    HW142563   8.807   7.918   4.549  1.1681 -0.9906 -0.0221
10303SOL    HW242564   8.774   8.044   4.450 -0.3622  0.0906  1.8313
10304SOL     OW42565   7.740   2.303   3.955  0.0381  0.4318 -0.6828
10304SOL    HW142566   7.657   2.312   3.900 -0.1594 -1.8948 -0.7879
10304SOL    HW242567   7.739   2.372   4.027 -2.0800  0.3221 -0.5693
10305SOL     OW42568   2.268   9.527   2.018 -0.4413 -0.2684 -0.3178
10305SOL    HW142569   2.265   9.619   2.057  0.0938 -0.2382 -0.3347
10305SOL    HW242570   2.336   9.525   1.945 -2.9025  0.2237 -2.7004
10306SOL     OW42571   1.896   6.668   5.419 -0.6622  0.1635 -0.0662
10306SOL    HW142572   1.914   6.570   5.431  1.0220  0.5376  0.7080
10306SOL    HW242573   1.919   6.716   5.503  2.0649  1.6635 -1.5773
10307SOL     OW42574   2.954   3.881   7.016  0.6366 -0.0683 -0.1869
10307SOL    HW142575   2.946   3.971   7.060  3.3312  0.4380 -0.6630
10307SOL    HW242576   2.890   3.817   7.059 -2.5319  2.4597 -0.9564
10308SOL     OW42577   3.141   7.363   2.410  0.0080 -0.8535 -0.2951
10308SOL    HW142578   3.224   7.398   2.453 -1.6006  1.8323  0.8076
10308SOL    HW242579   3.163   7.287   2.350  2.8880 -1.9134  2.0262
10309SOL     OW42580   1.139   9.348   4.234  0.1659 -0.6651 -0.4775
10309SOL    HW142581   1.060   9.409   4.222  0.0137 -0.7174  0.2669
10309SOL    HW242582   1.123   9.288   4.312  1.4359  0.0737  0.3714
10310SOL     OW42583   5.070   0.509   2.417  0.4298  0.4058  0.8559
10310SOL    HW142584   5.165   0.529   2.440 -0.1837  3.5068  0.8427
10310SOL    HW242585   5.022   0.477   2.499  0.8201  1.4262  1.4918
10311SOL     OW42586   5.510   9.613   5.859 -0.5161 -0.3657 -0.0521
10311SOL    HW142587   5.594   9.659   5.831 -0.7051 -0.6547 -1.1168
10311SOL    HW242588   5.438   9.633   5.793 -0.3031 -3.0923 -1.1842
10312SOL     OW42589   6.741   2.981   3.770 -0.1629  0.2553 -0.2503
10312SOL    HW142590   6.664   3.044   3.776 -0.6558 -0.2986 -0.6797
10312SOL    HW242591   6.805   3.012   3.699 -0.0775  0.6171 -0.0165
10313SOL     OW42592   8.894   8.553   5.183  0.4144  0.1083 -0.4393
10313SOL    HW142593   8.921   8.648   5.166 -2.3069  0.8499 -0.8572
10313SOL    HW242594   8.867   8.543   5.279  1.4214 -0.4433 -0.2078
10314SOL     OW42595   9.321   5.823   1.746 -0.5418 -0.4546 -0.5922
10314SOL    HW142596   9.280   5.908   1.780  2.0405  1.0311 -1.0106
10314SOL    HW242597   9.369   5.777   1.821 -1.0884 -1.0385 -0.5956
10315SOL     OW42598   7.385   3.010   1.558  0.1586 -0.0340  0.2342
10315SOL    HW142599   7.316   2.945   1.590  1.5159 -0.0441  3.3837
10315SOL    HW242600   7.342   3.077   1.497 -1.8524 -2.1214 -0.7215
10316SOL     OW42601   3.671   4.873   5.035  0.1113 -0.0977  1.4511
10316SOL    HW142602   3.623   4.840   5.116  0.4431 -2.3553  0.7897
10316SOL    HW242603   3.752   4.816   5.020 -0.7080 -0.6526 -1.2361
10317SOL     OW42604   0.929   8.921   3.044  0.3755  0.1701  0.3001
10317SOL    HW142605   0.878   9.000   3.008  0.3644 -0.4966 -1.1921
10317SOL    HW242606   0.913   8.842   2.985 -1.1524 -1.4777  2.8818
10318SOL     OW42607   8.254   6.653   6.895  0.2767  0.0818 -0.2862
10318SOL    HW142608   8.168   6.602   6.896 -0.4297  1.2836  0.3218
10318SOL    HW242609   8.277   6.682   6.987  0.7819  0.7061 -0.6025
10319SOL     OW42610   4.307   1.435   6.947  0.0486  0.0774 -0.1431
10319SOL    HW142611   4.328   1.521   6.900  0.6110 -0.6195 -1.1864
10319SOL    HW242612   4.306   1.450   7.046 -0.3341  1.3849 -0.3390
10320SOL     OW42613   3.951   0.358   8.145  0.1109 -0.3317  0.1054
10320SOL    HW142614   3.916   0.451   8.128  0.9021  0.1438  1.0250
10320SOL    HW242615   4.036   0.364   8.197  0.2333 -1.5799  0.0457
10321SOL     OW42616   6.095   1.154   6.530  0.5340  0.0505  0.2316
10321SOL    HW142617   6.120   1.160   6.434  0.3435 -0.4545  0.1530
10321SOL    HW242618   6.152   1.218   6.583 -0.4268  1.4727 -0.4140
10322SOL     OW42619   2.811   2.975   4.535  0.0212  0.1416  0.4317
10322SOL    HW142620   2.747   3.044   4.501  1.6542  1.9394  0.8518
10322SOL    HW242621   2.812   2.977   4.635 -2.9039 -3.3622  0.5952
10323SOL     OW42622   1.029   8.630   7.297  0.0173 -0.1735  0.0451
10323SOL    HW142623   1.095   8.679   7.241  0.3144 -1.3342 -0.6422
10323SOL    HW242624   1.022   8.673   7.387  1.6076  0.0431  0.0675
10324SOL     OW42625   7.989   4.495   7.521 -0.1089 -0.6170 -0.1491
10324SOL    HW142626   8.044   4.560   7.468 -0.0900  0.6586  1.4075
10324SOL    HW242627   7.902   4.478   7.473 -0.4408  1.1412 -0.2003
10325SOL     OW42628   2.526   9.138   7.659  0.0589  0.0437  0.2957
10325SOL    HW142629   2.487   9.217   7.612  1.0161 -0.0630 -0.7154
10325SOL    HW242630   2.582   9.169   7.736  1.3606  0.4414 -0.7831
10326SOL     OW42631   5.615   1.262   6.998  0.2134  0.2794  0.2678
10326SOL    HW142632   5.531   1.304   6.963 -0.2559 -0.5255  0.4392
10326SOL    HW242633   5.662   1.327   7.057 -0.1350  0.8375 -0.0627
10327SOL     OW42634   1.972   8.126   2.505 -0.4147  0.4739 -0.5001
10327SOL    HW142635   2.021   8.137   2.418  0.2533 -0.4567 -0.2494
10327SOL    HW242636   1.887   8.076   2.490  0.2941 -0.7739 -0.4405
10328SOL     OW42637   1.261   5.232   7.800  0.8272 -0.0259  0.2162
10328SOL    HW142638   1.299   5.301   7.861  0.5751 -0.9935  1.5099
10328SOL    HW242639   1.161   5.230   7.810  0.3491  2.7338 -3.4101
10329SOL     OW42640   7.621   9.974   4.833 -0.0375 -0.6390  0.6293
10329SOL    HW142641   7.590   9.887   4.870  0.5303 -0.4826  1.4854
10329SOL    HW242642   7.675   9.958   4.751 -1.6550 -0.9677 -0.3967
10330SOL     OW42643   2.327   7.210   0.750  0.2836 -0.0623 -0.1905
10330SOL    HW142644   2.397   7.280   0.761  1.5278 -1.2645 -0.3328
10330SOL    HW242645   2.367   7.120   0.766 -1.6197 -0.6601  1.3928
10331SOL     OW42646   7.528   4.909   2.492  0.3173  0.7045 -0.1315
10331SOL    HW142647   7.585   4.963   2.555  0.6429  1.0109 -0.6891
10331SOL    HW242648   7.469   4.971   2.440  1.1491  0.5739 -1.2392
10332SOL     OW42649   6.245   8.696   5.783 -1.2544 -0.4437 -0.5381
10332SOL    HW142650   6.250   8.687   5.882  0.1473  0.5552 -0.5032
10332SOL    HW242651   6.263   8.608   5.739  0.7106 -0.3314  0.0317
10333SOL     OW42652   2.570   5.615   6.512 -0.4277  0.0614 -0.1349
10333SOL    HW142653   2.551   5.627   6.414 -0.9738  1.2114  0.1113
10333SOL    HW242654   2.524   5.532   6.545 -0.6655 -0.0460 -0.7321
10334SOL     OW42655   5.414   0.433   0.595 -0.1281 -0.1359  0.4318
10334SOL    HW142656   5.390   0.350   0.645  1.1430 -0.6401  0.2198
10334SOL    HW242657   5.364   0.511   0.635 -0.3961 -0.7954  1.4117
10335SOL     OW42658   5.663   3.651   7.945  0.3258 -0.4986  0.2023
10335SOL    HW142659   5.751   3.650   7.898  0.7271  1.4702  0.8735
10335SOL    HW242660   5.650   3.565   7.995  2.6978 -0.0324  1.6657
10336SOL     OW42661   0.559   9.418   0.261  0.0975 -0.0158  0.6206
10336SOL    HW142662   0.507   9.419   0.175  0.7652  1.3255  0.2238
10336SOL    HW242663   0.624   9.342   0.260 -0.5323 -0.5549  0.3228
10337SOL     OW42664   4.782   2.414   7.374  0.0556  0.7382  0.0499
10337SOL    HW142665   4.803   2.344   7.441 -2.5680  1.4695  1.7520
10337SOL    HW242666   4.814   2.503   7.407 -0.8970  1.0409  0.1918
10338SOL     OW42667   5.082   4.660   7.846 -0.0943  0.2648  0.2859
10338SOL    HW142668   5.078   4.562   7.863  0.7671  0.5618  2.3918
10338SOL    HW242669   5.037   4.681   7.759 -0.2048 -1.9888 -0.2262
10339SOL     OW42670   5.174   3.322   5.952  0.4902  0.2465  0.1861
10339SOL    HW142671   5.114   3.341   5.874  2.1768  0.0420 -1.1859
10339SOL    HW242672   5.267   3.306   5.920  1.2141  0.1118  2.2497
10340SOL     OW42673   7.900   8.524   4.407  0.1736 -0.3405  0.1522
10340SOL    HW142674   7.981   8.575   4.378 -0.8389  1.4764  0.4369
10340SOL    HW242675   7.819   8.564   4.365 -0.6901 -1.5422  0.6362
10341SOL     OW42676   1.814   9.248   2.919 -0.5092  0.3694 -0.1638
10341SOL    HW142677   1.778   9.286   2.833  0.2447  2.5232  0.4290
10341SOL    HW242678   1.791   9.310   2.994  1.5451  0.0993  0.7099
10342SOL     OW42679   0.594   3.412   5.259  0.4728 -0.2422  0.3186
10342SOL    HW142680   0.548   3.329   5.290  0.4811 -0.7269 -0.9354
10342SOL    HW242681   0.626   3.399   5.165 -0.0215  1.3809 -0.0880
10343SOL     OW42682   0.344   6.403   2.065 -0.1248 -0.1306 -0.1843
10343SOL    HW142683   0.353   6.433   1.970  0.6244 -1.2585 -0.4830
10343SOL    HW242684   0.249   6.412   2.094 -0.1696  1.1562 -0.7208
10344SOL     OW42685   9.268   7.457   0.269 -0.3275  0.4519 -0.1320
10344SOL    HW142686   9.287   7.466   0.366 -1.2759 -1.3194  0.2429
10344SOL    HW242687   9.349   7.481   0.216  0.1083  1.7029  1.0600
10345SOL     OW42688   0.116   1.496   5.561 -0.2976  0.4063  0.8896
10345SOL    HW142689   0.070   1.569   5.611 -0.8636  2.1704 -2.1121
10345SOL    HW242690   0.049   1.426   5.536 -0.7002  1.2229 -0.3669
10346SOL     OW42691   1.595   9.688   2.031 -0.3726  0.0552 -0.5034
10346SOL    HW142692   1.583   9.591   2.055 -0.5730 -0.1593 -1.4277
10346SOL    HW242693   1.628   9.739   2.110  1.4762 -1.1075 -0.4989
10347SOL     OW42694   7.915   3.215   5.173 -0.1133  0.4727  0.3372
10347SOL    HW142695   7.865   3.137   5.213 -0.5909  0.7300  0.2459
10347SOL    HW242696   8.003   3.183   5.138  0.6419  0.3822  2.2660
10348SOL     OW42697   3.898   1.631   7.984  0.0937  0.6638  0.5525
10348SOL    HW142698   3.869   1.537   8.001 -0.1895  0.7795  0.7131
10348SOL    HW242699   3.981   1.651   8.035  0.2508  0.4476  0.3835
10349SOL     OW42700   5.064   7.686   3.907  0.3555  0.1415  0.4525
10349SOL    HW142701   5.118   7.668   3.826 -0.4159  0.9174 -0.2515
10349SOL    HW242702   5.123   7.722   3.980  0.7445  1.2558 -0.3977
10350SOL     OW42703   3.753   1.446   0.361 -0.2300 -0.0821 -0.1773
10350SOL    HW142704   3.692   1.491   0.295 -0.3052  0.7934  0.4818
10350SOL    HW242705   3.718   1.461   0.453  0.5785 -0.2271  0.1508
10351SOL     OW42706   8.987   1.420   3.568  0.0126  0.4732  0.3438
10351SOL    HW142707   8.995   1.514   3.601 -0.1709  1.4301 -2.2221
10351SOL    HW242708   8.892   1.403   3.540  0.2984 -0.0609 -0.3133
10352SOL     OW42709   5.238   5.763   1.310  0.0732  0.1701 -0.1168
10352SOL    HW142710   5.230   5.703   1.231  3.0674  0.1049 -0.4216
10352SOL    HW242711   5.239   5.858   1.280  2.2784  0.1160 -0.3120
10353SOL     OW42712   2.684   1.623   5.274  0.0062  0.5705  0.0273
10353SOL    HW142713   2.656   1.542   5.327 -4.5947  2.2374  0.3709
10353SOL    HW242714   2.762   1.667   5.319  0.2240 -1.5956  1.8768
10354SOL     OW42715   8.340   3.570   6.719  0.4565 -0.0324  0.2311
10354SOL    HW142716   8.371   3.629   6.793 -1.7744 -0.5472  1.6232
10354SOL    HW242717   8.385   3.481   6.727  1.3534  0.4020  0.0675
10355SOL     OW42718   0.798   4.004   4.577  0.2286 -0.6049 -0.1436
10355SOL    HW142719   0.891   4.033   4.555  0.0511  0.1724  0.1288
10355SOL    HW242720   0.767   4.051   4.659 -1.4411  1.2325 -1.7905
10356SOL     OW42721   4.172   6.539   1.967 -0.1626  0.2806 -0.0551
10356SOL    HW142722   4.157   6.442   1.946  0.5982  0.6153 -2.1916
10356SOL    HW242723   4.254   6.571   1.920 -0.0784  1.8210  1.1196
10357SOL     OW42724   4.154   6.858   2.992  0.4351 -0.2597 -0.2483
10357SOL    HW142725   4.130   6.852   2.895  0.3392  1.3404 -0.3318
10357SOL    HW242726   4.155   6.766   3.032  1.4437 -1.0088 -1.9878
10358SOL     OW42727   3.211   3.625   4.532  0.0861 -0.2205 -0.2875
10358SOL    HW142728   3.135   3.667   4.581  1.8292  2.0736  0.5168
10358SOL    HW242729   3.205   3.648   4.435 -0.5934 -0.6036 -0.3440
10359SOL     OW42730   2.485   7.947   2.715 -0.5944 -0.0211  0.7425
10359SOL    HW142731   2.483   8.044   2.690 -2.3681 -0.7921 -2.3933
10359SOL    HW242732   2.551   7.900   2.656  0.7474 -0.6334  2.7055
10360SOL     OW42733   8.353   2.292   5.226 -0.2215 -0.5020 -0.4525
10360SOL    HW142734   8.265   2.339   5.239  0.8690  1.5797 -0.4617
10360SOL    HW242735   8.390   2.266   5.315 -1.2249 -2.1532 -0.4894
10361SOL     OW42736   2.108   8.576   1.428  0.4845  0.1354  0.1997
10361SOL    HW142737   2.198   8.541   1.399  0.3135 -1.6496  1.6866
10361SOL    HW242738   2.098   8.671   1.400  2.0788 -0.2190 -1.6505
10362SOL     OW42739   0.683   6.807   1.659  0.3660  0.0789  0.1377
10362SOL    HW142740   0.644   6.742   1.725  1.4077 -0.3119  0.3842
10362SOL    HW242741   0.610   6.858   1.615 -0.4432 -0.8915  0.3359
10363SOL     OW42742   7.280   1.925   1.983 -0.2151  0.1253 -0.1639
10363SOL    HW142743   7.273   1.882   1.893 -2.0094  1.8249 -0.8756
10363SOL    HW242744   7.232   1.869   2.051 -0.8473 -0.0049 -0.7150
10364SOL     OW42745   1.291   0.895   6.709 -0.2445 -0.2366  0.7236
10364SOL    HW142746   1.204   0.893   6.758 -1.7244 -1.4611 -1.8764
10364SOL    HW242747   1.299   0.814   6.651  1.6931  0.8819 -0.6301
10365SOL     OW42748   0.562   4.060   1.156  0.2212  0.1398 -0.1854
10365SOL    HW142749   0.495   4.093   1.089  0.4218  1.0277  0.0490
10365SOL    HW242750   0.572   3.961   1.146  1.7805  0.5163 -2.8942
10366SOL     OW42751   9.900   4.044   8.089  0.4397 -0.6510 -0.1586
10366SOL    HW142752   9.990   4.003   8.101 -0.2095 -1.8159  0.9276
10366SOL    HW242753   9.835   3.973   8.059 -0.1416  0.1407 -0.7909
10367SOL     OW42754   9.103   6.206   4.783  0.1525 -0.4341 -0.5912
10367SOL    HW142755   9.181   6.219   4.722 -0.7396  1.6603 -1.3182
10367SOL    HW242756   9.133   6.217   4.878  0.6205  1.0891 -0.8950
10368SOL     OW42757   9.687   3.866   4.416  0.2111  0.5445  0.5629
10368SOL    HW142758   9.679   3.772   4.449  0.8760 -0.0281 -0.8168
10368SOL    HW242759   9.715   3.864   4.320 -1.8901  2.1378 -0.0970
10369SOL     OW42760   8.577   5.621   6.378  0.3176 -0.0016 -0.0301
10369SOL    HW142761   8.632   5.624   6.295  0.1823  0.4725 -0.1042
10369SOL    HW242762   8.544   5.528   6.393  0.4200 -0.1072 -0.4522
10370SOL     OW42763   2.503   9.231   3.256 -0.3686 -0.1405  0.1581
10370SOL    HW142764   2.488   9.149   3.200 -0.0047 -0.7376  0.9353
10370SOL    HW242765   2.416   9.280   3.267 -0.0767  1.0851 -2.6333
10371SOL     OW42766   7.704   0.577   4.791  0.2243  0.2981  0.4146
10371SOL    HW142767   7.742   0.486   4.802  0.1146  0.2004 -0.0383
10371SOL    HW242768   7.610   0.579   4.827 -1.4654 -0.9486 -3.6355
10372SOL     OW42769   4.658   1.127   5.348  0.2419  0.1944  0.4949
10372SOL    HW142770   4.674   1.176   5.433 -2.7208  1.7863  0.1850
10372SOL    HW242771   4.592   1.053   5.363  1.1362 -0.7330 -0.0368
10373SOL     OW42772   6.460   0.017   5.835  0.1126  0.1912 -0.1868
10373SOL    HW142773   6.491   0.059   5.750 -0.1601  2.0498  0.6102
10373SOL    HW242774   6.360   0.021   5.839  0.1905  1.6023  0.9363
10374SOL     OW42775   7.462   1.460   2.400  0.7016 -0.2431 -0.0338
10374SOL    HW142776   7.559   1.474   2.422  0.6739  1.5847 -0.9814
10374SOL    HW242777   7.438   1.364   2.415  2.1116 -0.2717  2.2815
10375SOL     OW42778   5.990   5.313   0.344 -0.0445  0.6749  0.2297
10375SOL    HW142779   6.070   5.283   0.291  0.7471  1.2778  1.0723
10375SOL    HW242780   6.004   5.290   0.440 -1.6184 -0.7106  0.1555
10376SOL     OW42781   0.964   9.909   6.045 -0.0560 -0.2586  0.3041
10376SOL    HW142782   0.998   9.987   6.098 -1.6983  2.1758 -2.0723
10376SOL    HW242783   1.039   9.870   5.991  0.9031 -0.6900  1.9456
10377SOL     OW42784   0.017   1.291   1.550  0.1394 -0.9372 -0.2502
10377SOL    HW142785   0.072   1.255   1.476  2.7906  1.4227  0.4511
10377SOL    HW242786  -0.036   1.370   1.517  1.4671  0.2339  0.3381
10378SOL     OW42787   2.026   4.650   1.175  0.0968 -0.3197 -0.1510
10378SOL    HW142788   2.010   4.709   1.096  1.1072  1.0681  0.6665
10378SOL    HW242789   1.977   4.563   1.162 -2.6834  1.2493 -0.6989
10379SOL     OW42790   2.500   2.995   6.705  0.7774 -0.1033 -0.8090
10379SOL    HW142791   2.558   2.915   6.721  0.6608 -0.0149  0.0589
10379SOL    HW242792   2.436   3.006   6.781  0.4252  0.5016 -1.1856
10380SOL     OW42793   1.057   1.508   1.972  0.1291  0.0266  0.0678
10380SOL    HW142794   1.135   1.470   1.923 -0.0724  1.6497 -1.5417
10380SOL    HW242795   0.996   1.434   1.999  0.7889 -0.9903 -1.1660
10381SOL     OW42796   4.561   0.648   4.969 -0.3269 -0.4703 -0.5020
10381SOL    HW142797   4.638   0.712   4.962 -0.6125 -0.1204 -0.4364
10381SOL    HW242798   4.504   0.654   4.887 -0.0742 -1.0079 -0.7254
10382SOL     OW42799   9.291   7.658   8.103  0.5711 -0.4487  0.5508
10382SOL    HW142800   9.274   7.756   8.096  1.3241 -0.4782 -1.8297
10382SOL    HW242801   9.282   7.615   8.013  0.6260 -2.5123  1.4936
10383SOL     OW42802   0.069   0.933   6.378  0.3637  0.1073  0.2228
10383SOL    HW142803   0.055   1.011   6.439  1.1609  1.1254 -0.8818
10383SOL    HW242804  -0.019   0.905   6.340 -0.0487 -0.1151  1.3230
10384SOL     OW42805   9.272   5.209   7.498 -0.1974  0.1205  0.4564
10384SOL    HW142806   9.310   5.277   7.435  0.9882 -0.3100  0.7056
10384SOL    HW242807   9.281   5.118   7.457  0.6054 -0.1644  1.2526
10385SOL     OW42808   2.791   1.998   1.985  0.0506  0.4406  0.3903
10385SOL    HW142809   2.771   1.938   2.063  0.8743 -1.0762 -0.5492
10385SOL    HW242810   2.880   2.040   1.998  0.3776 -0.1453  0.0777
10386SOL     OW42811   2.735   8.989   6.415  0.0779 -0.1371  0.5405
10386SOL    HW142812   2.783   8.998   6.327 -1.1841 -1.8059 -0.3402
10386SOL    HW242813   2.765   8.906   6.461 -0.1507  0.1185  1.1553
10387SOL     OW42814   0.648   4.522   5.777  0.2405  0.5498 -0.3905
10387SOL    HW142815   0.550   4.504   5.790  0.5731 -1.1894 -0.1186
10387SOL    HW242816   0.673   4.506   5.681  0.7620 -1.6565  0.0856
10388SOL     OW42817   4.695   8.857   4.902  0.0980 -0.4235 -0.5861
10388SOL    HW142818   4.719   8.936   4.846 -1.1130  1.6877  1.7688
10388SOL    HW242819   4.751   8.779   4.875 -1.3542  0.1234 -5.5783
10389SOL     OW42820   3.343   2.488   2.009 -0.2009  0.1350  0.0500
10389SOL    HW142821   3.424   2.444   2.050  0.4009  1.2992  0.1331
10389SOL    HW242822   3.265   2.475   2.070  0.1215 -0.2606  0.3897
10390SOL     OW42823   0.649   5.475   2.591 -0.1513 -0.2889  0.2089
10390SOL    HW142824   0.640   5.396   2.530 -0.6917 -1.0829  1.3107
10390SOL    HW242825   0.563   5.490   2.639 -0.3560  1.5875 -0.7280
10391SOL     OW42826   3.997   7.058   0.928  0.1126 -0.0787  0.2303
10391SOL    HW142827   3.941   7.022   0.853 -0.0940 -1.0717  0.8632
10391SOL    HW242828   3.992   6.997   1.006 -2.8029  2.8814  2.4926
10392SOL     OW42829   4.151   3.952   3.400 -0.7460  0.0396 -0.2130
10392SOL    HW142830   4.235   3.912   3.437  0.1151  1.9657 -0.0567
10392SOL    HW242831   4.090   3.976   3.475 -0.6775  0.2896 -0.2377
10393SOL     OW42832   8.575   1.518   6.967  0.2133  0.0349 -0.4026
10393SOL    HW142833   8.608   1.492   6.876  0.1683 -1.4921  0.0080
10393SOL    HW242834   8.544   1.437   7.016  0.5148  0.8002  1.0930
10394SOL     OW42835   3.994   4.039   3.624 -0.3175 -0.2839 -0.2100
10394SOL    HW142836   4.004   4.032   3.723  1.3673 -1.3216 -0.4312
10394SOL    HW242837   3.993   4.135   3.597  0.1425 -0.0098  0.7360
10395SOL     OW42838   4.446   3.113   3.971  0.3260 -0.0128 -0.1484
10395SOL    HW142839   4.509   3.070   3.906  0.9275 -0.3938  0.6803
10395SOL    HW242840   4.456   3.070   4.061  1.8403  2.6796  1.0190
10396SOL     OW42841   3.286   6.994   6.962  0.3060 -0.1381  0.1782
10396SOL    HW142842   3.342   7.072   6.933 -0.0391  0.4856  1.1336
10396SOL    HW242843   3.250   7.012   7.054 -1.7383 -0.3806 -0.5558
10397SOL     OW42844   7.792   2.657   7.994 -0.1850 -0.0870 -0.0008
10397SOL    HW142845   7.813   2.750   7.962  2.2844 -0.8083 -0.5472
10397SOL    HW242846   7.783   2.596   7.916 -3.3181 -0.0654  0.2700
10398SOL     OW42847   4.357   0.891   1.463  0.0084  0.4662 -0.1300
10398SOL    HW142848   4.404   0.806   1.486 -2.8812 -1.6672 -1.8155
10398SOL    HW242849   4.395   0.928   1.378  0.7725  0.4506  0.2063
10399SOL     OW42850   0.112   5.392   6.445  0.0474 -0.2720 -0.3334
10399SOL    HW142851   0.037   5.326   6.447  0.6748 -0.9854 -0.0284
10399SOL    HW242852   0.184   5.363   6.509 -0.0216  1.1248  0.3910
10400SOL     OW42853   5.342   4.252   1.409  0.0128  0.0818 -0.6071
10400SOL    HW142854   5.405   4.281   1.481  1.5602  1.5100 -2.4992
10400SOL    HW242855   5.321   4.329   1.350 -2.2869 -0.7656 -0.9588
10401SOL     OW42856   7.485   1.965   3.919  0.2753 -0.0433  0.0102
10401SOL    HW142857   7.569   2.001   3.959 -0.2030  0.2617  0.7417
10401SOL    HW242858   7.432   2.040   3.878 -1.2458  0.2911  2.4832
10402SOL     OW42859   1.385   9.985   4.782  0.6073  0.4892 -0.1774
10402SOL    HW142860   1.411   9.940   4.696 -2.3321 -0.5236 -0.6051
10402SOL    HW242861   1.338  10.071   4.762 -2.0057 -0.7705  0.2478
10403SOL     OW42862   3.261   1.286   1.574 -0.2240 -1.0309  0.6133
10403SOL    HW142863   3.273   1.357   1.643 -2.8552  1.0211 -0.9516
10403SOL    HW242864   3.322   1.306   1.496  0.4692 -1.5986  1.0082
10404SOL     OW42865   8.974   2.075   8.164  0.0348  0.2028 -0.2142
10404SOL    HW142866   8.982   2.173   8.186  0.5817  0.4377 -1.4392
10404SOL    HW242867   9.054   2.046   8.112  0.2484 -1.0873  0.7857
10405SOL     OW42868   0.489   3.479   4.183  0.1273 -0.1533 -0.3661
10405SOL    HW142869   0.535   3.537   4.116  1.5212 -1.6126 -0.6861
10405SOL    HW242870   0.417   3.532   4.228  1.0056  1.6585 -1.0307
10406SOL     OW42871   0.785   5.597   3.356  0.2170 -0.4343 -0.0004
10406SOL    HW142872   0.729   5.644   3.424 -0.5914  0.5183 -1.3063
10406SOL    HW242873   0.877   5.584   3.392  0.0972  1.0222  0.8712
10407SOL     OW42874   0.266   8.463   4.687 -0.4067 -0.1551 -0.2520
10407SOL    HW142875   0.347   8.460   4.745  0.1742 -0.8721 -1.0811
10407SOL    HW242876   0.266   8.549   4.635 -0.6476  0.2438  0.4057
10408SOL     OW42877   9.972   6.081   8.078 -0.2256 -0.3099 -0.3355
10408SOL    HW142878   9.909   6.116   8.147 -0.2439  0.8237 -0.9205
10408SOL    HW242879  10.064   6.118   8.093 -0.3096  0.2426 -1.1316
10409SOL     OW42880   4.835   9.174   4.209 -0.4113  0.3470  0.0323
10409SOL    HW142881   4.872   9.256   4.253 -0.1703 -0.4260  1.2838
10409SOL    HW242882   4.738   9.164   4.231 -0.5800  0.5846 -0.5754
10410SOL     OW42883   9.375   2.783   0.488 -0.6424 -0.0028 -0.2944
10410SOL    HW142884   9.395   2.688   0.514 -0.1967 -0.2277 -1.4007
10410SOL    HW242885   9.401   2.844   0.562  0.4411 -0.6399 -0.1265
10411SOL     OW42886   4.530   8.370   3.967  0.2429 -0.0355  0.0300
10411SOL    HW142887   4.625   8.357   3.995  0.0431  0.6156  1.0225
10411SOL    HW242888   4.485   8.435   4.028 -0.6678  0.1532 -0.8145
10412SOL     OW42889   4.345   0.057   6.215 -0.4755  0.3742  0.1242
10412SOL    HW142890   4.320  -0.031   6.174 -1.5918 -0.0055  1.5787
10412SOL    HW242891   4.424   0.044   6.275  0.0847  0.5883 -0.5724
10413SOL     OW42892   2.840   2.309   3.596 -0.1023  0.1618 -0.0136
10413SOL    HW142893   2.821   2.296   3.693  1.2505 -0.1905  0.2162
10413SOL    HW242894   2.839   2.220   3.550  0.1100  0.2371 -0.1632
10414SOL     OW42895   1.938   4.565   3.171  0.2150  0.3795  0.4052
10414SOL    HW142896   1.855   4.620   3.174  0.2837  0.4260  1.8511
10414SOL    HW242897   1.991   4.580   3.255  2.3678  1.3873 -1.1161
10415SOL     OW42898   1.664   0.792   0.877  0.9601  0.0776 -0.1660
10415SOL    HW142899   1.726   0.714   0.880  1.9117  0.7417 -1.8087
10415SOL    HW242900   1.692   0.861   0.943  1.1543 -0.2086  0.0483
10416SOL     OW42901   4.982   9.274   2.844 -0.0232 -0.3914 -0.6156
10416SOL    HW142902   5.023   9.345   2.787 -0.2043 -0.7335 -1.1733
10416SOL    HW242903   4.891   9.303   2.874  0.7273  0.5036  0.8819
10417SOL     OW42904   9.218   1.538   2.680  0.5296 -0.1425 -0.1259
10417SOL    HW142905   9.233   1.475   2.756  0.6989 -1.3991 -1.1697
10417SOL    HW242906   9.267   1.505   2.599  1.3021  1.7867 -0.4792
10418SOL     OW42907   8.660   4.274   4.738  0.0362  0.3217  0.3555
10418SOL    HW142908   8.663   4.174   4.745 -1.2737  0.2976  0.6942
10418SOL    HW242909   8.712   4.314   4.813 -1.9188 -0.0924  1.9854
10419SOL     OW42910   9.318   1.329   0.351 -0.9211  0.6997 -1.0049
10419SOL    HW142911   9.288   1.382   0.430 -2.6959 -0.6705 -0.7285
10419SOL    HW242912   9.391   1.266   0.379 -0.5290  1.2381 -0.7998
10420SOL     OW42913   8.845   6.134   4.399 -0.0318 -0.1074  0.3842
10420SOL    HW142914   8.812   6.214   4.450  0.1296 -0.5181  1.1288
10420SOL    HW242915   8.933   6.105   4.435  0.3137 -0.1138 -0.4419
10421SOL     OW42916   2.091   4.525   0.900 -0.3521 -0.3846 -0.6608
10421SOL    HW142917   2.173   4.520   0.958 -0.8069  0.0199  0.0204
10421SOL    HW242918   2.098   4.457   0.827  0.8206 -0.0419 -0.8944
10422SOL     OW42919   4.288   7.455   1.084 -0.2555 -0.9002  0.0338
10422SOL    HW142920   4.258   7.408   1.001 -0.3157 -0.6140 -0.1090
10422SOL    HW242921   4.243   7.415   1.163 -0.5248 -0.8963 -0.1166
10423SOL     OW42922   5.516   0.092   3.023 -0.1689  0.1679  0.1498
10423SOL    HW142923   5.512   0.160   3.096 -0.8923 -0.1634  0.4175
10423SOL    HW242924   5.507   0.139   2.935  1.3741  0.6387  0.2295
10424SOL     OW42925   8.143   2.518   5.717 -0.5509  0.2780 -0.1507
10424SOL    HW142926   8.124   2.444   5.653  1.4649 -0.1741 -0.2828
10424SOL    HW242927   8.058   2.564   5.741 -1.3336  0.7072 -3.4372
10425SOL     OW42928   6.920   7.079   4.674  0.1383  0.2200  0.0960
10425SOL    HW142929   6.865   7.151   4.633  2.7537  0.8290 -2.5606
10425SOL    HW242930   7.001   7.119   4.717  0.8046 -0.9866 -0.0040
10426SOL     OW42931   1.886   0.611   7.141  0.2503 -0.8233 -0.3687
10426SOL    HW142932   1.920   0.611   7.047  2.6127  1.3941  0.4281
10426SOL    HW242933   1.941   0.549   7.196 -1.5724 -2.6636 -0.5115
10427SOL     OW42934   5.023   3.357   5.728  0.1009  0.1599  0.0191
10427SOL    HW142935   4.966   3.433   5.758  0.9138  0.8886 -0.2448
10427SOL    HW242936   5.047   3.368   5.632 -0.1744 -0.6944 -0.1571
10428SOL     OW42937   0.361   7.430   4.567  0.7073 -0.0961 -0.3440
10428SOL    HW142938   0.415   7.375   4.630  2.6312  2.0527 -0.0546
10428SOL    HW242939   0.341   7.377   4.484  1.4780 -1.6105  0.4266
10429SOL     OW42940   7.725   7.285   3.935  0.5254  0.2922 -0.2221
10429SOL    HW142941   7.670   7.304   4.017  1.6142 -1.5134  0.9532
10429SOL    HW242942   7.669   7.234   3.869  0.4120 -0.5126  0.4828
10430SOL     OW42943   4.739   7.700   4.254  0.3533 -0.2432 -0.3775
10430SOL    HW142944   4.709   7.646   4.175 -0.1432 -0.7452  0.1569
10430SOL    HW242945   4.834   7.729   4.240 -0.1482  0.7967 -1.7815
10431SOL     OW42946   4.444   4.403   7.643  0.4428 -0.1602 -0.0626
10431SOL    HW142947   4.477   4.401   7.549  0.5340  0.0449 -0.0362
10431SOL    HW242948   4.477   4.322   7.692 -0.4850 -0.8113 -0.4978
10432SOL     OW42949   9.396   7.402   7.337  0.2762 -0.0023 -0.0205
10432SOL    HW142950   9.339   7.346   7.397 -0.1731 -0.0927 -0.5263
10432SOL    HW242951   9.492   7.393   7.363  0.2205 -1.0923 -0.1757
10433SOL     OW42952   0.385   8.379   5.685  0.8258  0.3490 -0.2085
10433SOL    HW142953   0.412   8.374   5.589  2.0060 -0.7142  0.1611
10433SOL    HW242954   0.400   8.290   5.729 -2.7421 -0.1121  0.1949
10434SOL     OW42955   4.716   9.062   1.831  0.1477 -0.0499 -0.0435
10434SOL    HW142956   4.709   8.984   1.768  0.0065 -0.4551  0.4650
10434SOL    HW242957   4.744   9.143   1.780  0.7191 -0.5285 -0.5161
10435SOL     OW42958   8.073   0.756   5.177 -0.3191 -0.5328 -0.0282
10435SOL    HW142959   7.989   0.759   5.123 -0.1951  0.3990 -0.1826
10435SOL    HW242960   8.152   0.747   5.117 -0.0897  1.8082 -0.1010
10436SOL     OW42961   2.977   1.251   4.940  0.0801  0.1733  0.0609
10436SOL    HW142962   2.911   1.269   5.014 -0.0825 -0.4317  0.0658
10436SOL    HW242963   3.066   1.230   4.980  0.1745  0.5661  0.0635
10437SOL     OW42964   4.047   6.286   3.524 -0.3772 -0.2584  0.4715
10437SOL    HW142965   4.066   6.188   3.511 -0.6338 -0.5113  1.9231
10437SOL    HW242966   4.068   6.335   3.440  1.8995 -1.2268  0.4502
10438SOL     OW42967   7.454   1.690   0.488  0.5207 -0.1896 -0.6024
10438SOL    HW142968   7.543   1.721   0.454 -0.3794  1.0840 -1.8488
10438SOL    HW242969   7.457   1.683   0.588  2.1095 -0.4695 -0.6618
10439SOL     OW42970   9.367   7.276   2.199  0.2741  0.4994  0.1775
10439SOL    HW142971   9.298   7.261   2.127 -0.2396 -1.0444  0.9557
10439SOL    HW242972   9.457   7.289   2.157 -0.3495  1.7371 -0.8237
10440SOL     OW42973   2.443   8.980   3.100 -0.2715 -0.0854 -0.5786
10440SOL    HW142974   2.440   9.042   3.022  1.7363  0.3650 -0.3123
10440SOL    HW242975   2.446   8.885   3.067  0.0198  0.0861 -1.0452
10441SOL     OW42976   9.152   3.105   7.953  0.0348  0.2302  0.1809
10441SOL    HW142977   9.120   3.010   7.955  3.2602 -0.8895  2.1061
10441SOL    HW242978   9.239   3.110   7.904 -1.6024  2.7739 -2.6629
10442SOL     OW42979   1.485   2.375   3.611 -0.6477 -0.9129 -0.1977
10442SOL    HW142980   1.397   2.366   3.657 -0.5337 -1.3769 -0.0727
10442SOL    HW242981   1.505   2.472   3.596 -0.2085 -0.7034  1.6363
10443SOL     OW42982   8.951   1.650   3.740 -0.3067  0.1674 -0.1153
10443SOL    HW142983   8.896   1.701   3.674 -1.8645 -2.0391 -0.5495
10443SOL    HW242984   8.891   1.604   3.805  1.1144 -0.2395  0.9351
10444SOL     OW42985   3.131   0.691   1.984 -0.0062  0.2096  0.3067
10444SOL    HW142986   3.101   0.770   2.038  0.2356  1.2634 -1.0699
10444SOL    HW242987   3.108   0.706   1.888 -0.1503 -1.5089  0.0509
10445SOL     OW42988   1.618   8.925   1.296  0.0924 -0.5655 -0.1264
10445SOL    HW142989   1.600   8.996   1.365 -2.2203 -0.5202 -0.7139
10445SOL    HW242990   1.610   8.835   1.338  1.5650 -0.4997  0.2975
10446SOL     OW42991   4.678   2.206   0.331 -0.2136 -0.1793 -0.5430
10446SOL    HW142992   4.664   2.254   0.244  0.6345 -1.2010 -1.2625
10446SOL    HW242993   4.765   2.235   0.371 -0.2320 -0.2771 -0.4322
10447SOL     OW42994   2.648   2.344   0.024 -0.2300  0.4041  0.2743
10447SOL    HW142995   2.640   2.332  -0.075  1.8326  0.2694  0.1029
10447SOL    HW242996   2.557   2.358   0.063 -1.0545  0.6360 -1.6555
10448SOL     OW42997   7.203   7.029   4.337 -0.6270 -0.0487 -0.6529
10448SOL    HW142998   7.104   7.019   4.334 -0.7096  0.8053 -0.9363
10448SOL    HW242999   7.245   6.968   4.270 -0.9514 -0.5259 -0.4201
10449SOL     OW43000   1.721   6.210   5.276 -0.0271 -0.3856 -0.0564
10449SOL    HW143001   1.771   6.125   5.295  1.5921  0.9124  1.6874
10449SOL    HW243002   1.771   6.262   5.207 -0.2859 -0.1897 -0.0948
10450SOL     OW43003   8.008   0.540   7.225  0.2234  0.2561 -0.0212
10450SOL    HW143004   8.055   0.474   7.283  0.8369 -0.0584 -0.8732
10450SOL    HW243005   7.920   0.564   7.267  0.0746 -0.9577  0.3908
10451SOL     OW43006   6.962   4.382   7.021 -0.2419  0.1054  0.4438
10451SOL    HW143007   6.987   4.296   7.065  0.0895  0.9292  1.9067
10451SOL    HW243008   7.033   4.407   6.955  0.3994 -0.0232  1.0679
10452SOL     OW43009   8.810   5.159   7.775 -0.1238 -0.6400 -0.2636
10452SOL    HW143010   8.899   5.138   7.734  0.8347  0.0462  1.4114
10452SOL    HW243011   8.809   5.254   7.807 -0.9012 -1.0981  1.1201
10453SOL     OW43012   5.187   2.758   0.776  0.3762  0.8470  0.3473
10453SOL    HW143013   5.209   2.856   0.775  0.2385  0.8753 -1.1126
10453SOL    HW243014   5.138   2.734   0.693 -0.5044 -0.2730  1.1693
10454SOL     OW43015   1.376   9.831   1.713  0.5577  0.0182  0.2576
10454SOL    HW143016   1.434   9.842   1.793  2.3000  1.5531 -1.1470
10454SOL    HW243017   1.418   9.879   1.635 -2.1772  0.4223 -1.0216
10455SOL     OW43018   2.715   4.795   7.372  0.2871 -0.0033  0.0213
10455SOL    HW143019   2.738   4.700   7.391 -1.7358 -0.6551 -0.6658
10455SOL    HW243020   2.739   4.851   7.451  1.5283 -1.0667  0.4169
10456SOL     OW43021   4.183   5.424   4.035 -0.5021 -0.4518  0.5525
10456SOL    HW143022   4.244   5.503   4.039  0.5545 -1.2306  0.0244
10456SOL    HW243023   4.174   5.393   3.941  0.9900 -2.4049  1.0125
10457SOL     OW43024   2.527   9.307   4.815  0.2444  0.1512  0.8780
10457SOL    HW143025   2.493   9.215   4.796  2.8430 -0.5321 -0.6458
10457SOL    HW243026   2.478   9.344   4.894 -4.8469 -0.2966 -1.8035
10458SOL     OW43027   2.427   1.846   2.232  0.2906 -0.3367  0.1748
10458SOL    HW143028   2.476   1.928   2.203 -0.5135  0.4895  1.1188
10458SOL    HW243029   2.329   1.860   2.217  0.0500 -0.6722  1.4043
10459SOL     OW43030   9.858   5.232   7.397  0.3493 -0.1044 -0.0996
10459SOL    HW143031   9.767   5.198   7.419  0.7087 -0.2594  1.2318
10459SOL    HW243032   9.926   5.178   7.447  0.9962  1.7484  1.0854
10460SOL     OW43033   0.634   6.551   4.153 -0.0941  0.0617  0.9378
10460SOL    HW143034   0.630   6.650   4.147 -1.4025 -0.0817 -0.8388
10460SOL    HW243035   0.556   6.517   4.206 -1.3681 -0.1788 -1.0130
10461SOL     OW43036   6.181   0.894   4.035 -0.1024 -0.1777 -0.0900
10461SOL    HW143037   6.256   0.835   4.065  0.6457  1.3558  1.1321
10461SOL    HW243038   6.181   0.901   3.936  1.5594  0.0415 -0.0847
10462SOL     OW43039   2.108   8.205   7.841 -0.7387  0.2613 -0.1158
10462SOL    HW143040   2.146   8.239   7.927  1.5265  0.9135 -1.3142
10462SOL    HW243041   2.183   8.171   7.783 -2.5466 -3.3389 -0.4856
10463SOL     OW43042   9.299   1.705   3.072  0.2678  0.0272  0.3513
10463SOL    HW143043   9.267   1.623   3.118 -1.3911  1.0511  1.0768
10463SOL    HW243044   9.222   1.768   3.059  1.2241  0.8763 -1.4466
10464SOL     OW43045   0.592   5.870   7.948 -0.0341  0.0018 -0.1179
10464SOL    HW143046   0.546   5.958   7.933  1.3907  1.0056  1.1824
10464SOL    HW243047   0.681   5.887   7.989 -0.1690 -2.1223  1.0966
10465SOL     OW43048   4.147   1.361   2.046  0.6355 -0.0693  0.5187
10465SOL    HW143049   4.156   1.319   2.137 -0.5390 -1.0183  0.2093
10465SOL    HW243050   4.171   1.293   1.977  0.1126  0.2134  0.0629
10466SOL     OW43051   5.005   1.006   7.699 -0.1011  0.3519  0.4599
10466SOL    HW143052   5.056   0.922   7.680 -2.2993 -0.9122 -0.0585
10466SOL    HW243053   5.066   1.085   7.689  2.0066 -1.1539  0.9570
10467SOL     OW43054   7.022   1.161   3.706 -0.0972 -0.2703  0.4658
10467SOL    HW143055   6.935   1.111   3.707 -0.9372  1.1760  0.9045
10467SOL    HW243056   7.009   1.250   3.662  0.9219  0.3629  1.4091
10468SOL     OW43057   9.048   6.619   3.632 -0.2836  0.0761  0.4905
10468SOL    HW143058   8.958   6.663   3.637 -0.1245  0.2852  1.7258
10468SOL    HW243059   9.118   6.689   3.620 -0.1232  0.0817  1.4190
10469SOL     OW43060   0.007   6.126   7.044  0.1153  0.2523  0.6191
10469SOL    HW143061   0.054   6.157   6.961  1.6367 -0.9144  1.0224
10469SOL    HW243062   0.055   6.162   7.124 -0.9571  0.8158  1.0201
10470SOL     OW43063   9.591   9.583   0.736  0.2365 -0.1792 -0.5448
10470SOL    HW143064   9.640   9.505   0.697 -1.0063 -1.4596  0.4072
10470SOL    HW243065   9.577   9.569   0.834 -0.2558  1.1067 -0.4143
10471SOL     OW43066   2.636   7.375   2.546  0.1676  0.5230 -0.6650
10471SOL    HW143067   2.627   7.404   2.451  3.3012  1.3813 -0.7415
10471SOL    HW243068   2.613   7.451   2.607 -1.5931  0.0482 -0.7226
10472SOL     OW43069   1.748   6.964   1.444 -0.2548 -0.3335  0.2876
10472SOL    HW143070   1.764   6.868   1.468 -1.2809 -0.6054 -0.0708
10472SOL    HW243071   1.674   7.000   1.501 -0.5378 -0.0439 -0.2609
10473SOL     OW43072   9.901   2.997   0.200 -0.3240  0.7024 -0.0399
10473SOL    HW143073   9.930   3.077   0.147 -0.0885  0.3485 -0.4459
10473SOL    HW243074   9.828   3.024   0.263 -0.4999  1.1593 -0.4333
10474SOL     OW43075   9.995   5.616   3.369 -0.6556  0.0081  0.8788
10474SOL    HW143076  10.055   5.536   3.376  0.0626  0.4108 -0.5129
10474SOL    HW243077   9.910   5.598   3.419 -1.4556 -2.5215 -1.2781
10475SOL     OW43078   9.356   9.607   4.331 -0.6005 -0.5043 -0.4556
10475SOL    HW143079   9.333   9.515   4.365  0.2197 -0.7546 -0.5683
10475SOL    HW243080   9.450   9.629   4.355 -1.1062  0.7248  0.4453
10476SOL     OW43081   6.910   4.107   0.982  0.5593 -0.4018 -0.3346
10476SOL    HW143082   6.946   4.156   1.061 -0.5073 -0.8247  0.4365
10476SOL    HW243083   6.843   4.164   0.935 -0.7819 -1.1433  0.6417
10477SOL     OW43084   2.823   0.096   4.084  0.4972  0.3894 -0.5976
10477SOL    HW143085   2.898   0.080   4.147  0.8691  0.6152 -0.9779
10477SOL    HW243086   2.810   0.194   4.071 -0.9752  0.3913  0.7811
10478SOL     OW43087   0.611   4.011   3.213  0.0230  0.7638 -0.1682
10478SOL    HW143088   0.708   3.995   3.200 -0.2746 -1.4850  0.2149
10478SOL    HW243089   0.558   3.952   3.152 -1.1220  1.2801  0.2965
10479SOL     OW43090   6.279   1.775   6.180  0.5947  0.0499 -0.1108
10479SOL    HW143091   6.357   1.826   6.215  0.0444 -0.3817  1.7845
10479SOL    HW243092   6.309   1.711   6.110  1.9926 -0.3792  0.8734
10480SOL     OW43093   3.725   9.556   4.169  0.1288  0.0752  0.2822
10480SOL    HW143094   3.663   9.507   4.108 -0.0076  1.3142 -0.5882
10480SOL    HW243095   3.788   9.491   4.211 -1.3903 -1.1298  0.7509
10481SOL     OW43096   4.345   4.991   8.062 -0.1893 -0.5005 -0.2939
10481SOL    HW143097   4.439   4.976   8.092 -0.2743 -1.8123 -0.6538
10481SOL    HW243098   4.334   4.958   7.968 -0.7151  0.7343 -0.6822
10482SOL     OW43099   1.869   8.567   6.100  0.1393 -0.2399 -0.4624
10482SOL    HW143100   1.909   8.656   6.079  0.1249 -0.1177  0.0246
10482SOL    HW243101   1.769   8.575   6.102  0.1449 -0.2203 -0.2194
10483SOL     OW43102   0.930   6.172   3.972  0.0273 -0.5276  0.0462
10483SOL    HW143103   0.870   6.241   3.931 -0.8762 -1.6263 -0.5085
10483SOL    HW243104   0.909   6.082   3.933  2.2013 -0.9035 -0.3455
10484SOL     OW43105   2.048   3.551   5.320  0.1538 -0.0401 -0.2791
10484SOL    HW143106   2.031   3.458   5.288 -2.1156 -0.2311  1.3988
10484SOL    HW243107   2.081   3.548   5.414  0.3656  0.8513 -0.3204
10485SOL     OW43108   3.245   4.897   0.837 -0.4898  0.7480 -0.1885
10485SOL    HW143109   3.249   4.798   0.827  0.2860  0.6419  1.0219
10485SOL    HW243110   3.328   4.938   0.801  0.3199  0.7318  1.6099
10486SOL     OW43111   2.277   9.968   4.858  0.2182  0.9708  0.4719
10486SOL    HW143112   2.240   9.930   4.943 -1.2670 -0.2919 -0.7132
10486SOL    HW243113   2.206   9.966   4.787  1.8297  0.8091 -1.1601
10487SOL     OW43114   1.673   4.592   1.306  0.4284 -0.1100 -0.1948
10487SOL    HW143115   1.687   4.685   1.272 -1.0132 -0.3766 -1.5916
10487SOL    HW243116   1.659   4.593   1.404  1.0353  1.0726 -0.1144
10488SOL     OW43117   5.784   0.788   4.280 -0.1145  0.5180 -0.6863
10488SOL    HW143118   5.767   0.809   4.184 -1.7830 -2.8663 -1.2126
10488SOL    HW243119   5.865   0.730   4.288 -0.3276  0.2927 -0.1160
10489SOL     OW43120   6.157   2.222   3.402 -0.3223  0.2325 -0.2740
10489SOL    HW143121   6.200   2.262   3.483 -0.3900  0.9372 -0.5792
10489SOL    HW243122   6.059   2.243   3.403 -0.6348 -1.2219  0.3342
10490SOL     OW43123   9.606   1.449   6.233 -0.0852 -0.2890  0.1101
10490SOL    HW143124   9.693   1.457   6.281  0.7583  2.3487 -1.7508
10490SOL    HW243125   9.531   1.470   6.295  0.7071 -1.1109  1.3505
10491SOL     OW43126   7.864   3.978   5.996  0.3181 -0.3240 -0.0214
10491SOL    HW143127   7.778   4.026   6.015 -0.3208 -1.4688  0.0441
10491SOL    HW243128   7.897   4.005   5.905 -0.3763 -0.2570 -0.2591
10492SOL     OW43129   0.087   0.055   4.117  1.0611  0.4700  0.2604
10492SOL    HW143130  -0.001   0.099   4.133  1.1600  0.9676 -0.4989
10492SOL    HW243131   0.078  -0.044   4.124  0.8332  0.6130  1.9900
10493SOL     OW43132   8.149   6.292   4.794 -0.6974  0.4021  0.0112
10493SOL    HW143133   8.160   6.369   4.730 -2.1087 -0.6612 -1.5541
10493SOL    HW243134   8.136   6.328   4.886  2.2890  1.9451 -0.1099
10494SOL     OW43135   5.555   8.629   5.267 -0.7037  0.1054  0.5149
10494SOL    HW143136   5.522   8.675   5.349 -3.2066  1.8222 -1.3743
10494SOL    HW243137   5.623   8.687   5.221 -2.0295  0.8285 -0.5567
10495SOL     OW43138   7.949   4.222   4.536 -0.3753 -0.1567 -0.2821
10495SOL    HW143139   7.913   4.191   4.449  0.4396 -0.6839 -0.4355
10495SOL    HW243140   8.037   4.178   4.554 -0.5361 -0.0607  0.8073
10496SOL     OW43141   0.329   1.442   2.220  0.0028  0.4586  0.0477
10496SOL    HW143142   0.383   1.444   2.136  1.7568  0.0958  1.1433
10496SOL    HW243143   0.385   1.474   2.297 -1.8870  1.7428  0.9196
10497SOL     OW43144   3.202   9.471   4.632  0.1639 -0.4006  0.1035
10497SOL    HW143145   3.279   9.435   4.580  1.2158  0.7345  0.8535
10497SOL    HW243146   3.200   9.428   4.722 -1.9245 -2.7014 -0.9786
10498SOL     OW43147   4.776   3.065   0.625  0.4703 -0.5342  0.0909
10498SOL    HW143148   4.777   3.106   0.534  0.6857 -0.4022  0.1516
10498SOL    HW243149   4.688   3.083   0.669  0.9689  0.8503  0.5579
10499SOL     OW43150   9.039   9.977   1.930 -0.2888  0.2813  0.1154
10499SOL    HW143151   8.987  10.034   1.994  0.1151  0.0896  0.6149
10499SOL    HW243152   9.025   9.880   1.952 -1.7039  0.1346 -1.2910
10500SOL     OW43153   7.677   9.526   2.132 -0.3253 -0.1043 -0.0306
10500SOL    HW143154   7.719   9.611   2.165 -1.4301  1.3926 -2.3959
10500SOL    HW243155   7.691   9.517   2.034 -1.5841 -1.8881 -0.0816
10501SOL     OW43156   3.170   0.050   3.536 -1.0703  0.0480  0.1287
10501SOL    HW143157   3.174  -0.050   3.543 -0.2600  0.0203 -0.6255
10501SOL    HW243158   3.078   0.077   3.508 -1.2376 -0.5076  0.1299
10502SOL     OW43159   5.040   1.775   4.348 -0.7142  0.4014 -0.3328
10502SOL    HW143160   5.001   1.719   4.275  0.2699 -0.9094  0.1127
10502SOL    HW243161   5.025   1.730   4.436 -1.4552  1.7254  0.2296
10503SOL     OW43162   0.769   2.133   1.779  0.4502  0.5655  0.4676
10503SOL    HW143163   0.773   2.231   1.799  1.1420  1.0226 -1.7912
10503SOL    HW243164   0.676   2.100   1.792 -0.0659  1.8058 -0.0013
10504SOL     OW43165   0.960   8.782   3.715 -0.3827 -0.0784  0.1296
10504SOL    HW143166   1.005   8.836   3.786 -0.4058  0.9694 -0.6525
10504SOL    HW243167   1.025   8.761   3.642 -0.4286 -0.9346  0.3308
10505SOL     OW43168   2.750   6.883   3.082  0.1188  0.1308  0.4420
10505SOL    HW143169   2.684   6.810   3.103 -0.3930 -0.1000 -1.8577
10505SOL    HW243170   2.701   6.968   3.065  0.6223  0.6572  1.5963
10506SOL     OW43171   7.125   1.363   3.140 -0.1416 -0.8048  0.3053
10506SOL    HW143172   7.103   1.409   3.226 -1.6837 -1.0416  0.0542
10506SOL    HW243173   7.189   1.419   3.087 -0.1649 -0.0728  1.0554
10507SOL     OW43174   5.916   7.989   5.799 -0.4337  0.1304 -0.2990
10507SOL    HW143175   5.844   8.049   5.764 -0.2864 -0.8193 -2.2830
10507SOL    HW243176   5.911   7.901   5.753  3.2078  0.6894 -1.8890
10508SOL     OW43177   2.051   1.788   1.676  0.2606  0.0006  0.3569
10508SOL    HW143178   2.034   1.824   1.768  2.5058 -1.8000  1.5431
10508SOL    HW243179   2.150   1.785   1.660 -0.0057 -2.1445 -1.0799
10509SOL     OW43180   4.510   1.257   6.828  0.0618 -0.0676 -0.4106
10509SOL    HW143181   4.510   1.174   6.883  2.2408 -0.3986 -0.8593
10509SOL    HW243182   4.458   1.328   6.876  0.6319 -0.8040  1.3733
10510SOL     OW43183   0.922   9.152   7.786  0.0960 -0.2781  0.0141
10510SOL    HW143184   0.953   9.247   7.789 -1.6460  0.3470 -0.9686
10510SOL    HW243185   0.889   9.125   7.877 -0.6854  0.4958 -0.0386
10511SOL     OW43186   8.237   5.195   1.024 -0.3174  0.0079  0.0218
10511SOL    HW143187   8.258   5.278   1.075  2.3976 -0.9832  0.6032
10511SOL    HW243188   8.187   5.132   1.083  0.4379 -0.0489  0.6046
10512SOL     OW43189   3.537   5.911   3.105 -0.1393  0.1199 -0.1199
10512SOL    HW143190   3.529   5.865   3.016  0.2365  0.4260 -0.3138
10512SOL    HW243191   3.468   5.875   3.167 -1.2212  0.7884 -0.9261
10513SOL     OW43192   2.954   6.902   4.460  0.4561 -0.3051  0.4803
10513SOL    HW143193   2.858   6.879   4.477  0.5522 -2.2407 -1.4831
10513SOL    HW243194   3.013   6.841   4.513  0.6484  0.8966  1.7043
10514SOL     OW43195   8.069   2.278   8.186 -1.1238 -0.1540  0.0980
10514SOL    HW143196   8.140   2.209   8.203 -2.2870 -1.7260 -1.2436
10514SOL    HW243197   8.041   2.318   8.273 -0.4240 -1.3844  0.9130
10515SOL     OW43198   0.250   4.205   0.038  0.2054  0.0331  0.7243
10515SOL    HW143199   0.339   4.165   0.016 -0.5706 -1.0329 -0.5895
10515SOL    HW243200   0.197   4.217  -0.046 -0.4551  1.7529  1.3589
10516SOL     OW43201   1.192   1.206   5.107 -0.8056 -0.1692 -0.1667
10516SOL    HW143202   1.153   1.159   5.186 -0.3185 -1.2997 -0.5881
10516SOL    HW243203   1.262   1.270   5.137  1.2186 -2.4589  0.1419
10517SOL     OW43204   1.769   9.043   5.883 -0.0688 -0.2234  0.0553
10517SOL    HW143205   1.774   8.946   5.908 -0.5223 -0.7138 -1.7431
10517SOL    HW243206   1.852   9.089   5.914  2.1463 -2.0963 -2.8469
10518SOL     OW43207   3.779   6.769   5.356 -0.2396  0.2391 -0.9785
10518SOL    HW143208   3.810   6.733   5.444 -0.1294  0.4830 -0.9179
10518SOL    HW243209   3.704   6.712   5.322 -0.4661  0.3073 -0.5956
10519SOL     OW43210   0.072   3.373   1.353 -0.3952  0.5557 -0.0578
10519SOL    HW143211   0.022   3.305   1.406 -0.2420 -0.4990 -1.2523
10519SOL    HW243212   0.168   3.348   1.347 -0.5138  0.3599 -1.2957
10520SOL     OW43213   3.546   6.248   3.315 -0.2272 -0.1181 -0.4196
10520SOL    HW143214   3.483   6.306   3.366  0.0011 -0.3366  0.1211
10520SOL    HW243215   3.574   6.171   3.373  2.2962  1.1878  0.1619
10521SOL     OW43216   8.673   9.792   7.278  0.0016  0.4899  0.2183
10521SOL    HW143217   8.661   9.693   7.270  0.5499  0.6765 -3.8952
10521SOL    HW243218   8.583   9.836   7.286 -0.3375 -0.2537  0.4711
10522SOL     OW43219   4.187   7.679   0.902 -0.0855 -0.1570 -0.4966
10522SOL    HW143220   4.221   7.771   0.885  1.1807 -0.8165 -1.5591
10522SOL    HW243221   4.177   7.665   1.001  0.9130  0.7011 -0.2673
10523SOL     OW43222   9.106   3.999   4.693 -0.4475 -0.1908 -0.5804
10523SOL    HW143223   9.038   3.988   4.620 -0.7239  1.4685 -0.5884
10523SOL    HW243224   9.110   4.095   4.720  0.4761 -0.6141  0.8078
10524SOL     OW43225   1.024   5.784   2.177 -0.0900  0.4723 -0.3620
10524SOL    HW143226   1.098   5.775   2.111  0.3448  1.2715  0.0084
10524SOL    HW243227   1.058   5.767   2.269 -0.4235  0.5902 -0.2135
10525SOL     OW43228   2.462   9.978   2.207  0.1585  0.2594  0.0651
10525SOL    HW143229   2.549  10.022   2.230  0.4362 -0.5225  0.5541
10525SOL    HW243230   2.389  10.046   2.204  0.6236  0.7845  0.5780
10526SOL     OW43231   7.232   0.718   2.459  0.1851 -0.1164 -0.2825
10526SOL    HW143232   7.252   0.650   2.389 -2.1481  0.0552 -1.1785
10526SOL    HW243233   7.135   0.742   2.455  0.2071  0.6081  2.3851
10527SOL     OW43234   2.192   2.813   5.828 -0.0305  0.1006 -0.3776
10527SOL    HW143235   2.131   2.892   5.835  0.9048  0.7658  0.4441
10527SOL    HW243236   2.160   2.751   5.756 -1.5032  0.5837 -0.1406
10528SOL     OW43237   5.939   3.869   0.801 -0.3185  0.3555  0.1508
10528SOL    HW143238   5.930   3.800   0.729 -0.5129  1.5546 -0.9803
10528SOL    HW243239   6.008   3.838   0.868  0.4218 -0.4113 -0.9434
10529SOL     OW43240   6.212   3.657   0.177  0.0181  0.4624 -0.1252
10529SOL    HW143241   6.142   3.660   0.106  0.5617 -0.4668 -0.6943
10529SOL    HW243242   6.232   3.562   0.201 -0.2348  0.7674  1.3435
10530SOL     OW43243   4.649   0.171   7.619  0.1138  0.3546  0.1291
10530SOL    HW143244   4.649   0.143   7.715 -0.5827 -0.5714 -0.1297
10530SOL    HW243245   4.741   0.161   7.581  0.7323  2.1765  1.1033
10531SOL     OW43246   7.624   1.023   4.456  0.3181  0.2391 -0.0423
10531SOL    HW143247   7.552   1.086   4.486 -1.6879 -2.1091  0.2363
10531SOL    HW243248   7.699   1.075   4.416 -1.3323  2.7879  0.0496
10532SOL     OW43249   9.884   7.420   3.981 -0.3269 -0.4607 -0.3474
10532SOL    HW143250   9.954   7.353   4.007  0.5750  0.1184 -1.2190
10532SOL    HW243251   9.853   7.469   4.062  1.1880  0.1260 -0.1062
10533SOL     OW43252   0.088   2.271   6.339  0.4578 -0.0094 -0.1942
10533SOL    HW143253   0.155   2.200   6.318  1.2724  1.5338 -3.0173
10533SOL    HW243254   0.012   2.231   6.390  1.5371 -2.6425 -0.5912
10534SOL     OW43255   7.021   8.561   5.012 -0.1456 -0.3674  0.2546
10534SOL    HW143256   7.051   8.591   5.102 -0.7448 -0.3967  0.4630
10534SOL    HW243257   7.052   8.627   4.943 -1.7699  0.9382  0.7476
10535SOL     OW43258   6.826   0.020   1.070 -0.0586  0.1050 -0.0925
10535SOL    HW143259   6.750   0.060   1.019  0.3453 -0.3808 -1.1058
10535SOL    HW243260   6.831   0.060   1.161  0.1572  2.1617 -0.9799
10536SOL     OW43261   4.314   1.739   6.477  0.3198 -0.2517  0.4847
10536SOL    HW143262   4.277   1.648   6.494  0.6841 -0.1303  1.9422
10536SOL    HW243263   4.414   1.735   6.472  0.2453 -0.2323 -1.3349
10537SOL     OW43264   3.117   2.876   6.004 -0.1136  0.3405 -0.5915
10537SOL    HW143265   3.029   2.832   6.019  0.5739 -0.2386  1.9509
10537SOL    HW243266   3.186   2.807   5.982 -0.0606  0.6754 -1.4971
10538SOL     OW43267   8.956   5.778   6.003 -0.5870 -0.3678  0.0848
10538SOL    HW143268   8.879   5.822   6.048  0.4355  0.3336  1.1885
10538SOL    HW243269   8.982   5.695   6.053  1.6718  1.3616  1.8675
10539SOL     OW43270   8.357   9.952   0.174  0.3725  0.0071  0.4127
10539SOL    HW143271   8.342   9.854   0.188  1.4315 -0.3308 -0.8211
10539SOL    HW243272   8.314   9.980   0.088 -0.3203  0.7283  0.9853
10540SOL     OW43273   7.362   2.909   3.862  0.2460  0.4650  0.2303
10540SOL    HW143274   7.347   2.878   3.956  0.5976 -1.3895 -0.3057
10540SOL    HW243275   7.276   2.943   3.824  0.0038  0.8170  1.0781
10541SOL     OW43276   7.142   8.058   4.381 -0.0661 -0.3980  0.1726
10541SOL    HW143277   7.048   8.093   4.376 -0.0962 -0.6848 -1.8780
10541SOL    HW243278   7.141   7.958   4.375  0.4540 -0.3112 -1.5527
10542SOL     OW43279   3.044   6.334   4.863  0.9159  0.5620 -0.2715
10542SOL    HW143280   3.069   6.285   4.779 -2.2806  0.2878 -1.1347
10542SOL    HW243281   3.012   6.269   4.931  0.7868  1.0668  0.1539
10543SOL     OW43282   0.899   6.342   7.221 -0.0895  0.2412 -0.3306
10543SOL    HW143283   0.856   6.400   7.290 -0.5426  0.6623 -0.9600
10543SOL    HW243284   0.830   6.313   7.154  0.5178  0.5921 -1.1189
10544SOL     OW43285   8.299   0.581   0.318 -0.0469 -0.0638  0.8271
10544SOL    HW143286   8.262   0.490   0.335  0.2770 -0.1388  1.1162
10544SOL    HW243287   8.241   0.649   0.363 -1.3450  0.0205 -0.8918
10545SOL     OW43288   2.151   0.530   2.097  0.2897 -0.0048 -0.1383
10545SOL    HW143289   2.128   0.530   2.000 -0.0493 -1.7837 -0.0759
10545SOL    HW243290   2.233   0.475   2.113  1.6475  2.0880  0.3235
10546SOL     OW43291   4.227   8.476   5.151  0.2250  0.3928  0.0714
10546SOL    HW143292   4.197   8.389   5.113 -1.7315  0.9627  0.2383
10546SOL    HW243293   4.323   8.491   5.128 -0.2442 -0.3914 -2.6068
10547SOL     OW43294   3.457   9.006   4.519 -0.6090  0.0720  0.0061
10547SOL    HW143295   3.398   9.014   4.600 -1.4963 -0.4312 -0.5761
10547SOL    HW243296   3.419   8.937   4.458 -0.3917  1.0347 -1.2336
10548SOL     OW43297   1.674   1.135   1.820 -0.7064 -0.1797  0.6233
10548SOL    HW143298   1.623   1.100   1.741  0.9379 -1.7454  0.2303
10548SOL    HW243299   1.649   1.083   1.902 -0.6041 -0.1880  0.6498
10549SOL     OW43300   9.447   5.270   5.903 -0.6381 -0.4359 -0.3229
10549SOL    HW143301   9.353   5.238   5.912 -1.2219  1.0731 -0.9146
10549SOL    HW243302   9.454   5.365   5.937  1.3594 -1.6234  2.8853
10550SOL     OW43303   4.282   5.576   2.011  0.5057 -0.1633 -0.2785
10550SOL    HW143304   4.226   5.589   2.093  0.2185 -1.0088 -0.3387
10550SOL    HW243305   4.248   5.498   1.959  0.1525  0.8789 -1.6544
10551SOL     OW43306   0.541   8.193   6.114 -0.0489 -0.1823 -0.0232
10551SOL    HW143307   0.544   8.115   6.051  1.0501  0.1933 -0.4376
10551SOL    HW243308   0.504   8.273   6.066 -1.7510 -0.5869  0.5690
10552SOL     OW43309   9.332   3.875   5.817 -0.4288 -0.4068  0.0472
10552SOL    HW143310   9.377   3.879   5.727 -0.9902  0.3024 -0.2011
10552SOL    HW243311   9.367   3.796   5.867  1.4637  0.4023  0.0458
10553SOL     OW43312   6.018   0.411   4.346 -0.1668 -0.3929 -0.1181
10553SOL    HW143313   6.061   0.492   4.385 -1.2567 -0.1075  0.4967
10553SOL    HW243314   6.049   0.330   4.396  0.4801 -0.3070 -0.3709
10554SOL     OW43315   2.084   1.763   3.878 -0.2915 -0.1937  0.3280
10554SOL    HW143316   2.078   1.729   3.972 -0.5655  0.0685  0.4046
10554SOL    HW243317   2.036   1.701   3.817 -2.3353  0.9753  0.7010
10555SOL     OW43318   9.648   1.906   0.751  0.4832  0.6773  0.1697
10555SOL    HW143319   9.717   1.836   0.734 -1.1598 -1.2465  1.1970
10555SOL    HW243320   9.678   1.964   0.827  0.7622 -0.4457  0.9340
10556SOL     OW43321   1.025   5.406   2.872 -0.3635 -0.6218 -0.2661
10556SOL    HW143322   1.104   5.467   2.865 -0.3943 -0.6545 -0.9242
10556SOL    HW243323   1.036   5.346   2.952 -0.9886  1.1595  1.1817
10557SOL     OW43324   1.142   9.322   2.202  0.0335  0.0571 -0.4783
10557SOL    HW143325   1.224   9.295   2.152  0.3586 -0.9261  0.5459
10557SOL    HW243326   1.169   9.372   2.285 -0.4759  1.2102 -0.9935
10558SOL     OW43327   5.537   6.918   5.654  0.1377  0.4214  0.3601
10558SOL    HW143328   5.542   6.995   5.718 -1.3272 -0.1037  1.1358
10558SOL    HW243329   5.443   6.885   5.650  0.5167 -0.5074 -0.9504
10559SOL     OW43330   6.865   5.510   0.929  0.3347  0.3619  0.2580
10559SOL    HW143331   6.924   5.516   1.010 -1.5091 -0.0529  1.6550
10559SOL    HW243332   6.770   5.525   0.956 -0.2505  0.6361 -1.9112
10560SOL     OW43333   9.591   6.840   2.277 -0.6088 -0.1977 -0.4803
10560SOL    HW143334   9.495   6.852   2.249 -0.9969 -0.8088  0.5566
10560SOL    HW243335   9.595   6.829   2.376  0.7463  1.9084 -0.2655
10561SOL     OW43336   0.304   9.640   4.751 -0.2246  0.8015 -0.2644
10561SOL    HW143337   0.266   9.576   4.819  1.0986  1.1828  0.8491
10561SOL    HW243338   0.243   9.718   4.742 -0.2760  0.8865  0.7048
10562SOL     OW43339   9.610   8.873   7.674  0.2055 -0.0214 -0.4760
10562SOL    HW143340   9.625   8.781   7.710  1.7642  0.2422 -0.4210
10562SOL    HW243341   9.631   8.940   7.746  1.5047  0.4449 -1.2722
10563SOL     OW43342   0.357   6.592   0.318 -0.0495 -0.1655  0.2397
10563SOL    HW143343   0.378   6.508   0.367 -0.0537  0.5382  1.4820
10563SOL    HW243344   0.418   6.602   0.240 -0.8460 -1.9110 -0.6171
10564SOL     OW43345   0.356   4.633   4.703  0.5412 -0.6062  0.2520
10564SOL    HW143346   0.440   4.624   4.650  1.4019  0.4394  1.3901
10564SOL    HW243347   0.379   4.638   4.801 -0.7985  0.0939  0.5453
10565SOL     OW43348   8.927   7.400   6.978  0.0365 -0.2988 -0.3515
10565SOL    HW143349   8.887   7.313   7.007 -1.0277  0.0217 -0.8170
10565SOL    HW243350   8.979   7.440   7.054 -1.2796 -0.3040  0.5894
10566SOL     OW43351   2.850   0.821   1.105  0.5460 -0.1854 -0.1694
10566SOL    HW143352   2.861   0.804   1.006 -0.2781  1.3300 -0.5282
10566SOL    HW243353   2.771   0.768   1.138  0.5173 -0.3085 -0.4276
10567SOL     OW43354   5.089   2.352   0.098 -0.4609  0.8305  0.0916
10567SOL    HW143355   5.103   2.262   0.058 -0.7915  1.3132 -1.1365
10567SOL    HW243356   5.178   2.391   0.125 -0.1794  0.7255 -0.6785
10568SOL     OW43357   1.811   0.505   4.663 -0.4113  0.3710  0.7401
10568SOL    HW143358   1.833   0.453   4.746  0.3205  1.2182  1.0854
10568SOL    HW243359   1.767   0.591   4.688 -3.1976 -0.8361  0.0938
10569SOL     OW43360   8.057   4.005   1.103  0.0911  0.3227 -0.2101
10569SOL    HW143361   8.063   4.099   1.136 -1.0026  0.2932  0.0925
10569SOL    HW243362   8.032   3.944   1.179 -0.4841 -0.0260 -0.6730
10570SOL     OW43363   7.569   1.986   4.909 -0.0487  0.7545 -0.0199
10570SOL    HW143364   7.537   1.892   4.913 -2.5407  1.5522 -0.0905
10570SOL    HW243365   7.665   1.988   4.882  0.4544 -1.8168  1.4007
10571SOL     OW43366   3.351   9.193   0.027 -0.4580  0.5608  0.4431
10571SOL    HW143367   3.375   9.144   0.111 -0.1496 -1.7561 -0.9377
10571SOL    HW243368   3.306   9.129  -0.036 -0.3523  2.1752 -1.2930
10572SOL     OW43369   2.807   0.371   6.163 -0.5726 -0.4218  0.4792
10572SOL    HW143370   2.836   0.462   6.132 -1.4963  0.1701  1.3458
10572SOL    HW243371   2.888   0.314   6.175 -0.0482 -0.0331 -1.0204
10573SOL     OW43372   3.679   5.567   3.969  0.7290 -0.6479  0.2073
10573SOL    HW143373   3.740   5.590   4.045  0.4943 -1.7308  0.7389
10573SOL    HW243374   3.690   5.470   3.946  0.9894 -0.2695 -1.3224
10574SOL     OW43375   4.367   6.925   0.995  0.5424  0.2585  0.5850
10574SOL    HW143376   4.391   6.842   0.944  1.8612  1.1297 -0.2449
10574SOL    HW243377   4.347   6.998   0.930 -0.1997  0.7106  1.3177
10575SOL     OW43378   9.008   2.341   6.170  0.2967  0.1831  0.2518
10575SOL    HW143379   9.031   2.245   6.179 -0.3377  0.0999  0.9373
10575SOL    HW243380   9.015   2.386   6.259  1.8258  1.0433 -0.2859
10576SOL     OW43381   3.158   2.157   7.645  0.0121  0.4480 -0.1072
10576SOL    HW143382   3.196   2.124   7.558  1.8480  1.7702  0.1489
10576SOL    HW243383   3.071   2.202   7.628  1.2652  2.4184 -1.6080
10577SOL     OW43384   0.839   2.084   7.271  0.0869 -0.1250  0.2637
10577SOL    HW143385   0.831   2.059   7.368  2.1630  0.4191  0.5879
10577SOL    HW243386   0.861   2.181   7.263 -0.6973 -0.0297 -0.7821
10578SOL     OW43387   5.320   2.331   4.241 -0.1662 -0.1493 -0.1238
10578SOL    HW143388   5.330   2.320   4.340  0.9259 -0.6649 -0.2783
10578SOL    HW243389   5.377   2.407   4.209 -0.2511 -0.1979 -0.3959
10579SOL     OW43390   7.884   0.158   2.428  0.5211  0.6676  0.3553
10579SOL    HW143391   7.855   0.248   2.395 -1.0493  0.3110  0.7241
10579SOL    HW243392   7.804   0.100   2.441  1.3808 -0.1997  1.8730
10580SOL     OW43393   0.109   1.401   4.327 -0.0706 -0.0751 -0.3910
10580SOL    HW143394   0.049   1.464   4.376 -0.1052  0.5701 -1.2479
10580SOL    HW243395   0.185   1.451   4.287  1.3866 -0.9673  1.1785
10581SOL     OW43396   4.439   7.721   5.470  0.4348 -0.0574  0.4149
10581SOL    HW143397   4.480   7.743   5.381  2.4881  1.9021  1.8082
10581SOL    HW243398   4.412   7.625   5.471  0.8214 -0.2370 -2.1446
10582SOL     OW43399   9.704   9.303   0.795  0.2483 -0.3309 -0.1726
10582SOL    HW143400   9.669   9.218   0.757  0.5392 -0.3218 -0.4639
10582SOL    HW243401   9.679   9.309   0.892  1.0216 -1.1762  0.0781
10583SOL     OW43402   6.924   1.319   1.835 -0.1234 -0.4169  0.2902
10583SOL    HW143403   7.012   1.277   1.814 -1.3044 -2.0121 -1.6886
10583SOL    HW243404   6.855   1.248   1.849 -1.1984  0.8165  1.4395
10584SOL     OW43405   9.200   9.728   6.836  0.3342 -0.0509 -0.0419
10584SOL    HW143406   9.175   9.824   6.828  1.3527  0.1628 -0.7404
10584SOL    HW243407   9.140   9.673   6.779  0.5529  0.3042 -0.6109
10585SOL     OW43408   4.281   1.098   4.983 -0.4346  0.1742  0.5865
10585SOL    HW143409   4.329   1.185   4.998 -0.5303  0.5288 -1.0465
10585SOL    HW243410   4.346   1.023   4.987 -0.2232  0.3866  1.2319
10586SOL     OW43411   3.959   1.178   6.924 -0.0280 -1.6640  0.2344
10586SOL    HW143412   3.888   1.178   6.853  0.7849  0.3062 -0.6074
10586SOL    HW243413   3.937   1.247   6.993  1.0073 -1.1009  0.0144
10587SOL     OW43414   5.711   7.291   3.794 -0.1908  0.2056  0.1600
10587SOL    HW143415   5.737   7.220   3.729 -0.2635 -0.9759  1.4107
10587SOL    HW243416   5.631   7.340   3.760  0.2027  0.0841 -0.9747
10588SOL     OW43417   2.452   6.547   7.145  0.3162  0.1893 -0.0112
10588SOL    HW143418   2.419   6.558   7.239 -0.3671  0.1286 -0.2420
10588SOL    HW243419   2.474   6.637   7.107  0.2628  0.2451  0.0873
10589SOL     OW43420   3.038   5.829   2.606 -0.1357 -0.2643 -0.5789
10589SOL    HW143421   3.111   5.795   2.546 -0.9158 -0.6270 -1.3347
10589SOL    HW243422   3.075   5.844   2.698  1.4026  1.5289 -1.4378
10590SOL     OW43423   2.341   6.497   2.833 -0.2539  0.3312  0.3611
10590SOL    HW143424   2.274   6.567   2.810 -0.2470  0.6463  1.2549
10590SOL    HW243425   2.392   6.526   2.915  0.2416 -0.3853  0.3100
10591SOL     OW43426   2.806   9.201   2.762 -0.5373 -0.0951 -0.1853
10591SOL    HW143427   2.879   9.133   2.756 -2.3603 -2.1573  0.4018
10591SOL    HW243428   2.821   9.260   2.842  0.0893 -0.9780  0.3558
10592SOL     OW43429   0.893   8.036   6.547  0.4531  0.3212 -0.4936
10592SOL    HW143430   0.885   7.940   6.520 -0.8908  0.8719 -2.1079
10592SOL    HW243431   0.986   8.068   6.531  1.2958 -1.0776  1.3579
10593SOL     OW43432   1.306   7.585   7.657  0.1057 -0.2983  0.0871
10593SOL    HW143433   1.339   7.502   7.702 -0.5680 -0.0676  1.0363
10593SOL    HW243434   1.331   7.664   7.712 -0.1768  0.0383 -0.2680
10594SOL     OW43435   2.820   7.004   5.906  0.0050 -0.1983  1.2084
10594SOL    HW143436   2.784   6.971   5.818 -1.1115  1.4523  1.0226
10594SOL    HW243437   2.757   6.977   5.979 -1.6042  2.5162  0.9068
10595SOL     OW43438   8.032   9.746   4.933 -0.0800 -0.3730  0.4118
10595SOL    HW143439   8.022   9.709   4.841 -0.5777 -1.9543  1.0958
10595SOL    HW243440   8.003   9.842   4.934  2.3181  0.4331 -1.6347
10596SOL     OW43441   3.792   4.022   0.955  0.1886  0.8116  0.3150
10596SOL    HW143442   3.742   4.084   0.894 -1.0565 -1.2237 -0.7988
10596SOL    HW243443   3.890   4.039   0.945 -0.1118  2.3054 -0.2922
10597SOL     OW43444   5.560   5.485   1.209 -0.4079 -0.7728  0.0211
10597SOL    HW143445   5.533   5.497   1.113 -0.9110  1.1031  0.3678
10597SOL    HW243446   5.644   5.432   1.214 -0.2512 -0.6799 -1.4810
10598SOL     OW43447   4.069   4.204   2.258  0.1618 -1.1720  0.2905
10598SOL    HW143448   4.023   4.263   2.324 -0.1353 -1.6997  0.5518
10598SOL    HW243449   4.163   4.185   2.289 -0.0160 -1.5163  0.6173
10599SOL     OW43450   6.440   8.627   5.140  0.5028  0.6769  0.3053
10599SOL    HW143451   6.359   8.685   5.146  0.5552  1.4103 -4.2420
10599SOL    HW243452   6.521   8.686   5.132  0.8984 -0.0345 -0.9414
10600SOL     OW43453   8.474   3.168   6.926 -0.5320 -0.3801 -0.3535
10600SOL    HW143454   8.402   3.195   6.990 -0.8923  0.3773 -1.0719
10600SOL    HW243455   8.492   3.070   6.936 -1.3885 -0.4990  0.0974
10601SOL     OW43456   3.565   0.851   2.564  1.0906 -0.2586 -0.4037
10601SOL    HW143457   3.575   0.945   2.533 -0.1312  0.0699  0.1724
10601SOL    HW243458   3.535   0.850   2.659  2.5369 -1.2460  0.0608
10602SOL     OW43459   1.732   4.972   4.792  0.4704  0.5015  0.3160
10602SOL    HW143460   1.643   5.011   4.815  0.0167 -0.1037 -0.3954
10602SOL    HW243461   1.751   4.897   4.855  0.3125  0.4013  0.2456
10603SOL     OW43462   9.594   2.380   7.615 -0.0898  0.2518  0.2837
10603SOL    HW143463   9.623   2.473   7.593 -2.9746  1.5374  1.7159
10603SOL    HW243464   9.606   2.364   7.713 -0.3234 -0.6138  0.1730
10604SOL     OW43465   1.101   8.989   7.650  0.0560 -0.2152 -0.2395
10604SOL    HW143466   1.039   9.045   7.705 -0.7873  1.4976 -2.8300
10604SOL    HW243467   1.051   8.912   7.610 -0.2468  0.6649 -1.6054
10605SOL     OW43468   0.301   9.496   2.973  0.0922  0.0933 -0.4299
10605SOL    HW143469   0.301   9.456   2.882 -0.5078 -1.1613  0.1172
10605SOL    HW243470   0.236   9.572   2.977  0.1888  0.2103 -1.0597
10606SOL     OW43471   1.608   9.355   7.227  0.5066  0.5237  0.7245
10606SOL    HW143472   1.541   9.287   7.257  1.3027 -0.3515  0.5450
10606SOL    HW243473   1.650   9.398   7.307  0.0768  0.7202  0.8417
10607SOL     OW43474   9.914   8.351   3.425 -0.0614  0.7260 -0.2411
10607SOL    HW143475   9.916   8.265   3.373  2.4644 -0.5615  1.8367
10607SOL    HW243476   9.978   8.416   3.385  1.0923  0.1204  0.6018
10608SOL     OW43477   1.390   3.162   2.459 -0.1588 -0.6967 -0.2923
10608SOL    HW143478   1.469   3.110   2.490 -0.3493 -0.1018  1.2374
10608SOL    HW243479   1.418   3.256   2.438 -0.9980  0.4889  3.4651
10609SOL     OW43480   8.770   0.640   7.945 -0.3688  0.2047  0.4006
10609SOL    HW143481   8.728   0.578   7.879  0.0527  0.8408 -0.4734
10609SOL    HW243482   8.717   0.725   7.949  0.1122  0.5113  0.2318
10610SOL     OW43483   9.257   1.444   6.031 -0.2448 -0.2343  0.1464
10610SOL    HW143484   9.324   1.373   6.010  0.3787  0.6403 -0.8530
10610SOL    HW243485   9.249   1.454   6.130  0.0605 -1.3173  0.2866
10611SOL     OW43486   0.703   7.039   5.791  0.3016  0.0725 -0.0964
10611SOL    HW143487   0.709   7.089   5.877  1.1117 -0.4087  0.1353
10611SOL    HW243488   0.795   7.020   5.757  0.0005 -1.0133 -0.3242
10612SOL     OW43489   7.645   3.519   3.663 -0.4625 -0.0343  0.3315
10612SOL    HW143490   7.684   3.433   3.631 -0.8762 -0.1452  0.1206
10612SOL    HW243491   7.712   3.568   3.719  0.9417  0.9623 -2.0997
10613SOL     OW43492   9.668   7.822   4.619 -0.8175  0.0900  0.0899
10613SOL    HW143493   9.679   7.833   4.718 -2.0290 -0.2548  0.2712
10613SOL    HW243494   9.621   7.736   4.600 -0.1246 -0.0963 -0.8204
10614SOL     OW43495   7.332   5.772   8.063  0.0190 -0.1532  0.0716
10614SOL    HW143496   7.298   5.780   7.970 -1.6388 -1.0215  0.5955
10614SOL    HW243497   7.301   5.851   8.117  0.8559  0.2739 -0.0576
10615SOL     OW43498   9.533   1.904   7.786 -0.0175 -0.6421 -0.2030
10615SOL    HW143499   9.534   1.845   7.705  1.3511 -0.2968 -0.4500
10615SOL    HW243500   9.519   1.848   7.868  4.0009 -1.7187 -0.1480
10616SOL     OW43501   9.225   0.491   7.510 -0.4041 -0.5038 -0.3127
10616SOL    HW143502   9.265   0.514   7.422  1.3735 -2.2630 -0.0005
10616SOL    HW243503   9.161   0.415   7.499  2.6069 -3.2349  0.4236
10617SOL     OW43504   9.092   7.030   2.006  0.0536 -0.8429 -0.1200
10617SOL    HW143505   9.071   7.127   1.996 -0.6860 -0.8822  1.0585
10617SOL    HW243506   9.189   7.015   1.984  0.1254  0.1155 -0.4982
10618SOL     OW43507   0.971   4.817   4.326 -0.6237  0.0929 -0.5053
10618SOL    HW143508   1.067   4.811   4.354 -0.7311  0.2869 -0.0782
10618SOL    HW243509   0.951   4.747   4.257 -0.3616 -0.4454 -0.0452
10619SOL     OW43510   1.879   1.379   3.896  0.2232 -0.1120 -0.0012
10619SOL    HW143511   1.896   1.298   3.951  0.2671 -0.7477 -0.9320
10619SOL    HW243512   1.783   1.406   3.904  0.5372  0.6161  1.4530
10620SOL     OW43513   8.188   0.369   7.364 -0.0158  0.2170 -0.2655
10620SOL    HW143514   8.229   0.278   7.359 -0.2453  0.1577 -1.1263
10620SOL    HW243515   8.171   0.393   7.460 -0.3425 -0.8145 -0.0608
10621SOL     OW43516   4.467   2.910   4.163 -0.2636  0.2180  0.0070
10621SOL    HW143517   4.564   2.903   4.141 -0.6300 -2.0588 -1.0756
10621SOL    HW243518   4.455   2.895   4.261  0.6682  2.9171  0.5810
10622SOL     OW43519   2.818   9.161   4.963 -0.2155  0.4446  0.1399
10622SOL    HW143520   2.734   9.174   4.909 -0.7618 -0.9950  0.6093
10622SOL    HW243521   2.808   9.079   5.020  1.6755  0.0529 -0.0856
10623SOL     OW43522   7.479   5.689   2.351 -0.0894 -0.0316 -0.2058
10623SOL    HW143523   7.473   5.604   2.299  0.0039  0.4168 -0.9607
10623SOL    HW243524   7.573   5.702   2.382 -0.4379 -1.0003  1.2779
10624SOL     OW43525   9.417   9.098   6.920  0.3548 -0.0575  0.2785
10624SOL    HW143526   9.379   9.089   6.828  0.0933  0.2648  0.3536
10624SOL    HW243527   9.369   9.036   6.981  0.2104  0.0634  0.2912
10625SOL     OW43528   7.836   1.417   4.566 -0.2275  0.0544 -0.2960
10625SOL    HW143529   7.871   1.468   4.645  0.5194  1.2398 -1.3789
10625SOL    HW243530   7.768   1.472   4.518 -2.7277 -1.7462  1.0611
10626SOL     OW43531   0.805   8.912   0.565  0.1706  0.2984 -0.2202
10626SOL    HW143532   0.814   8.825   0.516 -1.1693 -0.0397  0.1225
10626SOL    HW243533   0.896   8.953   0.578  0.5759  0.3677 -2.9388
10627SOL     OW43534   0.924   9.530   4.223 -0.3107  0.1460  0.3566
10627SOL    HW143535   0.928   9.585   4.140 -0.3608 -0.4639 -0.0519
10627SOL    HW243536   0.834   9.540   4.266  0.1111  1.3709  0.9624
10628SOL     OW43537   8.336   6.800   2.619  0.0645  0.2657  0.0210
10628SOL    HW143538   8.361   6.704   2.607  0.9303  0.5682 -0.6110
10628SOL    HW243539   8.418   6.857   2.616 -0.5338  1.1174 -0.5508
10629SOL     OW43540   5.174   4.072   7.498 -0.0952  0.5194  0.4805
10629SOL    HW143541   5.124   3.986   7.503 -1.7126  1.4394  0.5625
10629SOL    HW243542   5.272   4.054   7.488 -0.3643 -1.3177  1.0377
10630SOL     OW43543   3.398   1.273   2.226 -0.2541 -0.0442 -0.2439
10630SOL    HW143544   3.489   1.311   2.214 -0.3035 -0.1182 -0.8667
10630SOL    HW243545   3.379   1.207   2.153 -0.5186 -0.5792  0.3049
10631SOL     OW43546   0.399   9.834   1.903  0.2508  0.5803 -0.0965
10631SOL    HW143547   0.490   9.875   1.899  1.5656 -2.3875 -3.6165
10631SOL    HW243548   0.408   9.734   1.903 -2.9993  0.2440 -0.7913
10632SOL     OW43549   2.103   5.536   4.616 -0.1240 -0.2272 -0.7990
10632SOL    HW143550   2.164   5.576   4.684 -1.1179 -0.8037  0.4642
10632SOL    HW243551   2.135   5.445   4.591 -0.0415 -0.2206 -0.7167
10633SOL     OW43552   8.476   5.755   0.254 -0.0862  0.4064  0.0866
10633SOL    HW143553   8.476   5.732   0.351  0.4834 -1.3235 -0.2980
10633SOL    HW243554   8.541   5.697   0.206 -0.2641  1.3381 -1.3165
10634SOL     OW43555   8.838   0.390   5.757 -0.2386  0.0466 -0.0573
10634SOL    HW143556   8.811   0.322   5.689 -3.6138  1.7079 -0.4870
10634SOL    HW243557   8.785   0.376   5.841  0.8838  0.6106  0.7631
10635SOL     OW43558   9.739   7.920   3.701  0.2215 -0.1109 -0.3096
10635SOL    HW143559   9.682   7.922   3.783 -1.3791  2.0020 -1.4187
10635SOL    HW243560   9.835   7.909   3.727 -0.3440 -0.2763  1.7827
10636SOL     OW43561   5.511   1.454   6.285 -0.0889  0.0370  0.1661
10636SOL    HW143562   5.440   1.454   6.214  0.5756 -0.4211 -0.4977
10636SOL    HW243563   5.477   1.405   6.366 -0.5427 -0.1580 -0.1391
10637SOL     OW43564   2.131   0.343   5.553  0.4573 -0.1100  1.2564
10637SOL    HW143565   2.099   0.303   5.639  1.5769 -0.0926  1.6928
10637SOL    HW243566   2.109   0.441   5.552 -1.3988 -0.5058  0.6131
10638SOL     OW43567   9.926   4.336   8.073  0.3134 -0.3493  0.3204
10638SOL    HW143568   9.850   4.358   8.134  0.1009 -0.0738 -0.0410
10638SOL    HW243569   9.918   4.241   8.042 -0.0955 -0.2081 -0.0159
10639SOL     OW43570   2.822   7.582   3.024  0.0099 -0.4998 -0.7550
10639SOL    HW143571   2.842   7.492   2.987  1.1248 -0.6460  0.1610
10639SOL    HW243572   2.724   7.588   3.046  0.1920 -2.0125  0.5461
10640SOL     OW43573   9.426   5.302   0.576 -0.4214 -0.0071  0.5616
10640SOL    HW143574   9.451   5.371   0.644  0.0867 -0.8985  1.2908
10640SOL    HW243575   9.327   5.303   0.564 -0.5214  0.1174  1.3607
10641SOL     OW43576   2.661   5.951   3.911  0.0717 -0.3109  0.4828
10641SOL    HW143577   2.601   5.984   3.983 -1.9916 -0.5990 -1.0514
10641SOL    HW243578   2.754   5.941   3.946 -0.1848  2.7306  2.2032
10642SOL     OW43579   2.493   6.749   1.785  0.1339  0.1255 -0.1671
10642SOL    HW143580   2.474   6.652   1.801  1.3063  0.0771  0.9808
10642SOL    HW243581   2.479   6.770   1.688 -3.0578 -0.5014  0.0822
10643SOL     OW43582   6.113   4.229   0.329  0.2199 -0.4778 -0.3218
10643SOL    HW143583   6.013   4.235   0.337 -0.0875 -1.9550 -2.5812
10643SOL    HW243584   6.145   4.143   0.368  0.5202 -0.3491 -0.2849
10644SOL     OW43585   3.904   8.740   7.869 -0.5135 -0.2194  1.3371
10644SOL    HW143586   3.826   8.717   7.810  1.3087 -0.4583 -1.0926
10644SOL    HW243587   3.930   8.660   7.923 -0.1170 -1.0507 -0.0588
10645SOL     OW43588   9.587   5.102   3.858  0.0398 -0.2623  0.5810
10645SOL    HW143589   9.549   5.048   3.933  1.9973 -2.4504  0.0785
10645SOL    HW243590   9.685   5.082   3.849 -0.0001  0.4784 -2.0794
10646SOL     OW43591   2.407   0.447   1.637  0.3862 -0.4178  0.2093
10646SOL    HW143592   2.431   0.521   1.700  0.7448  0.2157 -0.6601
10646SOL    HW243593   2.487   0.390   1.620  0.9232  0.8050 -1.5066
10647SOL     OW43594   9.306   4.175   7.991 -0.4670 -0.2625  0.8018
10647SOL    HW143595   9.296   4.270   7.963 -2.0874 -0.8276 -0.6516
10647SOL    HW243596   9.248   4.157   8.071  0.3431  0.1200  1.4839
10648SOL     OW43597   3.234   5.549   5.357  0.1468  0.1208 -0.0154
10648SOL    HW143598   3.213   5.471   5.297  0.1550 -0.5741  0.8678
10648SOL    HW243599   3.222   5.634   5.307  2.2800 -0.5031 -1.6953
10649SOL     OW43600   7.641   3.579   3.075 -0.2711 -0.0859  0.0094
10649SOL    HW143601   7.601   3.579   3.167 -0.8305  2.9056 -0.2036
10649SOL    HW243602   7.575   3.542   3.010 -0.7563 -0.0177  0.4583
10650SOL     OW43603   3.329   3.907   0.728 -0.1807 -0.0312 -0.6764
10650SOL    HW143604   3.328   3.809   0.708 -1.5597 -0.1643 -0.0153
10650SOL    HW243605   3.264   3.926   0.801 -0.7155  1.5259 -1.5401
10651SOL     OW43606   4.169   2.507   4.828 -0.3004 -0.1697  0.4030
10651SOL    HW143607   4.265   2.523   4.803 -0.4123  1.3818  0.8633
10651SOL    HW243608   4.132   2.432   4.773  0.6511  0.4375 -1.1221
10652SOL     OW43609   2.553   6.309   2.434 -0.4213 -0.0853 -0.2821
10652SOL    HW143610   2.574   6.244   2.508  0.2767  2.2135  1.6197
10652SOL    HW243611   2.483   6.374   2.466  0.0942  1.1056 -1.5364
10653SOL     OW43612   8.566   6.315   4.271  0.2802 -0.1036  0.5148
10653SOL    HW143613   8.531   6.228   4.235 -1.8273  1.9358 -2.5837
10653SOL    HW243614   8.559   6.314   4.371 -1.2042 -2.8567  0.4554
10654SOL     OW43615   2.705   4.911   4.103 -0.2338 -0.0138 -0.1941
10654SOL    HW143616   2.620   4.947   4.064  0.3713  0.4768 -1.0720
10654SOL    HW243617   2.746   4.979   4.163  0.9752  0.8316 -1.9521
10655SOL     OW43618   2.054   3.453   3.678  0.0036 -0.0673  0.1383
10655SOL    HW143619   1.996   3.451   3.597 -1.8721  0.3196  1.4332
10655SOL    HW243620   2.099   3.365   3.690  0.8678  0.1173 -1.7221
10656SOL     OW43621   4.732   1.379   4.417 -0.5053 -0.8661  0.0960
10656SOL    HW143622   4.738   1.349   4.512  1.8169 -0.3263  0.1492
10656SOL    HW243623   4.711   1.476   4.413 -2.4936 -1.2896  0.0147
10657SOL     OW43624   9.878   3.050   3.367 -0.4831  0.5614  0.1698
10657SOL    HW143625   9.797   2.992   3.362  0.1940 -0.4254  0.3601
10657SOL    HW243626   9.910   3.054   3.462 -0.3758  1.0382  0.1148
10658SOL     OW43627   1.866   8.059   7.319 -0.0617  0.4541 -0.3111
10658SOL    HW143628   1.804   8.079   7.243 -1.1145  1.1397  0.7373
10658SOL    HW243629   1.873   8.138   7.379  0.9021 -0.0344  0.2417
10659SOL     OW43630   4.715   0.755   5.495  0.1242  0.4932  0.3691
10659SOL    HW143631   4.748   0.663   5.514  0.5976  0.1239 -2.0835
10659SOL    HW243632   4.617   0.759   5.510  0.3898  0.1139  2.3288
10660SOL     OW43633   7.573   9.093   5.062 -0.3455 -0.2184  0.2668
10660SOL    HW143634   7.575   9.128   4.969  0.7741 -0.8033  0.0529
10660SOL    HW243635   7.488   9.121   5.107 -0.3920  1.0146 -0.5544
10661SOL     OW43636   3.672   1.400   1.112 -0.0410  0.0486  0.6422
10661SOL    HW143637   3.699   1.396   1.208  0.8092 -0.3517  0.3882
10661SOL    HW243638   3.599   1.334   1.094 -1.0897  1.0073  1.2897
10662SOL     OW43639   2.183   8.097   3.480  0.0241 -0.3015 -0.4964
10662SOL    HW143640   2.245   8.074   3.556  0.6470  0.8277 -0.6493
10662SOL    HW243641   2.139   8.014   3.448  0.7725 -0.9990  0.2267
10663SOL     OW43642   0.337   9.331   2.750  0.8032 -0.8282 -0.4755
10663SOL    HW143643   0.298   9.239   2.745  2.6150 -1.7013  0.8503
10663SOL    HW243644   0.432   9.325   2.781  0.3453  1.6416  1.5548
10664SOL     OW43645   5.081   1.647   6.263  0.1101 -0.4302 -0.6643
10664SOL    HW143646   5.091   1.658   6.361  1.3159  0.1885 -0.8506
10664SOL    HW243647   5.146   1.706   6.215 -0.9936 -0.1369 -1.8495
10665SOL     OW43648   3.952   8.720   2.059 -0.0724 -0.0106 -0.5679
10665SOL    HW143649   4.004   8.640   2.087  1.9029  1.6127  0.5806
10665SOL    HW243650   4.013   8.785   2.013 -1.7092  0.7068 -1.7966
10666SOL     OW43651   8.868   5.538   3.728  0.0126  0.4637  0.2195
10666SOL    HW143652   8.780   5.531   3.681 -0.3483  1.3812  0.7507
10666SOL    HW243653   8.857   5.594   3.810  1.2920  1.3411 -0.1997
10667SOL     OW43654   1.931   9.760   2.431  0.3178  0.3239  0.0448
10667SOL    HW143655   2.022   9.721   2.426 -0.1129 -1.0957  2.3350
10667SOL    HW243656   1.913   9.814   2.349  2.2781 -1.3697 -1.5566
10668SOL     OW43657   4.204   6.095   0.413  0.1821  0.6432  0.3607
10668SOL    HW143658   4.270   6.021   0.426 -1.0662 -0.6329 -0.3865
10668SOL    HW243659   4.211   6.160   0.489  2.1160  0.3943  0.3981
10669SOL     OW43660   8.396   2.305   0.186 -0.7060  0.0184  0.2326
10669SOL    HW143661   8.419   2.327   0.092  0.6817 -0.6441  0.4037
10669SOL    HW243662   8.331   2.372   0.222 -0.2460  0.9996 -0.7747
10670SOL     OW43663   4.391   8.115   0.698 -0.2300 -0.0460 -0.1655
10670SOL    HW143664   4.468   8.143   0.641 -0.5615  0.4710 -0.3705
10670SOL    HW243665   4.319   8.185   0.694  0.5739  1.0112  2.4964
10671SOL     OW43666   1.956   9.659   4.052 -0.2527 -0.1876  0.1010
10671SOL    HW143667   1.896   9.738   4.040 -2.2514 -1.6794 -0.0054
10671SOL    HW243668   2.029   9.682   4.116 -1.6828  1.2819  1.2497
10672SOL     OW43669   0.295   0.412   1.976 -0.2465 -0.1670 -0.6376
10672SOL    HW143670   0.245   0.388   1.893  0.5466 -0.6361 -0.9861
10672SOL    HW243671   0.251   0.490   2.019 -1.6255 -0.9270 -0.6232
10673SOL     OW43672   1.435   9.311   2.373 -0.5870 -0.1411 -0.0421
10673SOL    HW143673   1.458   9.239   2.439  2.0930  3.1996  2.8708
10673SOL    HW243674   1.359   9.366   2.409  0.2747  1.1381 -0.1327
10674SOL     OW43675   8.550   6.818   1.404  0.1082  0.0954 -0.0345
10674SOL    HW143676   8.509   6.832   1.494 -1.6320  0.0265 -0.7921
10674SOL    HW243677   8.529   6.895   1.344  2.2342  0.6899 -0.0617
10675SOL     OW43678   8.091   5.448   1.904  0.3392  0.0651  0.6102
10675SOL    HW143679   8.089   5.525   1.840 -0.6181 -0.5087 -0.0628
10675SOL    HW243680   8.010   5.452   1.963 -0.0796 -0.7999  0.1091
10676SOL     OW43681   7.542   9.134   3.962  0.6515 -0.2933 -0.4665
10676SOL    HW143682   7.482   9.208   3.934  1.8230  0.5743 -0.7005
10676SOL    HW243683   7.549   9.133   4.062 -0.2588 -0.8175 -0.3957
10677SOL     OW43684   4.492   4.733   4.031  0.0395  0.4371  0.4543
10677SOL    HW143685   4.401   4.707   3.999  0.5768 -0.6509 -0.2326
10677SOL    HW243686   4.516   4.824   3.998 -0.3515  0.2696 -0.2797
10678SOL     OW43687   7.155   8.058   4.941  0.1823  0.4132  0.3456
10678SOL    HW143688   7.192   8.033   5.030  1.0679 -1.9371 -0.6622
10678SOL    HW243689   7.086   7.991   4.913  1.2486  0.0610 -1.5583
10679SOL     OW43690   9.217   8.196   4.057 -0.0510 -0.4506  0.2609
10679SOL    HW143691   9.133   8.250   4.061 -0.2674 -0.6706 -1.0499
10679SOL    HW243692   9.294   8.256   4.040 -0.2175 -0.4771 -0.6183
10680SOL     OW43693   8.577   8.618   3.505  0.6994 -0.2568  0.6875
10680SOL    HW143694   8.555   8.521   3.497  2.6711 -0.8652  2.2542
10680SOL    HW243695   8.495   8.668   3.533 -0.0642 -1.6283  0.9447
10681SOL     OW43696   2.326   4.647   0.708 -0.4657  1.1763  0.2497
10681SOL    HW143697   2.242   4.701   0.699  0.3355  2.7607  1.8337
10681SOL    HW243698   2.307   4.567   0.765 -1.4971  0.1423 -1.5237
10682SOL     OW43699   7.675   2.470   3.075 -0.3056 -0.4908 -0.5721
10682SOL    HW143700   7.584   2.460   3.034  0.0865 -1.9874 -1.0780
10682SOL    HW243701   7.745   2.447   3.008  0.4402  0.0091  0.0261
10683SOL     OW43702   5.255   0.611   3.120 -0.3320 -0.2071 -0.1223
10683SOL    HW143703   5.342   0.585   3.078  0.0129  0.8539 -0.0770
10683SOL    HW243704   5.212   0.683   3.065 -0.2508  0.6467  0.9293
10684SOL     OW43705   3.991   7.373   2.084  0.0014  0.4669  0.2671
10684SOL    HW143706   3.962   7.311   2.012  1.4608  0.3402 -0.2276
10684SOL    HW243707   3.946   7.462   2.072  1.2276  0.8552 -1.5552
10685SOL     OW43708   8.678   1.667   7.697 -0.8677 -0.6015 -0.2587
10685SOL    HW143709   8.648   1.618   7.615 -0.2372 -0.0133 -0.8500
10685SOL    HW243710   8.600   1.710   7.740 -1.5416 -2.6442  0.6307
10686SOL     OW43711   1.605   2.911   3.617 -0.4445  0.0356 -0.1555
10686SOL    HW143712   1.690   2.963   3.612 -0.7394  0.7469  1.6299
10686SOL    HW243713   1.536   2.966   3.664 -0.7678 -1.9205  1.7448
10687SOL     OW43714   8.610   0.581   3.272  0.4568 -0.2948 -0.4768
10687SOL    HW143715   8.577   0.673   3.254 -0.1982 -0.5179 -0.4399
10687SOL    HW243716   8.547   0.534   3.334  0.5597 -0.9068 -0.8291
10688SOL     OW43717   9.770   8.612   6.736  0.0414  0.4244 -0.2303
10688SOL    HW143718   9.827   8.575   6.663  1.1717  2.1739 -0.2495
10688SOL    HW243719   9.713   8.686   6.700  1.4387  2.0755  0.8646
10689SOL     OW43720   3.986   2.283   5.218 -0.2686 -0.0559  0.1314
10689SOL    HW143721   3.891   2.299   5.193 -0.0131  0.8407 -0.2636
10689SOL    HW243722   4.033   2.370   5.233  0.8266 -0.4294 -0.9651
10690SOL     OW43723   0.416   7.506   7.736 -0.3953  0.0673 -0.2029
10690SOL    HW143724   0.401   7.477   7.642  2.4904  0.5255 -0.8454
10690SOL    HW243725   0.403   7.605   7.744  1.4787  0.3687 -0.6260
10691SOL     OW43726   1.680   7.545   7.517  0.0090 -0.6264  0.3167
10691SOL    HW143727   1.657   7.530   7.421  1.3857  0.2510 -0.1600
10691SOL    HW243728   1.692   7.457   7.562  0.2474 -1.0340 -0.5261
10692SOL     OW43729   3.870   7.462   3.893 -0.5004 -0.0228  0.2097
10692SOL    HW143730   3.821   7.419   3.818  0.4507 -0.9944  0.1342
10692SOL    HW243731   3.849   7.560   3.895 -1.4073 -0.1965 -0.6174
10693SOL     OW43732   7.878   0.930   7.330  0.7540  0.3388  0.3126
10693SOL    HW143733   7.973   0.955   7.313  0.4660  1.8224  0.8687
10693SOL    HW243734   7.875   0.841   7.376  1.8409  0.0616 -0.1265
10694SOL     OW43735   3.922   1.095   7.261 -0.2401 -0.6675 -0.2155
10694SOL    HW143736   3.899   1.026   7.192 -1.3631 -2.3350  1.7691
10694SOL    HW243737   4.010   1.071   7.303  0.6280  0.5538 -1.3087
10695SOL     OW43738   3.458   9.306   4.795  0.2528 -0.2362 -0.0126
10695SOL    HW143739   3.378   9.340   4.843 -0.3783 -0.6743 -0.7436
10695SOL    HW243740   3.475   9.363   4.714 -1.3248 -2.1154 -1.7322
10696SOL     OW43741   9.309   7.765   1.588  0.3076 -0.0593  0.4408
10696SOL    HW143742   9.259   7.735   1.507 -0.7301 -0.0679  1.0763
10696SOL    HW243743   9.396   7.804   1.561  0.3169 -0.8034 -0.6248
10697SOL     OW43744   3.988   1.356   0.207  0.0868  0.1021  0.4934
10697SOL    HW143745   3.941   1.398   0.285 -0.2156 -1.1547  1.0041
10697SOL    HW243746   4.086   1.352   0.226 -0.1044 -1.1070  1.2429
10698SOL     OW43747   6.618   1.240   0.202  0.1050  0.0403  0.1936
10698SOL    HW143748   6.634   1.163   0.140 -0.4333  0.2743 -0.2385
10698SOL    HW243749   6.541   1.220   0.262 -0.8962  0.7817 -0.8268
10699SOL     OW43750   3.731   1.917   1.510 -0.3225 -0.0531  0.3498
10699SOL    HW143751   3.825   1.910   1.541  0.2484  0.0341 -1.2911
10699SOL    HW243752   3.724   1.883   1.416 -1.7897  0.5661  0.2157
10700SOL     OW43753   3.675   6.997   5.839 -0.0091  0.1169  0.2882
10700SOL    HW143754   3.762   7.026   5.800 -0.9158  0.8762 -1.1877
10700SOL    HW243755   3.683   6.995   5.939  1.4927  0.8010  0.1942
10701SOL     OW43756   4.641   5.308   1.584  0.1700 -0.0579  0.1237
10701SOL    HW143757   4.629   5.388   1.642  0.7771 -0.8921  1.4139
10701SOL    HW243758   4.623   5.333   1.489  1.4159  1.8727  0.3657
10702SOL     OW43759   6.058   5.696   1.407 -0.2086  0.3042  0.7280
10702SOL    HW143760   6.105   5.702   1.319 -0.1917  0.4765  0.7474
10702SOL    HW243761   5.969   5.651   1.395  0.0223 -0.1487  0.7178
10703SOL     OW43762   7.606   8.074   2.858 -0.3223 -0.7350  0.0492
10703SOL    HW143763   7.579   8.124   2.941  3.1045 -1.1089  1.4592
10703SOL    HW243764   7.602   8.136   2.779 -2.0108  0.0689  0.7248
10704SOL     OW43765   7.974   1.330   0.490 -0.4232  0.5024  0.3554
10704SOL    HW143766   8.017   1.246   0.455 -1.6454  0.9473 -2.3382
10704SOL    HW243767   7.881   1.310   0.520  0.2562  0.3486  2.4967
10705SOL     OW43768   8.886   5.041   5.264  0.2145 -0.6271  0.6548
10705SOL    HW143769   8.854   4.963   5.210  1.1855 -0.4614 -0.1695
10705SOL    HW243770   8.809   5.080   5.315 -0.4696 -1.5118  0.3107
10706SOL     OW43771   0.005   4.899   5.687 -0.2624 -0.8769 -0.0810
10706SOL    HW143772  -0.080   4.947   5.708 -0.2511 -0.0523 -1.8629
10706SOL    HW243773  -0.014   4.823   5.625  0.3361 -0.5322 -0.6869
10707SOL     OW43774   8.241   7.319   4.888 -0.1978  0.4466 -0.0596
10707SOL    HW143775   8.158   7.263   4.897 -0.4432  0.6545 -1.0267
10707SOL    HW243776   8.219   7.401   4.837  0.3107  1.1456  0.8351
10708SOL     OW43777   5.849   3.915   7.969 -0.0199 -0.6583  0.2310
10708SOL    HW143778   5.880   3.824   7.994  1.3304 -0.9031 -2.1186
10708SOL    HW243779   5.774   3.944   8.029  0.2241 -2.8807  1.6273
10709SOL     OW43780   3.344   0.651   0.790  0.4070  0.3061 -0.2960
10709SOL    HW143781   3.422   0.700   0.828 -0.6577  0.9603  1.1001
10709SOL    HW243782   3.280   0.716   0.749 -0.2711 -0.0369  0.1940
10710SOL     OW43783   0.039   5.164   0.374  0.0421  0.4984  0.3570
10710SOL    HW143784  -0.036   5.119   0.423 -0.4045  1.8334  0.9298
10710SOL    HW243785   0.084   5.229   0.436  1.4885 -0.0797 -0.0734
10711SOL     OW43786   0.590   4.162   1.969  0.6795  0.5691  0.5881
10711SOL    HW143787   0.541   4.230   1.915  0.9158  0.2634 -0.0141
10711SOL    HW243788   0.541   4.075   1.964  0.4160  0.6737  1.2969
10712SOL     OW43789   9.023   0.723   7.909 -0.0187 -0.1098  0.1779
10712SOL    HW143790   8.931   0.694   7.931 -0.4638  0.2391 -1.1506
10712SOL    HW243791   9.079   0.644   7.885 -0.1232 -0.2629  0.4378
10713SOL     OW43792   8.811   9.566   1.720  0.8151  0.3364  0.2083
10713SOL    HW143793   8.753   9.616   1.656  1.5065 -0.3914 -0.9953
10713SOL    HW243794   8.786   9.590   1.814  0.2001  1.8669 -0.3410
10714SOL     OW43795   1.894   7.197   7.185  0.2509  0.2547  0.0794
10714SOL    HW143796   1.906   7.100   7.161  3.1475  1.3605 -3.5006
10714SOL    HW243797   1.961   7.223   7.254 -0.9348 -0.4238  1.4945
10715SOL     OW43798   2.421   6.250   2.937 -0.0321  0.1255 -0.0490
10715SOL    HW143799   2.500   6.258   2.998 -0.1193  0.2180  0.0511
10715SOL    HW243800   2.401   6.339   2.896 -1.0668  0.4463  1.1477
10716SOL     OW43801   7.480   0.947   1.950  0.3055 -0.1356  0.2313
10716SOL    HW143802   7.438   0.856   1.960  2.4519 -1.1117  0.5510
10716SOL    HW243803   7.557   0.955   2.012  2.4872  0.5026 -2.4643
10717SOL     OW43804   6.689   1.452   3.094  0.3232 -0.0633  0.6615
10717SOL    HW143805   6.772   1.409   3.057  1.6494  1.3517  1.8984
10717SOL    HW243806   6.652   1.515   3.027  1.6028  1.0418  0.9641
10718SOL     OW43807   8.340   3.253   3.743 -0.5718  0.2723 -0.2506
10718SOL    HW143808   8.253   3.283   3.782  0.3434  0.5283  1.6612
10718SOL    HW243809   8.390   3.332   3.707 -0.8052  0.2316 -0.6590
10719SOL     OW43810   7.816   7.543   6.178 -0.0231  0.0420 -0.0402
10719SOL    HW143811   7.841   7.613   6.245  0.3825  0.5410 -0.7025
10719SOL    HW243812   7.765   7.471   6.223  0.7779  0.0667  0.9351
10720SOL     OW43813   4.260   9.918   3.103 -0.4542  0.6447  0.6617
10720SOL    HW143814   4.309   9.988   3.052  0.0003  1.8648  2.7173
10720SOL    HW243815   4.291   9.919   3.198 -0.4521 -2.3426  0.7369
10721SOL     OW43816   7.548   1.301   4.688 -0.4376 -0.2856  0.2955
10721SOL    HW143817   7.607   1.382   4.691 -0.3693 -0.3209 -0.0458
10721SOL    HW243818   7.596   1.223   4.729 -0.0817 -0.4164 -0.3579
10722SOL     OW43819   4.546   7.766   5.233 -0.2450 -0.3094  0.1515
10722SOL    HW143820   4.472   7.724   5.181 -0.4363  0.9094 -0.5722
10722SOL    HW243821   4.593   7.833   5.175 -0.0506  0.5899  1.3389
10723SOL     OW43822   8.745   6.106   3.543 -0.2483 -0.1486 -0.2809
10723SOL    HW143823   8.676   6.165   3.503 -1.5211 -1.0395  0.5632
10723SOL    HW243824   8.797   6.061   3.471  0.1568  1.3015 -0.9210
10724SOL     OW43825   0.485   4.367   2.434 -0.0796 -0.0908 -0.0631
10724SOL    HW143826   0.551   4.338   2.364  0.5855 -0.3314  0.6630
10724SOL    HW243827   0.410   4.416   2.389  0.2617 -0.3756 -0.9692
10725SOL     OW43828   2.718   3.124   5.183  0.4015 -1.0066 -0.2798
10725SOL    HW143829   2.691   3.120   5.279  2.0294 -1.5556  0.1813
10725SOL    HW243830   2.794   3.189   5.173  0.7014 -1.4742 -1.0685
10726SOL     OW43831   3.864   0.942   7.004  0.1215 -0.4890 -0.3804
10726SOL    HW143832   3.924   0.868   6.975 -1.9787 -1.3273 -2.7608
10726SOL    HW243833   3.901   1.029   6.974  1.0687 -0.8364 -0.2245
10727SOL     OW43834   3.147   8.865   4.610 -0.1607 -0.6704  0.0137
10727SOL    HW143835   3.189   8.783   4.571 -1.3089 -0.9203 -0.7301
10727SOL    HW243836   3.217   8.923   4.650  0.6657 -2.0447  0.6065
10728SOL     OW43837   3.600   0.234   5.332  0.4608  0.1762  0.1580
10728SOL    HW143838   3.651   0.236   5.245 -2.2810  0.1320 -1.4910
10728SOL    HW243839   3.637   0.305   5.393  0.5802  2.1537 -2.1101
10729SOL     OW43840   3.134   2.820   6.322 -0.1306  0.6103 -0.1531
10729SOL    HW143841   3.233   2.829   6.307  0.3513 -0.5167  2.2339
10729SOL    HW243842   3.103   2.730   6.291 -0.1104  0.3461  0.5881
10730SOL     OW43843   2.437   9.471   2.977 -0.3193 -0.3796  0.7864
10730SOL    HW143844   2.530   9.505   2.990 -0.1582 -0.8283  0.8295
10730SOL    HW243845   2.385   9.483   3.061 -0.3031 -0.1293  0.7631
10731SOL     OW43846   4.100   2.101   2.150 -0.3370  0.2713 -0.3523
10731SOL    HW143847   4.017   2.156   2.137  0.1066  1.3633  1.2489
10731SOL    HW243848   4.074   2.010   2.183 -0.9901  0.0271 -1.5118
10732SOL     OW43849   2.281   5.796   8.008  0.3388 -0.1113 -0.5871
10732SOL    HW143850   2.254   5.719   7.951 -1.2858  1.1935 -1.6212
10732SOL    HW243851   2.333   5.763   8.087 -1.1559 -2.3391 -0.5036
10733SOL     OW43852   6.972   4.460   1.668 -0.3942  0.7130  0.4235
10733SOL    HW143853   6.979   4.404   1.585 -0.2003 -0.1913  1.0339
10733SOL    HW243854   7.057   4.511   1.682 -0.1548  0.3142  0.4404
10734SOL     OW43855   1.258   3.373   2.231  0.3700  0.0706  0.0574
10734SOL    HW143856   1.200   3.309   2.180 -0.4901  1.3586 -0.6387
10734SOL    HW243857   1.207   3.409   2.309  1.6187 -1.7433  1.7290
10735SOL     OW43858   9.912   8.148   7.536  0.1883 -0.2522  0.3946
10735SOL    HW143859   9.904   8.153   7.636 -0.9872 -0.5478  0.3169
10735SOL    HW243860   9.997   8.192   7.508 -1.1369  2.9749  1.2326
10736SOL     OW43861   0.260   8.975   2.271 -0.5532  0.0397  0.3938
10736SOL    HW143862   0.225   8.989   2.178 -1.4098  0.9047  0.8366
10736SOL    HW243863   0.198   8.915   2.321 -0.4271  0.0820  0.6030
10737SOL     OW43864   7.436   7.551   7.154  0.3132 -0.3161 -0.0665
10737SOL    HW143865   7.513   7.615   7.153  0.4452 -0.4762 -1.6555
10737SOL    HW243866   7.471   7.457   7.143 -0.1292 -0.3492 -1.2808
10738SOL     OW43867   3.996   9.969   7.180 -0.1201 -0.2091  0.4751
10738SOL    HW143868   3.988   9.885   7.235 -1.8891  0.0969  0.7228
10738SOL    HW243869   3.954  10.045   7.229  0.1930  0.5229 -0.3784
10739SOL     OW43870   0.647   4.596   5.392 -0.3782  0.0708 -0.3517
10739SOL    HW143871   0.650   4.694   5.412  0.4133  0.6942 -3.2785
10739SOL    HW243872   0.734   4.555   5.416 -0.1907  0.3770 -0.5010
10740SOL     OW43873   1.795   8.574   6.374 -0.0029 -0.1441 -0.1783
10740SOL    HW143874   1.840   8.613   6.293 -1.0329 -0.3977 -0.8690
10740SOL    HW243875   1.734   8.643   6.414  0.7465  0.0925  0.5836
10741SOL     OW43876   1.743   3.204   3.754 -0.3930 -0.0976  0.3303
10741SOL    HW143877   1.720   3.201   3.851  0.3830  1.5919  0.5922
10741SOL    HW243878   1.717   3.293   3.716 -0.5861 -0.7064 -0.9849
10742SOL     OW43879   5.474   4.667   7.372  0.0582 -0.4279 -0.4596
10742SOL    HW143880   5.548   4.709   7.319  0.9055 -1.9307 -0.5019
10742SOL    HW243881   5.496   4.571   7.389 -0.8689 -0.3202  1.4277
10743SOL     OW43882   7.347   2.146   4.845  0.3136 -0.1504 -0.4038
10743SOL    HW143883   7.294   2.084   4.788 -0.3866 -0.5928  0.7019
10743SOL    HW243884   7.432   2.100   4.874 -0.2058 -0.6122  0.4162
10744SOL     OW43885   8.227   5.622   5.154 -0.3837 -0.1285 -0.4566
10744SOL    HW143886   8.308   5.609   5.096 -0.3706 -0.0511 -0.4559
10744SOL    HW243887   8.202   5.534   5.196  0.9721  0.2526  1.2181
10745SOL     OW43888   0.356   1.699   3.018  0.6653  1.1828 -0.1286
10745SOL    HW143889   0.392   1.623   2.965 -0.0973  0.3962  0.4678
10745SOL    HW243890   0.272   1.733   2.976  0.8025  1.4562 -0.1869
10746SOL     OW43891   8.508   9.577   5.928  0.8504  0.2042  0.1128
10746SOL    HW143892   8.411   9.600   5.919  1.4363  3.3142  1.3283
10746SOL    HW243893   8.526   9.544   6.020  0.9465 -0.6302 -0.1925
10747SOL     OW43894   8.871   7.779   8.040  0.1558  0.0549 -0.1413
10747SOL    HW143895   8.924   7.778   8.124 -0.5211  0.5237  0.3009
10747SOL    HW243896   8.930   7.755   7.963  0.8730  0.0259  0.4095
10748SOL     OW43897   4.950   7.202   2.525 -0.4702  0.1788  0.2599
10748SOL    HW143898   5.038   7.249   2.534 -0.2887 -0.2311  0.6251
10748SOL    HW243899   4.912   7.186   2.615 -1.4344  1.3180  0.0675
10749SOL     OW43900   2.680   7.050   1.669 -0.2760 -0.0451  0.2174
10749SOL    HW143901   2.636   6.988   1.604  0.3254  0.9641 -1.1776
10749SOL    HW243902   2.736   7.116   1.619  0.4131  0.5752  1.7907
10750SOL     OW43903   7.439   7.584   5.687 -0.4761  0.4674  0.3122
10750SOL    HW143904   7.361   7.572   5.748  0.8096  0.9551  2.0960
10750SOL    HW243905   7.510   7.516   5.708  0.2097  0.9822 -0.2706
10751SOL     OW43906   8.217   4.223   4.014  0.0963  0.3630 -0.4842
10751SOL    HW143907   8.134   4.277   4.020  0.5576  1.1878 -1.3477
10751SOL    HW243908   8.207   4.138   4.067 -0.7254  1.1691  0.6523
10752SOL     OW43909   1.121   1.166   6.856  0.3708 -0.7008 -0.5128
10752SOL    HW143910   1.149   1.229   6.784  0.9713  0.5927  0.8181
10752SOL    HW243911   1.200   1.145   6.915 -0.1390 -1.6337 -0.1444
10753SOL     OW43912   8.588   4.051   4.045  0.4504  0.3080  0.4929
10753SOL    HW143913   8.559   4.146   4.036 -0.7974 -0.1265 -0.1894
10753SOL    HW243914   8.688   4.046   4.041  0.5435  1.6261  0.9461
10754SOL     OW43915   0.863   4.839   5.460 -0.2559  0.1148 -0.4491
10754SOL    HW143916   0.810   4.817   5.543  2.9864  0.1018  1.7306
10754SOL    HW243917   0.880   4.937   5.457  1.3973 -0.1504  0.0267
10755SOL     OW43918   1.350   5.948   7.733 -0.6229 -0.0217  0.1407
10755SOL    HW143919   1.290   6.006   7.677 -0.1134 -0.0840 -0.4645
10755SOL    HW243920   1.383   5.872   7.679  1.1664  0.7954  0.0691
10756SOL     OW43921   3.508   6.612   1.635  0.2988  0.5127  0.8415
10756SOL    HW143922   3.462   6.543   1.579 -0.6637  0.2580  1.9224
10756SOL    HW243923   3.547   6.568   1.716  2.0587  0.8069  0.1659
10757SOL     OW43924   3.101   7.883   6.508 -0.1609  0.5989 -0.0080
10757SOL    HW143925   3.195   7.888   6.475 -0.8217 -0.2162 -2.0518
10757SOL    HW243926   3.098   7.823   6.588  0.9167 -0.0009 -0.4021
10758SOL     OW43927   2.860   8.134   4.480 -0.5190 -0.0318 -0.0496
10758SOL    HW143928   2.796   8.061   4.503  0.2871 -0.0452  2.2916
10758SOL    HW243929   2.949   8.094   4.458  0.2540  0.2608  2.4014
10759SOL     OW43930   8.972   5.054   3.083  0.3806  0.7532 -0.2201
10759SOL    HW143931   8.928   5.033   2.996 -0.9755  1.0756  0.3718
10759SOL    HW243932   8.912   5.029   3.158  1.0751  1.4960  0.6078
10760SOL     OW43933   8.524   6.737   4.353 -0.0573 -0.2758  0.1612
10760SOL    HW143934   8.621   6.734   4.328 -0.0006 -1.4846  0.5042
10760SOL    HW243935   8.510   6.690   4.440 -0.5766  2.0849  1.4108
10761SOL     OW43936   8.988   0.353   1.271  0.3972 -0.0176 -0.0508
10761SOL    HW143937   8.891   0.376   1.262  0.2273 -0.2030  1.3306
10761SOL    HW243938   8.997   0.263   1.314  1.2027  0.5540  0.9886
10762SOL     OW43939   7.832   1.383   7.817  0.2123 -0.2607  0.5443
10762SOL    HW143940   7.894   1.458   7.795 -0.3805  0.0503 -0.1327
10762SOL    HW243941   7.743   1.400   7.773  0.0580 -1.3375  0.4264
10763SOL     OW43942   3.823   2.033   0.137  0.0298  0.2220 -0.2530
10763SOL    HW143943   3.877   2.037   0.053  0.5793 -1.0803  0.0365
10763SOL    HW243944   3.768   1.950   0.138  0.4646 -0.0655  0.9343
10764SOL     OW43945   1.024   8.987   7.309 -0.4712  0.3634  0.0510
10764SOL    HW143946   0.991   9.019   7.219  0.7627  0.6061 -0.3230
10764SOL    HW243947   0.960   9.017   7.380 -0.3401  2.0487 -0.5117
10765SOL     OW43948   1.030   0.790   6.530 -0.1973 -0.2564 -0.7326
10765SOL    HW143949   1.003   0.860   6.597  1.6902 -1.6647  1.5829
10765SOL    HW243950   0.954   0.727   6.516 -0.6054  0.0236  0.1366
10766SOL     OW43951   0.532   8.836   4.931  0.9146 -0.4232 -0.2523
10766SOL    HW143952   0.467   8.857   5.004 -0.6168 -0.1417 -1.6588
10766SOL    HW243953   0.491   8.859   4.843  3.2224  0.4822 -1.1384
10767SOL     OW43954   2.985   2.577   8.140  0.5130  1.0648  0.2170
10767SOL    HW143955   2.999   2.550   8.236  0.0770 -0.0949 -0.0451
10767SOL    HW243956   3.053   2.646   8.116  0.7644  1.2184  1.3066
10768SOL     OW43957   9.643   7.218   2.137 -0.1301 -0.2756  0.2669
10768SOL    HW143958   9.621   7.242   2.043  1.9725 -0.1602 -0.2158
10768SOL    HW243959   9.668   7.121   2.142 -1.4002 -0.5893  0.9359
10769SOL     OW43960   0.213   4.922   6.911  0.3550 -1.0765 -0.3516
10769SOL    HW143961   0.219   4.822   6.906 -0.5261 -1.1683  0.1875
10769SOL    HW243962   0.151   4.955   6.841  0.6105 -0.9108 -0.4999
10770SOL     OW43963   4.636   0.737   1.963  0.1761  0.0504  0.0405
10770SOL    HW143964   4.603   0.689   1.882  1.0291  0.1484 -0.3669
10770SOL    HW243965   4.619   0.681   2.044  2.2204 -1.4808 -0.5497
10771SOL     OW43966   8.818   1.284   6.951 -0.3203 -0.0409  0.4979
10771SOL    HW143967   8.760   1.206   6.977  0.7925 -1.3616 -0.8676
10771SOL    HW243968   8.843   1.336   7.033 -1.7603 -0.6453  1.3306
10772SOL     OW43969   8.991   0.012   3.768 -0.1245 -0.0955  0.4197
10772SOL    HW143970   9.076  -0.023   3.806 -0.0760 -0.6168 -0.1758
10772SOL    HW243971   9.012   0.084   3.701 -0.1802  0.1736  0.6855
10773SOL     OW43972   0.200   3.612   3.142  0.1136  0.3377 -0.3309
10773SOL    HW143973   0.207   3.642   3.237  0.0967  0.0475 -0.2382
10773SOL    HW243974   0.288   3.578   3.111 -0.2107 -0.8670  0.0193
10774SOL     OW43975   0.877   3.893   2.060  0.3991  0.3336  1.1254
10774SOL    HW143976   0.818   3.934   2.130 -2.1473 -0.6071 -0.4121
10774SOL    HW243977   0.897   3.799   2.084  1.5584  0.7577  1.8197
10775SOL     OW43978   2.059   2.762   4.047  0.3104 -0.0047 -0.1427
10775SOL    HW143979   2.159   2.767   4.054  0.4638  1.7851 -2.7534
10775SOL    HW243980   2.032   2.775   3.952 -2.4694  0.5300  0.6705
10776SOL     OW43981   5.555   9.085   2.319 -0.2041  0.0146 -0.2778
10776SOL    HW143982   5.601   9.011   2.270  2.2019  0.5698  1.0593
10776SOL    HW243983   5.493   9.047   2.387 -3.4890 -0.7612 -3.5762
10777SOL     OW43984   1.821   9.310   6.526 -0.3683  0.0648  0.7990
10777SOL    HW143985   1.892   9.240   6.521 -0.1072  0.3758  0.0124
10777SOL    HW243986   1.751   9.292   6.457 -3.1822 -2.5076  4.1591
10778SOL     OW43987   7.229   4.952   0.082 -0.0117  0.2374  0.4409
10778SOL    HW143988   7.182   5.038   0.065 -0.1818  0.0333 -0.1318
10778SOL    HW243989   7.328   4.968   0.084 -0.0244  0.3777 -0.0673
10779SOL     OW43990   6.268   4.997   7.861 -0.0388  0.2331  0.4764
10779SOL    HW143991   6.268   5.094   7.883  0.2258  0.3447 -0.0143
10779SOL    HW243992   6.356   4.956   7.886 -0.2310  0.0712  0.8920
10780SOL     OW43993   0.597   6.331   4.000  0.2152 -0.2979 -0.0660
10780SOL    HW143994   0.623   6.411   4.054  1.0182  0.5360 -1.6257
10780SOL    HW243995   0.662   6.320   3.924 -1.4479 -0.8419 -1.4390
10781SOL     OW43996   3.447   5.279   1.875 -0.2177  0.0611  0.3428
10781SOL    HW143997   3.406   5.199   1.832 -0.7406  0.4493  0.1132
10781SOL    HW243998   3.428   5.360   1.819  2.0426  0.0428 -0.5026
10782SOL     OW43999   1.047   0.294   7.359  0.0920 -0.2241  0.1483
10782SOL    HW144000   1.143   0.270   7.374 -0.0588 -0.6028  0.5200
10782SOL    HW244001   1.029   0.385   7.394  0.4964  0.1559 -0.6096
10783SOL     OW44002   9.975   4.026   2.327 -0.2361  0.2142  0.1013
10783SOL    HW144003   9.918   3.957   2.371 -1.2479  1.1114  0.2154
10783SOL    HW244004   9.925   4.066   2.250  0.7720  0.0392 -0.6547
10784SOL     OW44005   3.013   6.118   1.700  0.1562  0.3339 -0.4525
10784SOL    HW144006   2.956   6.180   1.755  0.2704 -0.6816  0.8462
10784SOL    HW244007   2.967   6.030   1.692  1.2700 -0.3203  0.1359
10785SOL     OW44008   1.331   8.950   0.816 -0.5693 -0.0897 -0.4085
10785SOL    HW144009   1.383   8.868   0.838 -0.9755 -0.2992 -0.2272
10785SOL    HW244010   1.392   9.019   0.777 -0.2730 -0.5651 -0.7823
10786SOL     OW44011   1.886   3.418   4.490  0.7573  0.2215 -0.1658
10786SOL    HW144012   1.855   3.362   4.567  0.8402  2.6196  1.6406
10786SOL    HW244013   1.808   3.463   4.448  0.6752 -1.2912 -1.7192
10787SOL     OW44014   4.527   6.630   3.868  0.1304  0.0175 -0.2051
10787SOL    HW144015   4.559   6.708   3.815 -1.7845  0.7020 -0.4199
10787SOL    HW244016   4.560   6.546   3.827  2.4383  0.7103  0.1770
10788SOL     OW44017   9.397   8.425   3.973  0.4942  0.0289 -0.2318
10788SOL    HW144018   9.314   8.470   3.941  0.5841 -1.4244 -2.5625
10788SOL    HW244019   9.467   8.495   3.992 -0.7451  1.1448  0.3079
10789SOL     OW44020   2.802   6.122   1.302  0.4483  0.2568  0.4318
10789SOL    HW144021   2.717   6.077   1.273 -1.0660  2.1882  1.7514
10789SOL    HW244022   2.867   6.121   1.226 -1.1104 -0.3844 -0.9440
10790SOL     OW44023   7.894   7.962   5.077  0.1350 -0.0574  0.1334
10790SOL    HW144024   7.840   8.046   5.075  0.3999  0.1266  0.6265
10790SOL    HW244025   7.875   7.913   5.162  0.6081 -0.0824  0.2224
10791SOL     OW44026   3.467   3.331   6.836  0.0645 -0.1872  0.1821
10791SOL    HW144027   3.563   3.304   6.840  0.2391  0.0615 -1.9007
10791SOL    HW244028   3.411   3.252   6.813  0.3406  0.6409 -3.6535
10792SOL     OW44029   9.113   2.216   0.501  0.0530 -0.2809 -0.3038
10792SOL    HW144030   9.158   2.295   0.459  1.0533  0.2708  1.7415
10792SOL    HW244031   9.168   2.183   0.577 -0.6958 -2.5674 -0.7222
10793SOL     OW44032   5.637   8.631   3.594  0.1071  0.0455  0.1036
10793SOL    HW144033   5.603   8.589   3.678  0.8440  0.0907  0.4206
10793SOL    HW244034   5.714   8.578   3.559 -0.0351  0.1715 -0.4100
10794SOL     OW44035   5.296   0.344   6.064  0.3083 -0.2941  0.1548
10794SOL    HW144036   5.302   0.444   6.063 -0.9908 -0.1789  1.7292
10794SOL    HW244037   5.317   0.310   6.155  0.3127 -1.4393 -0.2610
10795SOL     OW44038   4.491   8.633   8.124 -0.4622 -0.7018  0.3173
10795SOL    HW144039   4.496   8.690   8.206 -0.4406 -1.3657  0.7837
10795SOL    HW244040   4.490   8.691   8.042  0.5859 -0.0730  0.7440
10796SOL     OW44041   6.004   7.616   3.305 -0.3461 -0.3534  0.1459
10796SOL    HW144042   6.040   7.691   3.249 -0.6410  0.3285  0.8589
10796SOL    HW244043   6.046   7.620   3.396  0.9135 -2.0693 -0.3207
10797SOL     OW44044   0.014   2.116   4.451  0.0129  0.3306  0.1226
10797SOL    HW144045  -0.078   2.151   4.467 -0.3627 -1.3578  1.8674
10797SOL    HW244046   0.080   2.191   4.456 -1.1803  1.4214 -0.3507
10798SOL     OW44047   9.584   9.336   6.652  0.6781 -0.0599  0.0295
10798SOL    HW144048   9.493   9.314   6.615  1.3323 -2.4791 -0.2300
10798SOL    HW244049   9.574   9.398   6.730 -1.1396  0.4141 -0.5636
10799SOL     OW44050   8.208   4.494   0.062 -0.4782  0.2908 -0.0120
10799SOL    HW144051   8.216   4.555   0.141  0.3092  0.8294 -0.5004
10799SOL    HW244052   8.189   4.401   0.094 -1.9682  0.8280  0.7303
10800SOL     OW44053   1.715   0.209   2.778 -0.2060 -0.3316 -0.4569
10800SOL    HW144054   1.618   0.208   2.754  0.2864  1.7466 -2.6163
10800SOL    HW244055   1.770   0.186   2.698  1.1751  0.0242  0.3750
10801SOL     OW44056   4.580   1.676   6.417 -0.1546 -0.0452 -0.5816
10801SOL    HW144057   4.570   1.624   6.502 -3.1078  0.4858 -0.5666
10801SOL    HW244058   4.540   1.624   6.341  1.3953  0.0143 -1.4677
10802SOL     OW44059   9.216   6.582   0.425 -0.0176 -0.0632 -0.3180
10802SOL    HW144060   9.221   6.520   0.347  0.3843 -1.2737  0.6535
10802SOL    HW244061   9.283   6.656   0.413  1.0000 -1.0017 -0.4662
10803SOL     OW44062   6.571   9.762   3.236 -0.4395  0.4535  0.0935
10803SOL    HW144063   6.490   9.705   3.225 -0.9791  1.1607  0.3515
10803SOL    HW244064   6.595   9.803   3.148 -0.2485  0.0936 -0.0224
10804SOL     OW44065   5.013   0.796   3.006 -0.2063 -0.3631 -0.1211
10804SOL    HW144066   5.072   0.847   3.069  3.2989 -2.7572 -1.3364
10804SOL    HW244067   4.938   0.754   3.057  0.4608  0.7688  1.8508
10805SOL     OW44068   0.269   4.506   4.352  0.2076 -0.2882 -0.3104
10805SOL    HW144069   0.184   4.545   4.387  0.5826  1.2830 -1.0992
10805SOL    HW244070   0.341   4.576   4.354  1.4506 -1.5516  0.2174
10806SOL     OW44071   3.011   6.136   5.068  0.4670  0.3987 -0.3924
10806SOL    HW144072   2.972   6.170   5.154 -0.0094 -0.4585 -0.2595
10806SOL    HW244073   3.093   6.084   5.088 -0.5554 -1.2155 -0.2813
10807SOL     OW44074   2.463   1.981   6.929 -0.0417  0.5576  0.5560
10807SOL    HW144075   2.562   1.968   6.932 -0.1222 -0.0450  0.8264
10807SOL    HW244076   2.427   1.948   6.842  0.0152  0.9101  0.4003
10808SOL     OW44077   2.565   2.372   4.776  0.0126  0.3839 -0.6782
10808SOL    HW144078   2.529   2.464   4.765  0.5089  0.7311  0.4690
10808SOL    HW244079   2.665   2.377   4.784 -0.0706 -0.1155  0.7469
10809SOL     OW44080   8.938   6.584   6.953  0.2277  0.8903 -0.3645
10809SOL    HW144081   8.903   6.542   7.036  3.4450  2.7511  2.0392
10809SOL    HW244082   8.981   6.513   6.896  1.8873  0.2191  1.6582
10810SOL     OW44083   9.157   3.023   1.209 -0.0804 -0.5406 -0.1121
10810SOL    HW144084   9.077   3.024   1.269 -0.4778  0.3296 -0.6509
10810SOL    HW244085   9.236   3.061   1.258  0.2958 -2.4033  0.7942
10811SOL     OW44086   5.599   9.159   3.937  0.0648  0.3935  0.6629
10811SOL    HW144087   5.578   9.062   3.947 -0.8795  0.5600  0.2442
10811SOL    HW244088   5.677   9.182   3.996 -0.2881 -0.4151  1.4498
10812SOL     OW44089   3.739   9.858   3.672  0.2486  0.6532  0.0835
10812SOL    HW144090   3.761   9.824   3.764 -0.5892  2.6396  1.0342
10812SOL    HW244091   3.644   9.889   3.670  0.2346  0.5243 -1.4974
10813SOL     OW44092   3.597   1.071   6.244 -0.5967 -0.1165 -0.7254
10813SOL    HW144093   3.618   1.055   6.148 -1.5251 -0.5470 -0.8650
10813SOL    HW244094   3.499   1.055   6.260 -1.0382  2.6470 -0.2923
10814SOL     OW44095   6.006   1.686   2.833  0.0357  0.1729 -0.0630
10814SOL    HW144096   6.046   1.759   2.779  1.5916  0.3933  1.3490
10814SOL    HW244097   5.948   1.725   2.905 -0.3469 -0.0418 -0.2515
10815SOL     OW44098   8.775   4.410   4.499 -0.6567  0.1964  0.5622
10815SOL    HW144099   8.738   4.344   4.564  0.7824 -0.8107  0.3542
10815SOL    HW244100   8.840   4.470   4.546 -2.5072  1.9830  0.9284
10816SOL     OW44101   7.827   7.773   3.422 -0.1839  0.1945  0.6097
10816SOL    HW144102   7.842   7.871   3.411 -1.4961  0.6742  2.8076
10816SOL    HW244103   7.912   7.724   3.400  0.8826  1.9057  0.7818
10817SOL     OW44104   0.767   2.708   3.729 -0.3534 -0.0198 -0.3815
10817SOL    HW144105   0.818   2.787   3.697  0.1030 -0.5146 -0.8654
10817SOL    HW244106   0.752   2.644   3.654  1.9267 -1.8435  0.6684
10818SOL     OW44107   3.948   4.355   0.674  0.2972  0.3116  0.1253
10818SOL    HW144108   3.863   4.390   0.635  0.8888 -0.3122 -1.7455
10818SOL    HW244109   4.018   4.350   0.603  1.5520 -0.3298  1.3881
10819SOL     OW44110   0.787   4.046   0.142  0.3176  0.6875 -0.0114
10819SOL    HW144111   0.862   3.999   0.095  0.5521  0.4126  0.6326
10819SOL    HW244112   0.765   4.130   0.093  0.7133  0.5168 -0.4867
10820SOL     OW44113   5.330   1.361   6.470 -0.2980  0.2556  0.0832
10820SOL    HW144114   5.326   1.262   6.475  2.3594  0.0708 -0.6735
10820SOL    HW244115   5.238   1.399   6.475 -1.2435 -2.1572  1.8939
10821SOL     OW44116   8.518   0.199   7.055  0.2297 -0.0592 -0.1575
10821SOL    HW144117   8.597   0.149   7.091  0.2309 -0.8428 -1.2411
10821SOL    HW244118   8.543   0.295   7.043  0.0465  0.3594  2.4873
10822SOL     OW44119   8.682   5.029   1.023  0.6273  0.2052 -0.2443
10822SOL    HW144120   8.652   5.114   0.980  1.1982  1.4643  1.8156
10822SOL    HW244121   8.606   4.989   1.074  0.5413 -0.1905 -0.6797
10823SOL     OW44122   2.849   7.542   0.826 -0.1859 -0.1679  0.5558
10823SOL    HW144123   2.771   7.599   0.800 -0.5956 -1.9368 -2.3022
10823SOL    HW244124   2.816   7.461   0.875 -0.2017 -1.1760 -1.1125
10824SOL     OW44125   4.254   9.360   0.706 -0.1056  0.0066 -0.6684
10824SOL    HW144126   4.319   9.384   0.778 -0.3330 -0.6046 -0.2472
10824SOL    HW244127   4.168   9.408   0.722 -0.6555 -1.2529  0.3354
10825SOL     OW44128   2.495   1.724   6.344 -0.4494 -0.6328  0.3220
10825SOL    HW144129   2.436   1.678   6.410  0.4195 -0.8188  0.9774
10825SOL    HW244130   2.444   1.741   6.260 -0.9447 -2.3111  0.2631
10826SOL     OW44131   0.018   6.360   4.529  0.3967  0.3497 -0.3512
10826SOL    HW144132   0.080   6.404   4.463  0.3629  0.5531 -0.2495
10826SOL    HW244133   0.042   6.264   4.538 -0.0777  0.1408 -1.2249
10827SOL     OW44134   2.279   2.460   4.028 -0.0928 -0.1779  0.3559
10827SOL    HW144135   2.345   2.387   4.007 -0.6480 -0.8833  1.0097
10827SOL    HW244136   2.207   2.460   3.959  1.2134  1.3806 -1.0395
10828SOL     OW44137   8.378   4.534   8.068 -0.2630 -0.1405  0.3095
10828SOL    HW144138   8.305   4.526   8.136 -0.3830  0.4054  0.2523
10828SOL    HW244139   8.340   4.517   7.977 -0.1722 -0.5417  0.3456
10829SOL     OW44140   2.045   5.310   3.291 -0.5485  0.1940  0.4407
10829SOL    HW144141   2.088   5.390   3.250 -0.1626 -0.4792 -0.4966
10829SOL    HW244142   1.946   5.320   3.287 -0.5098  0.2879 -0.3602
10830SOL     OW44143   5.583   9.995   3.747  0.0805 -0.0775 -0.4292
10830SOL    HW144144   5.526   9.960   3.673 -0.0766 -1.4400  0.3359
10830SOL    HW244145   5.535   9.987   3.834  0.3701  1.2732 -0.1240
10831SOL     OW44146   1.713   0.897   5.029 -0.0666 -0.4343  0.2035
10831SOL    HW144147   1.636   0.891   5.093 -0.2026  1.1886  0.2142
10831SOL    HW244148   1.735   0.993   5.013  2.5992 -0.8670  0.9731
10832SOL     OW44149   7.885   4.866   6.192  0.3743 -0.8000  0.1699
10832SOL    HW144150   7.803   4.891   6.140 -0.3373 -0.8498  1.2592
10832SOL    HW244151   7.906   4.770   6.176  1.4801 -0.2670 -1.8016
10833SOL     OW44152   3.704   9.126   1.058 -0.6805 -0.2311 -0.0217
10833SOL    HW144153   3.776   9.163   1.117  0.8893 -0.5854 -1.6749
10833SOL    HW244154   3.735   9.039   1.019 -2.7178 -1.2795  0.6232
10834SOL     OW44155   5.123   2.374   5.890 -0.3680 -0.4165  0.0263
10834SOL    HW144156   5.079   2.441   5.830  0.7074  0.1912 -0.0901
10834SOL    HW244157   5.060   2.347   5.962 -0.4417  1.4965  0.6889
10835SOL     OW44158   7.763   7.136   4.788  0.1048  0.0902 -0.4185
10835SOL    HW144159   7.720   7.204   4.729  0.0235  0.4595  0.0680
10835SOL    HW244160   7.844   7.175   4.832  0.0311 -0.1081 -0.1027
10836SOL     OW44161   5.944   0.131   5.088  0.1565  0.1550  0.0021
10836SOL    HW144162   6.003   0.061   5.128 -1.2638  0.0581  2.0175
10836SOL    HW244163   5.894   0.092   5.010  1.0723 -0.3961 -0.3138
10837SOL     OW44164   6.555   8.355   5.713 -0.4651  0.1285 -0.2937
10837SOL    HW144165   6.629   8.306   5.759 -0.0568  0.0299 -1.0436
10837SOL    HW244166   6.467   8.326   5.751 -0.2761 -1.6792 -1.1693
10838SOL     OW44167   1.308   0.928   7.804 -0.0694  0.1487 -0.2052
10838SOL    HW144168   1.373   0.869   7.851 -0.1217 -1.1240 -1.7137
10838SOL    HW244169   1.221   0.929   7.854  0.1436 -0.5362  0.1751
10839SOL     OW44170   2.322   6.608   0.473 -0.4018  0.5624  0.4149
10839SOL    HW144171   2.359   6.592   0.382 -0.4954 -0.0337  0.4812
10839SOL    HW244172   2.357   6.695   0.508  1.4003 -0.2781  0.7290
10840SOL     OW44173   3.577   4.820   2.173 -0.0592 -0.0844 -0.2540
10840SOL    HW144174   3.600   4.812   2.270 -1.8881 -1.3322  0.1012
10840SOL    HW244175   3.642   4.766   2.119  0.2600 -0.3304  0.3683
10841SOL     OW44176   8.641   8.606   5.016 -0.2915  0.0219 -0.4822
10841SOL    HW144177   8.737   8.629   5.003 -0.1069  0.6370  1.6895
10841SOL    HW244178   8.633   8.510   5.044 -0.2017  0.2881  0.4713
10842SOL     OW44179   7.690   4.961   6.977 -0.0982 -0.0592 -0.0640
10842SOL    HW144180   7.720   4.925   6.888  0.3592  1.8299 -0.6999
10842SOL    HW244181   7.664   4.885   7.036 -2.2236 -1.3009 -2.4543
10843SOL     OW44182   5.623   8.679   4.239 -0.6219 -0.0552  0.3369
10843SOL    HW144183   5.693   8.751   4.240  0.1041 -0.7637  0.2348
10843SOL    HW244184   5.665   8.590   4.252 -1.8104 -0.2621  3.0241
10844SOL     OW44185   2.567   6.711   3.178  0.0968  0.0267 -0.4128
10844SOL    HW144186   2.562   6.705   3.277  0.6795  1.5033 -0.2787
10844SOL    HW244187   2.485   6.671   3.137  0.1785 -1.2194  0.6334
10845SOL     OW44188   2.996   4.968   4.660 -0.1578 -0.2943  0.2301
10845SOL    HW144189   3.026   5.006   4.573 -0.8056 -2.9579 -1.2105
10845SOL    HW244190   2.914   5.017   4.691 -0.0914  0.4875 -0.8125
10846SOL     OW44191   5.442   8.052   3.251  0.4195  0.2725 -0.3177
10846SOL    HW144192   5.356   8.096   3.227  0.1467  0.0698  0.2778
10846SOL    HW244193   5.459   7.976   3.189 -0.7446 -0.8239  0.6684
10847SOL     OW44194   4.993   3.192   1.383  0.0114  0.2991  0.2821
10847SOL    HW144195   5.038   3.185   1.472  1.6363  0.2410 -0.5399
10847SOL    HW244196   5.015   3.112   1.328 -1.3723  0.1124 -0.0267
10848SOL     OW44197   8.781   2.551   4.363 -0.0187  0.0010  0.3242
10848SOL    HW144198   8.824   2.462   4.347 -2.4319 -1.0366 -0.5900
10848SOL    HW244199   8.701   2.539   4.422 -0.3745  1.5812  0.1807
10849SOL     OW44200   4.128   9.406   1.619 -0.3298  0.1644  0.6635
10849SOL    HW144201   4.170   9.341   1.556  1.1250 -0.2642  2.0527
10849SOL    HW244202   4.064   9.358   1.680 -0.2006  0.2364  0.8576
10850SOL     OW44203   2.159   6.909   6.432  0.3641  0.9089  0.7028
10850SOL    HW144204   2.070   6.895   6.475 -0.0702  3.7413  0.8702
10850SOL    HW244205   2.186   7.005   6.442  2.0158  0.8006 -2.0498
10851SOL     OW44206   2.816   0.083   2.586  0.0694  0.0681 -0.4319
10851SOL    HW144207   2.859  -0.006   2.573  1.0474  0.1367  2.0775
10851SOL    HW244208   2.885   0.150   2.613 -1.0639  0.9956  0.1854
10852SOL     OW44209   4.261   9.833   5.480 -0.4261  0.1899  0.0740
10852SOL    HW144210   4.235   9.797   5.391 -1.4782  1.3135 -0.0902
10852SOL    HW244211   4.307   9.762   5.533 -0.1500 -0.5995 -1.2084
10853SOL     OW44212   9.267   9.941   0.647 -0.1830 -0.6097  0.4095
10853SOL    HW144213   9.354   9.920   0.603 -0.5551 -0.0534 -0.6206
10853SOL    HW244214   9.271  10.032   0.689 -0.5239 -0.2317 -0.3584
10854SOL     OW44215   4.945   1.363   3.600 -0.1163  0.1495  0.1506
10854SOL    HW144216   4.979   1.455   3.584  3.5657 -1.2989 -0.7160
10854SOL    HW244217   4.911   1.324   3.514 -1.5379  0.6099  0.4879
10855SOL     OW44218   1.781   6.122   4.254 -0.7206  0.9709 -0.2197
10855SOL    HW144219   1.782   6.041   4.312  1.7321 -0.0552 -1.6407
10855SOL    HW244220   1.838   6.193   4.295 -2.0185  1.6379  0.4845
10856SOL     OW44221   1.779   5.722   1.195  0.0238  0.3284 -0.3228
10856SOL    HW144222   1.757   5.710   1.099 -1.4362  0.0806  0.0298
10856SOL    HW244223   1.720   5.793   1.235 -0.1339 -0.3328  0.6406
10857SOL     OW44224   1.325   7.739   5.073 -0.8136 -0.3153 -0.1886
10857SOL    HW144225   1.254   7.735   5.143  0.6609 -0.3348  1.3559
10857SOL    HW244226   1.311   7.820   5.016 -1.1574  0.5569  1.1106
10858SOL     OW44227   9.213   8.737   4.640  0.3346  0.2669  0.2160
10858SOL    HW144228   9.312   8.732   4.629  0.1847 -0.9487 -0.7020
10858SOL    HW244229   9.169   8.689   4.564 -0.9438  0.1870  0.9939
10859SOL     OW44230   1.501   8.195   5.247 -0.2477 -0.0741  0.2573
10859SOL    HW144231   1.552   8.155   5.170  0.2268  0.8131  0.0935
10859SOL    HW244232   1.403   8.181   5.233 -0.0710 -1.4649  0.3800
10860SOL     OW44233   9.328   0.817   6.298  0.1568 -0.0785  0.0262
10860SOL    HW144234   9.407   0.770   6.259 -0.7682  0.3149 -2.3863
10860SOL    HW244235   9.268   0.750   6.342  0.6247 -0.6828 -0.2567
10861SOL     OW44236   2.753   3.655   6.779 -0.3131  0.1352 -0.0426
10861SOL    HW144237   2.794   3.618   6.863 -0.3216 -0.0535 -0.1205
10861SOL    HW244238   2.785   3.748   6.765  0.9651 -0.3849 -0.6814
10862SOL     OW44239   0.532   1.557   5.219 -0.1801 -0.5664  0.3067
10862SOL    HW144240   0.554   1.587   5.126  2.1570 -0.3985  0.8784
10862SOL    HW244241   0.498   1.463   5.217 -1.2827 -0.1585 -0.8226
10863SOL     OW44242   2.217   3.333   4.844  0.1718  0.0015  0.0282
10863SOL    HW144243   2.195   3.390   4.765  0.7220  1.1948  0.7176
10863SOL    HW244244   2.232   3.239   4.814 -2.1585 -0.0999 -0.9425
10864SOL     OW44245   2.114   3.681   5.941 -0.0559  0.4600 -0.2202
10864SOL    HW144246   2.058   3.599   5.952  1.0407 -0.5019 -1.5865
10864SOL    HW244247   2.063   3.750   5.890  0.1543 -0.6269 -1.9611
10865SOL     OW44248   0.118   5.191   1.623 -0.0047  0.1121 -0.5657
10865SOL    HW144249   0.119   5.103   1.670  2.7361  0.3084 -0.1774
10865SOL    HW244250   0.149   5.262   1.685 -0.6510  1.0998 -1.3603
10866SOL     OW44251   2.739   7.615   4.977  0.5764  0.0253 -0.1437
10866SOL    HW144252   2.789   7.568   4.905  1.3830  0.5899  0.0419
10866SOL    HW244253   2.803   7.644   5.048 -0.1531 -0.1372  0.5847
10867SOL     OW44254   4.344   9.246   2.362 -0.5238 -0.1866  0.9907
10867SOL    HW144255   4.387   9.183   2.297  0.2645  0.4405  0.9045
10867SOL    HW244256   4.411   9.313   2.393 -1.3597  0.5929  1.1141
10868SOL     OW44257   8.422   6.058   3.003 -0.2526  0.0623  0.4281
10868SOL    HW144258   8.490   6.123   3.038 -0.9850  0.1825  1.6589
10868SOL    HW244259   8.359   6.106   2.942 -1.2154  0.6678  1.8854
10869SOL     OW44260   0.919   0.566   4.589 -0.2895  0.0350  0.6002
10869SOL    HW144261   0.986   0.611   4.648  0.1642  0.1527 -0.0011
10869SOL    HW244262   0.837   0.543   4.643  0.7382 -1.2908  1.6536
10870SOL     OW44263   1.117   9.411   7.751 -0.7765 -0.1699  1.3391
10870SOL    HW144264   1.172   9.490   7.777 -0.2948  0.1669 -0.5960
10870SOL    HW244265   1.174   9.329   7.748 -0.8007 -0.1800  1.1774
10871SOL     OW44266   3.089   0.569   2.453  0.0786  0.1023  0.0535
10871SOL    HW144267   3.074   0.484   2.503  0.4048 -0.0958 -0.1891
10871SOL    HW244268   3.171   0.614   2.488  1.1718 -0.7859 -1.3265
10872SOL     OW44269   7.971   6.479   0.708 -0.0424  0.4335  0.7703
10872SOL    HW144270   8.022   6.448   0.788  0.7184  2.2390  1.0130
10872SOL    HW244271   7.916   6.558   0.732  0.0204  0.8522 -0.4312
10873SOL     OW44272   1.712   2.416   0.905  0.8003  0.2788 -0.4124
10873SOL    HW144273   1.655   2.422   0.823 -0.4513 -0.4832  0.3802
10873SOL    HW244274   1.806   2.443   0.883  0.5832 -0.3717 -2.1787
10874SOL     OW44275   7.337   1.038   0.743 -0.2571 -0.2571 -0.3355
10874SOL    HW144276   7.263   1.097   0.776 -0.4903 -0.1525 -1.0326
10874SOL    HW244277   7.333   0.950   0.789 -1.5088 -0.6567 -1.1796
10875SOL     OW44278   4.060   8.638   3.402 -0.3145  0.1294  0.1032
10875SOL    HW144279   3.964   8.644   3.373  0.0935  0.5956 -1.1687
10875SOL    HW244280   4.099   8.730   3.408 -0.0566 -0.0397  0.9875
10876SOL     OW44281   8.545   0.840   6.984  0.3191 -0.3695  0.4110
10876SOL    HW144282   8.514   0.836   6.889  0.0054  0.2885  0.4837
10876SOL    HW244283   8.476   0.800   7.044  0.0488  0.1798  0.4689
10877SOL     OW44284   3.201   2.000   6.749  0.4589 -0.3138  0.1424
10877SOL    HW144285   3.230   2.016   6.655  0.3580 -0.4191  0.0937
10877SOL    HW244286   3.166   2.084   6.789 -1.1872 -0.6868 -0.4947
10878SOL     OW44287   2.521   2.515   6.263  0.3528  0.5181  0.0276
10878SOL    HW144288   2.569   2.428   6.252 -0.5497 -0.0006  0.0886
10878SOL    HW244289   2.563   2.568   6.337  0.2460 -0.3343  0.7072
10879SOL     OW44290   3.773   9.788   0.287  0.4710  0.3712  0.0366
10879SOL    HW144291   3.683   9.817   0.253 -0.7309 -1.5447  1.4540
10879SOL    HW244292   3.811   9.858   0.347  0.5613  1.7859 -1.6262
10880SOL     OW44293   2.453   5.048   4.043  0.6588 -0.6873  0.2483
10880SOL    HW144294   2.413   5.074   4.130 -0.6826 -1.4412 -0.1403
10880SOL    HW244295   2.449   5.126   3.980 -0.1502 -0.7441  0.2274
10881SOL     OW44296   3.051   7.499   7.175 -0.2203  0.0070 -0.2749
10881SOL    HW144297   3.017   7.451   7.256 -1.8763 -1.4962 -1.8042
10881SOL    HW244298   3.031   7.445   7.094  3.8258  0.1978 -1.4998
10882SOL     OW44299   4.498   6.350   2.638 -0.1834 -0.1825  0.2739
10882SOL    HW144300   4.551   6.305   2.710  0.5183 -0.5362 -0.4499
10882SOL    HW244301   4.505   6.449   2.650  1.9902 -0.1915 -0.7448
10883SOL     OW44302   8.387   7.135   3.825 -0.2918 -0.1446 -0.2208
10883SOL    HW144303   8.290   7.132   3.799  0.1459 -1.6412 -1.6906
10883SOL    HW244304   8.401   7.078   3.906 -0.9645  1.6046  1.1790
10884SOL     OW44305   0.262   4.875   1.919  0.1762  0.0256  0.6227
10884SOL    HW144306   0.269   4.958   1.974  1.6058 -0.0512  0.5962
10884SOL    HW244307   0.295   4.894   1.826 -1.9750  0.0903 -0.1435
10885SOL     OW44308   8.915   3.128   6.176 -0.0074  0.0791 -0.0172
10885SOL    HW144309   8.989   3.070   6.209 -0.0580 -0.0614 -0.1508
10885SOL    HW244310   8.842   3.133   6.245  1.7663  3.2643  1.7809
10886SOL     OW44311   2.274   2.492   6.101  0.0236 -0.0557  0.2708
10886SOL    HW144312   2.294   2.403   6.141  0.0029 -1.1201 -1.9814
10886SOL    HW244313   2.358   2.530   6.060 -0.6010 -0.4976 -1.4814
10887SOL     OW44314   2.279   3.432   5.248  0.6129 -0.6080 -0.1800
10887SOL    HW144315   2.308   3.361   5.312  0.7796 -1.5144 -1.2325
10887SOL    HW244316   2.188   3.464   5.272  0.5739 -1.1127  0.3639
10888SOL     OW44317   3.396   1.676   6.987 -0.1451 -0.1954 -0.2815
10888SOL    HW144318   3.312   1.679   6.934 -0.5762 -0.9680  0.3504
10888SOL    HW244319   3.470   1.641   6.929 -0.1109  1.0781 -1.0181
10889SOL     OW44320   9.698   5.097   0.192  0.7072  0.1655 -0.2032
10889SOL    HW144321   9.763   5.173   0.202 -0.0246  0.7688  0.0539
10889SOL    HW244322   9.620   5.113   0.252  0.3073 -0.5402 -0.5375
10890SOL     OW44323   0.768   4.230   5.742  0.5951 -0.0530  0.0222
10890SOL    HW144324   0.855   4.264   5.706 -0.4185  2.2392 -0.2974
10890SOL    HW244325   0.785   4.152   5.803  2.7362 -0.6219 -1.2483
10891SOL     OW44326   4.043   2.840   6.096 -0.6171  0.1428 -0.4752
10891SOL    HW144327   4.059   2.835   5.997 -2.3987  2.1299 -0.8886
10891SOL    HW244328   4.131   2.847   6.143  0.2398 -0.6255 -1.9339
10892SOL     OW44329   7.003   9.990   2.399 -0.2349 -0.0501 -0.3284
10892SOL    HW144330   6.974  10.064   2.459 -1.2992  0.0122 -0.9170
10892SOL    HW244331   6.933   9.973   2.330  0.3739 -1.0423 -0.7145
10893SOL     OW44332   1.158   9.267   3.122 -0.2990  0.2724 -0.0091
10893SOL    HW144333   1.251   9.273   3.160 -1.3701 -0.3241  2.8357
10893SOL    HW244334   1.115   9.357   3.125 -0.1623  0.3513 -0.4069
10894SOL     OW44335   2.131   1.267   3.826 -0.0131 -0.2171  0.3978
10894SOL    HW144336   2.211   1.327   3.839  0.3375 -0.2507 -1.3997
10894SOL    HW244337   2.048   1.317   3.851  0.4147  0.4692  0.4773
10895SOL     OW44338   8.738   3.699   1.155  0.1512 -0.0719 -0.6672
10895SOL    HW144339   8.735   3.599   1.152  0.6015 -0.0869 -0.5588
10895SOL    HW244340   8.786   3.733   1.074 -0.2018  0.0680 -0.8206
10896SOL     OW44341   2.810   6.272   1.814  0.1659 -0.0551  0.0112
10896SOL    HW144342   2.760   6.217   1.880  1.9228  0.4792  1.8261
10896SOL    HW244343   2.843   6.355   1.857 -0.1507  1.1582 -2.0116
10897SOL     OW44344   8.987   1.657   2.417 -0.8586 -0.6203 -0.3449
10897SOL    HW144345   8.970   1.561   2.440  1.3804 -0.5230  1.9257
10897SOL    HW244346   8.996   1.710   2.501 -1.7034  1.5352 -1.5759
10898SOL     OW44347   2.052   7.936   2.706 -0.1749 -0.5594 -0.1104
10898SOL    HW144348   2.051   7.993   2.788  2.5243  0.6995 -0.8862
10898SOL    HW244349   2.001   7.982   2.633 -0.1750 -0.3382  0.0288
10899SOL     OW44350   4.683   9.933   6.208  0.4343  0.3142 -0.0809
10899SOL    HW144351   4.735  10.015   6.184 -1.7369  1.4696 -1.0009
10899SOL    HW244352   4.621   9.953   6.284 -0.1765 -0.4465 -0.3661
10900SOL     OW44353   0.984   6.057   4.659  0.3553  0.1576 -0.7404
10900SOL    HW144354   1.040   6.041   4.741  0.8547 -0.2009 -1.1521
10900SOL    HW244355   0.919   6.131   4.678 -1.0194 -1.3671  0.7097
10901SOL     OW44356   7.313   8.622   6.317 -0.2819 -0.0475  0.1037
10901SOL    HW144357   7.399   8.595   6.360  1.1805  1.1373 -1.9378
10901SOL    HW244358   7.262   8.540   6.290  0.2543 -0.7645  1.2415
10902SOL     OW44359   4.031   1.299   5.223 -0.0274 -0.0385  0.3118
10902SOL    HW144360   4.001   1.284   5.129 -1.5478  0.4119  0.7108
10902SOL    HW244361   4.106   1.366   5.224  0.7691 -0.9006 -0.6650
10903SOL     OW44362   0.097   3.931   4.038 -0.1893  0.5166 -0.8100
10903SOL    HW144363   0.005   3.941   4.003  0.1827 -0.8062 -2.2217
10903SOL    HW244364   0.093   3.913   4.137 -1.4712 -0.1654 -0.9759
10904SOL     OW44365   3.332   4.304   4.083  0.3081 -0.3782  0.2271
10904SOL    HW144366   3.320   4.263   3.993 -0.2559 -1.7776  0.9192
10904SOL    HW244367   3.429   4.308   4.106  0.4425 -0.1373 -0.3885
10905SOL     OW44368   0.015   5.984   0.960 -0.1149 -0.2075 -0.6401
10905SOL    HW144369   0.094   5.944   1.006 -0.3083 -0.8313 -0.8560
10905SOL    HW244370  -0.010   5.927   0.882 -0.8172 -0.0359 -0.5386
10906SOL     OW44371   4.251   9.731   4.510 -0.5015  0.0777  0.0272
10906SOL    HW144372   4.243   9.647   4.457 -2.1235  0.6326 -0.6395
10906SOL    HW244373   4.325   9.788   4.473 -0.3677 -0.3946 -0.4335
10907SOL     OW44374   3.216   3.839   3.177  0.1033 -0.2830  0.4249
10907SOL    HW144375   3.273   3.893   3.239  0.2162 -0.3228  0.3544
10907SOL    HW244376   3.270   3.768   3.133  0.0141 -0.2824  0.3111
10908SOL     OW44377   8.038   2.465   7.000  0.2426  0.5792  0.0116
10908SOL    HW144378   8.086   2.546   6.965  1.8108 -0.9469 -1.4299
10908SOL    HW244379   7.949   2.458   6.955 -0.2857  1.9750  0.7897
10909SOL     OW44380   0.243   6.370   0.041  0.1643  0.2262  0.7784
10909SOL    HW144381   0.335   6.402   0.062  0.9432 -0.9122 -0.7616
10909SOL    HW244382   0.215   6.301   0.108 -0.3615  1.9405  2.3760
10910SOL     OW44383   8.056   0.043   2.047 -0.4447  0.4122 -0.0095
10910SOL    HW144384   8.084  -0.022   2.117 -0.4288 -0.1736 -0.5611
10910SOL    HW244385   8.043  -0.004   1.960 -1.3151  0.9981 -0.1989
10911SOL     OW44386   2.317   7.017   5.217 -0.4187 -0.1052 -0.2546
10911SOL    HW144387   2.298   6.927   5.256 -0.0307 -0.6625 -1.3322
10911SOL    HW244388   2.372   7.070   5.282  0.2132 -1.0171 -0.0352
10912SOL     OW44389   2.143   5.352   1.233  0.4709 -0.3060 -0.1194
10912SOL    HW144390   2.161   5.336   1.330 -1.4164 -0.3319  0.2518
10912SOL    HW244391   2.151   5.450   1.213  1.7430 -0.4100 -0.1371
10913SOL     OW44392   0.439   8.038   4.720  0.7048  1.0559  0.2175
10913SOL    HW144393   0.434   8.060   4.622 -0.6870  3.2940  0.7638
10913SOL    HW244394   0.368   7.971   4.742  1.2852  0.2325 -0.3662
10914SOL     OW44395   1.809   7.671   2.626 -0.0047 -0.1357 -0.2214
10914SOL    HW144396   1.740   7.651   2.557  0.0758  0.6187 -0.5318
10914SOL    HW244397   1.800   7.608   2.702 -2.2239  1.0926  0.5729
10915SOL     OW44398   5.821   2.300   0.865  0.0474  0.4353  0.2238
10915SOL    HW144399   5.859   2.221   0.817  1.5423  1.0848  0.3177
10915SOL    HW244400   5.864   2.384   0.831  0.9177  0.9329  2.4723
10916SOL     OW44401   9.509   1.871   4.419 -1.1418  0.6034 -0.6553
10916SOL    HW144402   9.424   1.821   4.404 -0.1693 -1.1822 -0.3602
10916SOL    HW244403   9.563   1.824   4.489 -0.9150  2.9722  0.7911
10917SOL     OW44404   4.006   5.719   3.450  0.2983 -0.2172  0.1397
10917SOL    HW144405   3.936   5.789   3.461  1.0466  0.7715 -1.2206
10917SOL    HW244406   3.969   5.630   3.476 -1.0948  0.4616  0.5136
10918SOL     OW44407   9.713   5.025   4.748 -1.0193  0.1802 -0.2182
10918SOL    HW144408   9.663   5.011   4.834 -0.3706 -0.2833  0.0870
10918SOL    HW244409   9.667   4.977   4.674 -0.0965 -1.6668  0.3828
10919SOL     OW44410   8.936   4.965   1.596 -0.3070  0.2150 -0.1060
10919SOL    HW144411   9.013   4.912   1.559 -0.3385  0.1550 -0.0862
10919SOL    HW244412   8.876   4.904   1.648 -0.9611  0.0513 -1.0482
10920SOL     OW44413   3.716   8.194   3.121 -0.4896  0.3415 -0.0709
10920SOL    HW144414   3.728   8.192   3.220 -1.3331 -1.8218  0.0252
10920SOL    HW244415   3.805   8.209   3.077  0.1567 -0.3068  0.9794
10921SOL     OW44416   8.538   3.914   5.501  0.0025  0.0588 -0.3383
10921SOL    HW144417   8.510   3.917   5.597  1.9454 -0.0446  0.2530
10921SOL    HW244418   8.541   3.819   5.470 -0.0216  0.0501 -0.3126
10922SOL     OW44419   1.983   2.217   0.920 -0.2241 -0.0640 -0.4345
10922SOL    HW144420   2.001   2.126   0.957 -1.8544 -0.2239  0.0053
10922SOL    HW244421   1.974   2.282   0.995  0.6158  0.4061 -0.7378
10923SOL     OW44422   1.185   8.029   3.609  0.6213  0.3979 -0.1383
10923SOL    HW144423   1.222   8.067   3.525  0.3217 -2.4805 -1.6587
10923SOL    HW244424   1.088   8.053   3.617  0.8061  1.2022 -0.2758
10924SOL     OW44425   8.873   2.372   0.993  0.3954 -0.5246  0.1934
10924SOL    HW144426   8.935   2.386   0.916  0.6214 -0.4708  0.3827
10924SOL    HW244427   8.865   2.275   1.012  0.7771 -0.5093  0.4520
10925SOL     OW44428   3.918   0.103   1.665 -0.5425 -0.8534 -0.4082
10925SOL    HW144429   3.995   0.062   1.714 -1.8148 -3.6330 -0.6287
10925SOL    HW244430   3.932   0.092   1.566  0.6123  2.1561 -0.6459
10926SOL     OW44431   0.567   0.393   1.073 -0.1397  0.0662  0.0740
10926SOL    HW144432   0.525   0.463   1.131 -0.6536 -0.7445  0.6854
10926SOL    HW244433   0.626   0.334   1.128  0.5142  0.1793 -0.4922
10927SOL     OW44434   2.588   1.209   1.536 -0.1962  0.0564 -0.2266
10927SOL    HW144435   2.656   1.197   1.609  0.0913  2.4952 -0.0419
10927SOL    HW244436   2.622   1.276   1.470 -1.5308 -0.2773 -1.2746
10928SOL     OW44437   0.273   0.466   7.331 -0.0354 -0.1523 -0.1413
10928SOL    HW144438   0.241   0.530   7.261  0.4585 -0.4204 -0.6171
10928SOL    HW244439   0.247   0.373   7.305 -0.1061 -0.2210  0.1766
10929SOL     OW44440   6.325   9.302   5.529  0.1160 -0.0620 -0.1220
10929SOL    HW144441   6.349   9.397   5.550 -0.8019  0.1148  0.1800
10929SOL    HW244442   6.244   9.301   5.470 -0.1628 -0.6610  0.2640
10930SOL     OW44443   1.553   7.084   7.903 -0.2064  0.1482  0.0130
10930SOL    HW144444   1.610   7.163   7.927  1.0536 -1.3214  1.9509
10930SOL    HW244445   1.490   7.064   7.978 -0.4124 -0.8005 -0.4084
10931SOL     OW44446   5.244   0.033   1.351  0.0224 -0.8454  0.3803
10931SOL    HW144447   5.321   0.095   1.363 -0.0884 -0.0912 -2.4576
10931SOL    HW244448   5.272  -0.046   1.298 -1.0096 -0.8286 -0.2142
10932SOL     OW44449   0.224   3.006   4.717 -0.3964 -0.7002 -0.2825
10932SOL    HW144450   0.258   2.937   4.653  0.7334  1.3661 -2.0236
10932SOL    HW244451   0.182   3.081   4.666 -1.0783  0.1758  1.5093
10933SOL     OW44452   1.100   6.039   4.913  0.0974 -0.1704 -0.3937
10933SOL    HW144453   1.116   6.082   5.002  0.8708  1.6449 -1.3689
10933SOL    HW244454   1.008   6.001   4.910  0.4728 -1.2859  1.5867
10934SOL     OW44455   5.372   8.379   1.199 -0.4937  0.1766  0.5947
10934SOL    HW144456   5.318   8.303   1.163  1.2211 -0.9790  0.3808
10934SOL    HW244457   5.422   8.349   1.280  0.0030  1.1527  0.6576
10935SOL     OW44458   0.404   6.849   1.777  0.4200  0.2721  0.2934
10935SOL    HW144459   0.367   6.937   1.748 -0.0351  0.3194  0.9972
10935SOL    HW244460   0.420   6.791   1.697 -1.6944  0.0520 -0.0010
10936SOL     OW44461   0.772   0.660   6.801  0.0011  0.0552  0.0562
10936SOL    HW144462   0.818   0.709   6.876  1.9343 -0.8429 -0.4982
10936SOL    HW244463   0.750   0.725   6.729 -0.3775  0.6530  0.7028
10937SOL     OW44464   8.759   1.460   5.365 -0.5338 -0.7353 -0.3978
10937SOL    HW144465   8.819   1.516   5.307  0.5656  0.5089  1.8648
10937SOL    HW244466   8.798   1.368   5.374  0.1887 -0.4211 -0.2595
10938SOL     OW44467   4.747   8.842   7.615  0.4135 -0.6013 -0.6374
10938SOL    HW144468   4.684   8.886   7.550  0.0471  0.9389  0.7418
10938SOL    HW244469   4.827   8.808   7.566 -0.9111 -1.5074 -2.2418
10939SOL     OW44470   1.153   8.378   0.353 -0.0247 -0.2815 -0.3541
10939SOL    HW144471   1.165   8.302   0.416  0.9699 -2.6102 -3.2336
10939SOL    HW244472   1.058   8.381   0.320 -0.2851  0.2963  0.4342
10940SOL     OW44473   3.119   3.945   0.899  0.3320  0.2484 -0.2994
10940SOL    HW144474   3.091   3.873   0.963  2.4156  1.1626  1.6999
10940SOL    HW244475   3.065   4.028   0.916 -0.1479  0.0299 -0.7439
10941SOL     OW44476   3.277   8.503   2.218 -0.2186 -0.5442  0.6557
10941SOL    HW144477   3.191   8.453   2.214 -0.7893  0.4302  0.5344
10941SOL    HW244478   3.300   8.537   2.127 -0.4761  0.4661  0.9585
10942SOL     OW44479   4.542   1.206   4.936  0.1743 -0.0361 -0.0547
10942SOL    HW144480   4.575   1.138   4.871 -1.0817  0.5304 -1.3117
10942SOL    HW244481   4.614   1.228   5.001  2.3258  1.2087 -2.7703
10943SOL     OW44482   7.694   3.480   4.169  0.1654 -0.3840 -0.3645
10943SOL    HW144483   7.681   3.501   4.072  0.8641 -1.1670 -0.6323
10943SOL    HW244484   7.682   3.381   4.184  0.9621 -0.4000  0.1949
10944SOL     OW44485   4.834   7.221   3.564  0.1642 -0.3396 -0.0209
10944SOL    HW144486   4.838   7.311   3.520 -2.3169 -0.2429 -0.1702
10944SOL    HW244487   4.763   7.222   3.635 -0.7023 -2.4719 -0.8048
10945SOL     OW44488   4.876   4.874   1.207 -0.1953  0.6696  0.1170
10945SOL    HW144489   4.955   4.884   1.268  0.3006  0.3359 -0.4682
10945SOL    HW244490   4.854   4.963   1.167  0.0936  0.6997  0.0227
10946SOL     OW44491   2.699   8.194   5.568 -0.4624 -0.2281  0.4267
10946SOL    HW144492   2.716   8.276   5.513 -1.9012  0.1527  0.5538
10946SOL    HW244493   2.780   8.134   5.563  0.1901  0.7090 -0.4950
10947SOL     OW44494   1.204   9.138   3.767 -0.1428 -0.4542  0.4493
10947SOL    HW144495   1.167   9.171   3.681  1.9561  2.5828  0.6206
10947SOL    HW244496   1.147   9.169   3.843  0.0028 -0.0397  0.3890
10948SOL     OW44497   8.967   0.339   1.673  0.4991 -0.0669 -0.6100
10948SOL    HW144498   8.914   0.255   1.658  0.6261  0.0540 -1.7857
10948SOL    HW244499   8.951   0.402   1.597  1.0653  0.6339 -0.1491
10949SOL     OW44500   5.077   0.728   0.954 -0.3590 -0.1844 -0.5368
10949SOL    HW144501   5.081   0.632   0.982  0.1059 -0.5394 -1.7737
10949SOL    HW244502   4.981   0.754   0.937 -0.3655 -0.8284 -1.5217
10950SOL     OW44503   9.764   4.933   1.122  0.1237  0.3677  0.8081
10950SOL    HW144504   9.824   4.917   1.044 -0.0061 -1.3335  1.0416
10950SOL    HW244505   9.813   4.988   1.190  0.1555  2.0487 -0.5467
10951SOL     OW44506   9.556   5.345   2.934 -0.3264  0.2395 -0.6679
10951SOL    HW144507   9.606   5.286   2.996 -1.1607  0.7382  0.4966
10951SOL    HW244508   9.549   5.437   2.973 -1.0017  0.5148 -1.4166
10952SOL     OW44509   9.453   3.958   8.021 -0.3320  0.1070 -0.2422
10952SOL    HW144510   9.388   4.032   8.003  0.2108  0.2960 -1.4471
10952SOL    HW244511   9.510   3.983   8.100 -0.0493  1.0437 -0.7409
10953SOL     OW44512   9.627   6.035   6.523 -0.0832  0.0485 -0.7030
10953SOL    HW144513   9.698   6.012   6.456 -0.5157 -1.7366 -0.5604
10953SOL    HW244514   9.545   5.981   6.504  0.5500 -2.2403  2.6806
10954SOL     OW44515   4.593   8.893   7.207 -0.8648  0.4684  0.3890
10954SOL    HW144516   4.646   8.892   7.122  1.5175 -0.4377  1.8355
10954SOL    HW244517   4.511   8.950   7.195 -0.0541  1.1436 -2.1832
10955SOL     OW44518   7.340   5.295   2.608 -0.0288  0.3121  0.6278
10955SOL    HW144519   7.293   5.384   2.610  0.1424  0.3936  1.2358
10955SOL    HW244520   7.380   5.277   2.698  0.6449 -0.0027  0.2635
10956SOL     OW44521   2.540   9.551   3.415  0.6187  0.3080 -0.6193
10956SOL    HW144522   2.543   9.630   3.354 -0.6667 -1.6177 -3.3083
10956SOL    HW244523   2.606   9.483   3.384  1.1005 -0.0410  1.1481
10957SOL     OW44524   7.223   2.932   0.917  0.5782 -0.5745  0.3409
10957SOL    HW144525   7.235   2.904   1.013  1.1641  0.8534  0.6898
10957SOL    HW244526   7.312   2.940   0.873  0.3508 -0.3340 -0.0768
10958SOL     OW44527   1.010   8.016   2.646  1.1163  0.6020 -0.1202
10958SOL    HW144528   0.943   8.014   2.720  0.9492  1.7795 -0.2288
10958SOL    HW244529   0.968   7.982   2.562  0.1486  2.7891 -0.5663
10959SOL     OW44530   8.025   5.444   5.343 -0.3132  0.1049 -0.2992
10959SOL    HW144531   7.977   5.513   5.397 -2.5255 -1.6598  0.0653
10959SOL    HW244532   8.069   5.378   5.404  0.8692  0.5473 -0.6558
10960SOL     OW44533   9.905   4.237   5.456  0.1056 -0.1280 -0.0683
10960SOL    HW144534   9.860   4.299   5.521 -0.6414 -2.3419  1.5857
10960SOL    HW244535   9.836   4.179   5.413  0.9921 -1.1178 -0.1678
10961SOL     OW44536   8.564   0.799   2.821  0.1111 -0.4725 -0.0733
10961SOL    HW144537   8.646   0.758   2.860  1.9464  1.0692 -2.2278
10961SOL    HW244538   8.515   0.731   2.767  1.2126 -0.7767 -0.6934
10962SOL     OW44539   9.042   1.638   8.066  0.8378  0.1553 -0.2533
10962SOL    HW144540   8.964   1.701   8.058  3.9757  4.0793 -1.8318
10962SOL    HW244541   9.076   1.639   8.160  0.3822  0.1925 -0.0868
10963SOL     OW44542   2.094   6.615   5.822  0.0804 -0.5474  0.0989
10963SOL    HW144543   2.108   6.669   5.905  0.7059  0.8845 -0.9063
10963SOL    HW244544   2.034   6.537   5.842 -1.4425  0.9244  1.4378
10964SOL     OW44545   0.568   5.388   3.399  0.1141  0.5702  0.3821
10964SOL    HW144546   0.637   5.333   3.445 -0.6308 -0.1140  0.6776
10964SOL    HW244547   0.610   5.473   3.366  1.4902 -0.6075 -0.9562
10965SOL     OW44548   8.741   9.852   6.498  0.2471 -0.2138 -0.0253
10965SOL    HW144549   8.658   9.806   6.531  0.8703 -1.7761 -0.5746
10965SOL    HW244550   8.761   9.931   6.556 -1.0976 -0.3678  0.6778
10966SOL     OW44551   5.295   3.683   1.034 -0.1593  0.3602  0.1256
10966SOL    HW144552   5.242   3.602   1.008 -0.2892 -0.0422  1.5814
10966SOL    HW244553   5.380   3.685   0.982 -0.6173 -0.1628 -0.6558
10967SOL     OW44554   0.563   2.090   0.683  0.2129 -0.1647  0.3370
10967SOL    HW144555   0.510   2.045   0.611  0.6782  0.7052 -0.5541
10967SOL    HW244556   0.542   2.188   0.684  2.6008  0.3915 -0.7565
10968SOL     OW44557   6.750   5.393   7.702 -0.1058 -0.2540  0.8280
10968SOL    HW144558   6.699   5.468   7.660 -1.4034 -1.0012  1.0388
10968SOL    HW244559   6.786   5.333   7.630  3.2350  1.9801  0.5195
10969SOL     OW44560   5.313   4.864   7.795 -0.1631  0.3991 -0.1837
10969SOL    HW144561   5.231   4.807   7.795  0.6101 -0.7906  1.9586
10969SOL    HW244562   5.390   4.812   7.759 -0.1856  1.2795 -1.5271
10970SOL     OW44563   6.033   1.454   5.204  0.2133  0.0343 -0.8697
10970SOL    HW144564   6.016   1.421   5.111  1.8911 -1.9816 -0.4885
10970SOL    HW244565   6.050   1.377   5.265  1.0511  1.4369  0.7161
10971SOL     OW44566   2.191   4.592   5.328 -0.3719  0.3112  0.6969
10971SOL    HW144567   2.110   4.646   5.304 -0.4848 -0.4406 -0.6416
10971SOL    HW244568   2.271   4.651   5.328 -0.6132  0.6512  0.0025
10972SOL     OW44569   5.912   6.437   1.715 -0.1846  0.1754  0.1620
10972SOL    HW144570   5.827   6.388   1.732 -0.0147 -0.0808  0.2672
10972SOL    HW244571   5.970   6.383   1.654 -0.8817  1.1676 -1.4226
10973SOL     OW44572   3.428   2.849   5.010 -0.0993 -0.2350 -0.1123
10973SOL    HW144573   3.427   2.759   5.052 -1.4084  0.5262  1.5648
10973SOL    HW244574   3.522   2.883   5.005  0.3082 -1.3286  0.0139
10974SOL     OW44575   8.661   1.971   3.339 -0.4686  0.9150 -0.0139
10974SOL    HW144576   8.701   2.062   3.330  0.4373  0.4322 -1.0038
10974SOL    HW244577   8.566   1.973   3.307 -0.4090  1.4799 -0.1562
10975SOL     OW44578   0.741   1.748   5.337  0.5360  0.5377  0.3836
10975SOL    HW144579   0.669   1.721   5.273 -0.0545  1.7230  0.5347
10975SOL    HW244580   0.830   1.720   5.301  0.2673  1.7840 -1.2701
10976SOL     OW44581   1.058   1.309   6.167 -0.1613  0.6355 -0.6442
10976SOL    HW144582   1.012   1.356   6.242  1.4483  1.8719 -0.4159
10976SOL    HW244583   1.046   1.210   6.177  0.8293  0.7194  1.7808
10977SOL     OW44584   9.136   1.294   4.947 -0.3712  0.3758 -0.2724
10977SOL    HW144585   9.183   1.280   4.860 -0.2296  0.5117 -0.2177
10977SOL    HW244586   9.037   1.297   4.932 -0.3813 -0.2539 -0.3460
10978SOL     OW44587   4.742   8.730   4.093  0.0020  0.2164  0.4706
10978SOL    HW144588   4.675   8.657   4.081  0.9303 -0.1118 -3.2632
10978SOL    HW244589   4.824   8.693   4.138  0.3715 -1.0391 -1.1674
10979SOL     OW44590   1.372   2.847   0.784  0.7044  0.7196  0.6537
10979SOL    HW144591   1.379   2.946   0.772  0.6065  0.5251 -1.0683
10979SOL    HW244592   1.314   2.809   0.713  1.0424 -0.6349  1.0974
10980SOL     OW44593   2.272   2.600   6.433 -0.2919 -0.6136  0.2333
10980SOL    HW144594   2.323   2.594   6.347  1.4803 -0.7418  1.2681
10980SOL    HW244595   2.329   2.645   6.503 -0.7492 -2.7672  2.0438
10981SOL     OW44596   9.643   8.887   2.136  0.0530  0.3003  0.3282
10981SOL    HW144597   9.592   8.954   2.081 -0.6540 -0.2477  0.3054
10981SOL    HW244598   9.644   8.799   2.088  2.2290  0.6564 -0.3301
10982SOL     OW44599   7.108   3.810   2.175 -0.3388  0.1747  0.1496
10982SOL    HW144600   7.097   3.834   2.271  1.8391  1.5594  0.1152
10982SOL    HW244601   7.130   3.713   2.166 -0.9670 -0.0462  1.0143
10983SOL     OW44602   8.417   9.534   1.046 -0.1219 -0.0796  0.9503
10983SOL    HW144603   8.460   9.614   1.004 -0.0949  0.2323  1.5681
10983SOL    HW244604   8.454   9.451   1.006  0.0466  0.2120  0.4946
10984SOL     OW44605   9.361   8.513   3.234  0.3694 -0.2811 -0.3841
10984SOL    HW144606   9.271   8.511   3.190 -0.2881 -0.4304  0.9429
10984SOL    HW244607   9.418   8.440   3.195 -0.6473 -1.2724 -0.0570
10985SOL     OW44608   1.762   4.534   4.562  0.1367  0.5487 -0.0772
10985SOL    HW144609   1.816   4.494   4.636 -1.3238  0.8929  1.1972
10985SOL    HW244610   1.785   4.631   4.553 -0.6847  0.8239  0.8342
10986SOL     OW44611   5.843   5.783   0.173  0.5831 -0.1946 -0.3313
10986SOL    HW144612   5.859   5.685   0.169  2.6757  0.0959 -0.0906
10986SOL    HW244613   5.879   5.826   0.091  1.1594  0.5338  0.2898
10987SOL     OW44614   9.466   4.166   1.193  0.2993  0.3930 -0.0088
10987SOL    HW144615   9.418   4.100   1.251 -1.2634  0.1795 -1.4915
10987SOL    HW244616   9.427   4.257   1.208 -0.0832  0.3433 -0.6732
10988SOL     OW44617   3.309   3.749   5.846  0.4759  0.0362 -0.5187
10988SOL    HW144618   3.222   3.786   5.880  0.0270 -0.4703 -1.1083
10988SOL    HW244619   3.302   3.649   5.841  0.9500  0.0302 -0.9824
10989SOL     OW44620   1.291   3.780   2.132 -0.3760  0.0077  0.4544
10989SOL    HW144621   1.306   3.814   2.039  0.6100 -1.0865  0.2146
10989SOL    HW244622   1.300   3.857   2.197 -1.0848  0.7724 -0.3424
10990SOL     OW44623   4.951   9.536   3.087 -0.5955  0.2008  0.1431
10990SOL    HW144624   4.913   9.495   3.003  1.0157 -1.0831  0.0166
10990SOL    HW244625   5.013   9.610   3.062  1.4357 -1.4970  0.1081
10991SOL     OW44626   0.320   9.990   6.855  0.6357  0.1706 -0.4258
10991SOL    HW144627   0.401   9.946   6.816  1.2333 -2.1104  3.1681
10991SOL    HW244628   0.273   9.926   6.916 -0.8112  3.2064  1.7746
10992SOL     OW44629   5.979   3.311   1.165 -0.0540 -0.3439  0.0110
10992SOL    HW144630   5.941   3.308   1.257 -2.1051 -0.1837 -0.7800
10992SOL    HW244631   6.067   3.359   1.165 -1.5045  2.4364  1.4019
10993SOL     OW44632   2.301   9.920   5.995 -0.6055  0.6574 -0.0023
10993SOL    HW144633   2.254   9.971   5.924  1.1316  2.0841 -0.1696
10993SOL    HW244634   2.357   9.849   5.953 -0.1493  1.0280 -0.0270
10994SOL     OW44635   2.136   5.117   1.070  0.0258 -0.5439  0.2580
10994SOL    HW144636   2.051   5.079   1.106  0.2002 -0.8961  0.2992
10994SOL    HW244637   2.151   5.208   1.108 -0.5383 -0.3156 -0.0581
10995SOL     OW44638   7.237   0.884   7.576  0.2422  0.3293 -0.0054
10995SOL    HW144639   7.212   0.802   7.524  1.4357 -0.3430  0.4516
10995SOL    HW244640   7.314   0.929   7.530  1.4998 -0.4338  1.3282
10996SOL     OW44641   2.895   9.803   4.003  0.5089 -0.4409  0.3618
10996SOL    HW144642   2.850   9.888   4.029  1.7578  0.8291 -1.4906
10996SOL    HW244643   2.994   9.814   4.008  0.6936 -1.5629 -0.5829
10997SOL     OW44644   1.811   0.107   4.618  0.1304 -0.3452 -0.4512
10997SOL    HW144645   1.787   0.025   4.566 -0.5604  0.2148 -1.0135
10997SOL    HW244646   1.760   0.186   4.583  3.4928  1.0852 -2.3635
10998SOL     OW44647   9.908   0.349   7.366 -0.8053  0.3589  0.4686
10998SOL    HW144648   9.829   0.291   7.388 -1.3206  0.7986 -0.2182
10998SOL    HW244649   9.917   0.356   7.267 -0.1187  0.6067  0.5499
10999SOL     OW44650   5.185   0.471   0.423 -0.2356  0.1518  0.5315
10999SOL    HW144651   5.273   0.424   0.437 -0.3481 -0.3297 -0.3611
10999SOL    HW244652   5.137   0.430   0.346 -0.6883  1.2506  0.2197
11000SOL     OW44653   5.765   9.393   3.253 -0.3581  0.0936 -0.1963
11000SOL    HW144654   5.838   9.429   3.195  0.6408 -0.6203  0.6071
11000SOL    HW244655   5.713   9.469   3.292  2.6098  0.7837  2.6321
11001SOL     OW44656   0.318   9.080   0.909  0.2916  0.0200 -0.4266
11001SOL    HW144657   0.384   9.108   0.979 -0.0899  0.8790 -0.3971
11001SOL    HW244658   0.354   9.002   0.858  0.6866 -0.4411  0.5503
11002SOL     OW44659   8.822   3.621   5.434 -0.7105 -0.2465 -0.1938
11002SOL    HW144660   8.851   3.662   5.520 -1.7778 -1.2267  0.6379
11002SOL    HW244661   8.892   3.557   5.402  0.1206  0.8244 -0.5571
11003SOL     OW44662   0.333   3.944   3.141 -0.1520  0.0280 -0.2300
11003SOL    HW144663   0.291   3.869   3.192 -1.0930 -2.1773 -4.0127
11003SOL    HW244664   0.266   4.018   3.130  0.6405  1.3258  3.1410
11004SOL     OW44665   1.023   7.101   3.643  0.1944 -0.1156  0.4586
11004SOL    HW144666   0.946   7.038   3.639  0.7180 -0.8167  1.1702
11004SOL    HW244667   1.008   7.167   3.716 -0.6293  0.9693 -0.6696
11005SOL     OW44668   5.712   2.412   1.535  0.1395  0.4023  0.5085
11005SOL    HW144669   5.694   2.422   1.633  2.0680  0.5577  0.8496
11005SOL    HW244670   5.809   2.426   1.516 -0.2295  0.5192 -1.4551
11006SOL     OW44671   7.413   2.897   6.079  0.2238 -0.0426 -0.6087
11006SOL    HW144672   7.332   2.955   6.078  1.8712  2.4278  2.0720
11006SOL    HW244673   7.442   2.879   5.986 -3.2534 -0.8025 -1.6090
11007SOL     OW44674   0.939   4.284   6.023  0.1769  0.8954  0.4503
11007SOL    HW144675   0.877   4.208   6.044  0.3847  1.4578  3.1840
11007SOL    HW244676   0.887   4.369   6.023 -0.0512  0.8314 -2.5983
11008SOL     OW44677   8.807   5.634   5.201 -0.3961  0.2009  0.1645
11008SOL    HW144678   8.902   5.606   5.220  0.2936  1.8644 -0.7133
11008SOL    HW244679   8.795   5.644   5.103 -1.7429 -0.8521  0.2204
11009SOL     OW44680   2.384   7.414   5.138  0.4497 -0.1341  0.4917
11009SOL    HW144681   2.333   7.500   5.150  1.2973  0.4871 -0.3895
11009SOL    HW244682   2.319   7.338   5.128 -0.3056  0.6419 -0.5213
11010SOL     OW44683   0.756   6.078   6.042  0.0957  0.0228 -0.0268
11010SOL    HW144684   0.744   6.075   6.141  0.1095 -0.9457 -0.0550
11010SOL    HW244685   0.852   6.063   6.019 -0.1686 -1.3563 -0.2635
11011SOL     OW44686   8.911   3.365   0.512 -0.2819  0.4339  0.3503
11011SOL    HW144687   8.897   3.304   0.590  0.9804  0.1121  0.3382
11011SOL    HW244688   8.836   3.430   0.507  0.0322  0.9876  2.3279
11012SOL     OW44689   4.733   2.722   6.462  0.0566 -0.3022 -0.5830
11012SOL    HW144690   4.650   2.669   6.482 -0.9600  2.1494  2.1197
11012SOL    HW244691   4.813   2.665   6.478 -1.0446 -2.2127 -1.6413
11013SOL     OW44692   5.903   3.952   0.418 -0.1114  0.3455  0.1015
11013SOL    HW144693   5.893   3.962   0.319 -1.8951 -0.5470  0.1796
11013SOL    HW244694   5.952   3.867   0.437 -0.2813  0.2249  0.0054
11014SOL     OW44695   1.648   8.357   0.815  0.6587  0.3742 -0.0576
11014SOL    HW144696   1.590   8.278   0.797 -0.4460  1.2783 -0.5767
11014SOL    HW244697   1.595   8.441   0.801  1.8894  1.2120  0.1925
11015SOL     OW44698   1.999   1.515   7.824 -0.2233  0.1907 -0.2158
11015SOL    HW144699   1.958   1.605   7.840  0.3343  0.2688  0.7954
11015SOL    HW244700   2.039   1.512   7.733 -0.8114  0.7535 -0.4936
11016SOL     OW44701   7.949   4.684   3.458  0.0703 -0.6816  0.1460
11016SOL    HW144702   7.939   4.620   3.383 -1.0105  0.8607 -1.0623
11016SOL    HW244703   8.046   4.701   3.476  0.3988 -3.2920  1.0862
11017SOL     OW44704   7.529   5.195   7.093  0.0842  0.0615  0.0355
11017SOL    HW144705   7.570   5.132   7.028  3.3100  2.2342 -0.1777
11017SOL    HW244706   7.481   5.267   7.044 -0.3788 -0.1707  0.1516
11018SOL     OW44707   4.063   1.882   0.557  0.3613  0.0871  0.0447
11018SOL    HW144708   4.072   1.958   0.622  2.5410  1.3109 -1.6293
11018SOL    HW244709   4.112   1.802   0.592  0.2670  0.2561  0.5760
11019SOL     OW44710   7.845   8.280   7.028 -0.3513  0.1336  0.3348
11019SOL    HW144711   7.885   8.282   6.936 -1.4161 -0.4291 -0.1482
11019SOL    HW244712   7.895   8.344   7.087 -0.9638  2.0386 -1.1657
11020SOL     OW44713   4.662   0.824   4.072  0.2983 -0.2197 -0.4104
11020SOL    HW144714   4.677   0.868   3.983  0.4126  0.2901 -0.1364
11020SOL    HW244715   4.576   0.774   4.070  0.5087 -0.5728 -0.9546
11021SOL     OW44716   0.490   4.328   1.773 -0.0705 -0.0176  0.3076
11021SOL    HW144717   0.474   4.316   1.675  0.0979  2.3805 -0.0469
11021SOL    HW244718   0.512   4.424   1.791  2.4465 -0.9420  2.3435
11022SOL     OW44719   4.574   8.061   0.961 -0.5785 -0.4265  0.9336
11022SOL    HW144720   4.595   7.964   0.951  0.5163 -0.2929  1.7805
11022SOL    HW244721   4.510   8.090   0.889 -2.3295 -2.1745  1.7532
11023SOL     OW44722   9.214   5.200   0.377  0.1736  0.4412 -0.2432
11023SOL    HW144723   9.137   5.211   0.314  1.3482 -0.7773 -1.9253
11023SOL    HW244724   9.181   5.163   0.464 -1.5408  2.6428  0.0858
11024SOL     OW44725   6.411   1.800   4.552  0.1014 -0.0048 -0.1288
11024SOL    HW144726   6.446   1.866   4.619  0.2987  0.4301 -0.6512
11024SOL    HW244727   6.414   1.842   4.461 -0.0315 -0.6424 -0.4223
11025SOL     OW44728   2.750   7.244   0.573  0.7997  0.4774  0.0429
11025SOL    HW144729   2.849   7.252   0.566  0.8937 -0.5257  0.1694
11025SOL    HW244730   2.712   7.331   0.607  1.5010  1.2678 -1.1484
11026SOL     OW44731   9.901   1.176   0.972  0.0320  0.5063  0.4157
11026SOL    HW144732   9.898   1.276   0.962  1.0522  0.2389 -2.9238
11026SOL    HW244733   9.842   1.149   1.048  0.6348  3.7379  2.1160
11027SOL     OW44734   1.122   0.287   0.403 -0.0150 -0.1378 -0.4186
11027SOL    HW144735   1.206   0.261   0.451 -0.9066  1.2313  1.9939
11027SOL    HW244736   1.044   0.246   0.448 -1.0100  2.4403  0.2955
11028SOL     OW44737   6.210   0.829   0.860 -0.5596  0.7654  0.1669
11028SOL    HW144738   6.146   0.758   0.830 -0.0210 -0.4895  1.9030
11028SOL    HW244739   6.243   0.880   0.781  0.2670 -1.9501 -1.2944
11029SOL     OW44740   6.297   1.160   3.063 -0.3402 -0.1730  0.5161
11029SOL    HW144741   6.350   1.244   3.067 -3.1279  1.8579 -1.9492
11029SOL    HW244742   6.353   1.086   3.025  1.6595  0.9900  1.1473
11030SOL     OW44743   9.785   4.314   2.674 -0.8715 -0.5285  0.2451
11030SOL    HW144744   9.822   4.379   2.608  0.1006 -0.5776  0.7217
11030SOL    HW244745   9.858   4.285   2.737 -1.4120 -1.6725  0.3679
11031SOL     OW44746   5.131   7.084   1.411 -0.4411 -0.2437  0.0888
11031SOL    HW144747   5.229   7.076   1.395 -0.1508 -1.9012  2.4104
11031SOL    HW244748   5.108   7.179   1.429  1.0851 -0.1097  1.4649
11032SOL     OW44749   8.988   2.681   3.168  0.5163 -0.2986 -0.1418
11032SOL    HW144750   9.027   2.669   3.077 -2.6464 -0.3637 -1.5263
11032SOL    HW244751   9.001   2.776   3.197 -0.0163  0.1705 -1.4026
11033SOL     OW44752   8.463   1.627   5.012  0.0561  0.0897 -0.0840
11033SOL    HW144753   8.513   1.702   4.967  0.1111 -0.5678 -1.1361
11033SOL    HW244754   8.506   1.540   4.990 -1.3988 -0.4616 -0.8068
11034SOL     OW44755   0.598   9.233   2.083 -0.0542  0.1387  0.6896
11034SOL    HW144756   0.565   9.198   1.996  1.5313 -4.0148  1.6317
11034SOL    HW244757   0.664   9.307   2.066 -1.0834  0.5883 -1.5323
11035SOL     OW44758   4.349   5.436   2.743 -0.3960 -0.3825 -0.2579
11035SOL    HW144759   4.422   5.500   2.766 -1.6649  0.9948  0.0225
11035SOL    HW244760   4.376   5.343   2.769  1.3662  0.0562 -0.4463
11036SOL     OW44761   4.683   8.257   5.281  0.1837  0.2583  0.0138
11036SOL    HW144762   4.717   8.334   5.228  1.5098 -0.7692 -0.6652
11036SOL    HW244763   4.599   8.222   5.239  0.1489  0.6777 -0.2685
11037SOL     OW44764   9.579   8.183   3.435  0.1443  0.0390 -0.0576
11037SOL    HW144765   9.594   8.235   3.351  1.3934 -0.1954  0.0043
11037SOL    HW244766   9.493   8.134   3.429 -0.5681  1.3357 -0.5155
11038SOL     OW44767   7.432   6.265   3.782  0.0123 -0.3223  0.0263
11038SOL    HW144768   7.504   6.333   3.768  0.5792 -0.6435  1.2910
11038SOL    HW244769   7.344   6.303   3.751  0.2738  1.0928  0.9305
11039SOL     OW44770   2.518   3.909   0.696 -0.3569  0.5198 -0.2442
11039SOL    HW144771   2.587   3.917   0.624 -1.5954  0.6126 -1.4388
11039SOL    HW244772   2.428   3.934   0.660 -1.0922  0.0508  1.1964
11040SOL     OW44773   8.696   9.315   0.571  0.5190  0.4876  0.0316
11040SOL    HW144774   8.709   9.366   0.486 -1.2224 -0.5415 -0.8899
11040SOL    HW244775   8.687   9.217   0.550  1.0109  0.1134  1.4975
11041SOL     OW44776   0.140   6.440   1.091  0.4693  0.1631  0.3965
11041SOL    HW144777   0.185   6.356   1.062  0.0413 -0.6204  1.9626
11041SOL    HW244778   0.045   6.420   1.116  0.3506  1.1185  0.7216
11042SOL     OW44779   1.386   7.299   4.293 -0.0723 -0.2018 -0.6183
11042SOL    HW144780   1.419   7.338   4.207  0.1159 -0.3056 -0.5921
11042SOL    HW244781   1.378   7.372   4.361  0.2141 -0.1945 -0.5903
11043SOL     OW44782   2.272   3.461   1.640 -0.1024 -0.7508  0.2388
11043SOL    HW144783   2.252   3.543   1.587  1.5055  0.2650  1.1571
11043SOL    HW244784   2.202   3.392   1.623 -1.2031  0.6318 -0.9216
11044SOL     OW44785   2.759   6.159   4.911  0.4264 -0.4853  0.1099
11044SOL    HW144786   2.683   6.203   4.958  0.4287 -1.2944  0.8758
11044SOL    HW244787   2.841   6.163   4.969  1.2569  1.3318 -1.1467
11045SOL     OW44788   1.185   4.177   6.097 -0.4240 -0.5446 -0.3006
11045SOL    HW144789   1.101   4.224   6.072  0.9201  0.9651 -2.1124
11045SOL    HW244790   1.255   4.245   6.121  1.6153 -1.5227 -3.1640
11046SOL     OW44791   9.316   5.453   6.342  0.1104  0.3260  0.4119
11046SOL    HW144792   9.346   5.505   6.262  0.6331 -0.0586  0.3579
11046SOL    HW244793   9.394   5.407   6.383 -0.1501  0.5751  1.1897
11047SOL     OW44794   7.542   2.833   4.881 -0.3775  0.2030  0.0639
11047SOL    HW144795   7.525   2.770   4.957  0.3930 -0.9259 -0.6879
11047SOL    HW244796   7.569   2.923   4.918 -2.0161  0.2783  1.1424
11048SOL     OW44797   5.415   7.450   5.404 -0.3840 -0.2193 -0.0679
11048SOL    HW144798   5.481   7.434   5.330  2.8121  1.2997  2.3287
11048SOL    HW244799   5.431   7.384   5.477  0.7891  2.2297  1.9652
11049SOL     OW44800   3.459   1.543   6.204  0.2170 -0.1940  0.2309
11049SOL    HW144801   3.406   1.481   6.145  0.5500  0.1018 -0.3795
11049SOL    HW244802   3.538   1.495   6.242  0.2980 -0.2328  0.0110
11050SOL     OW44803   2.905   1.045   2.479 -0.2341 -0.6962 -0.2741
11050SOL    HW144804   2.888   0.974   2.411  0.1286 -0.5121 -0.5564
11050SOL    HW244805   2.964   1.116   2.440 -0.6446 -0.2069 -0.0140
11051SOL     OW44806   2.209   3.623   1.029 -0.0932  0.3624 -0.0735
11051SOL    HW144807   2.183   3.714   0.995 -1.1876  0.0175 -0.1983
11051SOL    HW244808   2.133   3.585   1.081 -0.5567 -1.4681 -2.0192
11052SOL     OW44809   9.327   3.291   5.396  0.7303  0.0723  0.2004
11052SOL    HW144810   9.322   3.390   5.384 -1.7895  0.0063  0.3027
11052SOL    HW244811   9.340   3.270   5.493 -0.9149  0.2921  0.4831
11053SOL     OW44812   2.747   2.218   5.487 -0.0953  0.3806  0.0978
11053SOL    HW144813   2.804   2.284   5.437 -0.5308  0.2278 -0.6047
11053SOL    HW244814   2.668   2.194   5.431  0.0501 -0.7296  0.3711
11054SOL     OW44815   2.433   6.283   0.905 -0.4675  0.1268 -0.4018
11054SOL    HW144816   2.408   6.367   0.857 -0.4026 -0.3073 -1.1973
11054SOL    HW244817   2.454   6.211   0.839  0.9441 -0.0941  0.2573
11055SOL     OW44818   3.593   6.117   0.766  0.6142 -0.3722  0.1721
11055SOL    HW144819   3.630   6.035   0.723  1.5991 -0.2498  0.7847
11055SOL    HW244820   3.493   6.117   0.757  0.4823 -2.2988  1.3285
11056SOL     OW44821   8.035   1.152   6.580  0.0127  0.2784 -0.4462
11056SOL    HW144822   7.994   1.210   6.650  1.0943 -0.9678  1.2387
11056SOL    HW244823   8.116   1.107   6.617 -1.2775 -2.9754 -1.4461
11057SOL     OW44824   2.638   5.318   1.015  0.0918  0.0346  0.0565
11057SOL    HW144825   2.591   5.337   1.102 -1.3858  0.4970 -0.8132
11057SOL    HW244826   2.725   5.367   1.013  0.7367 -0.9820  1.7877
11058SOL     OW44827   9.398   0.948   6.534 -0.2387 -0.7204  0.4650
11058SOL    HW144828   9.370   0.900   6.451 -1.1274  2.3673 -1.1114
11058SOL    HW244829   9.490   0.918   6.560  0.3763 -1.1794 -2.0901
11059SOL     OW44830   3.956   1.604   1.335  0.5724  0.1158  0.1126
11059SOL    HW144831   4.005   1.656   1.404  0.9045  0.2725 -0.2371
11059SOL    HW244832   4.022   1.556   1.276  0.3569  1.2367 -1.0683
11060SOL     OW44833   8.242   1.840   5.444  0.0353  0.2176  0.0613
11060SOL    HW144834   8.288   1.815   5.358 -1.9350 -1.5843 -0.4954
11060SOL    HW244835   8.143   1.828   5.434 -0.3387  1.2627  2.1896
11061SOL     OW44836   8.795   7.710   4.045  0.7743 -0.3910 -0.0543
11061SOL    HW144837   8.791   7.691   3.947  0.6245  2.8077 -0.6967
11061SOL    HW244838   8.716   7.669   4.090 -0.4572  0.1874 -1.6541
11062SOL     OW44839   0.303   3.520   5.408  0.2299  0.1685 -0.0937
11062SOL    HW144840   0.313   3.613   5.374  1.7669 -0.7984 -2.4073
11062SOL    HW244841   0.390   3.487   5.444 -0.4091 -0.2477  1.1142
11063SOL     OW44842   9.990   8.027   3.348 -0.6916  0.6099  0.1749
11063SOL    HW144843   9.913   7.981   3.393  0.8451 -1.7532  0.4807
11063SOL    HW244844  10.072   8.018   3.405  0.6778 -0.1895 -1.8540
11064SOL     OW44845   5.628   9.016   5.006  0.3890  0.5355 -0.5652
11064SOL    HW144846   5.590   8.987   5.094  0.9673 -1.9373 -1.1093
11064SOL    HW244847   5.626   9.116   5.001 -0.8339  0.6655  1.7201
11065SOL     OW44848   1.724   1.039   3.568  0.0630  0.2112  0.3300
11065SOL    HW144849   1.751   1.132   3.543  1.5852 -0.2848  0.0614
11065SOL    HW244850   1.779   1.008   3.646 -0.1725 -0.5849  0.1920
11066SOL     OW44851   8.869   9.082   2.563  0.1555  0.3792 -0.3614
11066SOL    HW144852   8.832   9.174   2.571 -0.8834 -0.0270 -0.3242
11066SOL    HW244853   8.850   9.046   2.472  0.6782  0.2500 -0.4235
11067SOL     OW44854   8.826   5.228   2.317 -0.3684 -0.3213  0.6461
11067SOL    HW144855   8.793   5.248   2.225  0.4042  0.3025  0.4959
11067SOL    HW244856   8.765   5.269   2.385 -1.0465 -0.9474  0.4209
11068SOL     OW44857   3.331   4.833   4.410 -0.1285  0.0080 -0.0845
11068SOL    HW144858   3.351   4.859   4.505 -0.5138  1.8884 -0.4932
11068SOL    HW244859   3.414   4.798   4.367  0.3391  0.2813  0.5854
11069SOL     OW44860   4.224   8.531   2.653 -0.3686 -0.1530 -0.7081
11069SOL    HW144861   4.167   8.590   2.711  0.4841  0.0531 -0.0800
11069SOL    HW244862   4.301   8.496   2.706 -0.1077 -0.7364 -1.4590
11070SOL     OW44863   3.105   3.482   2.176  0.7940 -0.2297  0.0331
11070SOL    HW144864   3.182   3.454   2.119  0.7277  1.1358 -0.7452
11070SOL    HW244865   3.063   3.401   2.217  0.8503 -1.2382 -1.8456
11071SOL     OW44866   1.313   7.453   7.937  0.3862  0.1217  0.4237
11071SOL    HW144867   1.354   7.424   7.850 -1.0815  0.6084 -0.4426
11071SOL    HW244868   1.375   7.430   8.012  1.9897  0.3178 -0.8077
11072SOL     OW44869   0.077   7.101   4.289 -0.1016 -0.5745 -0.8431
11072SOL    HW144870  -0.017   7.098   4.321  0.1686 -1.5138 -0.1549
11072SOL    HW244871   0.118   7.010   4.293  1.6338  0.2498  1.2437
11073SOL     OW44872   8.357   4.442   2.347  0.8660  0.1670  0.3423
11073SOL    HW144873   8.259   4.457   2.337  0.8261  0.2085  0.7640
11073SOL    HW244874   8.406   4.529   2.339  1.1043 -0.1932 -2.4441
11074SOL     OW44875   5.267   2.496   4.675  0.3606  0.0590  0.2564
11074SOL    HW144876   5.289   2.567   4.607 -0.4070  0.4790  0.4459
11074SOL    HW244877   5.349   2.476   4.729  1.4681 -1.5451 -1.9382
11075SOL     OW44878   6.617   2.294   4.445  0.0600  0.7384  0.0138
11075SOL    HW144879   6.548   2.276   4.514  0.2393 -1.9447 -0.4412
11075SOL    HW244880   6.708   2.296   4.487  0.3076 -2.2380 -0.2549
11076SOL     OW44881   9.945   2.805   7.544  0.0545 -0.2888 -0.3198
11076SOL    HW144882   9.965   2.869   7.470 -0.6984  0.3084 -0.0103
11076SOL    HW244883  10.002   2.826   7.623 -1.7953  1.4654  0.5925
11077SOL     OW44884   5.031   1.646   3.268  0.3485 -0.1427 -0.6520
11077SOL    HW144885   4.949   1.629   3.214 -1.2030 -2.1499  2.1765
11077SOL    HW244886   5.079   1.727   3.233 -1.8911  0.0543 -3.3976
11078SOL     OW44887   5.709   1.008   6.951 -0.2783  0.7501  0.3988
11078SOL    HW144888   5.689   1.106   6.952 -1.5932  0.4892 -0.4599
11078SOL    HW244889   5.643   0.960   7.008  0.7393  0.4102  1.3277
11079SOL     OW44890   1.580   0.101   3.947 -0.2852 -0.1823 -0.2035
11079SOL    HW144891   1.536   0.051   4.022  0.0843 -1.6429 -0.9465
11079SOL    HW244892   1.631   0.178   3.985  0.7967 -1.5390  1.1683
11080SOL     OW44893   9.911   8.652   1.434 -0.1673  0.3180 -0.2595
11080SOL    HW144894   9.981   8.661   1.362 -1.1738 -0.2532 -1.3322
11080SOL    HW244895   9.820   8.653   1.392 -0.7407 -0.8507  0.9409
11081SOL     OW44896   9.376   3.849   2.908 -0.9286 -0.3165  0.0882
11081SOL    HW144897   9.439   3.899   2.849 -0.6600  0.0357  0.6632
11081SOL    HW244898   9.413   3.758   2.928 -0.9210 -0.3576 -0.1119
11082SOL     OW44899   3.320   1.920   5.028  0.2654 -0.6374  0.0470
11082SOL    HW144900   3.389   1.849   5.045 -0.9640 -1.3995  2.0608
11082SOL    HW244901   3.229   1.879   5.029 -0.4585  0.9417  1.2359
11083SOL     OW44902   0.328   7.073   1.663 -0.4114  0.2239  0.3980
11083SOL    HW144903   0.323   7.164   1.705  1.6299  1.3139 -1.6217
11083SOL    HW244904   0.370   7.080   1.573 -1.8857 -2.5018 -0.5731
11084SOL     OW44905   9.607   0.578   5.776  0.0364  1.0538  0.2022
11084SOL    HW144906   9.599   0.588   5.677  1.2692  1.4008  0.1317
11084SOL    HW244907   9.703   0.561   5.801 -0.5334 -1.0449  1.1636
11085SOL     OW44908   8.438   8.211   7.610  0.4519 -0.7021 -0.2822
11085SOL    HW144909   8.478   8.298   7.581 -0.9779  0.4199  1.0952
11085SOL    HW244910   8.511   8.144   7.621  1.5888  0.3559 -1.1731
11086SOL     OW44911   4.859   4.236   7.511  0.0938  0.3872 -0.0124
11086SOL    HW144912   4.821   4.158   7.460  2.3212 -0.9165  0.2431
11086SOL    HW244913   4.881   4.207   7.604 -0.8063  1.8593  0.6767
11087SOL     OW44914   2.142   0.808   4.677  0.5190 -0.0972  0.8867
11087SOL    HW144915   2.151   0.715   4.712 -0.5820  0.1664  1.8970
11087SOL    HW244916   2.106   0.868   4.749  0.7033  1.0032  0.0857
11088SOL     OW44917   5.531   9.336   0.843  0.5136 -0.1287 -0.1191
11088SOL    HW144918   5.482   9.268   0.897 -0.2299  0.5671  0.0926
11088SOL    HW244919   5.531   9.424   0.892  1.0909  0.1351 -0.5827
11089SOL     OW44920   8.335   5.959   2.179  0.1240 -0.7775 -0.6812
11089SOL    HW144921   8.384   5.980   2.094 -0.5788  2.0224 -0.4648
11089SOL    HW244922   8.396   5.970   2.257 -0.2928  0.8005 -0.5539
11090SOL     OW44923   9.266   3.215   6.815  0.2984  0.2974 -0.0233
11090SOL    HW144924   9.331   3.150   6.855 -0.0486  0.3842  0.7001
11090SOL    HW244925   9.174   3.176   6.816 -0.0083  1.0256  0.9684
11091SOL     OW44926   5.600   9.197   1.894  0.5357  0.8827 -0.0078
11091SOL    HW144927   5.614   9.241   1.983  0.9523  1.3270 -0.2831
11091SOL    HW244928   5.612   9.099   1.903 -1.1069  0.7306  0.7649
11092SOL     OW44929   1.231   4.820   6.516  0.2917 -0.1032 -0.7453
11092SOL    HW144930   1.171   4.746   6.484  1.0662 -1.7635  1.5399
11092SOL    HW244931   1.239   4.816   6.616  0.9070  2.6625 -0.6439
11093SOL     OW44932   8.050   2.241   0.499  0.1113 -0.8971  0.2528
11093SOL    HW144933   7.995   2.183   0.558  0.1648  0.6125  1.8323
11093SOL    HW244934   7.997   2.266   0.418 -1.6422  0.6226  1.8031
11094SOL     OW44935   2.497   8.062   0.174  0.1926 -0.2204  0.1825
11094SOL    HW144936   2.498   8.162   0.175 -0.1055 -0.2193  0.6635
11094SOL    HW244937   2.590   8.028   0.162  0.5237  0.1037  1.6779
11095SOL     OW44938   7.427   9.829   4.387  0.0092 -0.0454 -0.5668
11095SOL    HW144939   7.421   9.825   4.288 -0.5596 -0.9256 -0.5037
11095SOL    HW244940   7.336   9.845   4.425  0.5180  2.3155 -0.2649
11096SOL     OW44941   1.021   5.599   3.479 -0.1177 -1.0644 -0.2458
11096SOL    HW144942   0.978   5.639   3.560  0.6991  0.3644 -0.4944
11096SOL    HW244943   1.063   5.511   3.504 -1.5018 -1.5523  0.4276
11097SOL     OW44944   0.200   2.025   1.633 -0.2302  0.2091  0.3488
11097SOL    HW144945   0.214   1.936   1.677  0.9672  0.5277  0.6223
11097SOL    HW244946   0.199   2.014   1.534 -0.5321 -0.1637  0.3903
11098SOL     OW44947   2.562   2.658   4.025  0.4874  0.1058 -0.1223
11098SOL    HW144948   2.578   2.691   4.118 -1.6838  0.3807  0.1774
11098SOL    HW244949   2.612   2.715   3.960  0.7619  0.8811  0.7622
11099SOL     OW44950   8.383   7.708   8.190 -0.4245 -0.5947  0.0644
11099SOL    HW144951   8.309   7.744   8.133 -0.1206  0.1982  0.1633
11099SOL    HW244952   8.461   7.684   8.132 -0.6994 -1.2853 -0.0235
11100SOL     OW44953   2.645   3.932   8.123 -0.2224 -0.2957 -0.0184
11100SOL    HW144954   2.549   3.958   8.130 -0.0189  0.8862 -1.2558
11100SOL    HW244955   2.696   3.968   8.201 -0.4929  0.5049 -0.2037
11101SOL     OW44956   4.716   0.319   6.478 -0.1117 -0.0494  0.1993
11101SOL    HW144957   4.756   0.304   6.568 -0.8722  0.4806  0.6339
11101SOL    HW244958   4.616   0.325   6.486 -0.4796 -3.5129 -1.1564
11102SOL     OW44959   2.072   3.092   4.869 -0.1429  0.6360 -0.0923
11102SOL    HW144960   2.018   3.096   4.953 -1.2470 -4.6223 -0.3524
11102SOL    HW244961   2.015   3.117   4.791 -0.5747  0.5778  0.2055
11103SOL     OW44962   7.862   3.297   3.251  0.1284 -0.2163  0.5909
11103SOL    HW144963   7.770   3.258   3.259 -0.2576  0.0283 -2.0110
11103SOL    HW244964   7.905   3.263   3.168  2.1555  0.1745  1.4641
11104SOL     OW44965   4.240   7.941   0.866  0.1901 -0.6773  0.2962
11104SOL    HW144966   4.301   7.994   0.808  1.4046  0.1588  2.2844
11104SOL    HW244967   4.156   7.993   0.883 -0.7343 -1.4742 -1.7498
11105SOL     OW44968   3.141   5.709   3.046  0.2669 -0.3356  0.4005
11105SOL    HW144969   3.210   5.649   3.087 -1.3429 -1.9339  0.8204
11105SOL    HW244970   3.093   5.758   3.118 -1.8913 -2.4028  0.4333
11106SOL     OW44971   1.870   6.377   1.006 -0.1305  0.0699  0.0712
11106SOL    HW144972   1.867   6.406   0.910  0.0188  0.1673  0.0939
11106SOL    HW244973   1.796   6.420   1.057  1.1877  1.9169  0.4989
11107SOL     OW44974   9.639   7.371   7.097 -0.2842  0.3269 -0.4758
11107SOL    HW144975   9.657   7.461   7.136  0.2244 -0.0498  0.1670
11107SOL    HW244976   9.574   7.380   7.022 -0.3468  1.2104 -0.3242
11108SOL     OW44977   4.781   3.080   7.405 -0.7517  0.5774  0.8823
11108SOL    HW144978   4.794   3.105   7.501 -0.3050  1.9754  0.4804
11108SOL    HW244979   4.783   2.981   7.395  1.2765  0.4869  2.0149
11109SOL     OW44980   1.718   5.742   4.681 -0.6632 -0.2528 -0.0360
11109SOL    HW144981   1.760   5.665   4.632  0.4673  1.2137 -1.4056
11109SOL    HW244982   1.631   5.766   4.637  0.2133  0.8784 -1.1805
11110SOL     OW44983   2.577   9.024   5.290 -0.0682  0.4398 -0.0475
11110SOL    HW144984   2.612   8.967   5.364  0.5761  0.2057 -0.5252
11110SOL    HW244985   2.593   9.120   5.311 -1.0808  0.4419  0.7215
11111SOL     OW44986   0.616   4.791   5.646 -0.2900  0.1187 -0.3149
11111SOL    HW144987   0.665   4.772   5.731 -0.3358 -0.5585 -0.4384
11111SOL    HW244988   0.620   4.890   5.626 -1.3870  0.4665  1.1435
11112SOL     OW44989   3.082   4.817   4.878 -0.3825 -0.4953  0.1191
11112SOL    HW144990   3.181   4.809   4.892 -0.3969  0.0983  0.5803
11112SOL    HW244991   3.064   4.849   4.785 -0.1913 -1.8552 -0.4037
11113SOL     OW44992   2.802   3.830   1.055 -0.1369 -0.4779 -0.2503
11113SOL    HW144993   2.761   3.738   1.052 -1.4222  0.1106 -3.4241
11113SOL    HW244994   2.751   3.887   1.119 -0.8948 -1.2935 -0.1049
11114SOL     OW44995   0.017   1.718   5.674 -0.3186 -0.0494  0.2423
11114SOL    HW144996  -0.051   1.791   5.674 -1.2784 -0.9244  0.3832
11114SOL    HW244997   0.074   1.724   5.756 -2.2719 -1.1608  1.7311
11115SOL     OW44998   9.630   8.248   1.145 -0.1841  0.0791 -0.5772
11115SOL    HW144999   9.606   8.156   1.113 -0.7750  0.7507 -2.0745
11115SOL    HW245000   9.632   8.248   1.245 -2.4297 -1.0184 -0.4862
11116SOL     OW45001   3.524   6.714   5.248 -0.3557  0.5895  0.0858
11116SOL    HW145002   3.462   6.651   5.296 -0.9545  0.1577 -1.2296
11116SOL    HW245003   3.471   6.792   5.214  0.0953  0.9822  0.2963
11117SOL     OW45004   5.518   0.228   4.311 -0.2485  0.2060  0.7763
11117SOL    HW145005   5.481   0.304   4.258 -1.2916  0.3842  1.7441
11117SOL    HW245006   5.537   0.258   4.404 -1.8460 -1.0089  1.5180
11118SOL     OW45007   2.276   5.976   6.078  0.3415  0.6203  0.0356
11118SOL    HW145008   2.338   6.049   6.050 -0.1417  0.5456 -1.2646
11118SOL    HW245009   2.299   5.946   6.170  0.9298  2.0022  0.3511
11119SOL     OW45010   6.131   1.422   7.434  0.5498 -0.3368 -0.2281
11119SOL    HW145011   6.176   1.421   7.524 -0.9107 -0.9041  0.5213
11119SOL    HW245012   6.112   1.328   7.406 -0.3542 -0.0908 -0.4414
11120SOL     OW45013   1.312   8.359   7.114  0.2395 -0.2471 -0.3892
11120SOL    HW145014   1.395   8.364   7.058  0.7826  3.5200  0.6127
11120SOL    HW245015   1.332   8.309   7.198  0.6164 -2.1146 -1.5692
11121SOL     OW45016   1.801   2.757   4.231 -0.0128 -0.6414 -0.0414
11121SOL    HW145017   1.881   2.802   4.270  0.7975  0.7748 -3.1634
11121SOL    HW245018   1.830   2.675   4.181 -0.9134 -1.9180  1.4924
11122SOL     OW45019   3.483   7.929   2.925 -0.8004 -0.3154  0.0884
11122SOL    HW145020   3.466   8.000   2.994 -0.5335 -1.0347  0.8974
11122SOL    HW245021   3.440   7.956   2.839 -0.6017  0.8884  0.3545
11123SOL     OW45022   0.795   0.399   2.044 -0.4479  0.4284  0.1362
11123SOL    HW145023   0.800   0.308   2.003  2.0299  1.4363 -1.8933
11123SOL    HW245024   0.821   0.393   2.140  0.5264 -0.8722 -0.1983
11124SOL     OW45025   1.308   4.716   3.332  0.0194  0.7456  0.3257
11124SOL    HW145026   1.242   4.749   3.399  0.3482  0.4992  0.7757
11124SOL    HW245027   1.260   4.681   3.252 -0.6025 -2.8525  2.1602
11125SOL     OW45028   3.165   9.403   7.217  0.0316 -0.2862 -0.0402
11125SOL    HW145029   3.226   9.475   7.186  0.3755 -0.0993  1.0366
11125SOL    HW245030   3.131   9.351   7.139  1.0576  0.0215 -0.6946
11126SOL     OW45031   2.840   7.217   6.065  0.2636 -0.3221  0.0293
11126SOL    HW145032   2.874   7.148   6.000 -1.4374 -0.9823 -0.1672
11126SOL    HW245033   2.785   7.173   6.135 -1.2072  0.8980 -0.3435
11127SOL     OW45034   0.099   6.179   0.775 -0.3907  0.0589  0.4207
11127SOL    HW145035   0.046   6.135   0.847 -0.1443 -2.1566 -0.6865
11127SOL    HW245036   0.038   6.223   0.710 -0.7231  0.0411  0.7241
11128SOL     OW45037   8.434   5.811   4.723 -0.4271 -0.8450  0.3273
11128SOL    HW145038   8.511   5.823   4.785 -0.6108 -0.6186  0.5094
11128SOL    HW245039   8.459   5.744   4.652 -0.6992 -2.1721  1.4562
11129SOL     OW45040   2.463   9.794   2.520 -0.2587 -0.1590 -0.0264
11129SOL    HW145041   2.538   9.812   2.584  0.8675  0.8937 -1.6263
11129SOL    HW245042   2.470   9.700   2.486  1.0247  0.2846 -1.0370
11130SOL     OW45043   7.409   6.733   5.264  0.0244  0.2318  0.5064
11130SOL    HW145044   7.469   6.796   5.214  0.9001 -2.8326 -2.4768
11130SOL    HW245045   7.452   6.643   5.270 -3.1811 -1.3504  0.5806
11131SOL     OW45046   0.391   3.177   6.737  0.0027 -0.2165  0.6246
11131SOL    HW145047   0.307   3.220   6.706  1.3033  1.1978 -1.0524
11131SOL    HW245048   0.422   3.221   6.822 -0.8802 -0.6739  1.1878
11132SOL     OW45049   8.102   9.727   6.250  1.1348 -0.5311  0.1581
11132SOL    HW145050   8.020   9.744   6.195  0.1861  0.6788  1.8863
11132SOL    HW245051   8.120   9.629   6.254  1.4828 -0.6113 -2.6368
11133SOL     OW45052   4.769   0.468   0.847  0.0336  0.1569 -0.6624
11133SOL    HW145053   4.680   0.490   0.807 -0.1709 -0.5859 -0.6110
11133SOL    HW245054   4.819   0.407   0.786 -0.2087 -0.8426  0.1286
11134SOL     OW45055   5.047   3.095   5.543 -0.4863  0.1016  0.3894
11134SOL    HW145056   5.033   3.194   5.541 -0.2450  0.1208 -2.0700
11134SOL    HW245057   5.050   3.060   5.450  2.2391 -1.8416  1.1328
11135SOL     OW45058   1.838   1.691   0.969  0.1676  0.2849 -0.1310
11135SOL    HW145059   1.921   1.689   0.913  0.1630  0.2189 -0.1359
11135SOL    HW245060   1.770   1.751   0.925 -0.0804 -0.2907 -0.5500
11136SOL     OW45061   2.675   6.748   3.651  0.1777 -0.2118 -0.5014
11136SOL    HW145062   2.697   6.840   3.618 -0.1019  0.5842  1.4869
11136SOL    HW245063   2.737   6.724   3.726 -2.0578 -0.1759  1.4150
11137SOL     OW45064   0.794   5.756   6.031 -0.6918  0.1756 -0.3285
11137SOL    HW145065   0.883   5.802   6.031 -0.0914 -0.9520  0.9554
11137SOL    HW245066   0.742   5.784   5.950 -0.2558  2.8933  0.2865
11138SOL     OW45067   1.537   5.535   4.902 -0.8386 -0.1097 -0.6660
11138SOL    HW145068   1.626   5.514   4.863 -0.7393  0.3932 -0.7136
11138SOL    HW245069   1.466   5.529   4.832 -0.4844  2.1205 -1.2577
11139SOL     OW45070   0.680   0.299   0.103 -0.5241  0.1444  0.0823
11139SOL    HW145071   0.662   0.367   0.174 -0.8791  0.5457 -0.3902
11139SOL    HW245072   0.728   0.342   0.027  0.5165 -0.4493  0.3896
11140SOL     OW45073   0.427   0.341   6.197 -1.0469  0.1482  0.2025
11140SOL    HW145074   0.465   0.314   6.286  0.0699  0.7179 -0.0907
11140SOL    HW245075   0.476   0.294   6.124 -1.4100  0.3164 -0.1503
11141SOL     OW45076   4.118   2.903   4.717  0.3912 -0.0767 -0.9675
11141SOL    HW145077   4.214   2.890   4.740  0.1629 -0.6638 -0.3346
11141SOL    HW245078   4.103   2.876   4.622  1.1151  1.3354 -1.5013
11142SOL     OW45079   8.530   7.760   5.870  0.4665  0.2409  0.6496
11142SOL    HW145080   8.619   7.738   5.910  0.5558  1.1780  0.9778
11142SOL    HW245081   8.539   7.767   5.771  0.6014 -0.4102  0.6171
11143SOL     OW45082   2.244   7.275   5.722 -0.0307  0.0456 -0.5273
11143SOL    HW145083   2.205   7.270   5.630  0.5637 -0.7220 -0.7473
11143SOL    HW245084   2.294   7.191   5.741  0.9497  0.7375  0.0013
11144SOL     OW45085   1.168   9.893   1.931 -0.0207 -0.3694  0.5111
11144SOL    HW145086   1.234   9.891   2.006 -0.2942  0.2947  0.7669
11144SOL    HW245087   1.215   9.873   1.845  0.6804  0.9441  0.5768
11145SOL     OW45088   8.358   9.165   5.557 -0.1057  0.3758  0.0838
11145SOL    HW145089   8.371   9.133   5.651  2.3923  1.0004 -0.0038
11145SOL    HW245090   8.287   9.111   5.512 -1.0941 -0.1354  2.2264
11146SOL     OW45091   1.986   5.131   2.256 -0.3059 -0.2777  0.3200
11146SOL    HW145092   1.910   5.069   2.276 -0.7283  0.2133  0.2311
11146SOL    HW245093   1.951   5.220   2.229  0.3054  0.2308  1.1703
11147SOL     OW45094   5.817   9.430   6.388  0.7935  0.1426 -1.1178
11147SOL    HW145095   5.746   9.493   6.418  0.6592 -0.7895  0.6498
11147SOL    HW245096   5.905   9.458   6.428  0.8002 -0.5444 -0.6352
11148SOL     OW45097   9.471   9.764   5.624 -0.3714 -0.4764  0.1752
11148SOL    HW145098   9.427   9.821   5.554 -0.7135 -0.2102  0.6012
11148SOL    HW245099   9.443   9.796   5.715 -0.7706 -1.4939  0.4118
11149SOL     OW45100   6.376   1.242   1.223 -0.0847 -0.0189  0.0221
11149SOL    HW145101   6.409   1.332   1.196 -0.2614  0.5913  1.7821
11149SOL    HW245102   6.282   1.230   1.193 -0.0792  0.4054 -0.1651
11150SOL     OW45103   9.310   9.035   4.759 -0.0277 -0.0035 -0.2296
11150SOL    HW145104   9.348   8.948   4.791 -0.1416 -0.3022 -0.9051
11150SOL    HW245105   9.212   9.037   4.779 -0.0704 -0.1281 -0.4234
11151SOL     OW45106   6.237   1.554   2.808 -0.3523  0.0415  0.2796
11151SOL    HW145107   6.257   1.515   2.898  0.7884  3.5304  1.6327
11151SOL    HW245108   6.153   1.607   2.812  0.5358  1.5227 -0.2842
11152SOL     OW45109   9.208   7.359   0.755 -0.3498 -0.5450  0.0453
11152SOL    HW145110   9.110   7.339   0.762 -0.4365 -0.1183  0.1012
11152SOL    HW245111   9.261   7.276   0.773 -0.7069 -0.8284 -0.2155
11153SOL     OW45112   2.169   1.192   7.625  0.1644 -0.0649 -0.5818
11153SOL    HW145113   2.096   1.150   7.572  1.0978 -0.5097 -1.5335
11153SOL    HW245114   2.189   1.283   7.588 -1.8636  1.2551  1.4784
11154SOL     OW45115   1.964   3.859   5.808 -0.0482  0.0815 -0.0163
11154SOL    HW145116   1.894   3.839   5.739 -1.0882  2.4476  0.3043
11154SOL    HW245117   1.926   3.920   5.877  1.6268 -0.5729  1.5110
11155SOL     OW45118   9.260   4.603   6.232  0.2049  0.1011 -0.9502
11155SOL    HW145119   9.324   4.658   6.178  0.3135  0.6317 -0.2771
11155SOL    HW245120   9.292   4.508   6.236  1.2604  0.4947 -0.1100
11156SOL     OW45121   6.600   9.530   2.083  0.0874  0.0730  0.4397
11156SOL    HW145122   6.670   9.459   2.094  0.6982  0.8152  1.3966
11156SOL    HW245123   6.527   9.496   2.023  1.2000 -0.7404 -0.4640
11157SOL     OW45124   3.402   5.692   5.545 -0.8077  0.1986 -0.5878
11157SOL    HW145125   3.371   5.647   5.461 -1.3704 -0.4147 -0.0592
11157SOL    HW245126   3.428   5.622   5.612  0.7105  0.7012 -0.6458
11158SOL     OW45127   4.189   1.759   8.095 -0.2651  0.5333 -0.3351
11158SOL    HW145128   4.202   1.727   8.188 -1.4800  0.8983 -0.0305
11158SOL    HW245129   4.264   1.726   8.037 -0.9058 -1.8881  0.1945
11159SOL     OW45130   2.213   0.834   4.068  0.0848 -0.2368  0.4616
11159SOL    HW145131   2.124   0.789   4.077 -0.9641  1.7635  0.4025
11159SOL    HW245132   2.210   0.900   3.993  1.6452 -0.1955  0.4146
11160SOL     OW45133   8.800   9.262   0.807  0.7260 -0.0664 -0.6547
11160SOL    HW145134   8.791   9.278   0.709  0.9711 -1.4134 -0.9070
11160SOL    HW245135   8.801   9.163   0.825  1.3774  0.1633  0.6366
11161SOL     OW45136   2.746   4.030   0.881  0.5757 -0.5629 -0.5640
11161SOL    HW145137   2.701   4.011   0.793 -0.8108  0.8545 -0.1872
11161SOL    HW245138   2.780   3.944   0.919 -1.1955 -1.6053 -1.2085
11162SOL     OW45139   9.090   9.284   4.764 -0.5827  0.7753  0.2110
11162SOL    HW145140   9.090   9.366   4.706 -1.3903  1.0967  0.6612
11162SOL    HW245141   9.179   9.239   4.758 -0.5299  1.0253 -0.9707
11163SOL     OW45142   5.306   1.724   7.035  0.0397  0.0215  0.0852
11163SOL    HW145143   5.221   1.751   6.992  0.2047 -0.9364 -0.8524
11163SOL    HW245144   5.292   1.714   7.134 -0.8024  0.3209 -0.0021
11164SOL     OW45145   1.929   4.724   5.338 -0.0619  0.2676 -0.6345
11164SOL    HW145146   1.923   4.815   5.297 -1.5646 -0.5053 -2.1721
11164SOL    HW245147   1.863   4.663   5.294  2.2171 -2.0712 -0.9264
11165SOL     OW45148   9.909   8.624   0.075  0.2289  0.0130  0.0338
11165SOL    HW145149  10.006   8.605   0.089  0.6410  0.4258 -2.0830
11165SOL    HW245150   9.899   8.702   0.014 -1.4383 -0.0986  0.1584
11166SOL     OW45151   4.148   7.579   4.767 -0.4503 -0.0033 -0.3684
11166SOL    HW145152   4.120   7.658   4.823 -1.4736  1.1740 -2.4648
11166SOL    HW245153   4.071   7.516   4.757  0.0990 -0.8253  0.5627
11167SOL     OW45154   3.823   2.062   0.418 -0.7364 -0.0053  0.3007
11167SOL    HW145155   3.845   2.073   0.322 -1.8252  0.3410  0.0916
11167SOL    HW245156   3.809   1.965   0.438 -1.9509  0.0543 -0.2131
11168SOL     OW45157   2.956   4.181   3.884 -0.0713  0.0405 -0.0252
11168SOL    HW145158   2.911   4.219   3.964  0.9867  0.4570  0.3870
11168SOL    HW245159   2.931   4.234   3.803  0.4060  0.8538  0.3481
11169SOL     OW45160   0.655   7.635   7.320 -0.3918 -0.1999 -0.4048
11169SOL    HW145161   0.715   7.715   7.331  0.3013 -0.7650  0.0025
11169SOL    HW245162   0.623   7.630   7.225 -1.9848  1.6241  0.0189
11170SOL     OW45163   8.716   4.430   2.374  0.3746  0.5757  0.4406
11170SOL    HW145164   8.652   4.474   2.437 -2.3303 -1.3722 -0.8077
11170SOL    HW245165   8.739   4.339   2.409  1.3729  0.7220  0.1748
11171SOL     OW45166   9.365   7.760   6.300 -0.2184 -0.6323 -0.4564
11171SOL    HW145167   9.351   7.806   6.387  0.3005 -0.7402 -0.3162
11171SOL    HW245168   9.424   7.680   6.313 -0.2729 -0.7453 -0.8772
11172SOL     OW45169   8.348   0.532   6.717  0.2536 -0.4838 -0.8512
11172SOL    HW145170   8.319   0.602   6.652  1.1285  1.4747  0.8030
11172SOL    HW245171   8.415   0.471   6.673  3.1265  2.6131 -0.9562
11173SOL     OW45172   4.645   0.430   5.431 -0.6218 -0.2095  0.1783
11173SOL    HW145173   4.600   0.505   5.478 -0.2225 -0.6055  1.2140
11173SOL    HW245174   4.742   0.452   5.419 -1.1315  0.8090 -2.3840
11174SOL     OW45175   3.535   1.877   5.622 -0.0717  0.2238  0.3260
11174SOL    HW145176   3.610   1.824   5.582 -1.3857 -2.0168  0.7506
11174SOL    HW245177   3.448   1.843   5.588 -0.9486  2.3674  0.3551
11175SOL     OW45178   0.907   1.869   4.591  0.2597 -0.1494 -0.3463
11175SOL    HW145179   0.812   1.895   4.607  0.7310  1.3014  0.1540
11175SOL    HW245180   0.925   1.781   4.634 -0.3876  0.4185  1.1008
11176SOL     OW45181   2.324   7.021   7.095 -0.0944 -0.3294 -0.2019
11176SOL    HW145182   2.232   7.003   7.132 -0.1162 -0.3305 -0.2571
11176SOL    HW245183   2.320   7.097   7.031 -0.5714 -2.1560 -2.3994
11177SOL     OW45184   8.974   2.323   0.069 -0.4517  0.8100  0.0012
11177SOL    HW145185   9.031   2.404   0.082 -0.8887  1.4219 -1.8053
11177SOL    HW245186   9.007   2.250   0.128  0.4876  2.0181  1.0131
11178SOL     OW45187   2.897   6.549   4.102  0.5193 -0.0483  0.3075
11178SOL    HW145188   2.826   6.478   4.103  1.1639 -0.6932  1.9874
11178SOL    HW245189   2.919   6.575   4.196  1.1688  1.5091 -0.2651
11179SOL     OW45190   1.052   7.295   0.028 -0.3351  0.1497  0.6887
11179SOL    HW145191   1.071   7.372  -0.033 -0.1122 -0.0089  0.5576
11179SOL    HW245192   1.134   7.272   0.080  0.2065 -1.3048 -0.7506
11180SOL     OW45193   1.716   1.182   6.833  1.0077  0.8655  0.2586
11180SOL    HW145194   1.622   1.159   6.811  2.2069 -1.8834 -2.2279
11180SOL    HW245195   1.763   1.213   6.751  2.3562  2.0968  1.4506
11181SOL     OW45196   3.660   2.510   0.353  0.9574 -0.4886  0.3986
11181SOL    HW145197   3.571   2.486   0.314  0.8678 -1.1911  1.0344
11181SOL    HW245198   3.707   2.575   0.292  0.4403 -0.8972 -0.4362
11182SOL     OW45199   8.765   6.528   6.399  0.2497  0.6074  0.3548
11182SOL    HW145200   8.801   6.581   6.475 -1.0780  1.1261  0.6408
11182SOL    HW245201   8.781   6.577   6.313  1.3478  0.2328  0.3433
11183SOL     OW45202   4.796   6.871   3.319  0.4152  0.7030 -0.2349
11183SOL    HW145203   4.805   6.847   3.222 -1.5277  0.7128 -0.4378
11183SOL    HW245204   4.722   6.938   3.330 -0.1965 -0.2094  1.3779
11184SOL     OW45205   5.606   9.286   5.059  0.1134 -0.9367  0.1091
11184SOL    HW145206   5.582   9.293   5.156 -2.5666  2.3804 -0.7093
11184SOL    HW245207   5.685   9.345   5.040 -0.2681 -0.4459  0.0251
11185SOL     OW45208   8.863   3.931   3.645  0.5304  0.1096 -0.1982
11185SOL    HW145209   8.836   3.836   3.655 -1.5511  0.6696 -0.1762
11185SOL    HW245210   8.820   3.970   3.564 -0.1074  1.5009  0.7760
11186SOL     OW45211   5.369   3.281   0.136 -0.4226  0.1173  0.5348
11186SOL    HW145212   5.349   3.184   0.123 -1.8439  0.3496  0.8957
11186SOL    HW245213   5.392   3.322   0.047 -2.7824  0.0832 -0.1410
11187SOL     OW45214   9.792   6.433   5.007  0.2098  0.6977  0.2394
11187SOL    HW145215   9.728   6.509   5.022 -0.9660 -0.2015 -0.2464
11187SOL    HW245216   9.824   6.435   4.912  0.6373  0.9237  0.3837
11188SOL     OW45217   3.950   1.535   4.118  0.7491  0.0890 -0.1772
11188SOL    HW145218   4.048   1.527   4.137  0.5330  0.7738  1.3009
11188SOL    HW245219   3.899   1.521   4.203 -0.4524 -0.4639 -0.9789
11189SOL     OW45220   4.846   2.445   1.367  0.1206  0.0086 -0.2795
11189SOL    HW145221   4.774   2.379   1.347 -0.0740  0.2339 -0.3287
11189SOL    HW245222   4.870   2.495   1.283  0.7801 -0.5053 -0.4024
11190SOL     OW45223   9.507   6.677   1.111 -0.2443  0.0647  0.0654
11190SOL    HW145224   9.435   6.716   1.053 -0.2495  0.2494  0.1941
11190SOL    HW245225   9.592   6.670   1.059  0.0566  1.3242  0.3881
11191SOL     OW45226   8.629   0.886   7.985  0.1888 -0.2520  0.6662
11191SOL    HW145227   8.558   0.913   7.920  1.9999  0.0211 -1.2508
11191SOL    HW245228   8.586   0.849   8.068 -2.1730 -2.1953 -1.3275
11192SOL     OW45229   8.576   8.474   2.948  0.4184 -0.5990 -0.2408
11192SOL    HW145230   8.653   8.457   3.010  0.4361  1.0143  0.2102
11192SOL    HW245231   8.575   8.406   2.875  1.5136 -1.3927  0.4815
11193SOL     OW45232   2.611   9.055   4.538 -0.2779 -0.8804 -0.7343
11193SOL    HW145233   2.572   9.146   4.530  0.6944 -0.5442 -1.8615
11193SOL    HW245234   2.647   9.026   4.449 -1.0679 -2.5895 -0.5231
11194SOL     OW45235   9.564   3.487   3.450  0.1244  0.6653  0.0876
11194SOL    HW145236   9.537   3.454   3.359  1.0615  1.4734 -0.4990
11194SOL    HW245237   9.523   3.577   3.467 -0.0720  0.5032  0.4767
11195SOL     OW45238   2.499   1.998   3.699  0.2461 -0.3485 -0.2385
11195SOL    HW145239   2.476   1.913   3.747  0.5421  0.6918  1.8016
11195SOL    HW245240   2.415   2.046   3.675  0.1266  0.0995  1.0511
11196SOL     OW45241   0.893   8.645   6.379  0.0251  0.2800  0.0645
11196SOL    HW145242   0.946   8.627   6.462 -0.2826 -1.1342 -0.0312
11196SOL    HW245243   0.827   8.571   6.365 -1.3004  1.5236 -0.3577
11197SOL     OW45244   2.212   5.239   6.256  0.0065  0.2473  0.2650
11197SOL    HW145245   2.253   5.301   6.323  2.0856  0.7959 -1.4569
11197SOL    HW245246   2.119   5.268   6.237  0.7472  2.5338 -0.0715
11198SOL     OW45247   3.803   8.408   4.063  0.5126  0.1205 -0.1662
11198SOL    HW145248   3.866   8.392   4.140 -2.3958 -0.3661  2.1767
11198SOL    HW245249   3.774   8.503   4.063 -0.1265 -0.0754 -0.1889
11199SOL     OW45250   8.332   7.500   5.290  0.0438  0.4525 -0.0508
11199SOL    HW145251   8.308   7.473   5.384 -0.6326  2.9911  0.5450
11199SOL    HW245252   8.248   7.519   5.239  0.4627  0.3172 -0.7960
11200SOL     OW45253   9.059   2.097   6.294 -0.2301  0.0458 -0.0940
11200SOL    HW145254   9.081   2.004   6.264  0.7182  0.2022  0.1027
11200SOL    HW245255   9.032   2.095   6.390 -1.4511 -0.1924 -0.4229
11201SOL     OW45256   2.630   7.192   5.656  0.7190 -0.6445  0.1112
11201SOL    HW145257   2.706   7.242   5.614  0.3035  0.3001  0.4589
11201SOL    HW245258   2.613   7.229   5.748 -0.6538 -0.3268 -0.2600
11202SOL     OW45259   2.973   5.383   5.052  0.3456 -0.0223 -0.0063
11202SOL    HW145260   2.994   5.431   4.966  0.8875  1.5636  0.9838
11202SOL    HW245261   2.890   5.421   5.092  0.2271 -0.5903  0.2816
11203SOL     OW45262   9.804   3.772   2.960  0.2601  0.0431 -0.1493
11203SOL    HW145263   9.749   3.850   2.988  0.4886  0.2573 -0.2872
11203SOL    HW245264   9.899   3.802   2.945 -0.4514  0.5899 -4.0609
11204SOL     OW45265   8.259   9.544   4.182 -0.8527 -0.7949 -0.0903
11204SOL    HW145266   8.192   9.471   4.169 -1.1725 -0.0962 -2.6098
11204SOL    HW245267   8.215   9.624   4.223 -0.6555 -1.7166  2.0036
11205SOL     OW45268   2.173   0.403   6.081 -0.1772 -0.1260 -0.0546
11205SOL    HW145269   2.173   0.484   6.139 -0.8030  0.3278 -0.6674
11205SOL    HW245270   2.267   0.378   6.057  0.0060  0.5446 -0.0360
11206SOL     OW45271   3.974   2.352   0.452  0.2784 -0.3147  0.5285
11206SOL    HW145272   3.923   2.400   0.523 -0.8028 -0.3481 -0.2153
11206SOL    HW245273   3.950   2.255   0.454 -1.0233 -0.0444 -0.9471
11207SOL     OW45274   9.550   4.831   0.737 -0.7065  0.1046  1.1141
11207SOL    HW145275   9.623   4.768   0.766 -0.6605 -0.1044  0.5508
11207SOL    HW245276   9.487   4.783   0.677  1.0693  1.3785 -1.9068
11208SOL     OW45277   9.541   7.699   7.442 -0.0311 -0.0138  0.0899
11208SOL    HW145278   9.578   7.705   7.350 -2.9606 -2.1710 -1.3151
11208SOL    HW245279   9.603   7.644   7.499  1.5891  0.9932 -0.6608
11209SOL     OW45280   0.410   3.253   2.449  0.1281  0.2056  0.3671
11209SOL    HW145281   0.485   3.192   2.473 -0.7159 -1.9731 -2.2590
11209SOL    HW245282   0.327   3.224   2.498  0.0469  0.1096  0.1722
11210SOL     OW45283   6.873   0.824   0.212 -0.0602 -0.5365  0.3784
11210SOL    HW145284   6.936   0.750   0.236  1.2697 -1.1507 -4.5144
11210SOL    HW245285   6.925   0.909   0.200 -0.8268 -0.0356  0.5831
11211SOL     OW45286   1.460   0.826   6.034  0.1026 -0.1584  0.4559
11211SOL    HW145287   1.474   0.729   6.014 -0.1544 -0.3071  1.0052
11211SOL    HW245288   1.363   0.849   6.024  0.0353 -0.1439  1.1389
11212SOL     OW45289   5.681   0.395   3.135 -0.1024  0.0083  0.1361
11212SOL    HW145290   5.621   0.381   3.056  0.0424 -0.2209  0.0663
11212SOL    HW245291   5.747   0.466   3.115  0.5603 -0.7302 -0.3087
11213SOL     OW45292   9.858   5.719   1.852 -0.1037  0.0875 -0.4412
11213SOL    HW145293   9.878   5.813   1.826  0.2603  0.1864  0.1927
11213SOL    HW245294   9.846   5.663   1.769  1.5547  0.2895 -0.8253
11214SOL     OW45295   1.263   9.869   2.578  0.0894  0.0920  0.1369
11214SOL    HW145296   1.345   9.825   2.616  1.1918  1.0883 -1.0228
11214SOL    HW245297   1.188   9.863   2.643  1.5818  0.6747  1.9491
11215SOL     OW45298   1.919   9.584   1.543 -0.2989 -0.0751  0.2328
11215SOL    HW145299   1.986   9.634   1.488 -0.3504 -0.3875 -0.1174
11215SOL    HW245300   1.900   9.496   1.500 -0.6830 -0.1275  0.5110
11216SOL     OW45301   2.808   4.626   4.398 -0.0691  0.1237  0.3354
11216SOL    HW145302   2.770   4.665   4.482 -0.4869 -0.4555  0.4229
11216SOL    HW245303   2.908   4.632   4.401 -0.1570  2.1561 -0.1337
11217SOL     OW45304   7.040   9.553   1.195 -0.3742  0.2144  0.2888
11217SOL    HW145305   7.002   9.483   1.256  2.1216 -1.4871 -0.0365
11217SOL    HW245306   7.135   9.571   1.220  0.8459 -0.8177 -3.3122
11218SOL     OW45307   3.513   9.177   7.337 -0.2066  0.4569 -0.1426
11218SOL    HW145308   3.546   9.089   7.301 -1.2785  0.5424 -1.3702
11218SOL    HW245309   3.588   9.243   7.336  0.5623 -0.3777  0.6103
11219SOL     OW45310   9.353   2.323   4.707 -0.5741 -0.2158  0.0297
11219SOL    HW145311   9.258   2.345   4.685 -0.1100  0.9935 -0.7845
11219SOL    HW245312   9.368   2.224   4.697 -1.8953 -0.5066  0.7803
11220SOL     OW45313   9.556   0.329   5.204 -0.1107 -0.3978 -0.2363
11220SOL    HW145314   9.569   0.238   5.164 -0.2120 -1.7380  2.5896
11220SOL    HW245315   9.459   0.342   5.223  0.0215 -0.0975  0.2261
11221SOL     OW45316   8.765   2.888   5.748 -0.3138  0.5802  0.0009
11221SOL    HW145317   8.785   2.822   5.820 -0.4335 -1.0899 -1.4781
11221SOL    HW245318   8.671   2.922   5.759 -0.2214  0.5706  0.8188
11222SOL     OW45319   8.958   9.858   3.238  0.0301  0.1873 -0.1221
11222SOL    HW145320   9.006   9.810   3.311 -1.4943 -0.8672  0.1956
11222SOL    HW245321   8.859   9.846   3.248 -0.2220  0.1778 -2.2380
11223SOL     OW45322   2.773   8.746   0.713  0.0255  0.3672  0.6358
11223SOL    HW145323   2.745   8.842   0.703  0.1037  0.2361 -1.0776
11223SOL    HW245324   2.865   8.735   0.677  0.1006 -0.3163  1.0412
11224SOL     OW45325   3.454   3.259   0.722  0.3031  0.0242  0.2861
11224SOL    HW145326   3.392   3.209   0.662  0.7190  0.4530 -0.5155
11224SOL    HW245327   3.402   3.314   0.786 -0.1535 -0.9121  0.7321
11225SOL     OW45328   1.632   9.441   2.224  0.1156  0.1212 -0.3030
11225SOL    HW145329   1.719   9.397   2.245 -0.3936  0.2952  2.2465
11225SOL    HW245330   1.557   9.383   2.256 -0.6370  1.3032  0.0903
11226SOL     OW45331   9.850   1.647   1.738  0.6258  1.0026  0.4905
11226SOL    HW145332   9.783   1.572   1.737  0.7913  0.8536  0.9964
11226SOL    HW245333   9.899   1.648   1.824  0.6079  1.7168  0.4984
11227SOL     OW45334   1.264   8.612   2.556  0.4552  0.2083  0.2852
11227SOL    HW145335   1.188   8.654   2.507 -0.1596  0.6076  1.5602
11227SOL    HW245336   1.310   8.545   2.497  0.5999  1.6809 -1.3139
11228SOL     OW45337   4.391   2.265   6.571  0.2235  0.8253  0.6094
11228SOL    HW145338   4.297   2.291   6.553  0.6255  2.2368  0.4761
11228SOL    HW245339   4.453   2.327   6.522  1.2028 -0.8405 -0.2852
11229SOL     OW45340   4.881   4.390   8.096  0.0752 -0.3139  0.0131
11229SOL    HW145341   4.922   4.394   8.005  0.2394  1.4831  0.1573
11229SOL    HW245342   4.783   4.410   8.091  0.1290  0.0173  0.2621
11230SOL     OW45343   0.960   5.587   5.811 -0.1607  0.0644  0.8446
11230SOL    HW145344   1.008   5.539   5.738  2.3922  1.6512  1.4010
11230SOL    HW245345   0.896   5.653   5.772 -0.4149 -0.6418  0.0697
11231SOL     OW45346   8.379   2.924   0.434  0.1368 -0.1230 -0.2400
11231SOL    HW145347   8.405   2.901   0.527 -1.1623  1.6455  0.5970
11231SOL    HW245348   8.339   2.844   0.389 -1.2971 -0.4186  1.5013
11232SOL     OW45349   0.065   5.912   4.314 -0.4171 -0.1379  0.2949
11232SOL    HW145350   0.003   5.836   4.336  0.4258 -1.3808 -1.4989
11232SOL    HW245351   0.084   5.911   4.216  2.0177  0.5591  0.7357
11233SOL     OW45352   4.434   7.158   2.992 -0.3957 -0.4968 -0.1467
11233SOL    HW145353   4.493   7.220   3.043  2.9318 -2.3179 -1.6238
11233SOL    HW245354   4.338   7.186   3.003  0.5903  1.8737  3.2301
11234SOL     OW45355   2.244   0.264   4.815 -0.0645 -0.2483  0.3381
11234SOL    HW145356   2.271   0.169   4.828  2.2514  0.2197 -0.7880
11234SOL    HW245357   2.233   0.283   4.718  2.1048  1.2834  0.3477
11235SOL     OW45358   8.165   2.671   4.273 -0.1423 -0.2476 -0.5839
11235SOL    HW145359   8.152   2.659   4.175 -0.7416 -1.9196 -0.3206
11235SOL    HW245360   8.078   2.659   4.320 -0.0087  1.3244  0.0966
11236SOL     OW45361   9.539   5.665   7.000  0.0507  0.2025  0.1281
11236SOL    HW145362   9.561   5.736   6.933 -2.2060  1.1463  0.3566
11236SOL    HW245363   9.591   5.681   7.084  2.5348 -0.7054 -1.1720
11237SOL     OW45364   8.556   2.405   2.834 -0.0783 -0.0384 -0.3727
11237SOL    HW145365   8.491   2.438   2.766  1.6274  1.8774 -1.1333
11237SOL    HW245366   8.598   2.320   2.803 -0.7285 -0.2070 -0.7968
11238SOL     OW45367   1.887   6.228   4.027  0.0851 -0.4554  0.1397
11238SOL    HW145368   1.856   6.213   4.121  2.4903 -0.7295  0.9373
11238SOL    HW245369   1.964   6.292   4.028 -1.3556  1.3731 -1.8990
11239SOL     OW45370   1.731   7.642   1.216 -0.2167 -0.0215  0.0820
11239SOL    HW145371   1.703   7.701   1.292 -0.5575 -1.4203  1.0449
11239SOL    HW245372   1.823   7.607   1.233 -0.4382 -0.6343  0.0230
11240SOL     OW45373   0.774   1.125   5.810 -0.0325 -0.0690 -0.9867
11240SOL    HW145374   0.699   1.172   5.763  0.3776  0.7450 -0.8422
11240SOL    HW245375   0.811   1.186   5.880 -1.8664 -1.9281  1.6906
11241SOL     OW45376   8.717   7.269   3.225  0.1505  0.1194  0.3354
11241SOL    HW145377   8.795   7.332   3.216 -0.2424  0.5292 -0.2439
11241SOL    HW245378   8.750   7.175   3.230  0.6393  0.2176 -0.8568
11242SOL     OW45379   0.633   0.305   2.918  0.0154  0.3409  0.2295
11242SOL    HW145380   0.650   0.394   2.876 -0.5192  1.3240  2.0516
11242SOL    HW245381   0.685   0.235   2.870  0.7006  1.6850 -1.0149
11243SOL     OW45382   9.378   0.526   3.741 -0.3218 -0.4803 -0.0767
11243SOL    HW145383   9.306   0.465   3.774 -0.7490  1.0105  1.8480
11243SOL    HW245384   9.463   0.508   3.791 -0.9539  1.7510  1.8890
11244SOL     OW45385   5.051   4.954   0.762 -0.3192 -0.3462 -0.2607
11244SOL    HW145386   5.121   5.011   0.804 -2.7459  0.4565  2.8764
11244SOL    HW245387   5.093   4.870   0.727  2.3423  0.5489  0.6913
11245SOL     OW45388   5.326   7.003   1.706 -0.6545 -0.1509 -0.1177
11245SOL    HW145389   5.384   6.951   1.643  2.3437  0.4926  2.0056
11245SOL    HW245390   5.268   6.939   1.758  1.1995 -1.2039  0.6953
11246SOL     OW45391   2.600   8.354   2.259 -0.9732 -0.0834 -0.0447
11246SOL    HW145392   2.528   8.286   2.250 -0.2794 -0.7506 -0.6958
11246SOL    HW245393   2.645   8.344   2.348 -3.8127  2.4968  1.7842
11247SOL     OW45394   0.277   7.321   0.090 -0.7773  0.5615 -0.0386
11247SOL    HW145395   0.322   7.375   0.019  0.9673  0.5149  1.0070
11247SOL    HW245396   0.242   7.236   0.050 -0.7189  1.0011 -1.0457
11248SOL     OW45397   8.715   3.765   0.712  0.4486 -0.2332  0.2641
11248SOL    HW145398   8.647   3.734   0.778  0.0101  0.0890 -0.0341
11248SOL    HW245399   8.793   3.702   0.713 -0.9539 -2.0783 -1.1968
11249SOL     OW45400   4.439   7.205   5.135 -0.6673  0.0351 -0.0738
11249SOL    HW145401   4.479   7.129   5.084 -2.1767 -0.1202 -1.0545
11249SOL    HW245402   4.511   7.265   5.168  0.4881 -1.3469 -0.0538
11250SOL     OW45403   9.867   5.128   1.309  0.3354 -0.1098  0.2697
11250SOL    HW145404   9.863   5.223   1.278 -1.1367 -0.2288  0.0693
11250SOL    HW245405   9.816   5.119   1.394 -2.4526 -1.3701 -1.4622
11251SOL     OW45406   3.725   2.338   1.762  0.6066  0.1284  0.2565
11251SOL    HW145407   3.793   2.345   1.690  2.3454 -0.9892  1.7288
11251SOL    HW245408   3.662   2.263   1.741  1.3619 -0.4689  0.0974
11252SOL     OW45409   8.780   2.962   2.287 -0.0134 -0.3665  0.0919
11252SOL    HW145410   8.759   3.056   2.261 -1.1549 -1.1137 -1.7930
11252SOL    HW245411   8.869   2.959   2.333 -0.0903  1.6519  0.4124
11253SOL     OW45412   4.152   2.040   0.343 -0.4581 -0.1426  0.2056
11253SOL    HW145413   4.173   2.114   0.407  0.6360 -1.8134  1.8342
11253SOL    HW245414   4.122   1.960   0.394 -0.5705 -1.1811 -1.4630
11254SOL     OW45415   2.032   6.650   0.275 -0.2641  0.0706  0.3663
11254SOL    HW145416   2.119   6.646   0.227 -0.3415 -2.4064  0.3327
11254SOL    HW245417   1.992   6.558   0.278 -2.0100  0.8492  1.9444
11255SOL     OW45418   2.495   5.523   7.285 -0.3746  0.4613  0.2093
11255SOL    HW145419   2.406   5.481   7.299 -0.4048  0.7789  0.9697
11255SOL    HW245420   2.496   5.615   7.325  0.4702  0.2541  0.6778
11256SOL     OW45421   2.583   5.560   4.248 -0.0890 -0.2794  0.0480
11256SOL    HW145422   2.677   5.594   4.253  0.0137 -0.6264  0.5716
11256SOL    HW245423   2.540   5.567   4.338 -0.0977 -1.4155  0.1417
11257SOL     OW45424   1.135   2.333   5.584 -0.1138  0.1185  0.2848
11257SOL    HW145425   1.162   2.271   5.658 -1.5541 -0.4268  0.3603
11257SOL    HW245426   1.048   2.304   5.545 -0.4179  1.6277 -0.2193
11258SOL     OW45427   1.721   9.385   0.432 -0.0310  0.6663 -0.5338
11258SOL    HW145428   1.717   9.481   0.462 -1.0642  0.6396 -0.5562
11258SOL    HW245429   1.693   9.380   0.336 -0.9199  0.2375 -0.2608
11259SOL     OW45430   6.559   5.663   0.156 -0.0672  0.2111  0.6735
11259SOL    HW145431   6.643   5.654   0.209 -1.3553 -2.7566  2.3207
11259SOL    HW245432   6.546   5.581   0.100 -0.4057  1.8950 -1.7960
11260SOL     OW45433   0.041   6.323   2.311  1.1995 -0.3148 -0.0862
11260SOL    HW145434   0.069   6.276   2.227 -1.1789 -0.2308 -0.9634
11260SOL    HW245435   0.068   6.420   2.306  0.2338 -0.0926 -1.1859
11261SOL     OW45436   6.223   0.515   0.521 -0.2191  0.0002  0.4964
11261SOL    HW145437   6.142   0.458   0.530  0.4231 -0.7237  1.9469
11261SOL    HW245438   6.197   0.607   0.494 -1.6255  0.0390  1.9216
11262SOL     OW45439   4.750   1.823   4.505  0.8659  0.0183  0.2826
11262SOL    HW145440   4.750   1.825   4.605  2.2013  0.2636  0.2752
11262SOL    HW245441   4.770   1.915   4.469 -1.0536  0.2731 -0.2303
11263SOL     OW45442   8.978   6.753   5.308 -0.0125  0.3594 -0.3661
11263SOL    HW145443   8.894   6.739   5.359 -0.0885  2.2671  0.0480
11263SOL    HW245444   8.963   6.732   5.211 -0.5360 -0.7938 -0.0367
11264SOL     OW45445   4.691   3.001   1.045 -0.3791  0.7781 -0.3047
11264SOL    HW145446   4.638   3.085   1.055 -0.4550  0.7131 -0.1643
11264SOL    HW245447   4.774   3.020   0.992 -0.0777  1.0770  0.2783
11265SOL     OW45448   0.010   4.806   7.586  0.3645 -0.5299 -0.0445
11265SOL    HW145449   0.100   4.775   7.616  1.2605  2.1911  0.2487
11265SOL    HW245450  -0.059   4.771   7.650  1.3960 -1.1746  0.7484
11266SOL     OW45451   5.537   9.463   6.628  0.5876 -0.0507 -1.0779
11266SOL    HW145452   5.442   9.481   6.653  1.1548  0.0908  1.0992
11266SOL    HW245453   5.568   9.531   6.561  0.0024  1.6795  0.3567
11267SOL     OW45454   0.116   2.574   1.380  0.2724 -0.3648 -0.0920
11267SOL    HW145455   0.164   2.660   1.400 -0.1306 -0.2304  0.3044
11267SOL    HW245456   0.040   2.592   1.318 -0.1294 -0.3500  0.4010
11268SOL     OW45457   2.966   3.467   0.051  0.4400 -0.0687 -0.3193
11268SOL    HW145458   2.942   3.371   0.033 -0.1182 -0.2441  1.2731
11268SOL    HW245459   2.894   3.526   0.014 -0.4136 -0.3935  0.7945
11269SOL     OW45460   5.492   8.404   4.700 -0.3127  0.1520  0.5580
11269SOL    HW145461   5.467   8.501   4.697 -0.2126  0.1598 -0.5135
11269SOL    HW245462   5.564   8.390   4.768  0.8407  1.1231 -0.4365
11270SOL     OW45463   9.483   8.281   5.085  0.4068  0.1846  0.3321
11270SOL    HW145464   9.452   8.220   5.157 -0.2380 -0.1734 -0.2504
11270SOL    HW245465   9.460   8.243   4.995 -2.2260  2.4249 -0.0138
11271SOL     OW45466   0.309   7.856   4.394  0.1653 -0.2044  0.2117
11271SOL    HW145467   0.245   7.791   4.352 -0.2339 -0.3324  1.0224
11271SOL    HW245468   0.381   7.805   4.442  0.3860 -0.0504  0.0460
11272SOL     OW45469   1.250   7.656   1.972 -0.2174 -0.0445 -0.4017
11272SOL    HW145470   1.298   7.608   2.045  0.4512 -0.6300 -1.2210
11272SOL    HW245471   1.152   7.640   1.979  0.0331 -1.8110 -0.8771
11273SOL     OW45472   7.913   2.692   0.508  0.2696  0.2285 -0.2072
11273SOL    HW145473   7.941   2.634   0.585 -0.9507  0.3181  0.3121
11273SOL    HW245474   7.944   2.785   0.524 -0.1632  0.2939  0.2977
11274SOL     OW45475   5.279   0.627   6.025  0.3358  0.5934  0.7893
11274SOL    HW145476   5.180   0.622   6.031  0.3420 -0.8662 -0.0976
11274SOL    HW245477   5.305   0.698   5.960 -0.1745 -0.4708 -0.5901
11275SOL     OW45478   9.691   5.454   0.723  0.3133 -0.6202 -0.6795
11275SOL    HW145479   9.695   5.544   0.680  0.9647 -0.7724 -0.9411
11275SOL    HW245480   9.686   5.463   0.822 -0.3090 -0.2842 -0.7387
11276SOL     OW45481   7.024   2.925   2.486 -0.1743  0.2611 -0.0310
11276SOL    HW145482   7.040   2.848   2.547 -0.6992  1.1482  1.2372
11276SOL    HW245483   7.102   2.988   2.491  0.4305 -0.3568 -1.3517
11277SOL     OW45484   3.674   8.471   6.473 -0.0115  0.1028 -0.5709
11277SOL    HW145485   3.724   8.385   6.483  1.1065  0.7017 -0.9523
11277SOL    HW245486   3.584   8.463   6.517  0.2201 -1.1422 -0.3169
11278SOL     OW45487   1.840   5.852   7.001  0.8392  0.6109 -0.0734
11278SOL    HW145488   1.933   5.854   6.965  0.8503 -1.1606 -0.2125
11278SOL    HW245489   1.839   5.801   7.087  0.1168  1.2372  0.2923
11279SOL     OW45490   0.199   3.146   2.630 -0.2923  0.3256 -0.1276
11279SOL    HW145491   0.257   3.065   2.641 -2.1010 -1.3478 -2.4209
11279SOL    HW245492   0.172   3.180   2.720  2.1144 -0.3985  0.9026
11280SOL     OW45493   1.019   1.852   0.905  0.2338  0.4695 -0.0856
11280SOL    HW145494   1.036   1.753   0.906  3.3887  0.9528 -0.2388
11280SOL    HW245495   0.968   1.876   0.822 -0.1090 -0.9502 -0.3042
11281SOL     OW45496   3.911   6.266   2.881  0.4436 -0.6183 -1.1325
11281SOL    HW145497   3.976   6.342   2.879 -0.7298  0.4128 -0.6566
11281SOL    HW245498   3.893   6.240   2.976 -1.8160  0.8478 -1.1148
11282SOL     OW45499   3.458   9.569   5.704  0.1407  0.1931 -0.0321
11282SOL    HW145500   3.401   9.572   5.621  1.0207  0.9798 -0.6143
11282SOL    HW245501   3.420   9.630   5.773 -0.7389 -0.6537  0.2472
11283SOL     OW45502   0.683   0.788   0.202  0.0655  0.4311  0.5702
11283SOL    HW145503   0.638   0.745   0.281 -0.0496  0.6640  0.6347
11283SOL    HW245504   0.781   0.774   0.208 -0.0326 -0.4046  0.2322
11284SOL     OW45505   6.931   9.771   5.810  0.4466 -0.1743 -0.3458
11284SOL    HW145506   6.942   9.833   5.888 -0.3187 -1.8771  1.1466
11284SOL    HW245507   7.013   9.714   5.801  0.3179 -0.3382 -0.4667
11285SOL     OW45508   9.279   9.700   2.695 -0.0003 -0.1667 -0.2798
11285SOL    HW145509   9.318   9.782   2.738 -0.4113 -0.2592  0.2865
11285SOL    HW245510   9.345   9.661   2.631 -0.8789  2.2653 -2.7440
11286SOL     OW45511   8.641   3.154   1.071  0.0919 -0.1425 -0.6125
11286SOL    HW145512   8.672   3.236   1.023 -0.6839  0.1566 -0.6176
11286SOL    HW245513   8.703   3.079   1.053  0.2626  0.1916 -1.4157
11287SOL     OW45514   8.174   2.987   3.218 -0.3622 -0.0567 -0.2586
11287SOL    HW145515   8.260   2.943   3.191 -1.0679  0.0450 -2.7913
11287SOL    HW245516   8.191   3.082   3.241  0.2594 -0.0860 -0.5893
11288SOL     OW45517   8.315   8.106   2.607  0.0178  0.3159  0.4571
11288SOL    HW145518   8.279   8.013   2.596 -1.0991  0.7905  0.0421
11288SOL    HW245519   8.306   8.155   2.520  0.1832  0.9643  0.8071
11289SOL     OW45520   4.249   3.837   0.209  0.4051  0.0487 -0.7835
11289SOL    HW145521   4.318   3.854   0.279 -0.1347  0.2689 -0.2894
11289SOL    HW245522   4.235   3.739   0.199  0.4821  0.0157 -0.5738
11290SOL     OW45523   1.238   8.897   8.166  0.1939 -0.3778  0.7535
11290SOL    HW145524   1.335   8.872   8.170  0.4520  0.3483 -0.5500
11290SOL    HW245525   1.230   8.995   8.146 -0.7904 -0.7195 -0.6024
11291SOL     OW45526   8.052   7.479   6.609  0.1259  0.0937  0.1297
11291SOL    HW145527   8.076   7.544   6.683  0.1145  0.1228  0.1073
11291SOL    HW245528   8.135   7.455   6.559 -0.1505  1.6252 -1.1183
11292SOL     OW45529   3.008   5.393   3.814  0.0124 -0.2618  0.1223
11292SOL    HW145530   3.043   5.312   3.862  0.0476 -1.2687 -1.5872
11292SOL    HW245531   2.996   5.373   3.717  1.1211  2.1494 -0.5624
11293SOL     OW45532   4.390   5.696   7.991  0.0111  0.6153 -0.0141
11293SOL    HW145533   4.297   5.705   8.027 -0.7110  0.2102 -1.7195
11293SOL    HW245534   4.395   5.613   7.935  1.1012  1.2248 -0.8209
11294SOL     OW45535   3.032   1.150   6.885 -0.2558  0.4288 -0.1077
11294SOL    HW145536   3.085   1.222   6.839  0.8253 -0.2632  0.0468
11294SOL    HW245537   2.960   1.117   6.824  3.2496 -2.8457 -2.6462
11295SOL     OW45538   0.031   2.453   1.682  0.2838 -0.2157 -0.0676
11295SOL    HW145539   0.080   2.530   1.723  1.8383 -1.2969  0.1602
11295SOL    HW245540   0.006   2.476   1.588 -0.8388  1.2282  0.5710
11296SOL     OW45541   6.388   0.925   0.263 -0.2604 -0.2071 -0.4731
11296SOL    HW145542   6.483   0.937   0.293  0.1747 -0.6916 -1.6227
11296SOL    HW245543   6.373   0.831   0.234 -1.4058 -0.4099  0.7247
11297SOL     OW45544   8.558   5.320   4.437 -0.0087  0.5725 -0.3171
11297SOL    HW145545   8.468   5.361   4.455  0.0175  0.6516 -0.3682
11297SOL    HW245546   8.546   5.237   4.382 -0.2480 -0.6891  1.6011
11298SOL     OW45547   0.425   8.808   3.504  0.4038  0.5148 -0.3514
11298SOL    HW145548   0.473   8.751   3.438  0.5314  1.2629 -0.9090
11298SOL    HW245549   0.492   8.855   3.561  0.2942 -0.1748  0.3581
11299SOL     OW45550   3.420   8.443   0.595  0.0665  0.4527 -0.2959
11299SOL    HW145551   3.336   8.390   0.607  0.1343  0.5037  0.4191
11299SOL    HW245552   3.477   8.399   0.526 -0.6087  0.4973 -0.8917
11300SOL     OW45553   5.345   1.076   6.856  0.1642 -0.3287  0.0911
11300SOL    HW145554   5.382   1.023   6.780  0.2665 -1.6751  1.0455
11300SOL    HW245555   5.260   1.121   6.828  0.2608 -0.7240 -0.8410
11301SOL     OW45556   3.627   8.928   7.190  0.4109  0.3466  0.3128
11301SOL    HW145557   3.628   8.890   7.097  0.0160 -2.1868  1.3037
11301SOL    HW245558   3.720   8.931   7.226  0.4903  0.7533  0.0835
11302SOL     OW45559   8.773   6.213   6.853  0.4258  0.3577 -0.2478
11302SOL    HW145560   8.718   6.201   6.770  0.4251 -0.1650 -0.1730
11302SOL    HW245561   8.857   6.263   6.831  0.2338  0.5748 -0.4859
11303SOL     OW45562   4.175   0.640   3.854  0.0541 -0.3068 -0.1237
11303SOL    HW145563   4.145   0.735   3.863 -1.0485 -0.6153 -0.4878
11303SOL    HW245564   4.231   0.630   3.771 -0.1545 -0.0615 -0.2945
11304SOL     OW45565   1.492   9.434   5.072 -0.5923 -0.0253  0.2753
11304SOL    HW145566   1.463   9.345   5.107 -1.6487  0.1511 -0.1378
11304SOL    HW245567   1.528   9.489   5.148 -0.6424 -0.5221  0.6613
11305SOL     OW45568   0.397   5.560   5.816  0.4345  0.0862 -0.0952
11305SOL    HW145569   0.459   5.554   5.895 -0.8280 -1.8393  0.7890
11305SOL    HW245570   0.374   5.655   5.800  1.6610  0.6164  1.1230
11306SOL     OW45571   6.452   1.355   3.220  0.8568 -0.4130 -0.3421
11306SOL    HW145572   6.529   1.414   3.196  2.2086 -1.4410  1.3302
11306SOL    HW245573   6.448   1.345   3.319 -1.8187  0.0945 -0.3810
11307SOL     OW45574   1.755   4.645   6.787  0.1018 -0.0565 -0.2652
11307SOL    HW145575   1.676   4.626   6.728 -1.3748  1.1844  1.2814
11307SOL    HW245576   1.791   4.559   6.823  0.4689 -0.7620 -2.2318
11308SOL     OW45577   7.516   7.842   5.262 -0.4110  0.3218 -0.1634
11308SOL    HW145578   7.456   7.793   5.199 -0.8459 -1.9522  1.9348
11308SOL    HW245579   7.483   7.830   5.356  3.4877 -1.2757  1.0870
11309SOL     OW45580   6.312   3.133   1.754  0.4090 -0.2599  0.2000
11309SOL    HW145581   6.334   3.111   1.849  2.7711 -0.6350 -0.3996
11309SOL    HW245582   6.311   3.049   1.700 -2.0522 -0.1780  0.0946
11310SOL     OW45583   3.458   5.592   1.890  0.5132 -0.4629 -0.0042
11310SOL    HW145584   3.405   5.604   1.974  1.2376  3.1136 -0.0011
11310SOL    HW245585   3.551   5.563   1.913  0.5933  0.1134  0.3971
11311SOL     OW45586   1.579   4.623   3.305  0.0849 -0.0586  0.1004
11311SOL    HW145587   1.619   4.646   3.217 -1.1746  0.0554 -0.4519
11311SOL    HW245588   1.491   4.668   3.315  0.1734 -0.1374  1.3905
11312SOL     OW45589   3.125   6.685   4.482 -0.2732 -0.1666 -0.3241
11312SOL    HW145590   3.054   6.626   4.444  0.5336 -0.3911 -1.5197
11312SOL    HW245591   3.215   6.646   4.461  0.2123 -0.0049  1.3575
11313SOL     OW45592   0.740   3.325   1.809 -0.0555  0.0475  0.5073
11313SOL    HW145593   0.677   3.249   1.824 -0.3870  0.3656  0.7180
11313SOL    HW245594   0.786   3.348   1.895 -0.9990  1.0140  0.7548
11314SOL     OW45595   5.547   9.808   2.234  0.2657  0.7419  0.4142
11314SOL    HW145596   5.448   9.815   2.248  0.1198  3.0074 -1.5203
11314SOL    HW245597   5.566   9.733   2.170 -0.1153 -0.0605  1.2138
11315SOL     OW45598   1.356   3.348   5.331 -0.1191 -0.3619 -0.4165
11315SOL    HW145599   1.361   3.415   5.405 -1.2537 -0.2355 -0.4569
11315SOL    HW245600   1.336   3.395   5.245  2.4024 -0.3494 -1.0419
11316SOL     OW45601   5.754   1.158   5.226  0.3382  0.5684 -0.2729
11316SOL    HW145602   5.850   1.170   5.249 -0.3368  1.8309  2.0117
11316SOL    HW245603   5.744   1.154   5.126  2.7359  0.3554 -0.5433
11317SOL     OW45604   8.696   8.582   7.261  0.5194  0.2373  0.0528
11317SOL    HW145605   8.632   8.577   7.185 -0.3657  1.4482  0.6986
11317SOL    HW245606   8.731   8.490   7.281 -2.2554 -0.7496  0.7272
11318SOL     OW45607   4.443   3.886   0.828 -0.1481 -0.0756  0.2343
11318SOL    HW145608   4.473   3.804   0.779 -1.8878 -1.4968  1.5137
11318SOL    HW245609   4.519   3.923   0.880  0.4098 -1.4266  0.3987
11319SOL     OW45610   9.125   8.434   1.699 -0.4215 -0.6078  0.2717
11319SOL    HW145611   9.159   8.438   1.793 -0.9792  1.7091  0.4063
11319SOL    HW245612   9.048   8.370   1.695  0.7943 -2.1493  0.9774
11320SOL     OW45613   9.210   6.085   6.598  0.0505  0.4823  0.3031
11320SOL    HW145614   9.288   6.138   6.629 -0.0055  1.1987 -0.7548
11320SOL    HW245615   9.213   6.076   6.499 -0.7281 -0.2488  0.3370
11321SOL     OW45616   3.077   9.751   2.012  0.3498 -0.5512 -0.0905
11321SOL    HW145617   3.001   9.776   2.072  2.3653  1.6633  1.6382
11321SOL    HW245618   3.074   9.807   1.930  0.5911  0.1339  0.3649
11322SOL     OW45619   3.393   5.940   3.823  0.0302  0.3808  0.1595
11322SOL    HW145620   3.332   5.897   3.757 -0.4766  0.0344  0.8477
11322SOL    HW245621   3.484   5.899   3.817 -0.4066 -0.6645  0.6878
11323SOL     OW45622   9.805   8.098   4.784  0.3345 -0.3971  0.0911
11323SOL    HW145623   9.901   8.079   4.763 -0.0263 -2.3339  0.0628
11323SOL    HW245624   9.767   8.158   4.714  1.0182 -1.1287 -0.9265
11324SOL     OW45625   4.079   4.881   4.339 -0.3324  0.5826 -0.6128
11324SOL    HW145626   4.105   4.883   4.242  0.1363  1.0006 -0.4844
11324SOL    HW245627   3.996   4.827   4.350 -2.3234  3.2610 -1.7167
11325SOL     OW45628   2.705   5.538   1.580  0.2441 -0.4149  0.3920
11325SOL    HW145629   2.697   5.440   1.561  1.2255 -0.4879  0.3363
11325SOL    HW245630   2.732   5.551   1.675  1.7619 -0.2586 -0.0463
11326SOL     OW45631   3.847   0.307   7.900 -0.2521 -0.2502  0.2081
11326SOL    HW145632   3.782   0.238   7.869  0.0272 -0.1839 -0.5472
11326SOL    HW245633   3.855   0.304   7.999 -0.3517 -1.1979  0.1887
11327SOL     OW45634   3.837   6.716   0.946  0.5512  0.1940  0.1179
11327SOL    HW145635   3.795   6.626   0.932  0.0196  0.4592 -0.0038
11327SOL    HW245636   3.936   6.707   0.939  0.4209 -0.0605 -1.7903
11328SOL     OW45637   1.695   1.251   7.700  0.4735 -0.5520  0.1277
11328SOL    HW145638   1.668   1.343   7.728  0.0848 -0.5514 -0.2418
11328SOL    HW245639   1.696   1.191   7.779 -0.4425 -0.5115  0.1695
11329SOL     OW45640   2.766   9.790   2.847  0.3276 -0.3337  0.6382
11329SOL    HW145641   2.863   9.804   2.870  1.2067 -1.4764 -2.1125
11329SOL    HW245642   2.721   9.879   2.840  1.3975  0.2551  1.0313
11330SOL     OW45643   9.692   3.755   7.414  0.1096  0.1493  0.0720
11330SOL    HW145644   9.748   3.686   7.369 -1.6427 -1.1157 -0.2143
11330SOL    HW245645   9.630   3.797   7.348 -1.0069 -0.2246  0.8527
11331SOL     OW45646   0.129   5.101   6.545  0.2399  0.2345  0.2112
11331SOL    HW145647   0.227   5.104   6.562  0.1619  0.9436  0.5567
11331SOL    HW245648   0.080   5.142   6.622 -0.3244 -0.0559  0.0138
11332SOL     OW45649   4.053   4.087   0.969 -0.8260 -0.2593 -0.0780
11332SOL    HW145650   4.112   4.040   1.035 -0.2585 -0.7070 -0.8968
11332SOL    HW245651   4.092   4.177   0.948  0.7078 -1.3636 -2.1758
11333SOL     OW45652   6.688   1.006   3.987  0.8849  0.2353  0.1696
11333SOL    HW145653   6.745   0.924   3.987  1.4844  0.6493 -1.1940
11333SOL    HW245654   6.725   1.071   4.054  1.4327  0.1042 -0.0021
11334SOL     OW45655   8.942   8.690   8.005 -0.5824  0.4254  0.0548
11334SOL    HW145656   9.029   8.686   8.053 -1.5908 -1.9825  1.7622
11334SOL    HW245657   8.883   8.758   8.049 -0.7753 -0.3618  1.0420
11335SOL     OW45658   6.804   5.019   1.617  0.4009  0.5793  0.6918
11335SOL    HW145659   6.873   5.087   1.591  0.7489 -0.2889 -0.6700
11335SOL    HW245660   6.848   4.932   1.638 -0.3415 -0.2485 -1.1126
11336SOL     OW45661   2.040   4.467   7.570  0.1379 -0.4212 -0.5601
11336SOL    HW145662   2.035   4.369   7.591  2.4082 -0.7650 -1.4528
11336SOL    HW245663   2.135   4.492   7.552 -0.6439  1.5988 -2.0335
11337SOL     OW45664   2.450   3.353   3.536 -0.0292  0.5283 -0.0952
11337SOL    HW145665   2.402   3.288   3.477 -1.5136  1.7697 -0.2632
11337SOL    HW245666   2.458   3.441   3.490  2.4371  0.3587 -0.0684
11338SOL     OW45667   2.492   4.968   3.523 -0.8139  0.4666 -0.3360
11338SOL    HW145668   2.544   4.885   3.505 -0.8244  0.3092  0.3734
11338SOL    HW245669   2.397   4.954   3.496 -1.2691 -0.4405  1.6690
11339SOL     OW45670   0.118   1.235   2.116  0.1109  0.2216  0.2536
11339SOL    HW145671   0.044   1.172   2.092  0.3545 -0.1990  0.6117
11339SOL    HW245672   0.197   1.216   2.059  0.9791 -1.3289  1.9306
11340SOL     OW45673   1.664   7.536   5.265 -0.2285  0.0206 -0.1881
11340SOL    HW145674   1.762   7.552   5.274 -0.0098 -0.7742 -1.2106
11340SOL    HW245675   1.630   7.577   5.180 -0.7861  0.2667  0.1429
11341SOL     OW45676   4.311   1.240   3.540  0.1746  0.0082 -0.3227
11341SOL    HW145677   4.369   1.298   3.483 -0.3078  0.0101 -0.8280
11341SOL    HW245678   4.328   1.259   3.636  1.5082 -0.4939 -0.4507
11342SOL     OW45679   9.808   9.336   5.663  0.3218  0.1417 -0.1096
11342SOL    HW145680   9.894   9.327   5.612 -0.1163  0.8053 -0.9673
11342SOL    HW245681   9.732   9.343   5.599 -0.3132  0.1486  0.6473
11343SOL     OW45682   7.520   5.457   1.349 -0.5851  0.0979  0.5374
11343SOL    HW145683   7.420   5.462   1.349 -0.5636  0.5089  1.4303
11343SOL    HW245684   7.548   5.362   1.363 -0.8491 -0.3141 -1.4468
11344SOL     OW45685   2.651   1.767   4.213 -0.4116  0.0279 -0.9970
11344SOL    HW145686   2.618   1.674   4.197 -0.5691 -0.1796  0.4437
11344SOL    HW245687   2.685   1.806   4.128 -2.3620 -0.5496 -2.0809
11345SOL     OW45688   2.151   8.465   6.646  0.3293  1.1882 -0.2856
11345SOL    HW145689   2.159   8.559   6.615 -1.5597  0.2568 -3.8378
11345SOL    HW245690   2.054   8.440   6.651  0.8069 -0.5175  0.8340
11346SOL     OW45691   3.884   3.567   7.716  0.1232 -0.0646  0.3783
11346SOL    HW145692   3.913   3.623   7.638 -1.6509 -0.8363 -0.8302
11346SOL    HW245693   3.964   3.520   7.754  1.0264  0.4641 -0.8347
11347SOL     OW45694   9.812   3.925   5.102 -0.0405 -0.0236  0.1407
11347SOL    HW145695   9.834   3.985   5.026  0.4141 -0.6510 -0.2273
11347SOL    HW245696   9.718   3.890   5.091 -0.0934  0.1532  0.0454
11348SOL     OW45697   3.158   9.498   3.383  0.6509 -0.8349 -0.4622
11348SOL    HW145698   3.135   9.593   3.363  0.0412 -0.6655  0.9337
11348SOL    HW245699   3.255   9.483   3.367  1.1959  0.5944  1.3324
11349SOL     OW45700   8.120   7.850   5.519  0.3619 -0.3280 -0.5214
11349SOL    HW145701   8.068   7.910   5.580 -0.7183 -1.9727  0.2103
11349SOL    HW245702   8.057   7.788   5.471  1.4562 -0.9456 -1.1859
11350SOL     OW45703   3.327   6.657   4.266 -0.0893 -0.6430 -0.1925
11350SOL    HW145704   3.284   6.733   4.218 -0.3334 -0.8711 -0.3390
11350SOL    HW245705   3.404   6.622   4.212  1.0459  0.5404  0.6308
11351SOL     OW45706   1.380   5.181   2.843  0.2298  0.6593  0.4418
11351SOL    HW145707   1.457   5.140   2.795  0.4352  0.9310  0.5384
11351SOL    HW245708   1.295   5.138   2.813  0.4950 -0.2705  0.9835
11352SOL     OW45709   4.123   3.639   6.494 -0.0683  0.0383  0.2748
11352SOL    HW145710   4.025   3.619   6.497 -0.1113 -0.0249 -1.1804
11352SOL    HW245711   4.173   3.557   6.466  0.4078  0.0999  0.9115
11353SOL     OW45712   2.324   7.774   1.869 -0.8284 -0.3833 -0.9930
11353SOL    HW145713   2.403   7.772   1.930 -1.2257  0.1337 -0.4485
11353SOL    HW245714   2.320   7.863   1.823 -2.0239  0.2303  0.2483
11354SOL     OW45715   2.018   4.162   2.810 -0.0714 -0.2143 -0.6562
11354SOL    HW145716   2.031   4.182   2.713  0.2111  0.3727 -0.4938
11354SOL    HW245717   2.060   4.233   2.865  1.6823 -1.6558 -0.0709
11355SOL     OW45718   8.442   0.250   6.144 -0.6694  0.7761 -0.1205
11355SOL    HW145719   8.494   0.179   6.192  0.8013  1.3467 -0.8441
11355SOL    HW245720   8.464   0.339   6.183  0.4015  1.2294 -1.7246
11356SOL     OW45721   3.196   6.299   3.609  0.3416 -0.1573  0.6796
11356SOL    HW145722   3.272   6.345   3.564  0.3150 -1.8799 -1.2331
11356SOL    HW245723   3.217   6.286   3.706  1.8736  0.6106  0.4651
11357SOL     OW45724   7.143   3.586   0.781  0.1307 -0.0459  0.1042
11357SOL    HW145725   7.048   3.609   0.802  0.3438  0.7012  0.2618
11357SOL    HW245726   7.197   3.669   0.776  0.5564 -0.3856 -1.1002
11358SOL     OW45727   3.605   5.190   5.195 -0.1435 -0.0338  0.2166
11358SOL    HW145728   3.518   5.141   5.192  1.2240 -2.5146 -0.8992
11358SOL    HW245729   3.669   5.148   5.130  0.8633  3.7929 -1.3961
11359SOL     OW45730   1.126   5.200   0.481 -0.2012  0.3615  0.1609
11359SOL    HW145731   1.170   5.252   0.553  0.1873  0.0090  0.1743
11359SOL    HW245732   1.194   5.149   0.428 -0.6348 -0.6559  0.5550
11360SOL     OW45733   9.850   5.282   6.357 -0.0682  0.1868  0.3644
11360SOL    HW145734   9.904   5.239   6.285 -0.3920 -0.0190  0.2402
11360SOL    HW245735   9.835   5.379   6.335 -1.1489 -0.1488 -0.4324
11361SOL     OW45736   1.189   9.127   6.794  0.0182 -0.0343  0.2021
11361SOL    HW145737   1.255   9.140   6.868  2.2191 -1.8687 -1.3879
11361SOL    HW245738   1.174   9.215   6.748 -1.3400  1.1281  2.7178
11362SOL     OW45739   0.354   0.840   7.672 -0.2648  0.4340  0.1829
11362SOL    HW145740   0.345   0.779   7.593  1.9825 -1.1122  1.0654
11362SOL    HW245741   0.421   0.912   7.652 -1.1767  1.2365 -0.0198
11363SOL     OW45742   5.224   4.776   1.358 -0.0779 -0.4007 -0.0533
11363SOL    HW145743   5.265   4.727   1.436  2.1042  0.6276 -0.5212
11363SOL    HW245744   5.140   4.822   1.388  0.1015 -0.9819  1.3941
11364SOL     OW45745   6.021   8.743   5.062 -0.3966  0.0224  0.5202
11364SOL    HW145746   6.013   8.841   5.045 -1.0336  0.4158  2.9381
11364SOL    HW245747   6.071   8.728   5.147 -0.6411 -1.7466  0.3718
11365SOL     OW45748   1.522   7.536   6.293 -0.2208 -0.4583 -0.3433
11365SOL    HW145749   1.444   7.475   6.279 -0.9926  0.4482 -0.0029
11365SOL    HW245750   1.505   7.623   6.248  0.3095 -0.0273  0.2798
11366SOL     OW45751   3.154   8.547   8.159 -0.6901  0.1359  0.2547
11366SOL    HW145752   3.185   8.507   8.073 -0.2265 -0.4963  0.7068
11366SOL    HW245753   3.216   8.621   8.185 -2.1091  1.8435 -1.0855
11367SOL     OW45754   9.513   7.927   1.770 -0.0605  0.0698  0.0561
11367SOL    HW145755   9.460   7.846   1.794  0.5697 -0.3584  0.0114
11367SOL    HW245756   9.467   8.009   1.804 -0.5266 -0.3348  0.3938
11368SOL     OW45757   8.700   3.543   8.002  0.2778 -0.9778  0.3182
11368SOL    HW145758   8.758   3.606   8.055  1.0485 -1.1888 -0.2565
11368SOL    HW245759   8.678   3.463   8.058 -0.7598 -0.1726  1.0703
11369SOL     OW45760   1.371   7.170   3.119 -0.3795  0.7053  0.6099
11369SOL    HW145761   1.309   7.102   3.157 -0.3650  0.5646  0.3871
11369SOL    HW245762   1.362   7.171   3.019 -0.5452  1.1901  0.6287
11370SOL     OW45763   4.910   0.516   0.544 -0.3975  0.7629  0.6581
11370SOL    HW145764   4.987   0.530   0.482 -0.8030  0.3374  0.0538
11370SOL    HW245765   4.824   0.520   0.492 -0.6869 -0.7676  0.9822
11371SOL     OW45766   0.769   9.777   5.911  0.5857  0.1437  0.2196
11371SOL    HW145767   0.842   9.801   5.975 -0.3693  0.4625  1.2120
11371SOL    HW245768   0.745   9.681   5.923  0.6813  0.1039  0.0773
11372SOL     OW45769   1.125   4.647   1.942 -0.2509 -0.1489  0.1585
11372SOL    HW145770   1.215   4.646   1.898  0.4841  0.7601  1.5948
11372SOL    HW245771   1.094   4.742   1.949 -0.9303 -0.3971  0.4583
11373SOL     OW45772   9.640   1.343   2.287 -0.4667  0.2029  0.1224
11373SOL    HW145773   9.543   1.322   2.278 -0.2045 -1.6405  1.2193
11373SOL    HW245774   9.687   1.264   2.327  1.4985  1.0266 -0.5128
11374SOL     OW45775   7.344   9.846   6.048 -0.3206 -0.2692 -0.2771
11374SOL    HW145776   7.337   9.880   5.955  0.2968 -0.5920 -0.4465
11374SOL    HW245777   7.387   9.915   6.106  1.6226 -1.0044 -0.7784
11375SOL     OW45778   2.945   1.901   5.710 -0.5321  0.4233  0.4356
11375SOL    HW145779   2.865   1.896   5.771 -0.0153  0.1655  1.1003
11375SOL    HW245780   3.024   1.860   5.755 -0.3624 -0.6032 -0.7798
11376SOL     OW45781   2.673   1.415   1.346  0.0155 -0.1586  0.3886
11376SOL    HW145782   2.687   1.481   1.420  0.7167 -2.0910  2.0269
11376SOL    HW245783   2.760   1.375   1.320  0.0010  1.6069 -2.6113
11377SOL     OW45784   3.599   1.675   8.001  0.3196  0.0018  0.0887
11377SOL    HW145785   3.591   1.765   7.958 -0.8570  0.9864  2.2747
11377SOL    HW245786   3.695   1.657   8.022  0.7632  0.0131 -1.8036
11378SOL     OW45787   0.785   5.894   5.791 -0.0067  0.3121 -0.4455
11378SOL    HW145788   0.851   5.969   5.785 -0.2182  0.4141 -1.5721
11378SOL    HW245789   0.725   5.896   5.711  0.3972 -1.4321 -0.8228
11379SOL     OW45790   4.086   3.282   2.890 -0.1655  0.0770 -0.1452
11379SOL    HW145791   4.047   3.375   2.896  0.7716  0.4552  0.1825
11379SOL    HW245792   4.107   3.249   2.982  0.1309 -0.1935 -0.3097
11380SOL     OW45793   2.516   5.227   5.719 -0.0300 -0.2891  0.2354
11380SOL    HW145794   2.610   5.258   5.711 -0.5986  1.2401 -0.5636
11380SOL    HW245795   2.483   5.196   5.630 -1.3109  2.2208 -0.2111
11381SOL     OW45796   5.160   5.363   1.406 -0.9234  0.3074 -0.0622
11381SOL    HW145797   5.208   5.275   1.397 -2.2269 -0.3222 -1.0389
11381SOL    HW245798   5.227   5.435   1.423  0.0955 -0.9925  1.6209
11382SOL     OW45799   9.259   9.044   2.845  0.0157 -0.3084  0.4415
11382SOL    HW145800   9.162   9.061   2.860 -0.2690 -1.5540  0.1363
11382SOL    HW245801   9.310   9.130   2.850 -1.0739  0.3239  0.7996
11383SOL     OW45802   9.031   0.144   7.199  0.3205 -0.6000  0.0237
11383SOL    HW145803   8.933   0.147   7.180  0.5532 -0.5373 -1.2072
11383SOL    HW245804   9.061   0.049   7.209  0.1120 -0.6143  0.4900
11384SOL     OW45805   0.700   9.599   1.304  0.5658  0.8521  0.1365
11384SOL    HW145806   0.770   9.558   1.362  0.2641  0.3211  0.1285
11384SOL    HW245807   0.611   9.594   1.350  0.3585  0.6075 -0.2845
11385SOL     OW45808   5.429   9.143   1.210  0.9939  0.0060  0.2773
11385SOL    HW145809   5.450   9.241   1.205 -1.5774  0.6763  1.5727
11385SOL    HW245810   5.388   9.114   1.123 -0.7453  0.7506  0.8192
11386SOL     OW45811   0.142   9.526   7.203  0.4210 -0.1560  0.9572
11386SOL    HW145812   0.232   9.566   7.185  0.4999 -0.7965 -0.1497
11386SOL    HW245813   0.154   9.435   7.242  0.2551  0.0758  1.5423
11387SOL     OW45814   4.407   2.792   0.172  0.3528 -0.2477  0.4584
11387SOL    HW145815   4.365   2.704   0.196  0.0865 -0.1074  0.5028
11387SOL    HW245816   4.453   2.783   0.084 -0.6429 -0.1144 -0.0799
11388SOL     OW45817   0.485   0.092   1.326  0.4689 -0.2671 -0.2447
11388SOL    HW145818   0.541   0.047   1.395 -0.5367  0.0185  0.7833
11388SOL    HW245819   0.487   0.191   1.342 -0.4224 -0.2648 -0.1030
11389SOL     OW45820   1.817   9.337   7.064 -0.3072 -0.1280 -0.1799
11389SOL    HW145821   1.738   9.357   7.122  0.2343  1.2156  0.1057
11389SOL    HW245822   1.869   9.262   7.104  0.1541  0.9015  1.1733
11390SOL     OW45823   2.800   5.781   0.057  0.0717  0.4533  0.3318
11390SOL    HW145824   2.719   5.772  -0.000 -0.1982  0.9340  0.6338
11390SOL    HW245825   2.881   5.791  -0.000 -0.2712  1.5742  0.0407
11391SOL     OW45826   3.587   7.159   5.225 -0.5199 -0.4435  0.1708
11391SOL    HW145827   3.566   7.219   5.302 -0.2943 -2.1796  1.6420
11391SOL    HW245828   3.541   7.192   5.143 -0.6702  1.5226  1.0078
11392SOL     OW45829   7.413   8.431   4.262 -0.3149 -0.2384  0.0287
11392SOL    HW145830   7.421   8.364   4.189 -0.0827  0.6209 -0.7570
11392SOL    HW245831   7.318   8.438   4.292 -0.5510 -0.0289 -0.7507
11393SOL     OW45832   9.424   4.542   1.030 -0.0480  0.5954 -0.2711
11393SOL    HW145833   9.389   4.497   1.112  0.5026  2.4135  0.9997
11393SOL    HW245834   9.490   4.613   1.056 -1.2447  2.4801 -2.1601
11394SOL     OW45835   2.900   6.891   5.539  0.3623 -0.1761 -0.1404
11394SOL    HW145836   2.803   6.913   5.552  0.6855  0.8768  0.5613
11394SOL    HW245837   2.920   6.886   5.441 -0.6083 -1.3536 -0.2835
11395SOL     OW45838   8.262   3.552   3.496 -0.5370 -0.0438 -0.3455
11395SOL    HW145839   8.318   3.570   3.577  0.4263  0.3281 -1.0805
11395SOL    HW245840   8.202   3.630   3.479  0.4118  0.5754 -0.9115
11396SOL     OW45841   7.110   9.418   3.067 -0.6568  0.3333  0.0478
11396SOL    HW145842   7.053   9.498   3.083 -2.0160 -0.7492  0.7400
11396SOL    HW245843   7.062   9.354   3.008 -0.0467 -0.4584  0.4021
11397SOL     OW45844   7.718   5.298   5.168  0.1843 -0.3352 -0.2353
11397SOL    HW145845   7.716   5.201   5.192  2.6452  0.1486  2.2325
11397SOL    HW245846   7.664   5.350   5.233  1.9115  0.3293  0.7088
11398SOL     OW45847   9.263   8.800   2.941 -0.3065 -0.8681  0.0146
11398SOL    HW145848   9.351   8.755   2.929 -0.1751 -0.6488  0.1402
11398SOL    HW245849   9.266   8.890   2.897  1.0371  1.0582  3.7340
11399SOL     OW45850   1.532   2.591   0.273  0.6793 -0.4227 -0.7112
11399SOL    HW145851   1.458   2.566   0.210  0.0107  1.9735 -0.9098
11399SOL    HW245852   1.518   2.684   0.305  1.3878 -1.3920  2.5190
11400SOL     OW45853   2.662   2.692   0.380  0.0272 -0.0525 -0.4426
11400SOL    HW145854   2.690   2.655   0.292 -2.5013 -0.1775 -1.2456
11400SOL    HW245855   2.665   2.621   0.449 -0.6713 -0.6693 -1.0412
11401SOL     OW45856   9.777   6.798   0.728 -0.2685 -0.9514  0.1441
11401SOL    HW145857   9.729   6.882   0.751 -0.2875 -0.5148 -1.4707
11401SOL    HW245858   9.864   6.819   0.685  0.1174 -1.7596  0.5083
11402SOL     OW45859   4.873   3.891   0.374  0.9893 -0.5238 -0.5796
11402SOL    HW145860   4.893   3.815   0.312 -2.2505 -1.7316 -0.2383
11402SOL    HW245861   4.891   3.862   0.468  2.5357  0.1439 -0.6511
11403SOL     OW45862   7.693   5.662   1.199 -0.5050  0.6907  0.5555
11403SOL    HW145863   7.632   5.588   1.174 -1.7466  2.2249 -1.0769
11403SOL    HW245864   7.788   5.631   1.192 -0.9828 -0.5205 -0.8728
11404SOL     OW45865   9.526   9.073   6.270  0.0901  0.3456  0.2418
11404SOL    HW145866   9.569   9.111   6.188 -1.1226  0.5893 -0.2901
11404SOL    HW245867   9.573   9.107   6.351  0.4465  1.1666 -0.3059
11405SOL     OW45868   8.673   2.626   4.769 -0.4111  0.2656 -0.5644
11405SOL    HW145869   8.648   2.676   4.852  1.3310  0.8051 -0.3449
11405SOL    HW245870   8.714   2.689   4.704  1.5129 -0.7963 -0.4165
11406SOL     OW45871   8.875   7.868   0.860  0.3864 -0.5220 -0.0330
11406SOL    HW145872   8.916   7.877   0.769 -0.4853 -0.2708 -0.4095
11406SOL    HW245873   8.819   7.785   0.862  0.0202 -0.2662  0.1273
11407SOL     OW45874   8.789   8.314   2.445 -0.1905  0.6470  0.0474
11407SOL    HW145875   8.812   8.372   2.523 -1.4549  1.1901  0.0266
11407SOL    HW245876   8.736   8.367   2.379 -0.7628 -0.3441 -0.2883
11408SOL     OW45877   4.416   2.056   8.064  0.4283 -0.4245  0.0429
11408SOL    HW145878   4.353   2.011   8.001 -1.2775  2.0564 -0.1178
11408SOL    HW245879   4.366   2.083   8.146  1.4950  0.7823  0.3106
11409SOL     OW45880   2.720   9.016   4.286  0.4424  0.0761 -0.2093
11409SOL    HW145881   2.809   9.056   4.261 -0.1504  2.2813  1.0992
11409SOL    HW245882   2.663   9.008   4.204  0.2150  2.8976 -0.3642
11410SOL     OW45883   6.900   6.865   5.299  0.0876  0.0347  0.4651
11410SOL    HW145884   6.992   6.829   5.280 -0.0833  0.1840 -0.7065
11410SOL    HW245885   6.886   6.948   5.245 -0.1062  0.9749  1.9486
11411SOL     OW45886   8.896   2.769   3.931 -0.0905 -0.4397 -0.7899
11411SOL    HW145887   8.924   2.862   3.909  0.9720 -0.5013  0.2333
11411SOL    HW245888   8.881   2.761   4.030 -2.0980 -0.8517 -1.1047
11412SOL     OW45889   9.630   4.288   2.352  0.8305  0.0967 -0.0476
11412SOL    HW145890   9.683   4.233   2.417  1.2987 -0.1554 -0.6462
11412SOL    HW245891   9.693   4.340   2.294  0.4234 -0.6177 -1.1229
11413SOL     OW45892   4.656   4.171   6.177 -0.0620  0.1536  0.5507
11413SOL    HW145893   4.696   4.240   6.238  0.2686 -0.0311  0.5440
11413SOL    HW245894   4.728   4.131   6.121 -0.2662 -0.1482  0.5044
11414SOL     OW45895   4.395   7.724   5.899 -0.0248 -0.9428  0.3823
11414SOL    HW145896   4.453   7.734   5.819  1.0913 -1.7132  1.0786
11414SOL    HW245897   4.415   7.797   5.965  0.7702 -1.7139  0.9967
11415SOL     OW45898   8.859   9.215   4.014  0.3678  0.2812  0.4792
11415SOL    HW145899   8.865   9.283   4.088 -0.1124 -0.9094  1.6226
11415SOL    HW245900   8.806   9.253   3.939 -2.4938  0.1266  2.3283
11416SOL     OW45901   8.570   2.320   1.499  0.4717 -0.6243 -0.1343
11416SOL    HW145902   8.477   2.349   1.479  0.4770 -1.5961 -1.7353
11416SOL    HW245903   8.580   2.301   1.597 -1.3928 -1.7916 -0.1488
11417SOL     OW45904   3.327   6.130   5.578  0.1828  0.0621  0.1194
11417SOL    HW145905   3.240   6.156   5.535  1.0111 -0.3215 -1.8210
11417SOL    HW245906   3.313   6.047   5.632 -1.3491  1.7190  2.3773
11418SOL     OW45907   2.574   3.049   2.406 -0.2900 -0.4439  0.1889
11418SOL    HW145908   2.671   3.045   2.428 -0.2277  0.6134  0.1745
11418SOL    HW245909   2.547   2.968   2.355  1.4373  0.9843 -3.1271
11419SOL     OW45910   2.063   0.394   3.765  0.0562  0.3450 -0.2026
11419SOL    HW145911   2.098   0.369   3.856 -1.3039 -1.1980 -0.0830
11419SOL    HW245912   2.112   0.340   3.696  0.6016  1.0093 -0.3371
11420SOL     OW45913   7.060   1.305   4.750  0.0310 -0.7268  0.0451
11420SOL    HW145914   7.153   1.280   4.776 -0.4134 -1.4313  0.9955
11420SOL    HW245915   6.995   1.263   4.814 -0.9102  0.1797 -0.3034
11421SOL     OW45916   9.315   0.336   0.260 -0.6944  0.6044 -0.1884
11421SOL    HW145917   9.242   0.269   0.244 -0.0771 -0.5536  1.7110
11421SOL    HW245918   9.391   0.319   0.197 -0.3014 -0.8309  0.6805
11422SOL     OW45919   4.140   5.625   8.079 -0.2830  0.0973  0.2204
11422SOL    HW145920   4.056   5.647   8.129 -0.5708 -2.5167  0.9875
11422SOL    HW245921   4.132   5.532   8.042  1.0695  0.9466 -2.2857
11423SOL     OW45922   4.774   1.529   6.967  0.0614  0.0561  0.1067
11423SOL    HW145923   4.771   1.485   6.878 -1.1150 -0.4926  0.4049
11423SOL    HW245924   4.696   1.591   6.976  1.4110  1.8222 -0.1145
11424SOL     OW45925   1.454   5.585   0.403  0.7084 -0.1985 -0.3113
11424SOL    HW145926   1.421   5.652   0.336  1.2914 -1.2102 -1.6510
11424SOL    HW245927   1.386   5.572   0.474  0.1729  1.0808 -0.5780
11425SOL     OW45928   2.678   7.687   3.848  0.5297  0.3671 -0.2402
11425SOL    HW145929   2.618   7.761   3.877  0.7580 -0.2563  1.9230
11425SOL    HW245930   2.769   7.724   3.829  0.4806  0.7373  0.2403
11426SOL     OW45931   1.589   1.435   3.905  0.0723 -0.0120 -0.4197
11426SOL    HW145932   1.513   1.431   3.969 -1.0010  2.9727 -1.3991
11426SOL    HW245933   1.605   1.530   3.878  3.3607 -0.7069 -1.1933
11427SOL     OW45934   2.206   9.119   4.929  0.0795 -0.4207 -0.4171
11427SOL    HW145935   2.279   9.077   4.875  1.1359 -0.2259  0.8424
11427SOL    HW245936   2.245   9.161   5.011 -1.2420  1.1213 -0.5627
11428SOL     OW45937   3.142   6.840   6.796 -0.3533 -0.3724 -0.1123
11428SOL    HW145938   3.197   6.757   6.792 -0.7997 -0.6398 -0.7394
11428SOL    HW245939   3.190   6.910   6.850 -0.0857 -1.1126  0.6097
11429SOL     OW45940   9.918   1.806   1.524  0.1031 -0.0711  0.3729
11429SOL    HW145941   9.887   1.712   1.540 -1.3292 -0.2958 -3.3444
11429SOL    HW245942   9.879   1.865   1.595 -3.9246 -1.3831 -0.5732
11430SOL     OW45943   2.851   5.605   3.175  0.1439 -0.0596  0.0255
11430SOL    HW145944   2.783   5.638   3.241 -0.9734  1.6382 -1.9097
11430SOL    HW245945   2.823   5.632   3.083  2.9625 -0.2073 -0.9002
11431SOL     OW45946   8.382   4.651   5.044  0.4086  0.0122  0.1184
11431SOL    HW145947   8.381   4.738   4.995  0.4073  0.6933  1.3107
11431SOL    HW245948   8.292   4.607   5.037  0.6020 -0.2122 -1.0320
11432SOL     OW45949   2.383   2.857   6.310 -0.4193  0.1332  0.1456
11432SOL    HW145950   2.361   2.925   6.380 -2.2346 -2.6159  2.3881
11432SOL    HW245951   2.308   2.852   6.243 -0.1346  0.5748 -0.2046
11433SOL     OW45952   3.678   7.755   0.029  0.1649  0.0509 -0.1614
11433SOL    HW145953   3.658   7.657   0.031  1.6045 -0.2518  0.0781
11433SOL    HW245954   3.703   7.782  -0.064  1.4053 -0.1689  0.0924
11434SOL     OW45955   5.803   8.904   1.655 -0.0159  0.3093  0.0196
11434SOL    HW145956   5.769   8.990   1.693  0.6250  0.4109  0.3667
11434SOL    HW245957   5.785   8.902   1.556  1.2661  1.4726 -0.2447
11435SOL     OW45958   6.966   9.377   1.390 -0.0394  0.7197  0.0341
11435SOL    HW145959   6.867   9.379   1.408 -0.1333  0.7563 -0.4742
11435SOL    HW245960   7.007   9.303   1.443 -0.4545  0.2407 -0.2979
11436SOL     OW45961   3.687   8.496   7.297 -0.2606  0.4196  0.1758
11436SOL    HW145962   3.589   8.474   7.304 -0.1003 -1.3074 -2.5091
11436SOL    HW245963   3.740   8.421   7.336  0.0526  0.7638  0.4160
11437SOL     OW45964   2.754   4.262   0.602  0.3947 -0.2766 -0.7927
11437SOL    HW145965   2.792   4.170   0.596  0.7675 -0.2084  0.4780
11437SOL    HW245966   2.819   4.323   0.648 -1.0573 -0.0913  1.1033
11438SOL     OW45967   7.941   5.852   6.987  0.0955 -0.0109  0.0443
11438SOL    HW145968   8.036   5.836   7.016 -0.6832  0.6777  3.1039
11438SOL    HW245969   7.940   5.920   6.914  1.9377  0.3686  0.3375
11439SOL     OW45970   8.709   6.347   1.461  0.0793 -0.3154 -0.2390
11439SOL    HW145971   8.749   6.438   1.466  1.7331 -1.0671  0.5814
11439SOL    HW245972   8.752   6.288   1.530  0.3355 -2.1959 -1.9602
11440SOL     OW45973   3.664   0.703   6.644 -0.1237 -0.1610  0.3739
11440SOL    HW145974   3.619   0.724   6.557  2.2306  2.0267 -0.3769
11440SOL    HW245975   3.609   0.738   6.719 -1.0606 -0.0551 -0.3572
11441SOL     OW45976   7.361   0.829   3.404 -0.0250 -0.3813  0.0516
11441SOL    HW145977   7.426   0.759   3.376  1.6420  1.9356 -2.1592
11441SOL    HW245978   7.271   0.809   3.365  0.7804 -0.6031 -1.7756
11442SOL     OW45979   7.732   9.663   6.268 -0.0177 -0.2268 -0.1963
11442SOL    HW145980   7.651   9.606   6.274  1.3491 -2.1217  0.7976
11442SOL    HW245981   7.722   9.743   6.326 -1.0527 -0.6052  0.1452
11443SOL     OW45982   7.594   8.576   5.757 -0.1914  0.3616  0.4974
11443SOL    HW145983   7.510   8.529   5.782 -0.3860 -0.3483 -1.3808
11443SOL    HW245984   7.576   8.674   5.745 -0.4387  0.4342  1.4981
11444SOL     OW45985   8.929   7.942   3.795  0.3574 -0.8149 -0.6353
11444SOL    HW145986   8.850   7.881   3.801 -0.0110 -0.4023 -1.1851
11444SOL    HW245987   8.910   8.026   3.845 -0.0203 -0.2355 -1.7196
11445SOL     OW45988   0.307   0.133   5.407 -0.1019 -0.6006 -0.1134
11445SOL    HW145989   0.219   0.172   5.431 -0.4978 -1.3492 -0.3420
11445SOL    HW245990   0.294   0.049   5.354  0.7529  0.1487 -1.5438
11446SOL     OW45991   7.917   3.225   1.561  0.4086 -0.0800 -0.0048
11446SOL    HW145992   7.825   3.201   1.532  0.7683 -1.1537 -0.2607
11446SOL    HW245993   7.974   3.143   1.567  1.4901  0.6186 -0.3490
11447SOL     OW45994   1.801   5.459   6.525 -0.5181 -0.0595  0.1775
11447SOL    HW145995   1.759   5.549   6.531  1.5091  0.9676 -0.5560
11447SOL    HW245996   1.788   5.422   6.432 -2.0291 -0.8930  0.7008
11448SOL     OW45997   8.162   0.739   0.879  0.0181  0.3115 -0.3111
11448SOL    HW145998   8.170   0.800   0.800  2.5912 -0.2500 -0.5235
11448SOL    HW245999   8.146   0.792   0.962 -0.1244  1.0823 -0.8287
11449SOL     OW46000   2.680   4.008   1.256  0.6969 -0.1521 -0.5046
11449SOL    HW146001   2.738   3.956   1.319 -1.1264 -0.1630  1.2261
11449SOL    HW246002   2.701   4.105   1.263  0.4325 -0.1442  0.2209
11450SOL     OW46003   0.099   8.957   1.457 -0.3641  0.2421 -0.2707
11450SOL    HW146004   0.005   8.934   1.481  0.4742 -2.2724  0.7439
11450SOL    HW246005   0.099   9.033   1.392 -3.1132 -0.3609 -1.0261
11451SOL     OW46006   1.205   5.628   2.847  0.2227  0.1643  0.0336
11451SOL    HW146007   1.303   5.613   2.829 -0.2478 -1.4439 -1.3428
11451SOL    HW246008   1.194   5.661   2.941  1.9001 -2.3062  1.1812
11452SOL     OW46009   8.752   8.343   5.066  0.7742  0.1930 -0.4801
11452SOL    HW146010   8.816   8.400   5.118  1.7774 -0.7989 -0.6202
11452SOL    HW246011   8.792   8.319   4.978  1.4930 -2.8784  0.6091
11453SOL     OW46012   2.497   2.650   0.880 -0.2641  0.5923 -0.2036
11453SOL    HW146013   2.473   2.743   0.906 -0.7044  0.5648 -0.5019
11453SOL    HW246014   2.595   2.637   0.887 -0.1433  1.2459 -0.6921
11454SOL     OW46015   2.548   3.116   3.857 -0.2605 -0.0139 -0.2260
11454SOL    HW146016   2.564   3.080   3.949 -3.6389  2.4066  1.3847
11454SOL    HW246017   2.477   3.062   3.812 -0.7964  0.6734 -0.2162
11455SOL     OW46018   9.941   7.319   2.067  0.4919 -0.0963 -0.1668
11455SOL    HW146019  10.010   7.368   2.014 -0.2944 -0.7615 -1.8429
11455SOL    HW246020   9.908   7.240   2.015 -1.3257  0.0528  0.7090
11456SOL     OW46021   9.221   1.620   7.082  0.1370 -0.4809  0.0351
11456SOL    HW146022   9.194   1.607   7.177 -1.1617  2.5997  0.1536
11456SOL    HW246023   9.163   1.564   7.023 -0.1260 -1.1946  0.9573
11457SOL     OW46024   1.072   1.333   6.600 -0.0912  0.6762  0.1807
11457SOL    HW146025   1.076   1.253   6.539  1.5415 -0.8488  2.2122
11457SOL    HW246026   0.985   1.334   6.648 -0.2249  0.2712 -0.0473
11458SOL     OW46027   0.308   1.197   4.814  0.4918 -0.3547  0.1572
11458SOL    HW146028   0.316   1.160   4.721  0.1770 -3.0675  1.1522
11458SOL    HW246029   0.213   1.223   4.832  0.4449 -0.3343 -0.1219
11459SOL     OW46030   0.337   7.279   3.488  0.4891 -0.3549 -0.4003
11459SOL    HW146031   0.423   7.242   3.521 -0.6692 -2.3707  0.4081
11459SOL    HW246032   0.327   7.258   3.390  2.4065  2.7915 -1.3572
11460SOL     OW46033   1.321   3.160   5.034 -0.0413  0.4017 -0.4366
11460SOL    HW146034   1.340   3.251   5.069 -1.8809  0.3106  0.8939
11460SOL    HW246035   1.375   3.093   5.084 -1.8678  0.3779  1.5998
11461SOL     OW46036   2.335   8.066   6.937  0.5081 -0.3229 -0.5337
11461SOL    HW146037   2.251   8.106   6.974 -0.0500 -1.6515 -0.3245
11461SOL    HW246038   2.316   7.973   6.905  0.9314  0.8107 -4.3034
11462SOL     OW46039   9.101   2.421   6.736  0.1227  0.1532  0.0515
11462SOL    HW146040   9.143   2.419   6.826 -2.4074  0.7268  1.3053
11462SOL    HW246041   9.047   2.338   6.722 -2.5963  1.7631  0.6754
11463SOL     OW46042   3.851   1.663   2.373  0.3892 -0.0632 -0.8586
11463SOL    HW146043   3.910   1.599   2.423 -2.0222 -0.9239  0.9545
11463SOL    HW246044   3.894   1.754   2.374  0.8751 -0.2664  1.9851
11464SOL     OW46045   2.515   5.964   6.419  0.1574 -0.1856 -0.5173
11464SOL    HW146046   2.564   5.903   6.481 -0.0731  0.5169  0.3707
11464SOL    HW246047   2.529   6.059   6.448  0.4747  0.1832 -1.8516
11465SOL     OW46048   4.371   3.341   1.285  0.1837 -0.1160  0.6259
11465SOL    HW146049   4.420   3.309   1.366  0.0293 -0.4461  0.5911
11465SOL    HW246050   4.280   3.373   1.311  0.2575  0.0881  0.6311
11466SOL     OW46051   3.563   5.403   6.763 -0.2312 -0.2029  0.1323
11466SOL    HW146052   3.649   5.389   6.813  0.8676  2.1854 -1.0095
11466SOL    HW246053   3.490   5.427   6.827  0.1405 -1.3711  1.0124
11467SOL     OW46054   2.128   5.000   0.816  0.2450 -0.1014 -0.5306
11467SOL    HW146055   2.203   5.022   0.755 -0.4942  0.5804 -1.2123
11467SOL    HW246056   2.139   5.052   0.901  0.3432  0.3014 -0.7833
11468SOL     OW46057   4.080   8.504   6.251  0.3570  0.9569  0.7310
11468SOL    HW146058   4.112   8.458   6.169 -0.4828 -1.1664  1.5711
11468SOL    HW246059   4.000   8.560   6.230 -0.6085 -0.5607  0.3425
11469SOL     OW46060   6.000   9.849   4.643  0.1596 -0.0038 -0.0037
11469SOL    HW146061   5.988   9.916   4.570  0.7826 -0.0276 -0.1323
11469SOL    HW246062   6.040   9.894   4.723 -1.0101  0.1407  0.5215
11470SOL     OW46063   0.440   0.766   2.004 -0.6905  0.5742  0.6723
11470SOL    HW146064   0.528   0.719   2.009 -1.3825 -0.9197 -0.9034
11470SOL    HW246065   0.378   0.730   2.074 -0.4474  0.7975  1.0039
11471SOL     OW46066   0.453   7.628   1.079  0.0764 -0.2487  0.1800
11471SOL    HW146067   0.471   7.578   0.994 -1.4622  1.8043 -1.3854
11471SOL    HW246068   0.538   7.633   1.133  1.3287 -0.6873 -1.6981
11472SOL     OW46069   2.095   2.298   2.488  0.5976 -0.2196  0.4152
11472SOL    HW146070   2.165   2.243   2.443  0.0133  0.0703 -0.8871
11472SOL    HW246071   2.130   2.389   2.507 -0.1607  0.6962 -2.4119
11473SOL     OW46072   7.617   6.238   2.448 -0.5605 -0.2180  0.0270
11473SOL    HW146073   7.624   6.204   2.541 -1.7216 -0.3671  0.0651
11473SOL    HW246074   7.609   6.160   2.385 -0.7250 -0.0866 -0.1131
11474SOL     OW46075   0.225   5.146   2.029  0.3108 -0.3398  0.4465
11474SOL    HW146076   0.139   5.196   2.019  0.9386  0.7486  0.5060
11474SOL    HW246077   0.289   5.173   1.958  0.6686 -1.0424  0.4881
11475SOL     OW46078   3.057   0.625   1.070  0.5095 -0.0906  0.2619
11475SOL    HW146079   3.062   0.558   0.996  3.5214  0.4704 -0.1285
11475SOL    HW246080   2.964   0.661   1.076 -0.3039 -1.7024 -1.8317
11476SOL     OW46081   4.771   1.004   2.017  0.3124  0.1102 -0.4059
11476SOL    HW146082   4.859   0.976   2.055  0.0921 -0.9140 -0.6352
11476SOL    HW246083   4.720   0.923   1.988 -0.8177  0.6796 -0.0293
11477SOL     OW46084   3.797   0.570   7.786 -0.8795 -0.0632 -0.5635
11477SOL    HW146085   3.829   0.574   7.692  0.7642  0.2529 -0.0050
11477SOL    HW246086   3.822   0.482   7.826 -1.8947 -0.3403 -0.5378
11478SOL     OW46087   3.911   9.738   5.225  0.1649  0.2085  0.4819
11478SOL    HW146088   3.900   9.836   5.209  0.3868  0.0572 -0.6339
11478SOL    HW246089   4.000   9.721   5.268 -0.5755  0.6502  2.2431
11479SOL     OW46090   2.544   0.011   4.122  0.4885 -0.5430 -0.2866
11479SOL    HW146091   2.630   0.062   4.124  1.8913 -2.8784  0.6034
11479SOL    HW246092   2.518  -0.007   4.027  0.5079  0.9212 -0.5775
11480SOL     OW46093   5.462   1.030   6.193  0.4755 -0.3994 -0.3422
11480SOL    HW146094   5.550   1.053   6.150  0.0312 -1.4018 -1.7989
11480SOL    HW246095   5.463   0.934   6.222 -0.5512 -0.7432 -1.4109
11481SOL     OW46096   8.239   3.543   1.050 -0.0514  0.1719  0.2273
11481SOL    HW146097   8.148   3.519   1.085 -0.0779  0.6341  0.4833
11481SOL    HW246098   8.300   3.464   1.058 -0.9382 -0.7246 -1.6854
11482SOL     OW46099   5.585   4.827   0.883  0.3574 -0.1448 -0.1253
11482SOL    HW146100   5.535   4.904   0.842 -0.7903 -1.5421 -1.4045
11482SOL    HW246101   5.558   4.817   0.978  2.0691  2.3178  0.6776
11483SOL     OW46102   4.516   7.738   4.758 -0.5284 -0.5117  0.8551
11483SOL    HW146103   4.583   7.740   4.683  1.0593  0.5984  2.2483
11483SOL    HW246104   4.514   7.647   4.798 -1.9217 -1.3202 -0.9760
11484SOL     OW46105   8.152   8.797   1.697  0.1549 -0.0207  0.1821
11484SOL    HW146106   8.209   8.719   1.722  1.7722  0.2095 -2.6073
11484SOL    HW246107   8.111   8.836   1.780  1.6954 -1.9962  1.9281
11485SOL     OW46108   8.241   5.237   7.164 -0.8798  0.7518  0.2472
11485SOL    HW146109   8.313   5.242   7.094 -0.5334 -2.3673  0.2767
11485SOL    HW246110   8.206   5.143   7.168 -0.3115  0.6097  4.7917
11486SOL     OW46111   4.496   0.665   2.883  0.4734  0.5105 -0.3849
11486SOL    HW146112   4.431   0.609   2.831 -1.2516 -0.4164  2.6937
11486SOL    HW246113   4.588   0.627   2.874 -0.0524 -0.5344 -1.4704
11487SOL     OW46114   7.750   6.480   3.517 -0.1605 -0.3712 -0.1955
11487SOL    HW146115   7.726   6.420   3.441 -0.0494 -0.7383  0.0617
11487SOL    HW246116   7.846   6.466   3.541  0.1118  0.5469 -0.7216
11488SOL     OW46117   0.344   6.543   6.907  0.0573  0.1757 -0.0474
11488SOL    HW146118   0.294   6.600   6.973 -1.2241 -0.1873 -0.6950
11488SOL    HW246119   0.279   6.496   6.848  1.1453 -1.0773 -0.2664
11489SOL     OW46120   2.302   7.258   4.683  0.1964  0.4918 -0.5880
11489SOL    HW146121   2.342   7.198   4.613 -0.7727  0.3974 -1.0600
11489SOL    HW246122   2.326   7.223   4.774 -1.1367 -1.1626 -0.8412
11490SOL     OW46123   9.138   0.646   5.971  0.3360  0.0579  0.0858
11490SOL    HW146124   9.066   0.602   6.024 -0.9921 -0.9860 -2.4820
11490SOL    HW246125   9.102   0.728   5.928  1.2462  0.6118  0.3696
11491SOL     OW46126   2.113   1.022   5.833 -0.0524 -0.1740  0.1421
11491SOL    HW146127   2.032   1.048   5.781 -0.0610 -0.6255 -0.0773
11491SOL    HW246128   2.089   0.949   5.898  0.0373  0.1339  0.5242
11492SOL     OW46129   9.677   5.561   3.177  0.2043  0.1807  0.0341
11492SOL    HW146130   9.597   5.603   3.134  0.6389  1.3770  0.3836
11492SOL    HW246131   9.733   5.631   3.220  0.2729 -0.8802  1.7576
11493SOL     OW46132   1.774   6.528   2.482 -0.0355 -0.3640  0.0496
11493SOL    HW146133   1.777   6.430   2.502  1.5672 -0.2615  0.3813
11493SOL    HW246134   1.857   6.555   2.433  0.0574  1.0293  0.9400
11494SOL     OW46135   3.117   5.094   6.180  0.4324 -0.3452  0.3605
11494SOL    HW146136   3.149   5.063   6.270 -0.3257 -2.9009 -0.2149
11494SOL    HW246137   3.189   5.149   6.137  0.7522  1.0313  2.5626
11495SOL     OW46138   1.131   5.733   5.192  0.0538 -0.0593 -0.3060
11495SOL    HW146139   1.074   5.808   5.157  1.2368  1.5948  1.2259
11495SOL    HW246140   1.106   5.648   5.146 -2.1941  1.0293 -1.1721
11496SOL     OW46141   7.332   4.650   7.488  0.0304  0.0010  0.1740
11496SOL    HW146142   7.349   4.683   7.581 -0.3935  0.5761  0.0475
11496SOL    HW246143   7.373   4.712   7.422 -0.0634 -0.1637 -0.0424
11497SOL     OW46144   8.713   1.046   7.034 -0.1899  0.3711  0.4007
11497SOL    HW146145   8.803   1.013   7.007  0.4203  1.6483  0.8112
11497SOL    HW246146   8.644   0.975   7.018  0.8375 -0.4868 -0.2265
11498SOL     OW46147   0.276   6.074   5.384 -0.3373 -0.1318  0.2340
11498SOL    HW146148   0.288   6.133   5.305 -0.3266  0.7561  0.8923
11498SOL    HW246149   0.225   5.992   5.357 -0.6501  0.3345 -0.6027
11499SOL     OW46150   4.300   3.903   2.123  0.0499 -0.0670 -0.0253
11499SOL    HW146151   4.247   3.845   2.185  2.4763  0.0975  2.3342
11499SOL    HW246152   4.287   3.873   2.029 -2.1090 -1.6800  0.7620
11500SOL     OW46153   5.235   7.890   1.770 -0.1461  0.2006 -0.2957
11500SOL    HW146154   5.201   7.797   1.757 -2.6205  1.0913 -0.4792
11500SOL    HW246155   5.335   7.891   1.761 -0.2411 -2.1351 -2.0670
11501SOL     OW46156   1.978   1.208   3.610  0.3288  0.3291  0.8201
11501SOL    HW146157   2.013   1.132   3.556  0.9839 -0.1261  1.8779
11501SOL    HW246158   2.044   1.232   3.681  0.1502  1.9296  0.4542
11502SOL     OW46159   3.383   6.044   4.281  0.5901  0.2335 -0.1593
11502SOL    HW146160   3.295   5.998   4.268  0.7061 -0.1363  0.3646
11502SOL    HW246161   3.368   6.137   4.314  0.4516 -0.4242  1.6505
11503SOL     OW46162   2.389   9.422   5.015 -0.0662 -0.1344  0.2317
11503SOL    HW146163   2.319   9.475   4.965 -0.1285 -0.7374 -0.3214
11503SOL    HW246164   2.347   9.381   5.096 -0.1928  0.0660  0.2699
11504SOL     OW46165   4.248   9.962   1.324  0.1107  0.4261  0.4703
11504SOL    HW146166   4.314   9.898   1.364  0.1355 -0.0819 -0.3839
11504SOL    HW246167   4.292  10.052   1.314 -0.0184  0.6702  1.9434
11505SOL     OW46168   3.043   9.094   1.960  0.3212  0.5217 -0.4203
11505SOL    HW146169   3.060   9.107   2.058  1.8214  1.0033 -0.7470
11505SOL    HW246170   3.068   9.001   1.934 -0.0073  0.4172 -0.3652
11506SOL     OW46171   9.305   9.292   0.704  0.3765 -0.3601 -0.4661
11506SOL    HW146172   9.320   9.319   0.799 -0.9745  0.9468 -0.6106
11506SOL    HW246173   9.304   9.192   0.698 -1.8150 -0.4893  1.2837
11507SOL     OW46174   4.041   2.687   7.672  0.3016 -0.3183 -0.0687
11507SOL    HW146175   3.973   2.727   7.611  0.8639  0.4367 -0.2108
11507SOL    HW246176   4.113   2.754   7.691  2.9028 -2.2021 -2.7563
11508SOL     OW46177   8.030   7.565   3.097 -0.7153 -0.3891  0.3560
11508SOL    HW146178   7.958   7.566   3.027 -0.3046  1.1962 -0.0487
11508SOL    HW246179   8.020   7.644   3.157 -0.0424 -0.8296  1.0610
11509SOL     OW46180   6.015   5.250   1.231  0.6573 -0.6399  0.5767
11509SOL    HW146181   5.973   5.270   1.142  0.7907 -1.2476  0.3739
11509SOL    HW246182   5.958   5.185   1.281  0.2470  0.1941  1.2158
11510SOL     OW46183   1.105   6.192   7.365  0.6004  0.3335  0.2623
11510SOL    HW146184   1.037   6.232   7.304 -0.1366 -0.2855  0.6654
11510SOL    HW246185   1.188   6.248   7.364  0.3760  0.6632 -0.8348
11511SOL     OW46186   6.857   4.104   1.952 -0.0678 -0.3870  0.2390
11511SOL    HW146187   6.845   4.008   1.929 -0.4644 -0.6129  1.3762
11511SOL    HW246188   6.800   4.128   2.031  1.3343  0.3347  1.0709
11512SOL     OW46189   8.457   0.255   1.095 -0.6578  0.0270  0.2193
11512SOL    HW146190   8.538   0.290   1.049 -0.4216  2.4431  2.3534
11512SOL    HW246191   8.480   0.171   1.145  0.3012  0.1950  0.0582
11513SOL     OW46192   8.777   6.618   0.218 -0.4457 -0.4317  0.3438
11513SOL    HW146193   8.752   6.621   0.121  0.1938 -0.5763  0.1696
11513SOL    HW246194   8.789   6.523   0.247  1.3220 -0.3353  0.0339
11514SOL     OW46195   8.826   7.309   1.255  0.3350 -0.6708  0.2103
11514SOL    HW146196   8.876   7.304   1.341  0.9223  1.3858  0.0134
11514SOL    HW246197   8.729   7.320   1.273  0.4213 -0.5667  0.6087
11515SOL     OW46198   0.619   8.210   3.503 -0.1092 -0.8673  0.5514
11515SOL    HW146199   0.589   8.298   3.467  0.1522 -0.7167  0.6992
11515SOL    HW246200   0.614   8.211   3.603  1.6922 -0.3448  0.6685
11516SOL     OW46201   3.517   6.785   3.230  0.0195  0.4077  0.3851
11516SOL    HW146202   3.453   6.726   3.279 -0.5348 -0.3963 -1.2838
11516SOL    HW246203   3.491   6.881   3.244  0.8176  0.2797  2.9467
11517SOL     OW46204   2.840   7.947   1.039 -0.4675 -0.5469  0.1744
11517SOL    HW146205   2.837   8.009   1.117 -1.5974 -0.4867  0.0907
11517SOL    HW246206   2.878   7.995   0.960 -1.5544  0.1046  0.0491
11518SOL     OW46207   3.296   4.017   1.534  0.0470 -0.0276 -0.1705
11518SOL    HW146208   3.310   3.956   1.612 -0.8373  0.2123  0.1762
11518SOL    HW246209   3.200   4.015   1.507 -0.1026  1.6998  0.2377
11519SOL     OW46210   9.564   4.515   1.857 -0.2840  0.0017  0.1028
11519SOL    HW146211   9.561   4.597   1.800 -0.3219  0.4312  0.7165
11519SOL    HW246212   9.472   4.495   1.891 -0.5527 -1.1610 -1.2550
11520SOL     OW46213   7.101   3.623   2.571 -0.4380 -0.5900  0.0944
11520SOL    HW146214   7.109   3.524   2.560  0.5479 -0.2470 -2.6815
11520SOL    HW246215   7.136   3.649   2.661  2.2164 -2.4587 -0.3286
11521SOL     OW46216   2.925   1.349   2.733 -0.7771  0.4452 -0.5835
11521SOL    HW146217   2.827   1.364   2.726 -0.8557  1.5874  2.3409
11521SOL    HW246218   2.942   1.259   2.774 -0.6062  0.4973 -0.5408
11522SOL     OW46219   8.145   8.983   3.799 -0.0409  0.6142 -0.1885
11522SOL    HW146220   8.135   9.074   3.839  0.2487  1.0575 -1.1080
11522SOL    HW246221   8.242   8.964   3.782 -0.0533 -0.0753  0.4573
11523SOL     OW46222   9.016   1.666   7.599 -0.7287 -0.1025  0.6801
11523SOL    HW146223   9.006   1.606   7.520  1.9262  2.3600 -1.6830
11523SOL    HW246224   8.959   1.747   7.586  2.1582  1.8479 -0.4074
11524SOL     OW46225   1.513   4.272   4.813 -0.3532  0.3572 -0.7478
11524SOL    HW146226   1.551   4.240   4.726 -0.3327 -0.1612 -0.5461
11524SOL    HW246227   1.517   4.372   4.816 -0.4219  0.3803 -1.3766
11525SOL     OW46228   1.773   2.201   0.707  0.0490 -0.1717  0.1707
11525SOL    HW146229   1.811   2.273   0.649  0.3258 -0.0620  0.4838
11525SOL    HW246230   1.824   2.198   0.793  1.5744 -2.2745 -0.7601
11526SOL     OW46231   0.112   7.853   6.795 -0.8354  0.3074 -0.1448
11526SOL    HW146232   0.160   7.938   6.776 -0.8488  0.9195  2.3997
11526SOL    HW246233   0.070   7.858   6.886 -3.5620 -1.1826 -1.2738
11527SOL     OW46234   2.301   4.535   7.505 -0.9491 -0.2097  0.3661
11527SOL    HW146235   2.315   4.589   7.422 -1.4704  0.8214  0.9325
11527SOL    HW246236   2.373   4.556   7.571 -1.3477  0.0570  0.7195
11528SOL     OW46237   9.711   4.777   5.955  0.0104 -0.1056  0.2345
11528SOL    HW146238   9.710   4.850   6.024  1.0627 -0.2966  0.4716
11528SOL    HW246239   9.694   4.689   5.998 -0.6326 -0.0726  0.0466
11529SOL     OW46240   3.624   4.844   4.044  0.3231 -0.0691 -0.4763
11529SOL    HW146241   3.594   4.750   4.058  0.5907 -0.1978 -0.7551
11529SOL    HW246242   3.605   4.898   4.126 -0.6207 -0.1590 -0.6259
11530SOL     OW46243   0.759   6.868   8.017  0.2204 -0.1838  0.3224
11530SOL    HW146244   0.733   6.819   8.100  1.1889  1.7032  1.7659
11530SOL    HW246245   0.849   6.911   8.030 -0.4420  1.6822 -1.0282
11531SOL     OW46246   5.918   6.956   5.334  0.2507 -0.3606  0.1224
11531SOL    HW146247   5.989   6.897   5.295  2.3123  2.1125 -0.0221
11531SOL    HW246248   5.907   7.037   5.276 -1.8958 -0.1763  0.7622
11532SOL     OW46249   4.136   7.384   3.945 -0.2666 -0.2442  0.0003
11532SOL    HW146250   4.148   7.286   3.935 -1.7029 -0.3248 -1.0477
11532SOL    HW246251   4.049   7.412   3.904 -0.0774  1.3976  0.6612
11533SOL     OW46252   7.948   2.025   0.651 -0.4248  0.2054  0.1871
11533SOL    HW146253   8.024   1.961   0.646 -0.8701 -0.3974  1.0535
11533SOL    HW246254   7.879   1.991   0.715 -0.1087  2.1247  1.5832
11534SOL     OW46255   8.035   4.455   0.821 -0.3381  0.5928 -0.5198
11534SOL    HW146256   7.939   4.474   0.840 -0.3503  0.5665 -0.5534
11534SOL    HW246257   8.054   4.475   0.725 -0.0920  1.4876 -0.2890
11535SOL     OW46258   2.724   2.040   4.942 -0.4680 -0.8813  0.0189
11535SOL    HW146259   2.774   1.991   5.013 -2.0025 -2.4310  0.0630
11535SOL    HW246260   2.679   2.121   4.982  3.4383  1.6061 -0.3822
11536SOL     OW46261   2.374   5.533   6.842  0.3047 -0.3018 -0.0239
11536SOL    HW146262   2.327   5.488   6.766  0.8651  0.6057 -0.9374
11536SOL    HW246263   2.334   5.504   6.928  1.9044 -4.0120 -0.4367
11537SOL     OW46264   1.705   3.054   4.589 -0.2191  0.8368  0.0594
11537SOL    HW146265   1.714   2.956   4.602  3.3223  1.2892  1.9105
11537SOL    HW246266   1.742   3.080   4.500 -1.1565  0.4793 -0.4283
11538SOL     OW46267   0.774   2.586   5.504  0.3953 -0.5548 -0.2750
11538SOL    HW146268   0.821   2.670   5.479  0.8441 -0.5072  0.7201
11538SOL    HW246269   0.701   2.605   5.570 -0.7774 -0.6867 -1.4944
11539SOL     OW46270   2.908   3.880   6.283 -0.0428 -0.5119  0.2241
11539SOL    HW146271   2.819   3.905   6.323 -0.3461 -2.0075  0.5172
11539SOL    HW246272   2.950   3.961   6.242 -1.0176  0.4514  1.1028
11540SOL     OW46273   8.656   1.517   4.318 -0.3521  0.0505  0.1907
11540SOL    HW146274   8.733   1.457   4.296 -0.2485 -0.1658  1.1470
11540SOL    HW246275   8.576   1.489   4.264  0.5453  1.0218 -1.6874
11541SOL     OW46276   8.861   6.015   4.864 -0.2594  0.9221 -0.9916
11541SOL    HW146277   8.924   6.074   4.913  0.5173  0.6663 -1.6687
11541SOL    HW246278   8.804   6.070   4.803  0.0293  1.0377 -1.1534
11542SOL     OW46279   0.965   4.080   2.505  0.5745 -0.5933  0.2107
11542SOL    HW146280   0.865   4.080   2.500  0.6441  0.6723 -1.7749
11542SOL    HW246281   0.999   3.987   2.492 -0.3139 -0.8447 -0.3304
11543SOL     OW46282   9.223   3.139   6.457 -0.1086  0.1804  0.1175
11543SOL    HW146283   9.299   3.096   6.505  0.5185 -0.4900 -1.4459
11543SOL    HW246284   9.254   3.224   6.415 -0.5613  0.5836  0.6006
11544SOL     OW46285   0.972   6.337   1.979  0.1475 -0.0507 -0.3190
11544SOL    HW146286   0.918   6.262   2.019  1.8064 -0.3226  1.4817
11544SOL    HW246287   0.998   6.402   2.050  0.0867  1.4109 -1.5973
11545SOL     OW46288   2.944   7.736   3.219  0.1513  0.0814  0.7801
11545SOL    HW146289   2.886   7.737   3.301  0.2643  1.9646  0.8409
11545SOL    HW246290   2.903   7.676   3.150 -1.6693  1.0497  0.9840
11546SOL     OW46291   5.034   8.810   3.119 -0.2039 -0.4270 -0.0039
11546SOL    HW146292   5.123   8.780   3.153  0.0192  0.6519  0.3883
11546SOL    HW246293   5.041   8.904   3.086 -1.5278  0.1772  1.3810
11547SOL     OW46294   6.394   5.461   0.991  0.4977  0.0293 -0.4478
11547SOL    HW146295   6.330   5.480   0.918  0.6226  0.3785 -0.4660
11547SOL    HW246296   6.344   5.439   1.075  0.3576  0.4514 -0.4219
11548SOL     OW46297   9.956   1.597   5.254  0.1277  0.2067 -0.1505
11548SOL    HW146298  10.022   1.664   5.288 -1.5241  1.5534  0.4419
11548SOL    HW246299   9.899   1.565   5.330  0.8947 -1.9056 -0.4189
11549SOL     OW46300   2.914   9.839   2.213  0.0267 -0.2276 -0.3674
11549SOL    HW146301   2.943   9.764   2.272 -0.7015 -1.9058 -2.0844
11549SOL    HW246302   2.961   9.924   2.240 -0.7716 -0.8028  2.9837
11550SOL     OW46303   4.003   0.843   3.074  0.4038 -0.2923 -0.5837
11550SOL    HW146304   4.036   0.927   3.030 -0.1229  2.7429  4.3532
11550SOL    HW246305   3.905   0.833   3.057  0.9456 -1.4073 -3.3097
11551SOL     OW46306   1.704   5.066   4.103 -0.2032 -0.1320  0.5143
11551SOL    HW146307   1.776   5.134   4.087 -0.7947  0.6551  1.1347
11551SOL    HW246308   1.730   4.979   4.062  0.4672  0.5344 -0.5013
11552SOL     OW46309   5.960   6.312   1.407  0.4973 -0.0229  0.3261
11552SOL    HW146310   5.954   6.222   1.364 -0.6016  0.2207 -0.0462
11552SOL    HW246311   6.041   6.316   1.466  1.6547 -0.5697 -1.2095
11553SOL     OW46312   3.982   9.388   6.563 -0.2574 -0.1825 -0.4656
11553SOL    HW146313   4.003   9.445   6.642  0.8074 -1.5718  0.2690
11553SOL    HW246314   3.942   9.444   6.491 -0.3290  1.2659  0.6963
11554SOL     OW46315   2.426   0.411   4.027  0.2533  0.0289 -0.2108
11554SOL    HW146316   2.513   0.374   3.995  0.0989  0.2286 -0.8599
11554SOL    HW246317   2.352   0.349   4.001  0.1736 -0.0367  0.1619
11555SOL     OW46318   6.791   2.742   2.210  0.2145  0.2544 -0.1901
11555SOL    HW146319   6.753   2.682   2.280  1.3824  1.5440  1.5911
11555SOL    HW246320   6.889   2.724   2.200  0.2232  0.6705 -0.8821
11556SOL     OW46321   7.831   5.599   5.455  0.1258  0.1397  0.4557
11556SOL    HW146322   7.751   5.541   5.437 -0.4883  1.4739 -1.3010
11556SOL    HW246323   7.804   5.675   5.515 -0.0674  0.8758 -0.5513
11557SOL     OW46324   2.007   1.233   7.876  0.4073  0.0413  0.1853
11557SOL    HW146325   1.983   1.330   7.875 -2.0239 -0.5206 -0.9894
11557SOL    HW246326   2.079   1.216   7.809  2.2090  1.3333  1.7603
11558SOL     OW46327   5.628   9.774   1.263  0.4071 -0.4557 -0.3628
11558SOL    HW146328   5.552   9.811   1.210  1.3312 -1.0062 -2.1274
11558SOL    HW246329   5.671   9.847   1.316 -1.6356 -0.2340  1.0251
11559SOL     OW46330   4.333   3.329   3.847 -0.5549  0.0060  0.3651
11559SOL    HW146331   4.369   3.247   3.891 -0.8949  0.5702  1.7074
11559SOL    HW246332   4.297   3.391   3.916 -0.1780  1.3585 -0.6307
11560SOL     OW46333   2.296   9.743   0.094 -0.0114 -0.7824 -0.0358
11560SOL    HW146334   2.312   9.690   0.178  2.1416  0.7432  0.5660
11560SOL    HW246335   2.384   9.765   0.052 -1.0589 -1.2916 -2.5677
11561SOL     OW46336   3.060   4.154   7.773  0.1635 -0.5035 -0.0351
11561SOL    HW146337   3.027   4.229   7.831  0.7656  0.1813 -0.5692
11561SOL    HW246338   3.150   4.178   7.737  0.8119 -1.9339  0.6206
11562SOL     OW46339   7.676   8.892   3.316 -0.1844 -0.4476 -1.3257
11562SOL    HW146340   7.586   8.852   3.297 -1.1829  1.7344 -1.3795
11562SOL    HW246341   7.712   8.935   3.233 -0.9414  2.1487 -0.3694
11563SOL     OW46342   5.467   0.589   2.977  0.3913 -0.0672  0.1759
11563SOL    HW146343   5.473   0.680   2.936 -1.2558 -0.0721 -0.0830
11563SOL    HW246344   5.526   0.526   2.927 -0.6247  0.2143 -1.3940
11564SOL     OW46345   9.590   2.040   5.787 -0.0661 -0.3662 -0.3211
11564SOL    HW146346   9.517   1.976   5.760 -1.3627  0.7917  0.3479
11564SOL    HW246347   9.571   2.075   5.879  1.2226  0.1220 -0.2371
11565SOL     OW46348   7.352   7.056   5.641  0.0216 -0.3946  0.7604
11565SOL    HW146349   7.370   6.957   5.643 -0.6163 -0.4964  1.5446
11565SOL    HW246350   7.269   7.074   5.589 -0.2839 -0.3335  1.2708
11566SOL     OW46351   0.655   3.019   4.842  0.6658 -0.5715 -0.5916
11566SOL    HW146352   0.628   2.955   4.915 -1.6629  1.6459  0.5606
11566SOL    HW246353   0.603   2.999   4.760 -1.7610  1.2297  0.4592
11567SOL     OW46354   8.526   4.585   4.636  0.1038  0.0423  0.2901
11567SOL    HW146355   8.594   4.518   4.605 -0.9691 -2.6636  3.5000
11567SOL    HW246356   8.549   4.613   4.729 -1.3167  1.7111  0.1491
11568SOL     OW46357   1.300   0.257   7.416 -0.2337 -0.5640  0.7268
11568SOL    HW146358   1.337   0.343   7.380 -2.9640 -0.0911 -1.0570
11568SOL    HW246359   1.338   0.240   7.507  1.2569  1.9003  0.6008
11569SOL     OW46360   8.444   3.302   2.196 -0.1201  0.1409 -0.2871
11569SOL    HW146361   8.397   3.283   2.109 -0.8609 -0.3871  0.2205
11569SOL    HW246362   8.412   3.389   2.233 -1.9028 -0.9707  0.8485
11570SOL     OW46363   7.336   3.071   3.465 -0.0104 -0.0374  0.5889
11570SOL    HW146364   7.245   3.034   3.443 -0.0690  1.0679 -1.1297
11570SOL    HW246365   7.406   3.011   3.426 -0.1114  1.7465 -2.4971
11571SOL     OW46366   8.528   0.558   0.154  0.4520 -0.3942  0.4194
11571SOL    HW146367   8.537   0.472   0.103  1.0506 -1.6261  2.5094
11571SOL    HW246368   8.438   0.562   0.198  0.4861 -0.0219  0.4567
11572SOL     OW46369   5.989   4.786   0.205 -0.2854  0.2068 -0.9328
11572SOL    HW146370   6.048   4.706   0.213 -0.6722  0.1203  1.2747
11572SOL    HW246371   5.896   4.757   0.183 -0.2561  0.1169 -0.9370
11573SOL     OW46372   3.806   5.905   2.389  0.5131  0.4876 -0.0637
11573SOL    HW146373   3.754   5.891   2.473  1.3532 -1.2897  0.1784
11573SOL    HW246374   3.742   5.910   2.311 -0.1195 -0.1792  0.4018
11574SOL     OW46375   1.223   8.374   3.227 -0.1171 -0.4956 -0.8210
11574SOL    HW146376   1.243   8.465   3.265 -0.3904 -0.7285 -0.1143
11574SOL    HW246377   1.210   8.309   3.302  0.6857 -1.2540 -1.3295
11575SOL     OW46378   4.484   2.777   2.308 -0.1558 -0.5793  0.1635
11575SOL    HW146379   4.435   2.856   2.271  0.8374 -0.2077 -0.3756
11575SOL    HW246380   4.427   2.732   2.377 -1.3007 -0.2227 -0.5274
11576SOL     OW46381   3.772   5.889   7.299 -0.0965 -0.2072  0.2858
11576SOL    HW146382   3.815   5.837   7.373  0.1109 -1.0699 -0.4257
11576SOL    HW246383   3.840   5.951   7.258  1.1874 -3.2084 -2.3405
11577SOL     OW46384   5.223   3.040   0.830 -0.4948 -0.1482  0.5500
11577SOL    HW146385   5.288   3.097   0.781  0.0734 -0.3907  1.0212
11577SOL    HW246386   5.177   3.094   0.901  0.0203 -0.2648  0.9755
11578SOL     OW46387   0.804   4.996   2.901  0.3435 -0.2951 -0.4017
11578SOL    HW146388   0.732   4.929   2.878 -0.6932  0.5884  0.2123
11578SOL    HW246389   0.772   5.088   2.879  1.4786  0.0686 -0.5432
11579SOL     OW46390   9.215   7.874   2.055 -0.2631  0.0393  0.0353
11579SOL    HW146391   9.143   7.837   2.113  0.0413  0.1328  0.4800
11579SOL    HW246392   9.216   7.974   2.062  0.8599 -0.0331  1.1954
11580SOL     OW46393   5.722   0.666   7.132 -0.3350 -0.4087 -0.3971
11580SOL    HW146394   5.765   0.597   7.191 -0.7482  0.7115  1.2549
11580SOL    HW246395   5.655   0.623   7.072 -0.8006 -1.4118  0.8312
11581SOL     OW46396   8.416   9.755   4.312  0.3362 -0.6010  0.5614
11581SOL    HW146397   8.368   9.757   4.224  0.3765 -0.9638  0.5308
11581SOL    HW246398   8.514   9.769   4.298  0.5182 -2.0118  0.4194
11582SOL     OW46399   1.152   5.878   1.836 -0.4556 -0.0296 -0.0842
11582SOL    HW146400   1.057   5.852   1.823 -0.1291 -0.9620 -0.6733
11582SOL    HW246401   1.188   5.831   1.917 -0.3650 -0.0533 -0.1381
11583SOL     OW46402   6.479   8.305   2.386 -0.3353  0.3820  0.7310
11583SOL    HW146403   6.568   8.346   2.366 -0.0500  0.7909  2.8016
11583SOL    HW246404   6.485   8.206   2.376  0.2973  0.4217  0.7030
11584SOL     OW46405   1.805   2.696   6.252 -0.0727 -0.5860 -0.0622
11584SOL    HW146406   1.898   2.668   6.226  0.2526  1.4354 -1.1663
11584SOL    HW246407   1.792   2.793   6.231 -1.9828 -0.4926  1.4029
11585SOL     OW46408   4.275   7.638   6.680 -0.0686  0.1229  0.0578
11585SOL    HW146409   4.244   7.670   6.770 -0.7349 -1.4103  0.3773
11585SOL    HW246410   4.365   7.596   6.690 -0.4579 -0.6873  0.1222
11586SOL     OW46411   8.956   6.101   3.724 -0.3666 -0.1145 -0.1085
11586SOL    HW146412   8.976   6.198   3.717  1.6481 -0.5803 -1.2537
11586SOL    HW246413   8.866   6.082   3.684 -1.4128  1.4702  1.4609
11587SOL     OW46414   2.004   6.120   7.296  0.0804  0.8048  0.1495
11587SOL    HW146415   1.999   6.033   7.346  1.1817  0.3792 -0.4724
11587SOL    HW246416   2.071   6.112   7.222 -0.9356  1.6903 -0.8793
11588SOL     OW46417   9.167   9.443   5.470 -0.1424 -0.0782  0.0545
11588SOL    HW146418   9.096   9.380   5.501  1.0225 -1.3177  0.2216
11588SOL    HW246419   9.166   9.448   5.370 -0.5027 -0.0275  0.0589
11589SOL     OW46420   1.371   7.159   2.329  0.3254 -0.3769 -0.1027
11589SOL    HW146421   1.343   7.075   2.375 -0.7222 -1.0432 -1.9069
11589SOL    HW246422   1.316   7.172   2.246  0.4295  2.1354  0.1882
11590SOL     OW46423   0.218   5.975   1.347  0.1775  0.2609  0.1008
11590SOL    HW146424   0.264   5.888   1.329  0.6856 -0.0566  2.7038
11590SOL    HW246425   0.220   6.031   1.265  2.9461 -0.8067 -0.6316
11591SOL     OW46426   0.602   9.765   4.370  0.7571  0.4560  0.2252
11591SOL    HW146427   0.580   9.844   4.313  0.5189  1.1573  1.2616
11591SOL    HW246428   0.518   9.714   4.390  0.7693  0.4628  0.2996
11592SOL     OW46429   3.032   6.739   1.374  0.1537  0.5499  0.2261
11592SOL    HW146430   2.977   6.699   1.447 -1.1708  1.4079 -0.2958
11592SOL    HW246431   3.063   6.667   1.312  0.9884 -0.1393  1.4117
11593SOL     OW46432   4.357   8.483   6.562 -0.2798  0.2491  0.0454
11593SOL    HW146433   4.344   8.410   6.495 -1.6554 -1.5702  2.2282
11593SOL    HW246434   4.386   8.567   6.515  0.0854 -1.3328 -2.6382
11594SOL     OW46435   0.559   1.730   7.898 -0.2836  0.1484  0.5619
11594SOL    HW146436   0.553   1.744   7.799 -2.0523 -0.9105  0.4903
11594SOL    HW246437   0.643   1.681   7.920 -0.2156 -0.2231 -0.5052
11595SOL     OW46438   2.728   1.833   5.495 -0.3745  0.5305  0.0874
11595SOL    HW146439   2.793   1.815   5.569 -0.4418  0.2349  0.0763
11595SOL    HW246440   2.644   1.870   5.533 -0.6610 -0.2552  0.2330
11596SOL     OW46441   0.621   6.636   1.040  0.8465 -0.5529 -0.1681
11596SOL    HW146442   0.664   6.546   1.048  0.6860 -0.6945 -0.8441
11596SOL    HW246443   0.674   6.703   1.092  1.4138 -0.8907 -0.3072
11597SOL     OW46444   1.889   4.438   2.654  0.2643 -1.0393 -0.4493
11597SOL    HW146445   1.867   4.422   2.750  0.0990 -2.4164 -0.6962
11597SOL    HW246446   1.887   4.536   2.634 -1.9644 -0.8915  0.4159
11598SOL     OW46447   3.718   8.522   8.037  0.2889 -0.7460 -0.6738
11598SOL    HW146448   3.722   8.606   8.091 -0.9209 -1.4192  0.4809
11598SOL    HW246449   3.808   8.479   8.037  0.6115 -0.0915 -0.2355
11599SOL     OW46450   7.730   5.532   6.323  0.5501 -0.2783  0.8446
11599SOL    HW146451   7.662   5.464   6.297  0.2697 -0.9429  3.1744
11599SOL    HW246452   7.815   5.485   6.349  1.3916  0.4535 -0.5795
11600SOL     OW46453   8.137   1.394   4.109  0.4997  0.0102 -0.0238
11600SOL    HW146454   8.115   1.391   4.207  2.1145  0.8778  0.3739
11600SOL    HW246455   8.120   1.304   4.069 -0.5049 -0.2603  0.9773
11601SOL     OW46456   9.863   6.630   7.833  0.0912  0.3217 -0.4572
11601SOL    HW146457   9.849   6.536   7.865 -3.2205  0.3276 -1.6959
11601SOL    HW246458   9.789   6.688   7.868  0.3036  1.7778 -2.3572
11602SOL     OW46459   4.907   1.078   0.896 -0.5950  0.4827 -0.4612
11602SOL    HW146460   4.906   1.000   0.958  0.4141  1.2257  0.5129
11602SOL    HW246461   4.901   1.163   0.949  1.8352  1.1997 -1.2434
11603SOL     OW46462   9.978   5.812   7.967  0.0722  0.6718  0.6719
11603SOL    HW146463  10.006   5.906   7.987  0.9531  0.4655  0.3844
11603SOL    HW246464  10.014   5.784   7.879 -0.7731  0.2950  0.4368
11604SOL     OW46465   2.133   1.896   6.774 -0.0365  0.1801 -0.0324
11604SOL    HW146466   2.115   1.974   6.834  1.0615  0.5179 -0.1263
11604SOL    HW246467   2.229   1.897   6.747  0.0374 -1.3425  0.1522
11605SOL     OW46468   9.461   4.380   3.283 -0.2502  0.6492  0.2146
11605SOL    HW146469   9.380   4.333   3.249  0.0643  1.2332 -1.4020
11605SOL    HW246470   9.540   4.357   3.226 -0.0925  3.0814 -0.6150
11606SOL     OW46471   1.116   4.711   5.770 -0.1245  0.6019 -0.1354
11606SOL    HW146472   1.051   4.787   5.756  0.4101  1.2285  0.7834
11606SOL    HW246473   1.135   4.669   5.681 -2.1563  0.0952 -0.3694
11607SOL     OW46474   1.655   6.923   7.692 -0.0716 -0.7648 -0.1181
11607SOL    HW146475   1.594   6.968   7.757  0.3028 -0.9823  0.3888
11607SOL    HW246476   1.702   6.992   7.638 -0.7705 -0.5971 -0.5141
11608SOL     OW46477   3.925   5.042   2.062  0.3798 -0.1608  0.0131
11608SOL    HW146478   3.932   4.989   1.977 -0.3224  0.2244 -0.2834
11608SOL    HW246479   3.853   5.110   2.053 -0.3230 -0.7315  1.2563
11609SOL     OW46480   2.191   8.527   2.948 -0.0351  0.3846 -0.4822
11609SOL    HW146481   2.190   8.530   2.848  1.4539 -0.2404 -0.5318
11609SOL    HW246482   2.110   8.478   2.981 -0.5506  0.6241 -1.3806
11610SOL     OW46483   2.779   4.409   5.739  0.7181 -0.3439 -0.1473
11610SOL    HW146484   2.846   4.342   5.708 -0.2681 -1.0147 -0.8592
11610SOL    HW246485   2.803   4.500   5.704  1.0699 -0.6369 -0.6581
11611SOL     OW46486   5.321   5.424   0.759 -0.5450 -0.0132 -0.0890
11611SOL    HW146487   5.378   5.396   0.836 -0.4129  1.1810  0.2599
11611SOL    HW246488   5.375   5.421   0.675 -0.9002 -2.0629 -0.2785
11612SOL     OW46489   5.467   5.773   1.056  0.0310  0.3185 -0.1782
11612SOL    HW146490   5.449   5.854   0.999  0.2794  1.7781  1.7504
11612SOL    HW246491   5.398   5.704   1.038 -0.8853  1.4250 -1.0029
11613SOL     OW46492   2.249   6.956   4.691  0.3555 -0.1931  0.4629
11613SOL    HW146493   2.166   7.007   4.672  0.0558 -0.3236  1.4131
11613SOL    HW246494   2.260   6.884   4.622 -0.1960 -0.0400  0.2099
11614SOL     OW46495   8.441   4.234   2.155  0.8345 -0.0448 -0.6171
11614SOL    HW146496   8.463   4.285   2.238 -0.8475 -0.8727  0.3533
11614SOL    HW246497   8.387   4.292   2.094 -1.8903 -0.9185  0.8968
11615SOL     OW46498   7.601   4.187   3.789 -0.3613  0.5456 -0.2550
11615SOL    HW146499   7.570   4.125   3.717  0.0260  0.2434 -0.1595
11615SOL    HW246500   7.597   4.281   3.756 -0.3669  0.4203 -0.6083
11616SOL     OW46501   9.708   6.563   0.632  0.3049 -0.2134 -0.2213
11616SOL    HW146502   9.732   6.653   0.668 -1.7415  0.1570  0.2325
11616SOL    HW246503   9.640   6.572   0.560 -0.7417 -1.4663  0.5879
11617SOL     OW46504   1.653   7.071   7.135  0.6645  0.6117  0.4274
11617SOL    HW146505   1.695   7.160   7.149  0.7516  0.7232 -0.5211
11617SOL    HW246506   1.584   7.077   7.063  3.0117 -0.7819 -2.0361
11618SOL     OW46507   1.361   0.677   2.130  0.3999  0.4136  0.0284
11618SOL    HW146508   1.400   0.762   2.168 -1.5216  1.4061 -0.1616
11618SOL    HW246509   1.362   0.681   2.030  3.8084 -1.4455 -0.0879
11619SOL     OW46510   1.519   8.485   2.753  0.6089 -0.0504 -0.3502
11619SOL    HW146511   1.438   8.500   2.696  0.6799 -0.4991 -0.5755
11619SOL    HW246512   1.493   8.486   2.849  0.4179  0.3062 -0.4066
11620SOL     OW46513   7.055   0.950   1.339  0.0499  0.0709 -0.2451
11620SOL    HW146514   7.120   1.012   1.382 -0.9750  0.3008  0.9862
11620SOL    HW246515   7.003   0.999   1.268  1.1668 -0.1036 -1.1967
11621SOL     OW46516   7.840   4.823   2.079 -0.3780  0.7051 -0.1229
11621SOL    HW146517   7.866   4.891   2.147  2.4562  0.6495 -1.0781
11621SOL    HW246518   7.784   4.752   2.122  0.1584  1.4292  1.7943
11622SOL     OW46519   6.501   7.171   5.559  0.1446  0.3839 -0.1755
11622SOL    HW146520   6.402   7.157   5.570  0.0036  1.6701  0.3172
11622SOL    HW246521   6.526   7.160   5.463 -0.3186 -0.8827 -0.1585
11623SOL     OW46522   2.692   5.274   4.944 -0.6380  0.5831  0.6822
11623SOL    HW146523   2.729   5.209   5.010 -0.7445 -0.7798 -0.5831
11623SOL    HW246524   2.598   5.296   4.967 -1.5314 -1.9046 -0.4808
11624SOL     OW46525   0.978   0.130   8.133 -0.3359 -0.2797 -0.3662
11624SOL    HW146526   1.053   0.159   8.193 -0.7235 -1.6598  0.8482
11624SOL    HW246527   0.983   0.031   8.120 -0.1134  0.0441 -2.8677
11625SOL     OW46528   9.517   0.528   0.551  0.2362  1.1032 -0.4661
11625SOL    HW146529   9.555   0.439   0.576  2.2461  1.7414 -1.2022
11625SOL    HW246530   9.451   0.516   0.477  0.1354  0.1836 -0.2401
11626SOL     OW46531   8.183   0.340   0.451 -0.1017  0.6090  0.2145
11626SOL    HW146532   8.123   0.307   0.524 -1.0494  1.5365 -0.1328
11626SOL    HW246533   8.136   0.330   0.363  1.0494 -0.5486 -0.2920
11627SOL     OW46534   3.714   1.707   4.871  0.2861  0.1690  0.2307
11627SOL    HW146535   3.687   1.710   4.775 -0.7323  0.5597  0.5126
11627SOL    HW246536   3.805   1.747   4.882  0.9384 -1.0194 -0.7302
11628SOL     OW46537   4.118   2.268   4.673  0.3442  0.0983 -0.0691
11628SOL    HW146538   4.019   2.266   4.666  0.4850 -0.2433 -2.5634
11628SOL    HW246539   4.154   2.175   4.675  0.5743  0.2042  2.0955
11629SOL     OW46540   3.594   8.550   5.220 -0.3446 -0.2258 -0.6823
11629SOL    HW146541   3.612   8.546   5.122 -2.1993  3.4985 -1.2522
11629SOL    HW246542   3.656   8.616   5.263  0.2993 -1.6619  0.6409
11630SOL     OW46543   4.358   9.465   8.179 -0.4320 -0.0258 -0.1328
11630SOL    HW146544   4.436   9.414   8.142 -1.3726 -1.3171 -0.3649
11630SOL    HW246545   4.287   9.473   8.109 -2.7123 -3.4885  1.6621
11631SOL     OW46546   4.115   1.120   4.106  0.7706  0.2739  0.2948
11631SOL    HW146547   4.106   1.056   4.029  0.6283  0.8340 -0.1553
11631SOL    HW246548   4.066   1.204   4.085 -0.6575 -0.1872  1.6708
11632SOL     OW46549   9.529   9.792   6.135 -0.2756 -0.2961  0.6209
11632SOL    HW146550   9.571   9.708   6.166 -0.1235 -0.0542  1.0783
11632SOL    HW246551   9.441   9.772   6.091  0.7592 -0.8878 -1.2143
11633SOL     OW46552   8.736   9.956   4.324 -0.2910  0.5149 -0.7333
11633SOL    HW146553   8.707   9.914   4.410  4.5459 -1.3215  0.1640
11633SOL    HW246554   8.704   9.901   4.247 -0.7223 -0.3978  0.0927
11634SOL     OW46555   0.460   0.932   6.119  0.0741  0.4045  0.0197
11634SOL    HW146556   0.443   0.953   6.215  0.0943  1.6879 -0.2495
11634SOL    HW246557   0.429   0.839   6.099  3.1182 -1.1181  2.0415
11635SOL     OW46558   9.946   9.260   7.436 -0.0245  0.4196  0.5659
11635SOL    HW146559   9.908   9.235   7.525 -0.4675  0.5407  0.4151
11635SOL    HW246560   9.880   9.317   7.387  0.6276  1.1978  0.5662
11636SOL     OW46561   0.784   5.053   7.503  0.2406 -0.4457  0.3720
11636SOL    HW146562   0.786   5.153   7.506 -0.5016 -0.3962 -0.7795
11636SOL    HW246563   0.873   5.019   7.472  0.0597 -0.0906 -0.5542
11637SOL     OW46564   2.448   9.798   6.600 -0.0488  0.1477  0.5513
11637SOL    HW146565   2.392   9.789   6.683  1.4008  1.4901  1.7108
11637SOL    HW246566   2.479   9.893   6.591  1.0023 -0.3076 -0.7553
11638SOL     OW46567   8.444   7.724   4.402  0.1896 -0.0754  0.2236
11638SOL    HW146568   8.541   7.710   4.423  0.0150 -0.7256  0.6140
11638SOL    HW246569   8.394   7.639   4.417 -0.4205  0.2236 -0.1082
11639SOL     OW46570   3.747   8.437   5.598  0.6845  0.1833 -0.1193
11639SOL    HW146571   3.835   8.389   5.604  0.6108  0.0971  0.2937
11639SOL    HW246572   3.729   8.484   5.685 -0.0542 -0.4513  0.0753
11640SOL     OW46573   2.711   5.855   7.775  0.3061 -0.2177 -0.2383
11640SOL    HW146574   2.802   5.896   7.786  0.1353 -0.1917  1.2351
11640SOL    HW246575   2.664   5.898   7.698  2.1588 -1.3866 -2.0710
11641SOL     OW46576   4.716   8.331   3.579 -0.3888 -0.3558 -0.2862
11641SOL    HW146577   4.665   8.413   3.553  0.4357  0.1460 -0.3378
11641SOL    HW246578   4.787   8.314   3.511 -0.0202 -0.6398  0.1722
11642SOL     OW46579   6.593   2.664   1.186 -0.3033  0.0980  0.7599
11642SOL    HW146580   6.551   2.573   1.177 -0.2687  0.0499  1.0966
11642SOL    HW246581   6.626   2.676   1.279  1.2481 -0.2124  0.2586
11643SOL     OW46582   4.587   2.454   8.185 -0.1084  0.4047 -0.5306
11643SOL    HW146583   4.672   2.436   8.233 -0.0710  1.9524  0.0066
11643SOL    HW246584   4.573   2.385   8.114  0.9194 -0.6163  0.2583
11644SOL     OW46585   7.218   6.071   7.107  0.6825  0.0330  0.4207
11644SOL    HW146586   7.232   6.156   7.159  0.5251 -0.3842  1.1523
11644SOL    HW246587   7.281   6.069   7.029  0.6382  0.8536  0.3603
11645SOL     OW46588   5.482   7.451   3.714  0.1312  0.4522 -0.9307
11645SOL    HW146589   5.405   7.513   3.701 -1.3489 -1.2859 -0.7137
11645SOL    HW246590   5.471   7.371   3.654  0.2857 -1.1662  1.1369
11646SOL     OW46591   3.487   7.814   5.148  0.1357 -0.2459  0.3600
11646SOL    HW146592   3.558   7.879   5.122 -1.6371  1.6670  0.1410
11646SOL    HW246593   3.433   7.790   5.067 -0.1398 -0.8384  0.7185
11647SOL     OW46594   1.482   6.166   5.652 -0.7847  0.1765  0.3972
11647SOL    HW146595   1.433   6.219   5.721  1.0937  1.0595  1.0787
11647SOL    HW246596   1.492   6.071   5.684 -0.5528  0.4057  1.0117
11648SOL     OW46597   0.247   2.338   2.798  0.0221  0.1331  0.1773
11648SOL    HW146598   0.158   2.294   2.808  0.1756 -0.0157  0.9857
11648SOL    HW246599   0.240   2.433   2.830 -0.0740  0.4036 -0.6459
11649SOL     OW46600   3.943   0.393   5.630 -0.1327  1.2281 -0.0035
11649SOL    HW146601   3.958   0.389   5.728 -0.3051 -1.9742 -0.0651
11649SOL    HW246602   4.030   0.414   5.584  0.7202 -0.6873  0.6586
11650SOL     OW46603   2.589   2.114   5.745  0.5125  0.0685  0.2485
11650SOL    HW146604   2.507   2.060   5.725  0.4499 -0.1796  1.1236
11650SOL    HW246605   2.632   2.143   5.660 -0.2929 -0.0941 -0.2205
11651SOL     OW46606   9.214   0.564   6.371 -0.2873  0.4366  0.0985
11651SOL    HW146607   9.243   0.569   6.466 -1.2227 -0.6402  0.4502
11651SOL    HW246608   9.271   0.498   6.322  0.0302  0.8031 -0.0208
11652SOL     OW46609   7.246   9.916   2.529 -0.3789 -0.0032  0.4738
11652SOL    HW146610   7.165   9.904   2.471  1.0148 -0.9226 -1.3476
11652SOL    HW246611   7.270   9.828   2.570  1.1390 -0.2879 -0.9871
11653SOL     OW46612   3.279   2.298   3.797 -0.0066 -0.3419  0.4222
11653SOL    HW146613   3.211   2.331   3.731  0.5348  1.3930  0.7079
11653SOL    HW246614   3.233   2.249   3.872 -1.0035  1.4102  0.9643
11654SOL     OW46615   2.964   2.978   2.732  0.0735 -0.0342  0.6357
11654SOL    HW146616   2.968   2.962   2.831  0.7728  0.5389  0.7036
11654SOL    HW246617   2.987   2.893   2.684 -0.4195 -0.3574  0.9550
11655SOL     OW46618   8.311   3.376   4.962 -0.1869  0.2969 -0.4881
11655SOL    HW146619   8.406   3.364   4.991 -0.2948  2.4883  0.9479
11655SOL    HW246620   8.249   3.347   5.036 -0.6360 -1.2514 -1.4693
11656SOL     OW46621   8.121   9.425   1.417  0.0071 -0.0959 -0.5556
11656SOL    HW146622   8.199   9.367   1.396  1.4952  1.0550  1.6068
11656SOL    HW246623   8.143   9.483   1.496 -2.7342  0.8276 -0.4267
11657SOL     OW46624   9.773   0.839   7.042  0.1223 -0.5537 -0.2730
11657SOL    HW146625   9.854   0.875   7.088 -1.4406  2.0153  0.5993
11657SOL    HW246626   9.710   0.802   7.110  0.1699 -1.7790 -0.8764
11658SOL     OW46627   7.355   1.211   8.056 -0.0444  0.0360  0.1789
11658SOL    HW146628   7.396   1.274   8.123 -0.8529  2.2822 -1.3805
11658SOL    HW246629   7.428   1.161   8.010  0.8065  1.9478 -0.5874
11659SOL     OW46630   4.971   9.895   7.481  0.1703  0.3514  0.1411
11659SOL    HW146631   4.999   9.811   7.527 -1.6380 -0.0073  0.6478
11659SOL    HW246632   4.953   9.876   7.385  2.0975  0.6841 -0.2906
11660SOL     OW46633   9.991   2.416   4.606  0.1154 -0.4709  0.1903
11660SOL    HW146634  10.007   2.482   4.679 -0.4562 -0.3403  0.2008
11660SOL    HW246635   9.912   2.359   4.629 -0.3460 -0.1337 -0.5303
11661SOL     OW46636   5.040   0.352   5.951 -0.2708  0.1508  0.7151
11661SOL    HW146637   5.135   0.375   5.975  0.9246  0.0818 -3.4257
11661SOL    HW246638   4.979   0.425   5.982  1.3026  0.7887  2.3799
11662SOL     OW46639   0.514   4.467   5.196 -0.4623  0.9319  0.2802
11662SOL    HW146640   0.546   4.516   5.277 -0.3328  0.0871  0.7405
11662SOL    HW246641   0.512   4.369   5.214  3.4447  0.2753 -1.9889
11663SOL     OW46642   0.058   5.406   6.893  0.0392  0.4693  0.4077
11663SOL    HW146643   0.014   5.413   6.803  0.6743 -0.5423  0.0092
11663SOL    HW246644  -0.009   5.372   6.959 -0.4761  1.3715  0.3693
11664SOL     OW46645   7.948   5.503   4.585  0.2570  0.2194  0.4419
11664SOL    HW146646   7.904   5.591   4.602 -1.3002 -0.2744 -0.8956
11664SOL    HW246647   8.000   5.475   4.666  0.3600  2.1276  1.0513
11665SOL     OW46648   3.912   3.318   3.539 -0.0205  0.0347  0.1397
11665SOL    HW146649   3.919   3.397   3.477  0.5784 -0.4980 -0.4791
11665SOL    HW246650   3.817   3.306   3.566 -0.5377 -0.5634 -1.8026
11666SOL     OW46651   8.374   2.623   2.321 -0.3766  0.4172 -0.2425
11666SOL    HW146652   8.286   2.653   2.285 -0.8599  0.1733  0.7133
11666SOL    HW246653   8.435   2.702   2.329 -0.9793  0.8207  0.4069
11667SOL     OW46654   4.748   0.514   2.828 -0.1375  0.1515  0.6937
11667SOL    HW146655   4.701   0.446   2.773 -1.1158  0.8492  0.6458
11667SOL    HW246656   4.845   0.515   2.804 -0.5782  0.5794 -1.1718
11668SOL     OW46657   8.717   4.573   3.548  0.1483 -0.1523 -0.1452
11668SOL    HW146658   8.717   4.512   3.469 -0.8661 -1.0934  0.5539
11668SOL    HW246659   8.759   4.527   3.626  0.4191  0.4719  0.0858
11669SOL     OW46660   5.854   0.885   7.218 -0.4097  0.6298  0.4648
11669SOL    HW146661   5.839   0.958   7.151 -1.5549 -0.0736 -0.0696
11669SOL    HW246662   5.803   0.804   7.189  1.1642 -0.5058  0.8455
11670SOL     OW46663   1.848   0.125   5.887 -0.7876 -0.1700  0.7377
11670SOL    HW146664   1.924   0.186   5.863  0.2602 -0.8825  2.2178
11670SOL    HW246665   1.791   0.109   5.806  0.7217  0.2342 -0.4095
11671SOL     OW46666   9.946   4.479   2.478  0.6555  0.1396 -0.2763
11671SOL    HW146667   9.970   4.572   2.502 -1.3546  0.8244 -0.8001
11671SOL    HW246668   9.905   4.478   2.386  1.6391 -1.4090 -0.7217
11672SOL     OW46669   9.433   3.248   3.829  0.6330 -0.4408 -0.4592
11672SOL    HW146670   9.433   3.298   3.743  1.5892 -0.3381 -0.4020
11672SOL    HW246671   9.402   3.308   3.903 -1.3960 -0.8860 -0.9255
11673SOL     OW46672   8.811   2.707   8.203  0.0001  0.4137 -0.0119
11673SOL    HW146673   8.780   2.615   8.226  1.1077 -0.1183 -0.5804
11673SOL    HW246674   8.754   2.774   8.250  0.8372 -0.6013  2.5396
11674SOL     OW46675   8.180   9.630   0.980  0.8376 -0.2336 -0.1597
11674SOL    HW146676   8.108   9.598   1.042 -1.0527 -0.0605 -2.2180
11674SOL    HW246677   8.264   9.578   0.997 -0.0392 -1.1201  1.5999
11675SOL     OW46678   3.054   8.033   7.004 -0.1561  0.4378  0.1238
11675SOL    HW146679   3.000   7.965   6.954 -1.2245  1.3003  0.0932
11675SOL    HW246680   3.146   7.998   7.018 -0.8135 -1.1933  0.4739
11676SOL     OW46681   1.753   8.622   5.683  0.2251 -0.1319 -0.4581
11676SOL    HW146682   1.692   8.578   5.749  0.4013 -1.5648 -1.2203
11676SOL    HW246683   1.848   8.596   5.702  0.5682  1.8103  0.5060
11677SOL     OW46684   9.564   3.572   6.673 -0.2446  0.0884  0.3601
11677SOL    HW146685   9.590   3.609   6.762 -0.3197  0.9827  0.0176
11677SOL    HW246686   9.630   3.601   6.604 -1.4337  1.3703 -0.2959
11678SOL     OW46687   2.507   4.010   7.320 -0.5087  0.1178  0.2661
11678SOL    HW146688   2.422   3.959   7.305 -0.3272 -0.3456  0.8166
11678SOL    HW246689   2.486   4.106   7.340 -0.8032  0.5638 -2.0402
11679SOL     OW46690   8.178   9.122   6.712 -0.1202  0.1573 -0.7976
11679SOL    HW146691   8.156   9.194   6.777  1.1651  0.5622 -0.7920
11679SOL    HW246692   8.094   9.090   6.668 -0.6842  1.8061 -0.9556
11680SOL     OW46693   0.435   7.781   2.240  0.4066 -0.0077  0.5552
11680SOL    HW146694   0.387   7.791   2.327  0.1602  1.9224  0.2212
11680SOL    HW246695   0.530   7.810   2.251  0.1501  1.0784 -0.0084
11681SOL     OW46696   7.479   7.457   4.386 -0.0149 -0.3008  0.5338
11681SOL    HW146697   7.414   7.382   4.377 -1.8225  1.2681  0.1109
11681SOL    HW246698   7.554   7.445   4.321 -1.9288 -0.1301 -1.7663
11682SOL     OW46699   1.169   4.596   3.092  0.0154  0.2774  0.2750
11682SOL    HW146700   1.139   4.501   3.101  0.7518 -0.1089 -1.1960
11682SOL    HW246701   1.089   4.656   3.091 -0.5506 -0.4770 -0.4874
11683SOL     OW46702   2.108   6.161   4.275 -0.0187  0.3164  0.6678
11683SOL    HW146703   2.120   6.082   4.337  2.1763  1.3189  1.5895
11683SOL    HW246704   2.178   6.157   4.204  0.4699  1.7152  1.0545
11684SOL     OW46705   9.140   8.461   3.090 -0.5389 -0.0819  0.7901
11684SOL    HW146706   9.104   8.368   3.088 -2.3273  0.6087 -1.3206
11684SOL    HW246707   9.143   8.498   2.997  0.7066  1.7644  1.5322
11685SOL     OW46708   3.629   4.403   2.085 -0.0835  0.0101  0.5985
11685SOL    HW146709   3.578   4.419   2.170  0.3365  1.0884  0.6639
11685SOL    HW246710   3.724   4.429   2.099  0.4823 -1.9181  0.4546
11686SOL     OW46711   1.265   9.206   1.070  0.4333  0.2420  0.4875
11686SOL    HW146712   1.210   9.228   0.989  0.2203  0.4169  0.6824
11686SOL    HW246713   1.361   9.225   1.050  0.3416  0.5981  0.3879
11687SOL     OW46714   7.961   4.479   1.934  0.0671  0.1339  0.1482
11687SOL    HW146715   8.049   4.485   1.887  1.0471 -0.4488  1.8394
11687SOL    HW246716   7.926   4.386   1.928  0.3699 -0.0310  0.8485
11688SOL     OW46717   8.354   9.649   0.129  0.0038  0.3074 -0.1054
11688SOL    HW146718   8.373   9.552   0.145  1.4980  0.4961 -0.6236
11688SOL    HW246719   8.312   9.661   0.039 -1.5939  0.0002  0.5810
11689SOL     OW46720   9.614   1.174   6.201  0.1977  0.0771  0.3132
11689SOL    HW146721   9.645   1.269   6.196  0.2838  0.1241  1.6277
11689SOL    HW246722   9.567   1.158   6.288 -0.8954 -0.7669 -0.4145
11690SOL     OW46723   2.453   0.723   0.862  0.5094 -0.6285 -0.0064
11690SOL    HW146724   2.439   0.690   0.768  1.2384  0.7796 -0.6315
11690SOL    HW246725   2.392   0.800   0.879 -2.1058 -2.9885  1.8720
11691SOL     OW46726   8.665   6.516   6.664 -0.2596 -0.1050  0.0976
11691SOL    HW146727   8.756   6.480   6.681 -0.3802 -0.7869 -0.6575
11691SOL    HW246728   8.619   6.460   6.595 -0.6298  1.2101 -0.7520
11692SOL     OW46729   0.401   2.681   0.584 -0.3728 -0.0178  0.0114
11692SOL    HW146730   0.371   2.621   0.509 -1.0776  2.0275 -1.3854
11692SOL    HW246731   0.486   2.727   0.558  0.1011 -0.2960  1.0307
11693SOL     OW46732   9.003   5.066   8.177  0.3208  0.4987 -0.3281
11693SOL    HW146733   8.966   4.981   8.140  2.9217 -1.4082  1.2627
11693SOL    HW246734   9.045   5.120   8.104  0.5604 -0.6048 -1.0017
11694SOL     OW46735   2.625   1.944   1.748  0.3736  0.3496 -0.3534
11694SOL    HW146736   2.597   1.851   1.773 -1.4262  0.8833 -0.3146
11694SOL    HW246737   2.663   1.989   1.828  0.0611  0.0733 -0.0450
11695SOL     OW46738   3.448   3.478   5.290 -0.2953 -0.1976  0.0559
11695SOL    HW146739   3.388   3.554   5.267 -0.9298  0.0559  2.4460
11695SOL    HW246740   3.485   3.491   5.382  3.0964 -0.5572 -1.1906
11696SOL     OW46741   7.418   9.264   5.671  1.2596  0.3563 -0.2589
11696SOL    HW146742   7.334   9.290   5.720  0.7940 -0.4504 -0.6135
11696SOL    HW246743   7.408   9.286   5.574  1.4677  0.2865 -0.2960
11697SOL     OW46744   3.204   4.860   1.309 -0.0358 -0.0735  0.2474
11697SOL    HW146745   3.249   4.837   1.223 -0.6145  0.8894 -0.3199
11697SOL    HW246746   3.235   4.797   1.380  1.2864 -0.1907 -0.4074
11698SOL     OW46747   3.136   3.245   5.134 -0.1294 -0.3819  0.4060
11698SOL    HW146748   3.194   3.164   5.130 -0.6002 -0.6997 -0.0423
11698SOL    HW246749   3.111   3.272   5.041 -0.0136  0.2506  0.5537
11699SOL     OW46750   2.424   8.461   5.824  0.3484  0.3352  0.5554
11699SOL    HW146751   2.419   8.379   5.880  0.7486 -0.1593 -0.1277
11699SOL    HW246752   2.432   8.435   5.728  0.5110  1.1719  0.3403
11700SOL     OW46753   5.609   7.626   5.883 -0.3141 -0.3458 -0.4280
11700SOL    HW146754   5.550   7.569   5.940 -0.1480  0.5946  0.6985
11700SOL    HW246755   5.697   7.638   5.929 -0.2201  0.5065 -0.8248
11701SOL     OW46756   9.590   7.626   2.197  0.9309  0.0149  0.0814
11701SOL    HW146757   9.629   7.657   2.110  0.2157 -0.9277 -0.5851
11701SOL    HW246758   9.628   7.537   2.221 -0.1292 -0.5078 -0.1324
11702SOL     OW46759   4.995   4.253   5.375  0.4601  0.0414 -0.4736
11702SOL    HW146760   4.965   4.167   5.335  0.6768 -0.1981 -0.1244
11702SOL    HW246761   5.095   4.254   5.381  0.4165 -0.0224  0.2814
11703SOL     OW46762   0.838   6.156   5.733  0.2662  0.0224  0.2416
11703SOL    HW146763   0.843   6.171   5.634  1.0519 -0.1033  0.2644
11703SOL    HW246764   0.747   6.184   5.766  0.6214  1.7914 -0.2217
11704SOL     OW46765   0.837   7.507   7.915 -0.0867 -0.2683  0.5247
11704SOL    HW146766   0.791   7.429   7.874 -0.2234 -0.3189  0.7776
11704SOL    HW246767   0.834   7.584   7.851  0.4263 -0.5951  0.0945
11705SOL     OW46768   3.896   3.945   2.456 -0.0610 -0.5253  0.4890
11705SOL    HW146769   3.961   3.915   2.386 -0.3378 -1.6062  0.6934
11705SOL    HW246770   3.873   3.869   2.516  1.0282  0.6593  2.4670
11706SOL     OW46771   3.317   3.405   1.436 -0.0264 -0.3669 -1.0718
11706SOL    HW146772   3.289   3.487   1.487 -1.6335 -1.4878 -0.1056
11706SOL    HW246773   3.367   3.344   1.497  3.0301  0.7944 -2.3236
11707SOL     OW46774   9.074   7.119   7.570  0.5264  0.1227  0.1174
11707SOL    HW146775   9.044   7.033   7.610  2.2541 -0.5178  0.0698
11707SOL    HW246776   9.018   7.140   7.489  0.3142 -1.0984 -0.0576
11708SOL     OW46777   4.434   8.662   1.400 -0.0963  0.1859  0.0508
11708SOL    HW146778   4.501   8.731   1.372  0.0797  0.1246  0.3218
11708SOL    HW246779   4.422   8.595   1.327 -0.1668  0.4269 -0.1606
11709SOL     OW46780   8.124   2.500   0.227  0.1088 -0.6190  0.1996
11709SOL    HW146781   8.058   2.573   0.210  1.2017  0.4042  0.2550
11709SOL    HW246782   8.079   2.425   0.275 -1.2953 -0.4569 -0.8448
11710SOL     OW46783   8.444   3.761   6.923 -0.3460  0.2246  0.5160
11710SOL    HW146784   8.436   3.724   7.016 -1.2323  1.7317  1.0592
11710SOL    HW246785   8.356   3.798   6.895  0.7595  2.8712  0.4232
11711SOL     OW46786   7.783   5.192   7.841  0.1830  0.2640  0.1461
11711SOL    HW146787   7.848   5.190   7.766  0.0760  0.6881  0.0382
11711SOL    HW246788   7.738   5.282   7.844 -0.2592  0.0411  0.3325
11712SOL     OW46789   4.435   0.693   4.046  0.0076  0.5638 -0.1695
11712SOL    HW146790   4.425   0.594   4.035  1.7123  0.4608 -0.8970
11712SOL    HW246791   4.369   0.740   3.987 -0.8716 -0.1202  0.2521
11713SOL     OW46792   0.635   3.798   1.234  0.1901  0.5020 -0.1247
11713SOL    HW146793   0.730   3.770   1.219  0.0595  0.0885 -0.1950
11713SOL    HW246794   0.615   3.796   1.332 -0.4666 -1.8347 -0.2730
11714SOL     OW46795   2.682   1.405   2.688  0.2270  0.0871 -0.4706
11714SOL    HW146796   2.694   1.464   2.608  1.1763  0.7234  0.1328
11714SOL    HW246797   2.645   1.458   2.764 -1.8854 -0.7948 -0.8432
11715SOL     OW46798   7.259   6.337   7.203 -0.3012  0.6366  0.5395
11715SOL    HW146799   7.183   6.400   7.218 -0.4729  0.0994  2.0082
11715SOL    HW246800   7.321   6.340   7.281  0.0522 -0.4958  0.3147
11716SOL     OW46801   4.865   4.326   0.630 -0.6375  0.4054  0.0890
11716SOL    HW146802   4.839   4.265   0.555 -0.4512  0.3450  0.0722
11716SOL    HW246803   4.797   4.321   0.702  0.9694 -2.3188  1.5391
11717SOL     OW46804   9.937   4.694   8.008  0.0669 -0.6423  0.1653
11717SOL    HW146805  10.025   4.740   8.000  0.1769 -0.9139 -0.1667
11717SOL    HW246806   9.919   4.641   7.925 -0.0205 -1.2669  0.5842
11718SOL     OW46807   9.586   2.370   7.892  0.4336 -0.0007  0.7494
11718SOL    HW146808   9.525   2.291   7.891 -0.9225  1.0469 -1.4092
11718SOL    HW246809   9.668   2.348   7.944 -0.1258 -2.6798  0.5429
11719SOL     OW46810   0.864   1.560   1.736 -0.1418  0.0520 -0.2647
11719SOL    HW146811   0.927   1.542   1.811  1.7786  0.9819 -1.6257
11719SOL    HW246812   0.875   1.654   1.705 -2.1355  0.1977 -0.6074
11720SOL     OW46813   0.521   0.074   7.111  0.7473  0.0598  0.2767
11720SOL    HW146814   0.465   0.066   7.028  0.1743 -3.5574  0.9512
11720SOL    HW246815   0.509   0.165   7.150 -3.0824  0.0847 -0.7343
11721SOL     OW46816   7.319   6.796   6.174  0.1733 -0.0722 -0.2929
11721SOL    HW146817   7.244   6.845   6.130  0.6993 -0.1343 -1.2789
11721SOL    HW246818   7.371   6.746   6.104 -0.3582 -2.0369  0.6792
11722SOL     OW46819   0.831   8.120   1.762  0.1556 -0.0724  0.3048
11722SOL    HW146820   0.875   8.044   1.714 -0.2494 -2.0361  2.9011
11722SOL    HW246821   0.743   8.141   1.720  0.1983 -1.1635 -0.3312
11723SOL     OW46822   2.115   1.312   6.432 -0.3163  0.7545  0.1841
11723SOL    HW146823   2.178   1.252   6.482 -1.2588 -0.1976  0.2491
11723SOL    HW246824   2.023   1.303   6.471 -1.0121  0.1834 -1.5749
11724SOL     OW46825   4.405   3.107   7.214 -0.3887  0.4050 -0.3831
11724SOL    HW146826   4.468   3.167   7.264 -0.9930  0.3700  0.4317
11724SOL    HW246827   4.324   3.091   7.270 -0.3932 -0.8788 -0.7503
11725SOL     OW46828   3.348   4.825   6.984  0.0738 -0.1172  0.0620
11725SOL    HW146829   3.312   4.881   6.910  0.2018  1.2538  1.0353
11725SOL    HW246830   3.448   4.836   6.990 -0.0733  0.6804  1.1779
11726SOL     OW46831   9.566   6.335   4.212  0.3504  0.0964 -0.0892
11726SOL    HW146832   9.649   6.315   4.264  0.7583  1.6100 -0.1242
11726SOL    HW246833   9.589   6.392   4.134 -0.7089  0.4379 -0.1595
11727SOL     OW46834   0.444   9.432   2.271  0.0008 -0.3151  0.0940
11727SOL    HW146835   0.416   9.452   2.177  1.0447 -0.4363 -0.2524
11727SOL    HW246836   0.443   9.333   2.286  1.4847 -0.3996 -0.3226
11728SOL     OW46837   9.362   3.490   6.917 -0.5683 -0.3991  0.2176
11728SOL    HW146838   9.300   3.411   6.920 -1.5329  0.2194 -2.1598
11728SOL    HW246839   9.446   3.468   6.967 -1.3934 -2.4077  0.7836
11729SOL     OW46840   2.163   0.352   6.368  0.7543 -0.1723  0.1354
11729SOL    HW146841   2.191   0.324   6.276  0.3042  2.3897 -0.8311
11729SOL    HW246842   2.192   0.283   6.434  1.8929 -1.6195 -1.8069
11730SOL     OW46843   0.041   6.709   4.458  0.6800 -0.5850 -0.3271
11730SOL    HW146844  -0.049   6.753   4.458  1.5665  1.2928  0.5175
11730SOL    HW246845   0.065   6.684   4.552  1.4352 -0.2300 -0.4252
11731SOL     OW46846   5.719   9.089   2.594  0.4518 -0.1170  0.5182
11731SOL    HW146847   5.634   9.046   2.624  0.3525 -0.7156 -0.5770
11731SOL    HW246848   5.710   9.119   2.499  0.7806  1.6642  1.0171
11732SOL     OW46849   6.463   1.041   2.044 -0.8475 -0.5269 -0.0131
11732SOL    HW146850   6.380   1.097   2.033 -2.1418 -2.2328  0.8302
11732SOL    HW246851   6.490   1.004   1.955  1.0478  2.7963 -0.8998
11733SOL     OW46852   8.622   0.546   5.309  0.1951  0.1072  0.5790
11733SOL    HW146853   8.618   0.583   5.216  1.8180 -0.3430  0.3281
11733SOL    HW246854   8.641   0.620   5.373 -1.2090  0.4680  0.6014
11734SOL     OW46855   0.382   7.734   1.601  0.1151  0.1386  0.0114
11734SOL    HW146856   0.368   7.769   1.694 -1.3639 -1.6022  0.4660
11734SOL    HW246857   0.294   7.710   1.560  1.0521 -3.2051 -0.1912
11735SOL     OW46858   9.636   6.602   3.651  0.4203 -0.1224 -0.0839
11735SOL    HW146859   9.564   6.621   3.583  1.2713  0.2314 -0.8939
11735SOL    HW246860   9.700   6.536   3.613  0.9776  0.1797  0.3357
11736SOL     OW46861   8.884   4.030   1.780  0.1733 -0.1773  0.1552
11736SOL    HW146862   8.955   4.037   1.850  0.5987  1.3126 -0.3993
11736SOL    HW246863   8.927   4.024   1.690 -0.3985  0.3629 -0.1563
11737SOL     OW46864   7.157   8.893   2.916  0.4638 -0.2871 -0.2481
11737SOL    HW146865   7.075   8.926   2.870 -0.9214  1.2989  3.1499
11737SOL    HW246866   7.231   8.958   2.903 -0.0796  0.4304  0.2376
11738SOL     OW46867   1.888   0.393   4.168  0.2929  0.0966 -0.0197
11738SOL    HW146868   1.959   0.330   4.135 -1.4091 -1.8797  0.0342
11738SOL    HW246869   1.915   0.428   4.258  1.4145 -0.2895 -0.1918
11739SOL     OW46870   8.218   6.399   8.067 -0.2435  0.1777 -0.0847
11739SOL    HW146871   8.205   6.302   8.047  2.0659 -0.2740  0.5011
11739SOL    HW246872   8.284   6.410   8.141 -0.7753  2.1977  0.1370
11740SOL     OW46873   0.426   1.636   2.760 -0.2639 -0.3938  0.3621
11740SOL    HW146874   0.364   1.703   2.719  0.2991 -0.0739  0.0100
11740SOL    HW246875   0.429   1.554   2.703 -1.0535 -0.7719  0.8625
11741SOL     OW46876   3.420   9.200   2.262 -0.2003 -0.2526 -0.0525
11741SOL    HW146877   3.406   9.286   2.212  1.6896  0.4550  0.5712
11741SOL    HW246878   3.453   9.130   2.200 -0.7067 -0.2199 -0.3595
11742SOL     OW46879   0.101   6.153   0.172 -0.6498 -0.7465  0.4294
11742SOL    HW146880   0.003   6.166   0.188 -0.7320 -1.8789  0.9248
11742SOL    HW246881   0.120   6.055   0.166  0.2085 -0.4930 -1.2672
11743SOL     OW46882   1.384   1.290   6.542  0.2429  0.0390 -0.4557
11743SOL    HW146883   1.415   1.355   6.472  0.4436 -0.7585 -1.1141
11743SOL    HW246884   1.345   1.209   6.497 -0.5404 -0.0414  0.3613
11744SOL     OW46885   6.571   5.765   1.746 -0.5901 -0.3241 -0.3729
11744SOL    HW146886   6.493   5.815   1.784 -1.1300 -0.7847 -0.8517
11744SOL    HW246887   6.649   5.826   1.735 -0.7206  0.0252  0.6058
11745SOL     OW46888   1.033   4.055   4.446 -0.3322  0.2910 -0.2491
11745SOL    HW146889   1.088   4.054   4.362  0.5473  1.7322  0.2723
11745SOL    HW246890   1.092   4.078   4.524 -1.4385  0.5763  0.5176
11746SOL     OW46891   0.813   6.830   1.134  0.0439 -0.5887 -0.4733
11746SOL    HW146892   0.894   6.775   1.114  0.0505 -0.0260 -2.0987
11746SOL    HW246893   0.825   6.878   1.221  0.9176 -1.4899 -0.0916
11747SOL     OW46894   0.040   9.771   4.207  0.0526  0.0643  0.0399
11747SOL    HW146895  -0.027   9.762   4.281  0.4950 -1.2214  0.3085
11747SOL    HW246896   0.001   9.736   4.122  1.3793 -3.6241  0.8389
11748SOL     OW46897   5.051   1.910   3.715 -0.1284 -0.1902  0.8662
11748SOL    HW146898   5.134   1.857   3.695  0.1761  0.3061  0.7841
11748SOL    HW246899   4.996   1.862   3.782 -0.1720 -0.9203  0.3154
11749SOL     OW46900   9.823   1.915   6.227 -0.0157 -0.1562  0.2996
11749SOL    HW146901   9.842   1.989   6.162 -0.5182 -1.5485 -1.4941
11749SOL    HW246902   9.856   1.828   6.188 -0.8337 -1.1017  1.6814
11750SOL     OW46903   9.035   7.567   4.932  0.6815  0.0340  0.1371
11750SOL    HW146904   8.990   7.492   4.981  0.3637  0.9787  1.3036
11750SOL    HW246905   9.022   7.652   4.982  3.9005  0.3152  0.5602
11751SOL     OW46906   2.029   1.457   4.364  0.2082 -0.2229 -0.2125
11751SOL    HW146907   2.072   1.544   4.338 -0.5520 -0.0155 -0.7833
11751SOL    HW246908   2.053   1.435   4.459  1.2132  0.1099 -0.3923
11752SOL     OW46909   3.377   0.386   2.100 -0.8564  0.2748 -0.5237
11752SOL    HW146910   3.309   0.316   2.079 -0.5664 -0.2176  0.1799
11752SOL    HW246911   3.460   0.368   2.048 -0.8463  0.1971 -0.4814
11753SOL     OW46912   7.137   5.071   7.648  0.2058 -0.3213 -0.2192
11753SOL    HW146913   7.073   5.128   7.700 -0.4545 -0.2195 -1.1291
11753SOL    HW246914   7.089   4.992   7.611  0.3867  0.2227 -1.6611
11754SOL     OW46915   0.438   4.793   4.039  0.7116 -0.1541  0.1572
11754SOL    HW146916   0.444   4.842   3.952 -0.8775  0.7455  0.5509
11754SOL    HW246917   0.531   4.767   4.069  1.3511  0.4575 -1.2585
11755SOL     OW46918   1.478   0.200   1.868 -0.3417 -0.1759 -0.3877
11755SOL    HW146919   1.488   0.246   1.957  0.8329  0.6891 -0.9491
11755SOL    HW246920   1.559   0.143   1.852 -0.9258 -0.9633 -0.5453
11756SOL     OW46921   7.995   9.305   6.818  0.1258 -0.0960  0.3268
11756SOL    HW146922   7.982   9.387   6.762  0.9883 -0.9550 -1.1602
11756SOL    HW246923   7.907   9.259   6.830 -0.0503  0.0548 -0.3685
11757SOL     OW46924   2.450   8.423   7.909  0.3252 -0.1214 -0.6049
11757SOL    HW146925   2.450   8.509   7.858  0.1327 -0.9261 -1.9829
11757SOL    HW246926   2.532   8.371   7.885 -0.0436 -0.7454 -0.5070
11758SOL     OW46927   1.349   4.379   7.717 -0.2329 -0.2147  0.2301
11758SOL    HW146928   1.279   4.308   7.716 -0.7276  0.2401  1.4556
11758SOL    HW246929   1.317   4.458   7.665 -0.7696  0.1102  1.0441
11759SOL     OW46930   1.138   4.899   2.470  0.6114 -0.2079 -0.0519
11759SOL    HW146931   1.182   4.873   2.384  0.5404 -0.0557 -0.1345
11759SOL    HW246932   1.095   4.818   2.511  2.6641 -0.7823  1.0348
11760SOL     OW46933   9.718   0.152   7.455  0.6621  0.3320  0.0012
11760SOL    HW146934   9.782   0.077   7.476  1.0035  1.0927  1.7764
11760SOL    HW246935   9.667   0.175   7.537 -0.6685  0.9145 -0.9819
11761SOL     OW46936   0.865   7.736   7.584  0.4517  0.2879 -0.2312
11761SOL    HW146937   0.839   7.781   7.499  0.3302  1.4006  0.3833
11761SOL    HW246938   0.782   7.712   7.635  0.4888 -1.4595 -0.9690
11762SOL     OW46939   2.974   3.778   4.694 -0.0540  0.8359  0.3089
11762SOL    HW146940   2.879   3.811   4.700  0.5093  2.3362  1.2414
11762SOL    HW246941   3.033   3.836   4.750  1.1027 -1.3379  1.3950
11763SOL     OW46942   8.135   0.054   5.879  0.5696 -0.4860 -0.1538
11763SOL    HW146943   8.222   0.042   5.832  1.6160  0.5701  1.4598
11763SOL    HW246944   8.119  -0.024   5.940  1.1778  0.0733  0.7391
11764SOL     OW46945   7.277   1.207   3.518  0.6759  0.4387 -0.1207
11764SOL    HW146946   7.291   1.119   3.564 -3.1045 -1.6128 -2.6746
11764SOL    HW246947   7.218   1.265   3.574  1.7440  0.7255  0.7426
11765SOL     OW46948   8.719   8.113   2.611 -0.0622 -0.2953  0.8360
11765SOL    HW146949   8.757   8.168   2.536 -0.8752 -0.4126  0.3390
11765SOL    HW246950   8.794   8.077   2.667  0.5377  0.0090  0.2324
11766SOL     OW46951   2.287   3.979   1.237  0.0521 -0.3551  0.0897
11766SOL    HW146952   2.379   3.990   1.198  0.5757 -0.6255  1.2263
11766SOL    HW246953   2.220   3.975   1.164  0.9989 -0.6193 -0.7736
11767SOL     OW46954   9.623   4.070   8.186  0.0581  0.4656  0.1087
11767SOL    HW146955   9.717   4.081   8.154  0.4968 -2.6440  0.2172
11767SOL    HW246956   9.620   4.002   8.259 -2.2412  0.7911  0.3587
11768SOL     OW46957   1.991   8.129   4.619 -0.0564 -0.0491 -0.5900
11768SOL    HW146958   2.011   8.188   4.542  0.9552  0.1617 -0.1694
11768SOL    HW246959   2.076   8.100   4.663 -0.6830  2.8249  2.7127
11769SOL     OW46960   9.093   3.280   1.051  0.7153 -0.2666  0.1048
11769SOL    HW146961   9.167   3.302   0.988  0.4528 -1.8213 -0.7559
11769SOL    HW246962   9.112   3.192   1.096 -0.3185 -0.3783  0.3314
11770SOL     OW46963   9.707   1.558   7.139  0.4303  0.0694  0.1093
11770SOL    HW146964   9.688   1.654   7.159 -0.3487 -0.6202  2.9772
11770SOL    HW246965   9.655   1.530   7.059  1.2026  2.2033 -1.1798
11771SOL     OW46966   7.685   2.105   7.892  0.5616  0.5937  0.5944
11771SOL    HW146967   7.758   2.040   7.912  0.2779 -0.0083 -0.2896
11771SOL    HW246968   7.597   2.056   7.892  0.4435  0.7680 -1.0311
11772SOL     OW46969   0.347   4.723   5.636 -0.4404  0.1530 -0.0680
11772SOL    HW146970   0.444   4.749   5.641 -0.9428  1.9179  0.7679
11772SOL    HW246971   0.308   4.721   5.728 -0.6540 -2.7987 -0.1762
11773SOL     OW46972   0.538   2.311   1.677  0.2095  0.5182 -0.1664
11773SOL    HW146973   0.455   2.351   1.639 -0.6117 -1.3501 -0.3499
11773SOL    HW246974   0.515   2.241   1.744  1.6515  1.0750  0.9734
11774SOL     OW46975   8.163   1.952   2.361 -0.4028 -0.6486  0.3599
11774SOL    HW146976   8.122   1.862   2.377 -0.8201 -0.2958  1.3439
11774SOL    HW246977   8.238   1.967   2.426  1.3304 -1.2974 -1.4526
11775SOL     OW46978   4.782   1.659   6.220 -0.6336  0.1591 -0.4697
11775SOL    HW146979   4.719   1.647   6.297  1.5192 -1.9666  1.0151
11775SOL    HW246980   4.874   1.675   6.254 -0.0625  1.5638 -2.6298
11776SOL     OW46981   2.357   2.960   5.437 -0.1405  0.8580 -0.5662
11776SOL    HW146982   2.299   2.879   5.432 -1.3400  1.3160  3.9828
11776SOL    HW246983   2.442   2.937   5.485  0.5980  1.7646 -1.4108
11777SOL     OW46984   8.136   2.300   2.573  0.0963  0.2522  0.0818
11777SOL    HW146985   8.070   2.285   2.500  1.6134 -0.9850 -1.0850
11777SOL    HW246986   8.125   2.230   2.644  0.4401 -0.2259 -0.3343
11778SOL     OW46987   0.593   8.907   7.452 -0.5729  0.2948  0.0919
11778SOL    HW146988   0.540   8.940   7.531 -0.6308 -0.1270  0.2300
11778SOL    HW246989   0.685   8.945   7.456 -0.4886  0.0567  0.5182
11779SOL     OW46990   2.739   7.759   5.469  0.0767  0.5933 -0.1446
11779SOL    HW146991   2.714   7.784   5.563 -0.1303  0.3225 -0.1250
11779SOL    HW246992   2.669   7.699   5.431  0.5427  0.0713 -0.1957
11780SOL     OW46993   0.057   2.271   7.518  0.1690 -0.0576  0.1420
11780SOL    HW146994   0.094   2.232   7.434  1.0879  0.7364  0.1627
11780SOL    HW246995  -0.002   2.204   7.563 -0.2785 -0.5219 -1.0900
11781SOL     OW46996   7.040   2.076   6.134  0.0906  0.5639 -0.8452
11781SOL    HW146997   7.123   2.116   6.095  0.1541  0.3944 -0.8838
11781SOL    HW246998   6.996   2.143   6.194 -0.3722  1.0847 -1.7394
11782SOL     OW46999   1.864   8.492   0.295  0.1357 -0.1085  0.3405
11782SOL    HW147000   1.808   8.413   0.323 -0.4903  0.2422  0.0911
11782SOL    HW247001   1.830   8.527   0.208  1.3327 -0.4622 -0.2845
11783SOL     OW47002   1.450   9.164   3.932  0.1584 -0.0129 -0.2985
11783SOL    HW147003   1.370   9.118   3.893  0.7921 -0.8106 -0.6821
11783SOL    HW247004   1.455   9.145   4.030 -0.6789  0.8702 -0.0792
11784SOL     OW47005   8.153   9.079   4.978  0.2262  0.3011  0.3521
11784SOL    HW147006   8.136   9.159   5.035  0.1517  0.0826  0.6395
11784SOL    HW247007   8.178   9.001   5.036 -0.6919 -0.1451  0.1579
11785SOL     OW47008   9.664   0.337   2.303 -0.2561 -0.7100  0.2762
11785SOL    HW147009   9.679   0.362   2.399  0.9031  1.7613 -0.5122
11785SOL    HW247010   9.577   0.377   2.273  0.7872  1.0172 -0.5084
11786SOL     OW47011   7.580   1.145   2.529  0.5544  0.2733 -0.0654
11786SOL    HW147012   7.506   1.089   2.494 -0.3665  2.9511 -2.6108
11786SOL    HW247013   7.560   1.171   2.624 -0.7132 -0.7161 -0.0476
11787SOL     OW47014   8.147   8.791   5.562  0.1836  0.0850  0.0094
11787SOL    HW147015   8.156   8.743   5.475  1.0993  1.3438 -0.6177
11787SOL    HW247016   8.213   8.754   5.628  1.2992  0.8441 -0.6534
11788SOL     OW47017   8.712   9.213   8.053  0.6135  0.1326  1.0243
11788SOL    HW147018   8.655   9.275   8.107 -1.0192 -2.6990  2.6643
11788SOL    HW247019   8.747   9.140   8.112 -0.6989 -2.7029 -1.5608
11789SOL     OW47020   3.038   6.012   5.819  0.0756  0.4715  0.0505
11789SOL    HW147021   3.024   5.983   5.914 -1.1343  1.2498  0.1308
11789SOL    HW247022   3.119   5.967   5.782 -0.1277 -0.7778  1.0626
11790SOL     OW47023   0.170   5.797   8.177  0.2696  0.3984  0.3753
11790SOL    HW147024   0.096   5.739   8.144 -0.8625  0.7274  2.2690
11790SOL    HW247025   0.182   5.875   8.115 -1.3252  0.6372  0.3596
11791SOL     OW47026   1.888   2.104   4.333 -0.1488 -0.4598 -0.2412
11791SOL    HW147027   1.868   2.092   4.236  0.5186 -1.6854 -0.2401
11791SOL    HW247028   1.984   2.080   4.350 -0.4193 -0.7891  0.8157
11792SOL     OW47029   0.595   5.888   2.566  0.3104  0.0550 -0.1403
11792SOL    HW147030   0.543   5.857   2.646  0.6499 -0.3952 -0.0962
11792SOL    HW247031   0.656   5.815   2.536 -0.6171 -0.1811 -1.4807
11793SOL     OW47032   4.551   4.397   0.468  0.4060  0.1513  0.3729
11793SOL    HW147033   4.547   4.443   0.556  2.3135 -0.8836  1.0301
11793SOL    HW247034   4.630   4.429   0.417  0.3767 -0.6155 -0.1665
11794SOL     OW47035   3.856   4.910   0.926 -0.7320  0.1152  0.1898
11794SOL    HW147036   3.778   4.887   0.983  1.1334  0.0914  2.8437
11794SOL    HW247037   3.918   4.831   0.922  1.1509  1.4830  1.5743
11795SOL     OW47038   3.365   3.440   3.413 -0.2096 -0.2357 -0.1776
11795SOL    HW147039   3.428   3.379   3.460 -2.1880 -0.9660  1.5994
11795SOL    HW247040   3.332   3.510   3.477 -1.8727 -0.4107 -0.8089
11796SOL     OW47041   2.130   6.013   7.885  0.8137 -0.4634 -0.5804
11796SOL    HW147042   2.189   5.934   7.902 -0.7390 -1.6614 -0.6271
11796SOL    HW247043   2.100   6.052   7.972  1.7312  0.2145 -0.5556
11797SOL     OW47044   4.173   8.456   5.997  0.4573 -0.0527 -0.0089
11797SOL    HW147045   4.169   8.365   5.957  1.9302 -0.4329  0.6886
11797SOL    HW247046   4.261   8.499   5.975 -0.0871  1.0741 -0.0481
11798SOL     OW47047   5.882   3.464   1.933  0.4137  0.4738  0.1983
11798SOL    HW147048   5.923   3.429   2.018  0.0021  1.7171  0.9273
11798SOL    HW247049   5.783   3.455   1.937  0.5685 -2.6442 -1.6209
11799SOL     OW47050   0.755   0.153   5.597 -0.0330  0.3796 -0.1833
11799SOL    HW147051   0.674   0.173   5.653 -1.2567 -1.7698 -1.0846
11799SOL    HW247052   0.725   0.119   5.507  1.8931  1.0999 -1.1158
11800SOL     OW47053   1.877   3.165   0.796  0.5957  0.2615  0.1060
11800SOL    HW147054   1.909   3.260   0.797  0.5547  0.2916 -0.9595
11800SOL    HW247055   1.827   3.146   0.880 -1.0212  1.7456 -0.4779
11801SOL     OW47056   0.199   5.904   7.100 -0.0439 -0.6164 -0.2272
11801SOL    HW147057   0.124   5.968   7.081 -0.5275 -1.5660 -1.6443
11801SOL    HW247058   0.238   5.873   7.014  0.5032 -1.8550  0.4567
11802SOL     OW47059   9.205   7.575   2.817 -1.0984 -0.7495  0.2684
11802SOL    HW147060   9.157   7.568   2.730  1.6413 -1.7023 -1.2220
11802SOL    HW247061   9.244   7.486   2.841 -0.8111 -0.2129  1.8872
11803SOL     OW47062   3.089   5.801   4.577  0.0071  0.2686 -0.2717
11803SOL    HW147063   3.188   5.802   4.594 -0.2814 -0.8965  1.6479
11803SOL    HW247064   3.058   5.707   4.566 -1.2449  0.4608  1.4548
11804SOL     OW47065   2.734   4.275   3.712  0.6045  0.0464  0.0573
11804SOL    HW147066   2.700   4.232   3.628  0.3455  0.5224 -0.0872
11804SOL    HW247067   2.739   4.374   3.698 -0.6030  0.2568  0.9993
11805SOL     OW47068   5.305   8.346   3.444  0.6185 -0.3402  0.2752
11805SOL    HW147069   5.264   8.437   3.447  0.8483 -0.2500  0.6996
11805SOL    HW247070   5.275   8.299   3.361 -0.9964 -0.5938  0.9967
11806SOL     OW47071   1.246   8.421   7.934 -0.1758  0.0493 -0.0764
11806SOL    HW147072   1.249   8.503   7.992  1.1521 -0.1388  0.1385
11806SOL    HW247073   1.224   8.341   7.990 -1.5825  0.2708 -0.3059
11807SOL     OW47074   0.157   8.524   0.119 -0.1367 -0.1238  0.4027
11807SOL    HW147075   0.187   8.457   0.187 -0.5624  0.5161  1.2258
11807SOL    HW247076   0.213   8.607   0.127 -0.4632  0.1151  0.2572
11808SOL     OW47077   3.663   5.209   3.550  0.1368 -0.3190 -0.0783
11808SOL    HW147078   3.582   5.169   3.594  0.0535 -1.3815 -1.1775
11808SOL    HW247079   3.742   5.199   3.610 -0.6486  1.2503  1.2643
11809SOL     OW47080   9.064   2.652   3.429 -0.3651  0.7378 -0.1657
11809SOL    HW147081   9.017   2.668   3.342 -0.5616  2.1512  0.1861
11809SOL    HW247082   9.155   2.694   3.426 -0.9634  2.1587  0.8496
11810SOL     OW47083   0.997   4.714   5.253  0.1511 -0.1072  0.3807
11810SOL    HW147084   0.935   4.648   5.211 -0.7557  2.1236 -1.9002
11810SOL    HW247085   0.945   4.783   5.302  1.1041 -1.0707  2.8628
11811SOL     OW47086   9.606   4.367   4.965 -0.4282 -0.3979  0.2116
11811SOL    HW147087   9.652   4.363   4.876 -2.1486 -0.6152 -0.6892
11811SOL    HW247088   9.578   4.461   4.984  0.9363 -0.1546  1.0516
11812SOL     OW47089   7.593   0.358   5.987 -0.1699  0.6630 -0.4157
11812SOL    HW147090   7.682   0.324   6.018 -0.4003 -0.1389 -0.6201
11812SOL    HW247091   7.602   0.399   5.897 -0.1965 -0.3437 -0.8822
11813SOL     OW47092   0.911   4.836   3.841 -0.0258 -0.1135  0.0737
11813SOL    HW147093   0.962   4.884   3.770  0.4423 -1.4573 -0.4949
11813SOL    HW247094   0.930   4.738   3.837 -0.9929 -0.3670  1.2240
11814SOL     OW47095   0.829   9.096   8.055  0.2690 -0.0268 -0.1587
11814SOL    HW147096   0.804   9.129   8.146 -0.9063 -0.9717 -0.1216
11814SOL    HW247097   0.867   9.003   8.063 -1.5520 -0.8599 -0.7928
11815SOL     OW47098   8.802   5.658   4.385  0.2923  0.1929  0.1687
11815SOL    HW147099   8.771   5.699   4.299 -0.4415  0.1677  0.4232
11815SOL    HW247100   8.798   5.558   4.377  0.0510  0.1931  0.3006
11816SOL     OW47101   5.428   9.129   7.619  0.3822  0.4958  0.2783
11816SOL    HW147102   5.413   9.154   7.714  0.6025 -1.8270  0.9682
11816SOL    HW247103   5.349   9.077   7.585  1.1496 -0.4151 -0.1579
11817SOL     OW47104   5.485   7.232   1.638 -0.7226  0.0626 -0.5653
11817SOL    HW147105   5.435   7.157   1.680 -1.3571  1.1914  0.7270
11817SOL    HW247106   5.437   7.318   1.655  0.4371  0.8694 -1.3007
11818SOL     OW47107   4.329   1.009   5.354  0.0861 -0.8552  0.2077
11818SOL    HW147108   4.349   1.100   5.390 -0.9120 -0.8304  0.7312
11818SOL    HW247109   4.245   1.012   5.301  0.2386 -1.3989 -0.0629
11819SOL     OW47110   7.534   3.361   5.531  0.1660 -0.2643  0.6982
11819SOL    HW147111   7.596   3.434   5.561 -0.1432 -0.1310  1.0141
11819SOL    HW247112   7.564   3.328   5.441 -1.4113  2.2940 -0.8261
11820SOL     OW47113   8.911   4.013   4.445  0.0454 -0.0642  0.2197
11820SOL    HW147114   8.922   3.925   4.399  1.2702 -0.3560  1.0568
11820SOL    HW247115   8.824   4.054   4.417  0.0819 -0.9137 -1.2019
11821SOL     OW47116   3.090   2.210   6.836 -0.3329 -0.1694 -0.0302
11821SOL    HW147117   2.996   2.215   6.804 -0.1192 -0.7236 -0.7780
11821SOL    HW247118   3.098   2.253   6.926 -1.1976  0.3077 -0.1812
11822SOL     OW47119   2.817   9.973   1.217  0.1583 -0.3485  0.2214
11822SOL    HW147120   2.761  10.001   1.295  2.9121 -0.4315  2.3156
11822SOL    HW247121   2.794   9.879   1.192 -0.8104 -0.2985  0.8841
11823SOL     OW47122   1.071   0.416   1.445 -0.5903 -0.0084 -0.5558
11823SOL    HW147123   0.979   0.390   1.474 -0.6167  1.5349  0.7886
11823SOL    HW247124   1.132   0.419   1.524  0.6430 -1.0571 -1.4432
11824SOL     OW47125   0.341   3.943   0.417  0.0317 -0.3443  0.1713
11824SOL    HW147126   0.412   3.873   0.406  0.1654 -0.2942  0.6934
11824SOL    HW247127   0.338   3.972   0.513 -0.9189 -0.5759  0.2176
11825SOL     OW47128   9.307   0.151   3.655 -0.5207  0.1056  0.1927
11825SOL    HW147129   9.382   0.097   3.692  1.2758  1.2843 -1.6754
11825SOL    HW247130   9.274   0.215   3.725  0.1387 -0.4542  1.0316
11826SOL     OW47131   6.813   0.146   5.619 -0.4122  0.4671  0.0060
11826SOL    HW147132   6.816   0.089   5.537  0.3148  0.1933  0.2274
11826SOL    HW247133   6.899   0.138   5.669 -1.4694 -0.7073  1.7042
11827SOL     OW47134   2.942   1.738   2.640 -0.0250 -0.2501  0.1090
11827SOL    HW147135   2.934   1.674   2.716 -3.3855  1.6695  1.4906
11827SOL    HW247136   3.021   1.798   2.654  0.4035 -1.0510  1.1564
11828SOL     OW47137   7.434   8.690   3.030 -0.3030 -0.4253 -0.0972
11828SOL    HW147138   7.365   8.621   3.005 -0.2844 -0.2856 -0.5465
11828SOL    HW247139   7.428   8.709   3.128 -2.0739  0.8707 -0.4260
11829SOL     OW47140   0.839   9.056   7.111 -0.2190  0.2188  0.1730
11829SOL    HW147141   0.840   9.121   7.035 -0.8998  0.9410  0.7725
11829SOL    HW247142   0.827   8.963   7.075  0.8877  0.4040 -0.6957
11830SOL     OW47143   7.675   6.096   3.463  0.1177 -0.1295  0.2094
11830SOL    HW147144   7.714   6.040   3.390 -1.7217 -0.8989 -0.2074
11830SOL    HW247145   7.678   6.045   3.549  0.2524 -0.0849  0.2318
11831SOL     OW47146   6.671   0.563   4.909 -0.0994 -0.3734  0.2094
11831SOL    HW147147   6.755   0.511   4.896  0.2297  0.1585  0.1730
11831SOL    HW247148   6.613   0.554   4.828  1.2255  1.6214 -1.0030
11832SOL     OW47149   9.815   3.437   6.030 -0.0861 -0.2102  0.0923
11832SOL    HW147150   9.786   3.463   6.122 -1.2081 -0.5546 -0.1537
11832SOL    HW247151   9.915   3.438   6.024 -0.0448  2.5148  0.5332
11833SOL     OW47152   3.599   3.652   7.030  0.4222  0.1069  0.0901
11833SOL    HW147153   3.528   3.681   6.966  0.3675  0.3353  0.2509
11833SOL    HW247154   3.681   3.627   6.980  0.3974  0.3383 -0.0674
11834SOL     OW47155   0.559   3.020   7.261  0.0463  0.0575  0.7499
11834SOL    HW147156   0.643   3.010   7.207  0.5178 -0.5716  1.5893
11834SOL    HW247157   0.490   2.956   7.227  0.1739  0.0084  0.5791
11835SOL     OW47158   1.842   5.991   4.487 -0.2665  0.2942  0.1819
11835SOL    HW147159   1.838   6.054   4.564  0.9232  0.6878 -0.0633
11835SOL    HW247160   1.937   5.978   4.460 -0.7153  0.6900 -1.6507
11836SOL     OW47161   9.531   3.579   2.687 -0.0862 -0.0149  1.0382
11836SOL    HW147162   9.533   3.581   2.787 -1.2022 -1.1275  1.0999
11836SOL    HW247163   9.483   3.659   2.653  2.3203  1.5774  1.2862
11837SOL     OW47164   9.160   0.164   8.091 -0.3286 -0.4797 -0.1350
11837SOL    HW147165   9.179   0.256   8.126 -0.6933 -0.5655  0.2912
11837SOL    HW247166   9.202   0.154   8.001 -0.6624  0.2596 -0.3803
11838SOL     OW47167   2.406   6.274   0.119 -0.0294 -0.7260  0.6386
11838SOL    HW147168   2.365   6.281   0.209 -0.9814 -0.6250  0.2018
11838SOL    HW247169   2.377   6.189   0.074 -0.0066 -0.5098  0.2067
11839SOL     OW47170   2.364   0.887   4.559 -0.8180 -0.0207  0.1940
11839SOL    HW147171   2.424   0.886   4.639 -1.6758  1.3147  0.8698
11839SOL    HW247172   2.271   0.864   4.586 -1.1262  0.4882 -0.4136
11840SOL     OW47173   7.555   6.013   3.053 -0.2013  0.3799  0.3770
11840SOL    HW147174   7.517   5.986   2.964 -0.2588 -2.0748  1.1253
11840SOL    HW247175   7.605   6.100   3.042 -1.3809  0.8394 -1.7449
11841SOL     OW47176   6.237   8.454   5.653 -0.2592  0.4896  0.2138
11841SOL    HW147177   6.243   8.475   5.555  0.9532 -1.1594 -0.0915
11841SOL    HW247178   6.193   8.365   5.665 -1.4181  1.1824  1.2407
11842SOL     OW47179   0.293   9.924   2.503 -0.0284 -0.2697  0.1352
11842SOL    HW147180   0.315  10.010   2.548  1.4983 -0.0399 -1.0246
11842SOL    HW247181   0.208   9.935   2.451  0.8980  0.9655 -1.1529
11843SOL     OW47182   0.204   6.920   5.911  0.1255 -0.1228  0.2187
11843SOL    HW147183   0.221   7.009   5.871 -0.0990  0.0395  0.4805
11843SOL    HW247184   0.162   6.860   5.843  0.2133 -0.0073  0.0638
11844SOL     OW47185   8.878   7.749   0.249 -0.2123  0.2891 -0.5547
11844SOL    HW147186   8.802   7.686   0.264 -2.5996  2.8489 -1.5480
11844SOL    HW247187   8.939   7.748   0.328 -0.5483 -2.7616 -0.2854
11845SOL     OW47188   7.143   6.687   5.246  0.6608 -0.1322  0.0532
11845SOL    HW147189   7.239   6.713   5.242  0.5090  0.2759 -0.9741
11845SOL    HW247190   7.116   6.642   5.161 -0.0160 -0.3791  0.3912
11846SOL     OW47191   6.952   7.559   3.784 -0.1361  0.2090  0.6745
11846SOL    HW147192   6.984   7.625   3.716  0.6635 -0.3226  0.5237
11846SOL    HW247193   7.027   7.536   3.846 -0.2437 -0.9377  0.4031
11847SOL     OW47194   1.694   0.527   7.602  0.4290  0.3925 -0.4027
11847SOL    HW147195   1.610   0.547   7.651  1.0364 -0.5898  1.0855
11847SOL    HW247196   1.773   0.546   7.661  1.1749 -0.8355 -0.9735
11848SOL     OW47197   3.763   7.716   3.882 -0.3331 -0.3739  0.1081
11848SOL    HW147198   3.702   7.758   3.950 -1.5492  0.5547 -1.5181
11848SOL    HW247199   3.828   7.784   3.849 -1.0670 -0.2516 -1.1298
11849SOL     OW47200   9.506   1.579   1.419  0.7006  0.1439  0.2172
11849SOL    HW147201   9.536   1.637   1.495 -0.4103 -0.7106  1.3390
11849SOL    HW247202   9.418   1.613   1.385  0.7293 -0.0535 -0.0511
11850SOL     OW47203   3.067   8.362   3.807  0.2860 -0.0920 -0.5225
11850SOL    HW147204   3.149   8.311   3.832  0.3090  1.3014  2.4601
11850SOL    HW247205   2.989   8.329   3.860  0.0170  2.0224  0.4604
11851SOL     OW47206   4.562   7.405   4.521  0.5021 -0.3039  0.4250
11851SOL    HW147207   4.580   7.358   4.608 -0.4919 -2.3874 -0.4561
11851SOL    HW247208   4.577   7.341   4.445 -2.4858  0.3060 -0.7465
11852SOL     OW47209   1.555   6.960   1.616 -0.4869 -0.0023  0.1854
11852SOL    HW147210   1.494   6.991   1.543 -1.7204 -1.6017  0.5183
11852SOL    HW247211   1.501   6.937   1.697  0.7899  0.9251  1.3402
11853SOL     OW47212   6.837   9.018   6.688  0.5210 -0.4898  0.1406
11853SOL    HW147213   6.858   9.111   6.659  0.4698  0.0437  1.7998
11853SOL    HW247214   6.857   9.007   6.785 -0.5757 -1.8792  0.2349
11854SOL     OW47215   2.268   3.462   0.816 -0.4277 -0.1986 -0.0834
11854SOL    HW147216   2.289   3.370   0.851  0.1720  0.2622  0.8085
11854SOL    HW247217   2.244   3.522   0.893  0.3630  0.6884 -0.5102
11855SOL     OW47218   3.981   5.791   1.699 -0.4747 -0.1988  0.4054
11855SOL    HW147219   3.954   5.779   1.795 -1.0303 -3.3966 -0.1214
11855SOL    HW247220   4.072   5.752   1.685  0.0338  1.1650 -0.1639
11856SOL     OW47221   5.235   5.134   0.327 -0.0752 -0.1089 -0.2324
11856SOL    HW147222   5.197   5.224   0.305 -0.2475  0.1764  1.1551
11856SOL    HW247223   5.187   5.097   0.407 -0.0594 -1.4695 -0.8385
11857SOL     OW47224   7.639   8.367   6.845  0.0850  0.0699 -0.5917
11857SOL    HW147225   7.691   8.347   6.928 -0.2308  0.0454 -0.4006
11857SOL    HW247226   7.567   8.433   6.865 -0.1239 -0.0909 -0.8036
11858SOL     OW47227   8.388   6.072   5.129  0.3936 -0.3067 -0.9937
11858SOL    HW147228   8.318   6.038   5.065  0.8237  0.6599 -1.9858
11858SOL    HW247229   8.343   6.104   5.213 -0.2480 -0.8300 -1.1275
11859SOL     OW47230   3.798   4.667   1.903 -0.5012  0.2233  0.6956
11859SOL    HW147231   3.743   4.606   1.847  3.2225 -1.2982 -1.5308
11859SOL    HW247232   3.806   4.628   1.995  0.6585 -2.0426 -0.2975
11860SOL     OW47233   8.754   5.601   1.485  0.8849  0.6571  0.2135
11860SOL    HW147234   8.817   5.531   1.451  1.0462 -0.4296  2.5972
11860SOL    HW247235   8.800   5.656   1.554 -0.7599 -0.2131  2.0586
11861SOL     OW47236   7.098   0.764   0.834 -0.0546 -0.0703 -0.2265
11861SOL    HW147237   7.195   0.747   0.851 -0.2078 -1.3961 -0.5983
11861SOL    HW247238   7.048   0.678   0.838 -1.4353  0.7770  1.3160
11862SOL     OW47239   1.744   0.492   1.869  0.1281  0.0625  0.6824
11862SOL    HW147240   1.751   0.396   1.843  0.2955 -0.0473  1.1273
11862SOL    HW247241   1.731   0.499   1.967  0.1791  0.4979  0.6590
11863SOL     OW47242   9.458   3.767   1.984  0.1527  0.1203 -0.1668
11863SOL    HW147243   9.444   3.676   2.023  1.2153 -0.3482 -0.8684
11863SOL    HW247244   9.552   3.775   1.951 -0.1383  1.2268 -0.7368
11864SOL     OW47245   4.696   9.868   7.679 -0.5625  0.1851  0.5559
11864SOL    HW147246   4.658   9.912   7.761  1.2221 -0.3552  1.7178
11864SOL    HW247247   4.732   9.778   7.704  0.2870  0.1460 -0.7689
11865SOL     OW47248   8.694   0.559   1.266  0.3877 -0.1358 -0.4649
11865SOL    HW147249   8.609   0.586   1.311 -1.1278 -0.4659 -3.0075
11865SOL    HW247250   8.739   0.639   1.228  1.4700  0.0965  1.2804
11866SOL     OW47251   2.044   8.115   1.841 -0.4803  0.0953 -0.4502
11866SOL    HW147252   2.137   8.099   1.874 -1.4734 -1.1456  1.8562
11866SOL    HW247253   2.026   8.213   1.839  0.0178  0.2490  1.6303
11867SOL     OW47254   2.242   9.927   6.829  0.4667  0.2131 -0.7188
11867SOL    HW147255   2.172   9.998   6.836 -1.6834 -1.9596  1.0055
11867SOL    HW247256   2.324   9.956   6.878 -0.5453  1.3130  0.3650
11868SOL     OW47257   7.389   5.022   0.398  0.0761 -0.0540 -0.5681
11868SOL    HW147258   7.381   5.100   0.335  0.5416  0.3832 -0.0920
11868SOL    HW247259   7.483   4.987   0.395 -0.1154 -0.5614 -0.7333
11869SOL     OW47260   3.251   5.746   2.470  0.0531 -0.1576  0.1551
11869SOL    HW147261   3.310   5.820   2.503 -0.1357  0.2865 -0.4940
11869SOL    HW247262   3.300   5.659   2.475  0.0646 -0.0865  1.4988
11870SOL     OW47263   9.588   3.602   2.959 -0.2863  0.1867 -0.2855
11870SOL    HW147264   9.567   3.534   3.029 -1.9024  0.4299 -0.4955
11870SOL    HW247265   9.678   3.642   2.976 -0.1623 -0.6019  0.9592
11871SOL     OW47266   2.883   3.758   4.121  0.1079  0.2856  0.4796
11871SOL    HW147267   2.864   3.815   4.201 -1.5728 -0.0671  0.3711
11871SOL    HW247268   2.862   3.808   4.038  0.7057  0.2456  0.3046
11872SOL     OW47269   8.078   0.398   0.193  0.2143  0.1263  0.2069
11872SOL    HW147270   8.083   0.495   0.168  3.1127  0.5401  2.1134
11872SOL    HW247271   8.111   0.342   0.118  3.5212  0.9960  0.9421
11873SOL     OW47272   2.386   0.130   2.439  0.0146  0.3090  0.5923
11873SOL    HW147273   2.328   0.077   2.501  0.1955  1.4464  1.7645
11873SOL    HW247274   2.472   0.081   2.424  0.1923  0.2746  1.6896
11874SOL     OW47275   5.447   1.634   7.753 -0.3277  0.3555  0.0155
11874SOL    HW147276   5.511   1.699   7.712  1.5177 -1.3911  0.0597
11874SOL    HW247277   5.455   1.637   7.853  1.3388 -1.4414 -0.0334
11875SOL     OW47278   7.224   1.716   7.603  0.0364  0.6372 -0.4384
11875SOL    HW147279   7.190   1.641   7.547 -0.7537 -0.2674  1.2037
11875SOL    HW247280   7.315   1.742   7.572  0.3131 -0.9959 -1.0617
11876SOL     OW47281   3.887   3.723   7.513 -0.0337  0.4346  0.3011
11876SOL    HW147282   3.967   3.698   7.457  0.7748  1.2220  1.0766
11876SOL    HW247283   3.804   3.714   7.459  0.6328  0.0450 -0.6673
11877SOL     OW47284   9.143   1.312   3.382  0.5412 -0.1998  0.2786
11877SOL    HW147285   9.091   1.349   3.459  0.1045 -0.2145 -0.0142
11877SOL    HW247286   9.213   1.249   3.417 -0.4611 -1.1561  0.5739
11878SOL     OW47287   8.151   6.431   1.637  0.4539  0.1079 -0.4151
11878SOL    HW147288   8.186   6.361   1.575 -0.5603 -0.7655 -0.0002
11878SOL    HW247289   8.189   6.520   1.611  1.1824 -0.4739 -1.3783
11879SOL     OW47290   8.413   9.841   3.759  0.4087 -0.2360 -0.2477
11879SOL    HW147291   8.317   9.854   3.731  1.1256  1.2354 -2.1086
11879SOL    HW247292   8.418   9.837   3.858 -1.6938 -1.1746 -0.1338
11880SOL     OW47293   8.342   7.826   6.575 -0.5392  0.0863 -0.3656
11880SOL    HW147294   8.423   7.773   6.601  1.7597  2.6699 -2.0555
11880SOL    HW247295   8.283   7.769   6.517  2.0990 -0.5971 -2.5019
11881SOL     OW47296   9.852   0.154   4.190  0.1390 -0.6533  0.1915
11881SOL    HW147297   9.871   0.175   4.286  1.4027 -0.2230 -0.1397
11881SOL    HW247298   9.809   0.233   4.146  1.1179 -0.2325 -0.0187
11882SOL     OW47299   8.307   8.779   2.540 -0.3583 -0.1382  0.0715
11882SOL    HW147300   8.354   8.690   2.535 -0.2728 -0.1129  0.4292
11882SOL    HW247301   8.322   8.829   2.455  2.6325  1.0454  1.1981
11883SOL     OW47302   7.880   5.327   3.516  0.5840  0.1133  0.5347
11883SOL    HW147303   7.903   5.362   3.425  0.3050 -1.4509 -0.1378
11883SOL    HW247304   7.791   5.363   3.544  0.8931  0.9929  0.4139
11884SOL     OW47305   9.561   3.071   5.322 -0.5722  0.0758  0.0783
11884SOL    HW147306   9.587   2.976   5.303 -0.1638  0.6434 -2.3095
11884SOL    HW247307   9.480   3.095   5.269 -1.1513  0.8345  1.2799
11885SOL     OW47308   3.389   3.777   4.671 -0.5652  0.2607  0.3809
11885SOL    HW147309   3.343   3.700   4.627 -1.1479  1.5618 -1.3374
11885SOL    HW247310   3.362   3.781   4.767 -2.9207  0.1140 -0.2314
11886SOL     OW47311   6.430   9.003   3.687  0.4439  0.1498  0.2189
11886SOL    HW147312   6.458   9.057   3.608  1.2269  0.8806  0.9941
11886SOL    HW247313   6.468   8.911   3.679 -0.4807 -0.1594 -0.8502
11887SOL     OW47314   0.714   4.103   1.594  0.4292  0.2052  0.4627
11887SOL    HW147315   0.722   4.114   1.693 -1.7722 -2.7139  1.0478
11887SOL    HW247316   0.626   4.141   1.564  1.3858  1.6926 -0.4947
11888SOL     OW47317   6.905   2.485   1.673 -0.3993  0.6629  0.3126
11888SOL    HW147318   6.983   2.445   1.625  1.6441  1.6695  2.7172
11888SOL    HW247319   6.836   2.414   1.690 -0.0630 -0.2132 -1.8779
11889SOL     OW47320   9.504   1.225   0.764 -0.1522 -0.1284  0.0711
11889SOL    HW147321   9.442   1.249   0.839  0.6386  0.5658  0.5057
11889SOL    HW247322   9.574   1.296   0.754 -0.6501  0.1296 -1.7773
11890SOL     OW47323   1.956   4.365   1.159  0.3402 -0.1251 -0.0867
11890SOL    HW147324   2.032   4.310   1.193 -0.7930 -1.2395  0.6850
11890SOL    HW247325   1.871   4.334   1.201 -0.5991  0.8521 -1.2273
11891SOL     OW47326   2.518   0.044   6.330  0.0571  0.9138 -0.4923
11891SOL    HW147327   2.587  -0.019   6.294 -1.3382 -1.5953  1.1317
11891SOL    HW247328   2.539   0.066   6.425  0.1534  2.4454 -0.8380
11892SOL     OW47329   2.792   2.349   1.627 -0.0147  0.1354 -0.0014
11892SOL    HW147330   2.866   2.415   1.638 -0.6735  0.8917 -0.1311
11892SOL    HW247331   2.830   2.256   1.632  0.9584  0.5171 -0.1783
11893SOL     OW47332   3.161   0.062   1.553 -0.5125 -0.3789  0.3803
11893SOL    HW147333   3.109   0.007   1.488 -0.5836 -1.1573  1.0763
11893SOL    HW247334   3.199   0.002   1.624  0.2031  0.3553  0.6246
11894SOL     OW47335   1.443   6.074   0.466 -0.0093 -0.3716 -0.3458
11894SOL    HW147336   1.405   5.988   0.501 -0.6632 -0.1807 -0.5833
11894SOL    HW247337   1.500   6.055   0.387 -1.6209 -0.4139 -1.5317
11895SOL     OW47338   3.870   3.125   6.651 -0.0736 -0.1287 -0.0304
11895SOL    HW147339   3.842   3.153   6.559 -0.0710 -2.5501 -0.8117
11895SOL    HW247340   3.969   3.111   6.652 -0.0673 -0.0547  0.3562
11896SOL     OW47341   4.306   3.636   0.987  0.6895  0.1675  0.0498
11896SOL    HW147342   4.232   3.629   0.920  0.7015  0.2472  0.0281
11896SOL    HW247343   4.394   3.635   0.940  0.7403 -1.1317  0.1651
11897SOL     OW47344   3.377   3.864   5.569  0.3611  0.2328  0.3052
11897SOL    HW147345   3.451   3.924   5.602  0.5156  0.0995  0.2013
11897SOL    HW247346   3.347   3.805   5.644  2.0306 -1.4210 -0.2690
11898SOL     OW47347   3.751   1.779   7.031 -0.0251  0.0367  0.5100
11898SOL    HW147348   3.713   1.687   7.037 -0.5150  0.3364  2.2060
11898SOL    HW247349   3.848   1.778   7.056  0.5525 -0.3505 -1.6019
11899SOL     OW47350   7.777   2.317   7.380  0.0074 -0.5090  0.2502
11899SOL    HW147351   7.715   2.297   7.456  2.4237 -1.5672  1.9905
11899SOL    HW247352   7.841   2.388   7.407 -0.6464  0.8497 -1.6739
11900SOL     OW47353   9.931   8.908   6.645  0.3394  0.3853 -0.1287
11900SOL    HW147354   9.844   8.920   6.691  0.4333  0.6200 -0.0097
11900SOL    HW247355  10.002   8.886   6.712  0.5073  0.8904 -0.1333
11901SOL     OW47356   4.302   3.407   3.590 -0.2667 -0.2295 -0.0568
11901SOL    HW147357   4.288   3.506   3.590 -1.1972 -0.3559 -0.1176
11901SOL    HW247358   4.334   3.378   3.680 -1.6483 -0.0945  0.4904
11902SOL     OW47359   8.185   3.675   1.793  0.5997  0.2041 -0.1843
11902SOL    HW147360   8.209   3.582   1.767 -1.7900  0.6318 -4.3614
11902SOL    HW247361   8.248   3.739   1.749 -1.5045  0.7819 -2.4874
11903SOL     OW47362   9.549   9.155   3.140 -0.0006  0.3232 -0.5904
11903SOL    HW147363   9.626   9.117   3.088  0.2819  0.3439 -0.1917
11903SOL    HW247364   9.533   9.099   3.222 -0.4147  0.3162 -0.6748
11904SOL     OW47365   9.372   6.559   1.461  0.5731  0.1547 -0.1252
11904SOL    HW147366   9.440   6.509   1.516  0.3954 -1.3244 -1.2295
11904SOL    HW247367   9.375   6.656   1.485  2.7235  0.0264  0.2276
11905SOL     OW47368   4.131   2.382   0.851  0.4250  0.7317 -0.0577
11905SOL    HW147369   4.202   2.335   0.903  1.3255  0.6188 -1.3820
11905SOL    HW247370   4.173   2.449   0.789 -0.6331  0.8761 -0.6306
11906SOL     OW47371   9.857   5.039   3.839 -0.0178  0.4797 -0.8568
11906SOL    HW147372   9.943   5.087   3.854  0.4062 -0.5309 -0.0449
11906SOL    HW247373   9.873   4.958   3.781  0.2210 -1.6992  2.1475
11907SOL     OW47374   2.733   0.205   5.293 -0.0518  0.4513 -0.8669
11907SOL    HW147375   2.654   0.188   5.351 -0.1016 -0.4002 -1.1690
11907SOL    HW247376   2.800   0.260   5.343  1.4085 -3.1326  1.2935
11908SOL     OW47377   3.182   6.008   4.007 -0.0508  0.4153  0.6608
11908SOL    HW147378   3.190   5.967   4.098  0.8532  1.2188  0.9442
11908SOL    HW247379   3.267   5.995   3.956  0.4982  2.5029  0.9951
11909SOL     OW47380   0.338   9.672   7.679  0.1593 -0.6386 -0.1254
11909SOL    HW147381   0.255   9.618   7.688 -1.0815  1.4147  1.1357
11909SOL    HW247382   0.415   9.623   7.720 -1.2061 -0.8588  2.2216
11910SOL     OW47383   8.558   7.420   7.799 -0.0683  0.9003  0.1315
11910SOL    HW147384   8.516   7.407   7.709 -0.3834  1.4567  0.1954
11910SOL    HW247385   8.655   7.395   7.794  0.1547  1.8869 -0.6198
11911SOL     OW47386   0.986   2.872   3.977 -0.5626 -0.6261  0.1294
11911SOL    HW147387   0.888   2.861   3.991 -0.5332 -1.4219 -0.2399
11911SOL    HW247388   1.024   2.933   4.046 -1.6209  1.1033 -0.7924
11912SOL     OW47389   8.544   2.407   6.338 -0.3800 -0.5883 -0.1013
11912SOL    HW147390   8.492   2.348   6.400  1.3394 -1.3829  0.6080
11912SOL    HW247391   8.528   2.377   6.244 -1.8331 -0.3077  0.0372
11913SOL     OW47392   1.303   7.846   1.068  0.6426  0.3943 -0.1089
11913SOL    HW147393   1.300   7.748   1.088  1.1086  0.3584 -0.2079
11913SOL    HW247394   1.361   7.863   0.989  0.2555  0.7170 -0.3281
11914SOL     OW47395   7.858   3.974   1.657  0.1407  0.0144 -0.0362
11914SOL    HW147396   7.902   3.924   1.731 -0.6689 -0.3465  0.2119
11914SOL    HW247397   7.768   3.935   1.639  0.3341  0.0793 -1.2302
11915SOL     OW47398   3.200   0.093   6.605 -0.2110 -0.1992  0.0654
11915SOL    HW147399   3.202  -0.006   6.599  0.0485 -0.1961  0.0930
11915SOL    HW247400   3.125   0.129   6.549  0.5264 -0.3309 -1.0194
11916SOL     OW47401   9.553   0.094   5.034 -0.1671  0.6178  0.5786
11916SOL    HW147402   9.584   0.019   5.093  0.8019  0.0425 -0.6343
11916SOL    HW247403   9.460   0.077   5.004 -0.4574  0.6182  1.4609
11917SOL     OW47404   8.903   8.168   4.366  0.2374  0.5213  0.1151
11917SOL    HW147405   8.993   8.133   4.390 -0.4407 -1.6450 -0.4137
11917SOL    HW247406   8.897   8.181   4.267 -0.6545 -1.1882 -0.0707
11918SOL     OW47407   8.569   0.290   2.262  0.1020  0.3986  0.2534
11918SOL    HW147408   8.498   0.237   2.309  1.8618 -0.5093  1.9846
11918SOL    HW247409   8.585   0.252   2.171  0.9592 -1.7846  1.2761
11919SOL     OW47410   8.810   4.621   5.496 -0.0312  0.1630  0.0278
11919SOL    HW147411   8.718   4.656   5.480  0.2764  0.4639 -1.2112
11919SOL    HW247412   8.851   4.669   5.573 -0.3594  1.1255 -0.3862
11920SOL     OW47413   9.673   5.582   5.029  0.3167 -0.3027  0.3806
11920SOL    HW147414   9.585   5.591   5.076  1.2109 -1.0980  2.2480
11920SOL    HW247415   9.666   5.623   4.938 -1.6385  0.7012  0.9470
11921SOL     OW47416   1.706   6.728   2.266 -0.4966 -0.0271 -0.3150
11921SOL    HW147417   1.789   6.780   2.247 -0.6899  0.8738  1.2812
11921SOL    HW247418   1.721   6.667   2.344 -0.1273 -2.7547 -2.4249
11922SOL     OW47419   9.948   1.182   3.813  0.2374 -0.3596  0.0970
11922SOL    HW147420   9.976   1.208   3.720  0.2874 -1.0945 -0.0918
11922SOL    HW247421  10.028   1.179   3.872  0.1081  0.8795  0.3551
11923SOL     OW47422   6.846   5.983   5.219  0.3879  0.1036  0.2386
11923SOL    HW147423   6.903   6.059   5.191 -0.5642  0.6413 -0.2542
11923SOL    HW247424   6.896   5.897   5.207  2.0225  0.7406  2.2361
11924SOL     OW47425   8.211   0.391   1.755  0.0370 -0.0919 -0.0187
11924SOL    HW147426   8.135   0.430   1.703 -0.3447 -1.0204 -0.1605
11924SOL    HW247427   8.291   0.450   1.746 -0.6592  0.8904  0.1218
11925SOL     OW47428   9.681   6.022   4.446  0.2442  0.6879  0.1233
11925SOL    HW147429   9.727   6.110   4.432 -0.8292  1.2703  0.1830
11925SOL    HW247430   9.693   5.965   4.365  0.6865  1.0087 -0.0385
11926SOL     OW47431   1.076   7.494   8.062 -0.4066 -0.1513  0.0540
11926SOL    HW147432   0.997   7.479   8.002 -0.1868 -1.9255  0.1749
11926SOL    HW247433   1.160   7.488   8.008 -0.2420 -0.9830  0.4002
11927SOL     OW47434   8.817   9.216   4.423 -0.2522 -0.5010 -0.6367
11927SOL    HW147435   8.792   9.128   4.464  0.1559  0.0630  0.8608
11927SOL    HW247436   8.915   9.219   4.406 -0.3992 -0.6748 -1.5033
11928SOL     OW47437   3.159   5.969   1.438 -0.2185 -0.3688 -0.6883
11928SOL    HW147438   3.076   5.974   1.492  1.3943  1.8017  1.7206
11928SOL    HW247439   3.160   6.043   1.371 -0.9820 -1.4380 -1.9065
11929SOL     OW47440   0.484   7.940   0.756  0.0973  0.1342 -0.0125
11929SOL    HW147441   0.437   7.914   0.841  0.3436  1.4010  0.5251
11929SOL    HW247442   0.498   8.039   0.755  2.0342 -0.1328 -0.5468
11930SOL     OW47443   1.398   1.906   2.031  0.4975  0.2655  0.2088
11930SOL    HW147444   1.326   1.844   2.000  0.4169  0.1024  0.7146
11930SOL    HW247445   1.358   1.981   2.084  0.5364  1.0835 -0.9126
11931SOL     OW47446   8.809   8.398   6.128  0.3266 -0.4788  0.3878
11931SOL    HW147447   8.858   8.468   6.180  0.6416 -0.9097  0.6722
11931SOL    HW247448   8.845   8.394   6.035 -0.8899  0.9646 -0.1654
11932SOL     OW47449   2.476   8.429   5.518 -0.1074 -0.8175 -0.1906
11932SOL    HW147450   2.513   8.517   5.489  1.3218 -0.3792  2.7285
11932SOL    HW247451   2.551   8.367   5.541 -1.1338 -1.9537  0.1385
11933SOL     OW47452   7.054   1.792   6.164  0.2721 -0.4300 -0.6492
11933SOL    HW147453   7.019   1.884   6.143  1.5611  0.0295 -0.8352
11933SOL    HW247454   7.098   1.793   6.254  2.0282 -0.3600 -1.4829
11934SOL     OW47455   2.520   5.731   8.175  0.9198 -0.3389 -0.4733
11934SOL    HW147456   2.505   5.730   8.274 -0.3249  1.8568 -0.6247
11934SOL    HW247457   2.502   5.640   8.138 -0.8867 -0.5984  0.9880
11935SOL     OW47458   1.528   9.888   1.097  0.3709  0.4317 -0.4983
11935SOL    HW147459   1.477   9.807   1.128  0.7148  0.9791  1.5896
11935SOL    HW247460   1.464   9.958   1.066 -0.1602  0.8058  1.3553
11936SOL     OW47461   9.750   0.563   6.724 -0.4634  0.1752  0.1837
11936SOL    HW147462   9.706   0.651   6.742  0.2635  0.7401 -0.7470
11936SOL    HW247463   9.814   0.542   6.798  0.1462  0.9418 -0.1203
11937SOL     OW47464   5.172   9.015   6.555  0.4593  0.4621  0.0730
11937SOL    HW147465   5.135   8.929   6.590 -1.0216  1.0330 -0.0593
11937SOL    HW247466   5.219   9.063   6.629  2.5067 -1.0818 -0.1818
11938SOL     OW47467   0.691   6.732   2.064  0.1378 -0.0772 -0.2889
11938SOL    HW147468   0.624   6.724   2.139  0.9831 -0.1985  0.4636
11938SOL    HW247469   0.645   6.716   1.977 -0.9031  0.2450  0.1905
11939SOL     OW47470   1.557   8.825   7.918 -0.4951  0.2355  0.0844
11939SOL    HW147471   1.544   8.736   7.963  0.8833  0.6752  1.4048
11939SOL    HW247472   1.482   8.842   7.855  0.2131 -2.7222 -1.6194
11940SOL     OW47473   3.878   8.859   7.181  0.3882  0.3707 -0.1098
11940SOL    HW147474   3.881   8.824   7.087  1.3440 -0.6125  0.2790
11940SOL    HW247475   3.924   8.795   7.242  1.8318  2.1133  0.6777
11941SOL     OW47476   3.676   7.886   1.054 -0.0815  0.0542 -0.2199
11941SOL    HW147477   3.710   7.966   1.103 -1.3115  0.6286 -0.2946
11941SOL    HW247478   3.750   7.846   1.001  0.4805  1.3112 -0.4013
11942SOL     OW47479   9.955   2.207   0.789  0.1314  0.0637  0.0913
11942SOL    HW147480   9.955   2.219   0.690 -0.4858 -2.4480 -0.2234
11942SOL    HW247481   9.867   2.234   0.826  0.2817  0.7725 -0.0553
11943SOL     OW47482   4.388   9.849   7.327 -0.2477  0.0126 -0.3795
11943SOL    HW147483   4.347   9.879   7.240  0.8247  0.3099 -0.7838
11943SOL    HW247484   4.472   9.900   7.344 -0.7745  0.3966  1.1537
11944SOL     OW47485   0.768   3.016   5.975 -0.3100 -0.1141  0.2009
11944SOL    HW147486   0.774   3.116   5.984  1.3597 -0.4081  3.2595
11944SOL    HW247487   0.814   2.987   5.892  0.4402  1.5619  0.0101
11945SOL     OW47488   5.045   8.468   2.773  0.6539 -0.7699  0.6578
11945SOL    HW147489   5.057   8.414   2.690 -0.0029 -0.4830  0.3726
11945SOL    HW247490   4.954   8.509   2.773  0.9712 -0.0548  1.1033
11946SOL     OW47491   0.629   4.513   7.112  0.3031 -0.0472  0.0218
11946SOL    HW147492   0.683   4.492   7.194  1.0103 -2.9219 -1.1096
11946SOL    HW247493   0.532   4.495   7.131  0.0779  2.1394  1.0992
11947SOL     OW47494   9.770   0.329   5.978  0.2751 -0.0768  1.0564
11947SOL    HW147495   9.728   0.241   5.956  0.1236  0.2214  0.1279
11947SOL    HW247496   9.814   0.367   5.896 -0.8327  1.3564  1.0996
11948SOL     OW47497   6.864   3.498   2.269  0.3886  0.0732 -0.1079
11948SOL    HW147498   6.889   3.455   2.355  1.6546  0.6684 -0.1667
11948SOL    HW247499   6.889   3.438   2.193  1.3505  0.5252 -0.1523
11949SOL     OW47500   4.261   8.130   2.533  0.1995  0.5497 -0.3938
11949SOL    HW147501   4.181   8.142   2.591  0.0090  0.0682 -0.5479
11949SOL    HW247502   4.344   8.144   2.586  0.0068  2.0733 -0.4718
11950SOL     OW47503   3.807   3.039   2.926  0.4478  0.3264  0.6628
11950SOL    HW147504   3.729   3.092   2.960 -1.1410 -1.0721 -0.7046
11950SOL    HW247505   3.848   3.086   2.848  1.1272  1.1874  1.5373
11951SOL     OW47506   5.266   1.699   3.641 -0.0113  0.4050  0.2533
11951SOL    HW147507   5.319   1.641   3.702 -1.6299 -1.2796  0.0987
11951SOL    HW247508   5.181   1.653   3.616 -1.6487  3.0884  0.6062
11952SOL     OW47509   9.429   2.240   1.498  0.4884 -0.3304 -0.6125
11952SOL    HW147510   9.468   2.159   1.540  1.8555 -0.0058 -1.2322
11952SOL    HW247511   9.415   2.311   1.567  2.3373  0.0564 -0.6103
11953SOL     OW47512   6.723   0.810   4.730  0.4437  0.1489  0.1056
11953SOL    HW147513   6.657   0.866   4.781 -0.4298  0.0291 -0.8701
11953SOL    HW247514   6.738   0.724   4.778 -0.1720  0.1433  0.2949
11954SOL     OW47515   9.922   9.158   5.938  0.2326  0.5709 -0.2282
11954SOL    HW147516   9.866   9.080   5.966  1.2550 -0.5285 -1.1899
11954SOL    HW247517   9.940   9.153   5.840  0.1830  2.1120 -0.3248
11955SOL     OW47518   5.388   1.013   2.647  0.5454 -0.0689 -0.2999
11955SOL    HW147519   5.415   0.964   2.565 -0.0510  1.6325 -1.5473
11955SOL    HW247520   5.304   1.065   2.630  1.4595  1.8515  0.7474
11956SOL     OW47521   4.835   8.122   1.529 -0.1354  0.4931 -0.2016
11956SOL    HW147522   4.787   8.185   1.469  0.5238  0.6309 -0.5957
11956SOL    HW247523   4.833   8.157   1.623 -0.8571  0.4603 -0.2072
11957SOL     OW47524   9.884   1.877   3.837 -0.1578 -0.2902 -0.1747
11957SOL    HW147525   9.904   1.974   3.824 -1.4564  0.1610  1.0945
11957SOL    HW247526   9.942   1.823   3.776  2.7486  1.1291  1.2253
11958SOL     OW47527   6.891   1.481   0.694  0.5873  0.0789 -0.1413
11958SOL    HW147528   6.886   1.387   0.727  1.5624  0.3992  0.9396
11958SOL    HW247529   6.824   1.494   0.621  0.5756 -1.5001 -0.4276
11959SOL     OW47530   3.869   7.189   4.327 -0.1325 -0.0023  0.4993
11959SOL    HW147531   3.946   7.251   4.346 -0.3543  0.2955  0.4267
11959SOL    HW247532   3.805   7.234   4.265  0.6839 -1.0398 -1.1567
11960SOL     OW47533   3.546   0.069   6.105  0.3521 -0.0576  0.4870
11960SOL    HW147534   3.502   0.150   6.143  0.2787 -0.0277  0.3423
11960SOL    HW247535   3.606   0.096   6.029 -0.1011 -0.1956  0.0748
11961SOL     OW47536   5.787   0.770   7.442 -0.5117 -0.1733  0.1792
11961SOL    HW147537   5.792   0.813   7.352 -0.2344 -2.2949 -0.8728
11961SOL    HW247538   5.878   0.767   7.482 -0.4178 -0.3508 -0.0411
11962SOL     OW47539   4.028   8.786   3.827 -0.1823  0.2159 -0.5067
11962SOL    HW147540   4.078   8.702   3.804  1.4874  0.8316  0.7906
11962SOL    HW247541   4.057   8.860   3.767  0.5697  0.5944  0.3025
11963SOL     OW47542   0.146   0.676   3.385 -0.5783 -0.2063 -0.3438
11963SOL    HW147543   0.049   0.699   3.399 -0.2788 -0.1037  1.7461
11963SOL    HW247544   0.156   0.576   3.381 -0.6482 -0.2476  0.4501
11964SOL     OW47545   4.427   0.690   3.158  0.4026  0.3953 -0.0303
11964SOL    HW147546   4.434   0.592   3.178  0.5880  0.2411 -0.8076
11964SOL    HW247547   4.410   0.702   3.060 -1.1368  1.0970  0.3106
11965SOL     OW47548   8.831   4.528   3.128  0.6356 -0.6036 -0.1933
11965SOL    HW147549   8.782   4.463   3.071 -1.3681  1.5411 -1.0274
11965SOL    HW247550   8.903   4.572   3.074 -0.7826  0.8948 -0.9192
11966SOL     OW47551   0.096   3.391   5.893  0.0176 -0.4614 -0.1856
11966SOL    HW147552   0.116   3.431   5.803  1.0315 -1.0992 -0.2455
11966SOL    HW247553   0.100   3.292   5.888 -0.3347 -0.5148  0.4759
11967SOL     OW47554   0.045   5.847   4.029 -0.1752 -0.4314 -1.0272
11967SOL    HW147555  -0.012   5.925   4.003  0.5271 -0.0146 -1.3277
11967SOL    HW247556   0.025   5.770   3.969  0.7616  0.2277 -2.2014
11968SOL     OW47557   2.640   7.933   6.581  0.2197  0.0757 -0.4402
11968SOL    HW147558   2.644   7.947   6.482  0.7549 -1.7907 -0.6995
11968SOL    HW247559   2.586   8.006   6.622 -1.8787 -0.3152 -2.3670
11969SOL     OW47560   0.482   5.865   4.263 -0.8454 -0.2775  0.1857
11969SOL    HW147561   0.409   5.808   4.227 -0.3594 -0.2596 -0.8460
11969SOL    HW247562   0.538   5.899   4.188 -0.9483  1.3152  0.8100
11970SOL     OW47563   1.367   2.788   2.472  0.0847 -0.1864  0.4551
11970SOL    HW147564   1.349   2.837   2.558 -1.0579 -0.2961  0.2963
11970SOL    HW247565   1.367   2.853   2.396 -0.9576 -0.3498  0.3019
11971SOL     OW47566   5.096   7.700   2.787 -0.1364 -0.1449 -0.2001
11971SOL    HW147567   5.077   7.624   2.725 -1.9260 -0.3336  0.5724
11971SOL    HW247568   5.043   7.690   2.871 -0.6893  2.1442 -0.2360
11972SOL     OW47569   7.107   3.728   1.645 -0.1653  0.0399  0.4978
11972SOL    HW147570   7.180   3.743   1.578  0.0356 -0.1100  0.6837
11972SOL    HW247571   7.062   3.816   1.664  1.8683  0.6808  2.5557
11973SOL     OW47572   3.758   0.399   3.748  0.8069 -0.1411  0.1363
11973SOL    HW147573   3.690   0.434   3.683  0.7249  0.0623  0.3322
11973SOL    HW247574   3.741   0.438   3.838  1.5709  0.3939  0.0469
11974SOL     OW47575   3.779   4.474   2.730 -0.4187 -0.3178  0.1850
11974SOL    HW147576   3.864   4.468   2.678  0.2554 -1.5497  1.4134
11974SOL    HW247577   3.713   4.408   2.694  0.1997 -1.4746  1.1708
11975SOL     OW47578   3.341   1.591   5.745  0.1263  0.5894 -0.3539
11975SOL    HW147579   3.303   1.499   5.756 -0.0538  0.4097 -2.3231
11975SOL    HW247580   3.358   1.608   5.648  0.3646  2.5584  0.0283
11976SOL     OW47581   8.416   3.033   2.597  0.0774 -0.3146  0.5058
11976SOL    HW147582   8.495   3.088   2.568  0.6987 -0.7174  1.4193
11976SOL    HW247583   8.446   2.940   2.616 -0.6190 -0.4650  0.8698
11977SOL     OW47584   0.244   5.863   2.167 -0.5007 -0.6422 -0.3436
11977SOL    HW147585   0.285   5.799   2.102 -1.3466 -1.8790  0.3264
11977SOL    HW247586   0.316   5.909   2.219  0.1144 -0.9464 -0.9212
11978SOL     OW47587   0.144   8.918   0.703 -0.3352  0.2009  0.4693
11978SOL    HW147588   0.210   8.924   0.777 -0.1369 -1.6638  0.4748
11978SOL    HW247589   0.192   8.900   0.617 -0.7420 -0.1173  0.3049
11979SOL     OW47590   6.679   2.203   5.827 -0.0462  0.0011  0.5240
11979SOL    HW147591   6.672   2.295   5.787  0.6749 -0.6077 -1.0458
11979SOL    HW247592   6.774   2.171   5.822 -0.3213 -0.8977  0.9092
11980SOL     OW47593   5.469   7.332   2.582  0.0859 -0.8205  0.2598
11980SOL    HW147594   5.469   7.318   2.483  0.3851 -0.6290  0.2312
11980SOL    HW247595   5.513   7.420   2.602 -1.4033 -0.1122  0.4520
11981SOL     OW47596   1.943   1.919   6.507 -0.2268  0.3312 -0.1144
11981SOL    HW147597   1.872   1.894   6.572 -1.6222  0.8454 -1.4051
11981SOL    HW247598   2.029   1.936   6.555 -1.0751  0.0874  1.5006
11982SOL     OW47599   8.222   5.757   3.471  0.4081 -0.0712 -0.1974
11982SOL    HW147600   8.196   5.756   3.568  1.0932  0.0072 -0.0142
11982SOL    HW247601   8.315   5.791   3.462  2.0764 -4.4750 -0.4729
11983SOL     OW47602   3.848   7.748   0.413  0.4258  0.4921  0.0452
11983SOL    HW147603   3.805   7.798   0.338 -0.5383  1.3259  1.1319
11983SOL    HW247604   3.946   7.768   0.414  0.2398  1.4573 -0.2445
11984SOL     OW47605   1.486   4.196   0.421  0.1263  0.1169  0.3657
11984SOL    HW147606   1.494   4.284   0.375  0.6609 -0.0982  0.0499
11984SOL    HW247607   1.389   4.170   0.427 -0.0468  0.8201  0.6431
11985SOL     OW47608   8.326   6.299   0.426  0.0833 -0.1407 -0.0436
11985SOL    HW147609   8.407   6.311   0.369  0.8349  1.0665  1.2470
11985SOL    HW247610   8.262   6.236   0.381  1.2963 -0.3362 -1.5197
11986SOL     OW47611   1.400   0.103   0.965  0.0690 -0.0493 -0.0926
11986SOL    HW147612   1.417   0.187   1.018 -2.6314  0.7694 -0.4763
11986SOL    HW247613   1.402   0.124   0.868  0.1206 -0.5999 -0.2102
11987SOL     OW47614   9.069   7.668   0.949 -0.0755 -0.0042  0.4841
11987SOL    HW147615   8.981   7.659   0.901 -1.2849  2.5936  2.1223
11987SOL    HW247616   9.055   7.659   1.047  1.1973  2.2633  0.8941
11988SOL     OW47617   0.979   5.259   7.815  0.5068 -0.2839  0.3125
11988SOL    HW147618   0.915   5.182   7.808  0.4314 -0.3224  1.3870
11988SOL    HW247619   0.927   5.344   7.823  0.5938 -0.2446  0.4509
11989SOL     OW47620   4.229   9.405   5.653  0.4970  0.4004 -0.3171
11989SOL    HW147621   4.318   9.450   5.645  0.5082  0.3138 -0.6850
11989SOL    HW247622   4.174   9.451   5.723  1.1355 -0.0446  0.4896
11990SOL     OW47623   9.854   6.027   6.327 -0.1095  0.7573  0.1652
11990SOL    HW147624   9.937   6.022   6.382 -1.4226 -1.4709  2.0468
11990SOL    HW247625   9.843   5.941   6.277 -0.8878  1.3308 -0.6419
11991SOL     OW47626   0.810   1.633   7.976 -0.0848  0.1758  0.9309
11991SOL    HW147627   0.847   1.725   7.987 -0.0385  0.4667 -1.4665
11991SOL    HW247628   0.858   1.570   8.037  0.7721  1.5068  1.6330
11992SOL     OW47629   1.475   8.973   6.593  0.1814 -0.0771 -0.3360
11992SOL    HW147630   1.488   9.058   6.644 -0.1782 -0.7085  0.8330
11992SOL    HW247631   1.377   8.951   6.590  0.4112 -1.3008  0.7893
11993SOL     OW47632   9.706   4.929   2.449  0.3013 -0.5670  0.0198
11993SOL    HW147633   9.804   4.942   2.429  0.4247 -0.5740  0.6225
11993SOL    HW247634   9.693   4.916   2.547 -0.5343  1.4699  0.2053
11994SOL     OW47635   2.370   1.917   4.531 -0.0387  0.0884 -0.1816
11994SOL    HW147636   2.439   1.988   4.546 -0.0592  0.1611 -0.4228
11994SOL    HW247637   2.405   1.829   4.561 -0.9719  0.5970  2.5844
11995SOL     OW47638   1.532   4.587   2.171  0.0537 -0.1569  0.3466
11995SOL    HW147639   1.512   4.591   2.073 -0.8363 -0.2414  0.5233
11995SOL    HW247640   1.596   4.512   2.188 -0.1215 -0.4165 -0.1161
11996SOL     OW47641   0.007   2.725   2.677 -0.5018  0.1093 -0.4792
11996SOL    HW147642  -0.046   2.806   2.702  0.6521  0.3939  1.0846
11996SOL    HW247643  -0.023   2.692   2.588 -2.2133  1.2081 -0.3320
11997SOL     OW47644   8.235   3.771   8.087  0.1427 -0.9025  0.2678
11997SOL    HW147645   8.326   3.746   8.054  0.8225  1.3594  0.3318
11997SOL    HW247646   8.210   3.714   8.165  1.4966 -1.5661  0.2254
11998SOL     OW47647   3.096   3.560   5.945  0.3941 -0.4338  0.1115
11998SOL    HW147648   3.069   3.472   5.907 -0.5059 -0.1636  0.1022
11998SOL    HW247649   3.050   3.634   5.895  1.3532  0.0549 -0.0561
11999SOL     OW47650   6.289   7.840   3.023 -0.0992 -0.1930  1.0376
11999SOL    HW147651   6.382   7.808   3.039  1.4581  1.5160 -3.6701
11999SOL    HW247652   6.229   7.762   3.004  1.5107 -1.0378 -0.7337
12000SOL     OW47653   7.843   2.509   1.077  0.2861 -0.3170 -0.0734
12000SOL    HW147654   7.861   2.437   1.010  0.9357 -0.1936 -0.0386
12000SOL    HW247655   7.813   2.592   1.031 -2.2757 -1.1653  0.0185
12001SOL     OW47656   9.077   9.398   3.399 -0.7392  0.1568 -0.0595
12001SOL    HW147657   9.043   9.456   3.325 -2.4774 -1.5714 -0.6440
12001SOL    HW247658   9.159   9.349   3.369 -0.5788  0.5909 -0.3282
12002SOL     OW47659   4.529   5.268   2.891  0.4026 -0.1203  0.2325
12002SOL    HW147660   4.523   5.168   2.893  2.6978 -0.2728  0.6819
12002SOL    HW247661   4.506   5.305   2.981  1.4270 -0.3785  0.6075
12003SOL     OW47662   4.282   9.663   6.115 -0.4446 -0.2850 -0.5136
12003SOL    HW147663   4.368   9.623   6.083 -0.8874 -1.5206 -0.1637
12003SOL    HW247664   4.276   9.758   6.084  1.9162  0.4080  1.0271
12004SOL     OW47665   8.799   4.422   3.778  0.2411 -0.1900 -0.5881
12004SOL    HW147666   8.761   4.333   3.753  0.0107 -0.2913  0.1235
12004SOL    HW247667   8.899   4.415   3.785  0.2208 -0.3906 -0.5122
12005SOL     OW47668   0.455   3.135   8.190 -0.0834  0.6527 -0.5411
12005SOL    HW147669   0.363   3.134   8.150  0.1521  1.1020 -1.0996
12005SOL    HW247670   0.490   3.229   8.190 -0.0213  0.6348  0.5836
12006SOL     OW47671   2.050   9.197   0.841 -0.1478 -0.2535 -0.3667
12006SOL    HW147672   1.964   9.207   0.891 -0.8853  2.5893 -2.0743
12006SOL    HW247673   2.047   9.115   0.784 -1.8998  0.0540 -0.7256
12007SOL     OW47674   3.619   7.096   0.107 -0.0323 -0.1315 -0.3887
12007SOL    HW147675   3.681   7.172   0.127 -0.1518 -0.2210  0.3314
12007SOL    HW247676   3.666   7.010   0.126  0.6421 -0.2932 -2.6974
12008SOL     OW47677   7.220   4.886   1.687  0.0127 -0.0203 -0.3323
12008SOL    HW147678   7.221   4.983   1.712  1.0072 -0.0620 -0.1711
12008SOL    HW247679   7.293   4.868   1.620 -0.4520 -0.5732 -0.6979
12009SOL     OW47680   0.476   6.982   6.760  0.2132  0.1275  0.5132
12009SOL    HW147681   0.502   6.941   6.673  0.6826 -1.9839  1.6096
12009SOL    HW247682   0.378   7.002   6.760 -0.2622 -2.0703  0.3336
12010SOL     OW47683   8.680   3.186   7.784 -0.5360  1.0441  0.4014
12010SOL    HW147684   8.738   3.145   7.855  0.2212  0.2511 -0.6617
12010SOL    HW247685   8.722   3.271   7.753 -0.8168  1.3403  0.8350
12011SOL     OW47686   1.887   4.939   3.042 -0.4795 -0.3250  0.2549
12011SOL    HW147687   1.949   4.898   2.975 -1.1255 -0.1090 -0.4780
12011SOL    HW247688   1.937   4.957   3.127  0.4134 -0.3414 -0.2621
12012SOL     OW47689   8.343   3.398   0.824 -0.4920  0.2481 -0.0913
12012SOL    HW147690   8.404   3.385   0.746 -0.9437 -2.1622 -0.0936
12012SOL    HW247691   8.253   3.428   0.791 -0.3776  0.2497 -0.4059
12013SOL     OW47692   3.160   6.537   1.249  0.1229  0.0088 -0.1148
12013SOL    HW147693   3.242   6.558   1.196  0.1086  1.4198  0.3914
12013SOL    HW247694   3.109   6.463   1.204  0.0390  1.2654 -2.1655
12014SOL     OW47695   9.763   0.540   0.841  0.2496 -0.3160  0.4926
12014SOL    HW147696   9.859   0.558   0.859  0.5360 -0.8384 -0.4853
12014SOL    HW247697   9.732   0.594   0.763 -0.5283  0.6225  1.4287
12015SOL     OW47698   9.485   6.887   5.661  0.9286  0.4018  0.3375
12015SOL    HW147699   9.486   6.790   5.687  0.2690 -0.3906 -2.4366
12015SOL    HW247700   9.453   6.896   5.567  2.1469  3.2455  0.1447
12016SOL     OW47701   3.192   1.334   3.586 -0.5909 -0.8445 -0.0646
12016SOL    HW147702   3.278   1.286   3.567  0.1791 -0.1459  1.5117
12016SOL    HW247703   3.119   1.268   3.601 -0.9661 -1.4404 -3.9907
12017SOL     OW47704   9.103   5.939   7.894  0.2733 -0.0143 -0.3438
12017SOL    HW147705   9.042   5.888   7.834  0.6087  0.9006 -1.4804
12017SOL    HW247706   9.197   5.907   7.882  0.3376  0.1397 -0.2574
12018SOL     OW47707   9.250   9.014   0.691  0.3876  0.2075 -0.0699
12018SOL    HW147708   9.186   8.965   0.751  0.9597  0.6735  0.9456
12018SOL    HW247709   9.200   9.062   0.620 -0.4192  0.8540  0.9294
12019SOL     OW47710   7.995   6.558   7.490 -0.0062 -0.0017 -0.1156
12019SOL    HW147711   8.069   6.585   7.552 -0.7277 -1.0756  1.2362
12019SOL    HW247712   8.007   6.463   7.461  0.7960  0.7466 -2.3500
12020SOL     OW47713   2.254   4.705   3.160  0.2683  0.0427  0.8594
12020SOL    HW147714   2.345   4.665   3.150 -0.1069 -1.0435  1.6923
12020SOL    HW247715   2.244   4.744   3.252  0.2220  1.0194  0.4462
12021SOL     OW47716   0.815   4.092   1.869  0.8471  0.0351  0.5054
12021SOL    HW147717   0.852   4.024   1.932  0.8577 -0.7817 -0.3848
12021SOL    HW247718   0.737   4.138   1.912  0.9114 -0.4560  1.1508
12022SOL     OW47719   1.465   1.383   0.030 -0.5456 -0.5752  0.4574
12022SOL    HW147720   1.561   1.394   0.005 -0.4277  0.6514  1.3966
12022SOL    HW247721   1.417   1.332  -0.042  0.6202 -0.4582 -0.4141
12023SOL     OW47722   3.449   7.125   2.508  0.1216  0.2180 -0.2366
12023SOL    HW147723   3.540   7.094   2.483 -0.8933 -1.9559 -1.3633
12023SOL    HW247724   3.428   7.210   2.459  1.0699  0.0723 -0.9160
12024SOL     OW47725   8.837   8.160   0.841  0.3607  0.1129 -0.2377
12024SOL    HW147726   8.837   8.062   0.862 -1.9282  0.4428  1.5327
12024SOL    HW247727   8.917   8.203   0.884  0.0222 -0.5773  1.1173
12025SOL     OW47728   2.821   9.335   2.212 -0.6444  0.3271 -0.6538
12025SOL    HW147729   2.783   9.392   2.284 -0.5170  1.2568 -1.3116
12025SOL    HW247730   2.898   9.382   2.169 -0.8669 -0.1099 -1.5504
12026SOL     OW47731   8.567   8.389   1.611  0.0415  0.4596 -0.7067
12026SOL    HW147732   8.490   8.365   1.671  0.6473  0.5732  0.1326
12026SOL    HW247733   8.537   8.458   1.545 -0.9969 -0.6305 -1.4092
12027SOL     OW47734   1.776   2.535   2.968  0.0044 -0.1827 -0.6492
12027SOL    HW147735   1.861   2.483   2.970  0.7673  0.9936 -1.5454
12027SOL    HW247736   1.740   2.545   3.061  1.4109  0.2227 -0.1470
12028SOL     OW47737   8.629   9.310   4.767  0.2913  1.0633  0.1364
12028SOL    HW147738   8.570   9.237   4.733  0.2989  1.2087 -0.1895
12028SOL    HW247739   8.590   9.348   4.851  0.3073  0.6581  0.3289
12029SOL     OW47740   8.678   8.876   5.311 -0.0894  0.1549 -0.3593
12029SOL    HW147741   8.715   8.794   5.266  0.1118  2.4632 -4.6174
12029SOL    HW247742   8.578   8.874   5.307 -0.1408 -0.4426  0.7397
12030SOL     OW47743   2.304   7.770   4.824  0.1904  0.5341 -0.0735
12030SOL    HW147744   2.226   7.714   4.853 -0.0681  1.7611  1.7025
12030SOL    HW247745   2.378   7.761   4.891  1.3379 -0.1064 -1.4074
12031SOL     OW47746   0.494   7.282   4.836 -0.5676 -0.2876 -0.5215
12031SOL    HW147747   0.547   7.289   4.921 -2.0412  0.2995  0.3634
12031SOL    HW247748   0.412   7.339   4.843 -1.7746 -1.8731 -1.5220
12032SOL     OW47749   6.589   4.091   1.448  0.1583 -0.1285 -0.4893
12032SOL    HW147750   6.550   4.029   1.381 -1.4364 -0.4056  0.6735
12032SOL    HW247751   6.520   4.116   1.516  1.0575  2.1096 -0.3484
12033SOL     OW47752   9.759   7.443   1.335 -0.1499 -0.7577  0.4163
12033SOL    HW147753   9.803   7.401   1.256 -0.1630  0.8501 -0.4653
12033SOL    HW247754   9.823   7.445   1.412  0.4397 -0.7887 -0.0723
12034SOL     OW47755   2.773   4.978   3.222  0.7288 -0.0968 -0.5513
12034SOL    HW147756   2.868   5.007   3.212  0.3248  1.3771 -0.2005
12034SOL    HW247757   2.765   4.922   3.305  0.7787  2.1492  1.0335
12035SOL     OW47758   8.058   7.023   2.355  0.1215 -0.5356  0.1547
12035SOL    HW147759   7.998   7.006   2.434  1.7648 -0.5920  1.4058
12035SOL    HW247760   8.046   7.117   2.324 -0.4635 -0.4875  0.5059
12036SOL     OW47761   7.614   0.939   7.216  0.0614 -0.0680 -0.1137
12036SOL    HW147762   7.714   0.945   7.221  0.1265 -0.6586 -0.6895
12036SOL    HW247763   7.583   0.970   7.126 -0.3006  0.3701  0.1560
12037SOL     OW47764   5.351   9.496   3.387 -0.2043  0.1713  0.4470
12037SOL    HW147765   5.341   9.421   3.320  2.4414 -2.0402  2.4269
12037SOL    HW247766   5.396   9.574   3.343  1.4909 -1.2505 -0.3819
12038SOL     OW47767   8.878   6.601   3.982  0.0921  0.7695  0.2030
12038SOL    HW147768   8.849   6.550   4.064  2.0701  0.6072  0.8208
12038SOL    HW247769   8.857   6.547   3.901 -1.2612  0.6277  0.6349
12039SOL     OW47770   9.919   6.551   7.068 -0.0590 -0.5933 -0.3887
12039SOL    HW147771   9.964   6.640   7.083 -1.8441  0.2395  0.1329
12039SOL    HW247772   9.895   6.510   7.156 -1.0535 -0.6408 -0.6762
12040SOL     OW47773   1.635   9.350   2.738 -0.3219 -0.5317  0.5847
12040SOL    HW147774   1.598   9.368   2.829  0.7938 -0.5886  1.0613
12040SOL    HW247775   1.668   9.436   2.698 -1.6315 -0.3648 -0.1354
12041SOL     OW47776   9.790   1.141   2.393 -0.5377  0.0139  0.4578
12041SOL    HW147777   9.882   1.122   2.427 -0.8541  0.6750  1.6978
12041SOL    HW247778   9.722   1.103   2.456 -1.1285 -0.2638 -0.3237
12042SOL     OW47779   7.726   3.274   3.574  0.5190  0.0834 -0.6056
12042SOL    HW147780   7.659   3.200   3.584  0.0704  0.6441  0.6300
12042SOL    HW247781   7.818   3.237   3.587  0.2714 -0.2014  0.4381
12043SOL     OW47782   4.800   8.525   7.602  0.0537 -0.2642 -0.0744
12043SOL    HW147783   4.777   8.573   7.687 -0.1037 -0.8365  0.2100
12043SOL    HW247784   4.804   8.590   7.527  0.3470  0.2656  0.4049
12044SOL     OW47785   3.421   5.943   5.392  0.7957  0.0615 -0.3108
12044SOL    HW147786   3.431   6.014   5.462  3.3414  0.9804 -1.5766
12044SOL    HW247787   3.413   5.854   5.436 -1.9623  1.0321  1.2819
12045SOL     OW47788   2.452   8.204   4.748  0.0035 -0.0204  0.6468
12045SOL    HW147789   2.429   8.292   4.790  2.9169  1.1913 -0.2120
12045SOL    HW247790   2.551   8.193   4.746 -0.3015 -2.9024 -0.1610
12046SOL     OW47791   1.966   2.205   2.702 -0.2093  0.3568  0.4689
12046SOL    HW147792   2.013   2.234   2.619  0.1189 -1.9072 -0.1914
12046SOL    HW247793   2.033   2.183   2.773 -0.3165 -1.2105  0.1013
12047SOL     OW47794   5.532   5.077   7.751  0.2519  0.3493 -0.4736
12047SOL    HW147795   5.560   4.986   7.782  0.2569  0.2854 -0.6600
12047SOL    HW247796   5.432   5.083   7.755  0.3122  0.6991  0.5197
12048SOL     OW47797   2.371   0.515   1.067  0.3045  0.1277 -0.2770
12048SOL    HW147798   2.370   0.562   1.155  2.6482 -1.9361  0.9179
12048SOL    HW247799   2.372   0.582   0.993 -1.9885  1.8885  1.2400
12049SOL     OW47800   9.780   0.275   3.790 -0.0860  0.4003  0.0354
12049SOL    HW147801   9.796   0.176   3.790  1.0122  0.5770  0.1231
12049SOL    HW247802   9.719   0.299   3.714  1.9406  0.0154 -1.7589
12050SOL     OW47803   0.538   7.241   7.316 -0.3711  0.4479 -0.0186
12050SOL    HW147804   0.519   7.149   7.283  1.7005 -0.0436  0.0999
12050SOL    HW247805   0.623   7.274   7.275  1.9223  0.0755  4.2157
12051SOL     OW47806   3.748   8.123   5.429  0.3289  0.1006 -0.0088
12051SOL    HW147807   3.677   8.189   5.407 -1.1060 -1.4011  0.0289
12051SOL    HW247808   3.727   8.079   5.516  1.4546 -0.1569  0.1448
12052SOL     OW47809   1.550   2.056   0.752  0.0006  0.4036  0.0217
12052SOL    HW147810   1.576   1.963   0.778 -0.1074  0.5390  0.6230
12052SOL    HW247811   1.632   2.113   0.748  0.0071  0.4049  0.1610
12053SOL     OW47812   7.674   3.119   4.857 -0.0638  0.2784 -0.3251
12053SOL    HW147813   7.607   3.173   4.907 -2.6263 -1.8845 -1.3096
12053SOL    HW247814   7.674   3.145   4.760 -1.1177 -1.2611 -0.7511
12054SOL     OW47815   1.220   2.129   5.807 -0.7040 -0.3030  0.2655
12054SOL    HW147816   1.283   2.160   5.878  0.3029 -1.6412 -0.0139
12054SOL    HW247817   1.133   2.103   5.849  0.0288 -1.4914  1.0769
12055SOL     OW47818   8.166   3.194   0.946  0.1016  0.0715  0.0303
12055SOL    HW147819   8.157   3.218   0.849 -0.5592 -0.1239  0.0415
12055SOL    HW247820   8.243   3.244   0.985 -0.1188  0.7607 -0.3992
12056SOL     OW47821   3.095   7.448   0.708 -0.7399 -0.1567 -0.1530
12056SOL    HW147822   3.004   7.485   0.724 -0.6083 -0.2953  0.9618
12056SOL    HW247823   3.164   7.506   0.752 -0.4179 -0.8899  0.3376
12057SOL     OW47824   5.016   7.651   2.194 -0.9361  0.1596 -0.9028
12057SOL    HW147825   4.933   7.649   2.139 -0.8699  0.5818 -1.0155
12057SOL    HW247826   5.069   7.732   2.172 -0.9422  0.3616 -0.1702
12058SOL     OW47827   3.459   1.854   3.332  0.0535  0.2748  0.4213
12058SOL    HW147828   3.500   1.945   3.343 -0.6117  0.4211  1.7527
12058SOL    HW247829   3.512   1.787   3.383 -0.0583  0.0827  0.2853
12059SOL     OW47830   0.873   2.838   4.353 -0.2889  0.3754  0.0455
12059SOL    HW147831   0.961   2.881   4.336 -0.3610  0.7706  0.6721
12059SOL    HW247832   0.885   2.739   4.366  0.1516  0.5409  0.8937
12060SOL     OW47833   2.077   6.426   3.989  0.5425 -0.0638 -0.3329
12060SOL    HW147834   2.172   6.458   3.990  1.2904 -2.0842 -1.7986
12060SOL    HW247835   2.040   6.438   3.897 -0.7462  0.9911  0.3118
12061SOL     OW47836   3.606   0.666   7.494 -0.2087 -0.1596  0.0436
12061SOL    HW147837   3.558   0.748   7.525 -1.1411  0.0930 -1.9781
12061SOL    HW247838   3.577   0.644   7.401  0.3519 -2.5383  0.3999
12062SOL     OW47839   9.063   8.325   5.582 -0.3167  0.0658  0.8318
12062SOL    HW147840   9.009   8.317   5.666 -1.0048  0.9650  0.4898
12062SOL    HW247841   9.128   8.400   5.591  1.4044 -1.4729  1.5127
12063SOL     OW47842   1.280   0.263   7.731 -0.5638  0.4026  0.1333
12063SOL    HW147843   1.282   0.163   7.729  0.6518  0.4184 -0.0346
12063SOL    HW247844   1.202   0.294   7.785 -1.0347 -0.6377  0.0621
12064SOL     OW47845   1.861   2.491   5.451  0.1378  0.8050 -0.2642
12064SOL    HW147846   1.921   2.505   5.373  1.4068 -1.6572  0.2215
12064SOL    HW247847   1.906   2.524   5.534  0.8096 -0.9729  0.0903
12065SOL     OW47848   5.095   3.662   7.978  0.5443  0.0493 -0.0552
12065SOL    HW147849   5.075   3.613   8.063 -4.1464  2.9985  0.7048
12065SOL    HW247850   5.024   3.642   7.911  2.5923  0.1265 -2.3051
12066SOL     OW47851   2.893   8.595   2.172 -0.2082  0.2547  0.2103
12066SOL    HW147852   2.899   8.498   2.195 -0.2809  0.1346 -0.2507
12066SOL    HW247853   2.806   8.613   2.126 -0.6818  0.7591  1.3043
12067SOL     OW47854   7.009   4.122   7.154  0.5296 -0.1652 -0.3604
12067SOL    HW147855   6.918   4.127   7.197  0.9209  0.4915  0.4157
12067SOL    HW247856   7.077   4.096   7.222  1.1408  0.7531 -0.6109
12068SOL     OW47857   1.903   2.548   4.106 -0.0847 -0.2692  0.1735
12068SOL    HW147858   1.905   2.502   4.195 -0.3360  2.7105  1.7884
12068SOL    HW247859   1.987   2.602   4.095 -0.6899  0.4787 -0.8085
12069SOL     OW47860   1.464   6.259   6.201  0.1835  0.3017 -0.2843
12069SOL    HW147861   1.410   6.201   6.140  0.3068  1.4318 -1.5007
12069SOL    HW247862   1.557   6.268   6.164  0.6973 -0.1729  0.8499
12070SOL     OW47863   4.676   4.401   1.138  0.0871 -0.3041  0.4010
12070SOL    HW147864   4.680   4.498   1.117  0.4707 -0.1988  0.9556
12070SOL    HW247865   4.619   4.386   1.219  0.1350 -0.5250  0.3955
12071SOL     OW47866   2.104   7.145   6.145  0.0256  0.3812 -0.2093
12071SOL    HW147867   2.054   7.175   6.064 -0.1197 -0.2647 -0.3594
12071SOL    HW247868   2.161   7.067   6.121 -1.5578 -1.1158  0.7735
12072SOL     OW47869   6.988   3.979   0.166 -0.0723 -0.0232  0.5739
12072SOL    HW147870   6.987   4.072   0.204 -1.7486 -0.5236  1.8331
12072SOL    HW247871   7.064   3.928   0.206 -0.4802  0.1435  1.5936
12073SOL     OW47872   7.774   0.500   7.903  0.4166  0.0741 -0.4194
12073SOL    HW147873   7.704   0.559   7.942 -1.8115 -1.5075 -1.9106
12073SOL    HW247874   7.800   0.534   7.813 -0.3368 -0.7811 -0.9684
12074SOL     OW47875   2.468   4.607   0.482  0.0215  0.2901  0.0756
12074SOL    HW147876   2.565   4.623   0.462  0.3135 -1.9512 -0.4969
12074SOL    HW247877   2.448   4.635   0.576  1.6496 -0.7937  0.7626
12075SOL     OW47878   9.163   7.107   1.360 -0.6453 -0.0595  0.6694
12075SOL    HW147879   9.201   7.195   1.387  0.8494 -0.0192 -1.4469
12075SOL    HW247880   9.078   7.091   1.411 -1.1696  2.7805  0.8042
12076SOL     OW47881   0.974   3.650   3.783 -0.0823 -0.5029 -0.5328
12076SOL    HW147882   1.067   3.613   3.781  0.2926  0.3374  0.6945
12076SOL    HW247883   0.977   3.747   3.806 -1.2857 -0.5345 -0.1905
12077SOL     OW47884   1.929   6.168   6.942  0.0195  0.0020 -0.8618
12077SOL    HW147885   1.871   6.201   7.017  3.1612  0.1491  1.6317
12077SOL    HW247886   1.934   6.069   6.945  1.5018  0.0856  0.2654
12078SOL     OW47887   0.265   7.147   1.364 -0.1077  0.0031  0.0825
12078SOL    HW147888   0.280   7.192   1.276 -1.3624 -0.0001 -0.1427
12078SOL    HW247889   0.305   7.056   1.363  1.6734  0.7676  0.2267
12079SOL     OW47890   5.035   8.111   3.780  0.6607  0.7389 -0.3172
12079SOL    HW147891   5.021   8.209   3.793  1.5789  0.4700  3.1032
12079SOL    HW247892   5.115   8.082   3.832 -0.5838 -2.1309  0.0605
12080SOL     OW47893   0.304   9.380   6.529 -0.1087 -0.2754  0.3395
12080SOL    HW147894   0.235   9.450   6.548  0.6441  0.8682 -1.0243
12080SOL    HW247895   0.302   9.310   6.600 -0.1545  1.7015  2.3404
12081SOL     OW47896   4.750   2.689   2.047 -0.5397 -0.1251  0.7797
12081SOL    HW147897   4.656   2.657   2.062 -0.0122 -1.9484  0.3267
12081SOL    HW247898   4.789   2.642   1.968  0.8392  0.4114  1.1260
12082SOL     OW47899   8.881   1.226   5.300 -0.1704  0.1216 -0.0841
12082SOL    HW147900   8.937   1.158   5.348  0.7781  0.8686 -0.1123
12082SOL    HW247901   8.864   1.196   5.207  0.8430  0.2467 -0.3157
12083SOL     OW47902   2.729   7.214   3.326  0.2157 -0.2747  0.1789
12083SOL    HW147903   2.745   7.262   3.413  1.9240 -1.0233  0.2798
12083SOL    HW247904   2.669   7.136   3.342 -0.1634  0.0866  0.5383
12084SOL     OW47905   8.679   9.591   0.771 -0.4651  0.2235  0.8101
12084SOL    HW147906   8.688   9.495   0.745  0.5025  0.0168  1.8906
12084SOL    HW247907   8.688   9.648   0.689 -1.0571 -0.5968  0.1608
12085SOL     OW47908   3.791   0.791   6.007  0.4767  0.3843 -0.2555
12085SOL    HW147909   3.694   0.776   5.990  0.1918  1.3478  0.4856
12085SOL    HW247910   3.809   0.789   6.105  1.0224  1.2731 -0.3287
12086SOL     OW47911   4.653   1.238   2.488 -0.6005 -0.3684 -0.5198
12086SOL    HW147912   4.653   1.198   2.396  1.6479 -2.8612  0.5021
12086SOL    HW247913   4.652   1.165   2.556 -0.5573  1.4302  1.4536
12087SOL     OW47914   0.724   9.815   5.212 -0.0145  0.1929  0.4084
12087SOL    HW147915   0.639   9.812   5.159 -0.1839 -0.2781  0.6966
12087SOL    HW247916   0.789   9.749   5.175  0.3660  0.8268 -0.0470
12088SOL     OW47917   1.100   7.079   0.892 -0.8001 -0.2968 -0.0299
12088SOL    HW147918   1.125   7.006   0.828  1.7937 -0.1771  0.7849
12088SOL    HW247919   1.183   7.116   0.933 -2.2939  1.1974  1.6801
12089SOL     OW47920   6.369   0.180   0.380  0.0344  0.1087 -0.1593
12089SOL    HW147921   6.322   0.098   0.345  0.6402 -0.3073 -0.0100
12089SOL    HW247922   6.337   0.200   0.472  0.8094 -0.7085  0.2906
12090SOL     OW47923   4.991   9.228   7.534 -0.1508 -0.4257 -0.7281
12090SOL    HW147924   4.895   9.207   7.514 -0.0180  0.0010 -1.8724
12090SOL    HW247925   5.048   9.194   7.460  0.4498  0.5091 -0.6920
12091SOL     OW47926   9.003   4.645   3.987 -0.0900  0.3624 -0.0816
12091SOL    HW147927   8.985   4.605   3.897 -0.4765  0.0961  0.1155
12091SOL    HW247928   9.040   4.576   4.048 -3.9813 -0.6195  1.3030
12092SOL     OW47929   6.257   0.771   5.595  0.6124  0.2555  0.6313
12092SOL    HW147930   6.326   0.804   5.531 -1.6446  0.4788 -1.7906
12092SOL    HW247931   6.294   0.696   5.649  2.4391 -0.3207 -1.3570
12093SOL     OW47932   2.455   5.639   1.462 -0.8527  0.8608 -0.2595
12093SOL    HW147933   2.552   5.640   1.487 -1.4040  0.8969  1.9285
12093SOL    HW247934   2.423   5.545   1.456 -1.1474  0.8846  0.8882
12094SOL     OW47935   1.582   3.933   0.092 -0.7471  0.0457  0.0064
12094SOL    HW147936   1.554   4.021   0.055 -0.1795  0.2813  0.1241
12094SOL    HW247937   1.513   3.864   0.071 -2.3135  0.9945  1.9441
12095SOL     OW47938   2.563   2.894   4.789 -0.5719 -0.7491  0.8249
12095SOL    HW147939   2.502   2.972   4.771  1.2138  0.3888 -0.4982
12095SOL    HW247940   2.636   2.923   4.851  1.2881 -0.7517 -1.2993
12096SOL     OW47941   4.963   1.003   6.960 -0.5556 -0.1024 -0.2488
12096SOL    HW147942   4.882   1.034   7.009 -0.2469  1.2674 -0.6123
12096SOL    HW247943   5.019   1.081   6.933  0.3399 -0.9711 -0.9642
12097SOL     OW47944   9.866   1.727   2.850  0.2914  0.6904 -0.2518
12097SOL    HW147945   9.928   1.655   2.879 -0.6682  0.1036  0.3733
12097SOL    HW247946   9.833   1.778   2.930 -1.1604  0.0597 -0.4379
12098SOL     OW47947   7.160   2.472   3.720  0.1204  0.9386  0.6503
12098SOL    HW147948   7.169   2.399   3.787  0.7437 -0.0214 -0.4738
12098SOL    HW247949   7.238   2.535   3.728  0.8756  0.1014 -0.0384
12099SOL     OW47950   6.173   2.665   4.363 -0.0528 -0.0359  0.2388
12099SOL    HW147951   6.246   2.709   4.415  0.0466 -1.0922  1.0279
12099SOL    HW247952   6.086   2.677   4.411 -0.2235  0.3447 -0.1684
12100SOL     OW47953   0.207   6.170   6.844 -0.0710 -0.3058  0.0160
12100SOL    HW147954   0.208   6.071   6.827  0.2491 -0.0570 -1.4682
12100SOL    HW247955   0.301   6.202   6.858 -0.0593 -0.0054 -0.7479
12101SOL     OW47956   2.868   2.092   1.648  0.2873  0.1241  0.0728
12101SOL    HW147957   2.951   2.041   1.626  0.0643 -0.2443  0.0757
12101SOL    HW247958   2.796   2.027   1.674 -0.5850  0.3177 -1.8240
12102SOL     OW47959   0.651   7.755   7.750 -0.2660  0.1909  0.6666
12102SOL    HW147960   0.655   7.846   7.793 -2.9262 -0.1426  1.7349
12102SOL    HW247961   0.560   7.715   7.766  0.4484 -2.1296 -0.8892
12103SOL     OW47962   5.708   1.922   5.242  0.0046  0.3408  0.6699
12103SOL    HW147963   5.741   1.969   5.324  1.1100 -0.2833  0.5970
12103SOL    HW247964   5.635   1.859   5.268 -1.7946  2.3809  0.6976
12104SOL     OW47965   8.262   2.068   4.901 -0.2570  0.0200 -0.1644
12104SOL    HW147966   8.250   2.149   4.958  0.7361 -0.7818  1.2184
12104SOL    HW247967   8.302   2.094   4.813  0.2807  1.0027  0.3710
12105SOL     OW47968   7.633   9.223   1.569 -0.4631 -0.1504  0.2864
12105SOL    HW147969   7.733   9.221   1.559 -0.6692  0.6959 -2.3542
12105SOL    HW247970   7.594   9.139   1.531 -0.7342 -0.5952  1.5559
12106SOL     OW47971   1.874   2.769   4.819 -0.3720  0.0517  0.2097
12106SOL    HW147972   1.944   2.700   4.839  0.5758  0.7819 -0.5588
12106SOL    HW247973   1.854   2.821   4.902  2.5188  2.1415 -0.3478
12107SOL     OW47974   2.030   2.230   7.157  0.7258 -0.0980  0.3684
12107SOL    HW147975   2.028   2.157   7.226  1.0933  1.6330  2.2540
12107SOL    HW247976   2.065   2.194   7.071  1.4878 -1.9930  1.4541
12108SOL     OW47977   9.750   4.349   0.882 -0.4787  0.3473  0.2533
12108SOL    HW147978   9.746   4.274   0.949  0.8765 -1.0031 -1.1375
12108SOL    HW247979   9.668   4.347   0.825 -1.4073  1.2022  1.5305
12109SOL     OW47980   5.293   0.143   1.004 -0.1496  0.2348  0.2455
12109SOL    HW147981   5.232   0.203   1.056 -0.1590  1.0517 -0.6791
12109SOL    HW247982   5.241   0.067   0.966 -0.4263  0.4328  0.2235
12110SOL     OW47983   1.429   7.892   0.841 -0.2104 -0.5393 -0.3283
12110SOL    HW147984   1.450   7.875   0.745  1.2106 -1.2902  0.0943
12110SOL    HW247985   1.454   7.987   0.864 -0.2450 -0.4582 -0.6277
12111SOL     OW47986   8.935   1.415   2.562 -0.0889 -0.0998  0.6376
12111SOL    HW147987   8.836   1.431   2.566 -0.5082 -2.3033 -0.2613
12111SOL    HW247988   8.974   1.424   2.654 -1.3614 -0.6149  1.2425
12112SOL     OW47989   9.698   9.299   0.401  0.4125 -0.1051  0.1962
12112SOL    HW147990   9.717   9.305   0.499  0.7287 -0.2014  0.1418
12112SOL    HW247991   9.718   9.387   0.358  1.1875 -0.3433  0.0619
12113SOL     OW47992   7.947   9.701   1.596 -0.2443  0.0745 -0.1665
12113SOL    HW147993   8.046   9.691   1.602 -0.5687 -2.5959  1.4681
12113SOL    HW247994   7.925   9.788   1.551  2.8059  1.1564  0.3164
12114SOL     OW47995   0.143   7.179   2.284 -0.1515  0.0043  0.1008
12114SOL    HW147996   0.101   7.098   2.325 -1.2168 -0.5905 -2.0877
12114SOL    HW247997   0.074   7.232   2.236  1.3089 -0.2169 -2.3344
12115SOL     OW47998   6.305   5.443   7.582  0.2096  0.2358 -0.1482
12115SOL    HW147999   6.341   5.351   7.598  1.8810  0.5565 -1.9496
12115SOL    HW248000   6.232   5.462   7.649  1.2715 -1.5736  1.5821
12116SOL     OW48001   5.142   7.675   4.926  0.3959  0.1670 -0.5015
12116SOL    HW148002   5.052   7.706   4.895 -0.1485 -1.0236 -0.1553
12116SOL    HW248003   5.187   7.625   4.852  0.3051 -0.1797 -0.3267
12117SOL     OW48004   6.164   9.945   4.840  0.0988  0.5162 -0.5384
12117SOL    HW148005   6.108   9.971   4.919  1.1892  0.9328  0.1049
12117SOL    HW248006   6.234   9.880   4.868  0.5889  0.7777 -1.1379
12118SOL     OW48007   4.462   6.062   1.319  0.5305  0.4515  0.1385
12118SOL    HW148008   4.374   6.018   1.301  0.2926  0.8068  0.4368
12118SOL    HW248009   4.473   6.142   1.261  0.6181  0.4620  0.1686
12119SOL     OW48010   9.494   8.590   0.141 -0.3588 -0.1154  0.2587
12119SOL    HW148011   9.530   8.618   0.230 -0.2640  0.5053  0.0283
12119SOL    HW248012   9.548   8.513   0.106 -0.4307 -0.3936  0.7578
12120SOL     OW48013   2.100   1.318   2.981 -0.4014 -0.0638  0.2583
12120SOL    HW148014   2.090   1.333   2.883  2.7156 -0.3434 -0.1609
12120SOL    HW248015   2.126   1.223   2.999  1.2600  0.5349  1.1518
12121SOL     OW48016   9.281   4.101   4.053 -0.3023 -0.0064  0.5378
12121SOL    HW148017   9.284   4.113   3.953 -0.1743  0.0199  0.5444
12121SOL    HW248018   9.306   4.007   4.076 -1.7012 -0.4107  0.4578
12122SOL     OW48019   8.203   0.242   3.015 -0.4460  0.2033 -0.2706
12122SOL    HW148020   8.245   0.286   3.095 -1.5275 -0.0772  0.4684
12122SOL    HW248021   8.208   0.143   3.027  0.7593  0.1410 -1.2809
12123SOL     OW48022   8.765   1.600   5.973  0.1326  0.1101  0.3145
12123SOL    HW148023   8.791   1.513   5.931  2.1582  1.5258 -1.4885
12123SOL    HW248024   8.829   1.622   6.047  0.5287  0.7559 -0.2102
12124SOL     OW48025   4.312   0.120   6.763  0.4486 -0.0101  0.0517
12124SOL    HW148026   4.280   0.025   6.760 -0.4863  0.3480 -3.4514
12124SOL    HW248027   4.403   0.123   6.806  0.8705 -2.6166 -0.5579
12125SOL     OW48028   1.209   3.061   6.185  0.1593  0.5081 -0.1657
12125SOL    HW148029   1.282   3.002   6.219  0.3867  1.2965  0.7442
12125SOL    HW248030   1.121   3.020   6.205  0.2998  0.7876  1.0856
12126SOL     OW48031   0.707   3.213   0.408  0.7523  0.4689 -0.0032
12126SOL    HW148032   0.719   3.199   0.310 -1.3328  1.2112 -0.3915
12126SOL    HW248033   0.744   3.303   0.433  0.2901  0.7523 -0.3245
12127SOL     OW48034   5.420   9.097   4.685  0.3224 -0.6803 -0.1736
12127SOL    HW148035   5.401   9.013   4.737  0.1273 -0.3978  0.2079
12127SOL    HW248036   5.406   9.079   4.587  0.8931 -1.2699 -0.1523
12128SOL     OW48037   8.831   7.877   5.392 -0.3595 -0.4185  0.5373
12128SOL    HW148038   8.821   7.887   5.491 -0.9053  0.4257  0.4041
12128SOL    HW248039   8.830   7.968   5.349 -1.2890 -0.8300 -0.3418
12129SOL     OW48040   9.816   5.955   3.350  0.2488 -0.3912 -0.4515
12129SOL    HW148041   9.867   5.918   3.272  1.4132  1.7768 -0.7577
12129SOL    HW248042   9.879   6.002   3.411 -0.7964 -1.3051  1.3667
12130SOL     OW48043   2.740   7.836   1.411  0.4403  0.4311  0.7034
12130SOL    HW148044   2.750   7.897   1.490 -2.6574  0.6248  1.0102
12130SOL    HW248045   2.667   7.870   1.352 -0.1415 -2.0241 -0.0433
12131SOL     OW48046   2.021   3.758   6.199 -0.0330  0.2351 -0.0537
12131SOL    HW148047   2.068   3.718   6.120 -0.4111 -0.7631  0.2203
12131SOL    HW248048   2.048   3.708   6.282  0.1808  1.1259  0.4237
12132SOL     OW48049   4.785   3.494   6.394  0.2483  0.1180  0.4239
12132SOL    HW148050   4.834   3.423   6.443  1.0683 -0.6572 -1.4608
12132SOL    HW248051   4.828   3.509   6.305 -0.7717  1.9725  0.2121
12133SOL     OW48052   4.803   5.404   0.233  0.1681 -0.0237 -0.1882
12133SOL    HW148053   4.735   5.352   0.181 -0.1815  0.4581 -0.2088
12133SOL    HW248054   4.821   5.490   0.187 -0.0346  0.3443  0.4175
12134SOL     OW48055   5.708   8.762   6.605 -0.2281  0.3658 -0.8237
12134SOL    HW148056   5.635   8.725   6.662 -0.1609  0.8511 -0.4244
12134SOL    HW248057   5.727   8.856   6.631 -0.0484  0.5203 -1.5057
12135SOL     OW48058   3.583   6.537   3.686 -0.5945  0.7932  0.2742
12135SOL    HW148059   3.600   6.613   3.623 -0.1721  0.3818 -0.1114
12135SOL    HW248060   3.663   6.477   3.687 -1.4303 -0.3394 -0.4069
12136SOL     OW48061   1.501   2.994   4.813 -0.4136 -0.2686  0.3207
12136SOL    HW148062   1.569   2.946   4.758 -1.8967 -2.0745  0.0253
12136SOL    HW248063   1.547   3.063   4.870  1.7595 -1.9903  0.7231
12137SOL     OW48064   4.763   9.465   6.362  0.2991  0.4671 -0.1931
12137SOL    HW148065   4.788   9.393   6.297  0.4915 -0.4952  0.9332
12137SOL    HW248066   4.838   9.530   6.371  1.6300 -1.2999  1.6559
12138SOL     OW48067   0.912   3.392   6.257  0.2054  0.4260  0.2081
12138SOL    HW148068   1.010   3.397   6.239  0.2843 -0.5977  0.3271
12138SOL    HW248069   0.895   3.325   6.330 -0.7171 -0.6030 -0.9367
12139SOL     OW48070   2.019   1.301   1.615  0.3140  0.5860 -0.5459
12139SOL    HW148071   2.037   1.218   1.668 -0.9747  0.0193 -0.9740
12139SOL    HW248072   1.960   1.362   1.668 -0.3843  0.3379 -1.0338
12140SOL     OW48073   6.100   5.454   1.745  0.4207  0.0803 -0.2003
12140SOL    HW148074   6.148   5.378   1.788  1.6469  0.8530 -0.1716
12140SOL    HW248075   6.041   5.419   1.673  0.3568 -0.9768  0.3602
12141SOL     OW48076   4.159   7.973   1.748  0.3391 -0.2469 -0.3705
12141SOL    HW148077   4.253   7.944   1.731  0.6657 -0.2173  1.3139
12141SOL    HW248078   4.096   7.912   1.700  1.1178 -2.0923  0.9089
12142SOL     OW48079   9.831   8.770   3.095 -0.4094 -0.0459  0.2930
12142SOL    HW148080   9.921   8.815   3.094  0.2783 -1.4419 -1.6525
12142SOL    HW248081   9.828   8.704   3.170  0.0374  0.3100  0.6303
12143SOL     OW48082   0.717   1.690   0.622  0.1104  0.5010  0.1191
12143SOL    HW148083   0.748   1.621   0.557  0.0581 -0.0965  0.7233
12143SOL    HW248084   0.791   1.756   0.638  0.6518 -0.2223  0.6210
12144SOL     OW48085   0.666   0.221   2.329 -0.0844  0.0764 -0.4299
12144SOL    HW148086   0.609   0.239   2.409 -0.0110 -0.5889 -0.2330
12144SOL    HW248087   0.613   0.240   2.246 -2.3320 -5.2780 -0.4220
12145SOL     OW48088   1.116   1.299   8.032 -0.3032  0.0471 -0.0579
12145SOL    HW148089   1.053   1.223   8.018  0.3120 -0.4911  0.0980
12145SOL    HW248090   1.210   1.266   8.029  0.0225  1.0445 -1.6307
12146SOL     OW48091   0.552   9.170   1.331 -0.3793  0.3974 -0.1668
12146SOL    HW148092   0.583   9.209   1.245 -0.8514 -0.7031 -0.8394
12146SOL    HW248093   0.563   9.238   1.404  0.8266  1.0346 -0.9244
12147SOL     OW48094   0.967   7.816   5.442 -0.5152  0.0336  0.2092
12147SOL    HW148095   1.064   7.840   5.443 -0.4230 -0.3244 -0.1564
12147SOL    HW248096   0.915   7.888   5.488 -0.0085 -0.0727  0.9702
12148SOL     OW48097   8.667   4.054   1.620  0.0926  0.2327  0.0090
12148SOL    HW148098   8.664   4.118   1.543  1.1643  0.3251  0.0341
12148SOL    HW248099   8.751   4.069   1.672 -0.4226 -0.1167  0.9546
12149SOL     OW48100   1.228   4.412   6.909 -0.4792 -0.0563 -0.2245
12149SOL    HW148101   1.196   4.330   6.863  0.7560 -1.0979  0.7128
12149SOL    HW248102   1.328   4.408   6.918 -0.3004  2.0068 -1.0450
12150SOL     OW48103   4.893   0.446   7.240 -0.1922  0.0538  0.1610
12150SOL    HW148104   4.983   0.405   7.230 -0.6514 -0.9969  0.2327
12150SOL    HW248105   4.889   0.501   7.323  0.2129 -0.3486  0.4434
12151SOL     OW48106   5.041   1.675   6.647  0.1094  0.6727 -0.0061
12151SOL    HW148107   4.945   1.701   6.636  0.1909  0.8511 -0.2777
12151SOL    HW248108   5.093   1.753   6.681  0.4455  1.0185 -1.2855
12152SOL     OW48109   4.895   2.690   7.460  0.2534  0.0091 -0.2844
12152SOL    HW148110   4.898   2.696   7.360  2.5742 -0.7108 -0.3027
12152SOL    HW248111   4.989   2.690   7.495 -0.5096 -1.2242  1.7963
12153SOL     OW48112   2.752   8.787   3.648 -0.4765  0.1733  0.6522
12153SOL    HW148113   2.705   8.864   3.606  0.4861 -0.3701 -1.4895
12153SOL    HW248114   2.850   8.807   3.653 -0.5352  0.1304  2.4695
12154SOL     OW48115   4.273   9.126   5.687 -0.1821  0.2266  0.3373
12154SOL    HW148116   4.269   9.224   5.705  0.1921  0.4228 -0.6177
12154SOL    HW248117   4.238   9.076   5.766 -1.5850  1.1706  0.3181
12155SOL     OW48118   0.498   3.741   5.563 -0.6370  0.5034 -0.4455
12155SOL    HW148119   0.541   3.794   5.490 -0.5362  0.3149 -0.5218
12155SOL    HW248120   0.522   3.645   5.554 -1.1553  0.3830 -0.5432
12156SOL     OW48121   7.130   8.496   6.019  0.3115 -0.2642  0.1474
12156SOL    HW148122   7.055   8.530   5.962 -0.4327 -3.3516 -0.8437
12156SOL    HW248123   7.094   8.429   6.083  2.0151 -0.7323  0.6389
12157SOL     OW48124   8.069   2.310   7.729 -0.3438  0.6889 -0.0052
12157SOL    HW148125   8.168   2.307   7.719 -0.4203 -0.1357 -0.5303
12157SOL    HW248126   8.043   2.261   7.812 -0.4674 -0.9290 -0.9789
12158SOL     OW48127   8.010   7.365   7.373 -0.6726 -0.0029  0.6794
12158SOL    HW148128   8.086   7.428   7.359 -0.9586  0.1322 -0.3187
12158SOL    HW248129   8.035   7.297   7.442  1.0306 -0.9893 -0.8402
12159SOL     OW48130   2.871   5.965   2.884 -0.2773 -0.0325  0.2682
12159SOL    HW148131   2.797   5.958   2.950 -0.4770 -1.7738 -0.0935
12159SOL    HW248132   2.842   6.019   2.805  0.0484  2.2629  1.6850
12160SOL     OW48133   4.414   8.393   4.360  0.0830  0.1107 -0.4425
12160SOL    HW148134   4.378   8.304   4.387 -2.1369  1.3155  0.6700
12160SOL    HW248135   4.449   8.441   4.441 -0.2188  0.9158 -0.7846
12161SOL     OW48136   1.012   1.213   4.797  0.0133 -0.3112 -0.7439
12161SOL    HW148137   1.092   1.166   4.833 -0.5443  0.5960  1.8136
12161SOL    HW248138   1.042   1.288   4.738  1.1138  0.6619  1.0046
12162SOL     OW48139   7.036   7.273   5.854 -0.1877 -0.4766 -0.6641
12162SOL    HW148140   7.018   7.340   5.782  0.5165 -0.9391 -1.2757
12162SOL    HW248141   6.978   7.292   5.933 -2.0622 -0.8550 -1.9106
12163SOL     OW48142   3.387   7.808   4.295 -0.2992 -0.2762 -0.0599
12163SOL    HW148143   3.351   7.887   4.244 -0.3340 -0.8422 -0.9105
12163SOL    HW248144   3.329   7.792   4.375  0.1176  1.0033  0.5250
12164SOL     OW48145   4.449   0.335   5.765  0.3756 -0.3120  0.7161
12164SOL    HW148146   4.426   0.245   5.801  0.8792 -0.7694 -0.0810
12164SOL    HW248147   4.404   0.348   5.677  2.4264 -0.8960 -0.4683
12165SOL     OW48148   9.736   1.692   8.081 -0.2067  0.0161 -0.0308
12165SOL    HW148149   9.739   1.617   8.015 -0.3197  0.3124 -0.3802
12165SOL    HW248150   9.825   1.737   8.084  0.8149 -2.0719  2.4813
12166SOL     OW48151   2.070   8.470   4.889 -0.1852  0.1808 -0.3422
12166SOL    HW148152   2.048   8.560   4.927  2.8630  0.4316  0.9372
12166SOL    HW248153   2.053   8.470   4.790 -1.4006  1.7402 -0.1454
12167SOL     OW48154   7.550   1.343   3.572 -0.0631  0.3482  0.0946
12167SOL    HW148155   7.455   1.370   3.589 -0.2333  1.2347 -2.0850
12167SOL    HW248156   7.564   1.330   3.474  1.8477 -0.6793  0.4712
12168SOL     OW48157   2.346   1.065   3.681 -0.6020 -0.3091 -0.4720
12168SOL    HW148158   2.369   1.158   3.706 -0.4932  0.1655 -2.2413
12168SOL    HW248159   2.290   1.023   3.753  1.1461  0.3664  1.3168
12169SOL     OW48160   9.989   6.916   7.458  0.3741 -0.4995  0.2503
12169SOL    HW148161  10.076   6.966   7.456 -0.6883  1.3310 -1.7570
12169SOL    HW248162   9.930   6.954   7.528  0.7843 -1.0685  0.9115
12170SOL     OW48163   4.012   2.342   2.349  0.5534 -0.3311 -0.2061
12170SOL    HW148164   4.045   2.436   2.340  1.5576 -0.7817 -1.5200
12170SOL    HW248165   3.927   2.331   2.298  0.6583 -0.2256 -0.4068
12171SOL     OW48166   1.067   9.212   6.479  0.1487 -0.0104 -0.1701
12171SOL    HW148167   0.999   9.264   6.428  0.3546  0.2832 -0.1472
12171SOL    HW248168   1.111   9.271   6.547  2.0236  0.4524 -1.7057
12172SOL     OW48169   4.310   1.334   4.467  0.1069 -0.1005 -0.2437
12172SOL    HW148170   4.323   1.277   4.386  0.3559 -0.1376 -0.1782
12172SOL    HW248171   4.306   1.277   4.548 -2.0808 -0.2329 -0.4144
12173SOL     OW48172   9.413   6.781   7.256 -0.4893  0.5772 -0.1624
12173SOL    HW148173   9.410   6.872   7.296  1.5560 -0.1753  1.8428
12173SOL    HW248174   9.396   6.712   7.327 -3.0637 -0.6058 -1.8427
12174SOL     OW48175   2.663   7.505   3.372  0.2275  0.9055  0.0081
12174SOL    HW148176   2.677   7.408   3.352 -0.3983  0.8763 -0.2981
12174SOL    HW248177   2.621   7.550   3.293  0.6811  1.4649  0.0839
12175SOL     OW48178   9.819   7.585   0.041  0.3055 -0.4869  0.0176
12175SOL    HW148179   9.832   7.489   0.067  0.3127 -0.9927 -1.8207
12175SOL    HW248180   9.791   7.637   0.122  2.6340 -1.5578  1.5795
12176SOL     OW48181   7.887   5.622   6.872 -0.5343 -0.1671  0.2989
12176SOL    HW148182   7.824   5.581   6.937  0.5537 -0.8662  0.9397
12176SOL    HW248183   7.921   5.709   6.909 -1.6059  0.5236 -0.3328
12177SOL     OW48184   9.479   6.667   6.315 -0.2019 -0.0015 -0.1555
12177SOL    HW148185   9.513   6.760   6.326 -0.0834  0.2813 -2.4893
12177SOL    HW248186   9.416   6.664   6.237 -0.3567 -1.8137  0.0195
12178SOL     OW48187   4.631   8.243   5.802  0.1408  0.0806 -0.0381
12178SOL    HW148188   4.705   8.224   5.738  0.2655 -1.5760  0.5647
12178SOL    HW248189   4.576   8.161   5.815 -3.1626  1.8417 -2.1219
12179SOL     OW48190   7.661   2.252   3.593 -0.2391  0.2957 -0.0327
12179SOL    HW148191   7.620   2.328   3.644 -1.3961  0.9477 -1.8577
12179SOL    HW248192   7.592   2.182   3.576 -0.2501  0.7078 -1.8266
12180SOL     OW48193   0.567   8.602   5.266  0.0872 -0.2370 -0.0169
12180SOL    HW148194   0.597   8.686   5.311  1.3802 -0.0900 -1.1466
12180SOL    HW248195   0.614   8.591   5.179 -1.9421 -0.8582 -1.0667
12181SOL     OW48196   8.338   1.121   0.926 -0.4662 -0.3093  0.4280
12181SOL    HW148197   8.333   1.062   1.006  0.5188 -1.4252 -0.3107
12181SOL    HW248198   8.278   1.084   0.854  0.3744 -0.5811 -0.1376
12182SOL     OW48199   1.563   8.532   4.553 -0.3449  0.4345 -0.3863
12182SOL    HW148200   1.608   8.512   4.640 -0.4240 -0.9794 -0.6547
12182SOL    HW248201   1.568   8.451   4.494 -1.5170  0.9262 -1.1638
12183SOL     OW48202   9.249   9.867   4.796  0.3736 -0.5838 -0.5105
12183SOL    HW148203   9.282   9.945   4.850 -0.3099 -0.6082 -0.0544
12183SOL    HW248204   9.193   9.808   4.854 -1.5382  0.1288 -1.5852
12184SOL     OW48205   6.051   7.189   3.962 -0.1229 -0.0813 -0.6999
12184SOL    HW148206   5.965   7.143   3.986  0.7131 -1.4473 -0.2720
12184SOL    HW248207   6.034   7.287   3.954 -1.4342 -0.1555  0.7989
12185SOL     OW48208   8.987   5.236   4.501 -0.2167 -0.0788  0.1537
12185SOL    HW148209   9.049   5.313   4.517 -0.8117  0.3328  0.4807
12185SOL    HW248210   8.964   5.193   4.588 -2.0723  1.0886  0.2665
12186SOL     OW48211   4.994   3.914   1.521  0.4506  0.1416  0.7574
12186SOL    HW148212   4.913   3.933   1.465  0.5879 -0.7006  0.2665
12186SOL    HW248213   5.074   3.958   1.481  0.4568 -0.0450  0.5612
12187SOL     OW48214   8.571   0.319   4.995  0.3359 -0.0372  0.1035
12187SOL    HW148215   8.602   0.236   4.949 -1.3436 -0.1267 -0.9076
12187SOL    HW248216   8.495   0.298   5.056  0.4594  0.6064  0.4883
12188SOL     OW48217   6.900   1.625   4.436 -0.4328 -0.0198  0.0600
12188SOL    HW148218   6.846   1.708   4.418 -2.9187 -1.4155  0.9472
12188SOL    HW248219   6.876   1.589   4.526  3.7951  0.6693  1.5660
12189SOL     OW48220   5.556   0.748   7.604 -0.0783  0.3744  0.3924
12189SOL    HW148221   5.619   0.731   7.528  0.3569  0.2895  0.7661
12189SOL    HW248222   5.547   0.847   7.618 -1.2942  0.4292 -0.6975
12190SOL     OW48223   0.134   0.663   2.064 -0.2557 -0.3637  0.2359
12190SOL    HW148224   0.131   0.756   2.027  1.9688 -0.1462  0.5500
12190SOL    HW248225   0.042   0.635   2.091 -0.8562  1.9902  0.7232
12191SOL     OW48226   1.429   3.154   2.080 -0.7047 -0.0855  0.5707
12191SOL    HW148227   1.446   3.247   2.049  0.0816 -1.2934 -2.8131
12191SOL    HW248228   1.334   3.145   2.109 -0.8114  1.7229  0.8235
12192SOL     OW48229   4.888   0.198   4.610  0.1312  0.1430 -0.2306
12192SOL    HW148230   4.790   0.204   4.629 -0.2291  1.7989 -2.3790
12192SOL    HW248231   4.903   0.142   4.529  1.0871 -1.1491  0.8196
12193SOL     OW48232   4.398   8.731   2.110  0.4568 -0.3598 -0.0129
12193SOL    HW148233   4.431   8.757   2.019  0.0850  1.1254  0.2763
12193SOL    HW248234   4.448   8.650   2.141  0.6906 -0.7926 -1.4720
12194SOL     OW48235   3.806   7.386   1.101 -0.4039  0.6315 -0.0355
12194SOL    HW148236   3.755   7.454   1.048  0.9263  0.5300 -1.5064
12194SOL    HW248237   3.756   7.299   1.100  0.1067  0.3161 -2.1190
12195SOL     OW48238   2.597   6.035   1.704 -0.0254 -0.0226 -0.0743
12195SOL    HW148239   2.547   6.026   1.791  0.2885  0.6198  0.1759
12195SOL    HW248240   2.548   6.099   1.644  1.1841  1.6462  0.6869
12196SOL     OW48241   4.981   3.032   7.911  0.2643 -0.1933  0.8688
12196SOL    HW148242   4.888   3.003   7.890  0.2067 -0.5215  1.5489
12196SOL    HW248243   5.014   2.982   7.992  0.6124  0.7632  1.3233
12197SOL     OW48244   4.665   6.416   3.432  0.1681 -0.4562  0.0491
12197SOL    HW148245   4.734   6.436   3.362  2.0852 -2.0537  1.4478
12197SOL    HW248246   4.639   6.501   3.478  2.2076 -0.0040  0.4182
12198SOL     OW48247   6.861   9.715   6.785  0.1464  0.5957 -0.0721
12198SOL    HW148248   6.766   9.738   6.765 -0.0403  2.1307  2.3939
12198SOL    HW248249   6.865   9.654   6.864  1.0229 -2.9633 -2.7466
12199SOL     OW48250   7.721   2.050   4.536  0.2106 -0.2626 -0.0630
12199SOL    HW148251   7.678   1.975   4.588  0.6167  0.5521  1.4911
12199SOL    HW248252   7.656   2.125   4.528  1.1786  0.8555  2.0345
12200SOL     OW48253   8.773   5.889   1.971 -0.2362 -0.0808 -0.5678
12200SOL    HW148254   8.697   5.825   1.988 -0.1200 -0.0824 -0.0451
12200SOL    HW248255   8.857   5.851   2.009  0.3031 -0.7046 -2.3305
12201SOL     OW48256   3.839   7.566   5.864 -0.0740 -0.3767 -0.4783
12201SOL    HW148257   3.776   7.638   5.835 -0.7075 -0.2842  1.0953
12201SOL    HW248258   3.816   7.480   5.819 -0.2437  0.0560 -1.2186
12202SOL     OW48259   2.278   9.340   3.348 -0.2141 -0.4738 -0.1192
12202SOL    HW148260   2.242   9.392   3.425  0.2610  0.8045 -0.7496
12202SOL    HW248261   2.202   9.298   3.298 -0.5439 -1.0150  0.8271
12203SOL     OW48262   5.831   7.634   4.260 -0.2246 -0.4109  0.0866
12203SOL    HW148263   5.812   7.556   4.202 -0.7777  0.1961 -0.5508
12203SOL    HW248264   5.922   7.671   4.239 -0.5242 -0.0430 -0.5599
12204SOL     OW48265   6.101   4.983   0.340  0.2449 -0.8835  0.1659
12204SOL    HW148266   6.052   4.906   0.298  0.8775 -1.2489  0.0976
12204SOL    HW248267   6.117   4.963   0.437  0.0104 -0.6365  0.2587
12205SOL     OW48268   3.527   3.346   7.429 -0.5852  0.2099  0.0096
12205SOL    HW148269   3.511   3.257   7.472  0.1541  0.8434  1.6417
12205SOL    HW248270   3.550   3.333   7.333  0.3571 -1.4251  0.4350
12206SOL     OW48271   3.429   2.392   4.145 -0.4390 -0.1567  0.0135
12206SOL    HW148272   3.376   2.331   4.204 -1.3256 -1.3482 -1.9737
12206SOL    HW248273   3.513   2.346   4.116 -0.9556 -0.3327 -1.2322
12207SOL     OW48274   5.591   9.968   0.785  0.3628 -0.5117  0.1055
12207SOL    HW148275   5.492   9.962   0.778  0.3406 -0.1524  0.1298
12207SOL    HW248276   5.620  10.062   0.771  0.7086 -0.6315  0.0114
12208SOL     OW48277   2.745   0.831   0.814 -0.3945 -0.0862  0.2581
12208SOL    HW148278   2.797   0.748   0.794  0.4726  0.3574  0.6007
12208SOL    HW248279   2.650   0.808   0.833  0.3956 -1.3027  3.0202
12209SOL     OW48280   8.778   6.275   0.552  0.1838 -0.1807  0.0428
12209SOL    HW148281   8.690   6.228   0.541  1.1950 -1.9741 -0.5842
12209SOL    HW248282   8.762   6.368   0.584 -1.9544 -0.4425 -0.1818
12210SOL     OW48283   9.437   3.204   3.124 -0.0434 -0.2644 -0.2035
12210SOL    HW148284   9.534   3.191   3.142  0.5361  1.7051 -1.7536
12210SOL    HW248285   9.411   3.148   3.044  0.4636  1.2832 -1.4778
12211SOL     OW48286   3.679   2.197   4.182 -0.3119 -0.9167 -0.1590
12211SOL    HW148287   3.760   2.234   4.136 -1.1550  0.5347 -0.4985
12211SOL    HW248288   3.648   2.115   4.134 -0.4323 -0.1383 -1.4295
12212SOL     OW48289   7.124   1.094   7.323  0.2563  0.2531  0.2309
12212SOL    HW148290   7.119   1.183   7.279 -0.1029 -0.9150 -2.1917
12212SOL    HW248291   7.150   1.105   7.419 -0.3291  2.9718  0.1080
12213SOL     OW48292   7.337   0.129   1.116 -0.3801 -0.1373 -0.0564
12213SOL    HW148293   7.255   0.114   1.062  0.5674 -0.2440 -1.4848
12213SOL    HW248294   7.372   0.041   1.148  0.3156 -0.2643 -1.1574
12214SOL     OW48295   8.018   7.449   2.372 -0.9711  0.7152  0.0435
12214SOL    HW148296   8.115   7.443   2.396 -1.1756 -1.1962  0.4475
12214SOL    HW248297   8.001   7.396   2.289 -1.9310 -0.1552  0.7851
12215SOL     OW48298   2.766   1.239   7.532 -0.3216 -0.4779  0.0709
12215SOL    HW148299   2.739   1.194   7.447  1.2032 -0.9126 -0.1964
12215SOL    HW248300   2.752   1.338   7.523 -1.2733 -0.6365 -0.2521
12216SOL     OW48301   0.640   1.657   1.420 -0.3623 -0.8893  0.5164
12216SOL    HW148302   0.592   1.640   1.506  2.1009  0.0232  2.1382
12216SOL    HW248303   0.637   1.754   1.398 -0.1823 -0.9834  0.0549
12217SOL     OW48304   3.579   7.229   1.400  0.0275 -0.7893  0.5544
12217SOL    HW148305   3.623   7.210   1.312 -0.3971 -0.9980  0.3844
12217SOL    HW248306   3.646   7.219   1.473  1.0043  1.8393  0.0617
12218SOL     OW48307   6.648   5.791   1.305 -0.1009  0.5922  0.0960
12218SOL    HW148308   6.566   5.751   1.348 -0.2220  1.0826  0.3238
12218SOL    HW248309   6.655   5.887   1.331  1.3022  0.2070  1.1878
12219SOL     OW48310   1.714   4.715   3.079 -0.1856  0.6534 -0.6511
12219SOL    HW148311   1.772   4.787   3.040  1.5280 -0.0906  0.4518
12219SOL    HW248312   1.681   4.656   3.005  0.0032  1.4292 -1.3622
12220SOL     OW48313   7.944   8.168   6.376 -0.0571 -0.0128 -0.2576
12220SOL    HW148314   7.929   8.101   6.448  1.2455 -1.5384 -1.3797
12220SOL    HW248315   7.864   8.228   6.369 -0.2600  0.0584  2.3104
12221SOL     OW48316   0.802   3.684   6.345 -0.6983 -0.3215  0.5086
12221SOL    HW148317   0.725   3.677   6.283 -0.9834 -0.9803  0.9378
12221SOL    HW248318   0.830   3.780   6.352 -2.0296  0.0397  1.0169
12222SOL     OW48319   6.531   4.637   1.710  0.5013  0.4013  0.3309
12222SOL    HW148320   6.473   4.715   1.733 -1.9318 -1.5671  1.0482
12222SOL    HW248321   6.521   4.617   1.612  0.9597  0.8540  0.1910
12223SOL     OW48322   3.414   9.486   7.509  0.3084 -0.0853  0.3804
12223SOL    HW148323   3.401   9.565   7.569  0.3137  0.2043  0.0021
12223SOL    HW248324   3.481   9.508   7.439 -0.7049  0.0435 -0.5613
12224SOL     OW48325   8.233   8.860   3.222  0.6522  0.1512 -0.0851
12224SOL    HW148326   8.170   8.888   3.150  1.0358 -0.1002 -0.5217
12224SOL    HW248327   8.327   8.883   3.195  0.7241  0.7785  0.6829
12225SOL     OW48328   4.193   3.267   5.469  0.7292  0.4034  0.2509
12225SOL    HW148329   4.113   3.237   5.521  0.1382 -1.2302 -1.5325
12225SOL    HW248330   4.254   3.319   5.528 -1.9842  2.3224  1.4867
12226SOL     OW48331   0.790   1.931   5.512 -0.6062 -0.2623 -0.1714
12226SOL    HW148332   0.826   1.969   5.427 -2.4543  0.4750 -0.6404
12226SOL    HW248333   0.735   1.850   5.492  0.5730 -1.2403  0.5163
12227SOL     OW48334   2.542   2.651   7.760 -0.0389 -0.0481 -0.0932
12227SOL    HW148335   2.606   2.615   7.828 -0.8826 -0.2448  0.5986
12227SOL    HW248336   2.586   2.725   7.709  0.1857  0.9222  1.4743
12228SOL     OW48337   9.291   4.547   4.158 -0.3455  0.2138 -0.3914
12228SOL    HW148338   9.326   4.600   4.235  0.0544  0.4817 -0.7591
12228SOL    HW248339   9.349   4.467   4.144 -1.0548 -0.4307  0.2824
12229SOL     OW48340   6.873   1.895   3.355 -0.0689 -0.0942 -0.2578
12229SOL    HW148341   6.911   1.887   3.263 -1.2528  0.6542 -0.8132
12229SOL    HW248342   6.787   1.844   3.360 -1.2122  1.8002 -0.2471
12230SOL     OW48343   1.459   6.019   2.944 -0.9884 -0.3012  0.4890
12230SOL    HW148344   1.441   5.928   2.982  0.2961 -0.4071  0.8709
12230SOL    HW248345   1.549   6.051   2.975 -1.1329  0.8041 -0.2050
12231SOL     OW48346   8.119   1.611   5.619  0.2816 -0.5969  0.2073
12231SOL    HW148347   8.035   1.650   5.582  1.1257  2.2871  1.2019
12231SOL    HW248348   8.193   1.622   5.552  0.4886 -0.5754  0.4387
12232SOL     OW48349   1.162   3.258   5.601 -0.0183 -0.4368  0.3931
12232SOL    HW148350   1.108   3.210   5.531  0.1379 -1.5597  1.0249
12232SOL    HW248351   1.214   3.331   5.558 -0.5602 -0.5810 -0.5344
12233SOL     OW48352   7.947   2.238   2.346 -0.5738 -0.9665  0.4502
12233SOL    HW148353   7.851   2.249   2.375 -0.3632 -2.9289  2.0296
12233SOL    HW248354   7.971   2.141   2.348  1.2959 -0.5351 -0.4894
12234SOL     OW48355   1.196   2.503   3.394 -0.3054  0.1542 -1.1939
12234SOL    HW148356   1.258   2.566   3.348 -0.4397 -0.2586 -1.9438
12234SOL    HW248357   1.197   2.521   3.493  0.7547  0.3623 -1.2421
12235SOL     OW48358   9.169   2.075   7.980 -0.0859  0.0441  0.0021
12235SOL    HW148359   9.127   2.033   7.900  3.2310 -1.2334 -1.1771
12235SOL    HW248360   9.267   2.087   7.964  0.3459  1.4567  3.1969
12236SOL     OW48361   4.850   2.413   5.600  0.6394 -0.1602 -0.1603
12236SOL    HW148362   4.793   2.346   5.552 -1.7726  1.8031 -0.1361
12236SOL    HW248363   4.829   2.412   5.697  0.0935  1.0519 -0.2474
12237SOL     OW48364   0.943   6.868   0.477  0.2834 -0.5814  0.2597
12237SOL    HW148365   0.881   6.835   0.548  0.9735 -0.5720  0.8683
12237SOL    HW248366   0.966   6.963   0.495  1.3327 -0.9079  0.6271
12238SOL     OW48367   9.093   8.936   6.823 -1.1256 -0.4112 -0.1402
12238SOL    HW148368   9.148   8.860   6.791 -0.7197 -0.4316  0.6074
12238SOL    HW248369   9.143   9.022   6.809  0.0386 -0.6139  2.5815
12239SOL     OW48370   2.889   1.592   7.247  0.4675 -0.3072  0.4176
12239SOL    HW148371   2.949   1.515   7.268  0.8539 -0.2752 -0.5415
12239SOL    HW248372   2.944   1.675   7.235  0.0551  0.1268  1.4446
12240SOL     OW48373   5.742   8.470   5.674  0.0574 -0.0004  0.2705
12240SOL    HW148374   5.764   8.568   5.672  0.1569 -0.0326 -0.4518
12240SOL    HW248375   5.662   8.455   5.733 -0.4452  0.6224 -0.2336
12241SOL     OW48376   0.841   4.666   2.746  0.4801  0.2088 -0.2930
12241SOL    HW148377   0.891   4.584   2.774 -0.1932 -0.7618 -1.8373
12241SOL    HW248378   0.777   4.642   2.673  1.6501  2.4788 -2.1170
12242SOL     OW48379   3.512   9.117   3.478 -0.3479  0.9996 -0.3694
12242SOL    HW148380   3.577   9.088   3.408 -0.7492 -0.9748  0.0321
12242SOL    HW248381   3.425   9.070   3.465 -0.7943  1.4800  0.7648
12243SOL     OW48382   6.466   0.680   5.099  0.0396 -0.1514 -0.7349
12243SOL    HW148383   6.522   0.704   5.178  0.3764 -1.5222 -0.5432
12243SOL    HW248384   6.523   0.638   5.029 -0.4559  0.0403 -1.2591
12244SOL     OW48385   8.944   5.445   4.138  0.4648  0.2961  0.2442
12244SOL    HW148386   8.878   5.438   4.213  1.0005  0.5472  0.7528
12244SOL    HW248387   8.918   5.385   4.064 -0.2008  0.2109  0.5467
12245SOL     OW48388   1.801   0.102   7.991  0.1996 -0.4205  0.9287
12245SOL    HW148389   1.764   0.167   7.924  2.4159  0.6890  0.7222
12245SOL    HW248390   1.857   0.034   7.944  2.2149  0.6852  1.6580
12246SOL     OW48391   9.060   7.754   6.257  0.0536 -0.1056 -0.2778
12246SOL    HW148392   9.157   7.771   6.240  0.2409  0.4184  1.2770
12246SOL    HW248393   9.006   7.827   6.214  0.5102  1.1128  1.2008
12247SOL     OW48394   9.595   3.405   7.037 -0.1592 -0.2526 -0.0197
12247SOL    HW148395   9.585   3.395   7.136 -1.0969 -0.4127 -0.1243
12247SOL    HW248396   9.623   3.318   6.997  0.6032 -0.0861  0.1499
12248SOL     OW48397   2.310   3.278   7.590  0.0985  0.1363  0.2578
12248SOL    HW148398   2.355   3.367   7.585  0.4669  0.1115  2.4509
12248SOL    HW248399   2.225   3.286   7.643 -1.1562 -0.3343 -1.6491
12249SOL     OW48400   4.981   4.781   2.305  0.2083  0.0081 -0.0084
12249SOL    HW148401   4.920   4.773   2.384  0.4934  1.7181  0.3933
12249SOL    HW248402   5.074   4.800   2.336  0.0388  2.2513 -0.7998
12250SOL     OW48403   2.561   2.242   5.043 -0.7295 -0.0087 -0.4462
12250SOL    HW148404   2.528   2.255   4.950 -2.2432  0.0034  0.0860
12250SOL    HW248405   2.550   2.327   5.095 -1.6292 -0.5599  0.2760
12251SOL     OW48406   8.068   6.463   6.981  1.0159  0.0036  0.0182
12251SOL    HW148407   8.073   6.363   6.988 -2.1945 -0.1534  0.9872
12251SOL    HW248408   8.058   6.503   7.072 -2.0593  0.8321 -0.6110
12252SOL     OW48409   4.232   4.436   7.277 -0.0731 -0.1031  0.2021
12252SOL    HW148410   4.255   4.455   7.182 -0.0110  1.1894  0.4762
12252SOL    HW248411   4.315   4.411   7.327 -0.0038 -0.1243  0.0764
12253SOL     OW48412   3.814   8.091   1.179  0.3905  0.3383 -0.0832
12253SOL    HW148413   3.730   8.093   1.234 -1.5589  0.2251 -2.9466
12253SOL    HW248414   3.856   8.182   1.180 -0.6958  0.8538  0.0404
12254SOL     OW48415   3.559   2.516   1.647 -0.1458 -0.1252  0.2069
12254SOL    HW148416   3.505   2.456   1.587 -0.2687  0.2655 -0.0715
12254SOL    HW248417   3.614   2.459   1.709 -0.5097 -0.5280  0.1679
12255SOL     OW48418   0.205   1.395   6.095  0.0643 -0.0124 -0.2621
12255SOL    HW148419   0.216   1.310   6.146  3.3566 -1.3643 -3.0164
12255SOL    HW248420   0.118   1.395   6.047 -0.7547 -0.9754  1.1842
12256SOL     OW48421   0.056   7.204   5.753 -0.2324  0.3872 -0.3743
12256SOL    HW148422   0.027   7.233   5.844 -0.6004  0.2052 -0.4349
12256SOL    HW248423   0.154   7.223   5.742 -0.1682  0.3243  0.0887
12257SOL     OW48424   7.800   8.379   1.367 -0.1000  0.2863  0.0505
12257SOL    HW148425   7.873   8.412   1.308 -0.3946 -0.1566 -0.5696
12257SOL    HW248426   7.787   8.281   1.351 -2.5915  0.8761 -1.7486
12258SOL     OW48427   6.801   0.228   2.139  0.1162  0.0130 -0.1187
12258SOL    HW148428   6.760   0.230   2.230 -2.0980  0.2700 -1.0747
12258SOL    HW248429   6.748   0.287   2.077  0.4398 -1.5954 -2.0027
12259SOL     OW48430   6.756   8.859   3.088 -0.2793  0.3612 -0.1480
12259SOL    HW148431   6.725   8.764   3.083 -2.4790  1.0377  0.3774
12259SOL    HW248432   6.784   8.889   2.997 -0.7530 -0.4032 -0.5515
12260SOL     OW48433   9.381   5.907   6.433 -0.0035  0.5885 -0.0416
12260SOL    HW148434   9.290   5.888   6.398 -0.9377  1.5271  1.7843
12260SOL    HW248435   9.384   5.886   6.531  2.2701 -1.1461 -0.4582
12261SOL     OW48436   3.297   9.605   1.063  0.2505  0.5193 -0.2450
12261SOL    HW148437   3.236   9.606   0.983  3.5764 -0.3692 -2.8992
12261SOL    HW248438   3.392   9.615   1.033  1.4833  1.9048  3.7872
12262SOL     OW48439   6.507   7.666   3.124  0.0632 -0.1101  0.0311
12262SOL    HW148440   6.594   7.693   3.081 -0.4533 -0.1175 -1.0431
12262SOL    HW248441   6.525   7.632   3.216  0.9775  1.7970  0.5771
12263SOL     OW48442   1.342   6.060   1.853 -0.1389  0.3599 -0.4357
12263SOL    HW148443   1.416   6.011   1.898  0.5460  0.6144 -1.2480
12263SOL    HW248444   1.263   5.999   1.841  0.8888 -0.7324 -1.9181
12264SOL     OW48445   9.744   5.280   3.716  0.1603 -0.3084  0.6292
12264SOL    HW148446   9.687   5.253   3.793 -1.2328  2.6620  0.7305
12264SOL    HW248447   9.833   5.312   3.749  1.1880 -3.0849  0.6273
12265SOL     OW48448   2.397   8.370   0.653 -0.4649 -0.3017  0.7163
12265SOL    HW148449   2.317   8.334   0.606 -2.8016  1.9196  2.8305
12265SOL    HW248450   2.442   8.438   0.595 -1.2933 -0.0979  0.3064
12266SOL     OW48451   6.717   3.847   7.755  0.1137 -0.2349 -0.4575
12266SOL    HW148452   6.661   3.927   7.779  0.8102  0.0071  0.4050
12266SOL    HW248453   6.759   3.811   7.838 -0.1152 -1.4390 -0.8680
12267SOL     OW48454   9.218   9.642   3.835 -0.4446 -0.2004 -0.1845
12267SOL    HW148455   9.297   9.623   3.777 -0.2278 -0.2643  0.1290
12267SOL    HW248456   9.162   9.560   3.841 -0.3819 -0.2425 -0.1695
12268SOL     OW48457   0.546   2.848   5.081 -0.8547 -0.2512 -0.1448
12268SOL    HW148458   0.560   2.786   5.004 -0.5522 -1.0875  0.5835
12268SOL    HW248459   0.494   2.801   5.153 -0.3962  0.2502  0.5191
12269SOL     OW48460   4.189   2.563   2.180 -0.1615 -0.6823  0.3572
12269SOL    HW148461   4.142   2.609   2.255 -1.3529 -1.4897  0.1233
12269SOL    HW248462   4.158   2.602   2.093  0.2588 -0.6157  0.2394
12270SOL     OW48463   9.680   7.326   7.442 -0.5616 -0.3917 -0.4902
12270SOL    HW148464   9.735   7.408   7.426 -0.8832 -0.5755 -2.6898
12270SOL    HW248465   9.725   7.247   7.400 -0.6229 -1.2455  0.9912
12271SOL     OW48466   4.066   3.239   1.548  0.4835  0.1711 -0.3435
12271SOL    HW148467   4.050   3.200   1.458 -0.9066 -1.6528  0.6453
12271SOL    HW248468   3.986   3.293   1.576 -0.0912 -1.2173  0.7537
12272SOL     OW48469   1.892   3.493   5.884  0.3313 -0.1638 -0.4279
12272SOL    HW148470   1.876   3.435   5.804  0.7465  0.0648 -0.6845
12272SOL    HW248471   1.813   3.553   5.899  0.2105 -0.2775 -0.6121
12273SOL     OW48472   4.027   0.120   1.395  0.0087  0.4344  0.0658
12273SOL    HW148473   4.096   0.049   1.381 -0.2739  0.4561 -1.5135
12273SOL    HW248474   3.938   0.088   1.363 -0.1699  1.4018 -0.4409
12274SOL     OW48475   7.411   3.590   0.385 -0.0927  0.5750  0.3134
12274SOL    HW148476   7.451   3.604   0.476 -0.8774 -1.5012  1.0179
12274SOL    HW248477   7.311   3.586   0.393 -0.1993  1.0808 -0.7436
12275SOL     OW48478   3.018   5.724   1.238  0.0671  0.0322 -0.0393
12275SOL    HW148479   3.100   5.766   1.278 -0.1455  0.4582 -0.0402
12275SOL    HW248480   2.964   5.682   1.311  0.0293  0.2047  0.0341
12276SOL     OW48481   0.506   9.057   2.831  0.1450 -0.1426  0.1044
12276SOL    HW148482   0.505   9.143   2.883 -1.4689 -0.1173  0.0538
12276SOL    HW248483   0.505   9.076   2.733 -1.5767 -0.2066  0.0936
12277SOL     OW48484   8.159   3.944   4.487 -0.3285  0.5460  0.0932
12277SOL    HW148485   8.114   3.860   4.516  0.7995  0.1096  0.5747
12277SOL    HW248486   8.249   3.951   4.531  0.7539  0.6276 -2.0831
12278SOL     OW48487   5.466   0.672   7.317 -0.0983  0.5715 -0.4821
12278SOL    HW148488   5.450   0.770   7.306 -0.0702  0.3784 -2.3583
12278SOL    HW248489   5.543   0.644   7.259  0.8365 -0.2969  1.1472
12279SOL     OW48490   9.706   5.018   6.460 -0.0601  0.3756  0.0276
12279SOL    HW148491   9.743   5.077   6.389  1.1514 -0.9936 -0.5237
12279SOL    HW248492   9.777   4.999   6.528 -0.8290  0.6374  0.9116
12280SOL     OW48493   3.406   5.541   1.618  0.3043  0.9816  0.0534
12280SOL    HW148494   3.388   5.622   1.562 -1.1410  2.0642  2.0171
12280SOL    HW248495   3.436   5.569   1.708 -1.5972 -0.6236  1.2304
12281SOL     OW48496   7.995   9.743   4.401  0.1592  0.3422 -0.0101
12281SOL    HW148497   8.023   9.823   4.455 -1.0435 -0.5247  1.9813
12281SOL    HW248498   7.969   9.669   4.463 -1.1413 -0.7532 -1.8092
12282SOL     OW48499   0.872   9.211   2.714  0.1174 -0.0815 -0.5171
12282SOL    HW148500   0.879   9.295   2.660  0.6987  0.2808  0.1025
12282SOL    HW248501   0.828   9.140   2.660 -0.8723  0.7801 -0.8693
12283SOL     OW48502   4.435   3.836   1.470  0.1313  0.3650  0.6349
12283SOL    HW148503   4.459   3.812   1.377 -0.5892  3.2848 -0.3609
12283SOL    HW248504   4.482   3.775   1.534  2.3993 -0.2429 -1.5399
12284SOL     OW48505   0.934   3.058   2.227  0.6054 -0.1044  0.4414
12284SOL    HW148506   0.868   3.123   2.263  0.1293 -0.9998  1.2079
12284SOL    HW248507   0.932   2.974   2.282  0.0326 -1.4014 -1.4929
12285SOL     OW48508   7.449   7.383   4.709  0.2461 -0.2129  0.0658
12285SOL    HW148509   7.442   7.482   4.722 -0.4979 -0.2430 -0.1172
12285SOL    HW248510   7.460   7.362   4.612  1.1047 -0.2727  0.1707
12286SOL     OW48511   6.652   6.000   0.995  0.4523 -0.3003 -0.2384
12286SOL    HW148512   6.655   5.988   0.895  0.3774 -1.4497 -0.1113
12286SOL    HW248513   6.736   5.963   1.035  1.5046  2.1897 -0.0588
12287SOL     OW48514   7.621   1.666   6.279 -0.2007 -0.7219  0.1736
12287SOL    HW148515   7.694   1.681   6.212  0.4434 -1.8261  0.6281
12287SOL    HW248516   7.624   1.739   6.348 -0.5882  0.1714 -0.7441
12288SOL     OW48517   8.335   9.406   2.772 -0.1482  0.6892 -0.4180
12288SOL    HW148518   8.341   9.498   2.810 -0.4405  0.8607 -0.7851
12288SOL    HW248519   8.280   9.348   2.832  0.1889  0.7075 -0.0954
12289SOL     OW48520   1.949   0.737   5.731  0.1292  0.0882  0.3866
12289SOL    HW148521   1.908   0.825   5.708 -2.9066 -0.7812  2.1620
12289SOL    HW248522   1.973   0.688   5.648 -1.6447  1.0409 -0.7211
12290SOL     OW48523   1.088   6.954   1.396  0.5324  0.5792  0.0885
12290SOL    HW148524   1.084   7.004   1.309  2.4233  0.6149 -0.0063
12290SOL    HW248525   1.109   6.858   1.378 -3.5495 -0.4569  0.2379
12291SOL     OW48526   7.598   1.312   5.200  0.0575  0.2112 -0.0949
12291SOL    HW148527   7.564   1.230   5.154  1.6142  0.2470 -1.3659
12291SOL    HW248528   7.697   1.319   5.187  0.6211  0.0485  3.6346
12292SOL     OW48529   1.641   9.653   4.649  0.1129 -0.3554 -0.1809
12292SOL    HW148530   1.618   9.717   4.722 -0.1898 -0.7575  0.0745
12292SOL    HW248531   1.656   9.562   4.687  0.8040 -0.3821 -0.5104
12293SOL     OW48532   5.061   8.728   7.150  0.5888  0.2058 -0.3024
12293SOL    HW148533   5.063   8.636   7.190 -0.5704 -0.0297 -0.7766
12293SOL    HW248534   5.153   8.767   7.154  0.5432  0.1394  2.4627
12294SOL     OW48535   4.781   5.076   7.909  0.6823  0.2039 -0.2177
12294SOL    HW148536   4.862   5.104   7.961 -0.0523 -1.6115  1.9543
12294SOL    HW248537   4.699   5.089   7.965 -0.4606  1.0789 -2.0305
12295SOL     OW48538   3.597   9.945   3.992  0.0314 -0.0164 -0.3773
12295SOL    HW148539   3.518   9.943   3.931  0.5853  0.0953 -1.1021
12295SOL    HW248540   3.654  10.024   3.970  0.0344  0.2406  0.5406
12296SOL     OW48541   9.347   0.807   6.802  0.3133 -0.5250 -0.2372
12296SOL    HW148542   9.262   0.810   6.855 -0.3996 -0.3913 -1.3872
12296SOL    HW248543   9.379   0.900   6.785  0.8581 -0.5818  0.4533
12297SOL     OW48544   8.084   1.706   8.105  0.0718 -0.2703 -0.0383
12297SOL    HW148545   8.091   1.736   8.200  0.2074 -0.0569 -0.1158
12297SOL    HW248546   8.011   1.638   8.097  0.2918 -0.5460  0.2809
12298SOL     OW48547   6.134   1.981   3.293 -0.3346 -0.0036  0.0995
12298SOL    HW148548   6.148   2.079   3.309  1.2402 -0.2956  0.5453
12298SOL    HW248549   6.051   1.951   3.340 -0.0924  0.8340  1.0636
12299SOL     OW48550   4.502   6.679   2.069 -0.0093  0.3458  0.0539
12299SOL    HW148551   4.458   6.685   1.980  1.0102 -0.2317 -0.4965
12299SOL    HW248552   4.585   6.734   2.069  0.2430 -0.0333  0.4960
12300SOL     OW48553   2.045   1.480   0.387 -0.3820  0.0804  0.3858
12300SOL    HW148554   1.966   1.539   0.373  0.1027  0.4688 -0.8369
12300SOL    HW248555   2.094   1.509   0.469  0.0592  1.6406 -0.3943
12301SOL     OW48556   2.683   4.773   3.477 -0.3831 -0.8337 -0.2353
12301SOL    HW148557   2.716   4.685   3.511  1.6930 -0.5079 -1.2861
12301SOL    HW248558   2.756   4.841   3.485 -2.1119  0.8893  0.9309
12302SOL     OW48559   5.504   0.262   5.118  0.3573  0.1165 -0.1677
12302SOL    HW148560   5.533   0.166   5.111  0.1490  0.0375  0.0775
12302SOL    HW248561   5.458   0.289   5.033  0.7359  0.1047 -0.3776
12303SOL     OW48562   2.502   9.311   2.235  0.2893  0.2273  0.1230
12303SOL    HW148563   2.599   9.290   2.244  0.7128  1.9195 -0.2823
12303SOL    HW248564   2.467   9.273   2.149  0.7687  0.2076 -0.0656
12304SOL     OW48565   4.710   8.431   8.138 -0.3456  0.0126 -0.0617
12304SOL    HW148566   4.700   8.337   8.169 -0.2584  0.4142  1.2085
12304SOL    HW248567   4.630   8.484   8.168 -0.8866  0.1217 -1.6365
12305SOL     OW48568   2.308   4.516   3.442 -0.0979  0.5464 -0.3498
12305SOL    HW148569   2.359   4.558   3.517  1.3596 -0.5452 -0.7042
12305SOL    HW248570   2.272   4.427   3.471 -2.4975  1.6429  0.1437
12306SOL     OW48571   1.126   3.264   4.804 -0.0094  0.1965  0.2638
12306SOL    HW148572   1.185   3.205   4.859  0.5090 -1.3644 -1.9061
12306SOL    HW248573   1.031   3.234   4.813  0.1683 -0.5301 -0.2893
12307SOL     OW48574   7.422   5.232   1.967 -0.1753  0.4483  0.0822
12307SOL    HW148575   7.327   5.210   1.988 -0.3847 -0.0155 -1.2919
12307SOL    HW248576   7.429   5.328   1.940 -0.2823  0.4357  0.0091
12308SOL     OW48577   0.038   4.475   5.805  0.8961 -0.2762  0.2777
12308SOL    HW148578   0.056   4.377   5.809 -1.2839 -0.6769  0.7766
12308SOL    HW248579   0.081   4.520   5.884  0.8168 -1.0122  0.7393
12309SOL     OW48580   7.027   3.161   2.936  0.3805  0.1227  0.2176
12309SOL    HW148581   6.976   3.226   2.879  1.6911  1.5949  0.6762
12309SOL    HW248582   6.962   3.106   2.989 -0.8103 -0.5737 -1.9307
12310SOL     OW48583   8.196   5.303   5.773 -0.0386  0.6487 -0.3952
12310SOL    HW148584   8.107   5.284   5.732 -0.5524 -1.1568  1.4899
12310SOL    HW248585   8.199   5.399   5.801 -2.1437  0.2561  1.2921
12311SOL     OW48586   6.273   1.523   3.095 -0.3023  0.2412 -0.2688
12311SOL    HW148587   6.209   1.551   3.167 -0.8063 -0.5567 -0.4050
12311SOL    HW248588   6.343   1.464   3.134  0.0407  0.6721 -0.2276
12312SOL     OW48589   7.039   2.741   0.857 -0.7105  0.1320  0.2438
12312SOL    HW148590   7.116   2.792   0.895 -0.5277 -0.3608  0.5510
12312SOL    HW248591   6.966   2.735   0.925  0.4430 -2.5341  1.3214
12313SOL     OW48592   3.337   7.830   4.915  0.0285  0.0347 -0.7462
12313SOL    HW148593   3.384   7.867   4.835  0.7172  0.8420  0.0235
12313SOL    HW248594   3.255   7.885   4.935  0.9651  1.0872  0.3024
12314SOL     OW48595   7.753   4.882   7.532 -0.2573 -0.0273 -0.2533
12314SOL    HW148596   7.828   4.841   7.585  0.7086  0.7893 -0.9676
12314SOL    HW248597   7.666   4.855   7.573  0.4061 -1.2223  0.4295
12315SOL     OW48598   0.430   6.841   1.080 -0.8849 -0.5134  0.3561
12315SOL    HW148599   0.360   6.841   1.009 -0.1268 -0.3888 -0.3992
12315SOL    HW248600   0.497   6.769   1.062 -1.2933 -1.2216  1.5673
12316SOL     OW48601   5.759   5.134   7.627  0.2380 -0.3424  0.5114
12316SOL    HW148602   5.673   5.104   7.670  0.5465 -0.7477  0.8492
12316SOL    HW248603   5.829   5.145   7.697  0.7989 -1.1952  0.0978
12317SOL     OW48604   5.397   1.561   3.836 -0.3260  0.1720  0.7751
12317SOL    HW148605   5.398   1.582   3.933  0.2192 -1.6415  1.1771
12317SOL    HW248606   5.468   1.493   3.815 -0.4500  0.5228 -0.8762
12318SOL     OW48607   8.603   6.691   0.705 -0.0063  0.2412  0.4545
12318SOL    HW148608   8.659   6.740   0.771 -0.7918  1.3977  0.2889
12318SOL    HW248609   8.512   6.675   0.744 -0.1541  0.0398  0.0334
12319SOL     OW48610   2.023   9.193   7.213 -0.0560 -0.2870 -0.0423
12319SOL    HW148611   1.932   9.185   7.254 -1.0469  1.9467 -1.7184
12319SOL    HW248612   2.061   9.102   7.198 -0.6217 -1.2241  3.6191
12320SOL     OW48613   1.117   8.792   4.357 -0.0461  0.2499 -0.1135
12320SOL    HW148614   1.092   8.744   4.273 -1.5367  1.1374 -0.1985
12320SOL    HW248615   1.208   8.763   4.387 -1.2752 -3.2927  0.3374
12321SOL     OW48616   2.013   5.725   0.157 -0.3363 -0.8211  0.0283
12321SOL    HW148617   2.105   5.695   0.181 -0.3853  0.0918  1.3985
12321SOL    HW248618   1.948   5.651   0.173  0.0330 -1.1608 -0.0562
12322SOL     OW48619   2.553   7.880   0.987  0.8110  0.3328 -0.0001
12322SOL    HW148620   2.652   7.868   0.995  0.4206 -2.4974  1.3197
12322SOL    HW248621   2.513   7.888   1.078 -0.5328 -2.2135 -0.3218
12323SOL     OW48622   4.417   1.224   7.884  1.2101  0.3043 -0.2053
12323SOL    HW148623   4.456   1.134   7.908  2.0416  1.0890  1.4946
12323SOL    HW248624   4.412   1.232   7.785  2.7655 -0.9506 -0.4161
12324SOL     OW48625   7.286   2.510   5.410  0.3050  0.2727  0.0316
12324SOL    HW148626   7.203   2.464   5.442  0.8746 -1.3148 -0.7097
12324SOL    HW248627   7.365   2.475   5.460  0.4418  2.5273  1.4759
12325SOL     OW48628   5.660   1.886   5.577  0.4438 -0.2721 -0.0173
12325SOL    HW148629   5.609   1.839   5.506 -0.5158  1.4590 -0.4953
12325SOL    HW248630   5.724   1.951   5.535 -1.7179  2.3969  0.7092
12326SOL     OW48631   8.668   1.763   6.303  0.3606  0.2511 -0.1325
12326SOL    HW148632   8.727   1.826   6.252 -0.0787  0.6822 -0.1003
12326SOL    HW248633   8.675   1.781   6.401 -0.4478  0.8410 -0.1791
12327SOL     OW48634   4.103   2.572   1.912 -0.4126 -0.6385 -0.3202
12327SOL    HW148635   4.152   2.520   1.842 -0.5077 -2.2957  0.7975
12327SOL    HW248636   4.005   2.555   1.903 -0.3855 -1.3424  0.5487
12328SOL     OW48637   6.490   3.966   0.025 -0.7740  0.3989 -0.0838
12328SOL    HW148638   6.425   4.031   0.065  0.5503  1.4824  0.3432
12328SOL    HW248639   6.519   3.998  -0.065  0.4282  0.7917  0.4282
12329SOL     OW48640   7.805   1.155   7.436 -0.6726 -0.1897 -0.1857
12329SOL    HW148641   7.861   1.180   7.515 -0.4727  0.1626 -0.4356
12329SOL    HW248642   7.838   1.068   7.398 -0.0375  0.2151 -0.5710
12330SOL     OW48643   8.859   0.678   6.086 -0.6311  0.5040  0.0588
12330SOL    HW148644   8.872   0.585   6.121 -1.7557  0.0085 -0.8018
12330SOL    HW248645   8.897   0.744   6.151  0.0623 -0.5471  0.7376
12331SOL     OW48646   2.395   0.385   2.160  0.3864  0.2904 -0.2466
12331SOL    HW148647   2.468   0.401   2.093  2.2444 -1.3088  1.3208
12331SOL    HW248648   2.436   0.360   2.247 -2.0667  0.0308  0.8577
12332SOL     OW48649   1.671   6.655   5.942 -0.3669 -0.3980 -0.4747
12332SOL    HW148650   1.679   6.557   5.925 -0.8921 -0.8602  1.7470
12332SOL    HW248651   1.624   6.670   6.029  2.0561  1.7596  0.5285
12333SOL     OW48652   4.006   2.893   1.101  0.3921 -0.1952 -0.1968
12333SOL    HW148653   3.918   2.889   1.147  1.3565  0.0204  1.7122
12333SOL    HW248654   3.995   2.937   1.012 -1.0363  1.8815  0.9583
12334SOL     OW48655   9.333   2.951   3.383 -0.4934 -0.7815 -0.6325
12334SOL    HW148656   9.291   2.992   3.301  0.7042  0.6813 -0.5254
12334SOL    HW248657   9.324   3.013   3.460  0.7759 -0.9865 -0.3035
12335SOL     OW48658   2.121   0.027   3.768 -0.0245  0.3494 -0.6404
12335SOL    HW148659   2.162   0.029   3.860 -2.2255  0.0141  0.3839
12335SOL    HW248660   2.142   0.112   3.721  0.2388  0.9750  0.5750
12336SOL     OW48661   7.626   3.025   5.120 -0.2201  0.3172  0.2293
12336SOL    HW148662   7.660   3.079   5.043  2.1668 -0.1546  0.9169
12336SOL    HW248663   7.700   3.008   5.185 -1.8412 -0.5628  1.9061
12337SOL     OW48664   1.679   7.419   0.158  0.1682  0.0470  0.3129
12337SOL    HW148665   1.594   7.423   0.210  1.2374  0.4315  2.0488
12337SOL    HW248666   1.697   7.509   0.117 -0.7872 -0.3163 -0.9283
12338SOL     OW48667   8.885   2.229   2.525  0.2153  0.4973  0.1236
12338SOL    HW148668   8.847   2.289   2.454  1.5620  1.3686  0.1253
12338SOL    HW248669   8.810   2.193   2.581 -0.7761  0.6029 -1.0992
12339SOL     OW48670   4.138   2.529   4.380  0.7673  0.1009  0.1321
12339SOL    HW148671   4.123   2.494   4.288 -1.3732 -0.9901  0.8728
12339SOL    HW248672   4.195   2.466   4.432 -1.4945 -1.4253  0.8508
12340SOL     OW48673   0.773   3.256   2.331  0.6935 -0.0785  0.4442
12340SOL    HW148674   0.831   3.335   2.351  0.0582  0.6553 -0.5743
12340SOL    HW248675   0.714   3.237   2.409  1.8360 -0.4100  1.2252
12341SOL     OW48676   5.493   0.250   3.647 -0.3007  0.9647  0.2638
12341SOL    HW148677   5.407   0.216   3.684 -0.4489  0.8754 -0.1608
12341SOL    HW248678   5.563   0.179   3.654 -0.2659  1.0296  0.5875
12342SOL     OW48679   8.502   4.933   0.756 -0.0814 -0.0778  0.8161
12342SOL    HW148680   8.492   5.028   0.786 -0.9939 -0.0013  0.3058
12342SOL    HW248681   8.411   4.894   0.740  0.3691 -0.1442 -1.7346
12343SOL     OW48682   9.646   1.414   5.776  0.2667 -0.4598 -0.6272
12343SOL    HW148683   9.670   1.352   5.701  1.3299  1.0058 -1.5295
12343SOL    HW248684   9.623   1.504   5.739 -0.9836 -0.2132  0.6885
12344SOL     OW48685   1.696   5.503   3.974  0.2132  0.0295  1.1179
12344SOL    HW148686   1.764   5.472   3.908 -0.7926 -0.2344  0.1927
12344SOL    HW248687   1.673   5.429   4.036 -0.4628 -0.3971  0.3720
12345SOL     OW48688   3.470   1.485   2.781 -0.1544  0.1004 -0.1697
12345SOL    HW148689   3.497   1.538   2.862 -0.4642 -0.3331  0.2161
12345SOL    HW248690   3.487   1.540   2.699 -0.4760  0.8075  0.2295
12346SOL     OW48691   3.257   6.134   2.118 -0.1057  0.6653  0.2219
12346SOL    HW148692   3.167   6.092   2.130 -0.4832  1.3108 -0.3178
12346SOL    HW248693   3.246   6.228   2.086  0.7660  0.6587 -0.1157
12347SOL     OW48694   3.847   1.422   4.760  0.0823 -0.3734  0.0234
12347SOL    HW148695   3.843   1.357   4.684 -0.4399 -3.1999  2.3685
12347SOL    HW248696   3.794   1.386   4.837  0.4872  2.4752  1.6948
12348SOL     OW48697   8.618   7.590   2.891  0.2717  0.5337 -0.0037
12348SOL    HW148698   8.559   7.667   2.866  0.4121 -0.1332 -2.5542
12348SOL    HW248699   8.571   7.504   2.872  1.9099 -0.0063 -1.8066
12349SOL     OW48700   8.667   2.169   1.774 -0.2172  0.5232 -0.7909
12349SOL    HW148701   8.755   2.126   1.754 -0.5091  0.8342 -2.8837
12349SOL    HW248702   8.638   2.145   1.867  0.7897 -1.7511 -1.0448
12350SOL     OW48703   4.888   7.914   1.383 -0.6306  0.5716 -0.1314
12350SOL    HW148704   4.858   7.981   1.451 -0.6560  3.4165 -2.8315
12350SOL    HW248705   4.811   7.892   1.323 -0.2041 -0.7579 -0.2090
12351SOL     OW48706   9.016   3.909   5.251  0.1033 -0.4212 -0.2667
12351SOL    HW148707   8.958   3.965   5.309  1.6463  0.7447  0.1755
12351SOL    HW248708   8.959   3.851   5.193 -1.4989  0.9726 -0.1155
12352SOL     OW48709   0.374   1.904   5.568  0.5225  0.3062 -0.2194
12352SOL    HW148710   0.349   1.997   5.541 -0.5038 -0.0854 -0.6261
12352SOL    HW248711   0.354   1.841   5.492 -0.8075 -0.5667  0.8399
12353SOL     OW48712   8.153   1.470   6.455 -0.4590 -0.2705 -0.4662
12353SOL    HW148713   8.201   1.454   6.369  0.5829 -0.2440  0.0991
12353SOL    HW248714   8.189   1.409   6.525 -1.1275 -0.1180  0.0182
12354SOL     OW48715   6.383   8.744   3.350  0.4194  0.3195  1.3206
12354SOL    HW148716   6.476   8.766   3.380  0.7715  1.2889 -0.4574
12354SOL    HW248717   6.336   8.827   3.322  0.5869 -0.6855 -2.1616
12355SOL     OW48718   7.109   6.819   6.777  0.0199  0.5119 -0.0945
12355SOL    HW148719   7.189   6.875   6.799 -0.3835  0.5369  1.3596
12355SOL    HW248720   7.041   6.876   6.732  0.5469  0.6399 -0.7490
12356SOL     OW48721   3.141   1.211   0.872  0.3407  0.3880  0.5555
12356SOL    HW148722   3.176   1.118   0.868 -0.7488  0.0090 -0.4643
12356SOL    HW248723   3.046   1.209   0.905  0.2826  1.1262  0.4323
12357SOL     OW48724   7.094   2.778   2.250 -0.4671 -0.2246  0.0560
12357SOL    HW148725   7.145   2.707   2.298 -0.6898  0.0032  0.6305
12357SOL    HW248726   7.054   2.841   2.316 -2.0953 -0.8004 -0.3591
12358SOL     OW48727   8.771   1.332   0.938  0.0078  0.3627  0.1201
12358SOL    HW148728   8.687   1.321   0.885  0.2334  1.9286 -0.5734
12358SOL    HW248729   8.842   1.273   0.899 -0.8818 -1.3582  1.0223
12359SOL     OW48730   1.015   8.791   6.860  0.1241 -0.2726  0.1160
12359SOL    HW148731   0.950   8.856   6.819 -1.6813 -2.3816 -0.4646
12359SOL    HW248732   0.972   8.747   6.939  1.2626 -0.8852  0.4075
12360SOL     OW48733   3.196   4.553   1.530  0.6360 -0.0064  0.1042
12360SOL    HW148734   3.289   4.524   1.504  1.5113  1.8760  1.0496
12360SOL    HW248735   3.131   4.520   1.462  2.0304 -1.1444 -0.7125
12361SOL     OW48736   4.964   3.469   1.416 -0.6149 -0.2709 -0.2209
12361SOL    HW148737   5.061   3.458   1.438 -0.9691 -0.9649  1.0779
12361SOL    HW248738   4.922   3.379   1.405 -1.6308 -0.0533  1.6522
12362SOL     OW48739   2.262   2.805   2.301  0.0127  0.1073  0.5874
12362SOL    HW148740   2.191   2.735   2.303 -0.5058  0.6092 -0.1509
12362SOL    HW248741   2.247   2.869   2.376  0.1612 -0.2500  0.9237
12363SOL     OW48742   0.260   5.599   3.095 -0.3043 -0.0378 -0.6154
12363SOL    HW148743   0.354   5.627   3.074 -0.0827 -0.0924  0.2844
12363SOL    HW248744   0.257   5.560   3.187 -1.1754 -0.2149 -0.7171
12364SOL     OW48745   2.428   2.279   3.917 -0.0379  0.5456  0.6420
12364SOL    HW148746   2.440   2.258   3.820  1.8299  0.2594  0.9269
12364SOL    HW248747   2.466   2.205   3.972 -0.8854  0.8133  1.6109
12365SOL     OW48748   9.854   9.443   6.610  0.1811  0.0178 -0.6174
12365SOL    HW148749   9.812   9.512   6.551 -0.6967  1.2205  1.3385
12365SOL    HW248750   9.785   9.377   6.639  0.3270  0.1130 -0.0297
12366SOL     OW48751   7.969   4.475   7.772  0.6981 -0.2401 -0.2927
12366SOL    HW148752   7.986   4.474   7.674  2.9204 -1.0899  0.0726
12366SOL    HW248753   7.902   4.404   7.796 -0.3798  0.4357 -1.2541
12367SOL     OW48754   0.079   8.108   7.024 -0.3443  0.4126  0.4136
12367SOL    HW148755   0.177   8.118   7.008 -0.3853  1.7750  0.9688
12367SOL    HW248756   0.064   8.054   7.107 -0.1038 -2.3225 -1.2664
12368SOL     OW48757   7.990   9.739   5.210 -0.1478  0.0158 -0.0533
12368SOL    HW148758   8.028   9.732   5.117  0.4492  0.7703  0.1228
12368SOL    HW248759   8.043   9.681   5.272 -0.0180  0.1584 -0.0299
12369SOL     OW48760   3.749   0.752   2.925 -0.1616  0.4068 -0.3488
12369SOL    HW148761   3.732   0.714   2.834 -0.3119 -0.1406 -0.0926
12369SOL    HW248762   3.676   0.817   2.947 -0.9692 -0.6067  0.0068
12370SOL     OW48763   7.164   1.715   5.891 -0.0574  0.6779 -0.4277
12370SOL    HW148764   7.119   1.727   5.980  2.1148  0.3833  0.7317
12370SOL    HW248765   7.244   1.774   5.885  0.2770  0.1035 -1.8869
12371SOL     OW48766   9.717   0.942   3.682 -0.4578 -0.2236 -0.6153
12371SOL    HW148767   9.682   0.848   3.680  1.2431 -0.8791 -0.6591
12371SOL    HW248768   9.755   0.961   3.773 -1.2056  0.5855 -0.4647
12372SOL     OW48769   1.985   3.101   3.914  0.0847  0.4249  0.4114
12372SOL    HW148770   2.023   3.158   3.986 -1.0178 -1.5634  2.6212
12372SOL    HW248771   1.916   3.040   3.952  0.9446 -2.1377 -1.9253
12373SOL     OW48772   3.887   9.693   4.765  0.2529  0.2783 -0.3537
12373SOL    HW148773   3.963   9.638   4.729  0.9919  0.5820  0.7059
12373SOL    HW248774   3.924   9.767   4.821 -0.8147  0.7845 -0.3104
12374SOL     OW48775   8.033   1.341   1.962 -0.7927 -0.7867 -0.2437
12374SOL    HW148776   8.021   1.259   2.018 -2.5845 -0.2608  0.1852
12374SOL    HW248777   7.999   1.420   2.012  1.2030  0.2641 -0.5408
12375SOL     OW48778   3.782   8.909   3.806  0.3425 -0.0445  0.4649
12375SOL    HW148779   3.859   8.856   3.842  1.7877  1.1555 -0.8102
12375SOL    HW248780   3.696   8.872   3.842  1.5684 -0.7107  2.7860
12376SOL     OW48781   3.707   7.050   4.881  0.4484  0.2974  0.3222
12376SOL    HW148782   3.681   6.979   4.815 -0.3751 -1.0199  2.0008
12376SOL    HW248783   3.732   7.006   4.968  3.2258  1.8816  0.3647
12377SOL     OW48784   7.743   8.808   3.923 -0.1623 -0.5745  0.0016
12377SOL    HW148785   7.665   8.810   3.986 -0.2618  4.6300 -0.0829
12377SOL    HW248786   7.823   8.848   3.969  1.3635 -2.1147 -1.2756
12378SOL     OW48787   1.687   2.983   1.440  0.2770 -0.3853 -0.0412
12378SOL    HW148788   1.753   2.936   1.499 -0.5850 -0.9199  0.5037
12378SOL    HW248789   1.693   2.947   1.347  1.6743  0.4921 -0.2993
12379SOL     OW48790   3.015   4.541   3.594  0.3147  0.0306 -0.2134
12379SOL    HW148791   3.003   4.443   3.580 -0.6338  0.2438 -0.9363
12379SOL    HW248792   3.108   4.567   3.570  0.6819 -0.7529  0.3440
12380SOL     OW48793   0.800   3.938   0.391 -0.1629  0.0472  0.6130
12380SOL    HW148794   0.774   3.966   0.299 -1.3755 -0.4066  0.8113
12380SOL    HW248795   0.728   3.881   0.431  0.7002 -0.4219  1.5457
12381SOL     OW48796   1.820   2.611   7.849  0.4131  0.6756 -0.5940
12381SOL    HW148797   1.781   2.702   7.840 -0.2426  0.4022 -0.5299
12381SOL    HW248798   1.818   2.582   7.944  1.2264  0.8585 -0.5157
12382SOL     OW48799   6.032   2.191   5.244  0.4664 -0.2277 -0.0465
12382SOL    HW148800   5.937   2.219   5.230 -0.3032 -2.2941  0.9215
12382SOL    HW248801   6.059   2.212   5.338  0.2813 -1.5585  0.3124
12383SOL     OW48802   2.599   0.050   0.238  0.0689 -0.0049 -0.1426
12383SOL    HW148803   2.557   0.078   0.151 -0.4374 -0.1341  0.0567
12383SOL    HW248804   2.527   0.042   0.308  0.4032 -0.4413  0.1489
12384SOL     OW48805   8.325   1.261   1.530 -0.3173 -0.2190 -0.3435
12384SOL    HW148806   8.407   1.312   1.558  0.3856 -1.4245 -0.1899
12384SOL    HW248807   8.247   1.293   1.582  0.3960 -0.2886  0.7925
12385SOL     OW48808   1.907   6.615   1.934 -0.3321  0.1309 -0.1084
12385SOL    HW148809   1.851   6.682   1.982 -0.5978 -0.3823  0.2987
12385SOL    HW248810   1.991   6.659   1.901 -1.2144  1.0241 -1.1771
12386SOL     OW48811   9.027   8.985   4.813  0.0806  0.0051  0.3277
12386SOL    HW148812   8.970   8.921   4.761 -0.5751 -1.5014  2.8184
12386SOL    HW248813   8.969   9.056   4.854  0.4718  0.6376 -0.1993
12387SOL     OW48814   4.939   3.794   6.126 -0.1934 -0.5380  0.0033
12387SOL    HW148815   4.841   3.809   6.136 -0.0588 -0.2674  0.9685
12387SOL    HW248816   4.957   3.697   6.112 -0.5713 -0.6265  0.1254
12388SOL     OW48817   4.682   0.096   1.013  0.0712  0.1457 -0.0752
12388SOL    HW148818   4.621   0.152   0.957  1.3952  1.4609 -0.2178
12388SOL    HW248819   4.686   0.133   1.106  1.1502  0.4642 -0.2379
12389SOL     OW48820   8.654   9.792   4.111 -0.3601 -0.3320  0.5766
12389SOL    HW148821   8.721   9.791   4.037 -0.3914 -1.3108  0.5615
12389SOL    HW248822   8.574   9.846   4.082 -0.1296 -0.2263  0.1233
12390SOL     OW48823   8.918   8.927   1.355  0.1394  0.3317 -0.5570
12390SOL    HW148824   8.857   8.990   1.403 -0.1151  0.8390 -1.5350
12390SOL    HW248825   8.884   8.833   1.365  1.1196  0.2018  1.8155
12391SOL     OW48826   1.295   2.462   7.849  0.9768  0.2378 -0.3781
12391SOL    HW148827   1.390   2.483   7.826  1.0799  0.6573  0.4020
12391SOL    HW248828   1.266   2.521   7.924  0.7857 -1.3572  0.8243
12392SOL     OW48829   5.358   6.640   1.983 -0.5526  0.5310 -0.1503
12392SOL    HW148830   5.295   6.584   2.037  0.8170  0.1425  1.0961
12392SOL    HW248831   5.426   6.681   2.044  1.0386  0.0940 -1.5869
12393SOL     OW48832   7.435   6.139   5.473  0.2318  0.0407  0.4191
12393SOL    HW148833   7.371   6.215   5.485 -1.2155 -1.2535  1.1167
12393SOL    HW248834   7.385   6.059   5.439  1.9338 -0.2629 -1.4620
12394SOL     OW48835   2.543   0.743   5.722 -0.6961  0.1265  0.7383
12394SOL    HW148836   2.485   0.684   5.778  1.5354 -1.9421  0.9729
12394SOL    HW248837   2.531   0.838   5.750 -2.5669 -0.4556  2.0123
12395SOL     OW48838   1.020   8.379   7.099 -0.1840  0.5503  0.2744
12395SOL    HW148839   1.025   8.448   7.171 -0.6591  0.7056  0.1650
12395SOL    HW248840   1.107   8.332   7.091  0.2225  1.3211  0.1683
12396SOL     OW48841   6.807   7.883   2.339 -0.0032  0.7548  0.1310
12396SOL    HW148842   6.875   7.854   2.405 -1.9028 -0.7862  1.4822
12396SOL    HW248843   6.790   7.810   2.272  0.6327  1.6344 -1.0119
12397SOL     OW48844   4.733   0.941   4.313 -0.0492  0.1511 -0.4706
12397SOL    HW148845   4.832   0.953   4.305 -0.2705  1.1339 -2.0081
12397SOL    HW248846   4.700   0.891   4.233 -0.5758 -1.7103  0.8777
12398SOL     OW48847   9.441   3.223   6.224 -0.1018 -0.4112  0.1399
12398SOL    HW148848   9.397   3.311   6.242 -0.4819 -0.5652 -0.0259
12398SOL    HW248849   9.508   3.203   6.296 -0.3154 -0.1855  0.4000
12399SOL     OW48850   0.602   3.225   5.716 -0.5171  0.7214  0.0493
12399SOL    HW148851   0.529   3.189   5.658 -0.2193  0.6556 -0.2837
12399SOL    HW248852   0.563   3.253   5.804 -0.3870 -2.3620  1.1146
12400SOL     OW48853   2.080   7.376   0.807 -0.2760 -0.1731 -0.3051
12400SOL    HW148854   2.132   7.364   0.891 -1.7886 -1.6708  0.4504
12400SOL    HW248855   2.133   7.341   0.730  0.5554 -0.0689  0.2198
12401SOL     OW48856   2.183   8.327   0.469 -0.3608  0.1774 -0.3633
12401SOL    HW148857   2.090   8.363   0.475 -0.3952  0.0765 -0.2892
12401SOL    HW248858   2.215   8.333   0.375  0.6296  2.8930  0.0968
12402SOL     OW48859   9.657   2.914   3.344 -0.0671 -0.1303 -0.0171
12402SOL    HW148860   9.681   2.852   3.269  2.2037 -0.4205  0.9088
12402SOL    HW248861   9.561   2.941   3.335 -0.9968 -3.3774 -0.7583
12403SOL     OW48862   6.773   3.867   0.660  0.2681  0.5596  0.6377
12403SOL    HW148863   6.760   3.965   0.675  0.0346  0.7164 -0.5453
12403SOL    HW248864   6.693   3.829   0.614  1.5643  0.4134 -1.5541
12404SOL     OW48865   0.994   1.167   4.479 -0.2049  0.5458  0.2237
12404SOL    HW148866   0.902   1.184   4.443 -0.0162 -2.4499 -1.9316
12404SOL    HW248867   0.988   1.101   4.554  0.1599  0.4681  0.1826
12405SOL     OW48868   5.186   9.287   7.130 -0.0749 -0.8760  0.6423
12405SOL    HW148869   5.108   9.344   7.159  1.1900  0.4798  1.4650
12405SOL    HW248870   5.171   9.256   7.036 -0.1422  2.1002 -0.4132
12406SOL     OW48871   1.874   9.528   2.763 -0.5041  0.1207 -0.1684
12406SOL    HW148872   1.892   9.620   2.798 -1.3923  0.7863 -1.4102
12406SOL    HW248873   1.961   9.485   2.738 -0.1088  0.7444  0.1130
12407SOL     OW48874   2.916   7.474   0.389  0.2451 -0.2585  0.2323
12407SOL    HW148875   2.877   7.432   0.308  0.8045  1.6725 -1.0826
12407SOL    HW248876   2.968   7.406   0.441 -0.0943 -1.4969 -1.0303
12408SOL     OW48877   8.787   3.326   6.591  0.0854 -0.0112  0.2452
12408SOL    HW148878   8.783   3.372   6.679  1.2392  3.4785 -1.4136
12408SOL    HW248879   8.707   3.351   6.536 -0.3148 -1.6645  0.0486
12409SOL     OW48880   9.573   5.332   1.247 -0.1484  0.5318 -0.2112
12409SOL    HW148881   9.618   5.364   1.164 -0.3624  0.8760 -0.1969
12409SOL    HW248882   9.544   5.411   1.301  1.1354  0.3101  0.8248
12410SOL     OW48883   1.149   7.312   6.880  0.1894 -0.1193  0.3628
12410SOL    HW148884   1.206   7.268   6.950 -0.1562  0.2025  0.8570
12410SOL    HW248885   1.197   7.313   6.793  1.0505  0.3694  0.8312
12411SOL     OW48886   4.449   9.450   7.785  0.2132 -0.2516 -0.4172
12411SOL    HW148887   4.528   9.442   7.724  1.4724  0.8392  1.0116
12411SOL    HW248888   4.468   9.398   7.869 -1.2792 -1.3303 -0.7420
12412SOL     OW48889   2.993   6.541   8.180  0.5254  0.0668  0.4642
12412SOL    HW148890   2.996   6.465   8.245  0.6475 -0.6657 -0.3728
12412SOL    HW248891   3.054   6.614   8.210  0.0686  0.0283  1.5102
12413SOL     OW48892   5.070   0.142   3.780 -0.1687  0.1347  0.2337
12413SOL    HW148893   4.999   0.118   3.714 -0.8023 -0.5471  1.1445
12413SOL    HW248894   5.141   0.072   3.781 -0.1791  0.1251  0.3027
12414SOL     OW48895   3.987   6.398   2.126  0.6393  0.2689  0.2029
12414SOL    HW148896   4.020   6.356   2.042 -0.5226 -1.1375  0.4154
12414SOL    HW248897   3.892   6.368   2.143  0.4407  1.4978  1.3596
12415SOL     OW48898   8.924   6.433   6.647 -0.0132  0.3433  0.2336
12415SOL    HW148899   8.951   6.345   6.608 -0.8723 -0.6353  1.7875
12415SOL    HW248900   9.000   6.497   6.641  0.0468  0.0561 -2.5100
12416SOL     OW48901   6.620   7.487   4.128 -0.5085  0.8034  0.1566
12416SOL    HW148902   6.648   7.428   4.203  0.7678  1.2501  0.0491
12416SOL    HW248903   6.602   7.432   4.047 -2.0114  0.3096  0.8172
12417SOL     OW48904   5.545   4.670   0.369 -0.1801 -0.2813  0.0747
12417SOL    HW148905   5.517   4.630   0.456 -1.1373  0.9756  0.3592
12417SOL    HW248906   5.472   4.729   0.333  1.0076  0.8633 -0.5427
12418SOL     OW48907   5.148   0.366   7.172  0.1125  0.1122  0.2710
12418SOL    HW148908   5.210   0.342   7.098  0.6937 -0.8249  1.0490
12418SOL    HW248909   5.191   0.434   7.231 -0.1277  0.4379  0.0758
12419SOL     OW48910   6.577   4.740   1.270 -0.0234 -0.1086 -0.2679
12419SOL    HW148911   6.605   4.826   1.314 -0.8041 -2.3882  5.1792
12419SOL    HW248912   6.477   4.737   1.264 -0.0782 -1.1122  0.8341
12420SOL     OW48913   2.617   7.904   7.230 -0.0476 -0.2251 -0.6322
12420SOL    HW148914   2.580   7.842   7.161 -1.3623 -0.6710  0.4414
12420SOL    HW248915   2.541   7.947   7.280  0.8603 -0.9645  1.4544
12421SOL     OW48916   6.384   7.649   3.988 -0.6678  0.2764 -0.1396
12421SOL    HW148917   6.469   7.611   4.024 -1.2090 -0.4834  0.3445
12421SOL    HW248918   6.321   7.666   4.063 -1.8123 -1.3344 -0.7030
12422SOL     OW48919   8.498   4.354   7.021 -1.4323 -0.0886  0.7780
12422SOL    HW148920   8.586   4.334   7.062 -0.9944  0.2225 -0.0003
12422SOL    HW248921   8.439   4.400   7.087 -0.8128  0.2155  1.1158
12423SOL     OW48922   2.202   6.929   1.545 -0.1622 -0.4389  0.4730
12423SOL    HW148923   2.240   6.839   1.562 -1.3871 -1.1016 -0.2187
12423SOL    HW248924   2.232   6.963   1.456 -0.9016 -0.8245  0.0686
12424SOL     OW48925   7.295   3.485   1.326  0.6039 -0.4386  0.0581
12424SOL    HW148926   7.230   3.517   1.257  1.1260  1.0399  0.2316
12424SOL    HW248927   7.388   3.495   1.291  0.7774 -1.8155  0.1106
12425SOL     OW48928   8.152   5.242   5.481 -0.3951  0.0032 -0.1278
12425SOL    HW148929   8.220   5.275   5.547  0.1265 -1.3307  0.0218
12425SOL    HW248930   8.065   5.225   5.527 -0.4938  0.6012 -0.0944
12426SOL     OW48931   4.302   3.174   2.735  0.3863 -0.3369 -0.3089
12426SOL    HW148932   4.224   3.235   2.720 -1.3453 -2.0049  1.6765
12426SOL    HW248933   4.358   3.209   2.810 -0.5932 -1.1301  0.8133
12427SOL     OW48934   1.036   3.384   0.174  0.1844  0.0626  0.1274
12427SOL    HW148935   1.113   3.322   0.191 -0.1951 -0.0435  1.5534
12427SOL    HW248936   1.016   3.388   0.076  0.1827 -2.1228  0.0235
12428SOL     OW48937   1.212   5.388   3.568  0.2256  0.1915 -0.3031
12428SOL    HW148938   1.311   5.403   3.571  0.1206  1.1323 -1.3238
12428SOL    HW248939   1.177   5.379   3.661  1.2146  0.2158  0.0771
12429SOL     OW48940   9.415   9.481   5.626  0.0237  0.1287  0.1079
12429SOL    HW148941   9.451   9.574   5.622 -0.3158  0.2506 -0.1713
12429SOL    HW248942   9.338   9.473   5.563  1.9542 -1.1835 -2.1318
12430SOL     OW48943   8.244   7.464   1.507  0.1263  0.6615 -0.1584
12430SOL    HW148944   8.237   7.437   1.411  0.3954 -0.4540  0.1218
12430SOL    HW248945   8.192   7.547   1.523  1.9755  2.1453 -1.7468
12431SOL     OW48946   7.860   6.902   2.948 -0.2704 -0.2813 -0.4108
12431SOL    HW148947   7.814   6.989   2.933 -0.4955  0.2417  2.7908
12431SOL    HW248948   7.813   6.830   2.897 -0.9626  1.2188 -1.9407
12432SOL     OW48949   0.493   5.215   6.831 -0.4021 -0.1502  0.1426
12432SOL    HW148950   0.459   5.185   6.742  0.3430 -0.3468 -0.0798
12432SOL    HW248951   0.531   5.307   6.823 -0.7173  0.0018  0.3564
12433SOL     OW48952   1.836   4.633   2.338 -0.1935 -0.2464  0.0763
12433SOL    HW148953   1.818   4.689   2.258 -1.0362 -0.6354 -0.0058
12433SOL    HW248954   1.768   4.560   2.345  1.7016 -2.1726 -0.6416
12434SOL     OW48955   1.306   9.813   2.272  0.2519  0.5593 -0.0043
12434SOL    HW148956   1.403   9.790   2.285  0.3515  1.7171  1.4619
12434SOL    HW248957   1.263   9.826   2.361 -1.4007 -0.4609 -0.6301
12435SOL     OW48958   2.481   1.224   6.214 -0.1675 -0.0355  0.2634
12435SOL    HW148959   2.399   1.199   6.163  0.3623 -2.5373  0.5543
12435SOL    HW248960   2.458   1.234   6.311 -0.5134  1.3366  0.0480
12436SOL     OW48961   6.080   0.601   1.756  0.0980  0.2429 -0.1031
12436SOL    HW148962   6.092   0.506   1.725  2.7849  1.0577 -1.6963
12436SOL    HW248963   6.024   0.651   1.690 -2.0632 -0.4098  1.1781
12437SOL     OW48964   4.319   2.414   4.550 -0.0062  0.6098 -0.5836
12437SOL    HW148965   4.238   2.370   4.589  0.1421 -0.3787 -1.3561
12437SOL    HW248966   4.387   2.344   4.527  2.3729  1.6539  2.8911
12438SOL     OW48967   6.218   1.378   6.599  0.5305  0.8278 -0.3744
12438SOL    HW148968   6.177   1.450   6.654  0.1593 -0.2628  0.8189
12438SOL    HW248969   6.200   1.394   6.502 -2.5797  0.4606  0.1065
12439SOL     OW48970   2.466   7.034   6.541 -0.0848 -0.0286  0.4013
12439SOL    HW148971   2.373   7.056   6.571  0.2395 -0.2017  1.5574
12439SOL    HW248972   2.480   7.069   6.449 -0.9029  1.0447  0.6739
12440SOL     OW48973   8.663   4.237   6.412  0.5306  0.1062  0.5369
12440SOL    HW148974   8.736   4.217   6.477  0.5254  0.4510  0.6469
12440SOL    HW248975   8.669   4.173   6.335  1.7040  0.9432 -0.0683
12441SOL     OW48976   6.742   0.397   2.689  0.0643 -0.1778 -0.1008
12441SOL    HW148977   6.769   0.322   2.750 -0.1935 -0.5417 -0.4350
12441SOL    HW248978   6.705   0.473   2.744 -1.0429 -0.8727  0.1180
12442SOL     OW48979   2.749   3.092   3.663 -0.0495 -0.0306 -0.2300
12442SOL    HW148980   2.740   3.187   3.630 -1.2261 -0.5154 -1.3470
12442SOL    HW248981   2.686   3.077   3.739 -1.3120 -0.4720 -1.3461
12443SOL     OW48982   9.226   5.797   3.346  0.0614 -0.4351  0.3199
12443SOL    HW148983   9.321   5.825   3.355  0.2812 -0.3808 -1.8498
12443SOL    HW248984   9.166   5.873   3.372  0.5912 -0.4627  1.6586
12444SOL     OW48985   8.267   7.512   4.418  0.3301 -0.1431  0.0474
12444SOL    HW148986   8.215   7.462   4.349 -0.8651 -1.7910  2.0696
12444SOL    HW248987   8.220   7.597   4.441 -0.4172 -0.6464  0.4011
12445SOL     OW48988   2.028   7.097   4.593  0.1271 -0.7050 -0.1700
12445SOL    HW148989   2.063   7.189   4.608 -0.8177 -0.2479 -0.7485
12445SOL    HW248990   1.955   7.077   4.660  0.5080 -1.1303  0.1242
12446SOL     OW48991   8.291   8.963   8.113 -0.4711  0.0474 -0.1201
12446SOL    HW148992   8.298   8.863   8.114 -0.4850  0.0328 -1.2041
12446SOL    HW248993   8.266   8.995   8.204  1.2233 -0.8183  0.6911
12447SOL     OW48994   1.208   9.374   1.499 -0.0839 -0.4138 -0.1605
12447SOL    HW148995   1.177   9.434   1.425  1.1473  0.4208 -0.0242
12447SOL    HW248996   1.145   9.382   1.577 -0.3037  0.2126 -0.3977
12448SOL     OW48997   8.653   1.725   0.860  0.1873  0.5532  0.3282
12448SOL    HW148998   8.598   1.734   0.943  2.0742 -0.0061  1.6686
12448SOL    HW248999   8.595   1.742   0.780 -1.8699  0.2092  1.6955
12449SOL     OW49000   7.031   1.183   4.516 -0.3195 -0.0628 -0.0787
12449SOL    HW149001   7.037   1.209   4.612 -1.0623 -1.4278  0.3481
12449SOL    HW249002   6.995   1.260   4.463  1.0266  1.0336  0.5645
12450SOL     OW49003   0.701   4.828   1.856 -0.2907 -0.2307  0.2656
12450SOL    HW149004   0.774   4.780   1.905  1.6009  2.1971 -0.0832
12450SOL    HW249005   0.733   4.850   1.764 -1.9555 -0.2290 -0.3267
12451SOL     OW49006   0.461   0.711   4.354  0.4673  0.0180 -0.7224
12451SOL    HW149007   0.478   0.723   4.452  0.9770  0.8904 -0.9127
12451SOL    HW249008   0.542   0.740   4.302 -0.9241  2.6456 -1.5446
12452SOL     OW49009   0.400   0.588   4.717  0.2219 -0.1749 -0.3709
12452SOL    HW149010   0.342   0.606   4.638  0.1714 -0.3464 -0.3735
12452SOL    HW249011   0.348   0.603   4.801 -0.4638 -2.3342 -0.3720
12453SOL     OW49012   3.354   6.981   1.937 -0.3361  0.4338  0.1259
12453SOL    HW149013   3.271   7.036   1.932 -0.5217  0.0856 -0.8000
12453SOL    HW249014   3.339   6.894   1.890  0.6524  0.4987 -0.3282
12454SOL     OW49015   6.142   0.077   5.404  0.3987 -0.6871  0.3743
12454SOL    HW149016   6.161   0.018   5.483 -0.6448  0.4047  1.4592
12454SOL    HW249017   6.093   0.159   5.434  1.8484  0.7710 -1.1164
12455SOL     OW49018   8.813   1.555   7.206  1.0066 -0.1543  0.4303
12455SOL    HW149019   8.732   1.530   7.154  0.4117  0.1647  1.1825
12455SOL    HW249020   8.813   1.654   7.222  0.1539 -0.4906  2.6949
12456SOL     OW49021   0.771   8.906   4.490 -0.1759  0.0003  0.3005
12456SOL    HW149022   0.744   8.988   4.540 -0.7495 -0.1961  0.3194
12456SOL    HW249023   0.853   8.867   4.532  1.0043  1.4085 -0.6335
12457SOL     OW49024   7.818   0.802   1.113  0.1802  0.6459  0.0593
12457SOL    HW149025   7.780   0.731   1.054  0.7510  1.0338 -0.7823
12457SOL    HW249026   7.916   0.788   1.124  0.5563  2.0763 -1.2458
12458SOL     OW49027   4.149   7.182   3.024 -0.0671  0.2025 -0.2181
12458SOL    HW149028   4.081   7.249   2.992  0.5401  0.9544  0.0559
12458SOL    HW249029   4.133   7.095   2.978  1.1671  1.4350 -3.1056
12459SOL     OW49030   5.148   7.588   1.619 -0.4938  0.0702  0.2795
12459SOL    HW149031   5.091   7.635   1.551  0.0275 -0.5606 -0.6083
12459SOL    HW249032   5.095   7.573   1.702 -1.5160 -0.2144 -0.4111
12460SOL     OW49033   4.487   9.447   0.905  0.2891 -0.4998  0.6789
12460SOL    HW149034   4.547   9.368   0.894  0.9163 -0.1716  1.7458
12460SOL    HW249035   4.505   9.491   0.992 -0.7124  0.2775  0.5017
12461SOL     OW49036   3.017   9.646   7.339  0.0735  0.0729  0.4012
12461SOL    HW149037   3.037   9.548   7.334  1.5345  0.3661  0.1211
12461SOL    HW249038   3.102   9.697   7.330 -0.4348  1.3259  2.4706
12462SOL     OW49039   9.465   1.011   2.318  0.0602  0.3020  0.1455
12462SOL    HW149040   9.516   1.023   2.403 -0.0286  0.7387  0.1411
12462SOL    HW249041   9.443   1.101   2.280  1.8890  0.1540 -1.3892
12463SOL     OW49042   9.831   5.336   0.214 -0.6132  0.1601 -0.0237
12463SOL    HW149043   9.796   5.349   0.307  1.1262 -1.4355  0.8957
12463SOL    HW249044   9.931   5.344   0.215 -0.5373 -0.3959 -1.6794
12464SOL     OW49045   0.382   6.704   2.860 -0.1558 -0.3333 -0.1430
12464SOL    HW149046   0.338   6.662   2.780  0.7267 -0.9507 -0.3065
12464SOL    HW249047   0.373   6.804   2.854  2.1396 -0.2122 -2.3469
12465SOL     OW49048   1.087   9.064   1.515  0.0443  0.3939  0.2349
12465SOL    HW149049   0.992   9.092   1.530  0.1896 -0.0107  2.0644
12465SOL    HW249050   1.115   9.091   1.424 -1.1591  2.4423  0.4290
12466SOL     OW49051   7.135   3.603   0.453  0.5670 -0.0160 -0.7382
12466SOL    HW149052   7.090   3.661   0.521  3.2378 -0.2631  1.3373
12466SOL    HW249053   7.125   3.507   0.481  2.5420 -0.0545 -0.1267
12467SOL     OW49054   7.270   4.188   2.128  0.1210  0.0731  0.1180
12467SOL    HW149055   7.270   4.287   2.111  0.2870  0.1568  0.5953
12467SOL    HW249056   7.204   4.144   2.067  0.7351  0.3598 -0.7582
12468SOL     OW49057   6.984   8.312   3.482 -0.5244  0.6183 -0.3430
12468SOL    HW149058   7.023   8.221   3.496 -0.4928  0.6683 -0.1022
12468SOL    HW249059   7.012   8.347   3.392  1.3458  1.3231  0.4781
12469SOL     OW49060   9.348   8.153   4.479 -0.6145  0.3251  0.3852
12469SOL    HW149061   9.410   8.082   4.447  0.5603  1.0058  1.1231
12469SOL    HW249062   9.316   8.129   4.571  0.1155  0.9537  0.8072
12470SOL     OW49063   0.376   4.440   5.802  0.3866  0.0901  0.0797
12470SOL    HW149064   0.367   4.370   5.732 -1.1637 -0.4908  0.8551
12470SOL    HW249065   0.290   4.490   5.811  0.4814 -0.0402  1.7814
12471SOL     OW49066   8.328   0.155   1.500  0.4559 -0.2743  0.3308
12471SOL    HW149067   8.394   0.134   1.572 -0.1551 -3.3821  0.0526
12471SOL    HW249068   8.364   0.122   1.412 -0.8331 -0.6466 -0.0568
12472SOL     OW49069   0.268   5.104   2.891 -0.3596  0.3346 -0.4533
12472SOL    HW149070   0.177   5.087   2.930  0.3580  0.7706  1.4832
12472SOL    HW249071   0.330   5.031   2.918  0.3624  1.0776 -0.0924
12473SOL     OW49072   4.456   8.047   5.891 -0.3799 -0.0061 -0.8617
12473SOL    HW149073   4.412   8.014   5.807 -1.3522  0.9310 -0.7268
12473SOL    HW249074   4.420   7.996   5.970  1.1399 -1.4647 -1.0897
12474SOL     OW49075   3.502   5.968   7.567 -0.0360 -0.3056 -0.0972
12474SOL    HW149076   3.471   6.038   7.631 -0.0910 -0.6908  0.3062
12474SOL    HW249077   3.436   5.959   7.492 -1.4280 -1.7986  1.2640
12475SOL     OW49078   2.327   2.143   1.638 -0.0785 -0.6531  0.1223
12475SOL    HW149079   2.234   2.170   1.616  0.9911  2.6176 -0.7619
12475SOL    HW249080   2.391   2.192   1.579  2.3297 -0.3398  2.8387
12476SOL     OW49081   8.430   5.080   1.304  0.2534 -0.0807 -0.1658
12476SOL    HW149082   8.417   5.036   1.215 -1.3012 -0.3988  0.2093
12476SOL    HW249083   8.391   5.172   1.302 -2.1901 -1.0597  0.9899
12477SOL     OW49084   8.056   8.808   5.094  0.4101  0.0870 -0.4005
12477SOL    HW149085   8.057   8.755   5.009 -0.9704  0.6417 -0.7706
12477SOL    HW249086   8.006   8.893   5.080  0.3256  0.2665  0.9310
12478SOL     OW49087   2.373   8.795   1.526 -0.0554  0.7697 -0.6109
12478SOL    HW149088   2.378   8.745   1.612  2.6008  0.3052 -0.9766
12478SOL    HW249089   2.340   8.735   1.454  0.6941  0.2576 -0.5347
12479SOL     OW49090   1.629   5.034   1.385 -0.3222  0.0055  0.5567
12479SOL    HW149091   1.592   5.004   1.297  2.3971 -0.0417 -0.6207
12479SOL    HW249092   1.695   4.966   1.418 -0.2187  0.7488  1.8947
12480SOL     OW49093   0.208   2.561   7.897 -0.2521 -0.2201  0.3220
12480SOL    HW149094   0.142   2.487   7.883  0.3868 -0.7368 -0.0087
12480SOL    HW249095   0.215   2.615   7.813 -0.0594 -0.3308  0.2663
12481SOL     OW49096   3.868   4.650   2.487 -0.7372 -0.2782  0.6324
12481SOL    HW149097   3.918   4.701   2.417 -1.6710  0.1765  0.2858
12481SOL    HW249098   3.903   4.556   2.492 -0.5194 -0.2467 -0.2894
12482SOL     OW49099   0.990   1.994   1.982  0.0138 -0.0538 -0.4468
12482SOL    HW149100   0.979   2.028   1.889  1.4188 -1.0594 -1.0128
12482SOL    HW249101   1.055   1.918   1.982 -1.3465 -1.2691  1.0935
12483SOL     OW49102   3.879   3.326   7.114  0.4644 -0.2635 -0.6217
12483SOL    HW149103   3.936   3.256   7.071 -0.1716 -1.7589  0.8923
12483SOL    HW249104   3.798   3.282   7.153 -1.3886  1.7245 -2.1396
12484SOL     OW49105   2.864   0.540   7.501 -0.2292  0.0980  0.3744
12484SOL    HW149106   2.961   0.549   7.482 -0.1624 -1.3593 -0.0996
12484SOL    HW249107   2.814   0.534   7.415 -0.5203 -1.0722  0.6117
12485SOL     OW49108   8.308   7.953   2.092  0.1867  0.1053 -0.5874
12485SOL    HW149109   8.341   7.893   2.019 -1.4589 -1.1697 -0.3222
12485SOL    HW249110   8.265   7.897   2.163  1.2026  1.3856  1.0616
12486SOL     OW49111   8.647   4.814   6.595 -0.2073 -0.2726 -0.0221
12486SOL    HW149112   8.579   4.755   6.552  0.2341 -1.0541  0.3568
12486SOL    HW249113   8.602   4.895   6.633 -0.9982 -1.1159  0.8267
12487SOL     OW49114   7.993   5.416   4.333  0.3548  0.2372  0.1924
12487SOL    HW149115   7.941   5.476   4.272 -0.2073  0.4384  0.8605
12487SOL    HW249116   7.977   5.444   4.428  0.7754 -0.4261  0.4577
12488SOL     OW49117   3.062   9.482   0.875 -0.0853 -0.9606  0.3169
12488SOL    HW149118   3.101   9.393   0.900 -1.8282 -1.1286  2.5966
12488SOL    HW249119   2.964   9.472   0.857  0.0336  0.2190 -1.1378
12489SOL     OW49120   2.801   9.473   0.822  0.1067 -0.4664  0.3341
12489SOL    HW149121   2.757   9.526   0.750  0.2960 -0.6553  0.0785
12489SOL    HW249122   2.733   9.449   0.892 -0.2033 -0.7567 -0.0590
12490SOL     OW49123   5.769   8.041   4.779  0.1755  0.3004  0.0995
12490SOL    HW149124   5.781   7.942   4.777  0.4250  0.2959  1.4463
12490SOL    HW249125   5.679   8.065   4.741  0.7661 -0.3061 -1.7384
12491SOL     OW49126   2.331   7.299   2.174 -0.1079  0.5383  0.4202
12491SOL    HW149127   2.297   7.268   2.263 -0.2305  1.4700  0.7002
12491SOL    HW249128   2.416   7.251   2.152 -1.2633 -1.3506 -0.0015
12492SOL     OW49129   1.024   6.396   6.357 -0.1798 -0.1490  0.4612
12492SOL    HW149130   1.010   6.394   6.258 -0.4988 -2.8062  0.5396
12492SOL    HW249131   1.112   6.353   6.379  0.1922  1.0109  1.2985
12493SOL     OW49132   8.342   4.436   4.481  0.0668 -0.0336 -0.0830
12493SOL    HW149133   8.386   4.506   4.536  0.3834 -0.9210  0.8020
12493SOL    HW249134   8.243   4.451   4.480  0.0556 -0.0674  0.7936
12494SOL     OW49135   7.681   4.943   0.426  0.2337 -0.7276  0.1926
12494SOL    HW149136   7.771   4.987   0.425 -0.5560  0.9594  0.7586
12494SOL    HW249137   7.666   4.901   0.516 -0.9003  1.9624  1.3096
12495SOL     OW49138   3.395   9.864   6.352 -0.0326  0.0060  0.5918
12495SOL    HW149139   3.404   9.947   6.408  1.1527  0.2159  0.1020
12495SOL    HW249140   3.486   9.827   6.333 -0.3417  0.6377 -2.2427
12496SOL     OW49141   7.374   9.158   5.247  0.0276 -0.9537 -0.1158
12496SOL    HW149142   7.415   9.124   5.332  0.6411 -1.1638 -0.4923
12496SOL    HW249143   7.309   9.090   5.212 -0.8456 -0.5150  0.6130
12497SOL     OW49144   4.133   4.894   8.195  0.1183  0.2647  0.5568
12497SOL    HW149145   4.223   4.923   8.163  0.2954 -0.0488  0.7674
12497SOL    HW249146   4.132   4.795   8.208 -0.2583  0.2655  0.5488
12498SOL     OW49147   2.452   6.639   4.228 -0.4044  0.4760  0.5296
12498SOL    HW149148   2.430   6.611   4.135 -0.1801 -3.9537  1.6684
12498SOL    HW249149   2.483   6.734   4.229 -0.6871  0.6856 -3.8221
12499SOL     OW49150   2.737   2.599   8.017  0.5281  0.4834  0.2477
12499SOL    HW149151   2.833   2.590   8.045  0.6505 -0.6827 -0.5305
12499SOL    HW249152   2.685   2.520   8.050 -0.7859  2.4041  3.0740
12500SOL     OW49153   9.133   4.581   3.229  0.2065  0.3797  0.2490
12500SOL    HW149154   9.042   4.616   3.254  0.2057  0.8380 -0.3921
12500SOL    HW249155   9.185   4.653   3.184  0.5334 -0.1820 -0.2717
12501SOL     OW49156   7.602   7.070   6.172 -0.6400 -0.0005 -0.1041
12501SOL    HW149157   7.515   7.041   6.212 -0.4748 -0.2666  0.0626
12501SOL    HW249158   7.637   6.997   6.113 -1.0695  0.5345 -1.0354
12502SOL     OW49159   4.357   3.765   6.678  0.1662  0.1505 -0.0163
12502SOL    HW149160   4.259   3.751   6.693 -0.2034  3.6625  1.3034
12502SOL    HW249161   4.377   3.763   6.580 -1.7078  2.1929 -0.4676
12503SOL     OW49162   5.253   9.929   3.767  0.3764 -0.4754  0.1880
12503SOL    HW149163   5.309   9.939   3.849  0.2892 -2.8420  0.5686
12503SOL    HW249164   5.168   9.882   3.789 -0.2880  0.1335 -1.0032
12504SOL     OW49165   2.516   2.303   1.508 -0.3525  0.4171  0.2010
12504SOL    HW149166   2.586   2.343   1.569 -0.8540  1.7209 -0.0555
12504SOL    HW249167   2.561   2.264   1.428  0.1928  0.0085  0.6945
12505SOL     OW49168   7.291   9.598   1.292  0.1934 -0.1687 -0.1687
12505SOL    HW149169   7.343   9.560   1.369  0.2048 -1.8829 -0.9807
12505SOL    HW249170   7.355   9.628   1.221  0.2469  3.1176  1.2297
12506SOL     OW49171   8.500   6.288   2.320  0.0093 -0.6882 -0.2531
12506SOL    HW149172   8.576   6.349   2.294 -0.1046 -0.9451 -1.1863
12506SOL    HW249173   8.414   6.325   2.285 -0.2581 -0.5846  0.5050
12507SOL     OW49174   9.118   1.714   4.771  0.2499  0.2475 -0.3781
12507SOL    HW149175   9.054   1.772   4.821  1.6100  2.0855 -0.7285
12507SOL    HW249176   9.212   1.736   4.799  0.9383  0.1727 -2.5714
12508SOL     OW49177   0.733   0.262   4.212 -0.6842 -0.9503  0.2719
12508SOL    HW149178   0.756   0.344   4.265  1.1991 -0.7718 -0.7888
12508SOL    HW249179   0.721   0.287   4.116 -0.6273 -1.8335  0.0322
12509SOL     OW49180   5.177   2.299   0.581 -0.3104 -0.9979 -0.0173
12509SOL    HW149181   5.218   2.324   0.668  1.7146 -1.3995 -0.8290
12509SOL    HW249182   5.139   2.207   0.587  0.1591 -1.1701  0.3398
12510SOL     OW49183   3.379   3.985   3.381 -0.8125  0.5728  0.0224
12510SOL    HW149184   3.471   4.025   3.379 -0.6865  0.2366 -1.2143
12510SOL    HW249185   3.312   4.058   3.399 -0.1473  0.4737  3.2616
12511SOL     OW49186   7.490   2.112   8.119  0.2785 -0.1040  0.1889
12511SOL    HW149187   7.545   2.188   8.154  0.0261  0.9656 -1.6809
12511SOL    HW249188   7.546   2.030   8.112  0.4199 -0.2436  2.7180
12512SOL     OW49189   6.843   9.490   6.162 -0.8318 -0.2211  0.6256
12512SOL    HW149190   6.848   9.583   6.198 -1.0989 -1.0562  2.9240
12512SOL    HW249191   6.934   9.460   6.133 -0.9494  1.1603 -1.2287
12513SOL     OW49192   0.268   2.642   0.194  0.0055  0.0759 -0.3276
12513SOL    HW149193   0.178   2.677   0.219  0.3041  0.8927 -0.3889
12513SOL    HW249194   0.269   2.618   0.097  0.2229  1.2514 -0.6248
12514SOL     OW49195   4.055   1.457   1.635  0.3355 -0.4211  0.4215
12514SOL    HW149196   3.978   1.502   1.681 -0.7008 -2.2979  0.5954
12514SOL    HW249197   4.019   1.388   1.571  1.8546 -0.4610 -0.4063
12515SOL     OW49198   1.052   7.130   7.233 -0.3855 -0.1428 -0.1802
12515SOL    HW149199   1.044   7.229   7.242  1.0415  0.0248 -0.6273
12515SOL    HW249200   0.968   7.087   7.265 -1.6228  1.2877 -1.3993
12516SOL     OW49201   8.686   3.105   1.332  0.5078  0.4843 -0.2813
12516SOL    HW149202   8.672   3.109   1.233  0.9092 -1.6208 -0.4506
12516SOL    HW249203   8.637   3.026   1.369 -2.1125  2.9481  1.6660
12517SOL     OW49204   8.503   0.676   1.827  0.0947 -0.1787 -0.2983
12517SOL    HW149205   8.407   0.705   1.834 -0.1065 -0.4834 -1.6685
12517SOL    HW249206   8.506   0.579   1.805  0.6920  0.1031 -1.5149
12518SOL     OW49207   9.274   4.363   6.407  0.2139  0.2627 -0.1934
12518SOL    HW149208   9.364   4.381   6.446 -0.6364  0.7648  1.5792
12518SOL    HW249209   9.204   4.414   6.458 -0.8699  1.5106 -2.8127
12519SOL     OW49210   6.022   4.869   7.876 -0.1542  0.5308 -1.0006
12519SOL    HW149211   6.075   4.942   7.832  1.6214 -0.9927 -1.4238
12519SOL    HW249212   6.047   4.862   7.972  0.3820 -0.1542 -1.1871
12520SOL     OW49213   1.838   4.685   7.813  0.4466  0.1725 -0.1515
12520SOL    HW149214   1.831   4.652   7.719 -0.1508  1.8534 -0.7206
12520SOL    HW249215   1.775   4.762   7.826  0.6614  0.0844  1.5765
12521SOL     OW49216   0.042   7.119   0.937 -0.0774  0.1386 -0.4467
12521SOL    HW149217  -0.034   7.074   0.891 -0.6123  2.8411 -2.2598
12521SOL    HW249218   0.128   7.093   0.892 -0.5960  2.7692 -3.0641
12522SOL     OW49219   1.093   6.373   2.728  0.0679 -0.3333 -0.2432
12522SOL    HW149220   1.163   6.376   2.657  1.1101 -0.7506  0.7473
12522SOL    HW249221   1.057   6.465   2.743  1.0784  0.0462 -0.1042
12523SOL     OW49222   2.412   0.384   0.637 -0.0144 -0.4623 -0.2335
12523SOL    HW149223   2.407   0.332   0.552  1.4397 -1.5950  0.3405
12523SOL    HW249224   2.476   0.460   0.626  0.7324 -1.0423  0.0554
12524SOL     OW49225   5.279   6.681   1.422 -0.4880  0.4072  0.4789
12524SOL    HW149226   5.313   6.734   1.344 -0.2494 -1.9900 -1.1266
12524SOL    HW249227   5.179   6.681   1.422 -0.4896  0.4105  0.1443
12525SOL     OW49228   1.839   7.271   1.501  0.6354 -0.5403  0.4992
12525SOL    HW149229   1.835   7.240   1.406  1.3214 -1.8485  0.8768
12525SOL    HW249230   1.927   7.243   1.541  0.5094  0.3306  1.3959
12526SOL     OW49231   3.206   6.116   6.395 -0.3768  0.1469 -0.4212
12526SOL    HW149232   3.258   6.135   6.478 -1.4470  0.1630  0.2605
12526SOL    HW249233   3.267   6.083   6.323  0.4062 -0.9374  0.7209
12527SOL     OW49234   2.152   3.846   0.880  0.0169  0.1145 -0.0335
12527SOL    HW149235   2.088   3.822   0.806  0.1127 -0.3409  0.0282
12527SOL    HW249236   2.243   3.858   0.842  0.3746 -1.6127  0.2077
12528SOL     OW49237   5.251   7.626   5.835 -0.5954  0.2291  0.1407
12528SOL    HW149238   5.231   7.549   5.775 -0.6111  0.2443  0.1262
12528SOL    HW249239   5.284   7.592   5.923 -1.0190  0.1926  0.2884
12529SOL     OW49240   9.993   2.768   0.328 -0.0518 -0.2966 -0.1939
12529SOL    HW149241   9.991   2.860   0.291 -0.6282 -0.0002  0.5502
12529SOL    HW249242   9.931   2.762   0.407  1.8489 -0.6250  1.3326
12530SOL     OW49243   3.530   3.385   0.366  0.5100  0.3409  0.2068
12530SOL    HW149244   3.488   3.307   0.412  0.6588  0.4660  0.5539
12530SOL    HW249245   3.512   3.379   0.267 -0.6205  0.5825  0.3931
12531SOL     OW49246   4.094   9.868   4.229  0.2332 -0.1640  0.0704
12531SOL    HW149247   4.024   9.822   4.285  0.6534  0.1251  0.8420
12531SOL    HW249248   4.106   9.818   4.143 -0.9360 -0.2097 -0.0816
12532SOL     OW49249   1.931   8.135   6.589  0.5881 -0.5162  0.1096
12532SOL    HW149250   1.965   8.090   6.507 -1.1756 -2.1307  0.2233
12532SOL    HW249251   1.881   8.217   6.564 -0.1714 -1.1479 -0.4474
12533SOL     OW49252   0.495   9.648   0.950  0.0926  0.3951 -0.0190
12533SOL    HW149253   0.433   9.707   1.001 -0.8938 -0.2663 -0.4490
12533SOL    HW249254   0.551   9.703   0.888  0.6463  1.0951  1.0922
12534SOL     OW49255   2.152   8.795   8.187 -0.2660  0.3204  0.0656
12534SOL    HW149256   2.120   8.782   8.094 -2.8294  1.1598  0.7918
12534SOL    HW249257   2.227   8.732   8.206  0.2377  0.1076 -2.5173
12535SOL     OW49258   1.231   1.071   3.764  0.1466 -0.9885 -0.5808
12535SOL    HW149259   1.320   1.109   3.738  0.0570  0.1244  0.6653
12535SOL    HW249260   1.241   0.974   3.787  1.0182 -0.8956 -0.5660
12536SOL     OW49261   5.003   7.393   2.988 -0.4607  0.5249  0.2259
12536SOL    HW149262   5.102   7.384   3.003 -0.4265 -1.0753 -0.7740
12536SOL    HW249263   4.977   7.489   2.997  1.1465  0.9388  0.7519
12537SOL     OW49264   8.984   3.907   6.591  0.2855  0.0181  0.3832
12537SOL    HW149265   8.989   3.931   6.494  0.0460 -0.2162  0.3134
12537SOL    HW249266   8.999   3.809   6.602 -1.7986 -0.3085  0.3853
12538SOL     OW49267   4.296   7.121   0.792  0.2340 -0.1093  0.1192
12538SOL    HW149268   4.210   7.146   0.836 -0.0321 -1.5181  0.4340
12538SOL    HW249269   4.276   7.070   0.708  0.7525  0.9856 -0.6743
12539SOL     OW49270   1.784   1.583   5.423  0.4551 -0.6784 -0.1459
12539SOL    HW149271   1.803   1.614   5.516  0.7814 -2.5334  0.4316
12539SOL    HW249272   1.732   1.653   5.374  2.3398  1.3146  0.6493
12540SOL     OW49273   0.112   4.205   2.702  0.1540  0.0166  0.4378
12540SOL    HW149274   0.135   4.222   2.606  1.3760  1.3543  0.9521
12540SOL    HW249275   0.078   4.111   2.712 -3.8329  1.1042 -1.9621
12541SOL     OW49276   8.954   6.718   5.013 -0.2197 -0.1804  0.6758
12541SOL    HW149277   8.869   6.771   5.005  0.1112  0.1254 -0.8726
12541SOL    HW249278   8.932   6.620   5.014 -0.7648 -0.0755  2.7214
12542SOL     OW49279   3.385   3.143   0.331  0.0921  0.3399  0.4070
12542SOL    HW149280   3.458   3.075   0.317  0.4121  0.8579 -0.4429
12542SOL    HW249281   3.337   3.159   0.245  0.1659  1.3724  0.5520
12543SOL     OW49282   5.041   0.945   4.270 -0.0402 -0.4271 -0.6847
12543SOL    HW149283   5.039   1.045   4.271  0.0323 -0.4293  0.9500
12543SOL    HW249284   5.093   0.914   4.190  1.2338  0.8780 -0.3939
12544SOL     OW49285   8.417   5.938   0.780  0.3280  0.4976  0.2615
12544SOL    HW149286   8.503   5.989   0.775  2.0833 -2.4596 -0.9198
12544SOL    HW249287   8.362   5.959   0.699  0.0977  2.0674  0.8050
12545SOL     OW49288   0.699   1.249   2.310  0.1414  0.2752 -0.1356
12545SOL    HW149289   0.755   1.193   2.371 -1.6626  0.4195  1.7463
12545SOL    HW249290   0.606   1.210   2.306 -0.8461  2.5268  0.3792
12546SOL     OW49291   7.436   7.168   5.309  0.3412  0.0142  0.4056
12546SOL    HW149292   7.370   7.144   5.237  0.2282 -0.2461  0.5926
12546SOL    HW249293   7.417   7.114   5.390  1.3841 -0.7743  0.1449
12547SOL     OW49294   8.880   3.674   7.047 -0.0943 -0.1078 -0.0424
12547SOL    HW149295   8.880   3.577   7.023  0.2640  0.0963 -0.9298
12547SOL    HW249296   8.896   3.728   6.964  0.7993  0.6579  0.6122
12548SOL     OW49297   8.083   0.752   4.035  0.0568 -0.7948 -0.3291
12548SOL    HW149298   8.118   0.664   4.064  0.6308 -1.5420 -3.0772
12548SOL    HW249299   8.102   0.764   3.937 -0.4332  2.1621 -0.1010
12549SOL     OW49300   2.378   4.109   7.792  0.0375  0.2031 -0.4151
12549SOL    HW149301   2.342   4.064   7.710  1.6399  1.1927 -1.7166
12549SOL    HW249302   2.472   4.079   7.807  0.1316  0.8884  0.4003
12550SOL     OW49303   2.453   7.775   7.061  0.2960  0.2223  0.1361
12550SOL    HW149304   2.444   7.743   6.966 -1.9275 -0.4543  0.5463
12550SOL    HW249305   2.379   7.736   7.116  1.4223  0.8258  2.1035
12551SOL     OW49306   5.676   4.569   0.982 -0.2991  0.1316  0.1573
12551SOL    HW149307   5.775   4.570   0.964 -0.5860 -2.4106 -1.7735
12551SOL    HW249308   5.631   4.636   0.923  0.0813  0.2015 -0.0538
12552SOL     OW49309   9.647   4.728   8.051 -0.6501 -0.0516  0.6134
12552SOL    HW149310   9.738   4.702   8.017  0.4124  2.1216  1.7294
12552SOL    HW249311   9.581   4.659   8.021  1.2993 -1.5689 -0.4115
12553SOL     OW49312   4.390   4.921   7.456 -0.2097  0.6431 -0.0743
12553SOL    HW149313   4.425   4.965   7.539  1.5327 -1.7418  0.5122
12553SOL    HW249314   4.300   4.882   7.474 -0.0368  0.5332  0.5646
12554SOL     OW49315   4.398   5.407   6.757  0.0021  0.7940  0.8654
12554SOL    HW149316   4.475   5.407   6.692 -0.2395 -0.6268  0.5546
12554SOL    HW249317   4.419   5.344   6.832 -1.4387 -0.6780  0.0570
12555SOL     OW49318   6.527   7.929   2.754 -0.2410 -0.3476  0.1051
12555SOL    HW149319   6.557   7.835   2.769  1.3971 -0.0799 -1.3051
12555SOL    HW249320   6.574   7.967   2.674 -1.7744  1.2782 -0.0642
12556SOL     OW49321   1.124   8.252   8.140 -0.1300  0.2901  0.5590
12556SOL    HW149322   1.080   8.181   8.085 -0.8440  1.0360  0.1649
12556SOL    HW249323   1.168   8.210   8.220  0.9367 -0.8031 -0.5767
12557SOL     OW49324   8.154   2.195   3.542  0.8956  0.1204 -0.0566
12557SOL    HW149325   8.069   2.218   3.494 -0.2197  0.5283  2.0689
12557SOL    HW249326   8.191   2.277   3.587  2.7335  0.0735 -1.4212
12558SOL     OW49327   8.862   5.926   3.353  0.1062  0.2022 -0.0330
12558SOL    HW149328   8.797   5.859   3.389 -1.3915  2.7407  2.2098
12558SOL    HW249329   8.943   5.929   3.411  1.1840 -1.2149 -1.4240
12559SOL     OW49330   8.754   7.461   7.545 -0.1841  0.0295 -0.2332
12559SOL    HW149331   8.767   7.394   7.618 -0.3891  1.8131  1.4868
12559SOL    HW249332   8.717   7.416   7.464 -0.6941 -1.8541  1.0190
12560SOL     OW49333   3.201   6.262   3.875 -0.5224 -0.4098 -0.0722
12560SOL    HW149334   3.204   6.177   3.929  0.9503 -1.2214 -1.3924
12560SOL    HW249335   3.278   6.320   3.901 -1.2904  0.3514  0.5247
12561SOL     OW49336   0.382   3.755   1.711  0.0106  0.3159 -0.6639
12561SOL    HW149337   0.296   3.785   1.668 -0.3775 -2.1498 -1.6850
12561SOL    HW249338   0.399   3.811   1.793 -1.7958  1.8124 -1.2589
12562SOL     OW49339   8.880   3.398   2.283 -0.3446  0.3504  0.4621
12562SOL    HW149340   8.978   3.385   2.291 -0.5717 -0.7468  1.5690
12562SOL    HW249341   8.861   3.467   2.212  1.1884  0.3093 -0.0029
12563SOL     OW49342   0.153   0.596   7.573 -0.4136  0.4797 -0.5923
12563SOL    HW149343   0.173   0.541   7.492  2.5060 -1.0268  1.0722
12563SOL    HW249344   0.069   0.649   7.557 -0.4532 -0.4958 -4.1900
12564SOL     OW49345   2.408   2.758   0.350  0.1689  0.6069  0.0943
12564SOL    HW149346   2.387   2.728   0.257  2.1520  0.5638 -0.3560
12564SOL    HW249347   2.503   2.738   0.371 -0.2145  0.7861  2.0827
12565SOL     OW49348   8.299   6.105   7.414  0.2465 -0.2709 -0.0636
12565SOL    HW149349   8.298   6.127   7.316  2.1455 -0.5209 -0.1739
12565SOL    HW249350   8.336   6.012   7.426 -0.1559 -0.3106  0.8767
12566SOL     OW49351   2.851   1.557   3.618  0.3175 -0.0417 -0.1171
12566SOL    HW149352   2.867   1.479   3.557  1.2886 -1.0635  1.4024
12566SOL    HW249353   2.909   1.548   3.699  1.5422  3.0302 -0.5717
12567SOL     OW49354   6.248   9.103   4.161 -0.4367  0.5892  0.3076
12567SOL    HW149355   6.223   9.193   4.126  0.1195  0.2953 -0.8955
12567SOL    HW249356   6.196   9.083   4.244 -1.8243  1.2865 -0.3819
12568SOL     OW49357   4.809   9.178   3.345  0.3026  1.0056  0.0179
12568SOL    HW149358   4.845   9.109   3.407  0.6739  1.6538  0.5361
12568SOL    HW249359   4.744   9.136   3.282  2.1768 -0.2452 -1.1346
12569SOL     OW49360   6.083   8.196   5.646  0.6096 -0.2233 -0.0836
12569SOL    HW149361   6.028   8.138   5.707  0.7644 -0.2187  0.0588
12569SOL    HW249362   6.022   8.251   5.589  0.4351  1.9439  2.1101
12570SOL     OW49363   8.646   6.222   3.060  1.0304  0.7353 -0.2191
12570SOL    HW149364   8.669   6.319   3.062  0.7115  0.8241 -0.7189
12570SOL    HW249365   8.726   6.170   3.030  0.3431  1.1303 -2.8680
12571SOL     OW49366   8.855   0.360   4.756 -0.4754 -0.3546  0.1299
12571SOL    HW149367   8.913   0.399   4.827 -0.0098  1.8642 -1.4339
12571SOL    HW249368   8.814   0.433   4.702 -0.9166 -1.9890 -1.8118
12572SOL     OW49369   0.172   4.446   7.999 -0.3209  0.2313  0.4831
12572SOL    HW149370   0.169   4.545   7.991  0.2091  0.2058 -0.1044
12572SOL    HW249371   0.094   4.414   8.052  0.3550  1.0956  2.0192
12573SOL     OW49372   1.048   3.981   2.796 -0.2966  0.4789 -0.0750
12573SOL    HW149373   1.069   3.885   2.780  2.0641  1.1146 -0.9701
12573SOL    HW249374   1.009   4.021   2.713 -0.2052  0.5962 -0.0606
12574SOL     OW49375   8.308   0.264   4.089  0.2261  0.1455 -0.8108
12574SOL    HW149376   8.317   0.267   4.189 -0.5734 -1.6615 -0.6591
12574SOL    HW249377   8.398   0.248   4.048  0.9275  3.0737 -0.5388
12575SOL     OW49378   8.617   3.351   1.505  0.2642 -0.4713  0.0712
12575SOL    HW149379   8.685   3.303   1.449  0.5927  3.5804 -3.2079
12575SOL    HW249380   8.661   3.388   1.587  2.2379  2.5525 -2.2655
12576SOL     OW49381   9.129   3.016   2.857 -0.5100  0.2015 -0.2492
12576SOL    HW149382   9.061   3.028   2.930 -0.1936 -1.9455  0.4603
12576SOL    HW249383   9.216   2.987   2.898 -0.3978 -1.2639 -1.4771
12577SOL     OW49384   4.977   4.550   0.083  0.4996  0.1243 -0.0414
12577SOL    HW149385   4.963   4.477   0.016  1.0495 -0.5733  0.5891
12577SOL    HW249386   4.890   4.595   0.102 -0.0106 -0.9237  0.1841
12578SOL     OW49387   8.415   8.402   2.132 -0.5169  0.6876  0.4956
12578SOL    HW149388   8.382   8.473   2.070 -1.5779 -0.1319  0.1094
12578SOL    HW249389   8.354   8.396   2.211 -0.1507  0.5241  0.7683
12579SOL     OW49390   0.167   9.450   4.935  0.1370 -0.0094 -0.6623
12579SOL    HW149391   0.160   9.352   4.917 -2.5827  0.2300 -1.0577
12579SOL    HW249392   0.222   9.465   5.017  1.8735 -1.7664 -1.4805
12580SOL     OW49393   2.851   6.893   1.821 -0.9671 -0.8092 -0.2024
12580SOL    HW149394   2.854   6.809   1.766 -0.7322 -1.3834  0.6643
12580SOL    HW249395   2.782   6.955   1.785 -1.6353 -1.6788 -0.4304
12581SOL     OW49396   1.689   0.686   3.092  0.2023 -0.2312 -0.5958
12581SOL    HW149397   1.666   0.616   3.024 -1.4216 -1.2288  0.9669
12581SOL    HW249398   1.615   0.695   3.158  0.7877  2.3292 -0.2186
12582SOL     OW49399   4.364   8.958   4.812  0.8101  0.1681 -0.1349
12582SOL    HW149400   4.389   8.949   4.909 -0.8607  1.0277  0.3883
12582SOL    HW249401   4.345   9.053   4.791  1.8016  0.0845 -1.5009
12583SOL     OW49402   2.102   7.886   7.337 -0.4771  0.1742  0.0688
12583SOL    HW149403   2.017   7.938   7.343 -0.0626  0.9157 -0.3684
12583SOL    HW249404   2.103   7.814   7.406 -2.2522 -1.0112 -1.1197
12584SOL     OW49405   0.929   1.856   0.622  0.1555  0.2891  0.0662
12584SOL    HW149406   1.016   1.846   0.572  1.0423  0.3514  1.5826
12584SOL    HW249407   0.886   1.942   0.596  0.0231 -0.2276 -1.4861
12585SOL     OW49408   3.999   9.468   5.072  0.2709  0.9923 -0.2264
12585SOL    HW149409   3.906   9.463   5.035  0.6192 -1.7922 -0.8272
12585SOL    HW249410   4.002   9.534   5.147 -1.7403  2.5425 -1.4630
12586SOL     OW49411   1.008   7.006   1.960  0.2324 -0.1376  0.5884
12586SOL    HW149412   0.939   6.982   2.028  0.2226  1.0245  1.0052
12586SOL    HW249413   0.967   7.005   1.869  0.1263 -1.2303  0.6458
12587SOL     OW49414   2.193   5.763   5.263 -0.4124 -0.1049 -0.0440
12587SOL    HW149415   2.200   5.666   5.285 -2.4502  0.0086  1.2477
12587SOL    HW249416   2.277   5.794   5.219  0.9235 -2.0371  1.1096
12588SOL     OW49417   8.258   1.185   2.813  0.2977  0.3695  0.4051
12588SOL    HW149418   8.228   1.107   2.759  1.1200  0.3871 -0.0793
12588SOL    HW249419   8.334   1.159   2.871  0.9887  0.9576 -0.2186
12589SOL     OW49420   7.869   7.073   1.929  0.2061  0.4503 -0.2095
12589SOL    HW149421   7.960   7.058   1.967  0.6936  1.3814 -0.9974
12589SOL    HW249422   7.870   7.053   1.831 -0.6686 -0.4629 -0.0294
12590SOL     OW49423   2.667   7.576   6.511 -0.1832 -0.0065  1.1521
12590SOL    HW149424   2.716   7.491   6.493 -1.3739 -0.8404  1.7761
12590SOL    HW249425   2.691   7.610   6.602 -0.9184 -0.5406  1.5540
12591SOL     OW49426   5.031   4.273   1.500 -0.1715  0.1573 -0.3981
12591SOL    HW149427   5.075   4.350   1.455  0.1001 -0.0779 -0.5401
12591SOL    HW249428   5.098   4.200   1.513 -0.2518  0.2287  0.4021
12592SOL     OW49429   1.896   5.724   6.737  0.2296  0.0936  0.7508
12592SOL    HW149430   1.960   5.752   6.665 -0.7797  0.2609 -0.0969
12592SOL    HW249431   1.828   5.661   6.699  0.6131 -1.0522  1.9285
12593SOL     OW49432   9.024   7.269   3.579  0.4337  0.4237 -0.0501
12593SOL    HW149433   9.111   7.282   3.533  0.3412  1.5233  0.0529
12593SOL    HW249434   9.036   7.208   3.658  0.6651 -1.1525 -1.2855
12594SOL     OW49435   9.062   8.421   2.399 -0.0120 -0.4924 -0.0044
12594SOL    HW149436   8.980   8.368   2.377  0.3863 -0.3149 -2.0986
12594SOL    HW249437   9.035   8.510   2.434 -0.7178 -0.8020  0.2543
12595SOL     OW49438   7.221   2.536   0.249 -0.5225 -0.0870 -0.4528
12595SOL    HW149439   7.165   2.508   0.171  0.0560  2.0665 -1.6553
12595SOL    HW249440   7.316   2.549   0.220 -0.2181  0.3628  0.7048
12596SOL     OW49441   9.785   0.315   7.032 -0.1320  0.2735 -0.0862
12596SOL    HW149442   9.882   0.335   7.042  0.1716  0.1965 -2.6430
12596SOL    HW249443   9.773   0.221   7.001 -1.0273  0.3325  0.0583
12597SOL     OW49444   2.407   3.581   3.393  0.5537 -0.8281 -0.5748
12597SOL    HW149445   2.347   3.600   3.315  1.3744  0.6704 -0.8693
12597SOL    HW249446   2.460   3.663   3.414  1.3506 -1.6572  0.6835
12598SOL     OW49447   8.330   5.639   6.080  0.3329  0.0854 -0.0339
12598SOL    HW149448   8.332   5.729   6.124 -1.3832  0.7313 -1.2063
12598SOL    HW249449   8.424   5.606   6.067  0.9452  1.2614  1.2764
12599SOL     OW49450   0.267   1.217   0.726  0.5300 -0.2604 -0.0621
12599SOL    HW149451   0.271   1.164   0.641  0.7963  1.6255 -1.2639
12599SOL    HW249452   0.358   1.250   0.750  0.1552  0.8830 -0.1571
12600SOL     OW49453   3.777   0.917   1.032  0.2512 -0.4143  0.1082
12600SOL    HW149454   3.807   0.935   1.126  0.7287  0.6184 -0.2427
12600SOL    HW249455   3.711   0.987   1.004 -2.9873 -2.9387  1.0627
12601SOL     OW49456   8.468   6.096   6.158 -0.5956 -0.0316 -0.2861
12601SOL    HW149457   8.550   6.055   6.119 -0.7360 -2.1675  1.5484
12601SOL    HW249458   8.487   6.190   6.187  0.8003 -0.0477 -1.1216
12602SOL     OW49459   8.573   0.758   0.404  0.2706 -0.4891  0.5732
12602SOL    HW149460   8.564   0.720   0.312 -0.1183 -1.5594  1.0508
12602SOL    HW249461   8.562   0.686   0.472  1.7472  0.0710  1.4440
12603SOL     OW49462   9.483   9.763   4.736 -0.1673  0.1777  0.4068
12603SOL    HW149463   9.484   9.669   4.701  1.2529  1.1792 -2.3771
12603SOL    HW249464   9.389   9.797   4.738 -0.7298 -1.3682  1.7344
12604SOL     OW49465   7.990   9.369   3.376 -0.1036 -0.0219 -0.0222
12604SOL    HW149466   8.074   9.314   3.367 -1.0187 -1.4164 -0.1311
12604SOL    HW249467   7.920   9.316   3.423 -1.5858  0.4053 -1.7127
12605SOL     OW49468   1.505   0.921   3.494 -0.0324 -0.1095 -0.6749
12605SOL    HW149469   1.488   0.848   3.560 -1.7222 -0.0381 -1.0291
12605SOL    HW249470   1.590   0.967   3.518 -0.3898 -0.3762  1.1859
12606SOL     OW49471   3.446   5.689   0.588  0.3462 -0.0260 -0.1650
12606SOL    HW149472   3.398   5.609   0.551 -0.2235  0.6660 -0.9313
12606SOL    HW249473   3.484   5.666   0.678  2.5677 -2.0277 -1.5517
12607SOL     OW49474   2.712   5.249   4.086 -0.1673 -0.1483  0.1667
12607SOL    HW149475   2.651   5.327   4.074 -1.0751 -0.8884 -0.0479
12607SOL    HW249476   2.753   5.225   3.998 -1.3745 -1.1226 -0.1356
12608SOL     OW49477   2.260   5.433   1.487 -0.7045  0.0919 -0.1388
12608SOL    HW149478   2.204   5.447   1.569 -1.9176 -0.6671 -0.8183
12608SOL    HW249479   2.276   5.335   1.475  0.8801  0.3102  0.1035
12609SOL     OW49480   9.862   4.795   6.586 -0.0323 -0.4028 -0.2905
12609SOL    HW149481   9.804   4.738   6.645  0.6948  0.1129  0.9609
12609SOL    HW249482   9.862   4.759   6.493 -0.9335 -1.4444  0.1039
12610SOL     OW49483   2.986   3.196   1.993 -0.0144  0.1631  0.0131
12610SOL    HW149484   2.916   3.238   2.050  0.0750 -0.0053  0.2500
12610SOL    HW249485   2.956   3.105   1.964  0.9874 -0.7842  1.8652
12611SOL     OW49486   4.325   4.265   3.112 -0.2809  0.0292  0.5049
12611SOL    HW149487   4.253   4.306   3.168 -0.7758 -0.2401  0.0754
12611SOL    HW249488   4.396   4.333   3.094  0.2068 -0.0799  1.9988
12612SOL     OW49489   1.286   0.435   2.516 -0.3865 -0.2331  0.0049
12612SOL    HW149490   1.291   0.338   2.538 -2.1645 -0.5997 -1.1300
12612SOL    HW249491   1.248   0.447   2.424  0.5716  1.5128 -0.1947
12613SOL     OW49492   6.195   0.356   1.891  0.2264  0.1268  0.1489
12613SOL    HW149493   6.150   0.279   1.936  1.5029 -0.0576  1.1617
12613SOL    HW249494   6.153   0.442   1.919  0.0206 -0.0880  0.4861
12614SOL     OW49495   1.685   2.273   0.340 -0.6112 -0.5454 -0.1767
12614SOL    HW149496   1.588   2.256   0.355 -0.5784  0.0291  0.6998
12614SOL    HW249497   1.721   2.331   0.413  1.0201 -2.9578  1.0196
12615SOL     OW49498   1.820   5.734   2.619  0.0948  0.5688 -0.0487
12615SOL    HW149499   1.764   5.652   2.624 -0.1416  0.5398 -2.7173
12615SOL    HW249500   1.914   5.710   2.593  0.0595  1.1049 -0.7126
12616SOL     OW49501   3.063   8.698   7.850 -0.0951 -0.4623  0.0057
12616SOL    HW149502   3.088   8.601   7.851  1.4747 -0.1319 -2.1331
12616SOL    HW249503   2.999   8.716   7.775  1.3650  0.4990 -1.0595
12617SOL     OW49504   1.952   9.210   0.507  0.1902  0.6094 -0.8804
12617SOL    HW149505   1.870   9.253   0.546  0.1651  0.4311 -0.7356
12617SOL    HW249506   2.009   9.280   0.465  0.9000  1.0042  0.6896
12618SOL     OW49507   9.035   0.401   2.067  0.9537 -0.2003  0.2209
12618SOL    HW149508   8.965   0.417   1.997  0.5082  0.7493  0.8736
12618SOL    HW249509   9.102   0.335   2.032 -0.0799 -0.8799 -0.5299
12619SOL     OW49510   2.646   7.350   7.744  0.8684  0.2411 -0.2129
12619SOL    HW149511   2.687   7.358   7.835  1.5683  1.8972 -0.6425
12619SOL    HW249512   2.620   7.441   7.711  0.5619 -0.3446 -1.6386
12620SOL     OW49513   4.328   2.016   1.082 -0.0139 -0.0125  0.3424
12620SOL    HW149514   4.415   2.047   1.042 -0.6959 -0.9223 -1.9391
12620SOL    HW249515   4.333   1.919   1.102 -0.8859 -0.3313 -0.9190
12621SOL     OW49516   7.133   9.904   4.405  0.3656  0.0363  0.4471
12621SOL    HW149517   7.117   9.805   4.407 -1.3906  0.2929  0.7367
12621SOL    HW249518   7.115   9.939   4.313  0.5685  0.1490  0.4501
12622SOL     OW49519   8.679   7.449   5.055 -0.2069 -0.2881  0.6009
12622SOL    HW149520   8.653   7.545   5.065  2.2491  0.1931  3.4773
12622SOL    HW249521   8.607   7.391   5.092 -1.4974  0.4678 -0.6977
12623SOL     OW49522   0.360   2.882   2.652 -0.0138  0.6263 -0.4375
12623SOL    HW149523   0.313   2.796   2.635 -0.6432  0.6365  1.1286
12623SOL    HW249524   0.450   2.863   2.690  0.3639  0.6466 -1.3102
12624SOL     OW49525   9.489   9.576   0.303  0.6376 -0.0284  0.0829
12624SOL    HW149526   9.448   9.564   0.393  0.0390 -1.0093 -0.3137
12624SOL    HW249527   9.577   9.528   0.300  0.7703  0.2030  0.2135
12625SOL     OW49528   2.062   8.433   8.183 -0.2094 -0.6138 -0.0920
12625SOL    HW149529   2.138   8.378   8.146  1.1192  0.9116  0.3096
12625SOL    HW249530   2.014   8.479   8.108  1.0109  0.6068 -0.1452
12626SOL     OW49531   9.369   3.975   5.089  0.1537 -0.1947  0.1118
12626SOL    HW149532   9.333   4.023   5.169 -0.3400 -1.8147  0.8685
12626SOL    HW249533   9.413   4.041   5.029 -0.2726  1.1791  1.2713
12627SOL     OW49534   1.439   6.788   3.378 -0.0361  0.4842 -0.4023
12627SOL    HW149535   1.391   6.865   3.421 -0.3897 -0.8035  1.5794
12627SOL    HW249536   1.376   6.712   3.364  1.0832 -0.7396  0.9944
12628SOL     OW49537   8.938   4.619   2.562  0.1685 -0.1281  0.3096
12628SOL    HW149538   8.987   4.537   2.592  0.6218  0.7221  1.9494
12628SOL    HW249539   8.972   4.647   2.472  1.4083 -0.6093  0.6166
12629SOL     OW49540   1.919   6.404   5.445 -0.2400 -0.4094 -0.8705
12629SOL    HW149541   1.999   6.366   5.400 -1.4595  0.3805 -3.8218
12629SOL    HW249542   1.862   6.330   5.481  1.3486 -0.9972  0.5610
12630SOL     OW49543   8.007   2.999   7.685  0.7252  0.3652  0.1884
12630SOL    HW149544   8.010   2.900   7.675  0.4497  0.3917 -0.1800
12630SOL    HW249545   7.952   3.023   7.765 -0.3957  0.2547 -0.5386
12631SOL     OW49546   2.990   9.376   7.904 -0.5810 -0.5669 -0.3170
12631SOL    HW149547   2.930   9.412   7.976 -1.6727  1.0746 -2.0070
12631SOL    HW249548   3.060   9.445   7.882 -0.0713 -1.1813 -0.6314
12632SOL     OW49549   1.169   1.528   5.481 -0.1713  0.1352  0.0764
12632SOL    HW149550   1.148   1.616   5.438  0.1602  1.2030  2.0446
12632SOL    HW249551   1.267   1.510   5.476 -0.0036  0.6884  1.1229
12633SOL     OW49552   0.795   7.965   0.082 -0.7450  0.1134 -0.5469
12633SOL    HW149553   0.799   8.058   0.121  0.8238 -0.4481  0.6967
12633SOL    HW249554   0.848   7.903   0.139 -0.0499 -1.1593 -2.5320
12634SOL     OW49555   7.740   5.158   0.755  0.0237 -0.2217  0.5702
12634SOL    HW149556   7.686   5.186   0.835 -1.7332  1.2567 -1.0834
12634SOL    HW249557   7.823   5.213   0.750 -0.7895  1.0220  0.3635
12635SOL     OW49558   9.759   3.324   2.411  0.5922  0.2105  0.0472
12635SOL    HW149559   9.810   3.323   2.325  0.4204  0.0000 -0.0501
12635SOL    HW249560   9.707   3.239   2.421 -2.8566  2.0201 -1.7124
12636SOL     OW49561   8.668   9.484   3.307 -0.2246 -0.3367 -0.6055
12636SOL    HW149562   8.599   9.430   3.355  2.1375 -1.3458  1.8048
12636SOL    HW249563   8.654   9.475   3.208 -1.0543 -3.8908 -0.2353
12637SOL     OW49564   1.688   8.717   3.057  0.1310  0.4744  0.2597
12637SOL    HW149565   1.778   8.706   3.016  0.0187 -0.0160  0.1358
12637SOL    HW249566   1.656   8.811   3.043  0.2929  0.4365 -0.3748
12638SOL     OW49567   1.792   6.214   7.156  0.3469 -0.7277  0.4501
12638SOL    HW149568   1.879   6.184   7.194  0.7052  1.8934  1.8239
12638SOL    HW249569   1.717   6.174   7.207  0.7796 -0.7789  1.0447
12639SOL     OW49570   4.232   4.712   6.932  0.0365  0.3548 -0.7324
12639SOL    HW149571   4.229   4.732   6.834  3.5130  0.0878 -0.9464
12639SOL    HW249572   4.251   4.615   6.945  0.1137  0.4940  0.2216
12640SOL     OW49573   4.643   7.247   4.724 -0.3155  0.1772  0.1890
12640SOL    HW149574   4.740   7.265   4.715 -0.2316  0.4933  1.5602
12640SOL    HW249575   4.623   7.153   4.698  0.2904  0.2313 -0.4684
12641SOL     OW49576   6.004   1.083   0.383 -0.0127  0.3342 -0.2474
12641SOL    HW149577   5.998   1.181   0.364 -0.6866  0.0756 -1.4080
12641SOL    HW249578   6.008   1.032   0.297 -3.1182 -0.8645  0.2586
12642SOL     OW49579   8.551   1.402   7.951 -0.1893  0.9737 -0.3932
12642SOL    HW149580   8.647   1.382   7.931  0.0319 -0.5435  2.0402
12642SOL    HW249581   8.498   1.400   7.866  2.2382  3.8194 -2.0676
12643SOL     OW49582   3.915   4.860   1.794 -0.6421  0.2324 -0.0922
12643SOL    HW149583   3.891   4.776   1.843  0.1097  0.1192  0.0889
12643SOL    HW249584   3.847   4.878   1.722 -1.1805 -0.1548  0.3176
12644SOL     OW49585   1.513   1.625   7.039  0.2216  0.7213  0.5304
12644SOL    HW149586   1.426   1.579   7.055  1.4726 -2.2694 -0.9825
12644SOL    HW249587   1.583   1.586   7.098  0.5230  3.3431  1.9811
12645SOL     OW49588   2.930   5.397   7.971 -0.0468 -0.1620 -0.0093
12645SOL    HW149589   2.927   5.388   8.071 -0.2186 -0.8677 -0.0746
12645SOL    HW249590   2.864   5.466   7.941  0.0492  0.0942  0.3708
12646SOL     OW49591   5.488   0.881   5.653  0.1121  0.1901 -0.2667
12646SOL    HW149592   5.546   0.848   5.728 -0.0930 -0.3964 -0.3637
12646SOL    HW249593   5.503   0.825   5.572 -1.3782 -0.6426  0.0227
12647SOL     OW49594   4.545   2.675   6.868  0.2744 -0.3660  0.3976
12647SOL    HW149595   4.631   2.651   6.913  0.5916 -2.7107 -1.3728
12647SOL    HW249596   4.470   2.622   6.907  0.4032 -1.7250 -1.1539
12648SOL     OW49597   1.297   3.003   5.447  0.5894 -0.1059 -0.7895
12648SOL    HW149598   1.207   3.030   5.411  0.5246 -1.7974 -1.9534
12648SOL    HW249599   1.295   2.907   5.473  1.5242  0.3480  1.0191
12649SOL     OW49600   9.256   1.615   7.686  0.4140 -1.1435  0.0471
12649SOL    HW149601   9.173   1.655   7.646  1.7139  0.3861 -1.2147
12649SOL    HW249602   9.291   1.545   7.624  0.8320 -0.7953 -0.1146
12650SOL     OW49603   2.959   4.003   0.353 -0.1544  0.3497 -0.4147
12650SOL    HW149604   2.988   3.924   0.298 -1.4345  1.6354 -3.0218
12650SOL    HW249605   2.924   3.971   0.441  0.5818 -1.8832 -0.8948
12651SOL     OW49606   8.001   1.108   0.265 -0.1154 -0.0427  0.3706
12651SOL    HW149607   8.023   1.109   0.167  2.5426 -0.1108  0.9322
12651SOL    HW249608   8.006   1.014   0.299 -2.5277 -0.2408  0.3038
12652SOL     OW49609   8.577   7.027   3.012  0.2252 -0.1946 -0.0848
12652SOL    HW149610   8.610   7.020   3.106 -1.2537  1.8134  0.6206
12652SOL    HW249611   8.654   7.038   2.950  1.2070 -1.4185  0.8921
12653SOL     OW49612   2.596   2.332   7.483  0.4240 -0.2511 -0.1362
12653SOL    HW149613   2.509   2.377   7.502  1.0856  0.7975  0.4654
12653SOL    HW249614   2.666   2.401   7.463  1.1911 -1.0620 -0.2935
12654SOL     OW49615   5.973   2.294   3.634 -0.6190  0.0991  0.1456
12654SOL    HW149616   5.961   2.196   3.645  1.6723 -0.0928  1.1333
12654SOL    HW249617   5.887   2.341   3.658 -1.6531 -1.6174 -0.1203
12655SOL     OW49618   7.434   4.917   3.067  0.2046  0.1332 -0.6271
12655SOL    HW149619   7.372   4.888   2.995 -0.9772 -0.0928  0.4581
12655SOL    HW249620   7.396   4.998   3.112  0.4135 -0.3375  0.4089
12656SOL     OW49621   9.401   7.096   4.731  0.1474  0.1119  0.1576
12656SOL    HW149622   9.356   7.165   4.674  1.6203  0.4426 -0.6480
12656SOL    HW249623   9.489   7.132   4.763 -0.2028 -0.4707  1.7815
12657SOL     OW49624   8.342   6.436   1.073 -0.2281  0.7850 -0.5933
12657SOL    HW149625   8.313   6.492   1.151  0.3012  0.6129 -0.2671
12657SOL    HW249626   8.379   6.349   1.106  0.7634  1.0482 -0.9728
12658SOL     OW49627   4.502   4.688   8.110 -0.8649  0.0861 -0.0047
12658SOL    HW149628   4.424   4.694   8.047 -1.5595  0.5609  0.8802
12658SOL    HW249629   4.468   4.680   8.204  0.1449 -1.7374  0.2368
12659SOL     OW49630   9.219   2.206   3.740 -0.0694 -0.1669  0.2597
12659SOL    HW149631   9.146   2.222   3.807  0.2456 -1.4863  0.9210
12659SOL    HW249632   9.184   2.226   3.648 -0.7855  0.7157  0.7115
12660SOL     OW49633   1.390   9.413   4.146 -0.4627 -0.6821 -0.4330
12660SOL    HW149634   1.447   9.396   4.227 -0.6637  0.0216 -0.1372
12660SOL    HW249635   1.294   9.409   4.172 -0.5386 -1.3185 -0.8188
12661SOL     OW49636   8.793   9.693   5.437  1.3418 -0.1279  0.1184
12661SOL    HW149637   8.848   9.724   5.360  1.9289  0.6594  0.8396
12661SOL    HW249638   8.736   9.769   5.471  0.6051 -0.6437  0.0489
12662SOL     OW49639   2.107   1.491   3.209 -0.3154 -0.2021  0.2632
12662SOL    HW149640   2.201   1.460   3.225  0.4691  2.0273  0.1733
12662SOL    HW249641   2.075   1.455   3.121  0.4993 -0.8878  0.2400
12663SOL     OW49642   0.810   6.493   5.933  0.2793  0.1678  0.0363
12663SOL    HW149643   0.736   6.462   5.873  0.5268  0.4888 -0.4404
12663SOL    HW249644   0.804   6.593   5.944  2.1241  0.5590 -2.0637
12664SOL     OW49645   2.367   9.337   0.944  0.2179  0.0464 -0.0491
12664SOL    HW149646   2.288   9.383   0.904 -0.3285  0.9212  1.9758
12664SOL    HW249647   2.347   9.240   0.955  0.3916 -0.2225 -1.8695
12665SOL     OW49648   6.564   1.346   4.307 -0.1298 -0.3821 -0.1201
12665SOL    HW149649   6.548   1.428   4.252  0.7348  0.1494  0.4204
12665SOL    HW249650   6.495   1.277   4.284  0.3330 -0.2475 -2.0443
12666SOL     OW49651   3.468   9.917   7.749 -0.1515  0.1031  0.5136
12666SOL    HW149652   3.441  10.009   7.720  1.9121  0.2460 -1.0233
12666SOL    HW249653   3.457   9.909   7.848  0.1003  2.1490  0.7265
12667SOL     OW49654   8.443   7.553   1.679 -0.1925  0.4208  0.3460
12667SOL    HW149655   8.407   7.489   1.611  1.1819 -0.0462  0.0227
12667SOL    HW249656   8.503   7.503   1.742  2.6405  1.7188 -1.2103
12668SOL     OW49657   7.085   4.025   0.751 -0.3393  0.4345 -0.2407
12668SOL    HW149658   7.028   4.047   0.830  0.0224  1.0948 -0.1654
12668SOL    HW249659   7.162   3.969   0.780 -0.7507 -0.1613 -0.2862
12669SOL     OW49660   6.380   6.015   0.739  0.1483  0.2679 -0.4083
12669SOL    HW149661   6.410   6.025   0.644  0.4287  1.6176 -0.1863
12669SOL    HW249662   6.313   5.941   0.745  0.8852 -0.5135 -1.4840
12670SOL     OW49663   0.126   1.347   3.989 -0.4818 -0.1509  0.2830
12670SOL    HW149664   0.200   1.385   4.045  0.9438  0.3057 -1.8146
12670SOL    HW249665   0.047   1.326   4.046  0.6821  0.9103  2.3233
12671SOL     OW49666   0.067   4.644   5.570 -0.1552 -0.3633 -0.1334
12671SOL    HW149667   0.155   4.690   5.584  0.3223 -1.5812  1.0081
12671SOL    HW249668   0.055   4.573   5.640 -2.2579  0.1017  0.0020
12672SOL     OW49669   2.475   9.543   2.379  0.0097  0.0879 -0.0954
12672SOL    HW149670   2.570   9.568   2.364  0.5402 -1.6766  0.2348
12672SOL    HW249671   2.442   9.487   2.304 -0.5121 -0.0377  0.2206
12673SOL     OW49672   3.870   1.599   2.952  0.0346  0.2245  0.2122
12673SOL    HW149673   3.863   1.582   2.854  0.1752  0.9123  0.0793
12673SOL    HW249674   3.965   1.620   2.976 -0.0593  0.4040  0.4335
12674SOL     OW49675   4.184   4.808   2.051  0.1016 -0.0592  0.3916
12674SOL    HW149676   4.247   4.739   2.015 -1.2505 -1.1894  0.1394
12674SOL    HW249677   4.198   4.895   2.003  0.9171 -0.5135 -0.2053
12675SOL     OW49678   6.555   0.438   1.271  0.7304  0.0656  0.4169
12675SOL    HW149679   6.487   0.476   1.334  0.0825 -0.7737  0.2194
12675SOL    HW249680   6.606   0.365   1.317  0.9612  0.1501  0.2984
12676SOL     OW49681   9.354   5.994   3.867  0.3297  0.2016  0.1897
12676SOL    HW149682   9.260   6.023   3.855  1.2432  2.7723 -1.1235
12676SOL    HW249683   9.397   6.047   3.940  0.8391 -0.7608  0.6044
12677SOL     OW49684   3.880   6.190   0.878 -0.2428  0.0931 -0.0478
12677SOL    HW149685   3.798   6.203   0.934 -0.0079  0.7902  0.1430
12677SOL    HW249686   3.855   6.185   0.782 -0.4388  1.1248 -0.0600
12678SOL     OW49687   5.553   6.246   1.064  0.0691 -0.0587 -0.0415
12678SOL    HW149688   5.611   6.165   1.065  0.1551  0.0075  0.6010
12678SOL    HW249689   5.477   6.234   1.128 -0.5143 -0.0652 -0.7291
12679SOL     OW49690   9.287   4.877   6.181 -0.1312 -0.1300 -0.4508
12679SOL    HW149691   9.270   4.975   6.184 -0.1701 -0.1431 -0.2010
12679SOL    HW249692   9.218   4.829   6.235  1.8528 -0.0123  2.3325
12680SOL     OW49693   8.185   3.688   6.551 -0.6281  0.3371  0.4443
12680SOL    HW149694   8.102   3.726   6.592  0.2167  1.4878  1.1208
12680SOL    HW249695   8.240   3.644   6.622  0.2549  1.2622  0.3428
12681SOL     OW49696   1.204   5.006   5.615  0.1098  0.0341 -0.2179
12681SOL    HW149697   1.301   5.019   5.634 -0.0977 -1.7749  2.2922
12681SOL    HW249698   1.193   4.968   5.523  1.8472 -0.8010 -0.0951
12682SOL     OW49699   7.763   1.695   3.985  0.4681  0.0117 -0.1058
12682SOL    HW149700   7.728   1.715   4.076  0.1549  2.8762 -0.7917
12682SOL    HW249701   7.862   1.680   3.990  0.2609 -1.0309  0.8687
12683SOL     OW49702   6.170   8.050   3.739  0.4803 -0.6824  0.0936
12683SOL    HW149703   6.234   7.976   3.760  0.6955 -0.4851  0.1245
12683SOL    HW249704   6.220   8.134   3.720  0.2515 -0.6603 -0.4159
12684SOL     OW49705   4.144   1.162   5.644  0.5217 -0.1414  0.6688
12684SOL    HW149706   4.196   1.224   5.586 -0.1942 -0.1255  0.0380
12684SOL    HW249707   4.111   1.211   5.725  0.8875  0.0238  0.7178
12685SOL     OW49708   9.411   2.406   2.374 -0.3235  0.1023  0.1920
12685SOL    HW149709   9.395   2.502   2.352 -1.7093  0.2275  1.6152
12685SOL    HW249710   9.405   2.351   2.291 -0.5700  1.1239 -0.4704
12686SOL     OW49711   2.502   0.707   3.945  0.4212  0.6898  0.6501
12686SOL    HW149712   2.423   0.744   3.896 -1.1791 -0.4565  2.3411
12686SOL    HW249713   2.515   0.611   3.920  0.4580  0.4929  1.4287
12687SOL     OW49714   9.570   9.247   1.536 -0.3323 -0.2134 -0.2749
12687SOL    HW149715   9.602   9.302   1.614 -1.3432  0.2304 -0.1680
12687SOL    HW249716   9.572   9.150   1.561 -0.4296 -0.0886  0.2220
12688SOL     OW49717   9.589   5.964   5.771  0.6886  0.3119 -0.1766
12688SOL    HW149718   9.677   6.004   5.797  0.8542 -0.3342  0.3025
12688SOL    HW249719   9.594   5.929   5.678  0.9293  0.3227 -0.1689
12689SOL     OW49720   3.260   6.334   1.932  0.1412 -0.2545 -0.1791
12689SOL    HW149721   3.306   6.262   1.881 -2.2462 -2.3107  0.4893
12689SOL    HW249722   3.215   6.397   1.868 -1.9056 -2.1905 -0.6929
12690SOL     OW49723   2.803   6.281   0.702 -0.0211 -0.1821  0.3178
12690SOL    HW149724   2.849   6.194   0.685 -1.6414 -0.8388 -0.7821
12690SOL    HW249725   2.832   6.349   0.634 -0.2063 -0.4210 -0.0002
12691SOL     OW49726   8.402   4.278   1.852  0.3558  0.1223  0.2109
12691SOL    HW149727   8.359   4.356   1.899  0.5179 -0.5685  1.5486
12691SOL    HW249728   8.331   4.225   1.805  0.1443  0.6540 -0.0718
12692SOL     OW49729   2.018   9.362   0.214 -0.0717  0.5831  0.7545
12692SOL    HW149730   2.104   9.333   0.171 -0.4814  0.0221  0.3158
12692SOL    HW249731   1.969   9.423   0.153 -0.7013 -0.2941  0.3844
12693SOL     OW49732   1.663   8.259   4.977 -0.3500 -0.0219 -0.1265
12693SOL    HW149733   1.680   8.259   4.878 -1.8531 -2.1394 -0.4081
12693SOL    HW249734   1.750   8.248   5.025  0.6563  2.9362 -1.0993
12694SOL     OW49735   4.474   4.350   6.591 -1.0417 -0.9382  0.3599
12694SOL    HW149736   4.486   4.262   6.547 -0.5668 -1.1038  0.8197
12694SOL    HW249737   4.376   4.370   6.601 -1.1437 -1.1083 -0.3435
12695SOL     OW49738   7.726   3.777   2.249  0.0029  0.2886 -0.1683
12695SOL    HW149739   7.794   3.727   2.303 -1.4362  0.2754  1.6629
12695SOL    HW249740   7.656   3.714   2.217 -1.1628  0.8880  1.1276
12696SOL     OW49741   1.812   7.433   5.906 -0.4029  0.1663  0.0387
12696SOL    HW149742   1.790   7.405   6.000  0.9490  2.5193  1.1350
12696SOL    HW249743   1.897   7.390   5.877 -0.2626  0.2528  0.3177
12697SOL     OW49744   2.645   9.547   5.010 -0.1076 -0.1475 -0.1319
12697SOL    HW149745   2.548   9.529   4.997 -0.3033 -0.5907  1.7363
12697SOL    HW249746   2.691   9.554   4.921 -1.5155 -1.6868 -0.9996
12698SOL     OW49747   0.271   9.865   1.348  0.0331 -0.0565  0.6685
12698SOL    HW149748   0.183   9.849   1.394 -1.6307  1.9301 -1.6906
12698SOL    HW249749   0.324   9.931   1.401 -0.0446 -0.9377  1.8856
12699SOL     OW49750   9.630   5.068   7.104 -0.3642  0.2208  0.3693
12699SOL    HW149751   9.598   4.986   7.056 -1.8492 -0.0171  1.7182
12699SOL    HW249752   9.619   5.054   7.203  2.6038  0.6958  0.8182
12700SOL     OW49753   3.946   9.967   2.286 -0.2368  0.7239 -0.2994
12700SOL    HW149754   3.989   9.935   2.201 -0.4346  0.0261 -0.1361
12700SOL    HW249755   3.848   9.949   2.282 -0.1837  0.3152  0.2591
12701SOL     OW49756   0.080   5.439   0.224  0.0926  0.2341 -0.2789
12701SOL    HW149757   0.079   5.520   0.283 -0.3053  1.3188 -1.7437
12701SOL    HW249758   0.167   5.392   0.235  0.1541  0.5958  0.9263
12702SOL     OW49759   4.756   4.033   5.349  0.4204  0.2313 -0.3976
12702SOL    HW149760   4.743   4.109   5.413  1.3602 -0.1823  0.3135
12702SOL    HW249761   4.679   3.970   5.356  0.1555  0.5730 -0.2151
12703SOL     OW49762   8.532   4.973   5.723  0.1435 -0.5096 -0.3302
12703SOL    HW149763   8.566   5.056   5.767  0.3028 -0.5828 -0.3169
12703SOL    HW249764   8.558   4.893   5.777 -1.2018 -0.4704  0.4069
12704SOL     OW49765   8.446   0.456   3.467 -0.1774  0.0106  0.2805
12704SOL    HW149766   8.467   0.474   3.563 -0.1735 -0.4865  0.3728
12704SOL    HW249767   8.351   0.483   3.448 -0.3760 -0.4772  0.5774
12705SOL     OW49768   8.917   3.365   5.300 -0.9671 -0.4420  0.4423
12705SOL    HW149769   8.903   3.318   5.387 -0.7978  1.2048  1.3716
12705SOL    HW249770   9.000   3.329   5.257  0.7908  0.9431  2.5137
12706SOL     OW49771   2.753   3.701   0.350  0.0256  0.3168  0.2087
12706SOL    HW149772   2.850   3.700   0.323 -0.1277  0.9936 -0.3823
12706SOL    HW249773   2.715   3.609   0.342 -0.1238  0.5825 -2.2915
12707SOL     OW49774   5.250   4.197   0.012 -0.0189 -0.2367 -0.2335
12707SOL    HW149775   5.194   4.150  -0.056  0.5079 -0.7000 -0.3542
12707SOL    HW249776   5.316   4.133   0.051  1.4518  0.6451 -1.2013
12708SOL     OW49777   2.251   5.920   5.499  0.1918 -0.0150 -0.1797
12708SOL    HW149778   2.222   5.849   5.435  0.0209  0.1922 -0.3313
12708SOL    HW249779   2.316   5.881   5.564  0.1598 -0.2915 -0.3119
12709SOL     OW49780   0.492   2.415   6.810  0.3045  0.3771 -0.4326
12709SOL    HW149781   0.556   2.340   6.831 -1.0507 -1.0178 -1.1601
12709SOL    HW249782   0.417   2.413   6.875  0.3781  1.2492 -0.3276
12710SOL     OW49783   7.260   8.088   5.744 -0.2000 -0.0475  0.2203
12710SOL    HW149784   7.346   8.037   5.758  0.7738  0.9443 -1.9587
12710SOL    HW249785   7.268   8.178   5.786 -0.3804 -0.1467  0.4705
12711SOL     OW49786   9.149   8.310   4.892 -0.3917  0.0492 -0.4639
12711SOL    HW149787   9.209   8.365   4.835 -0.2445  1.1824  0.7596
12711SOL    HW249788   9.161   8.335   4.988 -0.6174 -1.8427  0.0856
12712SOL     OW49789   7.492   8.014   2.279 -0.2786  1.0335 -0.5952
12712SOL    HW149790   7.447   8.024   2.368 -1.8693 -1.1989 -1.1055
12712SOL    HW249791   7.424   8.019   2.206  0.6467  0.1275 -1.5412
12713SOL     OW49792   7.664   4.451   3.223  0.0442 -0.6283  0.1215
12713SOL    HW149793   7.619   4.413   3.142  0.1018  0.8133 -0.6089
12713SOL    HW249794   7.596   4.487   3.286  0.0859 -0.0448 -0.1645
12714SOL     OW49795   7.653   1.566   1.840 -0.0975  0.2218 -0.7907
12714SOL    HW149796   7.699   1.651   1.865 -2.6928  1.5355 -0.2819
12714SOL    HW249797   7.666   1.498   1.912  1.2301  0.4758 -0.7822
12715SOL     OW49798   9.077   3.437   7.938  0.0689 -0.0019  0.5994
12715SOL    HW149799   9.008   3.367   7.956  0.0598 -0.0862  0.2529
12715SOL    HW249800   9.151   3.397   7.883 -1.1866  0.8965 -1.8375
12716SOL     OW49801   8.245   6.835   5.414 -0.0561 -0.2993 -0.9309
12716SOL    HW149802   8.252   6.930   5.447  0.1333 -0.6532  0.0629
12716SOL    HW249803   8.216   6.835   5.318  0.0591  0.7694 -0.9708
12717SOL     OW49804   1.274   6.044   0.813  0.1826 -0.5386 -0.5279
12717SOL    HW149805   1.177   6.025   0.830  0.2886  0.3932  1.2790
12717SOL    HW249806   1.293   6.037   0.715 -2.1269  1.0981 -1.1357
12718SOL     OW49807   7.844   0.369   2.716  0.0214  0.0161 -0.1048
12718SOL    HW149808   7.833   0.468   2.725  0.1390  0.0223 -0.0301
12718SOL    HW249809   7.756   0.328   2.689 -0.2973  0.0098  0.9433
12719SOL     OW49810   4.019   0.869   5.907 -0.4443 -0.7292 -0.2788
12719SOL    HW149811   3.934   0.827   5.940 -0.1133 -1.0400  0.1822
12719SOL    HW249812   4.051   0.935   5.976  0.3234 -1.4771  0.0883
12720SOL     OW49813   2.936   6.151   3.068 -0.5001  0.0939 -0.5639
12720SOL    HW149814   2.949   6.098   2.984 -0.3369  1.2050 -1.2433
12720SOL    HW249815   2.973   6.243   3.056 -2.2396  0.9069  0.0516
12721SOL     OW49816   7.585   0.268   2.547 -0.2947  0.1118 -0.2110
12721SOL    HW149817   7.493   0.301   2.565 -0.6097 -0.3537 -0.9684
12721SOL    HW249818   7.600   0.181   2.594 -0.3608  0.0119 -0.3746
12722SOL     OW49819   5.817   5.295   0.751 -0.0452  0.2721 -0.1774
12722SOL    HW149820   5.771   5.373   0.709  0.3568  0.1076 -0.9338
12722SOL    HW249821   5.813   5.217   0.688  1.3984  0.3017 -0.3185
12723SOL     OW49822   2.792   7.531   4.334 -0.4000 -0.1089  0.2903
12723SOL    HW149823   2.832   7.448   4.294 -0.5268  1.0454 -2.3208
12723SOL    HW249824   2.831   7.545   4.425 -1.4040 -3.7531  1.3787
12724SOL     OW49825   9.532   2.857   5.823 -0.4254  0.6978  0.5676
12724SOL    HW149826   9.502   2.762   5.820  1.6924  0.0300  0.4268
12724SOL    HW249827   9.498   2.899   5.908  0.1694 -0.7047  1.5261
12725SOL     OW49828   0.732   0.973   6.086  0.0179  0.2590  0.3240
12725SOL    HW149829   0.634   0.953   6.089  0.2666 -1.2328 -0.9835
12725SOL    HW249830   0.752   1.028   6.005  0.5702 -1.1978 -0.5315
12726SOL     OW49831   9.432   4.156   7.685  0.3402  0.2580  0.1902
12726SOL    HW149832   9.466   4.068   7.652  1.0508  1.0201 -1.1134
12726SOL    HW249833   9.391   4.143   7.775  2.6218 -0.9593  1.0982
12727SOL     OW49834   7.371   4.015   0.433 -0.9496 -0.0418  0.3180
12727SOL    HW149835   7.300   3.959   0.391 -0.0562 -2.2690  1.6633
12727SOL    HW249836   7.330   4.080   0.497 -1.9602  0.3794 -0.7522
12728SOL     OW49837   0.018   0.035   7.530 -0.0221  0.4797 -0.3629
12728SOL    HW149838   0.070   0.001   7.609 -0.7031 -0.0533 -0.1316
12728SOL    HW249839   0.023   0.134   7.527  2.4650  0.3421 -1.3748
12729SOL     OW49840   3.300   1.989   6.502 -0.6752  0.4122 -0.6568
12729SOL    HW149841   3.344   2.062   6.449 -0.1748 -0.4149 -1.4101
12729SOL    HW249842   3.329   1.900   6.465 -1.1128 -0.1638  0.3801
12730SOL     OW49843   6.399   1.062   3.960 -1.0755 -0.2508  0.4474
12730SOL    HW149844   6.333   1.012   4.016 -1.1051  0.7317  1.2980
12730SOL    HW249845   6.490   1.024   3.974 -0.9259  0.6366  1.9401
12731SOL     OW49846   9.705   0.331   6.238 -0.3410  0.1310 -0.3265
12731SOL    HW149847   9.735   0.330   6.142 -2.2457  1.5267 -0.9616
12731SOL    HW249848   9.705   0.238   6.273 -0.9827 -0.5688 -2.1196
12732SOL     OW49849   1.472   4.134   7.002 -0.0761 -0.0329  0.3067
12732SOL    HW149850   1.396   4.069   6.993  0.4345 -0.6698  0.5302
12732SOL    HW249851   1.549   4.103   6.945 -0.4851  1.3494 -1.0045
12733SOL     OW49852   2.575   3.280   5.967  0.6710 -0.3114 -0.1140
12733SOL    HW149853   2.674   3.273   5.955  0.8924 -2.3980  2.4464
12733SOL    HW249854   2.554   3.361   6.023  0.8915  0.2201 -0.7882
12734SOL     OW49855   9.818   5.831   6.160  0.1034 -0.4085 -0.4923
12734SOL    HW149856   9.776   5.744   6.132 -1.1570  0.2822 -0.7774
12734SOL    HW249857   9.834   5.888   6.080  0.1256 -0.0335 -0.2237
12735SOL     OW49858   1.271   8.868   5.740 -0.0313 -0.6467 -0.2082
12735SOL    HW149859   1.230   8.780   5.766  0.8221 -0.8856  0.3445
12735SOL    HW249860   1.364   8.873   5.775  0.0337  0.3556 -0.5115
12736SOL     OW49861   8.493   5.890   4.339  0.0199 -0.3129 -0.3988
12736SOL    HW149862   8.432   5.968   4.347  0.7109  0.1654  0.2326
12736SOL    HW249863   8.569   5.912   4.278  0.1782 -0.5225 -0.2786
12737SOL     OW49864   1.938   2.951   5.381  0.9869  0.3491  0.4466
12737SOL    HW149865   1.891   2.862   5.389  0.1825  0.7351  0.1180
12737SOL    HW249866   1.872   3.024   5.395  0.9644  0.9393 -2.3561
12738SOL     OW49867   1.912   7.070   5.124 -0.3465 -0.1924  0.3191
12738SOL    HW149868   1.905   7.095   5.221 -1.9955  0.3419  0.0744
12738SOL    HW249869   1.930   6.971   5.117 -0.0376 -0.2032  1.1603
12739SOL     OW49870   7.933   0.973   5.011  0.0337  0.2560  0.4272
12739SOL    HW149871   7.857   0.991   5.073 -0.9397 -0.5475 -0.5121
12739SOL    HW249872   7.902   0.984   4.916  1.7089  2.3327  0.0676
12740SOL     OW49873   1.792   2.424   1.765  0.3057 -0.4477  0.0944
12740SOL    HW149874   1.796   2.503   1.827 -0.0961 -0.6947  0.4313
12740SOL    HW249875   1.872   2.366   1.780  0.8864  0.1832 -0.5360
12741SOL     OW49876   3.798   9.400   1.432  0.0056  0.2552 -0.0816
12741SOL    HW149877   3.718   9.342   1.420  0.0181 -0.0769  1.3297
12741SOL    HW249878   3.877   9.344   1.456  1.3003  0.2868 -3.8377
12742SOL     OW49879   8.761   2.720   6.257 -0.0203 -0.1504  0.0428
12742SOL    HW149880   8.817   2.772   6.323 -0.7215 -0.0380  0.5607
12742SOL    HW249881   8.820   2.661   6.202  0.5730 -0.3009  0.8275
12743SOL     OW49882   0.313   6.230   4.102 -0.6606  0.4139 -0.2346
12743SOL    HW149883   0.342   6.270   4.189  0.7706 -2.2030  0.5518
12743SOL    HW249884   0.392   6.224   4.040 -1.0754 -0.2586 -0.7050
12744SOL     OW49885   2.262   7.858   2.549 -0.4502  0.1224 -0.0061
12744SOL    HW149886   2.197   7.884   2.621  1.1886  1.1391  1.1272
12744SOL    HW249887   2.353   7.848   2.588  0.6506  1.6403 -2.0746
12745SOL     OW49888   4.560   8.863   3.513 -0.2487  0.1122  0.3054
12745SOL    HW149889   4.528   8.957   3.520 -2.8005 -0.8502  2.3927
12745SOL    HW249890   4.566   8.822   3.604 -1.0093 -2.3113 -0.6863
12746SOL     OW49891   1.986   3.009   2.491  0.3618  0.7878 -0.2314
12746SOL    HW149892   1.932   3.034   2.571  0.4179 -0.5540  0.2469
12746SOL    HW249893   1.937   3.034   2.408 -0.9974 -0.3851  0.2031
12747SOL     OW49894   8.596   2.287   3.906  0.1392 -0.1704 -0.2249
12747SOL    HW149895   8.572   2.343   3.827 -0.3095  1.5110  1.0679
12747SOL    HW249896   8.514   2.245   3.943 -0.1453  1.6182  1.2408
12748SOL     OW49897   6.993   4.324   7.801 -0.0300 -0.2768  0.0077
12748SOL    HW149898   6.967   4.403   7.746  2.8811  0.7172  0.0074
12748SOL    HW249899   7.047   4.353   7.880  1.0768 -2.2422  0.0252
12749SOL     OW49900   7.608   6.894   6.947  0.1608 -0.7154  0.8768
12749SOL    HW149901   7.572   6.987   6.948 -1.5612 -1.3697  1.4525
12749SOL    HW249902   7.703   6.895   6.917  0.0746  1.1993  0.6426
12750SOL     OW49903   0.755   2.844   1.827  0.5313 -0.3891  0.2737
12750SOL    HW149904   0.764   2.932   1.873  1.0551 -0.4484  0.2901
12750SOL    HW249905   0.838   2.789   1.844  1.0873 -0.0977 -1.4343
12751SOL     OW49906   8.098   9.082   2.533 -0.6235 -0.5629 -0.6293
12751SOL    HW149907   8.188   9.118   2.509 -0.2739 -0.7096  0.3921
12751SOL    HW249908   8.097   8.983   2.518 -1.1229 -0.3406 -2.1066
12752SOL     OW49909   7.124   1.152   1.729  0.3330  0.0013  0.2509
12752SOL    HW149910   7.051   1.117   1.670  1.2176 -1.6330  0.0828
12752SOL    HW249911   7.177   1.221   1.679 -1.8842  2.1997  0.8365
12753SOL     OW49912   1.222   7.467   5.714 -0.0553 -0.3928  0.6694
12753SOL    HW149913   1.167   7.391   5.680 -0.9925  0.5538 -0.0010
12753SOL    HW249914   1.318   7.441   5.718  0.2335 -0.2477 -3.6888
12754SOL     OW49915   2.343   7.424   4.373 -0.6385  0.2214  0.2730
12754SOL    HW149916   2.286   7.477   4.436 -2.9258 -0.3550 -1.2137
12754SOL    HW249917   2.315   7.328   4.375 -0.7939  0.2113 -1.6389
12755SOL     OW49918   3.192   1.354   5.762 -0.2596  0.6644  0.1937
12755SOL    HW149919   3.180   1.280   5.695  0.2549  0.0436  0.7821
12755SOL    HW249920   3.108   1.408   5.767 -0.8012 -0.1570  0.0951
12756SOL     OW49921   4.196   0.357   1.226 -0.2007  0.2030 -0.5996
12756SOL    HW149922   4.097   0.363   1.238 -0.0500  0.2042  0.7191
12756SOL    HW249923   4.233   0.448   1.205 -0.5420  0.1025 -1.6635
12757SOL     OW49924   8.449   8.023   5.928  0.0029 -0.3444 -0.6608
12757SOL    HW149925   8.527   7.978   5.883  0.6566  1.3940 -1.2955
12757SOL    HW249926   8.367   8.012   5.871 -0.1672 -1.9001 -0.1451
12758SOL     OW49927   8.164   1.226   1.305 -0.2821  0.1558  0.3318
12758SOL    HW149928   8.076   1.264   1.334  0.3542 -0.3436  3.0025
12758SOL    HW249929   8.234   1.251   1.372  1.2826 -0.8572 -0.9166
12759SOL     OW49930   3.256   8.665   1.475 -0.4274 -0.2721  0.3197
12759SOL    HW149931   3.319   8.672   1.553 -3.3246 -0.1771  2.7043
12759SOL    HW249932   3.176   8.723   1.490 -0.7110  0.3527 -3.1159
12760SOL     OW49933   2.083   3.056   6.413 -0.3858  0.0590 -0.5292
12760SOL    HW149934   2.172   3.081   6.450 -1.4884 -0.1699  2.3772
12760SOL    HW249935   2.075   2.956   6.407 -1.5016 -0.0338  2.0094
12761SOL     OW49936   4.278   5.632   3.131 -0.0750  0.3437  0.4394
12761SOL    HW149937   4.218   5.710   3.148  0.2774  0.9986 -1.2623
12761SOL    HW249938   4.236   5.571   3.065  0.4967  0.0558  0.3384
12762SOL     OW49939   8.756   3.810   1.921 -0.2588 -0.5369 -0.2933
12762SOL    HW149940   8.832   3.833   1.860 -0.8246 -1.3306 -1.3133
12762SOL    HW249941   8.694   3.888   1.929  0.1148 -0.2392 -0.2718
12763SOL     OW49942   8.936   5.689   1.715 -0.0760  0.1572 -0.0678
12763SOL    HW149943   9.011   5.634   1.677  0.9956 -0.0025  2.1921
12763SOL    HW249944   8.881   5.633   1.776 -0.1771  1.0877  0.7011
12764SOL     OW49945   9.180   3.318   0.538  0.1557 -0.1916 -0.4165
12764SOL    HW149946   9.093   3.366   0.522  1.2603  1.3571 -1.9590
12764SOL    HW249947   9.168   3.220   0.521 -1.9157 -0.3906  1.8910
12765SOL     OW49948   7.161   3.981   1.025  0.4647 -0.4984  0.0940
12765SOL    HW149949   7.174   3.892   1.069  0.1363 -1.1185 -1.0572
12765SOL    HW249950   7.063   3.998   1.012  0.4979  0.2761  0.7949
12766SOL     OW49951   9.124   5.174   7.936  0.7520 -0.5860 -0.0980
12766SOL    HW149952   9.208   5.229   7.931 -0.8720  1.8737 -1.3956
12766SOL    HW249953   9.105   5.135   7.846  0.6413 -1.3600  0.2626
12767SOL     OW49954   2.542   8.902   3.506 -0.0742  0.6097 -0.2434
12767SOL    HW149955   2.492   8.861   3.429  2.2770  0.3049 -1.6722
12767SOL    HW249956   2.495   8.881   3.591 -1.9729 -0.2714 -1.4638
12768SOL     OW49957   8.057   9.634   3.339 -0.2700  0.1098 -0.0872
12768SOL    HW149958   8.146   9.651   3.383 -0.0997  0.2598 -0.4877
12768SOL    HW249959   8.017   9.551   3.377  0.2544 -0.2157 -0.2298
12769SOL     OW49960   6.118   9.800   6.189  0.2167  0.3863 -0.3159
12769SOL    HW149961   6.131   9.895   6.220 -2.2824  0.3725  0.9040
12769SOL    HW249962   6.031   9.793   6.140  0.5398 -1.2176 -0.6753
12770SOL     OW49963   2.018   8.510   5.754 -0.1660 -0.6699  0.0928
12770SOL    HW149964   2.026   8.410   5.760  1.2897 -0.6400 -0.9144
12770SOL    HW249965   2.110   8.550   5.746 -0.8573  0.5390 -2.2611
12771SOL     OW49966   5.631   7.569   2.669  0.0114  0.5360  0.1766
12771SOL    HW149967   5.646   7.662   2.636 -1.5422  0.4632 -0.7881
12771SOL    HW249968   5.707   7.511   2.641 -0.7071  0.7324 -2.3000
12772SOL     OW49969   3.545   0.553   1.774  0.3022 -0.3552  0.1600
12772SOL    HW149970   3.609   0.599   1.836  1.7193  0.5188 -1.9169
12772SOL    HW249971   3.539   0.604   1.688 -1.7430 -1.4815 -0.4035
12773SOL     OW49972   4.546   1.044   0.916  0.5952 -0.0760  0.3065
12773SOL    HW149973   4.615   1.072   0.983  0.2304  0.0475  0.6281
12773SOL    HW249974   4.571   1.079   0.826 -0.1951  1.8386  0.8207
12774SOL     OW49975   0.617   1.403   2.684 -0.3562 -0.4812 -0.3605
12774SOL    HW149976   0.643   1.488   2.731 -1.0844 -1.0122  1.0411
12774SOL    HW249977   0.617   1.418   2.585  0.0809  0.9931 -0.1464
12775SOL     OW49978   3.561   2.644   2.444 -0.1757  0.0140 -0.7950
12775SOL    HW149979   3.627   2.653   2.369  0.4774  1.7956 -0.0320
12775SOL    HW249980   3.543   2.734   2.483 -0.3241 -0.9312  1.3542
12776SOL     OW49981   3.959   3.986   6.600  0.1316 -0.3094  0.2120
12776SOL    HW149982   3.977   3.888   6.595  1.5578 -0.0972  0.9383
12776SOL    HW249983   3.919   4.008   6.688  3.2308  0.2601  1.5319
12777SOL     OW49984   1.295   0.063   2.156  0.4613  0.3833  0.1905
12777SOL    HW149985   1.291  -0.028   2.197  1.3007  0.6498  0.8725
12777SOL    HW249986   1.211   0.080   2.104  0.5006 -0.9566 -0.3256
12778SOL     OW49987   0.508   7.472   6.886 -0.3977 -0.2443 -0.0961
12778SOL    HW149988   0.528   7.377   6.864 -1.1730 -0.0340 -1.7641
12778SOL    HW249989   0.515   7.528   6.804  1.2323  1.3550  1.0909
12779SOL     OW49990   0.826   2.103   0.535  0.3237 -0.3912 -0.3793
12779SOL    HW149991   0.865   2.193   0.515  0.8207 -0.7347 -0.9312
12779SOL    HW249992   0.736   2.115   0.577  1.0068  0.4020  0.9054
12780SOL     OW49993   7.178   8.450   4.728 -0.2909 -0.0442  0.0925
12780SOL    HW149994   7.141   8.541   4.750 -3.0364 -0.7493 -1.2809
12780SOL    HW249995   7.115   8.380   4.762 -0.1994 -1.3103 -2.2490
12781SOL     OW49996   1.898   6.485   4.714  0.4016 -0.0536  0.0575
12781SOL    HW149997   1.962   6.531   4.653  1.2353 -1.2370  0.0275
12781SOL    HW249998   1.904   6.525   4.806  0.2083  0.7284 -0.2663
12782SOL     OW49999   2.407   3.602   0.627  0.4352  0.6254  0.3933
12782SOL    HW150000   2.360   3.690   0.615  0.4055  0.6388  0.5973
12782SOL    HW250001   2.362   3.551   0.701  0.5532  0.5087  0.3841
12783SOL     OW50002   2.474   4.393   5.124  0.2259 -0.5055 -0.0283
12783SOL    HW150003   2.532   4.448   5.184  3.3188 -1.7213 -1.8062
12783SOL    HW250004   2.520   4.307   5.101 -1.9226 -1.1658 -2.1542
12784SOL     OW50005   9.115   9.357   3.800  0.2966 -0.1421 -0.3313
12784SOL    HW150006   9.141   9.266   3.768  0.5760 -0.1727 -0.0130
12784SOL    HW250007   9.043   9.394   3.740 -0.8902 -1.1883  0.4200
12785SOL     OW50008   4.870   5.846   0.220 -0.5171 -0.1603  0.1371
12785SOL    HW150009   4.809   5.919   0.191  1.1208  0.5966 -1.4954
12785SOL    HW250010   4.894   5.858   0.316 -1.8509  0.2919  0.4218
12786SOL     OW50011   2.788   7.742   3.430 -0.3090  0.3610 -0.0060
12786SOL    HW150012   2.724   7.665   3.438  0.7675 -0.5334  0.1308
12786SOL    HW250013   2.737   7.827   3.417 -1.5193 -0.3547  0.0261
12787SOL     OW50014   1.762   7.463   3.162  0.3518 -0.0158 -0.3689
12787SOL    HW150015   1.827   7.535   3.138  1.6236 -0.0382  2.7246
12787SOL    HW250016   1.708   7.492   3.242 -0.3860 -1.7375 -0.2242
12788SOL     OW50017   1.920   6.094   1.524 -0.1196 -0.3768 -0.8444
12788SOL    HW150018   1.845   6.124   1.582  1.5153 -0.0781  1.1480
12788SOL    HW250019   1.961   6.173   1.479 -2.5737 -0.7620 -4.0113
12789SOL     OW50020   8.325   2.307   7.692  0.0915 -0.3263 -0.4513
12789SOL    HW150021   8.377   2.245   7.633  2.2985  1.1993 -0.1698
12789SOL    HW250022   8.350   2.402   7.671 -0.0149  0.2938  2.0615
12790SOL     OW50023   9.874   9.488   1.352 -0.4568  0.4030 -0.3603
12790SOL    HW150024   9.804   9.542   1.399 -0.0751  0.8444 -0.2977
12790SOL    HW250025   9.845   9.392   1.348 -0.3483  0.2956  1.0713
12791SOL     OW50026   2.031   6.810   2.524 -0.3821  0.6947  0.1409
12791SOL    HW150027   2.120   6.836   2.486  0.3946  1.0358  2.1002
12791SOL    HW250028   1.961   6.874   2.493 -0.2233 -0.3197 -2.4622
12792SOL     OW50029   9.063   7.657   2.314  0.3025  0.1001  0.6644
12792SOL    HW150030   9.148   7.606   2.304 -0.0880 -0.1417 -1.7955
12792SOL    HW250031   9.078   7.753   2.294  0.1893  0.2336  1.2023
12793SOL     OW50032   1.156   5.264   5.392  0.0952 -0.2069  0.0855
12793SOL    HW150033   1.108   5.178   5.404 -0.7773  0.2806  0.1212
12793SOL    HW250034   1.209   5.262   5.307 -1.9937  0.1896 -1.2440
12794SOL     OW50035   4.279   9.744   5.780  0.4675 -0.2318 -0.1594
12794SOL    HW150036   4.347   9.697   5.724  1.0834  0.0219  0.3750
12794SOL    HW250037   4.251   9.684   5.855  0.0673 -0.3532 -0.4034
12795SOL     OW50038   1.256   4.955   5.323 -0.4074  0.6555 -0.0569
12795SOL    HW150039   1.298   5.043   5.300  0.6045  0.4917  1.1484
12795SOL    HW250040   1.157   4.960   5.308 -0.3433  1.9737 -0.0477
12796SOL     OW50041   0.015   7.222   4.558  0.0939  0.4088 -0.3997
12796SOL    HW150042  -0.077   7.186   4.546  0.6360 -0.5218 -1.9340
12796SOL    HW250043   0.068   7.160   4.616  0.4992 -0.3785 -1.5940
12797SOL     OW50044   8.696   2.437   2.479 -0.4150  0.2885 -0.8002
12797SOL    HW150045   8.744   2.511   2.527 -1.2389 -0.6632  1.5379
12797SOL    HW250046   8.603   2.430   2.513 -0.1811 -2.1922 -0.6154
12798SOL     OW50047   6.876   1.210   3.350 -0.0983  0.0839  0.1419
12798SOL    HW150048   6.947   1.195   3.281 -0.5747  0.8879 -0.5386
12798SOL    HW250049   6.812   1.134   3.348  0.0851 -0.0665 -0.0719
12799SOL     OW50050   6.508   8.159   5.122 -0.0719  0.0705  0.1054
12799SOL    HW150051   6.477   8.239   5.173  0.4789 -0.1737  0.8252
12799SOL    HW250052   6.431   8.121   5.070 -1.0353 -0.6189  1.9932
12800SOL     OW50053   0.862   6.363   0.272 -0.1349 -0.1789 -0.1845
12800SOL    HW150054   0.837   6.306   0.350 -0.8588 -0.9766 -0.9862
12800SOL    HW250055   0.946   6.328   0.230 -0.1566 -0.2038 -0.2081
12801SOL     OW50056   3.583   9.038   6.716  0.2995 -0.2672  0.0539
12801SOL    HW150057   3.584   9.000   6.808  2.3684  1.4857  0.7996
12801SOL    HW250058   3.490   9.066   6.692 -0.0558  0.2526  2.0041
12802SOL     OW50059   1.607   1.590   4.699 -0.4126  0.4401 -0.3006
12802SOL    HW150060   1.598   1.496   4.665  0.2224  0.2034  0.1788
12802SOL    HW250061   1.698   1.603   4.737 -0.7473  1.0285  0.3072
12803SOL     OW50062   8.527   7.035   1.261 -0.3829 -0.3677 -0.3648
12803SOL    HW150063   8.539   7.133   1.247 -1.4082 -0.2434 -0.4280
12803SOL    HW250064   8.490   6.993   1.178 -0.0163 -0.7904 -0.3146
12804SOL     OW50065   8.166   2.966   4.229  0.4677  0.3018  0.1375
12804SOL    HW150066   8.140   3.062   4.233  2.6316  0.8564  2.2807
12804SOL    HW250067   8.191   2.935   4.321  2.1529 -1.6265 -0.9345
12805SOL     OW50068   8.573   3.663   2.855 -0.0350 -0.0364  0.2062
12805SOL    HW150069   8.669   3.640   2.871 -0.4129 -2.7358 -1.1934
12805SOL    HW250070   8.565   3.761   2.839  3.0476 -0.2724 -3.4138
12806SOL     OW50071   6.177   6.300   1.584  0.5350  0.2800  0.1880
12806SOL    HW150072   6.218   6.240   1.653 -0.3850  0.1987  0.6636
12806SOL    HW250073   6.228   6.387   1.582  1.4718 -0.2610 -0.0638
12807SOL     OW50074   0.420   6.252   2.715  0.6758  0.1796  0.3955
12807SOL    HW150075   0.481   6.310   2.769  1.3318 -2.0736  2.1921
12807SOL    HW250076   0.359   6.202   2.776 -0.8952  0.1054 -1.2033
12808SOL     OW50077   2.317   3.388   0.133 -0.5219 -0.5098  0.0010
12808SOL    HW150078   2.337   3.306   0.078 -0.3481 -0.2723 -0.2949
12808SOL    HW250079   2.345   3.372   0.227 -0.1383 -0.6570 -0.1350
12809SOL     OW50080   0.464   9.609   0.447  0.0352 -0.2785 -0.2611
12809SOL    HW150081   0.513   9.561   0.373 -1.4395 -0.3190 -1.2361
12809SOL    HW250082   0.447   9.545   0.522  1.1038 -0.3745 -0.1008
12810SOL     OW50083   6.350   9.040   6.422  0.5661  0.1962 -0.0758
12810SOL    HW150084   6.275   9.073   6.365 -0.1089  0.5774  1.0182
12810SOL    HW250085   6.417   9.113   6.433  0.6804  0.1339 -0.3475
12811SOL     OW50086   9.794   6.785   6.643  0.1127  0.1450  0.0787
12811SOL    HW150087   9.743   6.699   6.649 -0.0454  0.3340  1.6442
12811SOL    HW250088   9.881   6.769   6.596 -0.2994 -0.6886 -0.4126
12812SOL     OW50089   9.449   2.540   4.836  0.0470  0.2735 -0.2832
12812SOL    HW150090   9.373   2.571   4.893  0.0099 -1.2047  0.4720
12812SOL    HW250091   9.423   2.459   4.785  0.5237  0.8172 -1.4177
12813SOL     OW50092   3.620   0.358   4.550  0.0076 -0.5225 -0.5438
12813SOL    HW150093   3.610   0.321   4.458 -0.9120 -1.0895 -0.2237
12813SOL    HW250094   3.691   0.307   4.599  2.1032  1.2186 -1.6483
12814SOL     OW50095   1.979   2.731   2.558  0.2014  0.2581  0.3699
12814SOL    HW150096   1.884   2.716   2.531 -0.3503  1.8158  1.3804
12814SOL    HW250097   2.008   2.822   2.529  1.4841 -0.3035 -0.1672
12815SOL     OW50098   3.183   3.464   3.900  0.6852 -0.1258 -0.0352
12815SOL    HW150099   3.228   3.551   3.920  0.6634 -0.2376  0.5013
12815SOL    HW250100   3.097   3.458   3.951  0.9796 -0.7177  0.4002
12816SOL     OW50101   4.485   9.459   3.693  0.2476 -0.1427 -0.4270
12816SOL    HW150102   4.562   9.498   3.643 -0.4976  0.6352 -0.9901
12816SOL    HW250103   4.403   9.512   3.674 -0.0906  0.0406  1.4886
12817SOL     OW50104   4.740   8.473   3.055  0.2368 -0.5315 -0.0616
12817SOL    HW150105   4.657   8.478   3.111 -0.1535 -1.1680 -0.5755
12817SOL    HW250106   4.768   8.565   3.028  0.1756 -0.2528  0.8121
12818SOL     OW50107   7.639   0.832   2.991  0.1946 -0.1264  0.8281
12818SOL    HW150108   7.598   0.753   3.036  1.3886 -0.1819  1.8410
12818SOL    HW250109   7.658   0.809   2.895 -1.4117 -0.3432  0.5429
12819SOL     OW50110   9.238   8.494   0.927 -0.0493 -0.1062 -0.6315
12819SOL    HW150111   9.164   8.431   0.903  0.7108 -0.6780 -1.4983
12819SOL    HW250112   9.250   8.561   0.854  0.7183 -0.4102 -0.7855
12820SOL     OW50113   3.473   8.300   3.578  0.0632  0.2035  0.0677
12820SOL    HW150114   3.401   8.368   3.584 -0.7977 -0.6175 -0.8646
12820SOL    HW250115   3.441   8.213   3.614  1.2522  0.3527  1.5177
12821SOL     OW50116   3.463   6.442   8.191 -0.0860  0.3642 -0.0952
12821SOL    HW150117   3.397   6.430   8.117  0.1399 -1.7552  0.0133
12821SOL    HW250118   3.498   6.536   8.190 -1.9106  1.0573 -1.1252
12822SOL     OW50119   8.360   8.789   3.993 -0.0057  0.4448  0.5852
12822SOL    HW150120   8.446   8.740   3.975  0.1305  1.7093 -2.3254
12822SOL    HW250121   8.376   8.862   4.059  1.1051  0.5026  0.2538
12823SOL     OW50122   8.077   5.688   1.746  0.4208 -0.1875  0.3690
12823SOL    HW150123   8.175   5.704   1.758  0.5156 -0.8075  0.4414
12823SOL    HW250124   8.031   5.775   1.727  1.0674  0.0291 -0.2446
12824SOL     OW50125   0.924   9.248   5.307  0.3721  0.5093  0.2930
12824SOL    HW150126   0.946   9.152   5.324 -0.2957  0.3498  0.2736
12824SOL    HW250127   0.991   9.306   5.352  0.9343  0.0269  0.0759
12825SOL     OW50128   0.842   0.640   5.569  1.0029  0.5156  0.4243
12825SOL    HW150129   0.909   0.604   5.634  1.0416 -0.9781 -0.3971
12825SOL    HW250130   0.773   0.570   5.550  0.1821  1.4356 -0.0445
12826SOL     OW50131   3.757   4.381   4.813 -0.0009  0.4672 -0.0773
12826SOL    HW150132   3.665   4.350   4.791 -0.4260  2.0204 -0.5698
12826SOL    HW250133   3.790   4.334   4.894 -0.9594 -0.5975 -0.2967
12827SOL     OW50134   1.300   0.934   8.144 -0.3555 -0.2041  0.1256
12827SOL    HW150135   1.317   0.930   8.242 -0.3661  1.4533  0.2078
12827SOL    HW250136   1.204   0.913   8.125 -0.3645 -0.4672  0.4773
12828SOL     OW50137   0.717   8.727   0.106  0.1145  0.0216 -0.3669
12828SOL    HW150138   0.711   8.759   0.200 -2.1564 -1.6458  0.0680
12828SOL    HW250139   0.774   8.791   0.054  3.0471 -0.0829  2.5418
12829SOL     OW50140   2.823   6.460   2.011  0.5925 -0.1204  0.2952
12829SOL    HW150141   2.741   6.510   2.039 -0.5403 -1.8860  0.2328
12829SOL    HW250142   2.878   6.438   2.092  0.2035 -0.2860  0.5170
12830SOL     OW50143   9.608   7.263   6.306  0.6188 -0.3893 -0.0222
12830SOL    HW150144   9.566   7.254   6.216  1.5524 -0.5914 -0.4397
12830SOL    HW250145   9.539   7.245   6.377  0.0326 -0.8072 -0.6956
12831SOL     OW50146   0.017   1.219   4.866  0.3420  0.1592  0.1045
12831SOL    HW150147  -0.020   1.255   4.781  0.6412  0.8050  0.2432
12831SOL    HW250148   0.017   1.292   4.935  0.0182 -0.3818  0.6769
12832SOL     OW50149   3.836   0.522   6.449 -0.1139  0.7277  0.0944
12832SOL    HW150150   3.787   0.436   6.430 -0.4036  0.5962  1.4094
12832SOL    HW250151   3.790   0.571   6.523  1.0644  1.1748  0.5402
12833SOL     OW50152   4.230   1.351   8.035 -0.3073 -0.2880 -0.3446
12833SOL    HW150153   4.135   1.325   8.023 -0.1412 -0.5041 -1.2273
12833SOL    HW250154   4.288   1.293   7.978  0.2027  0.9506 -1.1209
12834SOL     OW50155   5.652   1.752   3.288 -0.5043  0.3803 -0.1883
12834SOL    HW150156   5.707   1.678   3.327  1.1332  1.5410 -0.2162
12834SOL    HW250157   5.589   1.787   3.357 -1.7275 -1.4426 -0.3629
12835SOL     OW50158   8.863   6.093   1.059  0.1963  0.3724  0.2024
12835SOL    HW150159   8.918   6.125   1.136 -0.4155  1.7496  0.0824
12835SOL    HW250160   8.776   6.143   1.057 -0.6690 -1.1084 -0.1703
12836SOL     OW50161   3.643   2.220   8.133  0.1237 -0.1430 -0.2606
12836SOL    HW150162   3.701   2.252   8.207 -0.7818  1.9145 -0.4025
12836SOL    HW250163   3.662   2.273   8.050 -1.7063  0.3659 -0.3840
12837SOL     OW50164   0.947   8.969   6.530  0.0076  0.1868  0.4959
12837SOL    HW150165   0.986   9.057   6.504 -1.0884  0.3965 -0.5338
12837SOL    HW250166   0.974   8.899   6.464 -2.3257  0.5989 -0.9566
12838SOL     OW50167   0.329   5.484   7.484  0.2699 -0.2278 -0.3081
12838SOL    HW150168   0.284   5.398   7.461  0.6973 -0.8931  1.2951
12838SOL    HW250169   0.428   5.473   7.475  0.2999  0.2608 -0.6091
12839SOL     OW50170   3.767   3.548   8.065  0.2906 -0.0840  0.1208
12839SOL    HW150171   3.862   3.539   8.035 -0.1232  1.9709 -1.9196
12839SOL    HW250172   3.725   3.458   8.071  1.9523 -0.9049 -0.3449
12840SOL     OW50173   9.604   8.530   1.752  0.6092  1.2543 -0.1440
12840SOL    HW150174   9.573   8.614   1.795 -0.5624  0.6376  0.2278
12840SOL    HW250175   9.588   8.453   1.813  0.4672  0.5908 -1.0059
12841SOL     OW50176   8.049   0.656   8.085  0.3669 -0.1984  0.4135
12841SOL    HW150177   7.954   0.658   8.055  0.6027 -1.6526 -0.4619
12841SOL    HW250178   8.055   0.695   8.177 -0.5635  2.9361 -0.7774
12842SOL     OW50179   4.365   5.568   2.484 -0.1460 -0.0793 -0.0332
12842SOL    HW150180   4.464   5.576   2.496  0.0092 -2.5259  0.4141
12842SOL    HW250181   4.320   5.568   2.573 -0.4568 -0.1716 -0.1869
12843SOL     OW50182   7.838   0.559   7.033 -0.0183 -0.2290  0.4116
12843SOL    HW150183   7.924   0.531   7.075 -0.1445 -1.0106  0.1603
12843SOL    HW250184   7.795   0.480   6.989 -0.4823  0.3252 -0.1396
12844SOL     OW50185   5.088   4.895   7.309 -0.4763 -0.1463 -0.3257
12844SOL    HW150186   5.019   4.967   7.314  0.8531  1.1648 -0.4064
12844SOL    HW250187   5.163   4.917   7.372 -0.8359 -2.3227  0.8957
12845SOL     OW50188   1.844   5.301   0.622 -0.2216 -0.3287 -0.5355
12845SOL    HW150189   1.825   5.398   0.608 -0.2165 -0.4103 -1.1088
12845SOL    HW250190   1.890   5.288   0.710  0.7047  0.3058 -0.9271
12846SOL     OW50191   0.293   6.737   4.104  0.2182 -0.5365  0.0736
12846SOL    HW150192   0.221   6.721   4.037 -1.9222  1.5368  1.8106
12846SOL    HW250193   0.355   6.808   4.071  1.4613 -2.2427 -1.3711
12847SOL     OW50194   3.241   4.738   5.180 -0.6132  0.3557  0.2308
12847SOL    HW150195   3.146   4.746   5.150 -0.8663 -2.1443  0.2444
12847SOL    HW250196   3.301   4.728   5.100 -0.5459  0.2554  0.2931
12848SOL     OW50197   6.451   4.976   2.199 -0.1151  0.6686  0.2478
12848SOL    HW150198   6.525   5.037   2.170 -0.4767  1.0831  0.1922
12848SOL    HW250199   6.365   5.026   2.201 -0.4879  0.0521 -0.1900
12849SOL     OW50200   1.374   9.924   3.366 -0.0895  0.5309 -0.8107
12849SOL    HW150201   1.407   9.832   3.388  3.4113  1.8339 -0.3072
12849SOL    HW250202   1.305   9.952   3.433 -0.9756 -1.5570 -0.8018
12850SOL     OW50203   0.860   2.786   1.209 -0.9993 -0.7709 -0.0898
12850SOL    HW150204   0.845   2.861   1.274 -2.0150 -0.9326 -0.1271
12850SOL    HW250205   0.946   2.800   1.161 -0.1347 -0.7330  1.4193
12851SOL     OW50206   9.516   9.945   3.008  0.2164 -0.2584  0.0880
12851SOL    HW150207   9.544   9.918   2.916 -0.6601  1.4440 -0.7238
12851SOL    HW250208   9.556   9.884   3.075  1.9774 -0.7198 -1.3393
12852SOL     OW50209   1.794   1.722   2.625  0.2810 -0.1587 -0.2892
12852SOL    HW150210   1.740   1.774   2.558  0.6264 -2.3125 -2.2990
12852SOL    HW250211   1.854   1.785   2.675 -1.1813  1.7097 -0.8429
12853SOL     OW50212   3.951   5.804   7.727  0.1500  0.3396  0.0314
12853SOL    HW150213   4.017   5.732   7.751 -0.8765  0.0704  2.1436
12853SOL    HW250214   3.977   5.889   7.773 -0.6657  0.3690  0.4456
12854SOL     OW50215   8.609   8.941   1.980  0.6654 -0.5022  0.4867
12854SOL    HW150216   8.635   8.918   2.074  4.1062 -0.7130 -0.4646
12854SOL    HW250217   8.606   9.040   1.970 -1.4461 -0.4613  1.2353
12855SOL     OW50218   2.189   1.439   5.997  0.0094 -0.2904 -0.0936
12855SOL    HW150219   2.111   1.377   6.002  0.2307 -0.6177 -0.6661
12855SOL    HW250220   2.251   1.409   5.924 -0.0629  0.8018 -0.6145
12856SOL     OW50221   9.076   3.532   1.168 -0.2939 -0.1013  0.9411
12856SOL    HW150222   8.986   3.573   1.151 -0.3951 -0.3991  0.7448
12856SOL    HW250223   9.075   3.436   1.139 -0.0775 -0.2593  1.4395
12857SOL     OW50224   0.975   7.847   4.019  0.4895 -0.2653 -0.4313
12857SOL    HW150225   0.938   7.784   3.950 -0.6260  0.2755 -0.3469
12857SOL    HW250226   1.073   7.832   4.028  0.7537 -0.0185 -2.5082
12858SOL     OW50227   8.865   0.976   5.964  0.3395  0.7183  0.0891
12858SOL    HW150228   8.933   0.924   5.914  1.6200  1.0056  1.4910
12858SOL    HW250229   8.781   0.982   5.910  0.7727 -1.2498 -0.8532
12859SOL     OW50230   3.939   9.171   5.210  0.2217  0.1461 -0.0712
12859SOL    HW150231   4.020   9.155   5.266  0.2426 -3.7947 -1.0552
12859SOL    HW250232   3.967   9.193   5.116  0.1384  1.4851  0.2062
12860SOL     OW50233   3.204   6.976   2.591  0.0235  0.2163  0.1770
12860SOL    HW150234   3.114   7.016   2.609 -0.3574 -0.9394  0.8864
12860SOL    HW250235   3.275   7.045   2.607 -0.6452  0.6934  1.1485
12861SOL     OW50236   1.342   0.638   1.849 -0.2273  0.9733 -0.1433
12861SOL    HW150237   1.290   0.572   1.795 -1.1562  1.5479  0.0431
12861SOL    HW250238   1.438   0.635   1.821 -0.2423 -0.4967 -0.0941
12862SOL     OW50239   8.029   4.749   3.858 -0.0874  0.1332 -0.0134
12862SOL    HW150240   8.015   4.752   3.957  3.3562  0.7988  0.4956
12862SOL    HW250241   7.954   4.698   3.815 -0.8092 -1.4918  3.0649
12863SOL     OW50242   0.219   3.932   0.750 -0.4870 -0.4896 -0.1327
12863SOL    HW150243   0.192   3.907   0.843  0.6412 -2.0901 -0.1998
12863SOL    HW250244   0.137   3.938   0.692 -1.2980  1.6206  1.1933
12864SOL     OW50245   5.226   1.130   5.312  0.2366  0.3938  0.3766
12864SOL    HW150246   5.259   1.176   5.394  0.9249  0.6174 -0.0183
12864SOL    HW250247   5.198   1.036   5.334  0.3368  0.4832  0.8773
12865SOL     OW50248   1.725   6.677   3.648 -0.3935  0.2289 -0.0261
12865SOL    HW150249   1.721   6.774   3.671  0.5579  0.3675 -0.3878
12865SOL    HW250250   1.696   6.664   3.553 -3.0550 -0.1785  0.8005
12866SOL     OW50251   4.230   1.297   0.464  0.3818  0.0476 -0.5004
12866SOL    HW150252   4.237   1.393   0.436 -1.4049  0.8117  1.4758
12866SOL    HW250253   4.226   1.239   0.384 -3.5652  2.0450 -1.9167
12867SOL     OW50254   3.073   1.906   1.600  0.6278  0.1188  0.3657
12867SOL    HW150255   3.105   1.871   1.688 -0.2248 -0.2923  0.5170
12867SOL    HW250256   3.053   1.830   1.539  0.2418  0.3794  0.1642
12868SOL     OW50257   7.571   6.427   1.776 -0.9446 -0.3387 -0.0052
12868SOL    HW150258   7.503   6.474   1.831 -0.8238 -0.6399  0.4044
12868SOL    HW250259   7.663   6.455   1.805 -0.8904  0.1057 -0.5873
12869SOL     OW50260   7.646   5.230   1.003  0.4136 -0.0681 -0.0928
12869SOL    HW150261   7.723   5.253   1.063 -0.9131  2.9744  0.5410
12869SOL    HW250262   7.587   5.164   1.049 -0.3921  1.9555  1.8760
12870SOL     OW50263   5.782   7.647   3.042  0.6368 -0.2987 -0.6854
12870SOL    HW150264   5.793   7.594   2.959 -1.6484 -2.3022  0.2407
12870SOL    HW250265   5.831   7.602   3.117  0.6893  0.2081 -0.4097
12871SOL     OW50266   7.020   7.317   2.954 -0.4922 -0.0555 -0.2592
12871SOL    HW150267   6.977   7.236   2.994 -1.6215  0.6358 -0.0525
12871SOL    HW250268   6.971   7.343   2.870 -0.5996  0.8421  0.0764
12872SOL     OW50269   1.749   2.866   0.504 -0.1144  0.2687 -0.0403
12872SOL    HW150270   1.815   2.791   0.493  0.8457  1.1477 -0.2701
12872SOL    HW250271   1.796   2.949   0.530 -1.0541  1.0891 -0.8910
12873SOL     OW50272   4.642   1.232   1.871 -0.3160  0.0525 -0.8126
12873SOL    HW150273   4.685   1.151   1.910  1.5348  0.1293 -2.6172
12873SOL    HW250274   4.563   1.258   1.927  1.2324 -0.8060  1.8694
12874SOL     OW50275   3.808   7.897   1.951 -0.5840 -0.2872  0.1520
12874SOL    HW150276   3.842   7.877   1.859 -1.1245 -1.8923  0.2874
12874SOL    HW250277   3.845   7.985   1.982 -0.9473  0.5979 -1.8624
12875SOL     OW50278   9.893   8.454   6.541 -0.2396 -0.3699  0.2931
12875SOL    HW150279   9.878   8.470   6.444 -0.2713 -0.6502  0.2534
12875SOL    HW250280   9.853   8.366   6.568  1.2010 -1.0644  0.2107
12876SOL     OW50281   8.556   4.687   7.809 -0.5634  0.0369  0.0521
12876SOL    HW150282   8.642   4.649   7.842  0.1025  0.8468 -0.7289
12876SOL    HW250283   8.481   4.624   7.831  0.2400 -0.7292  0.6189
12877SOL     OW50284   0.127   0.488   3.736  0.0324  0.0583 -0.0190
12877SOL    HW150285   0.084   0.578   3.740  3.3163  1.6639  0.5281
12877SOL    HW250286   0.151   0.457   3.828  0.4420 -0.6016 -0.3390
12878SOL     OW50287   2.491   0.794   7.971 -0.1605 -0.3748 -0.2855
12878SOL    HW150288   2.488   0.875   7.913 -0.4573 -0.5236 -0.4728
12878SOL    HW250289   2.418   0.798   8.039  1.0845  0.5316  1.0459
12879SOL     OW50290   0.814   7.928   0.937 -0.3055  0.0624  0.4076
12879SOL    HW150291   0.779   7.844   0.897 -1.1636  0.3115  0.6375
12879SOL    HW250292   0.776   8.007   0.889  1.7485  0.3228 -0.8818
12880SOL     OW50293   5.062   8.178   6.588  0.3270 -0.1531  0.5088
12880SOL    HW150294   5.145   8.231   6.574  1.6457 -2.4003 -0.3993
12880SOL    HW250295   5.060   8.101   6.525 -2.3319 -0.2879  0.6995
12881SOL     OW50296   3.572   0.229   5.725 -0.4830  0.5925  0.4441
12881SOL    HW150297   3.587   0.132   5.707  0.2498  0.6120  0.9442
12881SOL    HW250298   3.626   0.257   5.804  0.3842  1.7496 -0.5505
12882SOL     OW50299   0.866   3.476   1.031  0.1183  0.4142 -0.2662
12882SOL    HW150300   0.792   3.517   0.978 -0.4949 -0.5335 -0.1561
12882SOL    HW250301   0.942   3.454   0.971 -0.2384  0.1244 -0.6163
12883SOL     OW50302   5.609   5.356   0.368 -0.4673 -0.4773 -0.2106
12883SOL    HW150303   5.543   5.427   0.346 -3.0778 -2.8497 -0.3078
12883SOL    HW250304   5.636   5.307   0.285  0.3988 -0.4054  0.0154
12884SOL     OW50305   2.120   7.528   3.060  0.3928 -0.0480  0.1246
12884SOL    HW150306   2.104   7.441   3.013  1.6749 -0.2026 -0.0439
12884SOL    HW250307   2.136   7.600   2.992  1.0881 -0.0367  0.2961
12885SOL     OW50308   1.841   5.968   0.694  0.7067 -0.4359  0.3662
12885SOL    HW150309   1.798   5.976   0.784 -0.0498 -2.5144  0.2217
12885SOL    HW250310   1.941   5.969   0.705  0.6219 -0.1511  1.1722
12886SOL     OW50311   4.522   0.983   7.924 -0.1107  0.0261 -0.5259
12886SOL    HW150312   4.603   1.012   7.872  0.7816  0.6132  1.1164
12886SOL    HW250313   4.472   0.914   7.873  0.7982  0.5067 -2.0959
12887SOL     OW50314   5.210   2.647   5.019 -0.3476 -0.3802  0.6804
12887SOL    HW150315   5.183   2.553   5.039  0.9484 -1.3473 -1.8054
12887SOL    HW250316   5.136   2.693   4.970  0.3890 -1.3512 -1.4399
12888SOL     OW50317   5.143   1.142   7.303 -0.5706  0.1844  0.2568
12888SOL    HW150318   5.190   1.145   7.215  0.2889  1.1456  0.7246
12888SOL    HW250319   5.115   1.049   7.324  0.6172 -0.3026 -0.3107
12889SOL     OW50320   1.461   4.072   1.728 -0.6004 -0.1712 -0.2145
12889SOL    HW150321   1.475   4.040   1.634  0.5268 -0.0412 -0.1038
12889SOL    HW250322   1.504   4.161   1.739 -0.3396 -0.3904  0.5499
12890SOL     OW50323   9.625   4.954   6.148 -0.0749 -0.2218  0.0707
12890SOL    HW150324   9.703   4.941   6.210 -0.3254 -0.9186  0.2405
12890SOL    HW250325   9.620   5.050   6.121  0.4280 -0.0392  0.6095
12891SOL     OW50326   9.948   6.969   3.725  0.3336  0.2503  0.3742
12891SOL    HW150327  10.041   6.968   3.762  0.3103 -1.6499  0.4440
12891SOL    HW250328   9.932   7.054   3.676  1.7215  1.0853  1.3475
12892SOL     OW50329   6.113   4.580   7.319  0.1874 -0.1171  0.3218
12892SOL    HW150330   6.112   4.606   7.223 -0.7824 -0.8818  0.1147
12892SOL    HW250331   6.041   4.513   7.336 -0.1352  0.5680  1.7346
12893SOL     OW50332   7.180   0.908   7.870 -0.6460  0.0188  0.0686
12893SOL    HW150333   7.152   0.901   7.774  2.2047 -0.0644 -0.7941
12893SOL    HW250334   7.205   1.002   7.891  2.3020 -0.6318 -0.3459
12894SOL     OW50335   2.282   0.853   2.655 -0.2080  0.0712 -0.1182
12894SOL    HW150336   2.284   0.811   2.564  1.5310  0.7950 -0.4345
12894SOL    HW250337   2.194   0.836   2.698 -0.3241 -2.0009 -1.1330
12895SOL     OW50338   0.582   7.670   7.040  0.2822 -0.3972 -0.0625
12895SOL    HW150339   0.619   7.743   6.984 -0.8886 -0.2440 -0.6624
12895SOL    HW250340   0.554   7.594   6.981  1.5384 -1.3442  0.5597
12896SOL     OW50341   8.537   1.005   0.513  0.3906  1.0590 -0.0545
12896SOL    HW150342   8.559   0.999   0.610 -0.1797  1.9134  0.1371
12896SOL    HW250343   8.552   0.917   0.469 -3.7116 -0.5993  1.6905
12897SOL     OW50344   7.225   9.354   6.796 -0.4413 -0.0013  0.1578
12897SOL    HW150345   7.228   9.255   6.785 -0.7856  0.0549 -0.4387
12897SOL    HW250346   7.138   9.381   6.837 -0.5012  0.0880 -0.0262
12898SOL     OW50347   1.480   1.725   1.021 -0.0105 -0.0115  0.4448
12898SOL    HW150348   1.510   1.714   1.115 -1.2593 -2.0852  0.6322
12898SOL    HW250349   1.395   1.778   1.018  0.8143  1.3266  0.3447
12899SOL     OW50350   0.458   4.722   0.046 -0.3003  0.0856 -0.5427
12899SOL    HW150351   0.530   4.733   0.115  1.6698 -0.4443 -2.4674
12899SOL    HW250352   0.375   4.690   0.091  0.8413  0.0051  1.6348
12900SOL     OW50353   3.939   9.112   6.537 -0.2240 -0.1253  0.4725
12900SOL    HW150354   3.934   9.210   6.552  1.3334  0.1160 -0.4614
12900SOL    HW250355   4.031   9.087   6.506 -1.3053 -1.4967 -1.8579
12901SOL     OW50356   8.177   6.504   3.294  0.0726 -0.0543 -0.2037
12901SOL    HW150357   8.277   6.509   3.288  0.0039  0.7312 -0.7545
12901SOL    HW250358   8.137   6.584   3.248 -0.8072 -0.3858 -0.0140
12902SOL     OW50359   2.688   0.114   2.326  0.3790  0.1606  0.1748
12902SOL    HW150360   2.730   0.091   2.414  1.2389 -1.1513 -0.5625
12902SOL    HW250361   2.707   0.210   2.305  2.8809 -0.3431 -0.0482
12903SOL     OW50362   0.529   3.033   0.553 -0.0594  0.0468  0.0515
12903SOL    HW150363   0.569   2.945   0.578  0.8550  0.5120  0.2393
12903SOL    HW250364   0.597   3.088   0.505 -0.8804  0.3317 -0.7984
12904SOL     OW50365   3.999   2.973   7.604  0.1595 -0.0293  0.3548
12904SOL    HW150366   3.913   3.009   7.639 -0.1591 -1.9917  1.7329
12904SOL    HW250367   3.996   2.969   7.505 -2.0824 -1.7486  0.4384
12905SOL     OW50368   7.860   4.621   1.690 -0.1175  0.0137  0.3216
12905SOL    HW150369   7.898   4.705   1.730 -1.9984  0.8933  0.2833
12905SOL    HW250370   7.812   4.569   1.761  0.6067 -0.8006  0.2296
12906SOL     OW50371   9.752   5.593   6.008  0.0404 -0.0983  0.0526
12906SOL    HW150372   9.841   5.574   5.965 -0.2013  0.9369 -0.9382
12906SOL    HW250373   9.679   5.575   5.942 -0.3720  0.8579  0.2484
12907SOL     OW50374   5.226   9.862   3.063  0.2711 -0.4577  0.2633
12907SOL    HW150375   5.271   9.846   2.975  2.1797 -1.2187  1.3525
12907SOL    HW250376   5.194   9.957   3.067  1.3632 -0.0400 -0.7426
12908SOL     OW50377   1.933   7.647   6.677  1.0394 -0.5861  0.4643
12908SOL    HW150378   2.000   7.582   6.640  1.9503 -0.1969  1.4041
12908SOL    HW250379   1.979   7.733   6.700 -0.4889  1.1321 -2.5997
12909SOL     OW50380   4.480   4.197   8.081  0.5734  0.4011 -0.2064
12909SOL    HW150381   4.382   4.218   8.087  0.2185 -1.5435  0.9278
12909SOL    HW250382   4.496   4.135   8.004  0.5476 -1.3395  1.1713
12910SOL     OW50383   8.313   8.778   6.099  0.2760  0.0233  0.6483
12910SOL    HW150384   8.411   8.794   6.084 -0.0646  1.3485 -0.2124
12910SOL    HW250385   8.289   8.687   6.066  1.0110  0.0870 -0.0906
12911SOL     OW50386   3.600   7.727   2.308  0.1325 -0.3061  0.0242
12911SOL    HW150387   3.645   7.815   2.296 -0.6275 -0.0982 -1.3663
12911SOL    HW250388   3.501   7.740   2.312  0.1455 -0.7571  3.0580
12912SOL     OW50389   3.472   5.166   8.137  0.1176  0.7800  0.6117
12912SOL    HW150390   3.396   5.138   8.195 -0.4734  1.2250  0.0725
12912SOL    HW250391   3.532   5.228   8.188  1.4256 -1.4117  1.7954
12913SOL     OW50392   9.646   3.155   0.781 -1.1389 -0.5953 -0.1295
12913SOL    HW150393   9.699   3.229   0.738 -0.8842 -0.9917 -0.5046
12913SOL    HW250394   9.572   3.194   0.836  1.1523  0.0834  2.5731
12914SOL     OW50395   7.225   1.557   0.355  0.3109 -0.4671 -0.3369
12914SOL    HW150396   7.310   1.589   0.396  0.9047 -0.5030 -1.5017
12914SOL    HW250397   7.193   1.625   0.289  0.3295 -1.2091 -1.1187
12915SOL     OW50398   7.373   2.816   4.408 -0.2431 -0.1269  0.0573
12915SOL    HW150399   7.300   2.884   4.397 -1.2124 -0.9919  1.0357
12915SOL    HW250400   7.408   2.821   4.501  0.5517 -0.1272 -0.2385
12916SOL     OW50401   6.590   8.711   6.227 -0.1415 -0.7654 -0.8002
12916SOL    HW150402   6.500   8.751   6.247 -0.7708 -2.1243 -0.7819
12916SOL    HW250403   6.646   8.713   6.310 -0.4598 -0.6618 -0.5821
12917SOL     OW50404   2.630   4.580   5.278  0.9009  0.1579 -0.3590
12917SOL    HW150405   2.585   4.653   5.329 -0.7979 -0.5800 -0.7866
12917SOL    HW250406   2.722   4.565   5.315  0.7529  1.5737  0.6071
12918SOL     OW50407   2.372   9.475   7.237 -0.2685 -0.3180 -0.2382
12918SOL    HW150408   2.419   9.452   7.152  1.7639 -1.2190  1.0845
12918SOL    HW250409   2.379   9.573   7.254 -0.0741 -0.2446 -0.7380
12919SOL     OW50410   3.787   9.906   5.658  0.4840 -0.9773 -0.2334
12919SOL    HW150411   3.768   9.816   5.695  0.0451  0.0906  2.2280
12919SOL    HW250412   3.885   9.924   5.662  0.4135 -0.7629  0.7235
12920SOL     OW50413   4.729   1.028   7.758 -0.3712 -0.2284 -0.3887
12920SOL    HW150414   4.671   1.000   7.682 -0.8293  1.8996 -0.8647
12920SOL    HW250415   4.815   0.978   7.755  0.2469  0.9005 -3.2392
12921SOL     OW50416   3.672   0.043   0.647 -0.0546  0.5618  0.7665
12921SOL    HW150417   3.651   0.139   0.664 -0.1007  0.6129  0.4282
12921SOL    HW250418   3.591  -0.002   0.608  0.3094  0.6517 -0.1126
12922SOL     OW50419   9.181   4.446   2.307 -0.5637 -0.5631 -0.1341
12922SOL    HW150420   9.133   4.529   2.334 -0.8563 -1.1023  1.0729
12922SOL    HW250421   9.130   4.400   2.235 -0.9852 -0.2614 -0.0309
12923SOL     OW50422   0.233   0.854   4.119  0.0573 -0.3443  0.4798
12923SOL    HW150423   0.281   0.768   4.108  0.8834  0.0568  0.9146
12923SOL    HW250424   0.225   0.877   4.216  1.5370  0.9968  0.3129
12924SOL     OW50425   0.377   0.997   3.134 -0.3055  0.3835  0.0641
12924SOL    HW150426   0.449   1.058   3.168 -0.9268  2.4107 -2.1500
12924SOL    HW250427   0.339   0.945   3.211  1.6124  1.2971  1.6835
12925SOL     OW50428   3.779   5.713   1.394 -0.2336  0.3014 -0.2456
12925SOL    HW150429   3.716   5.708   1.471  0.8905 -3.1886  0.5332
12925SOL    HW250430   3.865   5.668   1.417  1.6163  2.6514 -2.2158
12926SOL     OW50431   3.829   9.533   5.442  0.2078  0.0365 -0.1587
12926SOL    HW150432   3.791   9.459   5.385  1.2462 -0.6997  0.0812
12926SOL    HW250433   3.858   9.609   5.383  1.4608 -0.8013 -0.6563
12927SOL     OW50434   1.531   1.126   0.226  0.2227  0.4484  0.2990
12927SOL    HW150435   1.480   1.040   0.234  1.6154 -0.5062 -0.8485
12927SOL    HW250436   1.471   1.203   0.249 -1.1061 -0.8037  1.0980
12928SOL     OW50437   6.405   8.397   2.637 -0.7401 -0.0410  0.5420
12928SOL    HW150438   6.434   8.346   2.555  1.0863 -1.8651  2.2603
12928SOL    HW250439   6.312   8.430   2.624 -0.8787 -1.2135 -1.8533
12929SOL     OW50440   6.527   0.473   5.397 -0.3299 -0.2378  0.6476
12929SOL    HW150441   6.447   0.436   5.445 -0.0344 -2.1482 -0.2637
12929SOL    HW250442   6.538   0.425   5.310  1.0725  0.9052  0.1780
12930SOL     OW50443   0.292   7.731   0.108  0.2059  0.2323 -0.1078
12930SOL    HW150444   0.362   7.803   0.109 -0.6379  1.1745 -2.9513
12930SOL    HW250445   0.326   7.652   0.058 -1.1516  1.1974 -2.6589
12931SOL     OW50446   7.696   1.414   8.079  0.0636 -0.1844  0.5727
12931SOL    HW150447   7.786   1.425   8.122  0.7464 -0.0430 -0.8579
12931SOL    HW250448   7.708   1.402   7.981 -1.4412 -1.1519  0.4984
12932SOL     OW50449   5.694   5.674   0.900 -0.5745 -0.4669 -0.0900
12932SOL    HW150450   5.600   5.698   0.921 -0.5053 -1.2490  1.1572
12932SOL    HW250451   5.702   5.652   0.803 -1.9258 -1.5406  0.0255
12933SOL     OW50452   6.341   8.771   2.925  0.4188  0.2500 -0.7690
12933SOL    HW150453   6.351   8.685   2.974 -1.4752  0.0902 -0.6145
12933SOL    HW250454   6.421   8.829   2.942  0.2794 -0.2198  1.6744
12934SOL     OW50455   5.923   7.789   1.929  0.0931 -1.0217 -0.1798
12934SOL    HW150456   5.882   7.826   2.013  0.7736 -0.4825 -0.0917
12934SOL    HW250457   5.986   7.715   1.953  0.1687 -0.9728 -0.2278
12935SOL     OW50458   6.872   1.642   6.301 -0.1812 -0.2506 -0.3754
12935SOL    HW150459   6.904   1.549   6.281  2.0504  0.5519 -0.7127
12935SOL    HW250460   6.927   1.708   6.249 -0.2943  1.3768  1.5032
12936SOL     OW50461   8.129   4.979   7.198 -0.1099  0.0070  0.2549
12936SOL    HW150462   8.033   4.973   7.225 -0.0171 -0.6466  0.4443
12936SOL    HW250463   8.166   4.887   7.186  0.4157  0.2620 -0.0936
12937SOL     OW50464   3.079   3.540   5.346  0.5654 -1.0529  0.0037
12937SOL    HW150465   3.160   3.580   5.303  0.4136  0.6978  1.2747
12937SOL    HW250466   3.097   3.525   5.443 -0.7517 -0.2366  0.3892
12938SOL     OW50467   4.840   3.426   1.055  0.0035 -0.2513 -0.3113
12938SOL    HW150468   4.781   3.498   1.092 -1.6043 -0.6868 -1.9624
12938SOL    HW250469   4.847   3.351   1.120 -2.0289 -0.6057 -0.4899
12939SOL     OW50470   2.882   7.191   3.103  0.7256  0.3137 -0.5390
12939SOL    HW150471   2.807   7.212   3.166  0.0481 -0.0319 -1.2219
12939SOL    HW250472   2.958   7.152   3.155  0.9903  1.9681  0.3570
12940SOL     OW50473   8.308   9.559   3.903  0.1189  0.2243  0.0759
12940SOL    HW150474   8.329   9.577   4.000  0.4503 -0.3128  0.1047
12940SOL    HW250475   8.213   9.583   3.884 -0.2489 -0.6340  0.7819
12941SOL     OW50476   9.332   1.598   1.049 -0.0473 -0.2091 -0.7144
12941SOL    HW150477   9.320   1.611   1.147 -2.3909 -1.3956 -0.8162
12941SOL    HW250478   9.245   1.571   1.008  0.5614  1.6886 -3.3667
12942SOL     OW50479   3.516   9.946   0.205  0.0105 -0.2043  0.4695
12942SOL    HW150480   3.489   9.867   0.261  1.1475 -1.3184 -0.5198
12942SOL    HW250481   3.447   9.960   0.133 -0.2768 -0.1946  0.7450
12943SOL     OW50482   6.625   9.315   6.366  0.0538  0.0351 -0.2127
12943SOL    HW150483   6.696   9.361   6.311  0.9382 -0.8300  0.2031
12943SOL    HW250484   6.602   9.372   6.444  1.8199 -0.5984  0.8160
12944SOL     OW50485   1.633   1.099   8.184 -0.6331 -0.2132 -0.5425
12944SOL    HW150486   1.673   1.007   8.180  1.3769  0.5753  0.4114
12944SOL    HW250487   1.596   1.114   8.276  1.0336  0.6811  0.0177
12945SOL     OW50488   8.817   4.850   7.564 -0.1519  0.2516  0.3928
12945SOL    HW150489   8.738   4.799   7.530 -0.5465 -0.0003  1.6570
12945SOL    HW250490   8.799   4.948   7.556 -0.1630  0.1918 -0.3051
12946SOL     OW50491   4.797   0.952   4.603  0.0999 -0.3810 -0.0225
12946SOL    HW150492   4.866   0.892   4.643  2.8773  1.6500 -1.6464
12946SOL    HW250493   4.782   0.927   4.508 -1.8127 -1.1065  0.4423
12947SOL     OW50494   0.632   7.221   6.353 -0.5084  0.4146 -0.7006
12947SOL    HW150495   0.633   7.300   6.291 -2.3215  0.1518 -1.1158
12947SOL    HW250496   0.606   7.251   6.445  1.6403  0.7221 -0.1781
12948SOL     OW50497   1.412   4.205   6.446 -0.2108 -0.2593  0.2953
12948SOL    HW150498   1.371   4.231   6.359 -1.6461  0.8725  1.2841
12948SOL    HW250499   1.504   4.245   6.453  0.1618 -0.8776 -0.9462
12949SOL     OW50500   9.464   8.534   1.103  0.1617  0.3791  0.5260
12949SOL    HW150501   9.391   8.520   1.036 -1.5721  0.8932  2.2678
12949SOL    HW250502   9.533   8.463   1.091 -1.8816 -1.6773  0.5104
12950SOL     OW50503   3.603   3.612   3.722  0.1106 -0.0569 -0.0993
12950SOL    HW150504   3.579   3.684   3.656 -0.4656 -1.7719 -1.7885
12950SOL    HW250505   3.590   3.648   3.815 -0.5853  1.8904 -0.9072
12951SOL     OW50506   4.134   5.962   2.991 -0.7868  0.1917 -0.2509
12951SOL    HW150507   4.112   5.926   2.900  0.6233 -2.2298  0.3186
12951SOL    HW250508   4.112   5.893   3.060  0.1736  1.1858  1.0700
12952SOL     OW50509   2.443   7.996   5.036  0.3462 -0.8226 -0.2244
12952SOL    HW150510   2.470   7.907   4.999  1.4411 -0.3745 -0.5164
12952SOL    HW250511   2.492   8.069   4.987  0.3287 -0.1226  0.7890
12953SOL     OW50512   3.881   7.787   3.237  0.1193  0.0396  0.2358
12953SOL    HW150513   3.847   7.862   3.180  0.3244 -0.4395 -0.5259
12953SOL    HW250514   3.812   7.764   3.306  0.4473  1.5547  1.0845
12954SOL     OW50515   0.985   4.922   1.853  0.0650 -0.4593  0.4804
12954SOL    HW150516   0.990   5.013   1.812  0.9334  0.5874  2.7703
12954SOL    HW250517   0.960   4.931   1.950 -1.8905 -2.8109  0.2535
12955SOL     OW50518   9.213   5.147   6.196 -0.2122 -0.4724  0.4602
12955SOL    HW150519   9.173   5.215   6.258  0.2817  1.1386 -0.9347
12955SOL    HW250520   9.195   5.174   6.102 -1.5178 -3.2389 -0.1174
12956SOL     OW50521   4.887   6.756   0.146 -0.4586  0.7893 -0.1759
12956SOL    HW150522   4.967   6.698   0.133 -0.0792  1.0302  1.0141
12956SOL    HW250523   4.804   6.699   0.147 -0.3438  0.5685 -1.6571
12957SOL     OW50524   9.283   2.272   5.147 -0.6784  0.5535  0.6882
12957SOL    HW150525   9.268   2.325   5.230 -0.4812  0.8854  0.5138
12957SOL    HW250526   9.381   2.272   5.124 -0.6718  0.0847  0.7091
12958SOL     OW50527   6.762   7.316   4.623 -0.1538 -0.6274  0.0118
12958SOL    HW150528   6.778   7.414   4.614  1.6954 -0.8933  0.0876
12958SOL    HW250529   6.704   7.298   4.702  0.0308  0.3685  0.3768
12959SOL     OW50530   9.628   1.074   4.589 -0.1397 -0.5521 -0.2218
12959SOL    HW150531   9.574   1.069   4.673  0.3924  1.1841  0.2709
12959SOL    HW250532   9.611   1.162   4.544  1.9537 -0.1245 -0.2453
12960SOL     OW50533   9.153   3.765   5.437  0.3047 -0.1373 -0.1184
12960SOL    HW150534   9.113   3.815   5.361 -0.4735 -1.0989 -0.3495
12960SOL    HW250535   9.191   3.678   5.404 -0.3548 -0.7233  0.6439
12961SOL     OW50536   1.313   8.334   5.835  0.0154 -0.2600 -0.2669
12961SOL    HW150537   1.325   8.289   5.923 -1.9639  0.2899  0.3061
12961SOL    HW250538   1.327   8.268   5.761  1.0887 -0.8561  0.4622
12962SOL     OW50539   1.259   1.071   6.476  0.3602  0.2230  0.9688
12962SOL    HW150540   1.275   1.000   6.545  2.2744 -0.8127 -0.5099
12962SOL    HW250541   1.163   1.101   6.482  0.5436  0.4267  4.2809
12963SOL     OW50542   0.939   2.286   1.447 -0.0035 -0.0219  0.1103
12963SOL    HW150543   0.849   2.259   1.481 -0.5976  0.5574 -0.9610
12963SOL    HW250544   1.001   2.208   1.449 -0.4332 -0.3443  1.1622
12964SOL     OW50545   6.205   0.156   6.206  0.3955  0.5396 -0.3697
12964SOL    HW150546   6.182   0.170   6.110 -2.0272  1.0728  0.2732
12964SOL    HW250547   6.298   0.120   6.213 -0.1447 -1.4526 -3.0170
12965SOL     OW50548   9.615   1.621   4.833  0.0752  0.2140 -0.0715
12965SOL    HW150549   9.686   1.640   4.901 -0.5755  0.7111  0.4817
12965SOL    HW250550   9.586   1.525   4.840 -1.6633  0.8403  1.9917
12966SOL     OW50551   4.481   8.835   5.790  0.4773  0.1112  0.1492
12966SOL    HW150552   4.484   8.773   5.712 -0.4133 -2.1493  1.8705
12966SOL    HW250553   4.388   8.839   5.826  1.0998  0.2939  1.7687
12967SOL     OW50554   7.527   9.655   6.475  0.4794  0.1209  0.6643
12967SOL    HW150555   7.522   9.582   6.407 -0.4092  3.6644 -3.2357
12967SOL    HW250556   7.435   9.679   6.506  0.6819  0.3820  1.0816
12968SOL     OW50557   4.178   9.188   5.043 -0.1354 -0.2797 -0.4251
12968SOL    HW150558   4.240   9.246   5.097 -1.2683 -0.1504  0.7610
12968SOL    HW250559   4.186   9.094   5.075 -0.2928 -0.3171 -0.4998
12969SOL     OW50560   3.625   4.839   6.956  0.0491  0.1932  0.2967
12969SOL    HW150561   3.669   4.892   6.884 -1.6186 -1.0436 -1.6686
12969SOL    HW250562   3.649   4.742   6.946 -1.7625 -0.2525  0.2088
12970SOL     OW50563   9.213   8.971   2.586  0.1286 -0.1025  0.1020
12970SOL    HW150564   9.288   8.958   2.651 -0.0022 -1.6898 -0.0556
12970SOL    HW250565   9.132   8.923   2.619 -0.0200 -0.6838 -1.1058
12971SOL     OW50566   3.692   2.087   4.775  0.1601  0.1719  0.6148
12971SOL    HW150567   3.617   2.099   4.839  1.0109  1.6201  1.3503
12971SOL    HW250568   3.779   2.089   4.824  0.8043  0.9771 -0.5345
12972SOL     OW50569   6.015   8.502   4.305  0.0908  0.1432  0.5880
12972SOL    HW150570   6.093   8.478   4.362  0.0299 -2.2802 -0.3061
12972SOL    HW250571   6.030   8.593   4.266  2.0827  0.0612  1.0859
12973SOL     OW50572   7.598   2.375   6.669  0.3962  0.4068 -0.0520
12973SOL    HW150573   7.504   2.352   6.692  0.3436  0.5024 -0.1715
12973SOL    HW250574   7.599   2.438   6.592  0.5902 -0.4927 -0.8014
12974SOL     OW50575   1.536   2.696   4.361  0.3651  0.5143  0.4579
12974SOL    HW150576   1.516   2.746   4.446 -0.1437  2.2397 -0.6384
12974SOL    HW250577   1.623   2.728   4.324  0.2650  0.2490 -0.0040
12975SOL     OW50578   4.508   9.161   6.452  0.2663 -0.2139 -0.4000
12975SOL    HW150579   4.453   9.135   6.531  0.2270 -0.0460 -0.3716
12975SOL    HW250580   4.593   9.109   6.452  0.4729  0.1239  0.0112
12976SOL     OW50581   9.390   0.964   1.476  0.1913  0.0839  1.0432
12976SOL    HW150582   9.366   0.891   1.540  0.6761 -0.1626  0.9497
12976SOL    HW250583   9.440   0.925   1.399 -1.3619  0.2111 -0.0540
12977SOL     OW50584   5.386   1.655   4.076  0.5280 -0.5129 -0.3740
12977SOL    HW150585   5.336   1.724   4.128  0.1593 -0.5806 -0.6334
12977SOL    HW250586   5.474   1.638   4.119  0.0054 -0.9618  0.5396
12978SOL     OW50587   5.817   0.188   4.664  0.3617 -0.0762 -0.0911
12978SOL    HW150588   5.765   0.268   4.635  0.0475 -0.0818  0.4626
12978SOL    HW250589   5.915   0.207   4.657  0.2872  0.3186 -0.0521
12979SOL     OW50590   4.819   8.397   2.116 -0.6259 -0.3306  0.4154
12979SOL    HW150591   4.858   8.316   2.074 -0.6838 -0.1585  0.0305
12979SOL    HW250592   4.857   8.409   2.208 -0.1439 -0.4323  0.2269
12980SOL     OW50593   0.229   5.852   1.081 -0.4126 -0.2986  0.0074
12980SOL    HW150594   0.288   5.855   1.001 -0.9394  0.5661 -0.3480
12980SOL    HW250595   0.179   5.765   1.082 -0.8138 -0.0708 -0.8824
12981SOL     OW50596   1.065   5.159   7.239  0.1743 -0.1528  0.3231
12981SOL    HW150597   0.977   5.160   7.191 -0.9493  2.5628  2.2981
12981SOL    HW250598   1.139   5.179   7.175 -0.6211 -2.2524 -1.3138
12982SOL     OW50599   9.860   2.641   3.511 -0.4995  0.0202 -0.2621
12982SOL    HW150600   9.793   2.576   3.475  0.0972  0.3278 -1.9861
12982SOL    HW250601   9.896   2.697   3.436 -1.6897  2.9816  1.2809
12983SOL     OW50602   4.583   1.289   0.090  0.0169 -0.1858 -0.7264
12983SOL    HW150603   4.626   1.303   0.001 -1.2198 -0.3917 -1.3667
12983SOL    HW250604   4.653   1.292   0.162  1.0463 -0.2037 -1.7149
12984SOL     OW50605   4.022   8.329   0.784  0.3733  0.3061  0.2577
12984SOL    HW150606   3.964   8.377   0.718  1.7327 -0.2910 -1.4177
12984SOL    HW250607   4.048   8.392   0.858  2.2499  2.2537 -1.9589
12985SOL     OW50608   8.265   7.426   2.451 -0.0689  0.0592  0.6616
12985SOL    HW150609   8.344   7.485   2.433  0.8240 -1.4759 -0.5371
12985SOL    HW250610   8.297   7.340   2.491 -1.1641 -0.4843  0.3726
12986SOL     OW50611   4.330   7.183   5.392 -0.8259 -0.0243 -0.0288
12986SOL    HW150612   4.231   7.194   5.382 -0.7466  1.5928  0.8008
12986SOL    HW250613   4.374   7.195   5.303 -1.2065  1.4409 -0.0356
12987SOL     OW50614   8.230   7.853   2.334  0.0080 -0.5443  0.3656
12987SOL    HW150615   8.248   7.870   2.431 -0.5694  0.3416  0.3128
12987SOL    HW250616   8.143   7.804   2.324  0.2527 -0.9699  0.3210
12988SOL     OW50617   3.251   6.583   7.046  0.2209  0.2031 -0.5170
12988SOL    HW150618   3.203   6.606   7.131  0.4662  0.6843 -0.5022
12988SOL    HW250619   3.342   6.550   7.068 -0.0303 -0.5148 -0.5538
12989SOL     OW50620   0.402   0.367   1.385 -0.0698  0.3652  0.1893
12989SOL    HW150621   0.501   0.378   1.396 -0.1688 -1.1007  2.9301
12989SOL    HW250622   0.355   0.400   1.467 -2.0058  2.3111 -1.6075
12990SOL     OW50623   9.731   1.429   3.148  0.2835  0.0872  0.8849
12990SOL    HW150624   9.716   1.464   3.241 -1.2258  1.2793  0.2051
12990SOL    HW250625   9.688   1.339   3.140  3.4849 -1.6878  2.3891
12991SOL     OW50626   1.700   6.103   3.127  0.6205 -0.6732  0.7487
12991SOL    HW150627   1.603   6.091   3.148  0.0789  0.4513 -1.0481
12991SOL    HW250628   1.749   6.019   3.151 -1.1164 -2.0212 -0.2179
12992SOL     OW50629   3.039   5.835   3.538 -0.1636 -0.2854  0.2911
12992SOL    HW150630   3.008   5.741   3.549 -1.6279 -0.1560 -2.3086
12992SOL    HW250631   2.968   5.898   3.571  1.5751 -0.0507  3.7942
12993SOL     OW50632   8.976   8.633   5.766  0.2187  0.1053 -0.0611
12993SOL    HW150633   9.057   8.641   5.826 -1.6400 -0.2058  2.5928
12993SOL    HW250634   8.973   8.710   5.703  1.8900  0.8279  0.7099
12994SOL     OW50635   8.453   7.311   5.138 -0.5588 -0.3798 -0.1463
12994SOL    HW150636   8.422   7.383   5.200 -2.2787 -1.1331 -0.1246
12994SOL    HW250637   8.392   7.306   5.059  2.1424  1.2094 -2.4344
12995SOL     OW50638   1.616   6.413   2.989 -0.0725  0.2012 -0.7119
12995SOL    HW150639   1.563   6.370   3.063 -2.7236  0.4062 -2.4129
12995SOL    HW250640   1.649   6.502   3.020 -1.6755  0.5546  0.0505
12996SOL     OW50641   7.901   6.326   6.486 -0.1396  0.0356 -1.2286
12996SOL    HW150642   7.830   6.301   6.421 -1.8920 -1.6573  1.2665
12996SOL    HW250643   7.961   6.248   6.502 -0.2527  0.1600 -0.1548
12997SOL     OW50644   6.085   8.444   2.628  0.6108  0.7805 -0.0273
12997SOL    HW150645   6.073   8.366   2.690  1.2480  1.5793  1.1217
12997SOL    HW250646   6.025   8.432   2.549  1.8144 -1.6293 -0.6229
12998SOL     OW50647   9.682   5.753   7.239  0.7103 -0.1488  0.3063
12998SOL    HW150648   9.648   5.819   7.306 -1.4318 -0.1834 -0.7077
12998SOL    HW250649   9.736   5.802   7.170  1.7494  0.0851  1.2715
12999SOL     OW50650   7.353   0.986   2.485  0.3380 -0.0036 -0.4413
12999SOL    HW150651   7.320   1.039   2.563  0.8928 -0.0293 -0.1826
12999SOL    HW250652   7.308   0.897   2.483  1.1874 -0.4697  0.5519
13000SOL     OW50653   1.411   9.543   0.360 -0.0548  0.6974 -0.1451
13000SOL    HW150654   1.370   9.531   0.451 -1.5942  1.1931 -0.7560
13000SOL    HW250655   1.432   9.639   0.345  0.2911  0.6032 -0.2826
13001SOL     OW50656   0.147   1.427   6.448  0.3564  0.0886  0.0890
13001SOL    HW150657   0.239   1.440   6.410  0.6857 -0.6846  0.6056
13001SOL    HW250658   0.138   1.334   6.483 -0.4394  0.3317  0.5470
13002SOL     OW50659   7.287   5.718   6.226 -0.2773  0.1764  0.1966
13002SOL    HW150660   7.199   5.757   6.203  0.3491  0.6542 -1.4051
13002SOL    HW250661   7.352   5.791   6.247 -0.2513 -0.1722  1.3966
13003SOL     OW50662   1.240   3.538   2.979 -0.2084  0.3098 -0.0140
13003SOL    HW150663   1.295   3.454   2.971  0.5631  0.8920 -0.9920
13003SOL    HW250664   1.289   3.605   3.034 -1.2959 -0.2434  1.6611
13004SOL     OW50665   8.652   6.922   5.741 -0.0501 -0.2274  0.0707
13004SOL    HW150666   8.592   7.001   5.753  0.3136 -0.1439  1.4108
13004SOL    HW250667   8.613   6.843   5.787  0.2986 -0.4661 -0.0415
13005SOL     OW50668   0.408   4.127   6.328 -0.5765 -0.4060  0.4395
13005SOL    HW150669   0.472   4.198   6.358 -1.5746 -0.2055  2.1440
13005SOL    HW250670   0.447   4.077   6.250  0.9299  0.7846  0.4210
13006SOL     OW50671   7.751   9.554   3.236  0.5141 -0.4327  0.4659
13006SOL    HW150672   7.743   9.490   3.160 -1.2688  1.1080 -0.7009
13006SOL    HW250673   7.846   9.582   3.247  0.6940 -0.1454 -1.6451
13007SOL     OW50674   2.891   2.150   0.968  0.6252 -0.1758 -0.0250
13007SOL    HW150675   2.820   2.134   1.037  0.3115 -0.9275 -0.5198
13007SOL    HW250676   2.873   2.093   0.888  0.7443  1.0252 -0.9128
13008SOL     OW50677   8.447   2.868   4.728 -0.0867  0.0846  0.0465
13008SOL    HW150678   8.466   2.882   4.825 -1.0407  1.2421  0.0826
13008SOL    HW250679   8.521   2.906   4.674  0.8028 -1.2132  0.3238
13009SOL     OW50680   4.818   7.279   3.165  0.6030  0.2800 -0.6419
13009SOL    HW150681   4.893   7.325   3.118  1.8101 -1.2779 -0.2997
13009SOL    HW250682   4.732   7.326   3.145  1.4170  1.0142 -2.5355
13010SOL     OW50683   8.738   7.999   5.745 -0.2194 -0.0871 -0.2430
13010SOL    HW150684   8.772   8.089   5.716  1.8647 -0.8914 -0.3468
13010SOL    HW250685   8.659   7.974   5.688 -0.0225  1.0983 -1.0585
13011SOL     OW50686   9.862   4.108   2.091 -0.2017  0.2961  0.4385
13011SOL    HW150687   9.877   4.146   1.999 -0.1071  0.0393  0.3454
13011SOL    HW250688   9.770   4.070   2.097 -0.0649 -0.0711  0.3049
13012SOL     OW50689   0.272   5.891   6.836  0.0877  0.2237 -0.3541
13012SOL    HW150690   0.371   5.895   6.818  0.1030  0.3100 -0.2482
13012SOL    HW250691   0.234   5.808   6.795  0.2287  0.1203 -0.2710
13013SOL     OW50692   2.608   5.850   6.158 -0.1719 -0.3890  0.4082
13013SOL    HW150693   2.580   5.760   6.191  1.3016 -1.0107  0.0334
13013SOL    HW250694   2.599   5.917   6.232 -1.7044 -0.7491  0.5575
13014SOL     OW50695   3.843   6.623   8.020 -0.0472  0.5192 -0.2498
13014SOL    HW150696   3.884   6.532   8.028 -2.5080 -0.7520 -1.3359
13014SOL    HW250697   3.884   6.671   7.943  0.6145 -0.0374 -0.2540
13015SOL     OW50698   1.905   5.920   6.264 -0.1748 -0.0132 -0.0128
13015SOL    HW150699   1.873   5.992   6.202 -0.7670 -0.5445 -0.3263
13015SOL    HW250700   1.938   5.962   6.349  0.9125  0.7359 -0.7950
13016SOL     OW50701   0.698   6.422   3.132 -0.6528 -0.3683  0.0481
13016SOL    HW150702   0.697   6.322   3.136 -0.3987 -0.4024 -0.6118
13016SOL    HW250703   0.675   6.451   3.039  0.2029  0.1656  0.0004
13017SOL     OW50704   1.030   1.856   5.016 -0.1871 -0.7908  0.1631
13017SOL    HW150705   1.113   1.853   4.961 -0.6124  0.3846 -0.5642
13017SOL    HW250706   0.969   1.927   4.981  0.2616  1.1773  3.1232
13018SOL     OW50707   3.385   1.788   1.931 -0.2836  0.1243 -0.3491
13018SOL    HW150708   3.417   1.800   1.836  0.1057 -0.0341 -0.2394
13018SOL    HW250709   3.401   1.694   1.959 -0.6996  0.0885 -0.2330
13019SOL     OW50710   0.395   7.864   3.402  0.7982 -0.1639 -0.0705
13019SOL    HW150711   0.362   7.789   3.459  0.2789  0.2017  0.1167
13019SOL    HW250712   0.369   7.848   3.307  0.3745 -0.0507  0.0239
13020SOL     OW50713   8.194   9.425   5.492 -0.2487  0.0762  0.4083
13020SOL    HW150714   8.291   9.428   5.516 -0.1787 -0.8962  0.2823
13020SOL    HW250715   8.151   9.345   5.535 -0.3034 -1.2194 -1.9558
13021SOL     OW50716   7.132   2.281   4.027  0.3701 -0.2019 -0.0721
13021SOL    HW150717   7.103   2.239   3.941 -0.1576  1.5536 -0.7825
13021SOL    HW250718   7.172   2.370   4.008 -1.1838  0.8961  1.6130
13022SOL     OW50719   2.997   3.465   2.549  0.0563 -0.6368  0.3303
13022SOL    HW150720   3.036   3.390   2.495 -0.2111 -0.9244  0.5368
13022SOL    HW250721   2.967   3.430   2.637 -1.4930 -0.5994 -0.1753
13023SOL     OW50722   8.638   3.278   5.298  0.1231 -0.3171  0.4551
13023SOL    HW150723   8.610   3.201   5.356 -0.3108 -0.0671  0.5754
13023SOL    HW250724   8.738   3.278   5.290 -0.0021 -2.0935 -1.2205
13024SOL     OW50725   8.396   2.898   3.099 -0.0844 -0.0909 -0.0948
13024SOL    HW150726   8.492   2.884   3.123  0.3236  2.0508 -0.3683
13024SOL    HW250727   8.387   2.906   3.000 -0.7568 -1.6330 -0.1788
13025SOL     OW50728   9.907   2.405   3.702  0.1263  0.0408  0.7186
13025SOL    HW150729   9.920   2.457   3.787 -0.9207 -0.2152  1.0433
13025SOL    HW250730   9.892   2.469   3.627  1.6361  0.2864  0.6130
13026SOL     OW50731   2.324   3.533   5.815  0.0513 -0.2715 -0.4267
13026SOL    HW150732   2.234   3.554   5.852  0.3608 -0.6776  0.5707
13026SOL    HW250733   2.377   3.482   5.882  0.9789 -0.1585 -1.0568
13027SOL     OW50734   9.868   6.952   0.327 -0.1742 -0.2047  0.6716
13027SOL    HW150735   9.884   6.920   0.233  1.4227  2.1297  0.1166
13027SOL    HW250736   9.859   6.873   0.388  2.1805 -1.7516 -0.9042
13028SOL     OW50737   0.820   3.052   1.981  0.1455 -0.3824  0.0055
13028SOL    HW150738   0.861   3.068   2.071  0.7808  1.0001 -0.5255
13028SOL    HW250739   0.730   3.093   1.977 -0.0965 -0.8889  0.1759
13029SOL     OW50740   9.737   1.520   5.427 -0.1781  0.6502  0.0104
13029SOL    HW150741   9.684   1.582   5.485 -0.5771  1.9565 -1.6810
13029SOL    HW250742   9.684   1.499   5.344  1.7551  1.6540 -1.5177
13030SOL     OW50743   3.471   9.159   1.863  0.2873  0.2291 -0.3299
13030SOL    HW150744   3.467   9.098   1.784  1.0127  0.6888 -0.7174
13030SOL    HW250745   3.470   9.104   1.947 -0.3070 -0.2629 -0.6550
13031SOL     OW50746   9.307   7.675   5.238 -0.8351 -0.3237  0.2285
13031SOL    HW150747   9.266   7.586   5.258  1.2166 -1.5509 -0.8734
13031SOL    HW250748   9.348   7.712   5.321 -0.9843 -0.7688  0.5045
13032SOL     OW50749   0.431   2.642   7.114  0.3677 -0.2451  0.1400
13032SOL    HW150750   0.503   2.683   7.059  0.3724 -1.4466 -0.7763
13032SOL    HW250751   0.444   2.667   7.210  0.9147  1.0758 -0.2638
13033SOL     OW50752   1.787   8.879   4.081  0.2064  0.0948  0.2719
13033SOL    HW150753   1.867   8.848   4.030 -0.8774  0.6603 -1.8269
13033SOL    HW250754   1.786   8.979   4.085 -0.0904  0.0734  0.7906
13034SOL     OW50755   7.605   1.463   4.317 -0.2728 -0.4982  0.1870
13034SOL    HW150756   7.585   1.550   4.272  0.3452 -0.5108 -0.1057
13034SOL    HW250757   7.524   1.434   4.368 -1.3912 -1.0812 -1.8714
13035SOL     OW50758   3.305   5.886   6.738  0.3627  0.4722  0.2610
13035SOL    HW150759   3.318   5.857   6.833 -2.0197 -0.9418  0.2037
13035SOL    HW250760   3.356   5.824   6.677 -0.3097 -0.2934  0.4680
13036SOL     OW50761   1.727   0.731   0.040 -0.3560 -0.6315  0.3493
13036SOL    HW150762   1.802   0.794   0.059 -2.6583  2.4446 -0.4255
13036SOL    HW250763   1.692   0.693   0.126  1.4265 -1.3521  0.7725
13037SOL     OW50764   7.976   7.631   5.403  0.1922  0.6448 -0.3462
13037SOL    HW150765   7.999   7.580   5.319 -1.0349  0.3749 -0.5267
13037SOL    HW250766   7.939   7.568   5.471 -0.4269  1.1428 -0.2211
13038SOL     OW50767   8.817   7.449   6.730 -0.2397  0.0959 -0.5744
13038SOL    HW150768   8.863   7.420   6.814 -1.3450  0.6531  0.2473
13038SOL    HW250769   8.752   7.523   6.752  0.5680  1.3059 -2.1697
13039SOL     OW50770   1.587   5.173   2.377 -0.2183 -0.3997 -0.3389
13039SOL    HW150771   1.665   5.112   2.365 -0.7506 -0.7682 -2.2429
13039SOL    HW250772   1.506   5.119   2.399 -0.0810 -0.0772  1.0045
13040SOL     OW50773   9.917   8.917   5.531 -0.1545  0.1129  0.5416
13040SOL    HW150774   9.845   8.896   5.598 -0.9765 -2.9394 -1.2030
13040SOL    HW250775   9.876   8.957   5.449  0.3970  0.3601  0.3826
13041SOL     OW50776   4.761   9.418   4.766  0.0821  0.0145 -0.1033
13041SOL    HW150777   4.850   9.399   4.808 -0.3564 -1.4304  0.2041
13041SOL    HW250778   4.732   9.511   4.790  0.6211 -0.1797  1.3688
13042SOL     OW50779   3.832   3.377   1.299  0.3022 -0.5858 -0.3986
13042SOL    HW150780   3.869   3.287   1.322 -1.7701 -1.6366 -1.0329
13042SOL    HW250781   3.801   3.423   1.382 -1.8341 -1.9404 -0.4190
13043SOL     OW50782   9.240   9.437   0.932  0.1579  0.2775  0.4528
13043SOL    HW150783   9.280   9.529   0.931 -0.5498  0.6065  1.8770
13043SOL    HW250784   9.161   9.435   0.870 -1.7285  1.5118  2.7492
13044SOL     OW50785   0.661   4.279   2.223  0.4133  0.3002  0.8922
13044SOL    HW150786   0.751   4.238   2.237  0.4966  0.4790  0.8761
13044SOL    HW250787   0.619   4.240   2.141  0.1583 -0.3384  1.3267
13045SOL     OW50788   5.713   4.831   7.405  0.2802 -0.4595  0.0674
13045SOL    HW150789   5.721   4.927   7.377 -1.3132  0.5624  2.9033
13045SOL    HW250790   5.805   4.791   7.415  1.1338  2.0699  2.9860
13046SOL     OW50791   0.601   2.872   5.649 -0.6654  0.5413 -0.3613
13046SOL    HW150792   0.549   2.930   5.712  0.6007  0.2468  0.9544
13046SOL    HW250793   0.590   2.776   5.675  0.7471  0.4952  0.0812
13047SOL     OW50794   6.337   4.132   1.253 -0.1629 -0.4598 -0.3998
13047SOL    HW150795   6.386   4.081   1.182 -2.2223 -4.4700  0.9370
13047SOL    HW250796   6.279   4.070   1.305 -2.5141  3.2415  1.6158
13048SOL     OW50797   7.698   3.215   2.892  0.3540  0.9363 -0.1510
13048SOL    HW150798   7.652   3.298   2.923  1.7545  1.1005  1.5420
13048SOL    HW250799   7.660   3.135   2.939 -0.3996  0.7015 -1.1416
13049SOL     OW50800   6.334   0.798   4.807 -0.3148  0.4489 -0.2898
13049SOL    HW150801   6.240   0.828   4.793 -0.3799  0.4536  0.1759
13049SOL    HW250802   6.391   0.878   4.828  0.1383  0.7086 -2.3995
13050SOL     OW50803   8.619   2.004   6.784  0.5388 -0.2817 -0.4737
13050SOL    HW150804   8.688   2.024   6.854 -0.0065 -0.3224  0.0885
13050SOL    HW250805   8.536   1.971   6.829 -0.6448  1.9377 -0.9494
13051SOL     OW50806   8.072   6.521   6.611  0.6466 -0.1845  0.3880
13051SOL    HW150807   8.123   6.559   6.534 -0.3155  1.5677  0.5910
13051SOL    HW250808   8.005   6.455   6.577 -0.6929  1.5653 -0.4490
13052SOL     OW50809   8.060   4.492   4.487  0.0829 -0.3303 -0.1049
13052SOL    HW150810   7.999   4.414   4.500 -1.1335  0.5553 -0.3558
13052SOL    HW250811   8.008   4.577   4.499  1.3441  0.4448 -0.0114
13053SOL     OW50812   9.783   3.645   6.503  0.3627  0.0374 -0.6015
13053SOL    HW150813   9.796   3.737   6.466  1.5445 -0.4932 -1.5504
13053SOL    HW250814   9.750   3.584   6.431 -1.3354 -0.0693  0.2614
13054SOL     OW50815   3.334   3.533   2.008  0.1537 -0.0866 -0.0002
13054SOL    HW150816   3.357   3.612   1.951 -0.2429 -0.4556 -0.6873
13054SOL    HW250817   3.391   3.532   2.090 -0.5088  1.4472  0.4953
13055SOL     OW50818   8.036   1.696   4.263  0.0994 -0.2864  0.1227
13055SOL    HW150819   7.989   1.777   4.298 -0.6146 -0.6745  0.0653
13055SOL    HW250820   8.029   1.694   4.164  0.3540 -0.2741  0.1048
13056SOL     OW50821   8.094   4.378   6.509  0.6364  0.8851  0.5389
13056SOL    HW150822   8.077   4.433   6.590  0.2885  3.5241 -1.2581
13056SOL    HW250823   8.193   4.369   6.495  0.7175 -1.2649  2.3284
13057SOL     OW50824   4.345   1.498   5.478 -0.1598  0.0873  0.0332
13057SOL    HW150825   4.247   1.510   5.461 -0.3148  0.4004  1.1599
13057SOL    HW250826   4.387   1.587   5.493  0.1397 -0.1298  0.4624
13058SOL     OW50827   2.467   8.643   2.704 -0.2702  0.1879  0.0051
13058SOL    HW150828   2.402   8.578   2.664 -0.1931  0.2862 -0.2829
13058SOL    HW250829   2.560   8.608   2.693 -0.2701  0.0720  0.3742
13059SOL     OW50830   2.457   6.715   2.272 -0.0871 -0.5525 -0.1556
13059SOL    HW150831   2.492   6.712   2.365 -0.7407 -0.4791  0.0892
13059SOL    HW250832   2.533   6.700   2.208  0.8350  1.9385  0.2918
13060SOL     OW50833   5.543   8.394   6.482  0.1858 -0.0789 -0.0721
13060SOL    HW150834   5.587   8.464   6.538 -0.2812  0.7405 -0.7012
13060SOL    HW250835   5.588   8.390   6.392  0.0424 -0.4024 -0.1302
13061SOL     OW50836   4.986   9.807   2.638 -0.6502 -0.1897  0.8230
13061SOL    HW150837   5.017   9.746   2.711  0.6594 -0.8012 -0.2154
13061SOL    HW250838   5.027   9.897   2.651 -0.0916 -0.4093  0.6371
13062SOL     OW50839   8.440   6.984   4.993  0.4600 -0.0250 -0.0069
13062SOL    HW150840   8.372   6.912   5.010  1.0769 -0.4287  0.7471
13062SOL    HW250841   8.485   6.968   4.905 -0.3103  0.1626 -0.4426
13063SOL     OW50842   2.055   9.902   1.232  0.7945 -0.0304 -0.4283
13063SOL    HW150843   2.127   9.866   1.173  0.1829  0.2471 -1.3508
13063SOL    HW250844   1.973   9.919   1.178  0.7940  1.9263  0.1740
13064SOL     OW50845   0.773   0.529   3.044  0.1540  0.2932 -0.0490
13064SOL    HW150846   0.736   0.442   3.010  1.0294 -0.1948  0.2379
13064SOL    HW250847   0.697   0.590   3.066 -0.5314 -1.0278  1.3786
13065SOL     OW50848   8.852   1.842   8.037  0.1155 -0.2195  0.0939
13065SOL    HW150849   8.867   1.922   8.095  2.2387  1.0681 -2.1731
13065SOL    HW250850   8.801   1.773   8.089 -0.5773  2.0347  2.5210
13066SOL     OW50851   8.494   8.149   5.421 -0.3186 -0.2469 -0.4917
13066SOL    HW150852   8.423   8.143   5.352 -0.1301  0.4513 -0.7433
13066SOL    HW250853   8.465   8.211   5.494 -1.3841 -2.5413  1.0860
13067SOL     OW50854   7.223   8.987   4.310  0.1740 -0.1861  0.0822
13067SOL    HW150855   7.199   8.928   4.233 -1.2805  0.7675 -0.2252
13067SOL    HW250856   7.298   8.946   4.361 -0.3102 -1.9210 -0.5489
13068SOL     OW50857   9.335   7.586   1.163 -0.0349 -0.7503  0.5421
13068SOL    HW150858   9.397   7.613   1.236  0.2384 -1.3090  0.5189
13068SOL    HW250859   9.384   7.531   1.095 -0.0773  0.4908 -0.5089
13069SOL     OW50860   0.389   0.975   3.875 -0.0695  0.0135 -0.0713
13069SOL    HW150861   0.424   1.068   3.870 -0.1677  0.1350  1.2491
13069SOL    HW250862   0.331   0.965   3.956  0.3504 -1.3306  0.0797
13070SOL     OW50863   1.987   3.320   1.043  0.2183  0.2296 -0.4950
13070SOL    HW150864   1.989   3.361   0.951  1.9255  1.6276  0.1373
13070SOL    HW250865   1.990   3.393   1.112 -0.2006 -0.8440  0.6745
13071SOL     OW50866   2.095   4.074   5.435 -0.2049 -1.2597  0.0377
13071SOL    HW150867   2.147   4.114   5.360 -0.7831 -0.8318 -0.1335
13071SOL    HW250868   2.076   3.978   5.415 -1.6663 -0.7554 -1.0660
13072SOL     OW50869   8.103   2.885   8.107  0.0891 -0.0302 -0.3471
13072SOL    HW150870   8.112   2.796   8.063  0.4257 -0.7082  1.0560
13072SOL    HW250871   8.155   2.885   8.193  0.8437  1.8127 -0.7707
13073SOL     OW50872   5.811   7.562   5.385  0.1304  0.3011 -0.0882
13073SOL    HW150873   5.808   7.652   5.341 -0.6065  0.4289  0.2164
13073SOL    HW250874   5.744   7.559   5.460  1.5753  0.1974  1.2361
13074SOL     OW50875   1.576   7.134   1.139 -0.2386 -0.0450 -0.0053
13074SOL    HW150876   1.582   7.234   1.142  0.7479 -0.1383  1.9601
13074SOL    HW250877   1.657   7.097   1.095 -0.1807 -0.0218  0.0817
13075SOL     OW50878   1.710   4.813   1.883  0.2636 -0.1272 -0.0510
13075SOL    HW150879   1.701   4.873   1.804 -1.5059 -2.2297 -1.5194
13075SOL    HW250880   1.627   4.756   1.891  1.1053 -1.0747  2.3515
13076SOL     OW50881   2.824   5.572   0.504  0.4162 -0.5316 -0.3218
13076SOL    HW150882   2.892   5.517   0.455 -0.2557 -0.8964 -0.8563
13076SOL    HW250883   2.870   5.641   0.560  1.2049 -0.1190 -1.4644
13077SOL     OW50884   2.085   8.174   4.945  0.3133  0.7514  0.1673
13077SOL    HW150885   2.164   8.128   4.904 -1.2170 -0.6857 -1.2749
13077SOL    HW250886   2.074   8.265   4.905  0.3058  0.3244 -0.8078
13078SOL     OW50887   8.785   2.663   1.428 -0.0491  0.1782  0.1927
13078SOL    HW150888   8.866   2.720   1.438  0.7994 -1.0021  0.1979
13078SOL    HW250889   8.731   2.666   1.512 -0.5571  1.7694 -0.1714
13079SOL     OW50890   0.109   1.986   5.932  0.0487  0.4140  0.0550
13079SOL    HW150891   0.149   1.919   5.995  0.8172  0.1545 -0.7097
13079SOL    HW250892   0.011   1.995   5.952 -0.6308 -2.7700 -1.3708
13080SOL     OW50893   1.355   3.568   6.186 -0.0559  0.1074  0.0103
13080SOL    HW150894   1.351   3.665   6.159  0.8790 -0.4293 -2.1490
13080SOL    HW250895   1.449   3.545   6.211 -0.2634 -0.2568  0.4418
13081SOL     OW50896   7.704   5.484   1.571  0.1271  0.3323 -0.4257
13081SOL    HW150897   7.704   5.401   1.627 -0.0198  0.6266  0.0152
13081SOL    HW250898   7.670   5.463   1.479  0.5532 -0.1932 -0.4613
13082SOL     OW50899   0.564   1.899   1.334 -0.7263  0.1077 -0.2322
13082SOL    HW150900   0.479   1.868   1.292 -0.6195 -1.5303  0.7247
13082SOL    HW250901   0.617   1.951   1.267 -1.4427 -0.8105 -1.5348
13083SOL     OW50902   0.512   9.825   4.997 -0.2293 -0.5329  0.1141
13083SOL    HW150903   0.577   9.898   4.976 -1.5957  0.5099 -0.5321
13083SOL    HW250904   0.475   9.788   4.912 -1.6291 -0.0713  0.5146
13084SOL     OW50905   3.192   1.049   7.867 -0.1886 -0.5582 -0.5468
13084SOL    HW150906   3.227   0.967   7.912 -0.9468 -0.5074  0.1466
13084SOL    HW250907   3.263   1.087   7.808  0.9322 -0.4502  0.8442
13085SOL     OW50908   1.442   8.198   0.905  0.2454  0.0426 -0.1498
13085SOL    HW150909   1.361   8.257   0.902  1.4110  1.6633 -0.6470
13085SOL    HW250910   1.482   8.199   0.996  0.3121  0.0845 -0.1792
13086SOL     OW50911   8.813   1.012   1.594  0.5344 -0.1137  0.0017
13086SOL    HW150912   8.760   0.985   1.514 -0.7291  0.2971  0.6882
13086SOL    HW250913   8.777   0.966   1.675  2.5082 -1.4047  0.1904
13087SOL     OW50914   0.373   0.950   5.660  0.2372  0.0543 -0.3975
13087SOL    HW150915   0.411   1.038   5.634 -0.9092  0.5637 -0.3733
13087SOL    HW250916   0.342   0.954   5.755 -1.4541  0.1972 -0.9351
13088SOL     OW50917   4.821   0.792   0.819  0.2819 -0.1652  0.1244
13088SOL    HW150918   4.773   0.705   0.803  0.3204 -0.3422  0.8999
13088SOL    HW250919   4.817   0.849   0.738 -2.1174  0.2322  0.5020
13089SOL     OW50920   5.866   5.056   8.183 -0.0228 -0.2654  0.1140
13089SOL    HW150921   5.963   5.035   8.169 -0.5533 -1.8800 -1.3088
13089SOL    HW250922   5.844   5.046   8.280  1.2233  0.0945  0.4471
13090SOL     OW50923   8.724   7.660   6.232 -0.2478  0.5578 -0.1956
13090SOL    HW150924   8.805   7.704   6.271 -1.3007  1.8894  0.5358
13090SOL    HW250925   8.688   7.593   6.297  0.2905 -0.0961 -0.5553
13091SOL     OW50926   0.829   0.857   2.246 -0.1869  0.3807  0.3518
13091SOL    HW150927   0.841   0.887   2.152  0.0157  0.9026  0.5469
13091SOL    HW250928   0.734   0.873   2.274 -0.7344 -1.4690 -0.3673
13092SOL     OW50929   0.942   1.188   2.777 -0.3809 -0.4060 -0.0257
13092SOL    HW150930   0.861   1.186   2.837 -0.7230 -2.3633 -0.4905
13092SOL    HW250931   1.023   1.166   2.831 -0.4440 -0.4139  0.0670
13093SOL     OW50932   0.419   0.738   5.499  0.4576  0.2859 -0.4821
13093SOL    HW150933   0.456   0.790   5.422  3.8397 -0.1202  0.7601
13093SOL    HW250934   0.410   0.799   5.578  1.9752 -0.4108  0.2471
13094SOL     OW50935   1.491   0.578   7.766  0.3500 -0.5515  0.1061
13094SOL    HW150936   1.501   0.643   7.841  0.6752 -1.8868  1.2499
13094SOL    HW250937   1.441   0.497   7.799 -0.9551 -0.4358 -1.5565
13095SOL     OW50938   2.924   1.198   6.472 -0.0963 -0.4323 -0.9561
13095SOL    HW150939   2.955   1.168   6.382 -2.1897  0.9389 -2.1773
13095SOL    HW250940   2.875   1.285   6.463 -0.4535 -0.3438  1.4938
13096SOL     OW50941   4.156   8.375   7.741 -0.2058  0.0441  0.0088
13096SOL    HW150942   4.161   8.473   7.719  0.5062  0.3648  1.5552
13096SOL    HW250943   4.170   8.321   7.658  1.4773  1.2313 -0.4905
13097SOL     OW50944   9.367   1.743   6.299  0.2881  0.0692  0.4188
13097SOL    HW150945   9.453   1.784   6.329  0.6161 -1.0030  0.9532
13097SOL    HW250946   9.314   1.811   6.247  0.9937  1.0415  0.9590
13098SOL     OW50947   3.810   8.402   3.768  0.1208 -0.0724 -0.2612
13098SOL    HW150948   3.828   8.397   3.866 -0.1796 -0.2964 -0.2164
13098SOL    HW250949   3.890   8.439   3.721 -0.0983  0.9627  0.1759
13099SOL     OW50950   9.790   5.439   8.165 -0.1912  0.3346 -0.2159
13099SOL    HW150951   9.815   5.416   8.259 -1.0832 -1.1099 -0.3334
13099SOL    HW250952   9.816   5.364   8.104 -0.3230  0.9403 -1.0261
13100SOL     OW50953   1.617   8.380   6.665  0.2571  0.1966 -0.4995
13100SOL    HW150954   1.602   8.281   6.656 -0.2034  0.2949 -0.8715
13100SOL    HW250955   1.537   8.421   6.710  0.4661  0.3924 -0.3098
13101SOL     OW50956   4.640   5.418   2.111  0.7529  0.3058  0.1210
13101SOL    HW150957   4.584   5.337   2.092  1.9319 -0.5747  0.3102
13101SOL    HW250958   4.588   5.500   2.092 -1.1372 -0.4721  1.7761
13102SOL     OW50959   1.206   8.150   6.829  0.0808  0.2774  0.4503
13102SOL    HW150960   1.237   8.077   6.769 -0.0584  0.9203 -0.4048
13102SOL    HW250961   1.106   8.159   6.821  0.2112  1.1974 -0.1692
13103SOL     OW50962   7.617   3.541   0.597  0.3228 -0.1874  0.1750
13103SOL    HW150963   7.634   3.610   0.667 -1.8155  1.0026 -0.4291
13103SOL    HW250964   7.662   3.567   0.512 -1.7190  1.2434 -0.4783
13104SOL     OW50965   2.032   7.398   0.266  0.5474  0.2790 -0.0943
13104SOL    HW150966   2.037   7.340   0.348  2.1753 -1.3314 -1.2891
13104SOL    HW250967   1.952   7.372   0.212 -0.7732  1.6313  1.1560
13105SOL     OW50968   9.266   4.981   7.366 -0.4596 -0.1035  0.4730
13105SOL    HW150969   9.272   4.948   7.272 -1.0766 -0.1454  0.4452
13105SOL    HW250970   9.186   4.940   7.411 -0.8674  0.8400  0.6358
13106SOL     OW50971   8.377   6.398   3.516  0.2837  0.1492 -0.3765
13106SOL    HW150972   8.450   6.360   3.572 -1.6642 -1.7414  0.9568
13106SOL    HW250973   8.409   6.409   3.422  1.2487 -3.9799 -0.6414
13107SOL     OW50974   5.182   7.882   2.114 -0.4394  0.1674 -0.2814
13107SOL    HW150975   5.210   7.840   2.200  2.2306  0.1701 -1.1054
13107SOL    HW250976   5.208   7.979   2.114 -0.5761  0.2075 -0.9988
13108SOL     OW50977   1.450   8.543   4.129  0.1257 -0.5288 -0.1955
13108SOL    HW150978   1.401   8.577   4.209 -1.4099 -0.8773 -0.9721
13108SOL    HW250979   1.500   8.619   4.087  0.0473 -0.1098  0.4583
13109SOL     OW50980   4.636   9.229   0.861  0.6824  0.1754  0.2874
13109SOL    HW150981   4.701   9.237   0.936  1.8329  0.1465 -0.6886
13109SOL    HW250982   4.638   9.135   0.826 -1.6221 -0.4575  1.7954
13110SOL     OW50983   8.695   4.749   0.855  0.2005 -0.4860 -0.4763
13110SOL    HW150984   8.762   4.726   0.925 -0.5870 -1.1028  0.0842
13110SOL    HW250985   8.669   4.845   0.862  1.3157 -0.1402 -0.9518
13111SOL     OW50986   6.596   1.530   0.770  0.2450  0.3263 -0.4864
13111SOL    HW150987   6.545   1.616   0.771  0.0856  0.2343 -0.8155
13111SOL    HW250988   6.640   1.518   0.680 -0.9061 -0.6348 -0.9332
13112SOL     OW50989   3.558   7.528   6.797 -0.5930  0.0293  0.4003
13112SOL    HW150990   3.633   7.593   6.808 -0.3259  0.0850 -1.4780
13112SOL    HW250991   3.585   7.458   6.731 -1.8994 -0.4084  0.3144
13113SOL     OW50992   4.582   7.109   1.584  0.1356  0.3693 -0.2333
13113SOL    HW150993   4.525   7.164   1.645 -0.3014 -0.1771 -0.1486
13113SOL    HW250994   4.581   7.148   1.492 -1.6506 -0.5361 -0.6144
13114SOL     OW50995   2.906   1.543   5.039  0.7632 -0.3948 -0.1745
13114SOL    HW150996   2.839   1.618   5.045 -1.7416 -2.6026  0.3701
13114SOL    HW250997   2.929   1.527   4.943  0.6714  0.5113 -0.3543
13115SOL     OW50998   6.504   4.303   2.276 -0.3070  0.3059 -0.1781
13115SOL    HW150999   6.465   4.367   2.210  1.0599  0.5405 -0.7783
13115SOL    HW251000   6.593   4.271   2.243 -0.1904 -0.5717  0.9423
13116SOL     OW51001   3.153   5.902   4.271  0.0010  0.2502  0.1615
13116SOL    HW151002   3.146   5.806   4.242 -1.1768  0.6999 -1.1164
13116SOL    HW251003   3.131   5.908   4.369  0.7637 -0.8639  0.4172
13117SOL     OW51004   3.716   2.032   7.527 -0.2906 -0.4967  0.1701
13117SOL    HW151005   3.700   1.966   7.453 -0.2573  0.6145 -0.8608
13117SOL    HW251006   3.804   2.014   7.570 -0.3699 -1.2424  0.0293
13118SOL     OW51007   5.221   0.983   3.124  0.2004  0.2973 -0.2359
13118SOL    HW151008   5.152   1.050   3.149  2.5268  2.1166  1.4422
13118SOL    HW251009   5.311   1.026   3.120  1.5235 -2.3612 -0.8290
13119SOL     OW51010   3.062   0.982   3.876 -0.3641 -0.0664 -0.1838
13119SOL    HW151011   3.157   0.991   3.908 -0.6892  2.6514  0.0994
13119SOL    HW251012   3.002   0.964   3.953 -0.3803  0.6799 -0.0143
13120SOL     OW51013   2.836   3.949   5.884 -0.1101  0.8067 -0.1691
13120SOL    HW151014   2.767   3.882   5.909 -1.2930  0.7588 -3.2924
13120SOL    HW251015   2.815   4.038   5.925  0.6715 -0.3344  2.7985
13121SOL     OW51016   9.601   3.425   1.846 -0.1973 -0.2702  0.0926
13121SOL    HW151017   9.565   3.337   1.817  1.4466 -0.7090 -0.6701
13121SOL    HW251018   9.537   3.468   1.910 -0.4973 -2.4713  1.2921
13122SOL     OW51019   8.347   5.614   5.807  0.3675  0.1392  0.3952
13122SOL    HW151020   8.310   5.616   5.900 -0.6297  0.6629  0.0005
13122SOL    HW251021   8.351   5.707   5.771  1.0829 -0.0294  0.0429
13123SOL     OW51022   1.005   2.286   3.092  0.2405  0.1273 -0.3623
13123SOL    HW151023   0.913   2.250   3.081 -0.4677  2.3703 -2.4759
13123SOL    HW251024   1.032   2.282   3.188 -2.0482 -0.5620  0.2794
13124SOL     OW51025   1.067   1.819   0.184 -0.0623  0.2189  0.1811
13124SOL    HW151026   1.143   1.783   0.129 -0.2203 -0.5815  0.4811
13124SOL    HW251027   0.996   1.855   0.123  0.3352  0.5094 -0.1114
13125SOL     OW51028   9.572   2.060   0.523 -0.3454  0.4052  0.1227
13125SOL    HW151029   9.588   1.989   0.455 -0.7276 -0.3330  0.7783
13125SOL    HW251030   9.617   2.035   0.609 -2.4765 -0.2711  1.0994
13126SOL     OW51031   2.865   6.022   5.447 -0.1551  0.1783  0.4632
13126SOL    HW151032   2.924   6.101   5.429  1.6870 -1.2488  0.1659
13126SOL    HW251033   2.844   6.019   5.545  0.7143  0.3925  0.6652
13127SOL     OW51034   1.724   1.036   1.016 -0.2568  0.7125  1.0199
13127SOL    HW151035   1.817   1.073   1.019  0.3614 -0.6913 -0.2209
13127SOL    HW251036   1.661   1.106   0.983  0.8966  0.7024 -1.2670
13128SOL     OW51037   4.369   1.134   1.569 -0.0891  0.8226 -0.2951
13128SOL    HW151038   4.338   1.043   1.541  0.4961  0.8337 -0.9967
13128SOL    HW251039   4.466   1.131   1.593 -0.7147  0.6895  2.3702
13129SOL     OW51040   7.950   9.501   6.348 -0.1800 -0.2280  0.3735
13129SOL    HW151041   7.870   9.552   6.316  0.2057 -0.3134 -0.7569
13129SOL    HW251042   7.943   9.406   6.316  0.4992 -0.1717  0.0597
13130SOL     OW51043   7.305   3.898   7.913  0.2426  0.0301 -0.3896
13130SOL    HW151044   7.208   3.875   7.915  0.1834  0.2504 -0.7282
13130SOL    HW251045   7.356   3.824   7.868  0.4061 -0.7054  0.9750
13131SOL     OW51046   4.933   0.070   0.893 -0.1267 -0.2022  0.1555
13131SOL    HW151047   4.976   0.124   0.965 -0.4659  0.8288 -0.4088
13131SOL    HW251048   4.835   0.062   0.910 -0.4789  1.4049 -1.0279
13132SOL     OW51049   1.263   7.779   3.665 -0.6861  0.1153 -0.3973
13132SOL    HW151050   1.225   7.870   3.647 -1.4850 -0.1070  0.1390
13132SOL    HW251051   1.192   7.721   3.706  0.4338 -0.0731  1.3281
13133SOL     OW51052   2.935   7.804   6.309  0.6091 -0.2693  0.4834
13133SOL    HW151053   3.006   7.845   6.366  0.4709 -0.3482  0.7133
13133SOL    HW251054   2.952   7.706   6.300  1.2226 -0.0808 -0.4832
13134SOL     OW51055   5.159   4.093   1.069 -0.2173  0.6143 -0.3869
13134SOL    HW151056   5.073   4.042   1.066 -0.6695  1.2849  0.7164
13134SOL    HW251057   5.154   4.162   1.142  2.1245 -0.9289  1.2735
13135SOL     OW51058   4.010   0.393   4.601 -0.4284 -0.5776 -0.0237
13135SOL    HW151059   4.097   0.359   4.567 -0.3100 -0.3444  0.0406
13135SOL    HW251060   3.956   0.318   4.639  1.2757 -0.2236  3.2726
13136SOL     OW51061   0.417   3.786   4.123  0.2680 -0.1903  0.3213
13136SOL    HW151062   0.495   3.739   4.081  1.1513 -0.2998  2.0399
13136SOL    HW251063   0.338   3.724   4.124  0.6334 -0.6664  0.0596
13137SOL     OW51064   2.838   4.108   2.755 -0.4361 -0.5479 -0.3298
13137SOL    HW151065   2.749   4.064   2.763 -0.5449 -0.2982 -0.1542
13137SOL    HW251066   2.910   4.038   2.753 -0.6662 -0.7674 -0.9673
13138SOL     OW51067   9.517   4.474   8.028  0.4961 -0.3320  0.0860
13138SOL    HW151068   9.561   4.426   8.104  0.2904  0.3557  0.6357
13138SOL    HW251069   9.428   4.433   8.011  1.8119 -2.5745 -1.8559
13139SOL     OW51070   1.976   3.834   5.351 -0.4082 -0.1232  0.1929
13139SOL    HW151071   2.013   3.754   5.305 -1.0828 -0.2780 -0.0860
13139SOL    HW251072   1.950   3.903   5.283  2.0219  1.1622  0.5073
13140SOL     OW51073   4.049   3.655   5.686  0.1266 -0.0097 -0.1530
13140SOL    HW151074   4.077   3.561   5.705  0.8728 -0.1461 -1.8905
13140SOL    HW251075   4.129   3.713   5.675 -0.3240  1.0281  1.6901
13141SOL     OW51076   0.413   8.709   7.348  0.6413  0.1343 -0.0912
13141SOL    HW151077   0.395   8.743   7.255 -1.0943  0.1429  0.2379
13141SOL    HW251078   0.481   8.768   7.392  0.4959  0.9128 -0.8931
13142SOL     OW51079   1.486   2.431   4.340  0.3757  0.4062 -0.2610
13142SOL    HW151080   1.477   2.528   4.358  0.4288  0.6556 -1.5314
13142SOL    HW251081   1.566   2.415   4.282  2.2390 -0.7274  2.4607
13143SOL     OW51082   4.391   6.193   8.181 -0.0873 -0.3160 -0.2282
13143SOL    HW151083   4.363   6.121   8.245 -1.3928 -0.6927 -1.1882
13143SOL    HW251084   4.344   6.179   8.094  0.3050  1.2309 -0.6946
13144SOL     OW51085   0.107   8.138   0.226  0.0404 -0.3380  0.3746
13144SOL    HW151086   0.119   8.120   0.128 -0.4189 -0.9704  0.4280
13144SOL    HW251087   0.189   8.183   0.262  0.2704 -0.2324 -0.2714
13145SOL     OW51088   4.560   2.864   7.289 -0.6837  0.5250 -0.0610
13145SOL    HW151089   4.539   2.774   7.251 -1.1512  0.1570  1.0635
13145SOL    HW251090   4.513   2.935   7.236 -0.9777  0.0441 -0.4400
13146SOL     OW51091   2.717   2.724   2.116 -0.5158  0.2967  0.1411
13146SOL    HW151092   2.710   2.823   2.132  0.4019  0.3678  0.0983
13146SOL    HW251093   2.664   2.676   2.186 -1.2372  0.8270 -0.0297
13147SOL     OW51094   7.797   1.307   1.096 -0.3708  0.1349  0.5308
13147SOL    HW151095   7.718   1.360   1.065  1.0937  1.6821 -0.6588
13147SOL    HW251096   7.799   1.219   1.047 -0.0187  1.1117 -1.2534
13148SOL     OW51097   5.984   7.693   2.569 -0.5487  0.1561  0.4250
13148SOL    HW151098   6.069   7.723   2.612  0.1640  0.6123 -1.2329
13148SOL    HW251099   5.946   7.769   2.515 -0.8989 -0.6686 -0.5120
13149SOL     OW51100   9.402   2.300   2.072 -0.6777  0.3029  0.1743
13149SOL    HW151101   9.335   2.337   2.007  0.1600  0.5817 -0.5521
13149SOL    HW251102   9.448   2.221   2.030 -0.7604 -0.0630  0.7759
13150SOL     OW51103   5.175   6.561   0.973 -0.1205 -0.2607 -0.1200
13150SOL    HW151104   5.228   6.600   0.897 -0.1604 -0.0627 -0.0466
13150SOL    HW251105   5.087   6.528   0.939  0.3575 -1.2793 -0.3802
13151SOL     OW51106   1.775   7.261   0.778 -0.8234 -0.1276  0.9147
13151SOL    HW151107   1.716   7.182   0.762 -0.7673 -0.6048  2.8829
13151SOL    HW251108   1.861   7.231   0.820 -1.3728  1.0777  3.0087
13152SOL     OW51109   8.266   4.892   3.212 -0.1951  0.3950 -0.0820
13152SOL    HW151110   8.214   4.966   3.171 -1.8221  0.0260  1.2134
13152SOL    HW251111   8.271   4.906   3.311 -2.4430 -2.2805  0.5001
13153SOL     OW51112   0.464   7.956   0.349 -0.5583 -0.3635 -0.2903
13153SOL    HW151113   0.389   7.926   0.409 -0.1129 -0.1594  0.3707
13153SOL    HW251114   0.551   7.926   0.387 -0.1460  1.2057  0.0492
13154SOL     OW51115   2.577   2.805   3.578 -0.0046  0.2875  0.9202
13154SOL    HW151116   2.653   2.742   3.561  0.7871  0.6542  3.0098
13154SOL    HW251117   2.611   2.885   3.626 -1.2155  1.8197 -0.7052
13155SOL     OW51118   1.782   0.838   7.230 -0.0558  0.2812 -0.1837
13155SOL    HW151119   1.852   0.906   7.209  0.7579  0.0927  1.7751
13155SOL    HW251120   1.818   0.746   7.210 -0.1922  0.2590 -0.3287
13156SOL     OW51121   3.682   7.041   3.644  0.0481  0.3878 -0.3240
13156SOL    HW151122   3.699   7.131   3.683 -0.7508  0.5401 -0.3165
13156SOL    HW251123   3.687   7.046   3.544  0.3763  0.3632 -0.3078
13157SOL     OW51124   2.097   6.963   7.773  0.0428 -0.0509  0.3097
13157SOL    HW151125   2.188   6.922   7.776  0.2725  0.4944  0.8671
13157SOL    HW251126   2.038   6.918   7.841  0.8133  1.7467  2.2372
13158SOL     OW51127   1.344   9.723   1.307  0.4072  0.1500 -0.7199
13158SOL    HW151128   1.375   9.684   1.394  0.2450  1.1257 -0.2124
13158SOL    HW251129   1.324   9.820   1.320 -0.6267  0.0626 -1.6069
13159SOL     OW51130   2.246   5.966   6.382 -0.4239 -0.8909 -0.6620
13159SOL    HW151131   2.227   6.062   6.362 -0.1977 -1.0822 -1.8247
13159SOL    HW251132   2.344   5.954   6.397 -0.2259 -1.2361 -2.2106
13160SOL     OW51133   7.120   2.617   1.205 -0.1607  0.0574  0.0811
13160SOL    HW151134   7.115   2.710   1.241  0.2064 -0.3820  1.2917
13160SOL    HW251135   7.081   2.554   1.271 -0.9532 -0.5895 -0.9989
13161SOL     OW51136   3.964   6.060   1.635  0.4587 -0.8329 -0.5051
13161SOL    HW151137   3.996   6.116   1.711 -1.1605  0.4950 -0.7899
13161SOL    HW251138   3.972   5.963   1.659  0.1164 -0.4236  1.2668
13162SOL     OW51139   8.884   3.106   4.200  0.8619 -0.3270 -0.0609
13162SOL    HW151140   8.847   3.033   4.142  1.1769 -1.2984  0.9432
13162SOL    HW251141   8.809   3.159   4.239  0.5295 -1.7759  1.3102
13163SOL     OW51142   1.494   2.660   3.560  0.0835  0.0475 -0.3004
13163SOL    HW151143   1.574   2.719   3.548  1.8965 -2.0669  0.9833
13163SOL    HW251144   1.469   2.657   3.656 -0.0182 -1.2131 -0.3536
13164SOL     OW51145   6.541   4.974   7.873  0.2301 -0.4085 -0.0806
13164SOL    HW151146   6.603   4.899   7.896  0.4472 -0.7685 -1.7468
13164SOL    HW251147   6.579   5.025   7.796  0.6294  2.1215  1.7222
13165SOL     OW51148   8.088   0.905   1.114 -0.1662  0.4319  0.1180
13165SOL    HW151149   8.017   0.973   1.136 -0.1235 -0.0135  1.6422
13165SOL    HW251150   8.177   0.938   1.146 -0.2281 -0.5776  1.3264
13166SOL     OW51151   0.122   9.793   0.264  0.4032  0.0795 -0.6949
13166SOL    HW151152   0.172   9.757   0.186  1.6213 -0.7300  0.4357
13166SOL    HW251153   0.184   9.806   0.341 -0.7315  1.0875  0.0681
13167SOL     OW51154   9.252   3.664   1.349 -0.2259  0.1276 -0.3498
13167SOL    HW151155   9.264   3.763   1.353 -1.6555  0.2894  0.2631
13167SOL    HW251156   9.186   3.642   1.276 -0.1723 -0.3407 -0.2544
13168SOL     OW51157   3.098   1.353   3.996 -0.3233 -0.1461 -0.1705
13168SOL    HW151158   3.079   1.439   4.043 -0.3720 -0.7481  0.9212
13168SOL    HW251159   3.124   1.372   3.901 -0.9972  1.0280 -0.1342
13169SOL     OW51160   0.316   2.140   5.909 -0.3554  0.2924  0.1972
13169SOL    HW151161   0.302   2.222   5.965  0.1273 -0.6935  1.8118
13169SOL    HW251162   0.249   2.070   5.933 -0.7997  0.2256 -1.2056
13170SOL     OW51163   5.335   9.136   0.939  0.1749 -0.2516  0.4616
13170SOL    HW151164   5.366   9.090   0.856 -0.0400 -1.5935  1.0972
13170SOL    HW251165   5.235   9.142   0.938  0.2366  0.7056  0.1248
13171SOL     OW51166   3.996   8.507   8.022 -0.0985  0.8621 -0.7209
13171SOL    HW151167   4.086   8.543   8.049 -0.0137 -0.6611  1.1304
13171SOL    HW251168   4.009   8.427   7.964 -0.2390  0.3336 -0.0349
13172SOL     OW51169   7.904   5.730   7.582  0.2502 -0.1209 -0.1094
13172SOL    HW151170   7.896   5.830   7.586  1.0375 -0.1235  2.0556
13172SOL    HW251171   7.820   5.692   7.543 -0.3669  1.3500 -0.2669
13173SOL     OW51172   9.174   5.889   5.874 -0.3515  0.6424 -0.1928
13173SOL    HW151173   9.105   5.871   5.945 -1.3128  1.4545 -0.9011
13173SOL    HW251174   9.170   5.986   5.849 -1.1305  0.0284 -2.5095
13174SOL     OW51175   4.471   9.400   3.340  0.7301  0.1211 -0.1105
13174SOL    HW151176   4.488   9.301   3.335 -2.1779 -0.4106 -0.2256
13174SOL    HW251177   4.545   9.443   3.391  1.6713 -2.2284  0.6166
13175SOL     OW51178   2.337   3.474   2.533 -0.7305 -0.4347 -0.3422
13175SOL    HW151179   2.326   3.571   2.554 -0.6238 -0.3208 -0.8130
13175SOL    HW251180   2.249   3.435   2.506 -0.3978 -0.0045 -2.0915
13176SOL     OW51181   2.128   9.512   6.320  0.2488 -0.1461 -0.1981
13176SOL    HW151182   2.028   9.510   6.317  0.2621 -0.2420 -0.5183
13176SOL    HW251183   2.165   9.507   6.227  0.5454  0.1710 -0.0993
13177SOL     OW51184   6.975   0.498   6.653 -0.3169  0.4945 -0.1214
13177SOL    HW151185   6.917   0.565   6.700 -2.6861 -0.4511 -1.6041
13177SOL    HW251186   7.018   0.438   6.720 -0.9396  1.2835  1.0023
13178SOL     OW51187   5.261   8.943   7.490  0.0985  1.1186  0.0283
13178SOL    HW151188   5.222   8.982   7.407  1.4474  1.0086 -0.6596
13178SOL    HW251189   5.194   8.880   7.531 -0.0964  0.2170 -1.6394
13179SOL     OW51190   2.553   6.219   6.490  0.7454  0.3458  0.4901
13179SOL    HW151191   2.481   6.279   6.525  0.9339  1.0460 -0.3175
13179SOL    HW251192   2.641   6.247   6.526  0.9397  1.0688 -0.5313
13180SOL     OW51193   2.825   0.994   5.594  0.2756 -0.4253 -0.2786
13180SOL    HW151194   2.787   1.001   5.687  2.1294  1.1203  0.4043
13180SOL    HW251195   2.910   0.942   5.597  0.4896 -0.1195 -1.0581
13181SOL     OW51196   2.280   8.293   1.587 -0.2108  0.4446  0.7876
13181SOL    HW151197   2.305   8.199   1.565 -1.4266 -0.0475  1.4537
13181SOL    HW251198   2.288   8.350   1.505  0.2348 -0.2994  0.3113
13182SOL     OW51199   1.692   7.371   6.152  0.3016 -0.7225  0.4867
13182SOL    HW151200   1.756   7.344   6.225 -2.8114 -2.6030  2.6435
13182SOL    HW251201   1.630   7.442   6.187 -1.4330 -1.8671 -0.2080
13183SOL     OW51202   2.120   8.659   0.705  0.1103  0.0006 -0.0439
13183SOL    HW151203   2.077   8.686   0.790  1.4145  1.3597  0.2147
13183SOL    HW251204   2.053   8.616   0.645 -1.3456  1.1474  0.7393
13184SOL     OW51205   3.959   9.616   3.035  1.0443  0.3331 -0.3619
13184SOL    HW151206   3.938   9.535   2.980  0.3705 -0.4241  0.9950
13184SOL    HW251207   3.932   9.698   2.985  0.2307 -0.3523 -1.0655
13185SOL     OW51208   9.044   1.266   3.784  0.4279  0.5314 -0.5817
13185SOL    HW151209   8.962   1.210   3.783  2.3010 -2.3220 -0.4505
13185SOL    HW251210   9.036   1.339   3.716 -1.6313 -0.5381 -1.5143
13186SOL     OW51211   0.039   2.547   4.821  0.0893  0.7499  0.3144
13186SOL    HW151212  -0.003   2.460   4.846  1.9471  0.1359  1.4564
13186SOL    HW251213  -0.002   2.621   4.875  0.1154  0.2351  1.0469
13187SOL     OW51214   4.308   1.174   1.186  0.2077  1.0944 -0.0694
13187SOL    HW151215   4.258   1.192   1.271  0.2963 -0.9027  0.4253
13187SOL    HW251216   4.383   1.240   1.178  0.4007  1.1100  1.5846
13188SOL     OW51217   0.460   1.724   7.257 -0.0027  0.0909 -0.1005
13188SOL    HW151218   0.496   1.702   7.348  0.2173 -0.1430 -0.2458
13188SOL    HW251219   0.422   1.817   7.258  0.7597  0.4009  0.0011
13189SOL     OW51220   2.260   4.358   3.203  0.3078  0.8344 -0.3334
13189SOL    HW151221   2.264   4.432   3.270  0.0894  1.3010 -0.8409
13189SOL    HW251222   2.174   4.363   3.153  0.3647  0.3377 -0.4835
13190SOL     OW51223   4.799   8.887   2.741  0.3665 -0.0244 -0.3740
13190SOL    HW151224   4.895   8.915   2.736  0.2754  0.0967 -1.5297
13190SOL    HW251225   4.744   8.948   2.684 -0.2819 -0.5782 -0.3369
13191SOL     OW51226   0.066   4.917   6.357 -0.0514  0.1734 -0.1961
13191SOL    HW151227  -0.015   4.862   6.377 -0.3781  0.4248 -0.7940
13191SOL    HW251228   0.066   4.998   6.416  0.4076 -0.4503  0.6508
13192SOL     OW51229   5.653   7.671   5.629 -0.6269 -0.0200 -0.4228
13192SOL    HW151230   5.622   7.764   5.612 -0.4521  0.3215  1.1058
13192SOL    HW251231   5.618   7.639   5.717  2.9304  0.2332  1.2010
13193SOL     OW51232   5.136   8.103   5.366 -0.1690  0.0686  0.4588
13193SOL    HW151233   5.189   8.155   5.299  0.1345 -1.9973 -0.9497
13193SOL    HW251234   5.183   8.103   5.454  1.7928 -1.0306 -0.5576
13194SOL     OW51235   7.699   4.928   2.909 -0.3739 -0.3539 -0.0185
13194SOL    HW151236   7.619   4.945   2.966  0.0553  0.7113  0.2649
13194SOL    HW251237   7.745   4.845   2.940 -0.5736 -0.1942  0.7042
13195SOL     OW51238   3.460   2.097   2.247  0.1575  0.3282  0.5587
13195SOL    HW151239   3.470   2.102   2.346 -1.4775 -1.3732  0.8524
13195SOL    HW251240   3.517   2.023   2.212 -0.2704  0.0569  0.4217
13196SOL     OW51241   8.701   1.425   2.341  0.1617  0.0985  0.2078
13196SOL    HW151242   8.784   1.370   2.342  0.2615  0.2536  0.9550
13196SOL    HW251243   8.623   1.369   2.369  0.2865  0.3623  1.1115
13197SOL     OW51244   8.941   4.610   2.880 -0.8355 -0.0630  0.0083
13197SOL    HW151245   8.929   4.709   2.873 -2.5482 -0.3502 -1.4462
13197SOL    HW251246   8.980   4.575   2.795 -0.0034 -0.6077  0.6094
13198SOL     OW51247   4.458   8.280   7.626  0.1881 -0.4549 -0.6804
13198SOL    HW151248   4.447   8.299   7.528 -2.5549  2.8703  0.1740
13198SOL    HW251249   4.537   8.330   7.661 -1.3593  1.8600 -0.3895
13199SOL     OW51250   5.760   7.701   3.410  0.1933  0.0080 -0.2523
13199SOL    HW151251   5.836   7.665   3.356 -0.0217 -0.0567 -0.5120
13199SOL    HW251252   5.782   7.694   3.508  1.3270  1.7368 -0.3645
13200SOL     OW51253   6.529   1.659   4.074 -0.1655  0.0092 -0.0689
13200SOL    HW151254   6.531   1.747   4.026 -0.4848 -0.6332 -1.2748
13200SOL    HW251255   6.436   1.622   4.071 -0.1537 -0.1121  0.9295
13201SOL     OW51256   4.270   3.962   8.186  0.0212 -0.0514 -0.5191
13201SOL    HW151257   4.251   3.904   8.264 -1.1803  0.3825 -0.4675
13201SOL    HW251258   4.254   4.058   8.211  0.4752  0.1665 -1.0442
13202SOL     OW51259   2.902   1.516   0.786  0.2525  0.4175  0.5938
13202SOL    HW151260   2.884   1.519   0.884 -1.6210  1.3815  0.2516
13202SOL    HW251261   2.844   1.445   0.745 -1.6918  2.4450 -0.3040
13203SOL     OW51262   6.853   2.469   1.073  0.2202 -0.1691  0.1400
13203SOL    HW151263   6.918   2.430   1.138 -0.9708  0.1094  1.5239
13203SOL    HW251264   6.870   2.567   1.062 -0.2823  0.0067  0.8986
13204SOL     OW51265   9.912   5.903   0.700  0.6040 -0.4135  0.5110
13204SOL    HW151266   9.866   5.980   0.745 -1.4753 -0.1639 -1.9819
13204SOL    HW251267   9.967   5.937   0.623  0.3460 -1.3351 -0.0892
13205SOL     OW51268   0.430   9.051   0.389  0.0733  0.5070 -0.0449
13205SOL    HW151269   0.443   9.071   0.292 -0.3771  0.6722 -0.0720
13205SOL    HW251270   0.384   9.128   0.433  2.3056  1.4241  0.7770
13206SOL     OW51271   7.081   4.689   7.428 -0.0813  0.3254 -0.2527
13206SOL    HW151272   7.066   4.785   7.450  1.0648  0.7596 -1.2643
13206SOL    HW251273   7.178   4.667   7.442 -0.3788 -0.7261  0.1470
13207SOL     OW51274   5.857   4.742   7.716  0.2737 -0.4420 -0.1022
13207SOL    HW151275   5.893   4.803   7.786  0.3681 -3.3912  2.5262
13207SOL    HW251276   5.911   4.751   7.633  3.1428 -0.2616  1.7257
13208SOL     OW51277   1.750   6.944   3.677  0.0229  0.2764 -0.0522
13208SOL    HW151278   1.741   7.044   3.679  0.8155  0.3454  0.1205
13208SOL    HW251279   1.775   6.914   3.585  0.6900  0.3152  0.1166
13209SOL     OW51280   3.280   9.665   5.229 -0.3665  0.3852  0.6623
13209SOL    HW151281   3.222   9.724   5.173  0.4949  2.4190  1.8945
13209SOL    HW251282   3.366   9.648   5.181 -2.3827 -3.7521 -1.7928
13210SOL     OW51283   2.977   1.119   2.876 -1.0973  0.2791 -0.1650
13210SOL    HW151284   2.967   1.020   2.881  1.2399 -0.0997 -1.8324
13210SOL    HW251285   3.046   1.150   2.942 -1.9468  0.8366  0.4787
13211SOL     OW51286   3.491   6.930   4.152 -0.5819  0.1367  0.2327
13211SOL    HW151287   3.524   6.881   4.072 -0.3403  2.1625 -0.9428
13211SOL    HW251288   3.437   7.009   4.124  0.7176  1.7297  1.9991
13212SOL     OW51289   5.452   0.820   4.178  0.2347  0.4320  0.5612
13212SOL    HW151290   5.546   0.829   4.144  0.4588 -1.1889  0.6843
13212SOL    HW251291   5.447   0.742   4.240 -0.9819  1.1313  1.3629
13213SOL     OW51292   8.847   6.806   2.536 -0.1269 -0.0465 -0.1715
13213SOL    HW151293   8.853   6.791   2.437  1.1793 -1.3598  0.0880
13213SOL    HW251294   8.915   6.874   2.564  0.3856 -0.6270  0.0023
13214SOL     OW51295   2.136   1.933   4.788  0.0535 -0.5467  0.4917
13214SOL    HW151296   2.188   1.922   4.703 -0.0008  3.8191 -0.1995
13214SOL    HW251297   2.199   1.939   4.865  0.2522 -0.9249  0.3648
13215SOL     OW51298   3.061   9.570   6.590 -0.0537 -0.2668 -0.4658
13215SOL    HW151299   2.980   9.528   6.549 -0.6316  0.8160 -0.4416
13215SOL    HW251300   3.139   9.507   6.582 -1.6459 -2.7167  2.4858
13216SOL     OW51301   5.154   0.111   3.042 -0.8107 -0.1561  0.1616
13216SOL    HW151302   5.245   0.154   3.045 -1.1732  0.8124 -1.4885
13216SOL    HW251303   5.094   0.156   3.108 -0.5605  0.3752  0.0341
13217SOL     OW51304   6.500   1.520   1.188  0.1944  0.1003  0.2419
13217SOL    HW151305   6.582   1.521   1.131  2.0891 -1.4418  2.7900
13217SOL    HW251306   6.527   1.518   1.284 -2.8509 -0.6826  1.1349
13218SOL     OW51307   9.132   2.769   1.703 -0.1114  0.0437  0.5741
13218SOL    HW151308   9.067   2.733   1.770 -2.7321 -0.7599 -2.2754
13218SOL    HW251309   9.111   2.731   1.613  2.3948  2.2170 -0.9990
13219SOL     OW51310   2.823   4.327   4.082  0.4218 -0.7927  0.1075
13219SOL    HW151311   2.767   4.407   4.059 -0.4016 -1.3333  0.1964
13219SOL    HW251312   2.906   4.357   4.129 -0.5090 -0.0703  1.3256
13220SOL     OW51313   4.909   9.355   0.832  0.6081  0.6809  0.0872
13220SOL    HW151314   4.916   9.446   0.791  0.2219  0.4004 -0.6041
13220SOL    HW251315   4.813   9.328   0.837  0.9240 -1.7191 -4.2256
13221SOL     OW51316   4.063   4.316   1.138  0.3987 -0.0312 -0.1481
13221SOL    HW151317   3.982   4.277   1.182  0.5333 -0.0571  0.0790
13221SOL    HW251318   4.038   4.354   1.049 -0.1666  1.3749  0.5990
13222SOL     OW51319   3.738   4.479   0.509  0.0539  0.6319 -0.3116
13222SOL    HW151320   3.703   4.569   0.532 -3.1459 -0.5774 -0.1579
13222SOL    HW251321   3.742   4.469   0.410  1.9197  1.4673 -0.3356
13223SOL     OW51322   9.389   4.646   7.658 -0.1354 -0.5946  0.3463
13223SOL    HW151323   9.480   4.607   7.648 -0.9555 -3.0021  1.8965
13223SOL    HW251324   9.394   4.728   7.716  1.3092  0.5110 -1.2948
13224SOL     OW51325   5.852   0.927   6.231 -0.8174  0.0520 -0.6013
13224SOL    HW151326   5.798   1.006   6.203 -1.8212 -0.2713  0.4118
13224SOL    HW251327   5.863   0.926   6.330 -0.8909 -1.1317 -0.5877
13225SOL     OW51328   6.820   4.171   7.378 -0.0204 -0.5751 -0.0160
13225SOL    HW151329   6.904   4.143   7.424 -1.4015 -2.7411  1.2644
13225SOL    HW251330   6.824   4.269   7.358  2.5244 -0.5192  0.5629
13226SOL     OW51331   8.304   8.845   4.734 -0.4380  0.2266  0.1567
13226SOL    HW151332   8.353   8.803   4.811  0.5330  1.8448  0.4603
13226SOL    HW251333   8.303   8.782   4.657 -0.4451 -0.9858  1.1158
13227SOL     OW51334   5.154   1.158   4.761 -0.0040  0.0324 -0.5170
13227SOL    HW151335   5.181   1.086   4.698 -1.0042 -0.4634 -0.3755
13227SOL    HW251336   5.233   1.183   4.818  0.6616 -0.1170 -1.3627
13228SOL     OW51337   7.992   3.660   1.532  0.3241  0.0399 -0.2759
13228SOL    HW151338   8.069   3.597   1.539 -0.0458 -0.3350  0.4437
13228SOL    HW251339   8.017   3.748   1.571  0.5919  0.1142 -0.6060
13229SOL     OW51340   0.364   8.089   5.745  0.3251  0.0979 -0.8633
13229SOL    HW151341   0.357   8.056   5.839 -2.2433  0.2188 -1.0010
13229SOL    HW251342   0.289   8.052   5.691  1.5076  0.4306 -2.7636
13230SOL     OW51343   2.730   4.818   8.086  0.0743 -0.2806 -0.4876
13230SOL    HW151344   2.677   4.816   8.171 -2.8546 -1.1975 -2.2431
13230SOL    HW251345   2.799   4.745   8.088  0.4317  0.0960  1.3312
13231SOL     OW51346   9.580   0.622   2.490  0.1101 -0.0265 -1.0099
13231SOL    HW151347   9.483   0.631   2.512 -0.2077 -0.4924 -2.1635
13231SOL    HW251348   9.598   0.666   2.403  1.2008  1.1574 -0.1983
13232SOL     OW51349   3.183   0.852   4.698  0.1371  0.3901  0.3589
13232SOL    HW151350   3.195   0.775   4.761 -0.0852  0.6785  0.7506
13232SOL    HW251351   3.115   0.915   4.734  0.5504  0.9386  0.1922
13233SOL     OW51352   6.586   8.323   5.409  0.5609 -0.6032 -0.9038
13233SOL    HW151353   6.635   8.401   5.370 -0.2123  0.4225  0.1369
13233SOL    HW251354   6.563   8.343   5.505 -1.1296 -1.4043 -1.1250
13234SOL     OW51355   7.612   9.297   7.005 -0.6392  0.0022 -0.3490
13234SOL    HW151356   7.579   9.347   6.925 -0.2943  2.4437  1.0027
13234SOL    HW251357   7.616   9.358   7.084  0.1302 -2.0799  1.2822
13235SOL     OW51358   1.596   9.083   3.143  0.0908  0.2089 -0.0971
13235SOL    HW151359   1.573   9.051   3.051  0.4926 -3.3111  0.9306
13235SOL    HW251360   1.695   9.093   3.151  0.4704 -3.6019  1.0792
13236SOL     OW51361   5.414   6.455   1.509  0.2645  0.0307 -0.4612
13236SOL    HW151362   5.409   6.467   1.608  0.5461 -1.2829 -0.2819
13236SOL    HW251363   5.356   6.524   1.465  1.0341  1.3557  0.5578
13237SOL     OW51364   9.495   9.927   0.508  0.2188 -0.3854 -0.7307
13237SOL    HW151365   9.559   9.885   0.443  0.4189  0.5442 -1.1498
13237SOL    HW251366   9.547   9.973   0.580  0.0378  0.7380 -1.3100
13238SOL     OW51367   2.020   9.465   4.457 -0.0099 -0.1118 -0.0615
13238SOL    HW151368   2.057   9.430   4.371  0.2656  1.8208 -0.7681
13238SOL    HW251369   2.085   9.448   4.531  0.8891  0.4260 -0.7133
13239SOL     OW51370   9.266   6.363   4.099  0.0747 -0.2925 -0.2451
13239SOL    HW151371   9.230   6.404   4.183  0.6560  0.2019 -0.2282
13239SOL    HW251372   9.272   6.264   4.110 -0.0962 -0.2536  0.2036
13240SOL     OW51373   3.523   3.873   2.975 -0.4137  0.4098 -0.1889
13240SOL    HW151374   3.489   3.780   2.986  1.0431 -0.4160 -2.2551
13240SOL    HW251375   3.450   3.931   2.938 -1.0778 -0.1204  0.2902
13241SOL     OW51376   5.435   3.985   0.040 -0.3225  0.6053 -0.0836
13241SOL    HW151377   5.500   3.941  -0.022 -0.2903  1.2561 -0.5259
13241SOL    HW251378   5.440   3.943   0.130  0.8526  0.7892 -0.0561
13242SOL     OW51379   3.323   6.989   4.925  0.2793  0.6753 -0.4390
13242SOL    HW151380   3.320   6.984   4.826  0.4023 -0.0725 -0.4092
13242SOL    HW251381   3.343   7.083   4.953  1.5683  0.6355 -1.1587
13243SOL     OW51382   3.653   9.853   6.259  0.0071 -0.1192 -0.1808
13243SOL    HW151383   3.629   9.941   6.219 -0.1360  0.5046  1.2540
13243SOL    HW251384   3.732   9.865   6.320 -1.0929 -0.6537  1.3590
13244SOL     OW51385   2.005   5.585   4.145  0.0556 -0.5256 -0.3317
13244SOL    HW151386   1.976   5.679   4.130 -0.7673 -0.8635 -0.8999
13244SOL    HW251387   2.069   5.558   4.074 -1.2577 -1.0414 -1.3273
13245SOL     OW51388   9.017   0.227   3.578 -0.7919 -0.2886  0.0078
13245SOL    HW151389   9.046   0.192   3.489 -1.8990  1.2058 -0.9708
13245SOL    HW251390   8.989   0.323   3.569  0.3194  0.2790  2.2304
13246SOL     OW51391   8.604   4.207   3.720 -0.3726  0.1966  0.6326
13246SOL    HW151392   8.642   4.131   3.772 -3.3276 -1.1638  0.9215
13246SOL    HW251393   8.542   4.259   3.778 -0.1182  1.4572 -0.2177
13247SOL     OW51394   9.848   3.812   2.437  0.3103 -0.5988  0.4287
13247SOL    HW151395   9.791   3.805   2.355 -0.8616  1.0363  1.0847
13247SOL    HW251396   9.837   3.729   2.492  0.3011 -1.2488 -0.5424
13248SOL     OW51397   5.060   8.905   1.372 -0.1000 -0.0042 -1.1167
13248SOL    HW151398   5.110   8.850   1.305  0.3586 -1.1549  0.1508
13248SOL    HW251399   5.018   8.845   1.440 -0.5731  1.1477 -0.3749
13249SOL     OW51400   1.767   8.010   4.330  0.5349 -0.1096  0.2830
13249SOL    HW151401   1.717   7.974   4.252  0.5118  0.3878  0.0637
13249SOL    HW251402   1.855   7.964   4.338  0.6450  0.0154 -0.1927
13250SOL     OW51403   9.853   4.055   4.858 -0.3320  0.4542 -0.0019
13250SOL    HW151404   9.849   4.136   4.916  1.8466  1.4324 -1.1578
13250SOL    HW251405   9.810   4.074   4.770 -1.2523 -0.1750  0.3032
13251SOL     OW51406   0.724   7.820   2.242 -0.1015  0.4478  0.5096
13251SOL    HW151407   0.711   7.910   2.200  1.2920  0.1762 -0.5384
13251SOL    HW251408   0.698   7.749   2.177  1.8449  0.0252  0.1638
13252SOL     OW51409   2.559   9.754   0.305 -0.3388 -0.5176 -0.4912
13252SOL    HW151410   2.575   9.783   0.210  3.3282 -2.1490 -0.4531
13252SOL    HW251411   2.605   9.818   0.367  0.1081 -1.3313  0.0148
13253SOL     OW51412   0.466   4.141   7.396  0.2010  0.4542 -0.3421
13253SOL    HW151413   0.439   4.158   7.491  1.1459  0.3552 -0.0533
13253SOL    HW251414   0.414   4.063   7.360  0.1506  0.2177  0.2326
13254SOL     OW51415   9.593   9.549   1.010 -0.3399  1.0354  0.4839
13254SOL    HW151416   9.607   9.453   1.034 -0.8005  0.7911 -0.2292
13254SOL    HW251417   9.500   9.576   1.034 -1.0931  0.5546 -1.7901
13255SOL     OW51418   6.617   0.594   4.220  0.0617  0.1750 -0.2564
13255SOL    HW151419   6.641   0.691   4.220  0.9906 -0.0005  1.9785
13255SOL    HW251420   6.607   0.563   4.315 -2.4626 -1.3832 -0.9971
13256SOL     OW51421   2.105   3.585   2.172  0.3053 -0.4442 -0.4535
13256SOL    HW151422   2.030   3.652   2.177 -0.6267 -1.6035  1.2646
13256SOL    HW251423   2.192   3.634   2.171 -0.4098  0.8616 -0.8567
13257SOL     OW51424   9.747   0.897   3.096  0.1397  0.0503  0.4482
13257SOL    HW151425   9.714   0.823   3.038  0.3832  0.1278  0.2114
13257SOL    HW251426   9.717   0.882   3.190  0.0682 -0.2721  0.3725
13258SOL     OW51427   2.696   1.851   5.812 -0.4978  0.1557 -0.0687
13258SOL    HW151428   2.674   1.945   5.784 -1.9600 -0.9135 -2.6411
13258SOL    HW251429   2.613   1.795   5.813  0.2615 -1.0083  2.0466
13259SOL     OW51430   7.846   3.210   8.186  0.4013  0.0348 -1.1361
13259SOL    HW151431   7.768   3.151   8.167  0.8706 -0.7857 -0.5523
13259SOL    HW251432   7.905   3.214   8.105  0.8072 -0.9956 -0.9061
13260SOL     OW51433   7.157   4.974   7.047 -0.4004  0.3130 -0.8859
13260SOL    HW151434   7.138   4.959   6.950  0.6283 -0.6834 -0.9453
13260SOL    HW251435   7.247   5.018   7.057  0.5962 -1.8035 -0.2868
13261SOL     OW51436   0.441   1.995   4.468  0.0628 -0.0626  0.0578
13261SOL    HW151437   0.512   2.065   4.472  0.5500 -0.4053 -2.1194
13261SOL    HW251438   0.387   2.007   4.385 -1.7334 -0.5027  1.1292
13262SOL     OW51439   4.178   5.021   0.633  0.7399 -0.2734 -0.9084
13262SOL    HW151440   4.174   4.983   0.726  0.6950  0.0849 -0.7624
13262SOL    HW251441   4.102   4.985   0.579 -0.5017  1.1819 -0.1740
13263SOL     OW51442   1.690   4.430   1.806 -0.2653  0.0490 -0.7403
13263SOL    HW151443   1.596   4.401   1.825 -0.3151  0.0355 -0.9996
13263SOL    HW251444   1.750   4.398   1.879 -0.5359  0.4511 -0.3386
13264SOL     OW51445   5.954   2.078   0.774 -0.1842  0.7836 -0.1390
13264SOL    HW151446   5.954   2.037   0.682 -4.2051 -0.3215  0.2705
13264SOL    HW251447   5.961   2.005   0.842 -0.1688  1.3820  0.4972
13265SOL     OW51448   8.100   0.465   5.965 -1.3612 -0.0765 -0.1788
13265SOL    HW151449   8.156   0.382   5.961 -0.3709  0.5967 -0.3470
13265SOL    HW251450   8.071   0.481   6.059  2.3710  1.9398  0.7552
13266SOL     OW51451   2.418   0.962   7.569  0.1980  0.3801 -0.3480
13266SOL    HW151452   2.436   1.049   7.525 -2.2954  1.3101  0.3868
13266SOL    HW251453   2.437   0.969   7.667  0.4839 -0.0448 -0.3707
13267SOL     OW51454   5.070   8.767   6.639  0.0285 -0.3282 -0.3052
13267SOL    HW151455   5.086   8.700   6.567  0.5059 -0.7506  0.1842
13267SOL    HW251456   5.073   8.721   6.728 -2.7101 -0.2046 -0.1061
13268SOL     OW51457   5.577   1.780   0.477  0.4786  0.0868 -0.3860
13268SOL    HW151458   5.523   1.854   0.438 -0.3047 -0.4877 -0.3885
13268SOL    HW251459   5.606   1.806   0.570 -3.0147 -1.1370  1.1282
13269SOL     OW51460   8.226   9.610   3.564 -0.3817  0.0910  0.4064
13269SOL    HW151461   8.319   9.574   3.574 -0.5205 -1.0633 -2.0776
13269SOL    HW251462   8.230   9.709   3.556  0.8481 -0.0735 -1.4640
13270SOL     OW51463   2.688   0.371   3.917  0.0710  0.2972 -0.2502
13270SOL    HW151464   2.772   0.400   3.963  1.0251  0.2994 -1.9598
13270SOL    HW251465   2.660   0.439   3.849 -1.1222  0.1273  0.0477
13271SOL     OW51466   4.388   5.998   3.866  0.0903  0.7152  0.3709
13271SOL    HW151467   4.418   5.982   3.772  0.4929 -0.3613  0.6697
13271SOL    HW251468   4.289   6.017   3.867 -0.5442 -2.3521  0.0134
13272SOL     OW51469   8.663   1.196   4.597 -0.5011 -0.1092 -0.3081
13272SOL    HW151470   8.653   1.280   4.650 -1.6812 -0.2702 -0.2633
13272SOL    HW251471   8.590   1.191   4.529  0.2921 -0.4942 -1.1466
13273SOL     OW51472   9.132   3.829   7.680  0.1962  0.2214  0.4634
13273SOL    HW151473   9.102   3.885   7.757 -1.3466 -0.3024  0.2458
13273SOL    HW251474   9.068   3.754   7.666  1.0546 -0.3165 -0.6602
13274SOL     OW51475   4.874   2.397   6.792  0.3878  0.1006  0.1927
13274SOL    HW151476   4.787   2.354   6.767  2.5885 -2.9321 -2.7269
13274SOL    HW251477   4.930   2.332   6.844  1.5353  1.4432  0.6809
13275SOL     OW51478   7.997   9.237   4.535  0.0023 -0.2177  0.1985
13275SOL    HW151479   8.066   9.309   4.533  1.0489 -1.1972  1.0775
13275SOL    HW251480   7.956   9.232   4.626 -0.7544 -0.0962 -0.1317
13276SOL     OW51481   0.222   7.444   1.409  0.1331  0.2800 -0.4238
13276SOL    HW151482   0.290   7.400   1.350  1.2771  0.8751  0.4456
13276SOL    HW251483   0.165   7.505   1.354 -0.3844 -0.9862 -1.3414
13277SOL     OW51484   5.936   6.678   1.537  1.0324  0.5813 -0.1953
13277SOL    HW151485   5.954   6.635   1.449 -0.1920 -1.0196  0.3362
13277SOL    HW251486   5.940   6.610   1.609 -0.8493  1.3686  0.6664
13278SOL     OW51487   0.731   4.562   3.535  0.1197  0.0808  0.0929
13278SOL    HW151488   0.710   4.591   3.628  1.0902 -0.9131  0.6269
13278SOL    HW251489   0.788   4.480   3.537  0.0953  0.0087 -1.3771
13279SOL     OW51490   0.104   5.071   3.403 -0.4213  0.4387 -0.3936
13279SOL    HW151491   0.130   5.151   3.350  0.7177  1.8447  2.1675
13279SOL    HW251492   0.010   5.082   3.435 -0.6586  0.2069 -1.0077
13280SOL     OW51493   0.047   0.086   2.138  0.6031 -0.0162 -0.2879
13280SOL    HW151494   0.017   0.170   2.184  0.6311 -1.2311  2.0392
13280SOL    HW251495   0.015   0.086   2.044 -2.8433  0.7861  0.8374
13281SOL     OW51496   7.378   9.907   1.745 -0.3418 -0.3527 -0.6203
13281SOL    HW151497   7.298   9.944   1.794 -0.6710 -0.1876 -1.2793
13281SOL    HW251498   7.365   9.809   1.729 -0.7748 -0.1706 -1.4244
13282SOL     OW51499   8.733   6.615   2.768 -0.3441 -0.3262 -0.6175
13282SOL    HW151500   8.780   6.682   2.711 -0.2568 -0.3423 -0.5644
13282SOL    HW251501   8.690   6.546   2.710 -0.6901 -0.0543 -0.6859
13283SOL     OW51502   8.299   6.709   2.115 -0.0300 -0.0210 -0.0230
13283SOL    HW151503   8.310   6.760   2.030 -0.1433  1.2369  0.7056
13283SOL    HW251504   8.279   6.773   2.190 -0.4185 -1.1597  0.8531
13284SOL     OW51505   8.666   3.025   5.425 -0.0494 -0.4365 -0.0135
13284SOL    HW151506   8.754   2.987   5.455  0.1507 -0.9215 -1.1874
13284SOL    HW251507   8.592   2.962   5.447 -0.1288  0.0340  1.1004
13285SOL     OW51508   0.281   2.936   3.343 -0.5552 -0.4929  0.2065
13285SOL    HW151509   0.285   3.001   3.267 -1.1324 -0.4225  0.2313
13285SOL    HW251510   0.299   2.985   3.429 -0.6321 -0.4315  0.1883
13286SOL     OW51511   1.232   7.579   5.465 -0.1499 -0.0630 -0.2620
13286SOL    HW151512   1.226   7.540   5.557 -0.0033  0.3571 -0.0731
13286SOL    HW251513   1.312   7.638   5.460 -0.0641 -0.2183 -0.7115
13287SOL     OW51514   1.120   3.184   2.064 -0.1232  0.4477  0.0832
13287SOL    HW151515   1.093   3.159   1.971  0.2146 -0.8407  0.3330
13287SOL    HW251516   1.090   3.113   2.128  0.2163  1.0177  0.8813
13288SOL     OW51517   8.159   5.849   7.907 -0.1455 -0.0597 -0.2412
13288SOL    HW151518   8.124   5.764   7.946 -0.3220 -0.3544 -1.0255
13288SOL    HW251519   8.238   5.828   7.849 -0.8340  0.1871 -1.2726
13289SOL     OW51520   8.942   0.926   4.262  0.3710  0.0243 -0.6386
13289SOL    HW151521   8.943   0.920   4.162 -0.2406  2.2215 -0.8015
13289SOL    HW251522   9.028   0.964   4.294 -0.3430  1.5992 -0.5285
13290SOL     OW51523   3.239   2.450   2.693 -0.1442  0.4773  0.1016
13290SOL    HW151524   3.275   2.422   2.782  0.2310 -1.1799 -0.5400
13290SOL    HW251525   3.140   2.436   2.691  0.0425 -0.9192 -0.2240
13291SOL     OW51526   0.909   0.082   0.479  0.3022  0.0589 -0.0238
13291SOL    HW151527   0.867   0.072   0.389 -2.1765  0.0205  1.0765
13291SOL    HW251528   0.850   0.138   0.537  1.8420  0.0654  1.5895
13292SOL     OW51529   4.428   8.911   2.952 -0.1827 -0.0183  0.2012
13292SOL    HW151530   4.374   8.829   2.973  1.7188 -1.0235  1.2987
13292SOL    HW251531   4.427   8.927   2.853 -0.7070 -1.2629 -0.0065
13293SOL     OW51532   4.058   8.526   0.972 -0.2567 -0.1970 -0.0998
13293SOL    HW151533   3.967   8.547   1.008 -0.5316  2.0496 -1.9977
13293SOL    HW251534   4.103   8.611   0.944  2.9567 -1.1443  1.9690
13294SOL     OW51535   0.890   1.121   2.514 -0.5320 -0.4940  0.2368
13294SOL    HW151536   0.890   1.157   2.607 -1.9668 -1.6224  0.6837
13294SOL    HW251537   0.935   1.032   2.512  0.4352 -0.0045 -0.3520
13295SOL     OW51538   0.332   3.221   4.315 -0.1833  0.8511 -0.5395
13295SOL    HW151539   0.270   3.297   4.331 -1.0560 -0.0719  0.5826
13295SOL    HW251540   0.416   3.234   4.369  0.3869  1.8517 -1.6711
13296SOL     OW51541   9.562   2.470   2.600 -0.1668  0.3327 -0.4313
13296SOL    HW151542   9.517   2.396   2.551 -0.9141  0.5763 -0.1157
13296SOL    HW251543   9.570   2.550   2.541  1.5095 -0.2887 -1.1019
13297SOL     OW51544   4.393   3.800   6.420  0.2137  0.1758 -0.0896
13297SOL    HW151545   4.405   3.897   6.403  2.1607  0.2795  1.5987
13297SOL    HW251546   4.369   3.753   6.335  0.5373  1.9367 -1.1696
13298SOL     OW51547   3.043   4.543   1.756  0.3817  0.1069  0.0564
13298SOL    HW151548   3.103   4.558   1.677  0.2640  0.5873  0.0556
13298SOL    HW251549   3.049   4.448   1.785  1.6687  0.3016  0.4643
13299SOL     OW51550   9.509   0.765   7.154 -0.3814  0.0510  0.3488
13299SOL    HW151551   9.541   0.671   7.145 -1.0333 -0.1131 -0.2510
13299SOL    HW251552   9.412   0.765   7.174 -0.5687  0.6166 -0.5329
13300SOL     OW51553   0.683   2.382   0.013 -0.1121  0.4450 -0.0253
13300SOL    HW151554   0.654   2.410  -0.079 -1.5465  1.1125  0.6179
13300SOL    HW251555   0.659   2.286   0.027 -1.8429  0.9219  0.4067
13301SOL     OW51556   2.565   6.785   0.939 -0.2223 -0.0488  0.5047
13301SOL    HW151557   2.639   6.726   0.908 -0.1113  0.9475 -1.2090
13301SOL    HW251558   2.502   6.733   0.997 -0.0413 -1.7909 -0.8298
13302SOL     OW51559   5.785   7.392   4.122 -0.2550  0.5168  0.4026
13302SOL    HW151560   5.835   7.342   4.194 -0.2770 -1.4831 -0.9402
13302SOL    HW251561   5.840   7.393   4.039 -2.4414 -1.8001 -1.1366
13303SOL     OW51562   3.569   3.121   6.317 -0.5663  0.1381 -0.1173
13303SOL    HW151563   3.498   3.133   6.387  0.0606 -1.3676  0.8007
13303SOL    HW251564   3.652   3.085   6.360  0.4736  1.0581 -1.3284
13304SOL     OW51565   0.012   9.223   3.301  0.3081 -0.0338 -0.3486
13304SOL    HW151566  -0.072   9.169   3.309 -1.1315  2.2601  0.6142
13304SOL    HW251567   0.006   9.281   3.221  1.5015 -0.7039 -0.9273
13305SOL     OW51568   6.206   0.479   4.023  0.7166 -0.0407 -0.4380
13305SOL    HW151569   6.303   0.485   3.998  0.5604  0.1391 -0.9988
13305SOL    HW251570   6.184   0.384   4.044  1.0008 -0.0908 -0.3506
13306SOL     OW51571   3.274   9.421   1.271  0.2278 -0.0507  0.2517
13306SOL    HW151572   3.201   9.355   1.255  1.2734 -1.4763  1.2420
13306SOL    HW251573   3.300   9.464   1.184  0.1003 -1.5499 -0.5382
13307SOL     OW51574   9.394   2.045   3.887 -0.2267  0.0750  0.2207
13307SOL    HW151575   9.337   2.113   3.842  0.0094  1.2759  1.7035
13307SOL    HW251576   9.343   2.002   3.962  0.2376 -0.0342  0.4781
13308SOL     OW51577   8.935   8.602   0.815  0.5900  0.0199  0.2212
13308SOL    HW151578   8.880   8.576   0.894  1.0773 -0.5561  0.3760
13308SOL    HW251579   9.014   8.655   0.845 -0.4451  1.7964 -0.1028
13309SOL     OW51580   2.229   4.869   3.375  0.2922 -0.0260 -0.1698
13309SOL    HW151581   2.235   4.876   3.474  1.6533  0.6025 -0.2910
13309SOL    HW251582   2.171   4.943   3.340 -0.6930 -0.6173  0.2036
13310SOL     OW51583   5.060   0.968   6.410  0.1596  0.1868 -0.2314
13310SOL    HW151584   5.105   1.049   6.448 -0.1747  0.5518 -0.6126
13310SOL    HW251585   5.123   0.890   6.415  0.7235  0.6187 -0.4683
13311SOL     OW51586   7.808   8.217   5.116 -0.6694  0.1474 -0.3159
13311SOL    HW151587   7.718   8.246   5.085 -0.8092  0.5598  0.4934
13311SOL    HW251588   7.874   8.291   5.102 -0.8623  0.5579  0.9882
13312SOL     OW51589   0.788   7.533   3.998  0.0320  0.4247  0.5016
13312SOL    HW151590   0.798   7.537   4.097 -2.5095 -1.8442  0.8947
13312SOL    HW251591   0.704   7.581   3.971  0.3354  0.4009 -0.4909
13313SOL     OW51592   7.264   1.137   3.832 -0.0144  0.0225 -0.2961
13313SOL    HW151593   7.305   1.063   3.780  0.4105 -0.8289  1.2178
13313SOL    HW251594   7.171   1.153   3.799 -0.1673 -1.2848 -0.5375
13314SOL     OW51595   7.259   2.186   1.973 -0.1091 -0.4049  0.1972
13314SOL    HW151596   7.279   2.088   1.979 -0.4309 -0.6130 -1.6899
13314SOL    HW251597   7.190   2.201   1.902 -1.2044  1.0439  1.5411
13315SOL     OW51598   1.129   2.900   4.324  0.1796 -0.0181  0.1558
13315SOL    HW151599   1.186   2.960   4.380  1.1487 -0.6894 -0.1072
13315SOL    HW251600   1.187   2.838   4.271 -0.7646 -0.2278 -0.6596
13316SOL     OW51601   4.042   4.434   5.998  0.1447 -0.5542  0.0994
13316SOL    HW151602   4.107   4.502   5.964 -0.4598 -1.0797 -2.1915
13316SOL    HW251603   3.990   4.473   6.074 -1.1697  2.0541 -2.0609
13317SOL     OW51604   1.800   1.359   0.555  0.1883 -0.2307  0.3356
13317SOL    HW151605   1.832   1.362   0.460  0.3279 -1.1065  0.3492
13317SOL    HW251606   1.741   1.279   0.567  0.0715 -0.0506  0.9589
13318SOL     OW51607   9.166   7.463   5.286  0.4248  0.2626  0.9512
13318SOL    HW151608   9.079   7.415   5.294  0.6007 -0.3777 -0.7665
13318SOL    HW251609   9.240   7.396   5.280  0.8344  0.7645  0.2608
13319SOL     OW51610   7.890   9.123   3.951  0.0986  0.0287  0.4338
13319SOL    HW151611   7.935   9.040   3.983  0.6994  0.1016 -0.2015
13319SOL    HW251612   7.794   9.102   3.928 -0.4043  0.0398  2.4649
13320SOL     OW51613   3.405   0.173   7.688 -0.7172 -0.6123 -0.0914
13320SOL    HW151614   3.317   0.189   7.732 -0.5004 -0.5893  0.3408
13320SOL    HW251615   3.445   0.261   7.660  0.9836 -0.2155  3.2767
13321SOL     OW51616   7.887   7.036   6.505 -0.5246  0.1917 -0.1790
13321SOL    HW151617   7.880   7.087   6.591  0.6227  0.3895 -0.1901
13321SOL    HW251618   7.906   7.100   6.430  0.1383 -0.1718 -0.3208
13322SOL     OW51619   1.187   1.670   6.120 -0.3037  0.4590  0.4063
13322SOL    HW151620   1.229   1.644   6.207  1.4719  1.3479 -0.1544
13322SOL    HW251621   1.210   1.602   6.050  2.4995  2.2527 -0.5309
13323SOL     OW51622   0.426   1.367   1.700 -0.4083  0.2691 -0.4778
13323SOL    HW151623   0.455   1.351   1.606  1.0842  1.6051 -0.2748
13323SOL    HW251624   0.483   1.313   1.762 -0.2682  0.6603 -0.2570
13324SOL     OW51625   5.604   1.832   0.738 -0.0004 -0.1944  0.1127
13324SOL    HW151626   5.669   1.795   0.804 -0.9187 -0.6349  0.7769
13324SOL    HW251627   5.568   1.919   0.771  0.0485 -0.0762 -0.1389
13325SOL     OW51628   5.984   2.782   1.338 -0.1096 -0.2079 -0.1188
13325SOL    HW151629   5.940   2.871   1.349 -1.2952 -0.6962 -0.8049
13325SOL    HW251630   6.082   2.795   1.321 -0.3609  0.9815 -0.7065
13326SOL     OW51631   9.534   1.178   1.579  0.1529 -0.0562 -0.3098
13326SOL    HW151632   9.611   1.145   1.633 -0.8993 -0.8450  0.7252
13326SOL    HW251633   9.471   1.103   1.561 -0.2282  0.5105 -1.4269
13327SOL     OW51634   8.520   9.306   6.416  0.0385  0.1890  0.1642
13327SOL    HW151635   8.433   9.283   6.460  0.3630 -0.4754  0.4650
13327SOL    HW251636   8.530   9.250   6.334  0.4221 -0.1204  0.4195
13328SOL     OW51637   3.827   6.622   5.606 -0.2994  0.3128 -0.1100
13328SOL    HW151638   3.845   6.524   5.621  0.3693  0.3673 -0.5071
13328SOL    HW251639   3.764   6.656   5.676 -0.6121 -0.4253 -0.0276
13329SOL     OW51640   3.969   4.339   7.261  0.6413  0.2084 -0.0247
13329SOL    HW151641   3.921   4.308   7.344  0.2425  0.8830  0.0028
13329SOL    HW251642   4.064   4.359   7.283  1.3298 -2.4268 -0.3590
13330SOL     OW51643   3.094   7.296   1.257 -0.0635  0.6611 -0.0390
13330SOL    HW151644   3.058   7.365   1.194 -0.4808  1.3017  0.9090
13330SOL    HW251645   3.091   7.206   1.212  0.7432  1.2795 -1.3783
13331SOL     OW51646   1.173   9.439   2.458  0.2875 -0.7597  0.2827
13331SOL    HW151647   1.075   9.448   2.478  0.2237 -0.1284 -0.2860
13331SOL    HW251648   1.226   9.470   2.536  0.0414  1.2049 -0.3105
13332SOL     OW51649   5.541   1.598   5.744 -0.4357  0.1101  0.4740
13332SOL    HW151650   5.515   1.508   5.777 -1.5189  1.0056  2.1506
13332SOL    HW251651   5.478   1.626   5.671  1.4307 -1.5027 -1.8495
13333SOL     OW51652   9.820   4.345   6.301  0.1588 -0.2499 -0.0248
13333SOL    HW151653   9.839   4.433   6.256  0.1908 -0.5501 -0.5959
13333SOL    HW251654   9.906   4.304   6.331  0.1155  0.0688  0.5283
13334SOL     OW51655   4.883   2.855   1.464 -0.2934  0.3433  0.1478
13334SOL    HW151656   4.940   2.871   1.383 -0.0041  2.3209  0.7206
13334SOL    HW251657   4.922   2.781   1.518  1.3676  1.2086  0.1699
13335SOL     OW51658   8.378   9.092   1.367  0.0043  0.1154  0.0316
13335SOL    HW151659   8.375   9.041   1.454  1.0934  0.1421  0.0913
13335SOL    HW251660   8.381   9.190   1.387 -0.2894  0.1402 -0.0477
13336SOL     OW51661   4.484   7.624   0.825  0.4399 -0.8098 -0.1578
13336SOL    HW151662   4.385   7.618   0.832  0.4995  0.4114  2.1047
13336SOL    HW251663   4.526   7.541   0.861  0.2928 -0.4457  0.8639
13337SOL     OW51664   2.259   0.030   0.601  0.1048 -0.8974  0.2490
13337SOL    HW151665   2.206  -0.055   0.600 -1.5028  0.0654  1.5505
13337SOL    HW251666   2.294   0.046   0.693  1.2685 -0.6657 -0.2290
13338SOL     OW51667   9.315   3.757   8.150  0.0324 -0.2296  0.2786
13338SOL    HW151668   9.296   3.788   8.243  0.0356 -0.3068  0.3055
13338SOL    HW251669   9.398   3.801   8.116 -0.1558  0.0549  0.1886
13339SOL     OW51670   5.602   8.038   4.110 -0.2560  0.3380 -0.4733
13339SOL    HW151671   5.658   8.119   4.090  2.6551 -1.8702 -1.6918
13339SOL    HW251672   5.563   8.002   4.026  0.9395 -1.2170 -0.3936
13340SOL     OW51673   7.774   3.175   0.961 -0.3220 -0.0977  0.5981
13340SOL    HW151674   7.784   3.247   0.893 -0.9615 -1.1333 -0.6285
13340SOL    HW251675   7.692   3.192   1.016  0.0776  0.6310  0.9627
13341SOL     OW51676   9.922   3.152   3.622 -0.3245 -0.3782  0.4903
13341SOL    HW151677   9.867   3.124   3.701 -0.7249  0.6401  0.5741
13341SOL    HW251678   9.887   3.237   3.585  0.0032 -0.7329 -0.6632
13342SOL     OW51679   7.112   6.005   5.722 -0.2560  0.1821 -0.3543
13342SOL    HW151680   7.047   5.978   5.651 -0.4673 -0.0290 -0.0778
13342SOL    HW251681   7.072   5.990   5.812  0.7883 -1.4772 -0.1459
13343SOL     OW51682   0.429   1.175   2.287 -0.0269 -0.6034 -0.2180
13343SOL    HW151683   0.437   1.150   2.384 -1.7267 -1.8815 -0.3761
13343SOL    HW251684   0.354   1.239   2.275  2.4987  2.4578 -0.2325
13344SOL     OW51685   3.421   7.852   0.500  0.4157  0.3519 -0.3971
13344SOL    HW151686   3.496   7.807   0.549 -0.7829 -1.0459  0.1768
13344SOL    HW251687   3.396   7.797   0.420 -0.2895  0.6098 -0.3563
13345SOL     OW51688   9.989   2.593   4.378  0.4123  0.0575 -0.0841
13345SOL    HW151689  10.004   2.691   4.394 -1.9397  0.7339 -1.7771
13345SOL    HW251690   9.994   2.545   4.465 -1.4164  2.1459  1.2558
13346SOL     OW51691   2.740   9.330   3.327  0.1891 -0.3097 -0.1138
13346SOL    HW151692   2.657   9.283   3.297 -1.2939  2.0406  0.2628
13346SOL    HW251693   2.782   9.377   3.250 -0.5304  1.0679  0.3321
13347SOL     OW51694   8.885   5.355   7.968 -0.4574  0.0141 -0.1893
13347SOL    HW151695   8.829   5.300   8.030 -1.2011  0.0131 -0.8499
13347SOL    HW251696   8.966   5.304   7.941 -0.0952  0.0424  0.8375
13348SOL     OW51697   3.806   9.349   3.686 -0.6577  0.6402  0.2940
13348SOL    HW151698   3.720   9.304   3.709 -0.1759 -0.2764  0.2869
13348SOL    HW251699   3.793   9.403   3.602 -1.1048  0.1680  0.0582
13349SOL     OW51700   3.206   8.420   4.724 -0.1734 -0.0405  0.0642
13349SOL    HW151701   3.210   8.451   4.819 -1.5726 -0.6407  0.3367
13349SOL    HW251702   3.113   8.434   4.688 -0.0147 -1.0495 -0.7790
13350SOL     OW51703   7.795   3.415   5.346 -0.2735 -0.4576 -0.2883
13350SOL    HW151704   7.706   3.427   5.302 -0.2295 -0.3538 -0.3494
13350SOL    HW251705   7.850   3.349   5.294  0.5841  1.2504 -1.5891
13351SOL     OW51706   1.530   1.467   7.817  0.7478  0.4688 -0.1692
13351SOL    HW151707   1.557   1.491   7.724  1.0662  0.1592 -0.1590
13351SOL    HW251708   1.457   1.399   7.814  0.4282  0.8116 -0.1943
13352SOL     OW51709   4.246   1.266   2.602  0.1242  0.0307 -0.1241
13352SOL    HW151710   4.224   1.314   2.687  2.1404 -2.6676  2.0408
13352SOL    HW251711   4.305   1.323   2.546  0.0455  1.2586  1.0085
13353SOL     OW51712   3.357   2.274   3.518 -0.0624 -0.0988 -0.0227
13353SOL    HW151713   3.365   2.244   3.613  0.0979 -1.3700 -0.4363
13353SOL    HW251714   3.269   2.319   3.504 -0.7203 -1.2684  0.3590
13354SOL     OW51715   7.329   1.806   2.304 -0.4494 -0.3143  0.0688
13354SOL    HW151716   7.273   1.884   2.335  0.2940  0.5141 -0.6397
13354SOL    HW251717   7.272   1.724   2.300 -1.8637  0.7046 -1.5207
13355SOL     OW51718   6.827   7.368   3.608 -0.3174  0.4191 -0.5359
13355SOL    HW151719   6.872   7.438   3.663 -1.0409  0.7075 -0.3070
13355SOL    HW251720   6.835   7.279   3.653 -1.1531  0.7048  0.1775
13356SOL     OW51721   5.955   1.858   4.900  0.0245  0.7173 -0.3093
13356SOL    HW151722   6.009   1.860   4.816  0.0708  0.4102 -0.2890
13356SOL    HW251723   6.010   1.891   4.976  0.9447 -1.7404  0.1304
13357SOL     OW51724   7.571   7.000   3.799  0.1150 -0.5000  0.1206
13357SOL    HW151725   7.560   6.910   3.756  0.3814 -0.7181  0.5083
13357SOL    HW251726   7.537   6.997   3.893 -4.4265  1.0863 -1.3364
13358SOL     OW51727   3.599   9.382   5.890 -0.6426  0.0734  0.4439
13358SOL    HW151728   3.532   9.347   5.955 -2.3981  1.0718 -0.7617
13358SOL    HW251729   3.556   9.453   5.834  1.5772  1.0703 -0.0472
13359SOL     OW51730   3.229   8.009   3.893 -0.7432 -0.2408 -0.1488
13359SOL    HW151731   3.228   8.051   3.802 -0.0560 -0.4125 -0.2378
13359SOL    HW251732   3.205   7.913   3.885 -0.2680 -0.3598 -0.2121
13360SOL     OW51733   8.027   5.875   1.343  0.6092 -0.8730 -0.0572
13360SOL    HW151734   8.109   5.845   1.393  2.1550  0.0368 -1.9982
13360SOL    HW251735   7.957   5.804   1.348  0.4279 -0.5543  3.9784
13361SOL     OW51736   4.851   6.508   3.250  0.4182  0.1254 -0.1146
13361SOL    HW151737   4.946   6.496   3.281  0.3868 -0.3466 -0.1900
13361SOL    HW251738   4.842   6.596   3.203  0.4843  0.8180  1.1525
13362SOL     OW51739   0.450   6.506   4.952  0.3370  0.2612 -0.1603
13362SOL    HW151740   0.376   6.439   4.945 -0.1136  0.6691  0.6742
13362SOL    HW251741   0.415   6.597   4.931  0.0335  0.8084  2.6036
13363SOL     OW51742   1.768   1.109   7.957  0.3205  0.3307 -0.4615
13363SOL    HW151743   1.731   1.151   8.040  1.7756 -1.1430  0.9893
13363SOL    HW251744   1.850   1.159   7.928 -0.3517  1.0181 -1.1833
13364SOL     OW51745   1.029   6.522   1.099  0.1085 -0.8588  0.2281
13364SOL    HW151746   0.941   6.506   1.143 -1.2619  0.2647 -1.9747
13364SOL    HW251747   1.058   6.439   1.051 -0.5729 -0.7461 -0.3936
13365SOL     OW51748   9.414   8.616   5.802 -0.1214  0.3802  0.1824
13365SOL    HW151749   9.450   8.602   5.894  0.8831 -3.1167 -0.6628
13365SOL    HW251750   9.485   8.654   5.743  0.3068 -0.6206  0.0418
13366SOL     OW51751   9.201   3.041   0.476 -0.2881  0.1146 -0.8780
13366SOL    HW151752   9.250   2.993   0.548  1.1569  1.4047 -0.9627
13366SOL    HW251753   9.105   3.014   0.476 -0.3173  0.1808  1.5738
13367SOL     OW51754   8.949   7.614   3.283 -0.5256  0.6683  0.3893
13367SOL    HW151755   8.951   7.606   3.184 -0.9745 -0.5623  0.4771
13367SOL    HW251756   9.043   7.627   3.317 -0.3897  1.2502 -0.1995
13368SOL     OW51757   3.162   5.701   3.788 -0.3400 -0.3097  0.0386
13368SOL    HW151758   3.092   5.714   3.717 -0.4476 -1.0371  0.0044
13368SOL    HW251759   3.128   5.736   3.875  0.0621  1.2129 -0.4143
13369SOL     OW51760   4.865   8.486   1.407 -0.1914  0.7465 -0.0201
13369SOL    HW151761   4.781   8.432   1.406 -0.1852  0.7346  0.1000
13369SOL    HW251762   4.929   8.450   1.339  0.1368  0.0972  0.6384
13370SOL     OW51763   7.792   0.284   0.827  0.4973 -0.3196 -0.0821
13370SOL    HW151764   7.843   0.307   0.910  0.4905  1.7012 -0.6112
13370SOL    HW251765   7.696   0.269   0.851  0.7834 -1.2504  0.4939
13371SOL     OW51766   3.091   6.927   4.215  0.2507  0.3329  0.0201
13371SOL    HW151767   3.163   6.887   4.158  1.1106  1.7103  0.0929
13371SOL    HW251768   3.055   6.858   4.278 -2.1343 -1.7451 -3.5039
13372SOL     OW51769   5.846   4.017   1.562  0.2940  0.4567  0.0701
13372SOL    HW151770   5.876   4.100   1.608  2.1149  0.7249 -1.5251
13372SOL    HW251771   5.849   4.031   1.463 -0.0936 -1.2580 -0.2016
13373SOL     OW51772   7.893   0.913   5.907  0.3235  0.0290  0.7100
13373SOL    HW151773   7.853   0.915   5.999 -1.3606  1.2120 -0.0410
13373SOL    HW251774   7.903   0.818   5.877  0.7921 -0.3570  2.0628
13374SOL     OW51775   1.206   2.402   2.640 -0.3365 -0.1603  0.7907
13374SOL    HW151776   1.194   2.424   2.736  1.2654 -0.0922  0.9921
13374SOL    HW251777   1.194   2.303   2.627 -1.5871 -0.0282  0.8736
13375SOL     OW51778   1.346   9.525   6.541 -0.0428 -0.1392 -0.3318
13375SOL    HW151779   1.331   9.592   6.469  0.2823  0.1383 -0.1464
13375SOL    HW251780   1.434   9.544   6.586  0.3235 -1.0352 -0.6567
13376SOL     OW51781   3.213   4.542   7.583  0.4198 -1.2744 -0.3701
13376SOL    HW151782   3.286   4.588   7.532 -0.0196  0.9288  0.8955
13376SOL    HW251783   3.245   4.522   7.676 -0.8244  0.5699  0.5045
13377SOL     OW51784   9.857   3.102   7.087  0.0546  0.2857  0.0732
13377SOL    HW151785   9.796   3.070   7.015 -0.3880 -0.9246  0.9626
13377SOL    HW251786   9.856   3.202   7.089 -0.0810  0.3269 -1.4483
13378SOL     OW51787   6.956   4.471   1.343  0.0295  0.3359 -0.1558
13378SOL    HW151788   6.969   4.535   1.268 -0.8874 -0.0869 -0.6921
13378SOL    HW251789   6.859   4.473   1.371 -0.0268 -0.9133 -0.2700
13379SOL     OW51790   9.949   5.135   4.837 -0.1714  0.1014  0.2822
13379SOL    HW151791   9.949   5.142   4.937  1.2900 -0.7267  0.3571
13379SOL    HW251792   9.857   5.114   4.805 -1.0901  2.4082  1.2887
13380SOL     OW51793   6.522   0.459   3.446  0.5409 -0.1366  0.2347
13380SOL    HW151794   6.608   0.499   3.477 -0.6977  2.6604  0.2093
13380SOL    HW251795   6.451   0.479   3.513  0.0727 -3.2610  0.7328
13381SOL     OW51796   2.015   5.639   1.904 -0.3045 -0.4646 -0.0435
13381SOL    HW151797   1.955   5.655   1.982  1.1111  2.2900  0.5483
13381SOL    HW251798   2.110   5.657   1.931  0.3790 -1.1512 -1.9375
13382SOL     OW51799   1.014   3.371   7.770 -0.1885 -0.2989  0.1774
13382SOL    HW151800   1.078   3.438   7.809  0.4419 -0.7740 -0.0288
13382SOL    HW251801   1.063   3.286   7.751 -0.3888  0.0206 -1.9188
13383SOL     OW51802   7.910   9.757   6.068 -0.3252 -0.1089 -0.2430
13383SOL    HW151803   7.874   9.805   5.988  0.2295  2.0889  0.7808
13383SOL    HW251804   7.835   9.729   6.127 -0.5427  2.0032  0.5237
13384SOL     OW51805   1.269   1.783   1.246 -0.6528 -0.2672 -0.6656
13384SOL    HW151806   1.260   1.824   1.155  2.8503  0.1485 -0.9175
13384SOL    HW251807   1.341   1.713   1.244 -0.0191  0.2450  1.9334
13385SOL     OW51808   3.131   3.959   4.839  0.0320  0.3813  0.0886
13385SOL    HW151809   3.182   4.010   4.769 -0.2669  0.1953 -0.2683
13385SOL    HW251810   3.194   3.904   4.893  0.2611  0.4890 -0.0687
13386SOL     OW51811   9.253   9.458   7.640 -0.2511 -0.0465 -0.3185
13386SOL    HW151812   9.273   9.374   7.692 -0.3910  0.4330  0.5186
13386SOL    HW251813   9.335   9.515   7.638  0.4614 -1.1085 -2.6274
13387SOL     OW51814   7.496   0.969   5.744  0.5148 -0.5803  0.3470
13387SOL    HW151815   7.578   1.026   5.735  0.6388 -0.3246  2.8591
13387SOL    HW251816   7.523   0.873   5.749  0.5762 -0.5772  0.0977
13388SOL     OW51817   0.040   4.884   1.390 -0.4640  0.0856 -0.9572
13388SOL    HW151818   0.126   4.896   1.440  0.5540 -0.0017 -2.6288
13388SOL    HW251819  -0.023   4.958   1.415 -0.1620 -0.2221  0.7787
13389SOL     OW51820   3.163   2.346   6.609  0.1912 -0.3236 -0.0663
13389SOL    HW151821   3.148   2.317   6.703 -0.4094 -1.1867 -0.4266
13389SOL    HW251822   3.240   2.296   6.570  0.1107 -0.3431 -0.2014
13390SOL     OW51823   8.496   1.701   8.077  0.2290 -0.1335 -0.3286
13390SOL    HW151824   8.411   1.670   8.119  0.9217 -0.7033  0.6803
13390SOL    HW251825   8.571   1.638   8.102  0.9832  0.4666 -1.0402
13391SOL     OW51826   0.567   8.193   1.950 -0.2001  0.2354 -0.2683
13391SOL    HW151827   0.478   8.228   1.923 -1.0443 -0.1442  1.9157
13391SOL    HW251828   0.608   8.144   1.873 -2.3021 -0.4405 -0.9996
13392SOL     OW51829   4.535   1.319   1.175 -0.6296 -0.8569  1.0123
13392SOL    HW151830   4.592   1.330   1.257  1.4496 -2.1786 -0.2068
13392SOL    HW251831   4.530   1.405   1.125  0.6867 -0.8320  0.9064
13393SOL     OW51832   8.477   7.558   5.640  0.0869 -0.1506  0.2510
13393SOL    HW151833   8.443   7.543   5.733 -0.7200  2.3753  0.4046
13393SOL    HW251834   8.577   7.566   5.642 -0.0619  1.5864  1.1603
13394SOL     OW51835   2.014   8.837   1.320 -0.6457  0.6260 -0.1201
13394SOL    HW151836   2.054   8.907   1.261 -0.0939  0.1202 -0.3549
13394SOL    HW251837   1.970   8.767   1.264  2.1194 -1.2172 -0.0684
13395SOL     OW51838   3.538   5.812   6.432  0.0996 -0.5224 -0.8991
13395SOL    HW151839   3.535   5.801   6.531 -0.2392  0.0732 -0.8344
13395SOL    HW251840   3.461   5.763   6.391  0.3379 -0.9102 -0.8821
13396SOL     OW51841   5.731   1.052   3.131  0.1564  0.2146  0.7088
13396SOL    HW151842   5.682   0.975   3.172 -0.2008 -0.0270 -0.1535
13396SOL    HW251843   5.821   1.062   3.175 -1.2881  1.7044  3.4501
13397SOL     OW51844   2.055   0.841   4.418  0.4321 -0.0750  0.7227
13397SOL    HW151845   2.081   0.852   4.514  0.8088 -0.6231  0.6869
13397SOL    HW251846   2.125   0.882   4.360  0.0896  0.4630  0.6859
13398SOL     OW51847   1.178   4.169   7.744 -0.5116  0.2577  0.3339
13398SOL    HW151848   1.083   4.181   7.774 -1.4029 -1.3238 -1.6919
13398SOL    HW251849   1.198   4.071   7.736  0.9066  0.5950 -0.4188
13399SOL     OW51850   1.580   1.936   3.154 -0.8307  0.1603  0.4619
13399SOL    HW151851   1.498   1.992   3.142 -1.5543 -0.9495  0.2031
13399SOL    HW251852   1.597   1.924   3.252 -1.2684 -0.0193  0.5198
13400SOL     OW51853   6.111   9.273   4.573  0.1775  0.2865 -0.5740
13400SOL    HW151854   6.036   9.260   4.638  1.3883 -1.3275  0.5437
13400SOL    HW251855   6.087   9.346   4.508 -1.3997  1.3518  1.1493
13401SOL     OW51856   1.013   6.588   5.307  0.1308  0.2655 -0.0917
13401SOL    HW151857   1.076   6.581   5.384 -0.6725  0.3169  0.5798
13401SOL    HW251858   1.062   6.573   5.222  1.2271  1.2091  0.3616
13402SOL     OW51859   1.305   2.499   5.457 -0.0480  0.3568  0.1307
13402SOL    HW151860   1.381   2.452   5.411  0.2834 -0.9207  1.9483
13402SOL    HW251861   1.238   2.432   5.489 -1.2508  1.3747 -0.1975
13403SOL     OW51862   1.513   5.455   1.148  0.0562  0.2249 -0.1524
13403SOL    HW151863   1.576   5.403   1.206 -1.3022 -0.4453  0.7823
13403SOL    HW251864   1.564   5.509   1.081  1.5633 -1.1158 -0.1120
13404SOL     OW51865   4.775   9.224   6.237  0.6549 -0.1434 -0.5142
13404SOL    HW151866   4.796   9.145   6.295 -0.0473  0.9781  1.2907
13404SOL    HW251867   4.741   9.192   6.149 -2.3942 -1.8725  1.1992
13405SOL     OW51868   4.934   0.105   6.429  0.1113 -0.1566 -0.0365
13405SOL    HW151869   4.859   0.131   6.489 -0.4808 -1.0472 -0.3868
13405SOL    HW251870   4.933   0.163   6.347  0.6065  0.7070  0.5613
13406SOL     OW51871   1.608   7.682   7.751 -0.1466 -0.1710 -0.3385
13406SOL    HW151872   1.619   7.608   7.684  0.4843 -1.0842  0.7681
13406SOL    HW251873   1.600   7.769   7.703 -1.1366 -0.9737 -1.6729
13407SOL     OW51874   5.469   2.435   8.190 -0.9212  0.3661  0.0289
13407SOL    HW151875   5.559   2.476   8.204 -0.2340 -1.1435  0.1716
13407SOL    HW251876   5.419   2.434   8.276 -1.0819  1.2104 -0.0505
13408SOL     OW51877   1.045   0.683   2.202  0.2118  0.2344  0.3553
13408SOL    HW151878   0.975   0.748   2.233 -0.2680 -0.7130  1.3108
13408SOL    HW251879   1.135   0.726   2.208 -0.1042  0.8324  0.9427
13409SOL     OW51880   5.264   8.267   4.137  0.4569 -0.1411  0.6036
13409SOL    HW151881   5.274   8.183   4.189  0.7814 -0.2991  0.2852
13409SOL    HW251882   5.344   8.325   4.151  0.4723 -0.1152  0.4066
13410SOL     OW51883   7.436   7.813   5.525  0.7253 -0.4473  0.1036
13410SOL    HW151884   7.450   7.903   5.567 -1.3515 -0.0298 -0.0508
13410SOL    HW251885   7.450   7.742   5.594 -2.4246  0.2293  1.5006
13411SOL     OW51886   8.922   2.964   5.516 -0.0341 -0.2635  0.0469
13411SOL    HW151887   8.927   3.064   5.511  0.8838 -0.3424 -0.7053
13411SOL    HW251888   8.879   2.937   5.602 -0.7648  0.7889  0.0219
13412SOL     OW51889   3.468   1.139   3.794  0.6530 -0.0600 -0.2172
13412SOL    HW151890   3.480   1.237   3.776  2.6112 -0.1706  0.3077
13412SOL    HW251891   3.438   1.093   3.711 -4.1707  1.5448  0.4682
13413SOL     OW51892   4.959   7.942   1.965 -0.1200  0.4246 -0.1011
13413SOL    HW151893   5.032   7.922   2.030  0.4055  2.6263 -0.0069
13413SOL    HW251894   4.871   7.945   2.014 -0.1978 -1.3956 -0.0874
13414SOL     OW51895   3.852   2.028   5.264  0.6888  0.1047 -0.4623
13414SOL    HW151896   3.752   2.017   5.270  0.7540 -0.0025  0.6133
13414SOL    HW251897   3.884   2.082   5.342  1.4785  0.1494 -0.8110
13415SOL     OW51898   3.420   5.164   6.687 -0.3387  0.5392  0.1284
13415SOL    HW151899   3.341   5.196   6.634 -0.8245  1.2784  1.2617
13415SOL    HW251900   3.480   5.242   6.706 -0.0931  0.2491  0.5292
13416SOL     OW51901   2.807   1.500   7.512  0.1813  0.0012  0.2990
13416SOL    HW151902   2.763   1.559   7.580 -1.6765 -0.6524 -0.3115
13416SOL    HW251903   2.793   1.538   7.421  0.5057 -0.4545  0.0607
13417SOL     OW51904   9.302   2.027   5.024 -0.4360  0.3478 -0.1671
13417SOL    HW151905   9.304   2.116   5.068 -0.5503  0.5108 -0.4903
13417SOL    HW251906   9.242   1.965   5.075 -1.7004  0.9536 -0.8873
13418SOL     OW51907   6.120   8.882   3.761 -0.2665  0.2234  0.3883
13418SOL    HW151908   6.075   8.810   3.707 -1.3244  1.2787 -0.1716
13418SOL    HW251909   6.212   8.897   3.725 -0.3594 -0.2450 -0.0617
13419SOL     OW51910   9.480   2.788   3.799 -0.4875 -0.2906 -0.0451
13419SOL    HW151911   9.392   2.764   3.760 -0.3958  1.1768 -1.1774
13419SOL    HW251912   9.548   2.799   3.726  0.4389 -0.5994  0.7495
13420SOL     OW51913   0.585   9.333   1.553  0.0334 -0.4768  0.7364
13420SOL    HW151914   0.654   9.381   1.607 -1.1616  4.3143 -1.7349
13420SOL    HW251915   0.499   9.332   1.603  0.2120 -0.5754  1.0442
13421SOL     OW51916   0.056   5.541   1.526 -0.3392  0.3337  0.3687
13421SOL    HW151917   0.141   5.573   1.568 -0.2354 -0.4349  0.7728
13421SOL    HW251918   0.004   5.488   1.594 -0.7653  0.1395 -0.1100
13422SOL     OW51919   2.199   6.465   4.577  0.0527 -0.7343  0.2274
13422SOL    HW151920   2.137   6.396   4.615  0.5735 -1.6594 -0.5892
13422SOL    HW251921   2.150   6.520   4.510 -0.5860  0.2350  1.4550
13423SOL     OW51922   4.283   9.225   4.748  0.1454  0.1792  0.1957
13423SOL    HW151923   4.224   9.231   4.828 -1.1839  1.3746 -0.8489
13423SOL    HW251924   4.242   9.275   4.672  2.4787  1.0295 -0.5716
13424SOL     OW51925   0.722   2.150   2.164 -0.1402 -0.3941 -0.3022
13424SOL    HW151926   0.775   2.116   2.242  0.0948 -2.1945 -1.2133
13424SOL    HW251927   0.777   2.141   2.080 -1.0247 -0.0746 -0.9242
13425SOL     OW51928   1.627   0.047   3.664  0.1047 -0.3919 -0.4096
13425SOL    HW151929   1.562  -0.001   3.723 -0.6342 -0.0229 -0.9262
13425SOL    HW251930   1.711   0.067   3.716 -1.4404  2.0350  1.2324
13426SOL     OW51931   1.031   8.312   6.032  0.4308 -0.4098  0.2611
13426SOL    HW151932   1.123   8.274   6.043  0.5786 -0.0460  0.2905
13426SOL    HW251933   1.001   8.299   5.937  0.3316 -0.9288  0.3625
13427SOL     OW51934   0.897   5.639   3.116 -0.0749  0.2165  0.2450
13427SOL    HW151935   0.839   5.641   3.197  0.3660 -0.0741  0.5684
13427SOL    HW251936   0.842   5.610   3.037 -0.1068 -1.1904  0.7684
13428SOL     OW51937   4.970   5.456   8.059  0.0357 -0.9144  0.1711
13428SOL    HW151938   4.886   5.506   8.077 -0.3565 -1.6881  0.5051
13428SOL    HW251939   5.044   5.521   8.041 -0.8796 -0.2467 -1.3214
13429SOL     OW51940   9.806   8.648   3.545  0.7211 -0.8181  0.0552
13429SOL    HW151941   9.751   8.591   3.605 -0.5328  0.8994  0.5736
13429SOL    HW251942   9.782   8.629   3.450  1.0678 -1.8844  0.1718
13430SOL     OW51943   3.689   8.619   5.809 -0.0750  0.2255  0.1012
13430SOL    HW151944   3.774   8.621   5.862  0.7936 -1.0394 -1.2168
13430SOL    HW251945   3.611   8.605   5.871  0.7714  0.3604  1.2026
13431SOL     OW51946   3.272   7.505   2.622  0.0452 -0.3144 -0.2242
13431SOL    HW151947   3.304   7.548   2.706 -0.1532 -1.0433  0.2264
13431SOL    HW251948   3.209   7.567   2.574  2.5550  1.3766 -1.4277
13432SOL     OW51949   3.470   4.814   3.364  0.4980  0.3932  0.0831
13432SOL    HW151950   3.523   4.889   3.322  2.1926 -0.8183 -0.0118
13432SOL    HW251951   3.478   4.732   3.307  1.5766 -0.8469  1.9620
13433SOL     OW51952   2.742   4.909   1.400 -0.1146 -0.5595  0.6465
13433SOL    HW151953   2.690   4.947   1.324  1.2715 -0.9154 -0.5108
13433SOL    HW251954   2.689   4.836   1.443 -1.7423  0.9851  1.3086
13434SOL     OW51955   8.535   2.593   4.505  0.1588 -0.2751 -0.1445
13434SOL    HW151956   8.554   2.611   4.602 -0.1453  0.5089 -0.2209
13434SOL    HW251957   8.475   2.514   4.497  2.0738 -1.8045  0.1783
13435SOL     OW51958   9.536   5.559   5.836  0.2524 -0.3458 -0.1541
13435SOL    HW151959   9.470   5.628   5.866  1.8322  1.0255  0.2796
13435SOL    HW251960   9.566   5.581   5.743 -0.3427 -1.2967 -0.5696
13436SOL     OW51961   0.718   2.358   7.719  0.1073 -0.0870 -0.0674
13436SOL    HW151962   0.797   2.333   7.774 -0.1969 -1.1836 -0.1158
13436SOL    HW251963   0.748   2.413   7.641  0.5644  1.2500  1.0433
13437SOL     OW51964   3.383   2.464   7.128  0.2948 -0.1297  0.2689
13437SOL    HW151965   3.419   2.555   7.149  0.0793 -0.2878  1.3982
13437SOL    HW251966   3.458   2.397   7.129  0.0374 -0.4233  2.3931
13438SOL     OW51967   2.326   2.943   0.535  0.6005  0.0053 -0.6023
13438SOL    HW151968   2.391   2.949   0.611 -0.7544 -1.6627  0.7281
13438SOL    HW251969   2.360   2.879   0.466 -0.1408 -1.7869  0.6525
13439SOL     OW51970   9.501   4.527   2.288 -0.8410  0.1491 -0.6319
13439SOL    HW151971   9.494   4.428   2.275 -2.5513  0.2748 -0.8945
13439SOL    HW251972   9.423   4.571   2.243 -0.2432  1.5921 -0.2747
13440SOL     OW51973   0.107   1.780   5.376 -0.2741  0.1324 -0.2655
13440SOL    HW151974   0.094   1.800   5.473 -2.3089 -0.2758 -0.4276
13440SOL    HW251975   0.187   1.721   5.365  1.1816  1.8307  0.9469
13441SOL     OW51976   7.397   4.619   1.327  0.4974 -0.4539  0.2301
13441SOL    HW151977   7.403   4.523   1.302  0.0924 -0.8113  1.4946
13441SOL    HW251978   7.334   4.666   1.264  1.2050 -0.8657 -0.7914
13442SOL     OW51979   0.317   5.854   5.839 -0.1843 -0.2508 -0.1369
13442SOL    HW151980   0.230   5.853   5.889  0.1533 -0.2972  0.4460
13442SOL    HW251981   0.379   5.920   5.880 -0.3887  0.6896 -1.3227
13443SOL     OW51982   6.346   9.410   5.831 -0.2867 -0.2232  0.0460
13443SOL    HW151983   6.427   9.372   5.875 -0.3789  0.6901  1.0303
13443SOL    HW251984   6.373   9.456   5.746  0.0561 -0.9633 -0.2478
13444SOL     OW51985   2.613   2.287   6.555  0.1401  0.1720  0.0923
13444SOL    HW151986   2.665   2.297   6.470  0.4402 -1.1116  0.1159
13444SOL    HW251987   2.516   2.278   6.534  0.3776 -1.7125 -0.2123
13445SOL     OW51988   0.959   3.924   7.313  0.3746 -0.3340 -0.4658
13445SOL    HW151989   1.040   3.982   7.311  1.2533 -1.4694  1.2051
13445SOL    HW251990   0.879   3.980   7.337  1.4138  0.0374  2.3962
13446SOL     OW51991   9.685   5.376   1.931 -0.2237  0.2006 -0.4009
13446SOL    HW151992   9.609   5.337   1.879  1.1417 -0.3653 -2.0003
13446SOL    HW251993   9.665   5.369   2.029 -1.7326 -0.9348 -0.7717
13447SOL     OW51994   1.349   5.346   0.310 -0.0143 -0.1497 -0.5993
13447SOL    HW151995   1.376   5.434   0.351 -0.5602 -1.0955  1.8635
13447SOL    HW251996   1.427   5.307   0.261  0.7204  0.9079 -0.2944
13448SOL     OW51997   0.331   6.162   0.604  0.2879 -0.2661  0.2660
13448SOL    HW151998   0.241   6.175   0.646  1.2566 -0.0481  2.3470
13448SOL    HW251999   0.340   6.067   0.573 -0.9811 -0.0575 -0.7771
13449SOL     OW52000   6.194   0.274   5.955 -0.1517  0.5540  0.1118
13449SOL    HW152001   6.122   0.330   5.913  0.5642 -0.1449 -2.1012
13449SOL    HW252002   6.269   0.332   5.985  0.0684  0.9137 -1.1177
13450SOL     OW52003   8.574   7.295   6.548 -0.6025 -0.2681 -0.3196
13450SOL    HW152004   8.490   7.346   6.567 -1.2000 -1.4130  0.1454
13450SOL    HW252005   8.648   7.359   6.528 -1.9777  0.7068 -2.3759
13451SOL     OW52006   9.363   2.026   4.745 -0.3944  0.1436  0.7287
13451SOL    HW152007   9.350   2.016   4.844  1.5877  0.0326  0.9947
13451SOL    HW252008   9.375   1.936   4.704 -3.6537 -0.0215 -0.0153
13452SOL     OW52009   4.904   7.344   4.670  0.6400 -0.4681  0.0477
13452SOL    HW152010   4.938   7.397   4.593  0.4091  1.6846  1.3894
13452SOL    HW252011   4.960   7.262   4.682  1.4543 -0.1616 -1.5937
13453SOL     OW52012   6.488   3.702   0.094  0.4589 -0.5210 -0.1214
13453SOL    HW152013   6.392   3.686   0.072  0.8640 -1.5107 -1.2470
13453SOL    HW252014   6.515   3.792   0.061  0.2062 -0.6923 -0.8003
13454SOL     OW52015   0.512   4.004   4.417  0.1997 -0.2220  0.3593
13454SOL    HW152016   0.595   4.032   4.464  1.0122  0.2646 -1.3292
13454SOL    HW252017   0.494   3.908   4.434  0.8997 -0.2284  1.0423
13455SOL     OW52018   8.309   3.005   1.319  0.0946  0.6288 -0.3161
13455SOL    HW152019   8.210   3.012   1.330  0.2195 -0.3854  1.7148
13455SOL    HW252020   8.355   3.040   1.400  1.4428  1.7427 -1.5297
13456SOL     OW52021   6.594   6.089   0.247  0.5432 -0.8449 -0.3894
13456SOL    HW152022   6.685   6.048   0.248  0.3771 -1.2399 -1.2596
13456SOL    HW252023   6.549   6.073   0.335  1.3208 -0.6259  0.0496
13457SOL     OW52024   8.274   0.445   2.399 -0.4069 -0.2939 -0.2076
13457SOL    HW152025   8.340   0.518   2.417  1.1566 -1.8844  0.6781
13457SOL    HW252026   8.188   0.485   2.366  0.5636  1.8947 -0.1779
13458SOL     OW52027   7.515   1.114   1.434 -0.0938  0.7425 -0.2899
13458SOL    HW152028   7.522   1.039   1.367 -1.0000  1.5637 -1.3306
13458SOL    HW252029   7.607   1.146   1.457  0.2979 -0.5922  0.0564
13459SOL     OW52030   2.044   7.256   2.026  0.1753 -0.3530 -0.0563
13459SOL    HW152031   2.125   7.235   1.970 -0.4312 -0.7918 -0.7716
13459SOL    HW252032   1.971   7.291   1.967  0.3368  1.4474  0.7961
13460SOL     OW52033   0.612   4.816   2.815  0.2131 -0.3401  0.5265
13460SOL    HW152034   0.678   4.750   2.779  2.1062  1.8285 -0.1751
13460SOL    HW252035   0.568   4.863   2.739  0.6738  0.8798  1.0000
13461SOL     OW52036   1.596   5.848   4.426  0.1701 -0.2914  0.3708
13461SOL    HW152037   1.676   5.893   4.466  0.4538 -2.0286  1.8055
13461SOL    HW252038   1.513   5.895   4.459  0.4880 -0.3155  1.2279
13462SOL     OW52039   8.645   8.688   1.884  0.3020 -0.1278 -0.2401
13462SOL    HW152040   8.622   8.707   1.788  0.1813 -0.1621 -0.2170
13462SOL    HW252041   8.647   8.773   1.936 -0.7784 -0.2351 -0.0149
13463SOL     OW52042   9.764   0.482   2.967  0.1099  0.3536  0.1112
13463SOL    HW152043   9.839   0.477   2.901 -0.4043  1.1588 -0.5452
13463SOL    HW252044   9.718   0.394   2.972  1.1576 -0.1846  0.5987
13464SOL     OW52045   9.194   7.173   7.207 -0.1416  0.1412  0.1182
13464SOL    HW152046   9.119   7.215   7.258 -0.6440  1.9632 -2.0652
13464SOL    HW252047   9.244   7.244   7.157  0.6903 -1.5280 -1.4636
13465SOL     OW52048   8.535   4.583   0.167 -0.1339  0.1414 -0.6334
13465SOL    HW152049   8.588   4.506   0.133  1.2584 -0.1050  1.9864
13465SOL    HW252050   8.455   4.548   0.217  0.0262  0.4082 -0.1914
13466SOL     OW52051   5.938   9.321   6.717 -0.3273  0.2444  0.3721
13466SOL    HW152052   5.933   9.228   6.681 -0.6184  0.3966  0.0161
13466SOL    HW252053   5.880   9.328   6.799 -1.6980  0.5561 -0.5956
13467SOL     OW52054   8.365   4.670   1.579 -0.0212 -0.0933 -0.0902
13467SOL    HW152055   8.453   4.634   1.608  0.0672  0.3587  0.2050
13467SOL    HW252056   8.375   4.766   1.552 -0.4988  0.0877  0.3583
13468SOL     OW52057   0.874   6.868   7.683 -0.0895 -0.2248  0.3288
13468SOL    HW152058   0.807   6.794   7.694 -0.7058  0.1562 -0.7695
13468SOL    HW252059   0.829   6.956   7.704  0.3893 -0.0683  0.7138
13469SOL     OW52060   8.661   2.298   2.232 -0.0146  0.5665 -0.5881
13469SOL    HW152061   8.664   2.354   2.315 -0.3537  1.3786 -1.1164
13469SOL    HW252062   8.744   2.312   2.179 -0.5010  1.2832 -1.1746
13470SOL     OW52063   1.064   9.857   2.739 -0.4818  0.0739 -0.1450
13470SOL    HW152064   1.011   9.918   2.798  0.2635  1.2857 -0.7004
13470SOL    HW252065   1.003   9.792   2.694 -1.0562 -0.8801  1.9759
13471SOL     OW52066   4.021   5.722   0.476 -0.4926 -0.1965  0.4442
13471SOL    HW152067   3.925   5.700   0.492 -0.3986 -0.5735  0.4896
13471SOL    HW252068   4.079   5.663   0.532 -0.2388  0.1784  0.5846
13472SOL     OW52069   3.240   4.510   5.382  0.0321 -0.4693  0.1994
13472SOL    HW152070   3.243   4.581   5.311 -0.4010 -0.0426  0.6118
13472SOL    HW252071   3.200   4.547   5.465  1.1691 -0.7829  0.8934
13473SOL     OW52072   0.071   4.536   6.245  0.3045 -0.0829  0.0006
13473SOL    HW152073   0.136   4.560   6.174 -0.4973 -2.6214 -1.6524
13473SOL    HW252074   0.112   4.472   6.310  0.0228 -0.2649  0.0028
13474SOL     OW52075   8.762   8.975   0.866  0.2040 -0.0925 -0.1978
13474SOL    HW152076   8.683   8.944   0.919 -0.2772  0.8935 -0.3294
13474SOL    HW252077   8.846   8.940   0.908 -0.1875  0.4767  1.0716
13475SOL     OW52078   1.664   4.312   6.460  0.3444  0.6700 -0.3520
13475SOL    HW152079   1.655   4.410   6.443  1.2293  1.0299  1.1866
13475SOL    HW252080   1.760   4.289   6.476  0.3246 -0.6799 -1.9996
13476SOL     OW52081   7.859   0.627   2.817  0.0269 -0.3509  0.7266
13476SOL    HW152082   7.781   0.662   2.766  0.1652  0.0338  0.7766
13476SOL    HW252083   7.922   0.702   2.837 -0.0598 -0.4931  1.5200
13477SOL     OW52084   9.808   5.445   1.692  0.0153  0.1102  0.0806
13477SOL    HW152085   9.723   5.479   1.653 -1.4714 -2.1449  1.2351
13477SOL    HW252086   9.794   5.423   1.789  2.0274  0.0695  0.3898
13478SOL     OW52087   7.489   2.125   0.528 -0.3827 -0.7987 -0.1037
13478SOL    HW152088   7.425   2.138   0.452 -0.3114 -0.9683 -0.1932
13478SOL    HW252089   7.474   2.197   0.596  1.2793  0.8461 -1.4430
13479SOL     OW52090   7.188   0.631   7.948 -0.0144 -0.1437 -0.1712
13479SOL    HW152091   7.101   0.600   7.984  0.5511 -0.5931  0.8243
13479SOL    HW252092   7.180   0.724   7.914 -1.2349 -0.6754 -1.3804
13480SOL     OW52093   0.425   1.722   0.316  0.0788  0.3263 -0.3628
13480SOL    HW152094   0.411   1.727   0.415 -0.8241  1.6464 -0.5419
13480SOL    HW252095   0.389   1.636   0.281 -0.6318  0.3534  0.2950
13481SOL     OW52096   2.026   4.718   6.697  0.2195 -0.4859 -0.2258
13481SOL    HW152097   2.116   4.744   6.733  0.3953 -1.5203  0.1144
13481SOL    HW252098   1.962   4.705   6.773 -1.0918  3.2305 -0.5912
13482SOL     OW52099   0.703   8.370   2.236 -0.3635  0.0782  0.1214
13482SOL    HW152100   0.724   8.404   2.145  0.0114  0.1805  0.2472
13482SOL    HW252101   0.680   8.273   2.232  0.9388 -0.2339  0.1013
13483SOL     OW52102   4.398   1.787   7.258  0.2227  0.3946  0.0115
13483SOL    HW152103   4.424   1.770   7.353  0.7942 -1.6552 -0.4900
13483SOL    HW252104   4.399   1.885   7.240  0.2486  0.7833  2.0808
13484SOL     OW52105   8.853   1.664   6.725 -0.4355  0.2232  0.8065
13484SOL    HW152106   8.878   1.699   6.815  0.6064 -0.7449  0.9178
13484SOL    HW252107   8.799   1.580   6.735  1.4277 -1.0425  0.5521
13485SOL     OW52108   9.438   6.035   7.675  0.7460 -0.0253  0.3592
13485SOL    HW152109   9.374   5.967   7.713  0.7658  0.3246  1.0197
13485SOL    HW252110   9.529   5.995   7.669  0.6611 -0.2114  0.3015
13486SOL     OW52111   5.227   2.704   7.784 -0.1267  0.3593  0.4968
13486SOL    HW152112   5.312   2.664   7.818 -0.5895 -0.7854  0.3341
13486SOL    HW252113   5.150   2.647   7.812 -0.5889 -0.1998 -1.7990
13487SOL     OW52114   2.548   0.658   4.385  0.1973 -0.1645  0.4328
13487SOL    HW152115   2.574   0.753   4.370  1.7098 -0.2812  2.1087
13487SOL    HW252116   2.469   0.635   4.328 -1.3120  2.6135  1.2987
13488SOL     OW52117   4.920   3.891   6.810  0.6377  0.0380 -0.8412
13488SOL    HW152118   4.852   3.885   6.884  0.7204 -2.2072 -0.9045
13488SOL    HW252119   4.886   3.951   6.738 -1.3402 -1.0690 -0.8794
13489SOL     OW52120   3.083   1.525   2.400  0.1573  0.0115 -0.2521
13489SOL    HW152121   3.133   1.610   2.415  1.3482 -0.4549 -1.4361
13489SOL    HW252122   3.002   1.544   2.344 -0.0578  0.5022  0.2223
13490SOL     OW52123   9.758   6.987   3.293  0.5856  0.3184 -0.7889
13490SOL    HW152124   9.843   7.017   3.338 -0.9833  2.6176  0.7754
13490SOL    HW252125   9.740   7.045   3.214  0.7363 -0.5186 -1.4425
13491SOL     OW52126   1.639   0.225   6.512  0.1190 -0.3394  0.0725
13491SOL    HW152127   1.639   0.321   6.539  0.2277 -0.3981  0.2866
13491SOL    HW252128   1.734   0.193   6.504  0.0913 -0.1361 -1.0444
13492SOL     OW52129   3.658   5.916   2.646 -0.1497 -0.1352  0.1349
13492SOL    HW152130   3.695   6.007   2.665 -0.0227  0.0345 -0.8699
13492SOL    HW252131   3.562   5.924   2.620 -0.5600 -0.4493  1.5524
13493SOL     OW52132   4.452   7.274   4.103 -0.0133 -0.6738 -1.0347
13493SOL    HW152133   4.435   7.360   4.055  1.2581  0.0284 -0.2165
13493SOL    HW252134   4.404   7.274   4.190  0.4343 -0.5858 -0.7925
13494SOL     OW52135   2.299   9.806   3.057 -0.4610 -0.2706  0.1946
13494SOL    HW152136   2.219   9.779   3.110 -1.3117  1.1474 -0.3462
13494SOL    HW252137   2.288   9.776   2.962  0.4224 -1.5457  0.4717
13495SOL     OW52138   1.232   0.157   1.691  0.1656 -0.0300  0.5192
13495SOL    HW152139   1.297   0.152   1.767 -0.1619 -0.4654  0.7661
13495SOL    HW252140   1.239   0.074   1.635  0.4534  0.3160  0.0302
13496SOL     OW52141   3.480   0.144   0.453 -0.3015  0.1723  0.4511
13496SOL    HW152142   3.419   0.214   0.419 -0.3752  0.2513  0.7387
13496SOL    HW252143   3.473   0.062   0.397 -1.1403 -0.0384  0.8584
13497SOL     OW52144   9.924   6.034   3.613  0.6378  0.7132  0.3982
13497SOL    HW152145   9.941   6.040   3.711 -0.6725  1.4497  0.5913
13497SOL    HW252146   9.841   6.084   3.590 -0.3954 -1.4361 -0.7368
13498SOL     OW52147   2.315   4.370   7.868 -0.7999  0.2169  0.0961
13498SOL    HW152148   2.310   4.276   7.834 -0.4671 -0.0991  0.8887
13498SOL    HW252149   2.354   4.369   7.960  0.1844  1.2251 -0.2977
13499SOL     OW52150   3.707   7.119   0.507  0.0488  0.2414  0.2633
13499SOL    HW152151   3.680   7.123   0.603  0.1870  1.5087  0.2652
13499SOL    HW252152   3.672   7.036   0.466  0.8463 -0.8136  1.6661
13500SOL     OW52153   6.737   9.542   3.372 -0.0106  0.0550  0.2901
13500SOL    HW152154   6.792   9.542   3.456  2.0789 -0.1857 -1.0463
13500SOL    HW252155   6.714   9.637   3.348 -0.1578  0.1580  0.8183
13501SOL     OW52156   5.454   9.931   1.758 -0.0606 -0.3025 -0.2939
13501SOL    HW152157   5.393   9.923   1.837 -1.9643 -0.6706 -1.7652
13501SOL    HW252158   5.514   9.851   1.754  0.1529 -0.2068  0.8521
13502SOL     OW52159   1.125   3.139   2.488  0.5059  0.0142 -0.2576
13502SOL    HW152160   1.102   3.232   2.517  2.5020  1.3399 -2.6573
13502SOL    HW252161   1.224   3.133   2.471  0.5334 -2.8252  0.7430
13503SOL     OW52162   8.626   2.590   6.521 -0.2280 -0.1652 -0.0136
13503SOL    HW152163   8.595   2.516   6.461  0.5972  0.1645 -0.8642
13503SOL    HW252164   8.693   2.646   6.472 -1.2119  1.4373  0.4625
13504SOL     OW52165   9.433   2.138   7.894  0.1719  0.0745 -0.1379
13504SOL    HW152166   9.476   2.056   7.854  0.0548  0.4467 -1.0352
13504SOL    HW252167   9.371   2.179   7.828 -0.2292  0.5521  0.5289
13505SOL     OW52168   0.628   4.338   1.160  0.0838 -1.3588  0.6284
13505SOL    HW152169   0.594   4.245   1.177  0.2585 -1.4798  0.3127
13505SOL    HW252170   0.724   4.334   1.132  0.4404 -0.9956  1.7514
13506SOL     OW52171   6.933   9.633   3.108  0.7651 -0.3378  0.1625
13506SOL    HW152172   6.888   9.700   3.048  1.6012 -0.5722 -0.7127
13506SOL    HW252173   6.939   9.672   3.200 -1.4447 -0.3858  0.3582
13507SOL     OW52174   7.532   6.939   2.018  0.4624  0.3706  0.2691
13507SOL    HW152175   7.544   6.858   1.959  1.1999 -0.0265  0.9477
13507SOL    HW252176   7.507   7.017   1.962 -0.2944 -0.3402 -0.3974
13508SOL     OW52177   3.752   8.751   1.876 -0.5511 -0.4990 -0.4695
13508SOL    HW152178   3.742   8.824   1.944  1.6507 -0.7386  0.1318
13508SOL    HW252179   3.794   8.671   1.919 -0.6445 -1.2392 -1.7303
13509SOL     OW52180   1.514   5.603   1.501 -0.1582  0.1689 -0.0058
13509SOL    HW152181   1.577   5.575   1.428 -1.0696 -0.0300 -0.7189
13509SOL    HW252182   1.429   5.552   1.493 -0.3556  0.3312  1.0574
13510SOL     OW52183   3.281   3.007   7.689 -0.5229 -0.0762  0.2256
13510SOL    HW152184   3.314   3.000   7.783  1.1708  0.3385 -0.3049
13510SOL    HW252185   3.269   2.915   7.651 -0.6537 -0.2386  0.6540
13511SOL     OW52186   0.279   8.895   3.965  0.2003  0.2648 -0.2385
13511SOL    HW152187   0.185   8.919   3.988  0.4148  1.0600 -0.1724
13511SOL    HW252188   0.282   8.851   3.876  0.1037  2.9763 -1.6307
13512SOL     OW52189   0.673   7.154   3.286 -0.2474  0.0295 -0.6718
13512SOL    HW152190   0.669   7.060   3.250  0.0938 -0.0375 -0.5372
13512SOL    HW252191   0.646   7.218   3.215 -0.5641 -0.1795 -0.7411
13513SOL     OW52192   2.679   4.904   3.803  0.2376 -0.3382  0.1019
13513SOL    HW152193   2.679   4.999   3.832 -0.7443 -0.3422  0.1485
13513SOL    HW252194   2.772   4.876   3.778  0.5371  0.6078  0.1432
13514SOL     OW52195   8.836   4.034   7.268 -0.0949  0.0219 -0.1132
13514SOL    HW152196   8.814   4.033   7.366  1.8040 -0.0376  0.3383
13514SOL    HW252197   8.837   4.128   7.235 -1.0969  0.0206 -0.1835
13515SOL     OW52198   1.377   9.187   2.676 -0.2734 -0.0195  0.3103
13515SOL    HW152199   1.305   9.237   2.724 -0.6857 -0.4041  0.0980
13515SOL    HW252200   1.455   9.248   2.661 -0.4609  0.3337  0.7458
13516SOL     OW52201   3.715   9.351   5.261  0.0815 -0.0229  0.0903
13516SOL    HW152202   3.801   9.301   5.262  0.1449  0.0836  0.0291
13516SOL    HW252203   3.704   9.396   5.172 -0.5735 -0.9555 -0.3052
13517SOL     OW52204   9.042   0.874   0.427  0.1775 -0.0459 -0.1714
13517SOL    HW152205   9.133   0.899   0.458 -0.4873  0.5857  1.3353
13517SOL    HW252206   8.983   0.955   0.431  0.1188  0.1303 -3.3579
13518SOL     OW52207   2.291   7.535   7.829 -0.2927 -0.2991  0.0821
13518SOL    HW152208   2.315   7.477   7.907  1.2714  0.1118 -0.0750
13518SOL    HW252209   2.200   7.510   7.796 -0.3274 -1.5333  1.0543
13519SOL     OW52210   4.782   1.301   6.776  0.4025 -0.0870  0.4942
13519SOL    HW152211   4.806   1.334   6.685  0.5029  0.0208  0.5583
13519SOL    HW252212   4.691   1.260   6.774  0.0175  0.7461  0.5375
13520SOL     OW52213   0.039   7.868   3.985 -0.5259  0.2087  0.4890
13520SOL    HW152214  -0.012   7.784   3.962 -0.5085  0.0656  0.9645
13520SOL    HW252215   0.054   7.921   3.902  0.7048 -0.9470 -0.0397
13521SOL     OW52216   2.186   8.573   4.096  0.3043  0.2559 -0.3136
13521SOL    HW152217   2.098   8.569   4.144  0.4288  0.5412 -0.0590
13521SOL    HW252218   2.207   8.484   4.058  0.4883 -0.1370  0.6821
13522SOL     OW52219   1.047   2.921   6.649 -0.2992  0.4098 -0.5497
13522SOL    HW152220   1.019   2.867   6.728  1.6798 -0.1189 -0.1656
13522SOL    HW252221   1.064   2.860   6.571  1.6237  0.4752 -0.2095
13523SOL     OW52222   8.267   3.106   4.679  0.2974  0.1143  0.3079
13523SOL    HW152223   8.295   3.010   4.671 -1.0117 -0.2490 -0.0846
13523SOL    HW252224   8.340   3.165   4.646  0.0445 -0.8665 -2.0511
13524SOL     OW52225   8.940   1.656   4.155 -0.0900  0.0107 -0.0706
13524SOL    HW152226   9.035   1.634   4.132  0.3563  0.2486  1.4794
13524SOL    HW252227   8.891   1.572   4.176  0.0162 -0.0368 -0.0110
13525SOL     OW52228   9.251   0.427   8.174  0.2626 -0.0011 -0.2558
13525SOL    HW152229   9.275   0.496   8.106 -0.3188  0.6640  0.1992
13525SOL    HW252230   9.334   0.396   8.220  0.6742 -0.5665 -1.3673
13526SOL     OW52231   3.935   8.007   2.409  0.2518  0.4772 -0.3072
13526SOL    HW152232   4.034   8.008   2.398  1.0396 -2.6358  4.6359
13526SOL    HW252233   3.901   8.100   2.423  2.8920  1.3222  0.6629
13527SOL     OW52234   2.351   4.959   1.168 -0.4833  0.2778 -0.2454
13527SOL    HW152235   2.343   4.860   1.155 -0.1125  0.1642  0.3452
13527SOL    HW252236   2.290   5.006   1.105 -0.2917 -0.3123 -0.8715
13528SOL     OW52237   5.127   8.740   4.098 -0.1709  0.5533  0.7206
13528SOL    HW152238   5.071   8.797   4.158  1.3763  2.3586  0.5275
13528SOL    HW252239   5.207   8.707   4.148 -0.7763 -1.0054  0.6699
13529SOL     OW52240   1.467   3.406   2.397  0.5663 -0.1538 -0.5213
13529SOL    HW152241   1.557   3.414   2.353  0.3307  0.5002 -0.8978
13529SOL    HW252242   1.397   3.396   2.326  0.3634 -0.8593 -0.2194
13530SOL     OW52243   8.843   7.975   3.415 -0.4850  0.0488 -0.4873
13530SOL    HW152244   8.780   7.898   3.405 -0.0833 -0.5198  1.1115
13530SOL    HW252245   8.934   7.940   3.441  0.0724  0.9711 -1.1709
13531SOL     OW52246   9.284   4.670   0.559 -0.2839 -0.2289  0.5591
13531SOL    HW152247   9.317   4.752   0.514  1.9287 -0.4447  1.7141
13531SOL    HW252248   9.253   4.604   0.490 -2.7714  1.8204 -0.3370
13532SOL     OW52249   5.252   6.058   2.234 -0.9766  0.3688 -0.4451
13532SOL    HW152250   5.154   6.039   2.225 -0.7121 -0.3021 -2.1289
13532SOL    HW252251   5.301   5.972   2.249 -0.9241  1.0047  3.5153
13533SOL     OW52252   2.830   6.565   1.494  0.3598 -0.1779  0.0932
13533SOL    HW152253   2.862   6.473   1.472 -0.3442 -0.3820 -0.1004
13533SOL    HW252254   2.849   6.585   1.590  0.5188 -0.5258  0.1325
13534SOL     OW52255   7.506   1.207   7.453  0.3599  0.2483  0.5245
13534SOL    HW152256   7.460   1.294   7.470 -0.6579 -0.0349 -0.6853
13534SOL    HW252257   7.604   1.223   7.443 -0.0761  1.6242 -2.0604
13535SOL     OW52258   9.232   3.597   2.402  0.0205  0.1788  0.2118
13535SOL    HW152259   9.232   3.501   2.373 -1.0595  0.2837 -0.1722
13535SOL    HW252260   9.170   3.649   2.343  1.2232  1.2790 -0.1006
13536SOL     OW52261   9.084   3.732   2.239  0.0376  0.1405 -0.0883
13536SOL    HW152262   9.142   3.715   2.159 -0.2888 -1.4815  0.0175
13536SOL    HW252263   8.988   3.734   2.211 -0.0142  0.5281  0.1170
13537SOL     OW52264   3.654   3.414   0.593 -0.4009 -0.2310 -0.1252
13537SOL    HW152265   3.582   3.364   0.641 -0.7860 -0.9381 -1.4074
13537SOL    HW252266   3.626   3.429   0.498  0.5616  0.7037 -0.2691
13538SOL     OW52267   8.206   0.552   3.404  0.3979 -0.0848  0.3160
13538SOL    HW152268   8.189   0.551   3.305  0.2165  1.3901  0.3271
13538SOL    HW252269   8.225   0.645   3.434  0.9018 -0.5938  1.6087
13539SOL     OW52270   0.431   0.119   7.998 -0.2905  0.3335  0.1686
13539SOL    HW152271   0.355   0.056   8.012  0.3422 -0.7281 -0.9660
13539SOL    HW252272   0.467   0.149   8.086 -2.0438  0.8784  0.7057
13540SOL     OW52273   0.082   5.558   7.342  0.4204 -0.2155  0.1116
13540SOL    HW152274   0.032   5.639   7.372  0.8461  0.5453 -1.1628
13540SOL    HW252275   0.166   5.548   7.395 -0.0232 -0.2863  0.8105
13541SOL     OW52276   0.255   4.887   8.113 -0.8013  0.4183 -0.0863
13541SOL    HW152277   0.295   4.839   8.191  0.9516  1.2785 -0.4326
13541SOL    HW252278   0.272   4.985   8.122 -0.8893  0.5600 -1.3796
13542SOL     OW52279   5.818   7.702   4.655 -0.1510  0.2017 -0.6787
13542SOL    HW152280   5.900   7.664   4.699 -0.6748 -0.0417  0.1065
13542SOL    HW252281   5.736   7.669   4.703 -0.7237  0.2476 -1.6058
13543SOL     OW52282   9.086   0.004   6.173 -0.3051  0.2745  0.2070
13543SOL    HW152283   9.152   0.079   6.173 -0.0813  0.0878 -1.6243
13543SOL    HW252284   9.011   0.026   6.111  0.7357 -1.8608 -1.8539
13544SOL     OW52285   6.452   4.186   2.006  0.0981  0.0418  0.2170
13544SOL    HW152286   6.459   4.269   2.062  0.5214  0.8197 -0.9732
13544SOL    HW252287   6.359   4.175   1.973  0.7541  1.8434 -2.3218
13545SOL     OW52288   2.179   6.275   7.696  0.1351 -0.1757 -0.1871
13545SOL    HW152289   2.189   6.180   7.727 -0.6397  0.0309  0.6910
13545SOL    HW252290   2.266   6.305   7.655  0.2690 -1.3794 -0.8225
13546SOL     OW52291   1.741   6.833   1.946 -0.6502 -0.0789 -0.5339
13546SOL    HW152292   1.774   6.915   1.899  1.0040 -0.9576 -0.9376
13546SOL    HW252293   1.683   6.780   1.884  1.0324 -0.9241 -1.4246
13547SOL     OW52294   1.305   0.001   4.313 -0.7232 -0.1096 -0.9143
13547SOL    HW152295   1.351  -0.054   4.242  0.0420 -0.0618 -0.4631
13547SOL    HW252296   1.261  -0.060   4.379 -0.1331 -0.1742 -0.5815
13548SOL     OW52297   9.423   9.405   5.876 -0.3671 -0.3504 -0.3961
13548SOL    HW152298   9.419   9.418   5.777 -1.1276  0.4284 -0.2738
13548SOL    HW252299   9.518   9.409   5.906 -0.1641 -0.2121 -1.0500
13549SOL     OW52300   6.490   8.450   4.880  0.1099 -0.1919  0.1769
13549SOL    HW152301   6.487   8.519   4.952  0.5860 -0.8338  0.8126
13549SOL    HW252302   6.538   8.487   4.801  0.4689  0.1660  0.5589
13550SOL     OW52303   0.988   9.416   3.820  0.2440 -0.1444 -0.1859
13550SOL    HW152304   0.999   9.376   3.911 -1.2710  0.4020  0.2450
13550SOL    HW252305   0.950   9.348   3.758 -0.8461  0.1564  0.1522
13551SOL     OW52306   8.244   3.696   5.923  0.1893 -0.2697 -1.0212
13551SOL    HW152307   8.151   3.669   5.948  0.5698 -0.6781 -0.0321
13551SOL    HW252308   8.282   3.630   5.859  0.2153 -0.7237 -0.5362
13552SOL     OW52309   2.936   7.628   4.551  0.0805 -0.3519 -0.0018
13552SOL    HW152310   2.911   7.552   4.611 -1.7991 -0.5638 -1.0103
13552SOL    HW252311   2.961   7.707   4.606  0.3791 -1.1562  1.0490
13553SOL     OW52312   7.866   2.943   7.941 -0.6758 -0.4900 -0.0351
13553SOL    HW152313   7.797   2.989   7.997  0.9645  3.7938 -1.3194
13553SOL    HW252314   7.953   2.942   7.989  0.1076  0.8453 -1.3941
13554SOL     OW52315   5.982   5.226   7.776  0.1020  0.5621  0.2335
13554SOL    HW152316   6.039   5.305   7.799  1.1512 -0.5260  1.4584
13554SOL    HW252317   5.933   5.196   7.858  2.1723 -2.0180  0.5911
13555SOL     OW52318   7.480   3.922   2.953 -0.0413 -0.2593 -0.8947
13555SOL    HW152319   7.409   3.909   2.884 -0.6790 -2.4253  0.1291
13555SOL    HW252320   7.570   3.912   2.911 -0.4036 -0.6171 -1.5914
13556SOL     OW52321   9.649   9.384   7.606 -0.2328 -0.0574  0.1240
13556SOL    HW152322   9.574   9.445   7.629  0.2939  0.0841  1.5407
13556SOL    HW252323   9.707   9.370   7.687  1.2760 -0.1379 -0.9349
13557SOL     OW52324   4.864   5.018   7.575  0.2511  0.0851 -0.8282
13557SOL    HW152325   4.799   5.045   7.645  1.2483 -1.4393  0.7171
13557SOL    HW252326   4.918   5.097   7.547  1.4359  0.2552  1.8207
13558SOL     OW52327   0.384   3.521   2.427  0.0129  0.9685 -0.3531
13558SOL    HW152328   0.286   3.533   2.440  0.0811  2.0034 -0.7297
13558SOL    HW252329   0.407   3.424   2.432 -0.9890  0.7462 -0.0049
13559SOL     OW52330   9.338   5.052   4.195 -0.5809  0.0063  0.3602
13559SOL    HW152331   9.289   5.036   4.110  1.1789  0.0306 -0.6889
13559SOL    HW252332   9.296   5.129   4.244 -1.2700  0.3376 -0.7404
13560SOL     OW52333   7.650   6.108   6.181 -0.1953  0.9515  0.2359
13560SOL    HW152334   7.745   6.078   6.182 -0.0566  1.3959  0.5093
13560SOL    HW252335   7.633   6.170   6.258 -1.1524 -0.4785  1.1973
13561SOL     OW52336   9.909   1.984   3.479  0.3395  0.1448  0.1049
13561SOL    HW152337   9.998   2.026   3.463  0.5727 -0.7060 -0.9331
13561SOL    HW252338   9.922   1.892   3.516 -0.0301 -0.9254 -2.3272
13562SOL     OW52339   8.993   9.253   1.358 -0.5871  0.4881  0.3416
13562SOL    HW152340   8.971   9.347   1.382 -0.8428  0.4418  0.2830
13562SOL    HW252341   8.917   9.212   1.309 -0.0604  0.5905 -0.5794
13563SOL     OW52342   1.038   5.668   5.455  0.8082 -0.3104  0.5224
13563SOL    HW152343   1.058   5.743   5.518  0.0678  0.3857 -0.0587
13563SOL    HW252344   1.073   5.691   5.364  0.0866 -0.4254  0.2154
13564SOL     OW52345   1.497   3.930   5.489 -0.0215  0.1362 -0.4370
13564SOL    HW152346   1.500   3.991   5.410  0.7847  0.4129 -0.2056
13564SOL    HW252347   1.552   3.970   5.563  1.7521 -1.5669 -0.7968
13565SOL     OW52348   2.660   9.721   1.572 -0.0848  0.3478 -0.3869
13565SOL    HW152349   2.579   9.776   1.550  0.0645  0.4491 -0.6905
13565SOL    HW252350   2.639   9.624   1.562 -0.0331  0.3902 -0.9414
13566SOL     OW52351   8.838   7.937   6.900 -0.1698  0.4835 -0.2833
13566SOL    HW152352   8.789   7.954   6.815  0.4312  1.4836 -0.4404
13566SOL    HW252353   8.936   7.928   6.881 -0.2172 -0.9584  0.0954
13567SOL     OW52354   0.662   8.855   0.337 -0.3852  0.0309  0.4946
13567SOL    HW152355   0.565   8.860   0.315 -0.2278  1.4337  0.0363
13567SOL    HW252356   0.684   8.924   0.406  0.2716 -0.3280  0.6530
13568SOL     OW52357   2.562   3.727   0.902 -0.2765 -0.0776  0.3340
13568SOL    HW152358   2.651   3.694   0.870 -1.0255 -1.2876 -0.5306
13568SOL    HW252359   2.515   3.774   0.827 -0.9989 -0.7540  0.3629
13569SOL     OW52360   0.030   3.298   4.788 -0.0099 -0.5684  0.2091
13569SOL    HW152361   0.032   3.394   4.816 -0.6435 -0.2587 -0.7902
13569SOL    HW252362   0.018   3.240   4.868  0.7750  0.1621  0.8637
13570SOL     OW52363   2.593   7.426   2.287  0.4414  0.0149  0.2679
13570SOL    HW152364   2.628   7.343   2.244  0.8757  0.3855 -0.0963
13570SOL    HW252365   2.504   7.449   2.247  1.4037  1.0565 -1.3503
13571SOL     OW52366   2.766   1.137   7.783 -0.0691  0.0995  0.1807
13571SOL    HW152367   2.758   1.177   7.692  1.2663 -1.0435 -0.4605
13571SOL    HW252368   2.815   1.050   7.777  0.6249  0.3321  2.0888
13572SOL     OW52369   4.289   0.766   3.375 -0.0226  0.8403 -0.3145
13572SOL    HW152370   4.350   0.736   3.301 -0.3110  0.2395 -0.3079
13572SOL    HW252371   4.196   0.771   3.340 -0.3710 -0.7790  0.3838
13573SOL     OW52372   4.131   2.177   1.852  0.4769  0.5179  0.0731
13573SOL    HW152373   4.184   2.177   1.936 -0.2354  1.6754  0.5455
13573SOL    HW252374   4.034   2.194   1.873  0.1575 -0.0087 -0.9010
13574SOL     OW52375   5.401   0.269   6.304  0.4413  0.4724  0.0538
13574SOL    HW152376   5.379   0.206   6.378 -1.0974  0.0510 -0.7197
13574SOL    HW252377   5.492   0.250   6.269  1.0779  0.5137  1.6511
13575SOL     OW52378   3.499   6.242   4.594  0.4657  0.3002  0.3653
13575SOL    HW152379   3.598   6.247   4.583  0.5464  1.0915  1.3785
13575SOL    HW252380   3.475   6.253   4.690 -0.4555 -2.7387  0.5274
13576SOL     OW52381   9.535   8.992   2.362  0.0897  0.4834 -0.4895
13576SOL    HW152382   9.594   8.942   2.299 -2.4729 -0.9508 -1.8341
13576SOL    HW252383   9.529   8.942   2.448 -1.4283 -0.8681 -1.3707
13577SOL     OW52384   2.840   6.925   1.286 -0.8823  0.5333 -0.1296
13577SOL    HW152385   2.913   6.870   1.327 -2.7526 -1.6142  0.3745
13577SOL    HW252386   2.811   6.995   1.351 -1.3817 -0.5832  0.8711
13578SOL     OW52387   0.405   2.565   4.756 -0.6137 -0.0987 -0.1016
13578SOL    HW152388   0.325   2.584   4.700 -0.2499 -0.1303 -0.6361
13578SOL    HW252389   0.390   2.481   4.809 -1.4484  0.6023  0.7909
13579SOL     OW52390   3.454   7.304   1.894  0.1603  0.6549  0.0102
13579SOL    HW152391   3.541   7.343   1.862 -0.8366  0.1824 -3.4996
13579SOL    HW252392   3.378   7.358   1.857 -1.0906 -0.8847  0.3105
13580SOL     OW52393   5.746   8.446   4.254  0.5795  0.5095  0.2089
13580SOL    HW152394   5.744   8.374   4.185 -0.8085 -0.9777  1.7854
13580SOL    HW252395   5.840   8.458   4.287  0.5981 -1.6076  0.9957
13581SOL     OW52396   5.034   4.839   8.058 -0.1857 -0.4269 -0.1023
13581SOL    HW152397   5.058   4.785   7.977 -0.8907  0.4020 -0.8742
13581SOL    HW252398   4.935   4.831   8.074 -0.1292 -0.1688  0.3619
13582SOL     OW52399   1.768   9.804   6.597  0.5001  0.2208  0.3868
13582SOL    HW152400   1.844   9.765   6.546  0.9564 -0.4383  1.5381
13582SOL    HW252401   1.731   9.883   6.548  0.7036 -0.5968 -1.1143
13583SOL     OW52402   9.707   0.301   8.078  0.0834 -0.1452 -0.1873
13583SOL    HW152403   9.707   0.401   8.082  0.1426 -0.1052 -1.0863
13583SOL    HW252404   9.801   0.268   8.080  0.0890 -0.1521 -0.6188
13584SOL     OW52405   2.405   1.455   7.050  0.1070 -0.4766  0.7128
13584SOL    HW152406   2.355   1.406   7.121  0.0137  0.4017  1.2641
13584SOL    HW252407   2.503   1.457   7.073  0.5756 -2.9729 -0.8127
13585SOL     OW52408   0.271   5.137   2.583  0.2036 -0.5222  0.1424
13585SOL    HW152409   0.199   5.126   2.652 -0.9974  0.6361 -0.9001
13585SOL    HW252410   0.233   5.180   2.501  2.4550  1.6707  0.1908
13586SOL     OW52411   8.090   9.927   1.803 -0.3734 -0.2798  0.1294
13586SOL    HW152412   8.125   9.838   1.832  0.5654 -0.4677 -1.5378
13586SOL    HW252413   8.091   9.933   1.703  0.0160  1.7737  0.2307
13587SOL     OW52414   0.062   1.687   6.406 -0.5282  0.5671 -0.4618
13587SOL    HW152415   0.088   1.599   6.367 -1.4153 -0.3437  0.9643
13587SOL    HW252416  -0.037   1.701   6.394 -0.7563  0.4286  1.1204
13588SOL     OW52417   7.908   8.569   1.523 -0.1982  0.5810 -0.5914
13588SOL    HW152418   7.981   8.510   1.557 -0.4605  0.3687 -0.3891
13588SOL    HW252419   7.846   8.515   1.465  0.0190  0.8496 -1.0701
13589SOL     OW52420   6.821   7.980   4.190 -0.5547  0.4807 -0.0872
13589SOL    HW152421   6.839   8.065   4.239 -1.6254  0.2791  0.6741
13589SOL    HW252422   6.881   7.908   4.226  0.6707  1.0023 -1.0409
13590SOL     OW52423   8.784   4.814   5.159  0.2844  0.7008 -0.1814
13590SOL    HW152424   8.782   4.735   5.098 -0.2467  0.4065  0.2036
13590SOL    HW252425   8.702   4.869   5.145 -0.3326  0.0911  0.9498
13591SOL     OW52426   9.152   5.245   5.952  0.0049 -0.3237 -0.2363
13591SOL    HW152427   9.058   5.219   5.933 -0.7492 -0.3021  3.1028
13591SOL    HW252428   9.159   5.345   5.958 -0.0880 -0.3723  0.8891
13592SOL     OW52429   8.299   3.621   3.887  0.2835 -0.0806 -0.1007
13592SOL    HW152430   8.281   3.713   3.921 -0.6702 -0.2433 -0.1682
13592SOL    HW252431   8.353   3.571   3.955  0.4651  0.3936  0.1057
13593SOL     OW52432   0.849   2.269   0.867 -0.5557 -0.0597 -0.1878
13593SOL    HW152433   0.884   2.193   0.920  0.7477  0.2931 -0.5375
13593SOL    HW252434   0.922   2.335   0.849 -1.4227  0.7706 -0.7762
13594SOL     OW52435   8.938   4.713   5.719 -0.8736  0.2269 -0.5586
13594SOL    HW152436   9.026   4.726   5.766 -0.4441 -1.7563 -0.7828
13594SOL    HW252437   8.871   4.678   5.784 -1.6090  1.9978 -0.3210
13595SOL     OW52438   2.418   2.201   0.406  0.1759  0.1282 -0.2247
13595SOL    HW152439   2.511   2.187   0.371  0.8399 -2.6736  2.4537
13595SOL    HW252440   2.411   2.292   0.446  1.7050  0.4197 -0.5820
13596SOL     OW52441   8.149   3.787   0.257 -0.8444  0.3135  0.4467
13596SOL    HW152442   8.125   3.875   0.215 -1.5899  0.4420  1.1142
13596SOL    HW252443   8.083   3.767   0.330 -0.1190 -0.3501  0.9231
13597SOL     OW52444   7.906   0.277   2.103 -0.0640 -0.4735 -0.5835
13597SOL    HW152445   7.818   0.283   2.056 -2.2279 -1.2767  3.1675
13597SOL    HW252446   7.944   0.185   2.092  0.7503  0.0785 -2.8044
13598SOL     OW52447   3.231   6.312   2.786 -0.4396  0.4686  0.7827
13598SOL    HW152448   3.276   6.243   2.842  0.4329 -0.0381 -0.5504
13598SOL    HW252449   3.295   6.350   2.720 -1.5305  0.8928 -0.0558
13599SOL     OW52450   9.369   0.594   4.636 -0.0867  0.3589 -0.3704
13599SOL    HW152451   9.271   0.604   4.624 -0.1264  1.4018  0.7423
13599SOL    HW252452   9.401   0.515   4.583 -1.3127  0.7354 -1.7019
13600SOL     OW52453   7.571   9.016   6.955 -0.3876  0.1086 -0.7451
13600SOL    HW152454   7.594   9.113   6.962  1.4269 -0.2182 -1.7453
13600SOL    HW252455   7.603   8.968   7.037  0.0379  0.1245 -0.8968
13601SOL     OW52456   0.071   8.659   0.806  0.0060 -0.6085  0.0599
13601SOL    HW152457   0.107   8.732   0.748 -1.7529  2.6139  2.8092
13601SOL    HW252458   0.093   8.679   0.901 -1.4102 -3.1486  0.9532
13602SOL     OW52459   0.243   8.989   6.535 -0.2873 -0.1795 -0.3168
13602SOL    HW152460   0.289   9.039   6.462 -0.3637  0.1788 -0.1241
13602SOL    HW252461   0.238   8.892   6.512  0.2228 -0.1585 -0.5112
13603SOL     OW52462   1.034   9.880   7.571  0.0052 -0.0299 -0.1409
13603SOL    HW152463   1.084   9.908   7.490 -1.4362 -0.3736 -1.1627
13603SOL    HW252464   1.024   9.959   7.633  1.1288  0.2231 -0.2751
13604SOL     OW52465   0.728   4.845   2.182 -0.2798  0.3497 -0.0558
13604SOL    HW152466   0.661   4.827   2.110  0.0689 -0.8825 -0.0841
13604SOL    HW252467   0.682   4.845   2.271 -0.2630 -0.9385 -0.0335
13605SOL     OW52468   4.843   6.800   3.078 -0.9934  0.8817 -0.1122
13605SOL    HW152469   4.891   6.888   3.070  1.0562 -0.2369 -0.5764
13605SOL    HW252470   4.867   6.742   3.000 -1.0411 -0.6875  1.0198
13606SOL     OW52471   8.857   3.383   3.888 -0.1556  0.0434  0.4220
13606SOL    HW152472   8.763   3.386   3.920 -0.2569 -0.6935  0.1909
13606SOL    HW252473   8.919   3.378   3.967 -0.2912  0.7500  0.5818
13607SOL     OW52474   1.368   5.550   6.840  0.0793  0.3529  0.7379
13607SOL    HW152475   1.341   5.611   6.765  0.1010  0.0705  0.4999
13607SOL    HW252476   1.447   5.588   6.888  0.3691  0.2873  0.3092
13608SOL     OW52477   2.088   0.414   0.037 -0.1227 -0.0516  0.5327
13608SOL    HW152478   2.179   0.381   0.063 -0.1909 -0.2220  0.5541
13608SOL    HW252479   2.086   0.433  -0.061 -0.7157 -2.1710  0.1220
13609SOL     OW52480   1.342   8.298   4.121 -0.4090 -0.5365  0.2245
13609SOL    HW152481   1.383   8.387   4.138  0.2937 -0.7007 -0.5924
13609SOL    HW252482   1.356   8.239   4.201 -0.0977 -0.2067  0.4136
13610SOL     OW52483   4.784   4.531   6.825 -0.2026  0.4518  0.1483
13610SOL    HW152484   4.742   4.607   6.875 -3.6545 -1.1711 -0.1655
13610SOL    HW252485   4.847   4.482   6.885 -0.5222  1.5405  1.3851
13611SOL     OW52486   9.630   1.852   0.360  0.3634  0.1246 -0.1603
13611SOL    HW152487   9.614   1.865   0.262 -0.2075 -0.7448 -0.1857
13611SOL    HW252488   9.723   1.817   0.374  0.7506  1.0589 -0.3180
13612SOL     OW52489   3.067   1.373   7.271  0.3346  0.7885  0.1691
13612SOL    HW152490   3.120   1.355   7.353  0.6444  0.8768 -0.0122
13612SOL    HW252491   3.090   1.306   7.200  1.3267  1.7497 -0.4329
13613SOL     OW52492   3.025   3.070   5.492  0.0616 -0.4884  0.2937
13613SOL    HW152493   3.099   3.132   5.466 -0.3395  0.0693  0.4548
13613SOL    HW252494   3.063   2.987   5.533  0.6425 -0.7103 -0.6725
13614SOL     OW52495   3.060   8.772   5.863  0.1558  0.1443  0.0661
13614SOL    HW152496   3.071   8.866   5.828 -0.4658  0.2783  0.2211
13614SOL    HW252497   2.963   8.747   5.861  0.3656 -0.6492 -0.3619
13615SOL     OW52498   8.632   3.315   7.065 -0.1194  0.0396  0.1006
13615SOL    HW152499   8.557   3.275   7.013 -0.4328  0.3005  0.3511
13615SOL    HW252500   8.596   3.379   7.132  0.3805  0.7315 -0.2895
13616SOL     OW52501   4.412   0.479   0.079  0.0075  0.9377  0.3616
13616SOL    HW152502   4.464   0.552   0.035  0.6236 -0.3175 -1.0132
13616SOL    HW252503   4.463   0.393   0.073 -0.9703  0.2611  1.4677
13617SOL     OW52504   8.052   8.970   5.729 -0.1127 -0.3200  0.0715
13617SOL    HW152505   8.017   8.918   5.807  1.8181  1.0599  1.9195
13617SOL    HW252506   8.093   8.907   5.663  0.9689 -1.2967  1.6229
13618SOL     OW52507   4.558   9.436   6.520  0.1106  0.1072  0.0283
13618SOL    HW152508   4.641   9.442   6.464  0.3277 -0.6806  0.2573
13618SOL    HW252509   4.514   9.348   6.505 -0.0175  0.0310  0.8439
13619SOL     OW52510   5.342   1.620   0.050  0.1180 -0.9293 -0.3587
13619SOL    HW152511   5.404   1.633  -0.028 -0.7338  1.4302 -0.7032
13619SOL    HW252512   5.392   1.636   0.135  0.1659  0.2875 -0.6039
13620SOL     OW52513   4.132   9.579   1.169 -0.4309  0.1695  0.0093
13620SOL    HW152514   4.174   9.623   1.089  2.2732 -0.5278  0.9882
13620SOL    HW252515   4.083   9.497   1.140 -1.5154  1.2202 -1.2149
13621SOL     OW52516   4.530   5.593   0.617 -0.1599 -0.4264  0.1623
13621SOL    HW152517   4.472   5.594   0.697 -1.8195  1.8835 -1.0173
13621SOL    HW252518   4.486   5.542   0.543  0.0820 -0.1655 -0.1718
13622SOL     OW52519   0.223   5.163   7.865 -0.4834 -0.2526 -0.3579
13622SOL    HW152520   0.130   5.182   7.833 -1.2931 -3.8647 -0.3752
13622SOL    HW252521   0.284   5.157   7.786 -0.5308  0.5590 -0.4614
13623SOL     OW52522   7.375   1.779   4.095  0.3921  0.4450  0.6228
13623SOL    HW152523   7.423   1.846   4.038 -1.0597  1.5018  0.6122
13623SOL    HW252524   7.276   1.798   4.094 -0.1781 -2.3237 -0.2088
13624SOL     OW52525   7.553   2.596   2.619  0.6610  0.0324  0.4504
13624SOL    HW152526   7.605   2.661   2.563  1.2069 -1.4185 -0.7382
13624SOL    HW252527   7.479   2.645   2.665  1.0734  1.5098 -0.4134
13625SOL     OW52528   7.595   6.076   6.920 -0.3038 -0.0500  0.1972
13625SOL    HW152529   7.630   6.167   6.900 -1.8884  0.7797  1.1108
13625SOL    HW252530   7.529   6.049   6.850 -1.9061  0.6791  1.3834
13626SOL     OW52531   1.385   9.187   6.989  0.8479  0.4723 -0.4087
13626SOL    HW152532   1.346   9.217   7.076 -1.2702  2.4960 -2.0265
13626SOL    HW252533   1.478   9.153   7.005  1.3715  2.9822  2.2948
13627SOL     OW52534   5.304   7.538   5.138  0.1778  0.1085  0.0866
13627SOL    HW152535   5.242   7.548   5.217  1.4641 -0.5033  1.2000
13627SOL    HW252536   5.282   7.607   5.070  0.0132  1.6502  1.6544
13628SOL     OW52537   5.650   4.084   8.041 -0.5551  0.5363  1.1235
13628SOL    HW152538   5.572   4.146   8.034 -1.4585 -0.5966  1.0119
13628SOL    HW252539   5.712   4.116   8.113 -0.2265  2.4125  0.0333
13629SOL     OW52540   1.863   5.655   2.139  0.7658 -0.1956 -0.1893
13629SOL    HW152541   1.772   5.683   2.108  1.9050  1.9985 -1.5958
13629SOL    HW252542   1.874   5.679   2.236  0.3386  0.7133 -0.3680
13630SOL     OW52543   0.036   1.144   6.551  0.7553 -0.0117  0.8317
13630SOL    HW152544   0.107   1.193   6.600 -0.5588  2.2161  0.5654
13630SOL    HW252545  -0.052   1.192   6.561 -0.2157 -1.3559 -0.8570
13631SOL     OW52546   8.981   5.760   7.724 -0.3347 -0.5477 -0.4397
13631SOL    HW152547   8.954   5.694   7.794 -0.4006 -0.8073 -0.7086
13631SOL    HW252548   9.007   5.712   7.641 -0.0868 -0.2472 -0.5382
13632SOL     OW52549   8.490   4.393   6.238  0.1441  0.3791 -0.2415
13632SOL    HW152550   8.584   4.427   6.246  0.6137 -1.0130  0.2739
13632SOL    HW252551   8.482   4.338   6.155 -0.0447 -0.0633  0.0713
13633SOL     OW52552   7.744   2.680   5.567 -0.2511  0.3189  0.3897
13633SOL    HW152553   7.748   2.644   5.474 -2.4301 -0.8674  0.7067
13633SOL    HW252554   7.718   2.776   5.565  0.1988  0.4261 -0.2506
13634SOL     OW52555   8.694   5.227   8.105  0.7366 -0.1918  0.0099
13634SOL    HW152556   8.677   5.129   8.115 -0.9632 -0.0013 -0.8799
13634SOL    HW252557   8.642   5.277   8.175  0.5537  0.1702 -0.3851
13635SOL     OW52558   1.336   6.729   0.779 -0.2841  0.3026  0.5736
13635SOL    HW152559   1.251   6.676   0.783 -0.7423  0.7411 -2.2693
13635SOL    HW252560   1.406   6.675   0.732  0.6685  0.4255  1.8147
13636SOL     OW52561   2.634   2.526   6.668  0.4365 -0.5395 -0.1494
13636SOL    HW152562   2.663   2.588   6.595 -1.4526  1.2091  0.5416
13636SOL    HW252563   2.638   2.431   6.635 -0.1974  0.2070 -2.4417
13637SOL     OW52564   4.243   1.627   7.654 -0.1796  0.5616  0.2008
13637SOL    HW152565   4.206   1.698   7.595 -0.3952 -0.1593 -0.5373
13637SOL    HW252566   4.330   1.594   7.617 -1.9764 -2.3316 -1.6710
13638SOL     OW52567   7.141   4.851   8.033 -0.3088  0.8435  0.1532
13638SOL    HW152568   7.088   4.801   8.101 -0.0386  0.0811 -0.1890
13638SOL    HW252569   7.210   4.907   8.079 -0.0764  0.2710  0.5081
13639SOL     OW52570   3.193   6.105   8.084  0.1898  0.2496 -0.2941
13639SOL    HW152571   3.248   6.134   8.006 -0.7747  0.2191 -0.9975
13639SOL    HW252572   3.236   6.135   8.169  1.1189  0.4946 -0.8501
13640SOL     OW52573   2.571   0.526   7.420 -0.1930  0.1531 -0.5847
13640SOL    HW152574   2.495   0.461   7.423  0.3285 -0.4399 -0.1357
13640SOL    HW252575   2.573   0.580   7.505  1.5964 -1.8067  0.6773
13641SOL     OW52576   1.657   0.952   2.960  0.6229 -0.4963  0.3416
13641SOL    HW152577   1.684   0.857   2.968 -0.3954 -1.1873 -3.6324
13641SOL    HW252578   1.730   1.005   2.917 -1.1632 -0.8234 -3.2797
13642SOL     OW52579   4.536   0.069   6.407  0.5734 -0.2855  0.3577
13642SOL    HW152580   4.547   0.023   6.495 -3.3249  0.1901  1.1471
13642SOL    HW252581   4.511   0.165   6.422  1.8409  0.3539 -1.3181
13643SOL     OW52582   9.737   1.194   5.581 -0.4483 -0.2052  0.1587
13643SOL    HW152583   9.832   1.216   5.602 -0.7421  1.5473 -0.2721
13643SOL    HW252584   9.727   1.095   5.570  1.5409 -0.3101 -0.8433
13644SOL     OW52585   6.727   6.060   1.330  0.1017 -0.1282 -0.1557
13644SOL    HW152586   6.810   6.033   1.281 -0.4149 -2.0650 -0.0158
13644SOL    HW252587   6.670   6.116   1.270  1.5576  1.3295 -0.2088
13645SOL     OW52588   1.053   6.901   5.826 -0.3406 -0.2069  0.2630
13645SOL    HW152589   1.033   6.957   5.745  0.4723  0.7901  0.7328
13645SOL    HW252590   1.107   6.955   5.891 -1.8067 -0.6615  1.9132
13646SOL     OW52591   3.313   6.587   5.376 -0.4833  0.3717  0.1032
13646SOL    HW152592   3.353   6.604   5.466  0.2243 -0.6427 -0.0141
13646SOL    HW252593   3.300   6.489   5.364  0.6671  0.3995 -1.4465
13647SOL     OW52594   7.663   6.739   2.808  0.7661 -0.1305  0.4592
13647SOL    HW152595   7.588   6.702   2.753 -0.9171  2.3710  0.9843
13647SOL    HW252596   7.737   6.767   2.747  0.5120 -0.9175 -0.2285
13648SOL     OW52597   9.139   0.176   6.599 -0.3916  0.6538  0.5895
13648SOL    HW152598   9.118   0.086   6.560  1.1621  0.2724  0.6348
13648SOL    HW252599   9.211   0.219   6.546  0.3920  0.9459  1.8942
13649SOL     OW52600   1.591   7.116   4.654  0.1839  0.3468  0.3855
13649SOL    HW152601   1.587   7.068   4.566  1.1357  0.4674  0.2714
13649SOL    HW252602   1.608   7.213   4.638  1.1021  0.2502  0.7199
13650SOL     OW52603   1.247   0.777   2.521 -0.2536 -0.0921  0.3702
13650SOL    HW152604   1.259   0.681   2.494  2.9701  0.6598 -0.9908
13650SOL    HW252605   1.284   0.791   2.613  1.9074  0.4375 -0.5604
13651SOL     OW52606   3.777   5.614   3.647 -0.1149  0.0649  0.2321
13651SOL    HW152607   3.734   5.693   3.690  2.2489  2.1480 -1.0632
13651SOL    HW252608   3.726   5.589   3.565 -0.6024  0.5719  0.3788
13652SOL     OW52609   9.543   5.274   6.374  0.0884  0.3616  0.6454
13652SOL    HW152610   9.501   5.250   6.462  0.3972 -0.5872  0.5403
13652SOL    HW252611   9.643   5.278   6.385 -0.0247  2.9835  0.9879
13653SOL     OW52612   3.801   2.107   5.930 -0.1966 -0.4253  0.5051
13653SOL    HW152613   3.814   2.090   5.832  1.1561 -1.5320  0.8512
13653SOL    HW252614   3.872   2.170   5.962 -0.5415 -0.1852  0.7997
13654SOL     OW52615   0.676   7.566   0.541  0.1458 -0.1843 -0.2046
13654SOL    HW152616   0.580   7.547   0.522 -0.1815  2.1286 -1.0090
13654SOL    HW252617   0.733   7.528   0.468 -0.2846 -0.0192 -0.6242
13655SOL     OW52618   0.730   5.647   1.251  0.3232 -0.0280  0.0446
13655SOL    HW152619   0.694   5.733   1.215 -1.1582 -0.8949 -0.6122
13655SOL    HW252620   0.731   5.578   1.178 -0.0752 -1.0228  0.9605
13656SOL     OW52621   6.727   0.997   1.827 -0.3737  0.2946  0.1376
13656SOL    HW152622   6.751   0.930   1.897  0.3701  0.5820  0.1605
13656SOL    HW252623   6.631   0.987   1.803 -0.1522 -1.0847 -0.1926
13657SOL     OW52624   6.158   0.873   5.197  0.6861  0.6427  0.1692
13657SOL    HW152625   6.129   0.907   5.287  0.1890 -0.3814  0.4058
13657SOL    HW252626   6.227   0.802   5.209  1.0033  0.8747 -0.2781
13658SOL     OW52627   9.321   6.233   7.030 -0.8927  0.1917 -0.1197
13658SOL    HW152628   9.342   6.321   7.074 -2.2466  0.2433  0.4414
13658SOL    HW252629   9.380   6.162   7.069 -1.9288  0.2752  1.6838
13659SOL     OW52630   4.342   8.963   2.227 -0.4695 -0.1446  0.3621
13659SOL    HW152631   4.244   8.984   2.222 -0.3641  0.6251  1.1873
13659SOL    HW252632   4.359   8.872   2.190 -1.6347 -0.6829  1.1158
13660SOL     OW52633   9.009   9.713   2.024 -0.2815 -0.3093 -0.0420
13660SOL    HW152634   8.990   9.702   2.121  0.1230  1.2434  0.2207
13660SOL    HW252635   9.093   9.664   2.000  0.4955  0.6389  0.7257
13661SOL     OW52636   4.563   3.661   1.629 -0.0559  0.1922  0.3775
13661SOL    HW152637   4.567   3.605   1.711 -2.3340  0.0526  0.4207
13661SOL    HW252638   4.613   3.616   1.555  0.2620 -0.6582  1.1079
13662SOL     OW52639   0.380   2.646   6.704  0.1962 -0.4125 -0.2556
13662SOL    HW152640   0.344   2.720   6.761 -1.4920  0.5173 -2.4293
13662SOL    HW252641   0.359   2.558   6.746  1.3667  0.2977  1.8801
13663SOL     OW52642   1.523   2.341   5.372 -0.0753 -0.2677  0.0502
13663SOL    HW152643   1.571   2.328   5.459 -0.6941 -0.1998  0.4013
13663SOL    HW252644   1.552   2.428   5.331  0.9261 -0.7520 -0.2736
13664SOL     OW52645   6.682   8.756   5.079 -0.6417  0.1823 -0.1542
13664SOL    HW152646   6.740   8.835   5.101 -1.7078  0.6649  0.9475
13664SOL    HW252647   6.732   8.672   5.100 -0.5047  0.5981  1.2470
13665SOL     OW52648   6.548   6.882   4.522  0.3648 -0.1990  0.4237
13665SOL    HW152649   6.506   6.919   4.605 -1.0688  2.0597 -1.2517
13665SOL    HW252650   6.502   6.796   4.498 -1.8133  1.0588 -0.0901
13666SOL     OW52651   9.970   1.751   3.601 -0.3768 -0.1089  0.4227
13666SOL    HW152652  10.032   1.758   3.523 -2.0066  2.5623 -0.6833
13666SOL    HW252653   9.934   1.658   3.606  1.1823 -0.8022 -0.8647
13667SOL     OW52654   2.347   2.173   1.909 -0.1562 -0.0149 -0.3099
13667SOL    HW152655   2.379   2.170   1.814 -0.1335 -0.8696 -0.2849
13667SOL    HW252656   2.269   2.234   1.916 -0.5724 -0.4587 -1.0157
13668SOL     OW52657   9.006   3.462   7.658 -0.6303 -0.1106 -0.7007
13668SOL    HW152658   9.083   3.459   7.721 -0.1021  1.1030 -1.2807
13668SOL    HW252659   8.921   3.468   7.711 -0.1646  1.3621 -0.0919
13669SOL     OW52660   2.754   3.920   0.536  0.4212 -0.4517  0.3789
13669SOL    HW152661   2.772   3.857   0.461 -0.8538 -2.3642  1.6367
13669SOL    HW252662   2.815   3.899   0.613 -0.1608 -0.3020  0.8857
13670SOL     OW52663   5.171   0.206   3.504  0.6946  0.2293 -0.1030
13670SOL    HW152664   5.168   0.292   3.555  0.4565  0.2290 -0.1144
13670SOL    HW252665   5.084   0.157   3.516  1.0726 -0.3093  0.4179
13671SOL     OW52666   6.531   4.452   0.956 -0.5421  0.3838  0.2139
13671SOL    HW152667   6.492   4.389   0.889  0.4437  1.0022 -0.9606
13671SOL    HW252668   6.486   4.439   1.045 -2.3981  0.0799 -0.7525
13672SOL     OW52669   7.489   1.426   5.716 -0.5560 -0.8124  0.0716
13672SOL    HW152670   7.516   1.402   5.623  0.8011  1.5077 -0.1745
13672SOL    HW252671   7.537   1.367   5.781  0.5746 -0.6822 -0.6223
13673SOL     OW52672   9.019   5.639   0.105 -0.5362 -0.0054 -0.2843
13673SOL    HW152673   9.066   5.555   0.080 -2.2856 -1.1870  0.2675
13673SOL    HW252674   9.038   5.710   0.038  1.6222 -0.5898 -0.3112
13674SOL     OW52675   9.901   8.133   2.490  0.3424  0.1106  0.1667
13674SOL    HW152676  10.001   8.133   2.481  0.1878  1.1477 -1.7192
13674SOL    HW252677   9.863   8.050   2.448  0.4265 -0.5711  1.3968
13675SOL     OW52678   1.481   4.135   8.065 -0.2133 -0.2473 -0.2272
13675SOL    HW152679   1.392   4.170   8.095 -0.0608 -0.0524  0.0089
13675SOL    HW252680   1.552   4.203   8.087  0.0334 -0.5390 -0.1180
13676SOL     OW52681   9.502   7.284   2.977 -0.6882  0.5920  0.4502
13676SOL    HW152682   9.473   7.330   3.060  0.3976  0.2808  1.0101
13676SOL    HW252683   9.597   7.306   2.957 -0.4890 -0.5083  0.1090
13677SOL     OW52684   5.852   3.174   0.562  0.1152 -0.1458  0.2600
13677SOL    HW152685   5.933   3.147   0.615 -0.4796 -1.3185  0.5757
13677SOL    HW252686   5.790   3.225   0.621  0.8175  1.1585 -0.1002
13678SOL     OW52687   9.910   9.656   2.702  0.4088 -0.1094 -0.0651
13678SOL    HW152688   9.897   9.751   2.674 -0.1310 -0.1123  0.1717
13678SOL    HW252689  10.007   9.633   2.695  0.6050  0.5861  0.2817
13679SOL     OW52690   0.637   5.593   1.644 -0.3043 -1.0787 -0.2053
13679SOL    HW152691   0.595   5.683   1.658  1.2158 -0.5112  0.9514
13679SOL    HW252692   0.572   5.521   1.667 -0.9929 -0.2366  0.5094
13680SOL     OW52693   7.600   1.083   0.772 -0.4216  0.5770 -0.1491
13680SOL    HW152694   7.500   1.084   0.766 -0.3980  0.8709 -0.5539
13680SOL    HW252695   7.627   1.088   0.868 -0.7925  3.9937 -0.1609
13681SOL     OW52696   6.253   1.255   4.580 -0.0613 -0.1487  0.0392
13681SOL    HW152697   6.279   1.348   4.605 -1.4461 -0.0236  1.0440
13681SOL    HW252698   6.285   1.191   4.649 -0.8483 -0.1939  0.3640
13682SOL     OW52699   8.013   4.053   6.221  0.4051 -0.3193  0.2068
13682SOL    HW152700   8.075   3.991   6.269  1.3917 -0.5046 -1.2837
13682SOL    HW252701   7.970   4.005   6.144  1.9428  1.0936 -1.5794
13683SOL     OW52702   1.305   7.207   4.586  0.1965 -0.6391  0.0977
13683SOL    HW152703   1.405   7.216   4.575  0.2129 -1.7907 -0.7858
13683SOL    HW252704   1.279   7.112   4.575 -0.8471 -0.5661  1.8218
13684SOL     OW52705   6.929   0.093   1.304  0.7039 -0.5472 -0.0689
13684SOL    HW152706   6.963   0.182   1.336 -1.2423 -0.4223  1.7305
13684SOL    HW252707   7.006   0.031   1.289  1.9271  0.7441  0.8047
13685SOL     OW52708   9.530   3.294   5.600 -0.6662 -0.3034  0.7405
13685SOL    HW152709   9.563   3.203   5.623  0.4276 -0.1223 -0.0644
13685SOL    HW252710   9.572   3.362   5.661  1.1277  0.0155 -0.7788
13686SOL     OW52711   3.808   0.258   7.578  0.0286 -0.3067  0.2023
13686SOL    HW152712   3.720   0.301   7.601  0.4871  0.8500 -0.1944
13686SOL    HW252713   3.800   0.159   7.589 -2.0705 -0.4570 -2.1494
13687SOL     OW52714   0.490   7.425   3.786  0.0424  0.1849  0.2791
13687SOL    HW152715   0.476   7.454   3.880 -1.5427  1.7102 -0.4018
13687SOL    HW252716   0.402   7.408   3.742  0.8036 -1.8932 -0.5329
13688SOL     OW52717   0.742   3.432   7.824  0.4691 -0.2075 -0.4083
13688SOL    HW152718   0.840   3.426   7.805  0.1016 -1.3094 -2.0653
13688SOL    HW252719   0.696   3.352   7.786 -1.2950  1.1775 -1.2620
13689SOL     OW52720   1.533   9.145   5.390 -0.3241  0.6640  0.1596
13689SOL    HW152721   1.489   9.065   5.431 -1.5278  0.3914 -1.5974
13689SOL    HW252722   1.464   9.214   5.368  0.3313  0.9739 -0.9817
13690SOL     OW52723   9.343   1.648   5.017 -0.2901 -0.3436 -0.4136
13690SOL    HW152724   9.439   1.642   4.990 -0.1032  0.4330  0.0599
13690SOL    HW252725   9.314   1.561   5.058  0.1815 -0.6097 -0.6409
13691SOL     OW52726   6.342   2.107   0.473  0.1801 -0.4397 -0.3823
13691SOL    HW152727   6.311   2.025   0.521  0.6528 -1.2616 -1.4588
13691SOL    HW252728   6.426   2.087   0.423  0.2393  0.6742 -0.7538
13692SOL     OW52729   1.778   1.846   2.061 -0.7727  0.0691  0.7896
13692SOL    HW152730   1.737   1.871   1.974  1.0689  0.2288 -0.0616
13692SOL    HW252731   1.755   1.915   2.130 -2.4742 -0.2127  0.5304
13693SOL     OW52732   4.251   7.769   4.564  0.1514  0.1160 -0.1854
13693SOL    HW152733   4.158   7.784   4.530 -0.7307 -1.5550  1.4305
13693SOL    HW252734   4.257   7.679   4.607  2.0721  0.9268  1.2985
13694SOL     OW52735   6.317   6.559   1.607 -0.0427  0.2328 -0.2048
13694SOL    HW152736   6.286   6.606   1.690 -1.0704 -0.8430  0.0471
13694SOL    HW252737   6.327   6.625   1.533  1.1345  1.2456  0.8446
13695SOL     OW52738   6.809   4.758   0.135 -0.3855  0.4884  0.0631
13695SOL    HW152739   6.793   4.752   0.036 -0.8389  1.9102  0.0347
13695SOL    HW252740   6.907   4.764   0.152 -0.2379 -0.8557 -0.2210
13696SOL     OW52741   2.531   0.256   5.884  0.1524  0.4563  0.3392
13696SOL    HW152742   2.627   0.246   5.859 -0.6474 -1.6634 -2.0392
13696SOL    HW252743   2.515   0.212   5.973  1.2366  0.3126  0.4730
13697SOL     OW52744   6.951   1.264   5.748  0.0262 -0.6302  0.8787
13697SOL    HW152745   7.027   1.329   5.746  0.0467 -0.6574  0.6980
13697SOL    HW252746   6.864   1.314   5.749  0.0475 -0.5989  1.0643
13698SOL     OW52747   3.034   8.434   5.618  0.7616 -0.1100 -0.1432
13698SOL    HW152748   3.105   8.497   5.650  0.4303  1.0246 -1.5790
13698SOL    HW252749   2.973   8.412   5.694  1.1542  0.9405  0.4990
13699SOL     OW52750   2.117   8.662   2.716 -0.0850 -0.3617  0.0111
13699SOL    HW152751   2.076   8.591   2.658 -0.0085 -0.9948  0.7256
13699SOL    HW252752   2.131   8.745   2.662  0.2677 -1.0452 -0.9668
13700SOL     OW52753   3.766   1.412   1.386  0.6796  0.1804 -0.1951
13700SOL    HW152754   3.830   1.487   1.369 -0.7488  1.1851 -1.2367
13700SOL    HW252755   3.697   1.443   1.452  0.0133 -0.1650 -0.7265
13701SOL     OW52756   1.759   7.341   5.510  0.1280  0.4916  0.1769
13701SOL    HW152757   1.728   7.430   5.543 -0.1880  1.2219 -2.0285
13701SOL    HW252758   1.690   7.302   5.449 -0.1989 -1.7583  1.9057
13702SOL     OW52759   1.169   7.897   4.690  0.2335  0.1553 -0.7969
13702SOL    HW152760   1.098   7.964   4.669  1.1497  1.5201  0.2742
13702SOL    HW252761   1.224   7.879   4.608 -0.5618  0.0623 -1.3082
13703SOL     OW52762   1.998   6.914   7.487 -0.1214 -0.1930  0.4944
13703SOL    HW152763   2.029   6.924   7.581  0.6675 -0.1251  0.2375
13703SOL    HW252764   1.968   6.820   7.471  0.4856 -0.4077  0.6009
13704SOL     OW52765   8.667   8.798   2.495  1.3043  0.4940 -0.0960
13704SOL    HW152766   8.613   8.858   2.554  2.3018  0.7894  0.5204
13704SOL    HW252767   8.615   8.714   2.477  0.2893  1.1379 -0.2105
13705SOL     OW52768   0.495   9.730   3.758  0.3258  0.8516 -0.5780
13705SOL    HW152769   0.559   9.683   3.819 -1.1604  0.0190  0.3379
13705SOL    HW252770   0.471   9.669   3.682 -0.5263  0.6330 -0.1315
13706SOL     OW52771   6.849   7.989   6.002 -0.8846 -0.1541 -1.1558
13706SOL    HW152772   6.850   8.084   5.972 -2.3312 -0.4852 -2.3046
13706SOL    HW252773   6.764   7.946   5.973 -0.0645 -1.9179 -1.0065
13707SOL     OW52774   7.735   9.951   3.563  0.2067  0.6748 -0.0338
13707SOL    HW152775   7.666  10.003   3.614 -0.0119  1.0953 -0.7441
13707SOL    HW252776   7.689   9.889   3.498  0.4325 -1.2459  1.5850
13708SOL     OW52777   8.529   8.758   2.926 -0.0175 -0.1284 -0.0730
13708SOL    HW152778   8.549   8.661   2.918 -0.4686 -0.3229  1.0493
13708SOL    HW252779   8.435   8.775   2.897  0.1485  0.0208 -0.5341
13709SOL     OW52780   3.204   0.796   7.979  0.6045  0.4873 -0.1783
13709SOL    HW152781   3.139   0.720   7.981  0.5072  0.5342 -1.1294
13709SOL    HW252782   3.209   0.838   8.069 -0.7651  0.5399 -0.1096
13710SOL     OW52783   3.082   3.954   3.697 -0.4864  0.6014 -0.3149
13710SOL    HW152784   3.032   4.034   3.730 -0.4494  1.3025 -1.9113
13710SOL    HW252785   3.036   3.871   3.729 -0.3155  1.2424  1.6509
13711SOL     OW52786   3.056   5.912   7.077  0.1444 -0.0375  0.5367
13711SOL    HW152787   3.011   5.958   7.000  2.8501 -0.6385 -1.4693
13711SOL    HW252788   3.049   5.813   7.065 -0.0398 -0.1437  1.4677
13712SOL     OW52789   0.889   1.947   1.338  0.3824  0.2300 -0.2500
13712SOL    HW152790   0.853   1.998   1.416  0.1925  0.7957 -0.6985
13712SOL    HW252791   0.888   1.849   1.358 -0.7057  0.2899  0.0401
13713SOL     OW52792   2.098   9.743   1.424  0.2654  0.3905 -0.1794
13713SOL    HW152793   2.190   9.705   1.411  1.0004  0.9106  3.0763
13713SOL    HW252794   2.085   9.819   1.361  2.0884  0.3230 -0.6810
13714SOL     OW52795   2.825   0.698   5.876  0.2100 -0.1237 -0.5638
13714SOL    HW152796   2.736   0.668   5.910  0.4443 -0.2806 -0.0806
13714SOL    HW252797   2.853   0.642   5.799 -0.1695  0.0102 -0.7982
13715SOL     OW52798   5.071   9.171   0.951  0.5169 -0.2529 -0.6136
13715SOL    HW152799   5.016   9.233   0.895 -0.2931 -0.9489 -0.5982
13715SOL    HW252800   5.010   9.110   1.003  1.2590  0.2717  0.9018
13716SOL     OW52801   2.734   7.276   1.252  0.0258 -0.2563  0.3513
13716SOL    HW152802   2.741   7.255   1.155 -0.4048  2.3313 -0.2489
13716SOL    HW252803   2.748   7.373   1.267  1.1424 -0.7725  3.0138
13717SOL     OW52804   7.671   1.711   6.775  0.3915 -0.2930  0.4241
13717SOL    HW152805   7.738   1.784   6.764  1.1483 -0.9425  0.6555
13717SOL    HW252806   7.673   1.651   6.694 -0.7938  0.3866 -0.1305
13718SOL     OW52807   5.065   7.337   1.505 -0.6304 -0.3742 -0.2392
13718SOL    HW152808   5.129   7.406   1.539 -0.6770  1.0685 -2.9496
13718SOL    HW252809   4.972   7.363   1.528 -0.7343  1.0637 -2.1105
13719SOL     OW52810   9.732   6.669   0.973  0.4771 -0.4976  0.1909
13719SOL    HW152811   9.749   6.726   0.892  0.5515 -0.2895  0.3525
13719SOL    HW252812   9.779   6.582   0.963 -1.6436 -1.5131 -1.1760
13720SOL     OW52813   4.742   4.530   7.598  0.0550 -0.3223  0.4210
13720SOL    HW152814   4.693   4.580   7.528 -0.7198 -0.5427  0.7954
13720SOL    HW252815   4.755   4.435   7.569 -1.8295 -0.8793  1.2990
13721SOL     OW52816   4.510   9.927   4.811  0.0806 -0.2030 -0.2702
13721SOL    HW152817   4.449   9.850   4.832  1.2482 -0.6225  1.6885
13721SOL    HW252818   4.497   9.999   4.879  0.7569  0.2862 -0.6596
13722SOL     OW52819   4.335   3.284   1.592 -0.2279  0.3436 -0.0612
13722SOL    HW152820   4.338   3.248   1.685 -0.6553 -1.6034 -0.7855
13722SOL    HW252821   4.240   3.304   1.567 -0.2116 -0.0162 -0.4119
13723SOL     OW52822   0.331   8.203   0.327 -0.3879  0.1061  0.5771
13723SOL    HW152823   0.388   8.283   0.310  0.3491 -0.5600 -0.1687
13723SOL    HW252824   0.387   8.120   0.319 -1.6356 -0.6146 -1.0834
13724SOL     OW52825   1.567   0.045   7.568 -0.1437 -0.3084 -0.3913
13724SOL    HW152826   1.640  -0.021   7.550  0.6211  0.0441  1.2439
13724SOL    HW252827   1.493  -0.001   7.618 -0.3671 -0.3167 -0.7289
13725SOL     OW52828   8.534   2.456   3.681  0.2228 -0.3447 -0.2219
13725SOL    HW152829   8.619   2.479   3.632  0.1726  0.8145  0.2217
13725SOL    HW252830   8.512   2.529   3.745 -1.5171 -0.3065 -0.8507
13726SOL     OW52831   2.903   0.218   0.230  0.1661 -0.6407 -0.3598
13726SOL    HW152832   2.900   0.242   0.327  0.6267 -0.0252 -0.4978
13726SOL    HW252833   2.870   0.124   0.218  1.4332 -1.2156  0.5603
13727SOL     OW52834   7.335   0.383   2.592 -0.4157  0.1527 -0.3859
13727SOL    HW152835   7.274   0.381   2.671 -1.1709  0.6470 -0.9527
13727SOL    HW252836   7.313   0.306   2.532  0.1603 -0.2240 -0.1218
13728SOL     OW52837   8.564   7.926   4.869  0.4783  0.0563  0.5353
13728SOL    HW152838   8.497   7.979   4.816  1.9463  1.3752 -0.0483
13728SOL    HW252839   8.551   7.829   4.850 -0.2945  0.3924 -0.7453
13729SOL     OW52840   3.244   7.288   5.806  0.0047 -0.2846  0.5791
13729SOL    HW152841   3.319   7.222   5.797 -1.1861 -1.9366  2.5234
13729SOL    HW252842   3.203   7.281   5.896 -2.1099  1.0525 -0.2309
13730SOL     OW52843   8.526   4.799   2.180 -0.0895  0.0870 -0.2568
13730SOL    HW152844   8.624   4.787   2.189 -0.3468 -1.0667  1.1924
13730SOL    HW252845   8.479   4.755   2.257 -1.6933  1.3333 -0.4828
13731SOL     OW52846   9.579   8.124   3.990 -0.1629  0.7246  0.2161
13731SOL    HW152847   9.502   8.117   3.927 -0.3265 -0.1406  0.5108
13731SOL    HW252848   9.585   8.041   4.046  0.4671  1.1410  0.7795
13732SOL     OW52849   1.402   3.709   5.396  0.4221  0.5526  0.2138
13732SOL    HW152850   1.469   3.776   5.428 -0.2804  0.7727  1.2437
13732SOL    HW252851   1.330   3.756   5.346  0.4528  0.4475  0.0700
13733SOL     OW52852   8.336   1.261   6.895  0.1673  0.1840  0.5875
13733SOL    HW152853   8.409   1.275   6.962 -0.4056  0.6400  1.1281
13733SOL    HW252854   8.259   1.320   6.918 -0.7902 -1.0742  0.6328
13734SOL     OW52855   4.652   2.412   5.176  0.1136 -0.6129  0.3909
13734SOL    HW152856   4.712   2.365   5.112 -0.1526 -1.7635  0.9810
13734SOL    HW252857   4.592   2.346   5.221 -0.0128  0.2462  1.5028
13735SOL     OW52858   2.512   8.236   3.838  0.6349  0.1789  0.6049
13735SOL    HW152859   2.572   8.214   3.915 -0.8614  0.1373  1.7594
13735SOL    HW252860   2.431   8.284   3.870 -0.8520 -1.3872 -0.6981
13736SOL     OW52861   9.158   6.462   7.334  0.3187 -0.0889 -0.1318
13736SOL    HW152862   9.121   6.443   7.425 -0.5479  1.4350 -0.1426
13736SOL    HW252863   9.115   6.401   7.268 -1.2637  0.7958  0.0527
13737SOL     OW52864   6.326   0.702   3.324 -0.0878 -0.1163  0.6061
13737SOL    HW152865   6.380   0.621   3.345  0.1162  0.1553  1.1363
13737SOL    HW252866   6.364   0.748   3.244  0.7256  0.3120  1.2341
13738SOL     OW52867   1.140   7.540   3.203 -0.0971 -0.1979  0.4622
13738SOL    HW152868   1.176   7.548   3.296 -0.4097 -0.3580  0.5992
13738SOL    HW252869   1.214   7.516   3.140 -0.1433 -1.5458  0.8977
13739SOL     OW52870   7.325   9.247   4.914 -0.2555  0.0390  0.6456
13739SOL    HW152871   7.365   9.219   4.827  1.5219  0.6967  1.2212
13739SOL    HW252872   7.225   9.241   4.909 -0.1224 -0.9828 -1.0582
13740SOL     OW52873   1.680   0.107   4.962 -0.0103  0.1219  0.0237
13740SOL    HW152874   1.679   0.045   5.041  0.6108 -0.5154 -0.4688
13740SOL    HW252875   1.683   0.054   4.878  1.7625  0.8286 -0.3765
13741SOL     OW52876   4.375   7.133   1.799 -0.2584 -0.8014 -0.1332
13741SOL    HW152877   4.368   7.077   1.881  0.1289 -1.5501 -0.6041
13741SOL    HW252878   4.284   7.165   1.772 -0.7583 -2.8595 -0.9924
13742SOL     OW52879   8.531   4.884   3.096  0.8033  0.5426  0.1174
13742SOL    HW152880   8.443   4.888   3.144  0.6041 -0.6548 -0.1189
13742SOL    HW252881   8.588   4.814   3.139 -0.0813 -1.8704 -2.4937
13743SOL     OW52882   4.068   1.848   5.967  0.1193 -0.1572 -0.5934
13743SOL    HW152883   4.093   1.927   6.023  0.1644 -1.6621  1.5584
13743SOL    HW252884   3.973   1.823   5.984 -0.2108  0.0298 -2.0381
13744SOL     OW52885   5.957   9.568   1.501 -0.2394 -0.1787  0.6640
13744SOL    HW152886   5.973   9.515   1.584  0.7871 -1.1547 -0.1489
13744SOL    HW252887   5.859   9.569   1.481 -0.1469 -3.0921 -0.1466
13745SOL     OW52888   2.066   8.381   0.839 -0.5238  0.1618  0.2647
13745SOL    HW152889   2.118   8.462   0.810 -0.1890 -0.3590 -0.6291
13745SOL    HW252890   2.096   8.353   0.930  0.1911  0.3494  0.0931
13746SOL     OW52891   1.880   0.856   2.577  0.0156  0.8626  0.4113
13746SOL    HW152892   1.904   0.863   2.481  0.2137  2.8882  0.5834
13746SOL    HW252893   1.865   0.760   2.601  0.6809  0.2750 -1.4463
13747SOL     OW52894   2.465   3.353   4.608  0.3201  0.9556 -0.2539
13747SOL    HW152895   2.482   3.412   4.687 -1.6660  1.4900 -0.1826
13747SOL    HW252896   2.418   3.406   4.537  0.8653  0.1252 -1.2500
13748SOL     OW52897   1.305   6.310   0.347 -0.6592 -0.3166  0.7341
13748SOL    HW152898   1.351   6.229   0.383 -0.4861 -0.1141  0.9701
13748SOL    HW252899   1.373   6.379   0.320 -0.7881 -0.4836 -0.0188
13749SOL     OW52900   4.171   5.554   0.649 -0.3724  0.2585 -0.3130
13749SOL    HW152901   4.180   5.469   0.597 -1.4010 -0.1987  0.2169
13749SOL    HW252902   4.199   5.537   0.744 -1.5481  0.2150  0.0449
13750SOL     OW52903   1.066   8.096   2.996  0.6594  0.0122 -0.5221
13750SOL    HW152904   1.111   8.020   3.043  1.1942  1.0833  0.7273
13750SOL    HW252905   1.134   8.163   2.968  0.0606  0.6015 -0.5769
13751SOL     OW52906   0.003   2.374   6.025  0.6089 -0.0910 -0.6014
13751SOL    HW152907   0.102   2.385   6.028  0.7325 -1.2324 -0.0753
13751SOL    HW252908  -0.029   2.375   5.931  1.4437 -2.2871 -0.9360
13752SOL     OW52909   8.818   9.723   5.796 -0.1326  0.2573  0.3388
13752SOL    HW152910   8.757   9.801   5.787  0.7405  0.8545 -0.5418
13752SOL    HW252911   8.784   9.647   5.741 -0.2535  0.4857  0.0990
13753SOL     OW52912   1.475   4.666   5.984 -0.0124 -0.2039 -0.0970
13753SOL    HW152913   1.537   4.732   5.941  1.7979 -0.5554  1.8820
13753SOL    HW252914   1.390   4.712   6.010  0.9478  1.1947  0.6321
13754SOL     OW52915   1.374   5.876   5.124 -0.4450  0.0993  0.7170
13754SOL    HW152916   1.307   5.801   5.119  0.1358 -0.5036  1.8151
13754SOL    HW252917   1.466   5.839   5.111 -0.1471  0.6171  1.3568
13755SOL     OW52918   5.506   5.016   1.504  0.1155  0.2450  0.1845
13755SOL    HW152919   5.528   4.942   1.567  0.0313  0.0546 -0.0077
13755SOL    HW252920   5.484   5.099   1.556  2.3253  0.7360  0.3531
13756SOL     OW52921   3.790   5.319   7.960 -0.2353  0.8151 -0.2857
13756SOL    HW152922   3.849   5.361   8.030  0.0830  2.6530 -1.5974
13756SOL    HW252923   3.742   5.392   7.910 -1.6568 -0.5515 -0.9386
13757SOL     OW52924   4.369   1.710   2.499 -0.2244 -0.2535 -0.9918
13757SOL    HW152925   4.379   1.775   2.574  1.0838 -1.5721  0.0089
13757SOL    HW252926   4.339   1.758   2.417 -2.0875  1.1671  0.4609
13758SOL     OW52927   2.233   3.260   8.109 -0.0888  0.6965 -0.3876
13758SOL    HW152928   2.297   3.214   8.049  1.4154  1.9920  0.2046
13758SOL    HW252929   2.222   3.355   8.080  0.1255  1.1397  0.9614
13759SOL     OW52930   0.247   0.239   0.981 -0.1260 -0.4284 -0.0094
13759SOL    HW152931   0.324   0.180   1.002  0.4595 -0.0233 -0.9988
13759SOL    HW252932   0.267   0.294   0.900 -1.0101  0.4869  0.3676
13760SOL     OW52933   2.885   3.564   1.422 -0.1414 -0.2028 -0.2830
13760SOL    HW152934   2.947   3.567   1.501 -0.4489  0.9108 -0.0840
13760SOL    HW252935   2.891   3.473   1.379  0.5729 -0.5714  0.5751
13761SOL     OW52936   8.375   9.699   0.413 -0.0954 -0.1152 -0.0783
13761SOL    HW152937   8.325   9.784   0.404  1.2964  0.7556  0.2494
13761SOL    HW252938   8.384   9.656   0.322  0.2113  0.6782 -0.4274
13762SOL     OW52939   9.860   9.347   2.489  0.7996 -0.0850  0.4329
13762SOL    HW152940   9.806   9.428   2.511  0.2232 -0.4995  0.5667
13762SOL    HW252941   9.865   9.287   2.569  0.7775 -0.4273  0.1811
13763SOL     OW52942   4.257   7.664   2.061 -0.0836 -0.7227 -0.2322
13763SOL    HW152943   4.233   7.586   2.119  1.6618  0.2235  1.8625
13763SOL    HW252944   4.278   7.633   1.969 -2.5559 -2.3217 -0.3032
13764SOL     OW52945   7.018   4.348   1.913  0.5696 -0.3220 -0.4320
13764SOL    HW152946   6.976   4.399   1.837 -0.7272 -2.0948 -0.9256
13764SOL    HW252947   6.965   4.265   1.931  1.7124 -0.6659  1.4620
13765SOL     OW52948   5.840   8.140   1.652 -0.3441  0.0350  0.1659
13765SOL    HW152949   5.907   8.075   1.617 -0.0980  0.5840 -0.3946
13765SOL    HW252950   5.838   8.135   1.752 -0.4869 -0.9811  0.1141
13766SOL     OW52951   0.860   8.551   4.529 -0.4410 -0.1345 -0.0713
13766SOL    HW152952   0.900   8.602   4.605  0.5827 -0.7150 -0.2176
13766SOL    HW252953   0.783   8.496   4.563 -0.4940  0.2183  0.3878
13767SOL     OW52954   7.830   9.529   5.062  0.1225  0.0111  0.4478
13767SOL    HW152955   7.873   9.615   5.036  1.6354 -0.8534 -0.0069
13767SOL    HW252956   7.744   9.518   5.013 -0.0312  1.2087  0.4374
13768SOL     OW52957   8.888   2.171   7.372  0.3830  0.3102  0.3472
13768SOL    HW152958   8.945   2.153   7.452  0.0948  1.7513  0.8919
13768SOL    HW252959   8.942   2.216   7.302  0.6358 -0.9590 -0.2892
13769SOL     OW52960   1.825   2.909   2.094  0.3766  0.1996  0.4063
13769SOL    HW152961   1.847   2.822   2.049  2.0057 -0.1304  1.7739
13769SOL    HW252962   1.745   2.950   2.050  2.0365  0.0375 -2.9263
13770SOL     OW52963   0.491   8.931   3.093  0.3406  0.2661  0.0552
13770SOL    HW152964   0.567   8.886   3.140  0.0519  1.3405  1.5847
13770SOL    HW252965   0.524   8.973   3.008  1.3072  0.1258  0.3565
13771SOL     OW52966   9.073   6.284   6.884 -0.1644  0.4894  0.7565
13771SOL    HW152967   9.153   6.264   6.941  0.3885 -0.5612 -0.3486
13771SOL    HW252968   9.100   6.343   6.809 -0.0595 -1.1424 -0.5165
13772SOL     OW52969   3.553   8.210   2.386  0.3793  0.1000 -0.5314
13772SOL    HW152970   3.492   8.287   2.400 -0.6525 -0.8169  0.0925
13772SOL    HW252971   3.624   8.210   2.456 -1.4521 -1.2661  1.3764
13773SOL     OW52972   4.370   6.756   3.356 -0.3264  0.3316  0.2829
13773SOL    HW152973   4.359   6.821   3.281  0.0020 -0.2468 -0.2761
13773SOL    HW252974   4.305   6.777   3.429 -0.7993  0.7672 -0.2618
13774SOL     OW52975   8.497   5.557   4.169 -0.0359 -0.0857  0.1035
13774SOL    HW152976   8.539   5.570   4.259 -0.2187  1.8517 -0.0580
13774SOL    HW252977   8.556   5.502   4.111  0.5683 -0.4638  1.0772
13775SOL     OW52978   9.892   8.416   4.615  0.0293  0.2496 -0.1300
13775SOL    HW152979   9.815   8.387   4.558 -1.5385  2.0049  1.0267
13775SOL    HW252980   9.978   8.388   4.572 -1.1857 -0.0281 -2.4432
13776SOL     OW52981   2.106   0.084   2.799 -0.3693 -0.3373  0.2324
13776SOL    HW152982   2.083   0.032   2.882  0.4684 -1.8714 -0.4706
13776SOL    HW252983   2.080   0.031   2.718  0.7311  0.2197 -0.5015
13777SOL     OW52984   7.436   7.495   3.161 -0.0046  0.1275 -0.7586
13777SOL    HW152985   7.485   7.414   3.193  0.6332  0.0937 -1.7779
13777SOL    HW252986   7.342   7.493   3.194  0.3124 -0.4691  0.1374
13778SOL     OW52987   2.309   0.398   5.082  0.3781 -0.4707  0.6765
13778SOL    HW152988   2.406   0.388   5.102  0.8339  0.0715 -1.1427
13778SOL    HW252989   2.282   0.331   5.013 -0.4086 -0.2831  0.7985
13779SOL     OW52990   8.695   6.408   7.025 -0.0501  0.1241 -0.2909
13779SOL    HW152991   8.720   6.329   6.969 -1.2172 -0.2178 -0.3382
13779SOL    HW252992   8.640   6.472   6.970 -0.0835  0.4143  0.0759
13780SOL     OW52993   8.952   3.059   1.388  0.0283  0.1582  0.5708
13780SOL    HW152994   8.980   3.059   1.484 -0.0351 -1.9776  0.6066
13780SOL    HW252995   8.853   3.050   1.382  0.1143 -0.6887  0.3041
13781SOL     OW52996   2.837   8.184   8.166  0.2590  0.9021 -0.2822
13781SOL    HW152997   2.792   8.107   8.121 -0.1887  0.2429  1.2895
13781SOL    HW252998   2.772   8.232   8.225  1.1118  1.0945  0.5197
13782SOL     OW52999   8.786   6.918   0.787  0.2062 -0.3728 -0.2391
13782SOL    HW153000   8.745   6.944   0.700  0.6062 -1.0743 -0.6505
13782SOL    HW253001   8.882   6.895   0.773  0.6451  0.8374  0.6338
13783SOL     OW53002   3.301   6.052   5.179 -0.1884 -0.8005  0.0312
13783SOL    HW153003   3.333   5.997   5.256 -1.6572 -2.5035 -0.5327
13783SOL    HW253004   3.254   5.992   5.113 -2.7970  1.2794 -0.0763
13784SOL     OW53005   4.586   5.335   7.619 -0.1312 -0.0339 -0.5812
13784SOL    HW153006   4.562   5.238   7.622 -1.1533  0.2455  3.4125
13784SOL    HW253007   4.685   5.345   7.632 -0.4668 -0.4939  2.9690
13785SOL     OW53008   4.688   0.584   0.403  0.7036 -0.4878  0.4113
13785SOL    HW153009   4.639   0.569   0.489  0.2721 -0.5046  0.1636
13785SOL    HW253010   4.671   0.677   0.370  2.5245  0.2031  1.3970
13786SOL     OW53011   1.651   3.933   4.461  0.1069 -0.3905 -0.0034
13786SOL    HW153012   1.604   3.871   4.399 -0.0863 -0.3763  0.1283
13786SOL    HW253013   1.620   3.916   4.555 -2.5263  2.2300 -0.3180
13787SOL     OW53014   6.494   5.185   0.231  0.2358  0.3079 -0.5288
13787SOL    HW153015   6.479   5.101   0.179 -1.0407  0.5345 -0.5370
13787SOL    HW253016   6.584   5.222   0.209  1.5561 -2.0025  0.8137
13788SOL     OW53017   0.924   0.940   3.604  0.0725  0.7073  0.4041
13788SOL    HW153018   0.864   1.005   3.559 -0.3060 -1.0808 -1.7714
13788SOL    HW253019   1.013   0.939   3.560 -0.2859 -1.0289 -0.3447
13789SOL     OW53020   9.713   9.415   4.615  0.1869 -0.1919 -0.2130
13789SOL    HW153021   9.698   9.378   4.524  1.7058  0.4636 -0.7397
13789SOL    HW253022   9.626   9.450   4.651 -0.4739 -0.7066 -1.2840
13790SOL     OW53023   2.747   9.879   0.485  0.0352  0.6720 -0.1892
13790SOL    HW153024   2.727   9.977   0.495 -1.8140  0.2623  0.3258
13790SOL    HW253025   2.846   9.866   0.486  0.3225  2.5673 -0.5382
13791SOL     OW53026   3.789   0.243   0.868 -0.0002 -0.0836 -0.1501
13791SOL    HW153027   3.706   0.236   0.924  1.3607 -1.6449  1.7734
13791SOL    HW253028   3.772   0.302   0.789 -3.2172 -1.1443 -0.3209
13792SOL     OW53029   0.990   6.339   6.091 -0.3722  0.5359  0.1522
13792SOL    HW153030   1.039   6.256   6.067  0.8216  1.4650 -0.7334
13792SOL    HW253031   0.936   6.370   6.013  0.8317  1.7118 -0.2326
13793SOL     OW53032   5.019   9.410   6.705 -0.4120 -0.4040  0.2331
13793SOL    HW153033   5.068   9.399   6.618  0.0154 -1.0116  0.5504
13793SOL    HW253034   5.015   9.507   6.728 -0.3556 -0.2557 -0.3721
13794SOL     OW53035   9.223   0.607   5.695 -0.4082  0.1777 -0.0019
13794SOL    HW153036   9.184   0.623   5.786  0.0556  0.2609  0.1840
13794SOL    HW253037   9.155   0.629   5.625 -0.5306  0.7827  0.3056
13795SOL     OW53038   1.652   7.868   4.120  0.3727 -0.2480 -0.1132
13795SOL    HW153039   1.710   7.790   4.096 -1.9411 -1.9904 -0.2250
13795SOL    HW253040   1.627   7.918   4.037  0.7378 -0.1925 -0.1903
13796SOL     OW53041   9.829   9.631   1.124  0.0268  0.4298  0.1095
13796SOL    HW153042   9.846   9.578   1.207  0.6519  2.0340  1.0274
13796SOL    HW253043   9.738   9.610   1.090 -1.4498  1.9504  2.9112
13797SOL     OW53044   9.986   8.650   4.482 -0.0406 -0.0082 -0.1146
13797SOL    HW153045  10.073   8.692   4.507 -0.4892 -0.5805  2.5739
13797SOL    HW253046   9.951   8.598   4.559 -2.8390  0.2928 -1.1347
13798SOL     OW53047   0.509   6.023   7.618  0.3211  0.2181  0.4800
13798SOL    HW153048   0.580   6.069   7.565  0.4926 -0.2217  0.3215
13798SOL    HW253049   0.499   5.929   7.586 -0.0451  0.1516  0.7791
13799SOL     OW53050   6.406   5.285   1.675  0.5247 -0.4925  0.4654
13799SOL    HW153051   6.351   5.251   1.751 -0.9394 -0.7444 -0.6792
13799SOL    HW253052   6.352   5.347   1.618  2.0576  0.8791  0.4532
13800SOL     OW53053   3.676   8.867   1.348  0.2195 -0.0755  0.6896
13800SOL    HW153054   3.582   8.899   1.356  0.0616 -0.1008 -0.8666
13800SOL    HW253055   3.701   8.860   1.251  1.6684 -0.5153  1.0768
13801SOL     OW53056   5.334   2.017   4.024 -0.0673  0.6643  0.1083
13801SOL    HW153057   5.265   2.089   4.028 -0.4907  0.2688 -0.0575
13801SOL    HW253058   5.322   1.955   4.102  0.6855  1.1264  0.5936
13802SOL     OW53059   2.571   0.187   1.333 -0.5076  0.3741  0.4671
13802SOL    HW153060   2.526   0.182   1.243 -1.9226 -0.2931  1.1899
13802SOL    HW253061   2.501   0.188   1.405  0.6427 -0.4975  1.6126
13803SOL     OW53062   7.391   0.145   4.936 -0.0691 -0.4323 -0.4379
13803SOL    HW153063   7.471   0.086   4.930  0.0181 -0.2471 -1.1479
13803SOL    HW253064   7.317   0.096   4.981  0.1451 -0.9308 -0.6272
13804SOL     OW53065   2.640   3.452   0.722  0.1685 -0.5300  0.2025
13804SOL    HW153066   2.564   3.515   0.704  0.2594 -0.1912  0.9735
13804SOL    HW253067   2.611   3.359   0.702 -0.5009 -0.4169  0.6222
13805SOL     OW53068   3.119   7.310   4.248  0.3760  0.2001 -0.0904
13805SOL    HW153069   3.135   7.405   4.276 -2.1890  0.0131  2.3354
13805SOL    HW253070   3.033   7.305   4.197  1.8265 -0.4789 -2.5571
13806SOL     OW53071   9.977   1.041   3.147 -0.2302 -0.2806  0.1792
13806SOL    HW153072   9.962   1.031   3.245 -0.2907  1.4090  0.3427
13806SOL    HW253073   9.895   1.011   3.097 -0.8469  0.4943  0.7171
13807SOL     OW53074   5.816   0.516   1.873  0.4080 -0.0026  0.1765
13807SOL    HW153075   5.826   0.607   1.833 -0.9377 -0.2104 -0.6513
13807SOL    HW253076   5.788   0.525   1.969 -0.9378  0.4395 -0.2567
13808SOL     OW53077   0.451   7.191   3.021  0.5791  0.7109 -0.0043
13808SOL    HW153078   0.456   7.263   3.091  3.0101 -0.4100  1.0282
13808SOL    HW253079   0.538   7.186   2.972 -0.0443 -0.6194 -0.9947
13809SOL     OW53080   4.793   7.658   2.068  0.4150  0.3583 -0.2618
13809SOL    HW153081   4.737   7.602   2.007 -0.3445  0.9628 -0.1214
13809SOL    HW253082   4.734   7.705   2.134  1.2092 -0.2553  0.9276
13810SOL     OW53083   3.214   4.417   2.680  0.1434 -0.5973 -0.3619
13810SOL    HW153084   3.195   4.368   2.595 -2.6070 -0.4876  0.1597
13810SOL    HW253085   3.158   4.499   2.686  2.2518  0.8434  0.3653
13811SOL     OW53086   3.841   4.070   6.847 -0.5633 -0.1471  0.3612
13811SOL    HW153087   3.863   3.999   6.914  0.6726  0.3234  0.4627
13811SOL    HW253088   3.746   4.099   6.860 -0.2849  0.0761  2.0574
13812SOL     OW53089   6.423   6.579   5.514  0.3857 -0.1862  0.2862
13812SOL    HW153090   6.423   6.570   5.614  1.5416  2.1842  0.5391
13812SOL    HW253091   6.479   6.507   5.474  0.2256 -0.9265  1.3685
13813SOL     OW53092   7.638   9.458   4.091 -0.2301 -0.5361 -0.1391
13813SOL    HW153093   7.628   9.514   4.173  2.3257  2.6825 -1.9294
13813SOL    HW253094   7.712   9.392   4.105 -0.4369 -0.6628  0.4137
13814SOL     OW53095   8.712   2.365   0.691 -0.0610  0.3142  0.1444
13814SOL    HW153096   8.671   2.301   0.757 -0.1134  0.8061  0.5880
13814SOL    HW253097   8.674   2.456   0.705  0.1385  0.4769 -0.3831
13815SOL     OW53098   4.141   1.410   2.808  0.2558 -0.3260 -0.0958
13815SOL    HW153099   4.044   1.387   2.798  0.2334 -0.0066 -0.6232
13815SOL    HW253100   4.151   1.483   2.876  0.0128  0.5257 -0.9719
13816SOL     OW53101   2.776   5.323   6.434 -0.3826  0.5993 -0.2993
13816SOL    HW153102   2.772   5.391   6.508 -2.2985  1.3176 -1.0419
13816SOL    HW253103   2.864   5.332   6.387  1.0945 -0.2550  2.2282
13817SOL     OW53104   9.588   1.171   3.102 -0.2789  0.7784  0.3420
13817SOL    HW153105   9.502   1.164   3.050 -0.1588  1.6894  0.0178
13817SOL    HW253106   9.634   1.082   3.101 -0.1382  0.8467 -1.3653
13818SOL     OW53107   5.803   1.160   5.523  0.2908 -0.3459  0.0397
13818SOL    HW153108   5.728   1.200   5.470  0.3937 -0.6525 -0.3411
13818SOL    HW253109   5.871   1.230   5.543 -0.7480  0.2511  1.5546
13819SOL     OW53110   3.359   9.538   6.808 -0.3077 -0.4129  0.7688
13819SOL    HW153111   3.395   9.630   6.798  1.7614 -1.1386  1.3834
13819SOL    HW253112   3.287   9.538   6.878 -0.1770  0.6787  0.9132
13820SOL     OW53113   1.733   5.973   1.361 -0.3502  0.3172 -0.4895
13820SOL    HW153114   1.814   6.025   1.390 -0.0134 -0.7998  0.6015
13820SOL    HW253115   1.652   6.010   1.406 -0.0710 -0.2784  0.5082
13821SOL     OW53116   3.422   1.277   0.847 -0.0114 -0.5837 -0.2118
13821SOL    HW153117   3.332   1.234   0.855 -0.0820 -0.2732  0.8145
13821SOL    HW253118   3.450   1.280   0.751 -0.1847 -2.5337 -0.3399
13822SOL     OW53119   0.425   8.424   6.000  0.0198  0.4240 -0.1914
13822SOL    HW153120   0.331   8.398   6.021  0.2923 -0.4570 -0.0350
13822SOL    HW253121   0.437   8.522   6.015 -1.0963  0.7039 -1.0287
13823SOL     OW53122   3.225   1.691   4.467 -0.1218 -0.0317 -0.1766
13823SOL    HW153123   3.186   1.706   4.557  0.4072 -0.5716  0.1439
13823SOL    HW253124   3.155   1.653   4.406 -0.9470  1.9282 -0.4779
13824SOL     OW53125   3.804   8.429   4.902  0.3594 -0.1755 -0.7030
13824SOL    HW153126   3.874   8.388   4.843  1.0175  0.7350 -0.5771
13824SOL    HW253127   3.847   8.465   4.985 -0.5713 -1.4978  0.3707
13825SOL     OW53128   1.769   6.533   7.702  0.2700 -0.3126  0.3503
13825SOL    HW153129   1.835   6.591   7.655  1.0412 -1.9057 -0.5646
13825SOL    HW253130   1.817   6.466   7.758 -0.6097 -0.2038  1.2635
13826SOL     OW53131   1.049   1.864   7.321 -0.3363 -0.2831  0.6613
13826SOL    HW153132   0.960   1.903   7.342 -1.7489 -2.4839 -1.0586
13826SOL    HW253133   1.068   1.788   7.384 -0.6671 -1.2272 -0.3646
13827SOL     OW53134   3.142   3.885   5.429 -0.3174  0.1138 -0.0182
13827SOL    HW153135   3.057   3.875   5.480  0.5058 -0.4974  1.2561
13827SOL    HW253136   3.220   3.872   5.491  0.7092  1.5229 -0.9812
13828SOL     OW53137   2.908   2.587   2.372  0.2709  0.2717 -0.2927
13828SOL    HW153138   2.897   2.638   2.457 -1.9243 -1.1896  0.3382
13828SOL    HW253139   2.837   2.516   2.365  0.3034  0.4447 -3.3922
13829SOL     OW53140   1.677   3.076   3.252 -0.2980  0.0683 -0.1541
13829SOL    HW153141   1.656   2.982   3.224  0.0062 -0.2168  0.5448
13829SOL    HW253142   1.775   3.093   3.241  0.0193 -0.3963  1.6677
13830SOL     OW53143   8.600   5.288   6.083 -0.3603  0.4149 -0.5671
13830SOL    HW153144   8.507   5.262   6.109 -0.2534  0.9697  0.3865
13830SOL    HW253145   8.658   5.292   6.164 -0.0496  2.2582 -0.8424
13831SOL     OW53146   2.442   4.793   3.799  0.0983  0.5193  0.0285
13831SOL    HW153147   2.415   4.790   3.895 -1.5911  0.1563 -0.4436
13831SOL    HW253148   2.533   4.833   3.791  0.3761  0.2677  1.8025
13832SOL     OW53149   9.331   8.630   5.311  0.1683 -0.5299  0.2209
13832SOL    HW153150   9.257   8.693   5.336 -0.4916 -1.8333  1.6663
13832SOL    HW253151   9.399   8.678   5.255 -1.0897  1.0397  0.0166
13833SOL     OW53152   4.161   1.705   5.019  0.3809 -0.2890 -0.0826
13833SOL    HW153153   4.174   1.609   4.993  1.8755  0.1313 -0.9243
13833SOL    HW253154   4.249   1.747   5.037 -0.4116  0.4048  2.2945
13834SOL     OW53155   3.366   3.914   3.796 -0.5215 -0.0646 -0.0105
13834SOL    HW153156   3.279   3.907   3.748 -1.5358  2.0939  1.4496
13834SOL    HW253157   3.430   3.968   3.742 -0.9897  0.6384  0.1319
13835SOL     OW53158   4.864   1.013   0.010 -0.2238  0.2051  0.1025
13835SOL    HW153159   4.851   0.924  -0.034  1.8604 -0.1772  0.2231
13835SOL    HW253160   4.876   1.000   0.108 -0.1358  0.6524  0.1514
13836SOL     OW53161   9.535   5.326   3.548 -0.4382 -0.7703 -0.2509
13836SOL    HW153162   9.594   5.295   3.623 -0.0347 -0.7229 -0.5459
13836SOL    HW253163   9.441   5.300   3.567 -0.4178 -0.2927  0.5269
13837SOL     OW53164   9.633   2.107   4.020  0.0514  0.0825 -0.2871
13837SOL    HW153165   9.559   2.072   3.962 -0.0692 -0.1417 -0.0003
13837SOL    HW253166   9.667   2.193   3.982 -0.9031  0.6061  0.0123
13838SOL     OW53167   2.997   8.699   4.369  0.5544  0.4679 -0.0369
13838SOL    HW153168   2.974   8.797   4.371  0.2785  0.3938  1.5827
13838SOL    HW253169   2.923   8.647   4.413  1.4579 -0.2887  0.6168
13839SOL     OW53170   2.787   3.560   6.481  0.5259  0.1054  0.5102
13839SOL    HW153171   2.866   3.602   6.437  1.5338  0.4412  2.5613
13839SOL    HW253172   2.773   3.601   6.571 -0.4049 -1.7418  1.2433
13840SOL     OW53173   0.169   2.724   1.784 -0.0699 -0.5248 -0.8449
13840SOL    HW153174   0.104   2.791   1.747 -0.5675 -1.2294 -1.2520
13840SOL    HW253175   0.204   2.757   1.871 -1.3274 -0.3566 -0.3974
13841SOL     OW53176   6.307   4.193   1.575 -0.1211  0.1635  0.2133
13841SOL    HW153177   6.271   4.249   1.501  0.2341  0.0362 -0.0553
13841SOL    HW253178   6.232   4.162   1.633 -0.5021 -0.5314 -0.6414
13842SOL     OW53179   7.960   8.153   5.345 -0.0768  0.0739  0.2076
13842SOL    HW153180   7.990   8.057   5.343 -0.4820 -0.0535  0.2046
13842SOL    HW253181   7.911   8.175   5.261 -0.1764  0.2203  0.3044
13843SOL     OW53182   3.760   8.485   6.200 -0.4451  0.2513 -0.1650
13843SOL    HW153183   3.724   8.507   6.291  0.1569 -0.3566  0.2211
13843SOL    HW253184   3.784   8.570   6.152  1.5378  0.4565  1.1774
13844SOL     OW53185   0.284   6.481   4.622  0.4332  0.1364  0.0205
13844SOL    HW153186   0.323   6.521   4.539  0.8472 -1.3280 -0.4890
13844SOL    HW253187   0.311   6.385   4.630 -0.2445  0.0463  1.4452
13845SOL     OW53188   1.800   4.599   7.267  0.3318  0.2465  0.0028
13845SOL    HW153189   1.837   4.575   7.357 -1.4431  2.3936  1.3458
13845SOL    HW253190   1.874   4.633   7.208  1.0984  1.2518  1.5161
13846SOL     OW53191   0.832   5.493   0.406 -0.4173 -0.1342  0.4896
13846SOL    HW153192   0.894   5.434   0.353 -1.1518 -0.8499  0.4193
13846SOL    HW253193   0.829   5.461   0.501  0.4123  0.7659  0.8291
13847SOL     OW53194   8.316   5.970   5.802  0.2749 -0.6544 -0.4782
13847SOL    HW153195   8.335   5.964   5.704 -0.8007  2.4842 -0.9300
13847SOL    HW253196   8.222   6.003   5.816  0.9716  0.5305  1.6057
13848SOL     OW53197   8.498   3.323   0.601  0.2121  0.1575 -0.2620
13848SOL    HW153198   8.509   3.228   0.573  1.6125 -0.1187  1.1202
13848SOL    HW253199   8.575   3.377   0.567 -0.1295  0.6173 -0.3148
13849SOL     OW53200   9.016   2.581   5.806 -0.1965 -0.2765  0.2613
13849SOL    HW153201   8.944   2.531   5.757  0.1362  0.2060 -0.7333
13849SOL    HW253202   9.075   2.627   5.740  0.4380  0.1429  1.1139
13850SOL     OW53203   2.239   3.458   2.971 -0.4450 -0.3095  0.3846
13850SOL    HW153204   2.302   3.414   2.907 -0.1693  1.2577 -0.4610
13850SOL    HW253205   2.147   3.423   2.956 -0.0273 -1.5065  0.5899
13851SOL     OW53206   4.245   0.317   4.428  0.0929 -0.3732 -0.5531
13851SOL    HW153207   4.183   0.320   4.349 -0.3336  2.8650 -0.1616
13851SOL    HW253208   4.338   0.338   4.398  0.0025  0.4345 -0.2844
13852SOL     OW53209   2.669   3.783   1.626  0.2295  0.5117 -0.7807
13852SOL    HW153210   2.659   3.773   1.725 -1.0847  2.7051 -0.6484
13852SOL    HW253211   2.623   3.708   1.580  1.0791 -0.6692  0.2775
13853SOL     OW53212   6.735   6.735   5.785 -0.2206  0.8648  0.3345
13853SOL    HW153213   6.753   6.747   5.883  1.4332  1.1297  0.0182
13853SOL    HW253214   6.725   6.825   5.741  0.6873  0.8005 -0.0185
13854SOL     OW53215   0.380   8.674   0.572 -1.1694  0.5428  0.1441
13854SOL    HW153216   0.326   8.595   0.544 -1.5368  0.9138 -0.1775
13854SOL    HW253217   0.356   8.753   0.517 -1.1635  1.0142  0.8066
13855SOL     OW53218   5.280   3.489   7.900 -0.0802  0.2934 -0.1896
13855SOL    HW153219   5.219   3.565   7.921 -0.3901 -0.0399  0.1463
13855SOL    HW253220   5.340   3.472   7.979 -0.0688  0.1400 -0.2321
13856SOL     OW53221   7.285   3.818   0.765  0.1690  0.4225 -0.2383
13856SOL    HW153222   7.365   3.815   0.705 -0.0053 -1.5321 -0.4110
13856SOL    HW253223   7.313   3.798   0.859  0.0750  1.0197 -0.0838
13857SOL     OW53224   7.069   2.700   4.293 -0.2753  0.1406 -0.0265
13857SOL    HW153225   7.092   2.611   4.333  0.9214  0.5579  0.2421
13857SOL    HW253226   7.041   2.763   4.365  0.2691  0.4068 -0.0500
13858SOL     OW53227   4.330   9.265   1.045  0.5064  0.1034 -0.8333
13858SOL    HW153228   4.401   9.229   1.104  0.5547  1.6370  0.0920
13858SOL    HW253229   4.360   9.352   1.006 -0.8584  0.8158 -0.3616
13859SOL     OW53230   9.042   0.331   0.173  0.0538 -0.2417 -0.6684
13859SOL    HW153231   9.038   0.363   0.078 -0.1146 -0.8503 -0.8723
13859SOL    HW253232   9.055   0.409   0.234 -0.1176  0.1857 -1.1703
13860SOL     OW53233   8.539   7.893   2.518  0.6140 -0.7092 -0.5362
13860SOL    HW153234   8.543   7.807   2.570 -0.3563  0.8581  2.2637
13860SOL    HW253235   8.567   7.968   2.577 -2.0873  1.3663 -1.8030
13861SOL     OW53236   4.260   9.662   0.939 -0.6309 -0.4272  0.0067
13861SOL    HW153237   4.268   9.761   0.946 -0.0332 -0.4350 -0.4840
13861SOL    HW253238   4.226   9.637   0.848  0.2261 -0.7174 -0.2382
13862SOL     OW53239   9.883   3.035   4.592  0.8795 -0.4022  0.1192
13862SOL    HW153240   9.800   3.061   4.544  0.2310 -0.8786  0.9677
13862SOL    HW253241   9.946   3.113   4.595  0.6302 -0.1612 -0.8594
13863SOL     OW53242   0.650   2.108   1.151  0.0475  0.1280  0.4686
13863SOL    HW153243   0.593   2.056   1.088 -0.4175 -0.7061  1.5637
13863SOL    HW253244   0.739   2.127   1.108 -0.1817 -0.6276 -0.3423
13864SOL     OW53245   7.009   0.655   4.760  0.0020 -0.2009 -0.1225
13864SOL    HW153246   7.074   0.613   4.823  0.6259 -1.6283 -1.7003
13864SOL    HW253247   7.058   0.708   4.691 -0.6681  1.0707  0.3552
13865SOL     OW53248   9.332   4.860   1.002 -0.1419  0.9016 -0.6372
13865SOL    HW153249   9.351   4.927   1.073  1.8317 -2.1179  1.8368
13865SOL    HW253250   9.415   4.846   0.947  0.0545 -0.8260  0.0630
13866SOL     OW53251   0.520   6.906   5.949  0.8713  0.3125  0.0167
13866SOL    HW153252   0.577   6.974   5.902  0.1451 -0.5705 -2.1883
13866SOL    HW253253   0.424   6.934   5.944  0.8935  0.9234  2.2526
13867SOL     OW53254   9.486   2.420   1.267 -0.0369  0.1932 -0.4014
13867SOL    HW153255   9.388   2.420   1.247  0.2774 -1.2522 -2.0334
13867SOL    HW253256   9.504   2.358   1.344 -0.2261 -0.7353 -1.0924
13868SOL     OW53257   9.228   9.870   7.812 -0.6566  0.3639  0.4127
13868SOL    HW153258   9.243   9.911   7.902 -0.4609  0.9792  0.1001
13868SOL    HW253259   9.280   9.920   7.743 -0.0286 -0.7078  0.0968
13869SOL     OW53260   9.625   1.039   2.577 -0.2744 -0.2670  0.1024
13869SOL    HW153261   9.589   1.105   2.643  0.2021  0.6086 -0.5137
13869SOL    HW253262   9.633   0.949   2.622 -1.9230 -0.1707  0.6233
13870SOL     OW53263   0.206   7.086   7.442  0.4361  0.1645  0.5491
13870SOL    HW153264   0.195   7.185   7.434 -2.5703 -0.1719 -0.2236
13870SOL    HW253265   0.284   7.066   7.501  0.9245  2.9805  0.9549
13871SOL     OW53266   8.043   0.660   7.691 -0.0968  0.5588 -0.0999
13871SOL    HW153267   8.121   0.680   7.631  0.1265  1.3129  0.4324
13871SOL    HW253268   7.958   0.685   7.644  0.0763  1.1507 -0.1083
13872SOL     OW53269   1.143   4.103   7.262 -0.0370 -0.3640 -0.1885
13872SOL    HW153270   1.148   4.188   7.209  0.8775 -0.1702  0.2015
13872SOL    HW253271   1.202   4.111   7.342  1.3119 -1.9712 -0.9989
13873SOL     OW53272   8.806   0.192   3.893  0.0387 -0.6725 -0.0633
13873SOL    HW153273   8.799   0.268   3.829 -2.6942 -2.2903 -1.8057
13873SOL    HW253274   8.870   0.124   3.857 -0.7008 -1.1017 -0.5754
13874SOL     OW53275   0.086   4.467   2.148 -0.3832  0.5164  0.4327
13874SOL    HW153276   0.107   4.537   2.080 -3.1984  2.1912  1.2009
13874SOL    HW253277   0.119   4.495   2.237  0.6090 -0.2628  0.3142
13875SOL     OW53278   8.384   9.530   1.997  0.4908  0.0033 -0.2046
13875SOL    HW153279   8.441   9.456   2.033  0.5697 -0.6675 -1.6607
13875SOL    HW253280   8.436   9.582   1.929 -0.2934  0.0420 -0.7747
13876SOL     OW53281   6.609   7.773   3.705 -0.4935 -0.2147  0.1940
13876SOL    HW153282   6.540   7.843   3.722 -0.0510  0.1228  0.5973
13876SOL    HW253283   6.566   7.683   3.704 -0.6978 -0.1540  2.0058
13877SOL     OW53284   8.626   8.766   0.496 -0.4571 -0.1908  0.5581
13877SOL    HW153285   8.659   8.858   0.474  1.3422  0.0130  3.6768
13877SOL    HW253286   8.593   8.721   0.413  0.5655  2.4911 -1.3796
13878SOL     OW53287   8.290   9.505   3.155  0.3663 -0.4058  0.4017
13878SOL    HW153288   8.216   9.469   3.098 -0.1484  1.0254  0.1502
13878SOL    HW253289   8.294   9.605   3.145  0.0348 -0.0927  3.1742
13879SOL     OW53290   8.608   1.743   5.256  0.1257 -0.0187  0.2470
13879SOL    HW153291   8.707   1.744   5.271  0.0210 -1.0976  1.1288
13879SOL    HW253292   8.588   1.717   5.161  0.6791 -0.9639  0.3789
13880SOL     OW53293   1.837   1.774   7.911 -0.3168 -0.3107 -0.3261
13880SOL    HW153294   1.756   1.829   7.894  0.6783  1.1331 -0.5539
13880SOL    HW253295   1.883   1.808   7.994 -0.4787 -1.7470  0.3576
13881SOL     OW53296   0.053   5.094   0.093  0.4938  0.2889 -0.6839
13881SOL    HW153297   0.069   5.172   0.033  1.1280  0.8606  0.2228
13881SOL    HW253298   0.060   5.123   0.188 -0.8286 -0.5474 -0.3210
13882SOL     OW53299   9.361   0.291   2.828 -0.1372 -0.2814 -0.3335
13882SOL    HW153300   9.358   0.337   2.739 -1.7584 -1.9144 -1.1464
13882SOL    HW253301   9.456   0.272   2.853  0.3958  1.1660 -1.1839
13883SOL     OW53302   0.108   0.888   4.389 -0.4911 -0.0942 -0.6196
13883SOL    HW153303   0.026   0.841   4.421  0.2714  0.3001  2.0041
13883SOL    HW253304   0.111   0.980   4.427  1.6742 -0.4589  0.1778
13884SOL     OW53305   0.933   3.216   5.840  0.2622  0.2725 -0.1723
13884SOL    HW153306   0.888   3.162   5.769 -0.1028  1.2235 -0.6896
13884SOL    HW253307   1.031   3.197   5.840 -0.1141 -1.8020  0.9447
13885SOL     OW53308   7.655   5.357   7.562 -0.2058  0.1758 -0.1007
13885SOL    HW153309   7.675   5.413   7.643  0.7869 -0.8302  0.3666
13885SOL    HW253310   7.632   5.264   7.591 -2.4952  0.4888 -0.8424
13886SOL     OW53311   1.161   4.923   7.970  0.6268 -0.0183  0.5751
13886SOL    HW153312   1.244   4.930   8.026  0.1385  1.8368  1.1147
13886SOL    HW253313   1.094   4.991   8.001 -0.7934 -0.9667 -0.3631
13887SOL     OW53314   9.799   7.578   1.725  0.4728 -0.2239  0.3436
13887SOL    HW153315   9.855   7.511   1.676  1.7937  0.4724  0.8840
13887SOL    HW253316   9.842   7.668   1.719 -0.3534  0.2295  1.1685
13888SOL     OW53317   1.552   7.808   7.403 -0.1341 -0.0818  0.8170
13888SOL    HW153318   1.587   7.774   7.316 -1.3407 -0.5696  0.5214
13888SOL    HW253319   1.486   7.882   7.386  0.2277  0.3756  1.3505
13889SOL     OW53320   1.181   4.326   0.843 -0.4041  0.2859 -0.5999
13889SOL    HW153321   1.138   4.271   0.771 -1.1908  0.2066 -0.0700
13889SOL    HW253322   1.279   4.337   0.823 -0.4923 -0.2873 -1.3382
13890SOL     OW53323   4.492   1.501   0.667 -0.3223  0.0865  0.2810
13890SOL    HW153324   4.398   1.524   0.691 -0.7343 -0.5255 -0.6987
13890SOL    HW253325   4.497   1.477   0.570  1.1753  1.8875 -0.1368
13891SOL     OW53326   1.180   9.205   5.014  0.0130 -0.1470 -0.1248
13891SOL    HW153327   1.097   9.152   5.032 -0.2536  0.4110  0.3185
13891SOL    HW253328   1.162   9.272   4.942  0.9550 -2.0794 -2.1865
13892SOL     OW53329   2.934   7.748   5.116 -0.5666  0.7410 -0.0430
13892SOL    HW153330   2.995   7.819   5.083 -1.8070  2.1288  0.5861
13892SOL    HW253331   2.944   7.739   5.216 -0.9534  0.5625 -0.0187
13893SOL     OW53332   2.713   8.604   1.838  0.1820  0.0992  0.3568
13893SOL    HW153333   2.730   8.702   1.838 -2.5504  0.6081  0.2182
13893SOL    HW253334   2.666   8.579   1.923 -2.6652 -0.3885 -1.2944
13894SOL     OW53335   2.339   0.372   0.049 -0.5758 -0.5675  0.4063
13894SOL    HW153336   2.402   0.447   0.069 -3.3283  2.2879 -0.9089
13894SOL    HW253337   2.342   0.352  -0.049 -0.1545 -1.8816  0.6910
13895SOL     OW53338   8.872   2.545   6.029 -0.0605  0.5483 -0.4891
13895SOL    HW153339   8.917   2.573   5.945  0.9801  0.8588  0.1627
13895SOL    HW253340   8.924   2.472   6.073 -0.2953  0.7656  0.1645
13896SOL     OW53341   6.735   1.567   4.894  0.4144  0.5650 -0.1705
13896SOL    HW153342   6.796   1.589   4.970 -0.1647  1.7989 -0.0577
13896SOL    HW253343   6.651   1.525   4.929  2.2687 -3.7758 -0.4905
13897SOL     OW53344   1.372   4.683   7.882  0.1027 -0.0735  0.1481
13897SOL    HW153345   1.450   4.743   7.899  0.5208 -1.0127  1.6401
13897SOL    HW253346   1.333   4.704   7.793  2.2546  0.2071 -0.7754
13898SOL     OW53347   7.582   1.158   6.501  0.0429 -0.1399  0.0449
13898SOL    HW153348   7.609   1.231   6.438  1.4207 -1.4898 -0.9553
13898SOL    HW253349   7.482   1.156   6.508 -0.0034  2.3868  0.7700
13899SOL     OW53350   7.160   9.927   1.305  0.1617  0.7355 -0.2279
13899SOL    HW153351   7.232   9.869   1.344  0.9712  1.4394 -0.6662
13899SOL    HW253352   7.140   9.897   1.212  0.0451  0.6809 -0.1848
13900SOL     OW53353   5.200   5.370   0.019  0.7276 -0.1075  0.4597
13900SOL    HW153354   5.291   5.374  -0.020 -0.2935  0.5076 -1.9184
13900SOL    HW253355   5.132   5.371  -0.054 -1.2144  0.2589  2.2295
13901SOL     OW53356   9.838   0.910   5.149  0.7544  0.5817 -0.2653
13901SOL    HW153357   9.860   0.922   5.246  0.7453 -0.8342 -0.0660
13901SOL    HW253358   9.744   0.938   5.132  0.5403  0.2022  0.2784
13902SOL     OW53359   3.446   1.238   5.706 -0.5644 -0.2355 -0.4026
13902SOL    HW153360   3.356   1.279   5.721 -1.2077 -0.8672 -2.4485
13902SOL    HW253361   3.467   1.238   5.608  1.5853 -0.2703  0.0381
13903SOL     OW53362   0.565   1.231   3.843 -0.0348 -0.1289 -0.0244
13903SOL    HW153363   0.582   1.302   3.775 -0.5428 -0.0070 -0.0273
13903SOL    HW253364   0.549   1.273   3.932  3.2498 -0.3910  0.7520
13904SOL     OW53365   2.400   2.338   3.565  0.0726 -0.4283 -0.8714
13904SOL    HW153366   2.423   2.428   3.599 -0.9521 -0.2164 -0.7306
13904SOL    HW253367   2.393   2.341   3.465 -3.2016  0.4315 -0.6709
13905SOL     OW53368   6.727   1.465   7.487  0.0617 -0.0399  0.2413
13905SOL    HW153369   6.686   1.495   7.401 -1.8703 -1.6309  0.5693
13905SOL    HW253370   6.786   1.386   7.470  0.3505  0.1719  0.2560
13906SOL     OW53371   8.538   2.027   8.131 -0.1774  0.3175 -0.1419
13906SOL    HW153372   8.546   1.933   8.096 -0.3179 -0.1427  1.0451
13906SOL    HW253373   8.616   2.047   8.190  0.3880  1.3111 -1.2059
13907SOL     OW53374   4.265   2.297   1.106  0.4273  0.1131  0.1145
13907SOL    HW153375   4.178   2.317   1.151 -0.1052 -2.3091  0.2575
13907SOL    HW253376   4.280   2.198   1.108  1.3548  0.1486 -3.2592
13908SOL     OW53377   4.659   2.909   4.679  0.2771 -0.1999  0.2123
13908SOL    HW153378   4.736   2.969   4.659  0.6590 -0.5906  0.4901
13908SOL    HW253379   4.694   2.820   4.709 -0.2737 -1.1539 -1.9111
13909SOL     OW53380   3.411   7.194   4.372  0.7194  0.2003  0.2516
13909SOL    HW153381   3.427   7.097   4.384 -1.1659  0.0637  2.0049
13909SOL    HW253382   3.325   7.208   4.321  2.3461  0.9532 -2.4236
13910SOL     OW53383   0.469   8.441   3.642 -0.6170  0.3601  0.1878
13910SOL    HW153384   0.400   8.445   3.715 -2.1266 -1.5104 -1.1059
13910SOL    HW253385   0.424   8.438   3.553  1.1764  0.4750 -0.7431
13911SOL     OW53386   4.809   7.686   3.847  0.4385 -0.2988 -1.0132
13911SOL    HW153387   4.770   7.776   3.866 -0.1720 -0.2959 -2.2486
13911SOL    HW253388   4.903   7.683   3.882 -0.3188 -0.0094  1.1844
13912SOL     OW53389   8.619   9.704   0.532 -0.0300 -0.7834 -0.1944
13912SOL    HW153390   8.635   9.791   0.577  0.7115 -0.8492 -0.3193
13912SOL    HW253391   8.523   9.697   0.506 -0.1671 -0.1608  0.1405
13913SOL     OW53392   1.466   6.293   3.187  0.2146 -0.3560 -0.3800
13913SOL    HW153393   1.428   6.206   3.220  0.9576  0.0545  1.6139
13913SOL    HW253394   1.391   6.352   3.157 -0.3097 -1.6032 -1.5427
13914SOL     OW53395   6.824   7.092   5.168  0.2464  0.5436  0.0998
13914SOL    HW153396   6.894   7.161   5.152 -2.1589  2.9596 -0.2712
13914SOL    HW253397   6.781   7.066   5.081 -0.1146 -0.0580  0.4526
13915SOL     OW53398   3.830   7.290   0.114  0.5820  0.2524  0.7289
13915SOL    HW153399   3.908   7.277   0.052  0.1531 -2.5532  0.6986
13915SOL    HW253400   3.862   7.288   0.208  0.2610 -4.0853  0.8425
13916SOL     OW53401   1.296   3.324   5.870  0.2299  0.2346  0.0734
13916SOL    HW153402   1.251   3.279   5.793  0.4929 -0.8794  0.5711
13916SOL    HW253403   1.244   3.406   5.894 -0.5189 -0.0514 -0.5235
13917SOL     OW53404   2.671   1.603   7.887  0.6296 -0.0617 -0.3771
13917SOL    HW153405   2.645   1.525   7.945  1.8730 -0.5245 -0.4337
13917SOL    HW253406   2.592   1.629   7.830 -0.5251  0.2402  1.3271
13918SOL     OW53407   1.886   2.840   3.026 -0.0551 -0.1528  0.1699
13918SOL    HW153408   1.885   2.920   2.967  0.1635  1.0292  1.7293
13918SOL    HW253409   1.792   2.820   3.055  0.0243  0.2626  0.7230
13919SOL     OW53410   9.471   3.533   0.388  0.2018 -0.0303 -0.3390
13919SOL    HW153411   9.442   3.510   0.480 -0.0813 -0.3554 -0.5115
13919SOL    HW253412   9.391   3.551   0.331  0.4012  0.9570 -0.3139
13920SOL     OW53413   6.900   2.320   8.158 -0.2336 -0.4382  0.3400
13920SOL    HW153414   6.962   2.265   8.102 -1.1679  0.2563 -1.4464
13920SOL    HW253415   6.934   2.414   8.162 -0.8760 -0.1771 -0.2067
13921SOL     OW53416   1.628   0.480   7.332  0.1945 -0.2852  0.3745
13921SOL    HW153417   1.687   0.528   7.268 -0.1411  1.6725  1.5096
13921SOL    HW253418   1.667   0.483   7.423 -1.4259  0.6569  1.0624
13922SOL     OW53419   4.775   1.628   3.184 -0.2780 -0.5435  0.2462
13922SOL    HW153420   4.774   1.595   3.089 -0.4125 -0.3752  0.1880
13922SOL    HW253421   4.761   1.552   3.246  1.2918 -0.8890  0.1990
13923SOL     OW53422   1.714   0.298   1.390  0.4163 -0.1423 -0.1097
13923SOL    HW153423   1.645   0.364   1.361  0.7366  0.5756  0.7315
13923SOL    HW253424   1.792   0.347   1.428 -0.1079 -1.0454  2.2072
13924SOL     OW53425   8.920   5.068   4.697  0.1810 -0.3171  0.1793
13924SOL    HW153426   8.885   4.975   4.682 -1.0196  0.0193  0.8294
13924SOL    HW253427   8.898   5.096   4.791  0.2575  0.7464 -0.1249
13925SOL     OW53428   3.934   9.559   0.332  0.2561 -0.4381 -0.1636
13925SOL    HW153429   3.893   9.480   0.285  0.4341  0.2673 -1.5115
13925SOL    HW253430   3.882   9.641   0.311 -0.6629 -0.3522  2.2141
13926SOL     OW53431   2.161   3.187   7.078 -0.1448 -0.1617  0.7924
13926SOL    HW153432   2.169   3.224   7.170 -1.7966  0.6075  0.6512
13926SOL    HW253433   2.075   3.136   7.070  0.8633 -1.7988  0.2101
13927SOL     OW53434   1.496   4.264   0.772 -0.4669 -0.3125  0.5588
13927SOL    HW153435   1.442   4.313   0.704 -0.0838 -0.7175 -0.0470
13927SOL    HW253436   1.468   4.168   0.774  1.6510 -1.0136 -1.2835
13928SOL     OW53437   8.073   7.077   5.829  0.2219 -0.0351  0.3650
13928SOL    HW153438   8.024   7.004   5.782  1.0436 -0.4381  0.1360
13928SOL    HW253439   8.063   7.067   5.928  1.2972 -1.1200  0.3670
13929SOL     OW53440   7.656   0.871   7.645 -0.2902  0.0049 -0.2228
13929SOL    HW153441   7.576   0.897   7.591 -0.2981 -0.3638 -0.3902
13929SOL    HW253442   7.629   0.803   7.713 -0.4699  1.1241  0.8515
13930SOL     OW53443   4.032   5.342   4.240 -0.4635  0.4203  0.0292
13930SOL    HW153444   4.092   5.375   4.167 -1.5005 -0.5780 -1.2988
13930SOL    HW253445   4.087   5.301   4.312  0.5502  0.9264 -0.4454
13931SOL     OW53446   1.084   6.105   6.017  0.2566 -0.4794  0.1037
13931SOL    HW153447   1.084   6.089   5.918 -0.1541 -0.0403  0.0326
13931SOL    HW253448   1.177   6.096   6.052  0.2384 -1.7409 -0.1422
13932SOL     OW53449   8.326   5.520   6.759 -0.2628  0.1682  0.1362
13932SOL    HW153450   8.270   5.542   6.679 -0.9620  0.6650  0.7608
13932SOL    HW253451   8.332   5.420   6.768 -0.2941  0.1118 -0.4612
13933SOL     OW53452   0.349   1.460   5.705 -0.0661 -0.1495 -0.3269
13933SOL    HW153453   0.256   1.449   5.669  0.2301  0.3056 -1.2616
13933SOL    HW253454   0.361   1.552   5.740 -0.4961 -0.7335  1.4011
13934SOL     OW53455   3.334   2.288   6.125 -0.3318  0.5600  0.4405
13934SOL    HW153456   3.295   2.205   6.086  0.2552  0.2452  0.5143
13934SOL    HW253457   3.432   2.291   6.107 -0.5414  1.8170 -0.5714
13935SOL     OW53458   2.643   6.292   3.102 -0.2955 -0.2761  0.1015
13935SOL    HW153459   2.724   6.236   3.087 -0.4305 -0.0318 -1.6215
13935SOL    HW253460   2.632   6.309   3.200  1.7429 -0.2862  0.3533
13936SOL     OW53461   7.459   4.611   2.247 -0.7123  0.4537  0.4694
13936SOL    HW153462   7.428   4.703   2.223 -1.1674  0.3368  0.6039
13936SOL    HW253463   7.487   4.563   2.164 -1.9117  0.1905  0.2018
13937SOL     OW53464   2.415   2.819   5.026 -0.1404  0.1995 -0.3154
13937SOL    HW153465   2.381   2.910   5.051  3.3658  0.7113  3.0492
13937SOL    HW253466   2.470   2.826   4.943  0.7446  1.3271  0.3497
13938SOL     OW53467   6.114   0.175   4.437  0.1961  0.2644 -0.4405
13938SOL    HW153468   6.213   0.191   4.438  0.2545  0.0260  2.2965
13938SOL    HW253469   6.094   0.090   4.388  1.3064  0.5211 -1.3579
13939SOL     OW53470   5.317   3.286   1.658  0.3154 -0.1552  0.4078
13939SOL    HW153471   5.403   3.239   1.677 -0.0272 -0.7308  0.5388
13939SOL    HW253472   5.314   3.312   1.561  0.3732 -0.6879  0.2604
13940SOL     OW53473   1.427   8.812   6.058 -0.2344 -0.4762 -0.4857
13940SOL    HW153474   1.472   8.808   5.969  1.0062 -0.5988  0.1380
13940SOL    HW253475   1.396   8.906   6.076  0.3837 -0.2448 -0.6255
13941SOL     OW53476   3.021   4.487   7.395 -0.4550  0.1212 -0.3641
13941SOL    HW153477   3.049   4.508   7.301  0.0208 -1.2070 -0.5333
13941SOL    HW253478   3.102   4.485   7.453 -0.7619  1.0410  0.1000
13942SOL     OW53479   0.053   5.106   4.519 -0.5140  0.3037 -0.1994
13942SOL    HW153480   0.014   5.178   4.460  0.0637  0.6712 -0.1353
13942SOL    HW253481   0.021   5.120   4.613  0.1001  0.8512 -0.0682
13943SOL     OW53482   5.048   8.388   4.672 -0.2715 -0.0545  0.1114
13943SOL    HW153483   4.962   8.437   4.661  0.4284  0.5589 -3.3374
13943SOL    HW253484   5.046   8.304   4.618  1.3352  0.0623 -0.1697
13944SOL     OW53485   9.606   1.638   5.162  0.2406  0.0102  0.5027
13944SOL    HW153486   9.531   1.637   5.228  1.4287  1.2366  1.9135
13944SOL    HW253487   9.620   1.731   5.129  0.1162 -0.4790 -0.9627
13945SOL     OW53488   0.087   8.510   5.367 -0.5367 -0.1489 -0.0190
13945SOL    HW153489   0.055   8.427   5.414  1.1253  0.1266  1.6734
13945SOL    HW253490   0.038   8.589   5.404 -0.1787 -0.0843  0.3255
13946SOL     OW53491   1.437   6.559   6.634  0.0670 -0.1152 -0.3131
13946SOL    HW153492   1.482   6.557   6.545  1.8972 -0.7895  0.6119
13946SOL    HW253493   1.343   6.527   6.624  0.5898 -1.2097 -1.8274
13947SOL     OW53494   4.066   2.442   6.797 -0.0825  0.1691  0.0091
13947SOL    HW153495   4.016   2.356   6.802  0.1557 -0.0696 -1.5454
13947SOL    HW253496   4.002   2.519   6.797 -0.3540 -0.0585 -0.0600
13948SOL     OW53497   9.024   7.179   4.190 -0.1170 -0.6434 -0.1090
13948SOL    HW153498   8.982   7.146   4.275  1.8832 -1.9424  0.4086
13948SOL    HW253499   8.967   7.250   4.150 -1.0613  0.0430  2.3667
13949SOL     OW53500   3.278   7.994   5.357  0.5559 -0.2870  0.4236
13949SOL    HW153501   3.286   7.899   5.329  0.0641  0.7437 -3.4895
13949SOL    HW253502   3.200   8.036   5.311  2.3514  2.6902 -0.0418
13950SOL     OW53503   2.378   4.086   0.356  0.2308 -0.3757 -0.0222
13950SOL    HW153504   2.337   4.167   0.316 -0.9964 -1.9120 -2.0074
13950SOL    HW253505   2.328   4.059   0.438  1.6188  1.7321  1.5683
13951SOL     OW53506   5.799   2.062   4.804 -0.3819 -0.2404 -0.6025
13951SOL    HW153507   5.777   2.034   4.710  0.6394 -2.2510 -0.2722
13951SOL    HW253508   5.842   1.985   4.852 -2.9401  0.0097  2.2255
13952SOL     OW53509   2.571   8.252   1.605 -0.6847  0.0914 -0.0930
13952SOL    HW153510   2.601   8.340   1.641 -0.7440  0.4657 -0.9276
13952SOL    HW253511   2.556   8.261   1.506  1.0542 -1.3215 -0.5129
13953SOL     OW53512   2.085   6.975   5.564  0.4521 -0.1519 -0.2179
13953SOL    HW153513   2.114   7.034   5.640  2.4489 -0.1363 -0.9557
13953SOL    HW253514   1.999   6.930   5.587 -0.0983  1.5780  1.1357
13954SOL     OW53515   6.517   1.029   3.437  0.0655  0.0299  0.2921
13954SOL    HW153516   6.615   1.009   3.448 -0.2026 -0.7453  1.4015
13954SOL    HW253517   6.495   1.112   3.488  0.5972  1.5395 -1.8901
13955SOL     OW53518   5.574   4.227   1.823 -0.3786  0.3427  0.7629
13955SOL    HW153519   5.629   4.262   1.899 -0.4297  0.9579  0.5246
13955SOL    HW253520   5.597   4.131   1.806 -0.1428  0.2936  1.3496
13956SOL     OW53521   6.320   9.769   4.571 -0.1360 -0.1811  0.1700
13956SOL    HW153522   6.418   9.767   4.550 -0.3006 -2.5432 -0.5849
13956SOL    HW253523   6.269   9.797   4.489 -0.3227 -2.8909 -0.7019
13957SOL     OW53524   0.251   6.747   2.357  0.0026  0.2194  0.3400
13957SOL    HW153525   0.283   6.772   2.266 -0.3207 -1.1227 -0.1540
13957SOL    HW253526   0.330   6.721   2.414  0.2112  1.1290  0.4726
13958SOL     OW53527   2.847   8.231   2.075 -0.3783 -0.5032 -0.4268
13958SOL    HW153528   2.862   8.147   2.024 -1.4841 -0.9718  0.0048
13958SOL    HW253529   2.752   8.234   2.107 -1.0151  1.9530 -2.3540
13959SOL     OW53530   4.991   5.319   1.144  0.0725  0.1517 -0.6410
13959SOL    HW153531   5.067   5.346   1.203  0.7798 -0.2464 -1.3610
13959SOL    HW253532   5.017   5.330   1.048 -0.8434  0.1896 -0.8890
13960SOL     OW53533   0.306   7.518   2.556 -0.1054  0.6206 -0.2934
13960SOL    HW153534   0.336   7.491   2.647 -1.4779 -3.2956 -0.8879
13960SOL    HW253535   0.386   7.524   2.496  0.5435  0.6360  0.5660
13961SOL     OW53536   1.770   3.389   8.114 -0.4164 -0.4191 -0.3342
13961SOL    HW153537   1.808   3.482   8.110 -1.2623  0.0063  1.3257
13961SOL    HW253538   1.837   3.328   8.157 -1.5503  0.3275  2.5738
13962SOL     OW53539   1.911   2.172   2.326 -1.1891  0.2794 -0.4346
13962SOL    HW153540   1.949   2.199   2.414 -0.5552 -0.3425 -0.5070
13962SOL    HW253541   1.916   2.250   2.262 -2.7849  1.1052  0.4251
13963SOL     OW53542   7.314   5.342   7.623 -0.0658  0.0682  0.1145
13963SOL    HW153543   7.318   5.392   7.537 -1.1237  0.8248  0.4823
13963SOL    HW253544   7.273   5.253   7.608 -0.3361  0.2347 -0.1524
13964SOL     OW53545   6.490   0.203   2.485  0.3799 -0.1725  0.5828
13964SOL    HW153546   6.587   0.218   2.465  0.4453 -2.1677 -0.8035
13964SOL    HW253547   6.477   0.110   2.519 -1.1759 -0.2618 -0.1858
13965SOL     OW53548   1.022   4.859   5.007  0.0922 -0.3819 -0.2038
13965SOL    HW153549   0.960   4.847   4.929 -1.8687 -0.2957  1.3211
13965SOL    HW253550   1.031   4.772   5.056 -0.3107  0.0637  0.6674
13966SOL     OW53551   3.231   9.779   1.701 -0.5912  0.4301  0.0773
13966SOL    HW153552   3.254   9.722   1.623 -2.0972 -0.3399  0.1701
13966SOL    HW253553   3.311   9.790   1.760 -0.4699 -2.2298  0.4753
13967SOL     OW53554   0.673   4.715   4.252 -0.5244 -0.0212  0.4026
13967SOL    HW153555   0.742   4.655   4.292  1.2290  1.0998 -0.8821
13967SOL    HW253556   0.593   4.717   4.312  0.0036 -2.3710  1.2566
13968SOL     OW53557   6.975   0.938   4.470 -0.9666 -0.0293  0.2403
13968SOL    HW153558   6.991   1.035   4.492 -2.8561  0.6382 -1.2102
13968SOL    HW253559   7.039   0.881   4.523  1.9476  2.1341 -0.8248
13969SOL     OW53560   3.337   7.015   1.113  0.0323  0.0214 -0.3052
13969SOL    HW153561   3.243   7.029   1.146 -0.5570 -1.3205 -1.3282
13969SOL    HW253562   3.389   7.100   1.121 -2.0676  1.5687 -2.2192
13970SOL     OW53563   7.887   6.781   3.907 -0.0147  0.6114  0.8943
13970SOL    HW153564   7.831   6.698   3.911 -3.8976  2.9650 -1.1378
13970SOL    HW253565   7.842   6.853   3.960  2.3229  1.9708  1.0719
13971SOL     OW53566   0.544   8.218   6.831 -0.1364 -0.7621  0.4962
13971SOL    HW153567   0.551   8.290   6.761  1.0505 -0.5577  0.8129
13971SOL    HW253568   0.603   8.240   6.908  1.6550 -2.9491 -0.1884
13972SOL     OW53569   0.592   5.005   3.177 -0.0261  0.0421  0.3947
13972SOL    HW153570   0.686   5.005   3.210  0.4888  1.3431 -1.0209
13972SOL    HW253571   0.554   5.097   3.183 -1.5990 -0.6624  1.9547
13973SOL     OW53572   7.129   7.194   4.807 -0.4189 -0.4756  0.0300
13973SOL    HW153573   7.084   7.283   4.805 -0.8442 -0.6584  1.1916
13973SOL    HW253574   7.224   7.205   4.838 -0.0914 -0.2839 -1.0004
13974SOL     OW53575   6.276   0.191   0.642  0.6171 -0.0837  0.1630
13974SOL    HW153576   6.219   0.116   0.675  0.0866  0.5980  0.8361
13974SOL    HW253577   6.334   0.224   0.717  3.6970 -2.3328 -1.1089
13975SOL     OW53578   5.580   1.488   4.533  0.4983 -0.4104  0.4293
13975SOL    HW153579   5.514   1.499   4.607 -0.5992  0.9168 -0.7257
13975SOL    HW253580   5.661   1.542   4.552  0.4104 -0.4314  0.8733
13976SOL     OW53581   8.725   5.152   6.952  0.2665  0.0086  0.3594
13976SOL    HW153582   8.684   5.227   6.902 -0.1654 -1.0287 -0.8657
13976SOL    HW253583   8.665   5.126   7.028 -0.4648 -0.2967 -0.3184
13977SOL     OW53584   1.836   3.622   0.170  0.2154  0.1339 -0.6718
13977SOL    HW153585   1.908   3.553   0.182 -0.3099 -0.0897  1.3269
13977SOL    HW253586   1.752   3.577   0.140  0.2006  0.0377 -0.4933
13978SOL     OW53587   7.777   7.382   6.876  0.4213 -0.0599 -0.1579
13978SOL    HW153588   7.805   7.367   6.971 -0.3177 -0.7540 -0.0453
13978SOL    HW253589   7.779   7.479   6.855 -0.9561  0.2426  1.0525
13979SOL     OW53590   2.814   4.521   1.195  0.0748 -0.4668 -0.6048
13979SOL    HW153591   2.741   4.516   1.128  0.3568 -1.3308 -0.8510
13979SOL    HW253592   2.776   4.543   1.285 -0.3245  0.4606 -0.9992
13980SOL     OW53593   3.383   5.904   5.937  0.0260  0.0664 -0.6564
13980SOL    HW153594   3.426   5.819   5.968 -0.4198 -0.5374 -1.6833
13980SOL    HW253595   3.451   5.977   5.938  0.7120 -0.5583 -0.8789
13981SOL     OW53596   1.159   8.343   1.132  0.2492  0.0551  0.3839
13981SOL    HW153597   1.099   8.422   1.148  1.3946  0.6329  1.9133
13981SOL    HW253598   1.138   8.272   1.199 -0.7829 -0.9801 -0.9957
13982SOL     OW53599   7.082   9.589   3.921 -0.1021  0.2180 -0.2283
13982SOL    HW153600   7.052   9.498   3.890 -1.6702  0.3660  0.7693
13982SOL    HW253601   7.181   9.597   3.910 -0.0896 -1.1973 -1.3848
13983SOL     OW53602   3.579   7.372   4.526  0.2202  0.1841 -0.4114
13983SOL    HW153603   3.648   7.421   4.473  1.7737 -2.2472 -0.7073
13983SOL    HW253604   3.534   7.304   4.469  0.5625 -1.1483  0.8646
13984SOL     OW53605   5.851   6.775   0.730 -0.5114  0.0613 -0.0837
13984SOL    HW153606   5.851   6.709   0.655 -1.1346 -0.0098 -0.0260
13984SOL    HW253607   5.770   6.833   0.723 -0.5668  0.0598  0.5335
13985SOL     OW53608   9.895   5.828   2.541 -0.3958  0.2435  0.3241
13985SOL    HW153609   9.844   5.913   2.537  0.8807  1.0363  0.5863
13985SOL    HW253610   9.854   5.768   2.609 -1.6803  0.3831 -0.3107
13986SOL     OW53611   3.633   9.678   6.572  0.3986  0.6573 -0.7299
13986SOL    HW153612   3.636   9.579   6.571  1.0910  0.6691 -0.0890
13986SOL    HW253613   3.691   9.715   6.500  3.1933  0.6382  1.4292
13987SOL     OW53614   9.009   3.375   3.649  0.1259  0.4405  0.5089
13987SOL    HW153615   8.972   3.384   3.742  0.6586 -1.0832  0.8671
13987SOL    HW253616   8.970   3.295   3.605  1.8706 -0.3452  0.3574
13988SOL     OW53617   9.089   4.120   5.062  0.1689  0.4542 -0.1588
13988SOL    HW153618   9.075   4.031   5.105 -1.1953  0.5202 -0.4197
13988SOL    HW253619   9.033   4.189   5.108  0.0613  0.8755 -0.8986
13989SOL     OW53620   6.829   2.340   3.597 -0.2478  0.1147  0.2146
13989SOL    HW153621   6.898   2.294   3.542  2.3461  2.4053  1.3949
13989SOL    HW253622   6.770   2.395   3.538  0.1108 -0.4383 -0.6551
13990SOL     OW53623   7.212   2.083   7.824 -0.4735  0.1236  0.4222
13990SOL    HW153624   7.310   2.065   7.832 -0.5248  0.3936  1.7454
13990SOL    HW253625   7.164   1.997   7.806 -0.0888 -0.1323  0.6142
13991SOL     OW53626   8.968   0.629   2.395 -0.0458 -1.0340  0.3118
13991SOL    HW153627   8.890   0.582   2.354 -0.2951 -0.7519  0.4550
13991SOL    HW253628   8.940   0.673   2.480 -0.2869  0.9411 -0.7484
13992SOL     OW53629   2.663   0.398   2.319  0.0927 -0.3494 -0.1571
13992SOL    HW153630   2.577   0.390   2.369  0.5234  1.7607  0.9518
13992SOL    HW253631   2.648   0.452   2.236  0.5708  1.0287  0.6373
13993SOL     OW53632   8.249   1.069   1.778  0.6340 -0.0006 -0.5136
13993SOL    HW153633   8.338   1.045   1.817  1.0111  1.1435 -0.6622
13993SOL    HW253634   8.220   1.158   1.814  0.5808  0.6586 -2.1663
13994SOL     OW53635   3.233   0.716   7.119  0.2850 -0.1550  0.0987
13994SOL    HW153636   3.180   0.729   7.203  0.7584 -0.8842  0.5186
13994SOL    HW253637   3.194   0.772   7.046 -0.2198  0.3737  0.7667
13995SOL     OW53638   2.286   4.269   3.556 -0.9210  0.1216  0.3582
13995SOL    HW153639   2.266   4.285   3.653  2.6489  1.5393  0.9619
13995SOL    HW253640   2.354   4.196   3.548  0.4672  1.5125 -0.8807
13996SOL     OW53641   3.087   4.571   4.565  0.0726  0.2025  0.6898
13996SOL    HW153642   3.172   4.554   4.614 -0.1613 -1.0117  0.7008
13996SOL    HW253643   3.108   4.602   4.472  0.5396 -1.6432  0.1693
13997SOL     OW53644   3.338   6.051   7.824 -0.6332 -0.2468 -0.2082
13997SOL    HW153645   3.403   6.108   7.873  2.3430 -2.3087 -1.5361
13997SOL    HW253646   3.294   6.104   7.751  0.3673  0.9404  0.0469
13998SOL     OW53647   7.785   1.652   0.647 -0.9431 -0.3151  0.6287
13998SOL    HW153648   7.754   1.683   0.557 -0.3051 -0.1262  0.4705
13998SOL    HW253649   7.860   1.586   0.636 -0.4746  0.1419  1.0232
13999SOL     OW53650   9.936   0.456   2.738 -0.2613 -0.3516  0.0802
13999SOL    HW153651   9.987   0.540   2.721  0.1593 -0.6891 -0.3242
13999SOL    HW253652   9.998   0.386   2.772 -0.4249 -0.8165 -0.5873
14000SOL     OW53653   9.688   1.427   1.709  0.2601  0.1075 -0.6389
14000SOL    HW153654   9.695   1.347   1.768  2.7611 -0.3517 -1.5043
14000SOL    HW253655   9.593   1.456   1.704 -0.2633 -0.9261  2.1582
14001SOL     OW53656   2.910   8.398   5.942  0.2121 -0.2845  0.8382
14001SOL    HW153657   2.826   8.449   5.921  1.2082 -0.2559 -3.6378
14001SOL    HW253658   2.888   8.301   5.951 -0.5137 -0.0956  1.1577
14002SOL     OW53659   3.406   0.462   0.562  0.1380 -0.1835  0.2065
14002SOL    HW153660   3.490   0.425   0.601  1.0038 -0.6560 -2.0472
14002SOL    HW253661   3.360   0.518   0.631  0.8373 -2.1937  2.3698
14003SOL     OW53662   0.099   7.953   5.743 -0.1768 -0.1096  0.3944
14003SOL    HW153663   0.064   8.026   5.802  0.3295 -0.6388  1.3562
14003SOL    HW253664   0.136   7.880   5.799 -2.2858 -1.9197 -0.5093
14004SOL     OW53665   6.688   1.485   7.749 -0.7629 -0.1431 -0.2549
14004SOL    HW153666   6.753   1.415   7.777  0.6941  1.2621 -0.0425
14004SOL    HW253667   6.677   1.483   7.650 -1.3549 -1.1907 -0.1777
14005SOL     OW53668   9.393   1.875   5.747 -0.4570  0.3667  0.3535
14005SOL    HW153669   9.362   1.940   5.817 -1.6909 -0.1259  0.2716
14005SOL    HW253670   9.328   1.800   5.739 -0.0543  0.1291 -0.9385
14006SOL     OW53671   6.450   1.070   4.298  0.2925 -0.0378 -0.1471
14006SOL    HW153672   6.396   0.998   4.342  1.1580 -0.3073  0.4850
14006SOL    HW253673   6.539   1.077   4.343  1.7056 -1.2063 -2.6864
14007SOL     OW53674   7.679   2.295   0.003  0.2254 -0.3570 -0.0065
14007SOL    HW153675   7.698   2.387   0.036 -4.0593  0.4989  0.3816
14007SOL    HW253676   7.705   2.229   0.073 -2.0700  0.9901  2.2019
14008SOL     OW53677   4.228   9.567   3.672  0.4870  0.2712 -0.7044
14008SOL    HW153678   4.181   9.575   3.584  1.2116  0.0209 -1.1128
14008SOL    HW253679   4.189   9.490   3.723 -0.5019  0.9259 -0.4467
14009SOL     OW53680   1.981   5.624   7.945  0.5827 -0.1813  0.5416
14009SOL    HW153681   1.929   5.635   7.860  2.1561  1.8776 -0.2233
14009SOL    HW253682   1.918   5.615   8.022 -0.8710 -1.6025 -0.7693
14010SOL     OW53683   2.346   1.527   4.830 -0.4107 -0.6811 -0.1956
14010SOL    HW153684   2.386   1.545   4.920 -0.1032 -0.4846 -0.3717
14010SOL    HW253685   2.392   1.448   4.788  0.2340 -0.0625 -0.6696
14011SOL     OW53686   8.351   2.774   5.733  0.1819 -0.0124 -0.4448
14011SOL    HW153687   8.332   2.783   5.830  1.4915  0.6191 -0.2460
14011SOL    HW253688   8.290   2.705   5.693 -0.6465  0.0365  0.7236
14012SOL     OW53689   8.567   2.899   4.985  0.5251  0.4478  0.0741
14012SOL    HW153690   8.539   2.988   5.019  0.7491 -0.1835  1.9529
14012SOL    HW253691   8.666   2.887   4.999  0.1671 -0.8353  1.5638
14013SOL     OW53692   4.266   5.163   2.863  0.5932 -0.3793  0.2503
14013SOL    HW153693   4.330   5.160   2.940  1.2278 -0.9062 -0.2954
14013SOL    HW253694   4.314   5.187   2.779  0.1395 -1.0897 -0.2236
14014SOL     OW53695   3.922   3.501   2.949  0.3157  0.1847  0.5869
14014SOL    HW153696   3.822   3.502   2.951  0.2474  0.3224 -1.2462
14014SOL    HW253697   3.958   3.566   3.016 -0.8978  1.9262 -0.3982
14015SOL     OW53698   9.793   3.161   4.081  0.4740  0.5139  0.6232
14015SOL    HW153699   9.796   3.156   3.981 -0.4368 -0.1118  0.6172
14015SOL    HW253700   9.766   3.073   4.118  1.7457  0.4733  1.4849
14016SOL     OW53701   4.460   0.269   7.427 -0.4560 -0.1694  0.3224
14016SOL    HW153702   4.481   0.364   7.404 -0.7797  0.4149  2.3727
14016SOL    HW253703   4.525   0.237   7.496  0.0784 -1.6614 -0.8637
14017SOL     OW53704   9.473   7.224   0.190  0.1764 -0.1868 -0.4141
14017SOL    HW153705   9.468   7.128   0.162  0.2559 -0.4316  0.3907
14017SOL    HW253706   9.384   7.267   0.179  0.2308 -0.2536 -1.1241
14018SOL     OW53707   3.882   5.686   6.890 -0.0399 -0.4117 -0.1273
14018SOL    HW153708   3.972   5.650   6.867  0.1646 -0.2275  0.3648
14018SOL    HW253709   3.871   5.687   6.990 -0.3468  0.1376 -0.1623
14019SOL     OW53710   5.623   4.422   0.314 -0.2064  0.2863 -0.2513
14019SOL    HW153711   5.605   4.519   0.329  0.5372  0.2488  0.9127
14019SOL    HW253712   5.551   4.384   0.255 -0.5761  1.5010 -0.5971
14020SOL     OW53713   8.273   6.544   1.331  0.3117  0.4220 -0.2390
14020SOL    HW153714   8.264   6.447   1.357  0.9308 -0.5260 -3.3091
14020SOL    HW253715   8.354   6.582   1.374 -1.4510  0.4322  3.2708
14021SOL     OW53716   8.922   2.796   4.228 -0.2657  0.4622 -0.2270
14021SOL    HW153717   8.875   2.716   4.265 -0.3408  1.0560  0.9903
14021SOL    HW253718   8.956   2.853   4.304  0.8066  0.9753 -1.0831
14022SOL     OW53719   7.441   8.969   3.765  0.5045  0.1358 -0.1614
14022SOL    HW153720   7.509   8.983   3.693  1.1226 -0.3934  0.3084
14022SOL    HW253721   7.481   8.993   3.853 -0.2938  0.9025 -0.0098
14023SOL     OW53722   0.196   8.208   7.479  0.7344  0.3321 -0.6037
14023SOL    HW153723   0.264   8.207   7.406 -0.7406  1.9122 -2.0253
14023SOL    HW253724   0.194   8.298   7.522  0.3036 -0.0476  0.1971
14024SOL     OW53725   4.331   3.865   5.103  0.0550  0.5851  0.0076
14024SOL    HW153726   4.249   3.842   5.155 -1.4955 -0.8933 -3.0298
14024SOL    HW253727   4.404   3.799   5.124  0.0971  1.1644  1.7519
14025SOL     OW53728   8.092   5.144   3.222  0.4750  0.3163 -0.7949
14025SOL    HW153729   8.144   5.147   3.137  0.7910  0.4019 -0.5994
14025SOL    HW253730   8.151   5.115   3.297 -0.0698 -0.8442 -0.8005
14026SOL     OW53731   4.702   3.771   6.987 -0.5084 -0.3179  0.6009
14026SOL    HW153732   4.647   3.839   7.036 -0.0567  0.2167  0.3730
14026SOL    HW253733   4.720   3.693   7.048 -0.6425 -0.0257  1.0204
14027SOL     OW53734   7.971   5.753   2.468  0.2941 -0.1332  0.5212
14027SOL    HW153735   8.025   5.834   2.494  0.9422 -0.5166  0.3823
14027SOL    HW253736   8.015   5.671   2.503 -0.5247 -0.4089  0.9186
14028SOL     OW53737   3.531   0.088   2.196  0.3457  0.0517  0.1961
14028SOL    HW153738   3.448   0.136   2.168  0.6060 -0.0850 -0.8170
14028SOL    HW253739   3.610   0.149   2.189  0.3284  0.2001  1.2162
14029SOL     OW53740   7.594   4.578   6.780  0.6402  0.1433 -0.1493
14029SOL    HW153741   7.623   4.491   6.739 -0.5421  0.7270 -2.2765
14029SOL    HW253742   7.506   4.606   6.741 -1.0059  0.2873  3.4792
14030SOL     OW53743   3.641   5.079   4.376 -0.7494  0.4616  0.2058
14030SOL    HW153744   3.615   5.096   4.471 -0.1692 -0.3464  0.5181
14030SOL    HW253745   3.707   5.149   4.347  1.0203 -0.7259  1.2297
14031SOL     OW53746   7.133   6.637   5.560  0.0681  0.2868 -0.6338
14031SOL    HW153747   7.056   6.609   5.616  1.0938 -1.2398  0.0453
14031SOL    HW253748   7.105   6.643   5.464 -1.9095  3.6764  0.0791
14032SOL     OW53749   3.127   8.973   5.146 -0.4081 -0.0159  0.2329
14032SOL    HW153750   3.196   9.044   5.160  0.7971 -1.3886  1.3594
14032SOL    HW253751   3.066   8.969   5.224 -1.7914  1.1870 -0.7584
14033SOL     OW53752   0.052   2.856   1.244 -0.2811  0.0698 -0.0665
14033SOL    HW153753   0.034   2.947   1.208 -1.9551  0.4772  1.7224
14033SOL    HW253754   0.141   2.854   1.288 -0.6135  1.0988  0.6599
14034SOL     OW53755   7.657   8.124   7.156  0.0426 -0.2614  0.4417
14034SOL    HW153756   7.626   8.045   7.103 -2.3173 -0.6839  2.3535
14034SOL    HW253757   7.716   8.181   7.099  1.7456 -3.3464 -1.0035
14035SOL     OW53758   6.513   1.437   6.525 -0.1538  0.1514 -0.2173
14035SOL    HW153759   6.563   1.377   6.462  1.6335 -0.3141  1.5831
14035SOL    HW253760   6.459   1.382   6.588  0.4905  0.4636  0.6225
14036SOL     OW53761   1.566   9.049   2.425  0.2451 -0.3467  0.1385
14036SOL    HW153762   1.588   9.096   2.340  1.0163  0.3148  0.6956
14036SOL    HW253763   1.484   8.994   2.412 -1.6692  2.4248 -0.1137
14037SOL     OW53764   4.778   1.768   6.607 -0.3028  0.0410 -0.1193
14037SOL    HW153765   4.730   1.753   6.521 -0.2860 -0.0712 -0.1077
14037SOL    HW253766   4.802   1.865   6.615  0.1547 -0.0384 -0.4809
14038SOL     OW53767   0.953   6.755   7.225 -0.1331  0.1406  0.1909
14038SOL    HW153768   0.982   6.815   7.300  1.3936 -0.3112 -0.0371
14038SOL    HW253769   1.007   6.774   7.143 -0.2258 -0.9644 -0.1356
14039SOL     OW53770   4.875   2.679   1.180 -0.3177 -0.9860  0.1286
14039SOL    HW153771   4.902   2.739   1.105  2.9401 -0.7977  1.3792
14039SOL    HW253772   4.802   2.721   1.233 -0.3851  0.3301 -0.9980
14040SOL     OW53773   8.366   3.481   6.428 -0.2665 -0.2659  0.2693
14040SOL    HW153774   8.397   3.430   6.508  2.7088 -0.3326 -0.8652
14040SOL    HW253775   8.308   3.557   6.457  0.6998 -0.3521  2.4831
14041SOL     OW53776   3.501   5.948   1.692 -0.0919  0.4946 -0.0992
14041SOL    HW153777   3.431   5.964   1.761 -0.4216 -0.9776 -0.0728
14041SOL    HW253778   3.460   5.906   1.611  0.7603 -0.4451 -0.0566
14042SOL     OW53779   6.109   9.139   2.782  0.2359  0.0912  0.0862
14042SOL    HW153780   6.204   9.120   2.808  0.1742 -1.9755 -1.0533
14042SOL    HW253781   6.049   9.112   2.857  0.3795 -1.1811 -0.2445
14043SOL     OW53782   0.448   5.298   5.074  0.2124  0.2703  0.1752
14043SOL    HW153783   0.404   5.294   4.985 -0.1027  0.4665  0.3213
14043SOL    HW253784   0.523   5.231   5.077 -0.3492 -0.3728  0.0715
14044SOL     OW53785   5.088   8.132   5.917  0.3589  0.1482  0.9943
14044SOL    HW153786   5.048   8.063   5.856 -0.6338  1.6840 -0.1199
14044SOL    HW253787   5.178   8.101   5.947  0.7685 -0.7671 -1.0737
14045SOL     OW53788   6.508   0.206   4.652 -0.3393 -0.5368  0.2931
14045SOL    HW153789   6.567   0.211   4.571 -2.0492 -2.0611 -1.1094
14045SOL    HW253790   6.553   0.152   4.723  1.3745  1.1909  0.5655
14046SOL     OW53791   3.916   5.165   7.421 -0.4977  0.0055 -0.0189
14046SOL    HW153792   3.831   5.140   7.469 -0.9161 -0.5737 -1.0566
14046SOL    HW253793   3.977   5.211   7.485 -1.6943  0.6567  0.6810
14047SOL     OW53794   0.827   7.626   5.972 -1.1576  0.2299  0.4577
14047SOL    HW153795   0.833   7.688   6.050 -0.3318  0.1863  0.4301
14047SOL    HW253796   0.772   7.668   5.900  1.2591  1.8911 -0.4551
14048SOL     OW53797   5.346   9.780   2.802 -0.3045  0.0584  0.0821
14048SOL    HW153798   5.428   9.726   2.822  0.1329  0.9652  0.7931
14048SOL    HW253799   5.367   9.848   2.732 -1.4364 -2.1114 -2.3981
14049SOL     OW53800   9.107   5.984   2.632  0.8421 -0.3471 -0.1875
14049SOL    HW153801   9.109   6.041   2.550 -0.4065 -0.9442 -0.6431
14049SOL    HW253802   9.076   6.038   2.710  1.0385 -0.0474 -0.3166
14050SOL     OW53803   7.230   2.544   8.064 -0.5928  0.5882 -0.3179
14050SOL    HW153804   7.321   2.583   8.074 -0.0630 -0.6509 -0.1881
14050SOL    HW253805   7.226   2.491   7.979 -0.2293 -1.8659  1.1422
14051SOL     OW53806   7.490   9.658   6.984  0.2013 -0.2253  0.5068
14051SOL    HW153807   7.535   9.731   7.036  0.6513 -0.5345  0.5533
14051SOL    HW253808   7.432   9.699   6.914 -0.0878  0.1895  0.9846
14052SOL     OW53809   8.767   0.201   4.256  0.6335 -0.2766  0.6854
14052SOL    HW153810   8.765   0.105   4.281  0.0989 -0.9574 -1.8283
14052SOL    HW253811   8.861   0.231   4.241  0.5678 -1.5576 -2.6107
14053SOL     OW53812   6.480   1.345   2.487  0.1766 -0.5808 -0.1660
14053SOL    HW153813   6.397   1.384   2.528  0.0288 -1.4173  0.3447
14053SOL    HW253814   6.458   1.257   2.445  1.2822 -2.0034  2.1203
14054SOL     OW53815   7.911   4.685   4.857  0.1177 -0.8356  0.0259
14054SOL    HW153816   7.894   4.683   4.759 -0.3636 -2.3385  0.1335
14054SOL    HW253817   8.009   4.680   4.875  0.1956 -0.7002 -0.3685
14055SOL     OW53818   3.888   3.696   2.272  0.2728 -0.5020  0.0989
14055SOL    HW153819   3.795   3.726   2.248  0.3499 -0.6676 -0.4186
14055SOL    HW253820   3.893   3.597   2.266  0.5935 -0.4627 -0.2633
14056SOL     OW53821   4.337   0.442   2.778  0.0060 -0.2639 -0.3790
14056SOL    HW153822   4.389   0.379   2.719 -0.2299  0.0751 -0.9535
14056SOL    HW253823   4.311   0.395   2.862  0.0346 -0.8639 -0.7029
14057SOL     OW53824   3.011   7.054   7.826  0.3778 -0.2071 -0.0948
14057SOL    HW153825   3.080   6.987   7.851  0.4447  0.7337  2.3591
14057SOL    HW253826   3.050   7.146   7.830 -0.3892  0.1724 -0.9706
14058SOL     OW53827   0.655   8.215   3.761  0.3233  0.6316  0.2904
14058SOL    HW153828   0.694   8.132   3.801  0.3000  0.3081 -0.3498
14058SOL    HW253829   0.687   8.295   3.812  0.5282  0.2482  0.7698
14059SOL     OW53830   6.111   4.030   1.749 -0.2522  0.4469  0.6027
14059SOL    HW153831   6.150   3.961   1.808 -1.1287 -1.5760 -1.1204
14059SOL    HW253832   6.030   4.070   1.793 -1.5111 -1.7788  0.3500
14060SOL     OW53833   3.693   1.084   4.375 -0.0307  0.2026  0.0888
14060SOL    HW153834   3.784   1.043   4.379  0.6407  1.7110  0.9117
14060SOL    HW253835   3.624   1.012   4.381  1.1078 -0.8048  1.8638
14061SOL     OW53836   9.855   9.912   1.105 -0.2263  0.0348 -0.1372
14061SOL    HW153837   9.777   9.934   1.046 -1.3610  0.3752  1.4702
14061SOL    HW253838   9.854   9.814   1.127  0.5914 -0.2268 -1.2295
14062SOL     OW53839   8.697   6.717   1.874  0.0970  0.1683  0.2373
14062SOL    HW153840   8.622   6.673   1.924  0.7441  0.2534  1.3151
14062SOL    HW253841   8.757   6.646   1.837  0.2212  0.1083  0.5454
14063SOL     OW53842   3.412   9.338   6.080  0.0494 -0.1885 -0.1785
14063SOL    HW153843   3.342   9.408   6.064  0.7300 -0.0507 -2.8294
14063SOL    HW253844   3.441   9.341   6.176 -0.1839  2.9533 -0.1356
14064SOL     OW53845   0.722   4.860   1.537  0.3100  0.2604 -0.3574
14064SOL    HW153846   0.789   4.805   1.487 -0.1820 -0.2534 -0.4517
14064SOL    HW253847   0.635   4.858   1.488 -0.4146 -0.9280  0.9447
14065SOL     OW53848   6.365   5.498   7.337 -1.0058  0.2075  0.3937
14065SOL    HW153849   6.345   5.516   7.433  0.5232 -1.5578  1.0784
14065SOL    HW253850   6.297   5.435   7.300 -0.6448 -0.4232  0.7974
14066SOL     OW53851   2.411   8.568   1.091 -0.6489  0.4664  0.2936
14066SOL    HW153852   2.443   8.655   1.130  4.3394 -1.3582  0.7272
14066SOL    HW253853   2.467   8.545   1.011 -2.2706 -2.0548 -0.1545
14067SOL     OW53854   3.383   7.287   1.051  0.2739 -0.3932 -0.1778
14067SOL    HW153855   3.406   7.384   1.065  0.5310 -0.6287  1.1383
14067SOL    HW253856   3.296   7.280   1.004  0.2118  0.4893 -0.2074
14068SOL     OW53857   1.262   1.068   4.830  0.7583 -0.4784 -0.3568
14068SOL    HW153858   1.337   1.002   4.825  0.0364 -1.3773  0.5930
14068SOL    HW253859   1.261   1.123   4.746  2.6489 -0.2643 -0.2457
14069SOL     OW53860   8.568   2.923   1.540 -0.1286  0.4755 -0.0183
14069SOL    HW153861   8.522   2.834   1.538 -0.7289  0.7710  0.4353
14069SOL    HW253862   8.610   2.937   1.630  2.0328 -0.3749 -0.8579
14070SOL     OW53863   9.590   5.108   0.735  0.2367 -0.3389  0.0852
14070SOL    HW153864   9.526   5.142   0.666 -0.3863 -0.7515  0.4495
14070SOL    HW253865   9.580   5.009   0.744  1.6627 -0.5445 -0.5877
14071SOL     OW53866   8.881   9.943   0.158 -0.3538 -0.1983 -0.3808
14071SOL    HW153867   8.860   9.847   0.178 -1.6284  0.3079  0.7960
14071SOL    HW253868   8.855  10.000   0.237  0.6814  1.0764 -0.9404
14072SOL     OW53869   3.647   5.194   0.530  0.3397 -0.2608  0.3576
14072SOL    HW153870   3.702   5.271   0.501  0.7067 -1.1969 -1.5205
14072SOL    HW253871   3.706   5.117   0.556 -0.0563 -1.1329 -1.2815
14073SOL     OW53872   0.203   3.815   7.358 -0.0222 -0.5662 -0.1240
14073SOL    HW153873   0.138   3.747   7.392 -0.5190 -0.6537 -1.2318
14073SOL    HW253874   0.296   3.779   7.365 -0.1383 -0.6855  0.8786
14074SOL     OW53875   0.918   0.819   6.993  0.1268  0.3499 -0.0425
14074SOL    HW153876   1.007   0.775   7.004  0.2324  0.0105 -2.0311
14074SOL    HW253877   0.930   0.913   6.962 -0.2266  0.1028 -0.9269
14075SOL     OW53878   9.040   1.835   6.167  0.6865 -0.9641 -0.7290
14075SOL    HW153879   9.017   1.795   6.256  1.3869 -0.3675 -0.2737
14075SOL    HW253880   8.957   1.870   6.123  0.3076 -1.4618 -0.4136
14076SOL     OW53881   3.693   0.790   7.884 -0.0064  0.3557 -1.0289
14076SOL    HW153882   3.677   0.763   7.979  0.0153 -0.4934 -1.2634
14076SOL    HW253883   3.752   0.722   7.840  1.5244  1.6940 -1.1190
14077SOL     OW53884   1.648   7.986   2.758 -0.3859 -0.1511  0.6526
14077SOL    HW153885   1.682   8.070   2.715 -0.1544 -0.4614  0.2277
14077SOL    HW253886   1.587   8.010   2.833  0.0590  0.4047  0.8448
14078SOL     OW53887   0.028   4.245   4.459 -0.0845 -0.2452 -0.2214
14078SOL    HW153888   0.118   4.201   4.454 -0.1239 -0.1753 -1.7573
14078SOL    HW253889   0.039   4.343   4.448 -0.2060 -0.0686  1.1582
14079SOL     OW53890   5.877   7.652   6.040  0.2160  0.0328  0.2033
14079SOL    HW153891   5.975   7.633   6.030  0.3312  0.4959  0.4275
14079SOL    HW253892   5.859   7.746   6.013 -0.1864 -0.0854  0.0599
14080SOL     OW53893   3.072   5.717   6.693  0.1935  0.1192 -0.0564
14080SOL    HW153894   3.036   5.743   6.604  0.0138  0.7745  0.2072
14080SOL    HW253895   3.135   5.787   6.726 -0.5160  0.3797  0.7791
14081SOL     OW53896   9.653   0.079   5.880 -0.4448 -0.1353 -0.0722
14081SOL    HW153897   9.699   0.048   5.797  0.1463 -0.6399  0.4403
14081SOL    HW253898   9.581   0.014   5.904  0.7471 -1.1107  0.9612
14082SOL     OW53899   3.294   6.853   2.287  0.2012  0.6937  0.5754
14082SOL    HW153900   3.367   6.791   2.258 -0.5741  0.8225 -1.7674
14082SOL    HW253901   3.231   6.805   2.348 -0.1953 -0.7491 -0.9289
14083SOL     OW53902   8.304   5.596   1.987 -0.4291 -0.0147 -0.3763
14083SOL    HW153903   8.247   5.523   1.949  0.3243 -1.4461  1.1841
14083SOL    HW253904   8.249   5.654   2.048 -0.0183 -2.0546  1.9998
14084SOL     OW53905   7.655   3.291   2.166  0.7552 -0.4603  0.3373
14084SOL    HW153906   7.586   3.239   2.116  0.2790 -0.9928  1.5246
14084SOL    HW253907   7.666   3.252   2.258  2.8643 -0.6044  0.0633
14085SOL     OW53908   2.745   0.633   6.628 -0.1993 -0.5238  0.3625
14085SOL    HW153909   2.656   0.674   6.608  0.2480 -0.1521 -0.9347
14085SOL    HW253910   2.755   0.548   6.575  1.2149  0.7452 -1.4925
14086SOL     OW53911   0.870   2.962   3.239  0.5367  0.2246 -0.1124
14086SOL    HW153912   0.786   2.959   3.293 -0.0584  2.2251 -0.8551
14086SOL    HW253913   0.851   3.004   3.150  1.9491 -1.0154 -1.0340
14087SOL     OW53914   7.420   2.208   1.555  0.1348 -0.2804 -0.6322
14087SOL    HW153915   7.480   2.134   1.585 -0.4639  0.3269  2.2421
14087SOL    HW253916   7.467   2.296   1.566 -0.3749  0.0116 -0.7647
14088SOL     OW53917   9.197   6.249   5.044 -0.9121 -0.1274 -1.2041
14088SOL    HW153918   9.290   6.227   5.014 -0.8915 -1.3072 -0.2915
14088SOL    HW253919   9.200   6.299   5.130 -1.1099  0.2772 -1.4286
14089SOL     OW53920   7.867   8.678   3.414  0.0495 -0.0104 -0.1802
14089SOL    HW153921   7.872   8.685   3.513  1.5906 -0.4694 -0.2169
14089SOL    HW253922   7.810   8.752   3.378 -0.3176  0.3016  1.0212
14090SOL     OW53923   0.403   8.216   7.298 -0.1456 -0.6242  0.0314
14090SOL    HW153924   0.406   8.151   7.222 -0.6954 -2.0908  1.2377
14090SOL    HW253925   0.407   8.309   7.262  1.2640 -1.3189 -1.6983
14091SOL     OW53926   1.732   8.621   2.191 -0.1630  0.3004  0.0706
14091SOL    HW153927   1.722   8.569   2.276  0.0275 -1.4131 -0.9214
14091SOL    HW253928   1.821   8.666   2.190  0.3304 -0.6459  0.2764
14092SOL     OW53929   8.264   0.504   0.884 -0.2023 -0.3233  0.2590
14092SOL    HW153930   8.219   0.593   0.876  0.3780 -0.0450  0.0001
14092SOL    HW253931   8.255   0.470   0.978 -2.3225 -1.0236 -0.1857
14093SOL     OW53932   3.596   4.418   7.459 -0.1146  0.3478  0.1450
14093SOL    HW153933   3.678   4.466   7.490 -0.1430  0.6850 -0.3012
14093SOL    HW253934   3.516   4.475   7.474 -0.2683  0.0271  0.5591
14094SOL     OW53935   9.248   9.788   6.049 -0.3211  0.6900 -0.2328
14094SOL    HW153936   9.230   9.693   6.026 -0.0366  0.4984  0.3237
14094SOL    HW253937   9.163   9.831   6.080 -0.6825  0.9193 -1.5004
14095SOL     OW53938   2.375   8.181   2.232  0.3365  0.3225  0.0694
14095SOL    HW153939   2.275   8.177   2.244  0.2522  0.2525 -0.6206
14095SOL    HW253940   2.409   8.090   2.209  0.4209  0.5509 -0.7223
14096SOL     OW53941   2.910   6.003   0.633 -0.0119 -0.6834 -0.5389
14096SOL    HW153942   2.973   6.062   0.581  0.4729  0.4233  1.2500
14096SOL    HW253943   2.960   5.922   0.665  0.3218 -0.1991  0.1943
14097SOL     OW53944   8.789   7.023   6.480  0.2272  0.0416 -0.1963
14097SOL    HW153945   8.726   7.061   6.412  0.2371 -2.2567 -1.5202
14097SOL    HW253946   8.742   7.018   6.568 -0.6959  0.4758 -0.6430
14098SOL     OW53947   1.250   0.715   3.443  0.3827  0.0164  0.2763
14098SOL    HW153948   1.258   0.620   3.412 -1.3605 -0.5771  1.5016
14098SOL    HW253949   1.306   0.727   3.526  0.5378  0.0304  0.1693
14099SOL     OW53950   4.853   6.482   0.338  0.1737 -0.2108 -0.3821
14099SOL    HW153951   4.858   6.396   0.388 -1.7684  0.3943  0.9039
14099SOL    HW253952   4.874   6.558   0.399 -1.1796  0.4493 -0.7033
14100SOL     OW53953   8.240   6.313   6.756 -0.3869 -0.6390  0.0440
14100SOL    HW153954   8.207   6.408   6.754  0.5911 -0.3174 -1.6309
14100SOL    HW253955   8.226   6.275   6.848 -0.6352  1.1745  0.7852
14101SOL     OW53956   7.249   4.347   7.341 -0.0837  0.1077  0.3643
14101SOL    HW153957   7.265   4.338   7.243 -2.7520 -0.7319 -0.0356
14101SOL    HW253958   7.264   4.442   7.369 -1.8983  0.9422 -1.3940
14102SOL     OW53959   3.313   6.965   0.828 -0.4086  0.1937  0.1710
14102SOL    HW153960   3.400   6.916   0.820 -1.0455 -0.9550  0.2113
14102SOL    HW253961   3.297   6.989   0.924 -0.5761 -0.4105  0.2955
14103SOL     OW53962   1.948   7.612   7.257  0.2685 -0.1422  0.2185
14103SOL    HW153963   1.958   7.643   7.351  2.6601  0.1503 -0.0871
14103SOL    HW253964   1.866   7.556   7.249 -0.2907  0.3212  2.3332
14104SOL     OW53965   3.165   2.314   5.868  0.0262 -0.1901 -0.0479
14104SOL    HW153966   3.214   2.236   5.906  1.9415  0.5973 -0.8485
14104SOL    HW253967   3.105   2.282   5.794 -0.3955 -1.0984  0.6741
14105SOL     OW53968   6.324   8.795   6.276  0.2072  0.0319 -0.2702
14105SOL    HW153969   6.254   8.790   6.348  1.5221 -0.1841  1.0016
14105SOL    HW253970   6.370   8.884   6.279  1.7854 -0.8025  0.5976
14106SOL     OW53971   4.852   4.714   0.464 -0.1611 -0.2740 -0.3939
14106SOL    HW153972   4.810   4.628   0.435  1.7125 -0.9649 -1.0982
14106SOL    HW253973   4.781   4.784   0.473 -1.3891 -1.2587 -2.1808
14107SOL     OW53974   4.394   7.583   4.229 -0.1006 -0.1368 -0.2009
14107SOL    HW153975   4.462   7.561   4.159  0.9335  0.2269  0.6854
14107SOL    HW253976   4.403   7.679   4.256  0.1887 -0.5323  1.1647
14108SOL     OW53977   7.892   2.652   3.111  0.4867  0.4191 -0.5354
14108SOL    HW153978   7.813   2.592   3.093 -0.4437  1.5481 -0.3146
14108SOL    HW253979   7.969   2.624   3.054 -0.4110 -0.0569 -1.5348
14109SOL     OW53980   1.501   8.829   1.970  0.0263 -0.2232  0.8795
14109SOL    HW153981   1.598   8.828   1.947  0.7314  3.0420  3.2491
14109SOL    HW253982   1.489   8.794   2.063 -0.6659  1.9147  1.6264
14110SOL     OW53983   2.481   6.592   1.517 -0.0376  0.1162 -0.7055
14110SOL    HW153984   2.536   6.537   1.580  0.8870  1.4976 -0.2801
14110SOL    HW253985   2.409   6.640   1.568  2.6950  3.7890 -0.0938
14111SOL     OW53986   1.689   6.094   5.966  0.5484 -0.0921 -0.0495
14111SOL    HW153987   1.710   6.112   6.062  1.2074  1.9627 -0.5696
14111SOL    HW253988   1.734   6.009   5.938 -0.0858 -0.9905  1.5918
14112SOL     OW53989   9.234   3.804   4.389  0.1745 -0.0836  0.0871
14112SOL    HW153990   9.220   3.895   4.349 -0.0943 -0.1255  0.0867
14112SOL    HW253991   9.311   3.808   4.453  2.9566 -0.8322 -3.1062
14113SOL     OW53992   0.907   3.166   4.893 -0.2801  0.1449  0.1537
14113SOL    HW153993   0.843   3.230   4.935 -1.9701 -0.4600 -1.4232
14113SOL    HW253994   0.857   3.084   4.864  1.3825 -0.7272 -0.2757
14114SOL     OW53995   3.488   9.081   3.977 -0.3780 -0.4685 -0.0135
14114SOL    HW153996   3.529   9.020   4.045 -0.1792 -0.9646 -0.5764
14114SOL    HW253997   3.459   9.165   4.022 -0.8502 -1.0610  0.8056
14115SOL     OW53998   3.779   9.401   7.606  0.0493  0.0322 -0.1952
14115SOL    HW153999   3.714   9.360   7.543  0.6657 -0.7257 -0.3489
14115SOL    HW254000   3.768   9.501   7.605 -1.5431 -0.1295  0.2822
14116SOL     OW54001   9.981   3.036   3.105 -0.3021 -0.3307  0.4370
14116SOL    HW154002  10.040   3.104   3.061 -2.3769  0.8311 -0.6028
14116SOL    HW254003   9.982   3.051   3.204  1.7598 -0.8507  0.5313
14117SOL     OW54004   9.052   8.559   3.511 -0.2042 -0.5383 -0.0494
14117SOL    HW154005   9.129   8.611   3.474  0.1223 -0.5523  0.5932
14117SOL    HW254006   8.981   8.622   3.540 -0.7748 -0.5622 -1.3752
14118SOL     OW54007   2.810   6.765   3.937  0.6453 -0.0273  0.5012
14118SOL    HW154008   2.801   6.696   4.009 -2.3434 -0.9648 -0.6870
14118SOL    HW254009   2.787   6.855   3.975  0.5887 -0.2858  1.0869
14119SOL     OW54010   5.271   8.347   6.534 -0.0414  0.0375  0.1119
14119SOL    HW154011   5.217   8.429   6.550 -1.2099 -0.7189  0.0865
14119SOL    HW254012   5.366   8.373   6.514 -1.0111  1.5262 -2.8601
14120SOL     OW54013   7.865   3.356   5.609  0.1700  0.1958 -0.5871
14120SOL    HW154014   7.826   3.360   5.517 -0.2729  0.3843 -0.3974
14120SOL    HW254015   7.816   3.420   5.668  0.3711 -0.0126 -0.1918
14121SOL     OW54016   0.074   1.287   2.359  0.1816  0.0169  0.4575
14121SOL    HW154017  -0.018   1.327   2.358  0.5506  0.8984  1.2465
14121SOL    HW254018   0.115   1.296   2.268  0.4732  1.9726  0.7545
14122SOL     OW54019   1.055   5.796   3.783 -0.2292 -0.5125 -0.5309
14122SOL    HW154020   0.956   5.789   3.793 -0.4956 -0.2887 -2.7288
14122SOL    HW254021   1.086   5.887   3.810 -0.4086 -1.0459  1.5553
14123SOL     OW54022   0.179   2.329   0.870  0.0772 -0.0400  0.0819
14123SOL    HW154023   0.083   2.304   0.859  0.2985 -0.8640 -0.0127
14123SOL    HW254024   0.232   2.297   0.792  0.4464  0.3402  0.1701
14124SOL     OW54025   9.252   4.379   5.322 -0.3933 -0.0201  0.7167
14124SOL    HW154026   9.330   4.318   5.338  0.2468  0.6634  0.2291
14124SOL    HW254027   9.239   4.391   5.224 -1.0827 -0.0774  0.7994
14125SOL     OW54028   4.460   5.463   7.822  0.0838  0.9533 -0.2973
14125SOL    HW154029   4.490   5.434   7.731  0.3969  0.2009  0.0478
14125SOL    HW254030   4.426   5.384   7.873  0.8115  1.2112  0.5995
14126SOL     OW54031   1.292   8.846   4.056 -0.3924 -0.1512 -0.2308
14126SOL    HW154032   1.381   8.805   4.037 -0.2775 -0.3765  0.7561
14126SOL    HW254033   1.302   8.920   4.123 -0.9136 -0.0289 -0.2843
14127SOL     OW54034   2.852   0.358   4.381  0.4839 -0.0979 -0.3256
14127SOL    HW154035   2.939   0.348   4.430 -0.4420 -1.5666  1.0855
14127SOL    HW254036   2.788   0.289   4.414 -1.5553  1.6248 -0.5949
14128SOL     OW54037   0.877   1.544   0.256  0.8486  0.3020 -0.0365
14128SOL    HW154038   0.940   1.585   0.322 -0.2030  1.3556  0.3257
14128SOL    HW254039   0.808   1.611   0.229 -0.2182 -0.8842 -0.3257
14129SOL     OW54040   0.617   2.223   4.512  0.2121 -0.6413 -0.5012
14129SOL    HW154041   0.675   2.236   4.432  2.1249 -0.4229  0.8766
14129SOL    HW254042   0.604   2.311   4.558 -1.2662 -0.6852 -0.8255
14130SOL     OW54043   8.921   3.218   8.031  0.1530 -0.0391  0.0132
14130SOL    HW154044   9.012   3.186   8.007 -0.3114 -0.7684 -0.8284
14130SOL    HW254045   8.856   3.142   8.025 -0.7272  0.7459 -0.6592
14131SOL     OW54046   1.991   2.884   7.196  0.7076 -0.0792  0.3816
14131SOL    HW154047   1.893   2.901   7.184  0.3610 -0.4565  2.4672
14131SOL    HW254048   2.033   2.867   7.107 -1.2323 -0.5326 -0.4742
14132SOL     OW54049   0.683   1.406   7.888 -0.0774  0.1567 -0.3119
14132SOL    HW154050   0.642   1.361   7.968  0.8127  0.1959  0.1693
14132SOL    HW254051   0.716   1.497   7.914  0.9187 -0.1372 -0.5258
14133SOL     OW54052   0.433   6.100   2.027  0.4270  0.3231  0.3963
14133SOL    HW154053   0.382   6.185   2.040 -0.7227 -0.1032 -1.1743
14133SOL    HW254054   0.497   6.088   2.103  1.7458  3.3770 -0.1637
14134SOL     OW54055   1.643   7.385   4.561 -0.1287  0.0226 -0.5346
14134SOL    HW154056   1.675   7.367   4.468  0.3155  0.5396 -0.4819
14134SOL    HW254057   1.649   7.483   4.580 -0.8018 -0.0067 -0.1764
14135SOL     OW54058   0.265   2.421   5.709 -0.3772 -0.2968  0.1035
14135SOL    HW154059   0.263   2.321   5.709 -0.8720 -0.2918  0.3121
14135SOL    HW254060   0.357   2.453   5.687 -0.0953 -0.8030  0.5320
14136SOL     OW54061   3.974   7.697   5.168  0.0106 -0.1258 -0.0593
14136SOL    HW154062   4.030   7.699   5.250  0.2742 -0.7353 -0.2229
14136SOL    HW254063   3.878   7.710   5.193 -0.0024 -1.1806  0.4352
14137SOL     OW54064   9.536   8.079   2.673 -0.4756  0.2506  0.7295
14137SOL    HW154065   9.515   8.030   2.588  0.5554 -3.0173  2.3129
14137SOL    HW254066   9.631   8.064   2.698 -0.9363  0.6608  2.8374
14138SOL     OW54067   3.959   8.691   4.644 -0.4528  0.5368  0.3938
14138SOL    HW154068   4.006   8.615   4.599 -2.0535 -0.8397  0.9762
14138SOL    HW254069   4.023   8.738   4.705  0.1921 -1.3119  1.1909
14139SOL     OW54070   1.940   8.179   3.771  0.1530  0.4163 -0.5205
14139SOL    HW154071   1.985   8.098   3.806  0.3344  0.5211 -0.5087
14139SOL    HW254072   1.849   8.155   3.737 -0.2535  0.4250  0.5615
14140SOL     OW54073   7.979   5.870   3.804  0.4850  0.3791  0.1173
14140SOL    HW154074   8.042   5.795   3.783 -0.5054 -0.7490  1.0725
14140SOL    HW254075   7.950   5.862   3.899 -2.7300 -0.3630 -0.8676
14141SOL     OW54076   4.698   4.596   7.874  0.1880 -0.7179 -0.7130
14141SOL    HW154077   4.714   4.547   7.788  2.6778 -2.0291  0.4406
14141SOL    HW254078   4.610   4.567   7.913  1.3106 -3.8750 -0.3562
14142SOL     OW54079   7.470   3.206   1.740 -0.8328  0.3573 -0.8643
14142SOL    HW154080   7.408   3.274   1.700 -0.9696  0.3500 -0.6694
14142SOL    HW254081   7.469   3.123   1.685 -0.5335  0.5745 -1.2002
14143SOL     OW54082   8.584   2.901   6.969  0.3637  0.1698 -0.3952
14143SOL    HW154083   8.674   2.925   7.006  0.2403  0.0961 -0.0434
14143SOL    HW254084   8.595   2.827   6.902  0.2570 -1.9102  1.7983
14144SOL     OW54085   7.944   9.503   6.610 -0.5877  0.1395  0.0886
14144SOL    HW154086   7.949   9.507   6.511 -0.0117  0.2539  0.1228
14144SOL    HW254087   7.995   9.579   6.650  0.5802 -0.8334  0.5009
14145SOL     OW54088   4.508   2.012   6.116 -0.0826  0.3006 -0.1893
14145SOL    HW154089   4.585   2.070   6.141 -0.0938 -0.4432  1.6471
14145SOL    HW254090   4.448   2.000   6.196 -0.3613 -1.7931 -0.6878
14146SOL     OW54091   3.932   0.358   2.457  0.2957 -0.2944 -0.1836
14146SOL    HW154092   3.843   0.386   2.420  0.4698  0.2682 -0.1845
14146SOL    HW254093   3.939   0.385   2.553  0.2363 -0.8589 -0.0213
14147SOL     OW54094   1.652   8.348   4.125  0.0912 -0.2637  0.4834
14147SOL    HW154095   1.676   8.371   4.030  1.7692  0.9928  1.1740
14147SOL    HW254096   1.579   8.409   4.157 -0.0762 -0.3064  0.1825
14148SOL     OW54097   2.940   3.488   4.017  0.0995  0.0749 -0.0131
14148SOL    HW154098   2.889   3.489   3.930 -0.7327 -1.4760  0.4322
14148SOL    HW254099   2.960   3.582   4.044  1.6834  0.5466 -2.6295
14149SOL     OW54100   4.979   0.321   6.217  0.2367 -0.1938 -0.2301
14149SOL    HW154101   4.883   0.314   6.191 -0.3853  0.2799  1.8265
14149SOL    HW254102   5.036   0.322   6.135 -1.4014 -1.9653 -1.4178
14150SOL     OW54103   9.637   6.870   7.891  0.1477  0.2555 -0.2662
14150SOL    HW154104   9.618   6.964   7.863 -0.0570  0.0869 -0.7061
14150SOL    HW254105   9.640   6.811   7.810  1.9314  0.1730 -0.1617
14151SOL     OW54106   0.500   8.169   0.602 -0.2026  0.0677 -0.0115
14151SOL    HW154107   0.495   8.266   0.626  1.1484 -0.3088  1.8959
14151SOL    HW254108   0.407   8.132   0.593 -0.7262  1.5037 -0.7131
14152SOL     OW54109   3.722   0.730   0.602  0.4643 -0.2781 -0.8789
14152SOL    HW154110   3.664   0.764   0.676  2.2214 -0.1865  0.5064
14152SOL    HW254111   3.666   0.679   0.536 -1.3782  0.9606 -0.3126
14153SOL     OW54112   3.544   8.162   4.343  0.5852  0.2723 -0.3122
14153SOL    HW154113   3.560   8.067   4.315 -1.3953  0.0397 -0.6877
14153SOL    HW254114   3.452   8.171   4.380  0.5418  2.1874 -0.8503
14154SOL     OW54115   6.382   9.098   2.899  0.8999 -0.3327  0.1190
14154SOL    HW154116   6.383   9.133   2.993 -1.9153  1.3560 -0.4012
14154SOL    HW254117   6.425   9.164   2.838  1.4824 -0.7881  0.0378
14155SOL     OW54118   8.917   4.400   1.355 -0.3055 -0.2366 -0.7513
14155SOL    HW154119   8.957   4.458   1.426 -2.9861  0.3607  0.3220
14155SOL    HW254120   8.937   4.439   1.265  2.1133 -0.3567 -0.2903
14156SOL     OW54121   3.223   8.363   5.001 -0.9677 -0.4333 -0.1952
14156SOL    HW154122   3.270   8.381   5.087 -0.5640  0.6588 -0.6381
14156SOL    HW254123   3.246   8.271   4.969 -1.1383 -0.8528  0.8661
14157SOL     OW54124   4.792   8.791   2.327 -0.6750  0.6442 -0.3276
14157SOL    HW154125   4.870   8.804   2.266  0.5888  0.8200  1.2878
14157SOL    HW254126   4.748   8.879   2.345  0.0960  0.8594  0.5037
14158SOL     OW54127   3.456   7.122   6.040 -0.1576  0.4892  0.0232
14158SOL    HW154128   3.382   7.067   6.078 -0.1538 -0.2129 -0.9573
14158SOL    HW254129   3.456   7.113   5.940  1.8087 -0.2123  0.0670
14159SOL     OW54130   7.213   7.464   6.083 -0.0145 -0.2006 -0.6417
14159SOL    HW154131   7.124   7.451   6.040  0.2330  0.6020 -1.4171
14159SOL    HW254132   7.241   7.380   6.130 -0.4335 -0.9822 -1.7816
14160SOL     OW54133   3.492   6.096   4.990 -0.4092 -0.0511  0.2434
14160SOL    HW154134   3.423   6.087   5.062 -0.6893 -0.5545 -0.0884
14160SOL    HW254135   3.479   6.184   4.944  0.2339  0.6024  1.2850
14161SOL     OW54136   1.533   9.700   5.874  0.1840  0.0023  0.7228
14161SOL    HW154137   1.592   9.625   5.903  1.1412  1.1207  1.7182
14161SOL    HW254138   1.570   9.740   5.789  0.5438  0.3235  1.0261
14162SOL     OW54139   6.011   9.551   6.554 -0.1271 -0.6275  0.2304
14162SOL    HW154140   5.970   9.642   6.559  0.4864 -0.2344 -1.4239
14162SOL    HW254141   5.960   9.488   6.611 -2.5070  0.0433 -1.0962
14163SOL     OW54142   3.872   3.815   0.766 -0.3001  0.0619  0.1081
14163SOL    HW154143   3.803   3.761   0.718 -0.8481  1.3496 -0.5889
14163SOL    HW254144   3.827   3.889   0.817  0.5405  0.9321 -0.3814
14164SOL     OW54145   9.058   5.397   7.304 -0.1663 -0.0418  0.1124
14164SOL    HW154146   9.111   5.347   7.373  1.8762 -0.0487 -1.4036
14164SOL    HW254147   9.023   5.333   7.236  0.1722  0.2561 -0.3503
14165SOL     OW54148   8.047   1.917   4.804  0.1687  0.3715  0.5144
14165SOL    HW154149   8.142   1.931   4.833  0.6793 -2.0880  0.1012
14165SOL    HW254150   8.041   1.925   4.704  0.4354 -1.9872  0.2862
14166SOL     OW54151   2.454   2.675   4.727  0.3752 -0.3124 -0.3778
14166SOL    HW154152   2.368   2.718   4.755  0.7792 -0.4991  1.1945
14166SOL    HW254153   2.528   2.742   4.736  0.4894 -0.3378 -1.1335
14167SOL     OW54154   5.558   0.715   1.591 -0.0348 -0.2456  0.1654
14167SOL    HW154155   5.575   0.735   1.495  0.4576  1.5599  0.6122
14167SOL    HW254156   5.628   0.760   1.647 -1.4416  0.3340  1.4909
14168SOL     OW54157   4.552   2.221   5.328 -0.2313  0.8597  0.2413
14168SOL    HW154158   4.622   2.153   5.310 -1.0101  0.1044  0.0209
14168SOL    HW254159   4.550   2.242   5.426 -0.7320 -0.2605  0.4755
14169SOL     OW54160   8.747   9.008   7.220  0.4103  0.2822  0.5042
14169SOL    HW154161   8.809   8.938   7.185 -1.5118 -2.2482  1.9764
14169SOL    HW254162   8.768   9.025   7.317 -2.0110 -1.6148  1.4056
14170SOL     OW54163   9.686   3.120   3.800 -0.0979  0.4728  0.6099
14170SOL    HW154164   9.590   3.148   3.807 -0.6193 -0.6110 -1.6740
14170SOL    HW254165   9.691   3.028   3.761  1.8986  0.8775 -0.1443
14171SOL     OW54166   0.087   7.112   6.072  0.7288  0.2974  0.0024
14171SOL    HW154167   0.049   7.102   6.164 -0.3431  0.9650 -0.3655
14171SOL    HW254168   0.157   7.042   6.058  0.8675  0.1509  1.3033
14172SOL     OW54169   6.011   2.182   4.009  0.2695  0.0381 -0.1102
14172SOL    HW154170   6.041   2.207   4.101  0.8468 -2.4598  0.4054
14172SOL    HW254171   5.911   2.182   4.006  0.2461  0.7023  0.3256
14173SOL     OW54172   5.843   7.481   2.060 -0.3957 -0.3507  0.0005
14173SOL    HW154173   5.907   7.543   2.106 -1.2835 -0.2644  1.1422
14173SOL    HW254174   5.887   7.441   1.980 -0.1281  2.4892 -1.3161
14174SOL     OW54175   8.569   7.302   4.165 -0.3679 -0.2621  0.0523
14174SOL    HW154176   8.571   7.336   4.259 -0.2850 -0.6906  0.2081
14174SOL    HW254177   8.475   7.301   4.131 -0.3695  0.1054  0.0545
14175SOL     OW54178   9.436   4.000   1.860 -0.4110  0.2801  0.2591
14175SOL    HW154179   9.494   3.965   1.787  1.0375  1.3609  0.8840
14175SOL    HW254180   9.442   3.939   1.939 -2.1647 -1.0211 -0.5738
14176SOL     OW54181   8.060   7.144   4.707 -0.0270 -0.8260 -0.2729
14176SOL    HW154182   8.106   7.065   4.665  1.5269  0.0844 -0.3528
14176SOL    HW254183   8.034   7.122   4.801 -0.1090 -1.6196 -0.4779
14177SOL     OW54184   9.175   1.510   6.309 -0.2880 -0.3218  0.0115
14177SOL    HW154185   9.211   1.602   6.293 -0.0369 -0.4435 -0.1164
14177SOL    HW254186   9.210   1.475   6.396 -2.1683  0.6000  1.1652
14178SOL     OW54187   4.836   2.014   0.791  0.1860 -0.0329  0.3943
14178SOL    HW154188   4.853   2.108   0.764 -2.1317  0.0150 -0.9818
14178SOL    HW254189   4.817   1.958   0.710  2.6962 -1.9771  1.0652
14179SOL     OW54190   3.736   6.398   1.414  0.4819  0.2670 -0.4018
14179SOL    HW154191   3.831   6.416   1.436  0.0960  1.8135  0.0645
14179SOL    HW254192   3.703   6.468   1.350 -0.6665  0.4624  0.3847
14180SOL     OW54193   9.317   3.269   2.030  0.4301 -0.5670  0.3563
14180SOL    HW154194   9.271   3.189   2.070 -0.1848 -0.0551  0.6887
14180SOL    HW254195   9.364   3.242   1.946 -0.3315 -1.1363  0.1103
14181SOL     OW54196   9.602   9.477   6.879 -0.0491 -0.8964  0.3037
14181SOL    HW154197   9.683   9.525   6.910  0.1128 -1.3124  0.5333
14181SOL    HW254198   9.583   9.400   6.940 -0.5332 -0.8865  0.1719
14182SOL     OW54199   8.019   3.587   3.785  0.2114  0.2382 -0.3230
14182SOL    HW154200   7.972   3.657   3.839  0.1761 -0.5558  0.7083
14182SOL    HW254201   8.118   3.594   3.799  0.2336  0.3414 -0.5366
14183SOL     OW54202   2.841   5.813   1.850 -0.1215 -0.2505  0.0677
14183SOL    HW154203   2.809   5.824   1.756  0.5408  2.4326  0.1290
14183SOL    HW254204   2.924   5.757   1.850  0.0150 -0.0631 -0.9629
14184SOL     OW54205   1.872   2.357   2.128  0.6397  0.0393 -0.3467
14184SOL    HW154206   1.829   2.305   2.053  0.6242 -1.2917  0.5710
14184SOL    HW254207   1.834   2.449   2.130  0.2345 -0.0851 -1.6348
14185SOL     OW54208   0.084   5.487   8.114  0.6597 -0.2598 -0.1239
14185SOL    HW154209   0.124   5.396   8.122  0.6001 -0.1982  1.1167
14185SOL    HW254210   0.065   5.523   8.206  1.4230  1.3319 -0.5663
14186SOL     OW54211   0.238   2.688   5.414  0.0547  0.6569 -0.4387
14186SOL    HW154212   0.315   2.625   5.421 -0.9417 -0.4238  1.0718
14186SOL    HW254213   0.183   2.683   5.497 -0.3668  3.1178 -0.5270
14187SOL     OW54214   2.828   9.695   5.143 -0.0733  0.1494  0.4008
14187SOL    HW154215   2.744   9.648   5.117 -0.6437  2.1161 -1.4723
14187SOL    HW254216   2.807   9.790   5.166  1.4344  0.2652  1.3736
14188SOL     OW54217   7.302   5.527   8.206  0.2718 -0.0682 -0.1658
14188SOL    HW154218   7.332   5.591   8.135 -0.4928  0.5794  0.0913
14188SOL    HW254219   7.221   5.563   8.252 -0.0373 -1.1163  0.1326
14189SOL     OW54220   3.086   3.398   4.251  0.1867  0.4964 -0.1109
14189SOL    HW154221   3.143   3.459   4.305 -0.3355  0.8978 -0.0130
14189SOL    HW254222   3.067   3.440   4.162 -0.7481  0.7898  0.2198
14190SOL     OW54223   0.176   9.227   7.025  0.4455 -0.4518 -0.4694
14190SOL    HW154224   0.123   9.177   7.094  2.4823 -1.4338  0.4202
14190SOL    HW254225   0.127   9.310   7.000 -0.5186 -0.2700  1.8927
14191SOL     OW54226   4.043   1.986   0.938  0.0701 -0.1382  0.0079
14191SOL    HW154227   4.067   2.043   0.860  0.0451 -0.7548 -0.4536
14191SOL    HW254228   4.108   1.911   0.946 -0.6475 -0.7781 -0.1581
14192SOL     OW54229   1.987   5.863   4.124  0.5110  0.1192  0.3041
14192SOL    HW154230   1.968   5.955   4.160 -0.3687  0.0689 -0.0314
14192SOL    HW254231   2.025   5.871   4.032  1.9273  0.2071  0.8754
14193SOL     OW54232   9.359   0.399   1.499 -0.2645 -0.5798 -0.0325
14193SOL    HW154233   9.374   0.325   1.433 -0.9789  0.1493 -1.0442
14193SOL    HW254234   9.321   0.478   1.451  0.9378  0.6089  0.9621
14194SOL     OW54235   3.929   9.352   2.854 -0.4437 -0.0019  0.0046
14194SOL    HW154236   3.943   9.255   2.877 -0.8405  0.1403  0.8758
14194SOL    HW254237   3.834   9.377   2.873 -0.0920  0.8108  0.7401
14195SOL     OW54238   2.410   9.476   5.524  0.2899 -0.1897  0.2753
14195SOL    HW154239   2.359   9.402   5.568 -0.8223 -0.0721 -0.7875
14195SOL    HW254240   2.496   9.491   5.573 -0.3343 -0.9183  1.6235
14196SOL     OW54241   9.258   8.820   5.503  0.1559  0.5515 -0.5995
14196SOL    HW154242   9.248   8.917   5.528 -1.2810  0.5497 -1.1348
14196SOL    HW254243   9.200   8.765   5.562 -1.3770  0.3117 -2.2998
14197SOL     OW54244   4.081   8.499   4.499 -0.2371  0.0123 -0.4939
14197SOL    HW154245   4.180   8.479   4.501 -0.3095 -0.4902 -1.4620
14197SOL    HW254246   4.034   8.425   4.451 -1.5015 -1.4461  2.8805
14198SOL     OW54247   7.617   1.993   2.627  0.4164 -0.0657  0.1943
14198SOL    HW154248   7.578   1.935   2.555  0.9581  0.8440 -0.8464
14198SOL    HW254249   7.687   1.942   2.676 -1.3241 -1.3676  1.4039
14199SOL     OW54250   0.990   2.136   2.276 -0.9144  0.5263  0.0268
14199SOL    HW154251   1.081   2.094   2.264 -1.3057  0.2720 -2.3181
14199SOL    HW254252   0.983   2.175   2.367  0.5455 -1.9442  1.2582
14200SOL     OW54253   7.640   5.803   0.033 -0.2073 -0.2946 -0.1617
14200SOL    HW154254   7.628   5.707   0.005  1.7249  0.0656 -2.4142
14200SOL    HW254255   7.550   5.846   0.043 -1.0667 -1.6730 -1.6154
14201SOL     OW54256   1.874   3.622   8.065 -0.1119 -0.4198 -0.8975
14201SOL    HW154257   1.807   3.658   8.000 -1.9863  0.7231  1.5995
14201SOL    HW254258   1.903   3.695   8.127  1.1106 -1.6552  0.0101
14202SOL     OW54259   0.018   1.282   0.074 -0.0370  0.0177  0.1047
14202SOL    HW154260  -0.061   1.225   0.049  0.0136  0.3342 -0.8118
14202SOL    HW254261   0.089   1.224   0.116 -0.9338 -0.1898  1.3633
14203SOL     OW54262   2.068   1.474   0.955 -0.6603 -0.4485 -0.0968
14203SOL    HW154263   2.034   1.431   0.871 -0.3790 -1.6051  0.3678
14203SOL    HW254264   2.030   1.425   1.035 -0.1412  0.0213  0.4386
14204SOL     OW54265   0.055   3.569   2.533  0.7762  0.0656 -0.1440
14204SOL    HW154266  -0.043   3.571   2.551  0.9872 -0.0867  1.0685
14204SOL    HW254267   0.087   3.662   2.513  0.5548  0.2852  0.4779
14205SOL     OW54268   1.417   5.205   1.056 -0.2297  0.8595 -0.0253
14205SOL    HW154269   1.321   5.229   1.069 -0.2274  0.5960  0.4894
14205SOL    HW254270   1.475   5.281   1.084 -0.3317  1.7367 -2.0803
14206SOL     OW54271   8.247   2.920   0.182  0.2761 -0.0781  0.2777
14206SOL    HW154272   8.250   2.820   0.172 -0.6561 -0.0964  0.2114
14206SOL    HW254273   8.310   2.948   0.255  1.2410 -0.6313 -0.3316
14207SOL     OW54274   0.300   7.456   4.930  0.4425  0.4474 -0.4334
14207SOL    HW154275   0.326   7.534   4.987  2.0226 -0.5179  0.2012
14207SOL    HW254276   0.210   7.422   4.958  0.2188  1.3821 -0.0211
14208SOL     OW54277   1.485   0.682   0.650  0.9402  0.0083  0.2105
14208SOL    HW154278   1.516   0.735   0.729  0.0039 -0.0282  0.6089
14208SOL    HW254279   1.454   0.592   0.681 -1.4235  0.7422  0.0921
14209SOL     OW54280   1.231   5.752   6.303  0.3140  0.5165 -0.0709
14209SOL    HW154281   1.134   5.727   6.298  0.8783 -1.9000  0.2743
14209SOL    HW254282   1.272   5.745   6.213  0.3467  0.7705 -0.0765
14210SOL     OW54283   1.744   0.838   7.585 -0.2614 -0.0332 -0.0459
14210SOL    HW154284   1.836   0.799   7.574  0.6813  2.1133 -0.1086
14210SOL    HW254285   1.676   0.773   7.553  1.1653 -2.0556  0.8775
14211SOL     OW54286   4.407   6.005   2.918 -0.2639 -0.8482  0.2492
14211SOL    HW154287   4.420   6.062   2.999 -0.2938  0.8276 -0.9133
14211SOL    HW254288   4.337   5.936   2.937 -1.6504  0.7271  1.0532
14212SOL     OW54289   2.572   1.532   5.038  0.3561  0.0780 -0.6232
14212SOL    HW154290   2.626   1.562   5.117  0.3167  0.7734 -0.8527
14212SOL    HW254291   2.579   1.600   4.965  0.8700 -0.8520 -1.4439
14213SOL     OW54292   7.701   6.518   6.320 -0.2607 -0.1110  0.4203
14213SOL    HW154293   7.698   6.429   6.365  1.3373 -0.0559  0.6449
14213SOL    HW254294   7.623   6.573   6.350 -0.3637 -0.8378  1.5182
14214SOL     OW54295   4.823   2.374   4.046  0.9536  0.2342 -0.4002
14214SOL    HW154296   4.857   2.324   4.126 -1.7635  0.7668  1.1277
14214SOL    HW254297   4.873   2.461   4.038  1.6323 -0.0687  0.3821
14215SOL     OW54298   3.961   2.952   7.285  0.6624  0.4261 -0.1712
14215SOL    HW154299   3.896   2.958   7.209  0.5862 -2.0477 -0.3601
14215SOL    HW254300   4.033   3.020   7.274 -0.6759  1.7041 -1.1526
14216SOL     OW54301   9.914   9.671   1.727  0.2430 -0.3074  1.1650
14216SOL    HW154302   9.929   9.586   1.676  0.4367  0.4783 -0.1183
14216SOL    HW254303   9.846   9.655   1.798 -0.3379 -1.3409  0.4021
14217SOL     OW54304   7.245   6.176   2.410 -0.6101  0.4327  0.1166
14217SOL    HW154305   7.193   6.131   2.337  0.6534 -0.1723 -0.4106
14217SOL    HW254306   7.300   6.250   2.372 -2.4309  2.2552  0.9372
14218SOL     OW54307   5.191   9.009   1.673 -0.0580 -0.7026  0.0042
14218SOL    HW154308   5.251   9.080   1.639  0.6352 -0.9177  0.7546
14218SOL    HW254309   5.162   8.950   1.597 -1.2034  0.7754 -0.7360
14219SOL     OW54310   5.138   3.841   0.086 -0.5424 -0.0394 -0.3546
14219SOL    HW154311   5.126   3.912   0.155 -3.2926  0.4268 -1.2395
14219SOL    HW254312   5.178   3.882   0.003  1.9385 -0.4267  0.6162
14220SOL     OW54313   1.151   6.731   1.243 -0.9264 -0.2353 -0.1533
14220SOL    HW154314   1.099   6.655   1.204 -0.7498 -0.9097  0.9050
14220SOL    HW254315   1.213   6.768   1.174 -0.3352 -1.6659 -0.4092
14221SOL     OW54316   4.355   7.459   3.196  0.0466 -0.1383 -0.2610
14221SOL    HW154317   4.335   7.547   3.240 -0.9669 -0.1327 -0.7343
14221SOL    HW254318   4.298   7.388   3.237 -1.5211  0.0185 -2.1461
14222SOL     OW54319   0.440   6.593   0.037 -0.4143 -0.0785  0.3512
14222SOL    HW154320   0.387   6.608  -0.047 -1.5750 -2.9589  0.5070
14222SOL    HW254321   0.521   6.652   0.036 -0.6457  0.2868 -2.5817
14223SOL     OW54322   2.392   1.546   1.528  0.8213  0.2812  0.1604
14223SOL    HW154323   2.345   1.587   1.449  1.5929  0.3319 -0.2711
14223SOL    HW254324   2.483   1.586   1.537  0.5294  0.6724  1.4071
14224SOL     OW54325   2.173   1.921   0.233  0.6371 -0.7932 -0.3435
14224SOL    HW154326   2.094   1.960   0.184  0.8228 -0.0192 -0.0435
14224SOL    HW254327   2.141   1.859   0.305  0.2960 -0.3895 -0.1429
14225SOL     OW54328   7.866   4.603   7.199 -0.3206  0.4384  0.3934
14225SOL    HW154329   7.806   4.554   7.262  0.0616 -0.3210  0.1702
14225SOL    HW254330   7.955   4.558   7.194  0.7803  2.3700  1.7968
14226SOL     OW54331   1.977   8.382   3.950 -0.0597 -0.3323 -0.8221
14226SOL    HW154332   1.940   8.469   3.919 -2.4267 -0.8190  0.5063
14226SOL    HW254333   1.945   8.309   3.889 -1.1314 -0.7306  0.2103
14227SOL     OW54334   2.024   9.940   1.688  0.2868 -0.0612 -0.0038
14227SOL    HW154335   2.094   9.897   1.632  1.9061  2.4629 -0.0091
14227SOL    HW254336   1.943   9.961   1.632  0.9577  0.2962 -0.8408
14228SOL     OW54337   6.456   0.191   3.390 -0.1372  0.2412  0.3935
14228SOL    HW154338   6.392   0.162   3.461  0.0154  0.8860  0.8000
14228SOL    HW254339   6.455   0.291   3.384 -1.3183  0.1582 -1.5738
14229SOL     OW54340   2.127   4.511   6.958 -0.1529 -0.1065 -0.5803
14229SOL    HW154341   2.087   4.442   6.899 -1.2121  0.0494 -0.0471
14229SOL    HW254342   2.190   4.568   6.905  0.5891 -1.3632 -1.0546
14230SOL     OW54343   8.209   3.895   6.359  0.6860 -0.1733 -0.2841
14230SOL    HW154344   8.275   3.969   6.359 -0.0106  0.4688  2.2245
14230SOL    HW254345   8.233   3.828   6.430 -2.2194  0.8863  1.7566
14231SOL     OW54346   5.371   2.309   5.044  0.3154 -0.0742  0.3583
14231SOL    HW154347   5.421   2.353   5.118  1.7926 -0.0165 -0.6459
14231SOL    HW254348   5.282   2.353   5.032  0.6879  0.8815  1.1010
14232SOL     OW54349   7.789   9.668   6.860  0.0005 -0.1542 -0.3797
14232SOL    HW154350   7.773   9.714   6.773 -0.7499 -1.6328 -1.0255
14232SOL    HW254351   7.710   9.680   6.920 -0.9104 -2.0432 -1.1887
14233SOL     OW54352   0.694   2.882   4.141  0.2071  0.2989 -0.5462
14233SOL    HW154353   0.639   2.800   4.128  1.1641 -0.3179 -0.7413
14233SOL    HW254354   0.755   2.870   4.219  1.0401  0.4455 -1.1677
14234SOL     OW54355   1.197   4.656   4.674 -0.3640 -0.0056 -0.2877
14234SOL    HW154356   1.296   4.645   4.678 -0.4487 -0.7287 -0.1132
14234SOL    HW254357   1.174   4.753   4.670  0.3621  0.1465 -0.7168
14235SOL     OW54358   8.872   9.779   6.055 -0.0609  0.1071 -0.3862
14235SOL    HW154359   8.863   9.732   5.967  1.0541  0.0295 -0.4725
14235SOL    HW254360   8.900   9.874   6.040 -1.3494  0.5276 -0.1705
14236SOL     OW54361   9.753   2.353   6.984 -0.6546 -0.4057  0.5582
14236SOL    HW154362   9.787   2.399   7.067  0.2890  0.3310 -0.2287
14236SOL    HW254363   9.807   2.271   6.968  0.3078  0.3853 -0.2951
14237SOL     OW54364   5.975   4.792   1.430  0.0997  0.2001 -0.4855
14237SOL    HW154365   6.014   4.845   1.505  0.6458 -0.8496 -0.0233
14237SOL    HW254366   6.013   4.826   1.343  1.1739 -0.0525 -0.1252
14238SOL     OW54367   2.902   3.018   7.425  0.7521 -0.5946 -0.3168
14238SOL    HW154368   2.839   3.071   7.481  0.0939 -3.2536  1.5300
14238SOL    HW254369   2.994   3.056   7.433 -0.0941  1.7225 -0.9939
14239SOL     OW54370   7.169   0.942   2.056 -0.4100 -0.1434 -0.1981
14239SOL    HW154371   7.207   1.030   2.028  0.5052 -0.3976  0.2266
14239SOL    HW254372   7.090   0.956   2.115  0.9127  0.4015  1.4725
14240SOL     OW54373   5.588   2.840   1.303 -0.0648 -0.2735 -0.4572
14240SOL    HW154374   5.625   2.925   1.341 -0.9798 -0.3918  0.7126
14240SOL    HW254375   5.565   2.777   1.377 -2.1435 -0.3898 -1.1683
14241SOL     OW54376   3.303   4.441   7.150  0.3032 -0.1863 -0.8945
14241SOL    HW154377   3.394   4.480   7.165  0.7707 -1.5787  0.0051
14241SOL    HW254378   3.253   4.498   7.085  1.3234  1.3530 -0.3860
14242SOL     OW54379   6.259   2.293   4.901 -0.7416 -0.2849 -0.2662
14242SOL    HW154380   6.273   2.379   4.853 -0.4401  0.5965  1.3411
14242SOL    HW254381   6.161   2.275   4.912 -0.8119 -0.5816 -1.3361
14243SOL     OW54382   9.464   2.446   6.040 -0.3706 -0.5289 -0.1531
14243SOL    HW154383   9.482   2.510   5.965 -1.0419 -0.9886 -0.7041
14243SOL    HW254384   9.500   2.485   6.125 -0.0241  0.2040 -0.6233
14244SOL     OW54385   8.488   9.459   1.601  0.4934  0.2988  0.0385
14244SOL    HW154386   8.540   9.544   1.597  0.6832  0.2116  0.6079
14244SOL    HW254387   8.521   9.403   1.677  2.1294 -1.4570 -1.9124
14245SOL     OW54388   1.510   8.057   7.241 -0.0989  0.6141  0.1304
14245SOL    HW154389   1.475   8.040   7.333 -0.6344 -0.5600 -0.2826
14245SOL    HW254390   1.575   8.133   7.244  2.6523 -1.7445  2.0895
14246SOL     OW54391   3.626   9.691   2.821 -0.2268  0.5150 -0.2679
14246SOL    HW154392   3.705   9.752   2.826 -0.3541  0.7223 -0.7583
14246SOL    HW254393   3.554   9.734   2.766 -0.5620  0.2003 -0.0763
14247SOL     OW54394   9.359   0.669   0.726  0.1479  0.0421 -0.6673
14247SOL    HW154395   9.393   0.612   0.652  0.7848  0.3073 -0.5857
14247SOL    HW254396   9.415   0.752   0.732  0.8279 -0.5090  0.8333
14248SOL     OW54397   7.243   1.731   3.214  0.4549 -0.3203  0.5381
14248SOL    HW154398   7.207   1.659   3.274 -0.8038  2.6175  3.4759
14248SOL    HW254399   7.322   1.775   3.257  0.0865  1.2714 -0.3534
14249SOL     OW54400   3.976   9.284   1.829 -0.2421 -0.1100 -0.0990
14249SOL    HW154401   3.929   9.236   1.755 -1.0667 -0.4610  0.6370
14249SOL    HW254402   3.909   9.335   1.883  0.3970  0.4142  0.2065
14250SOL     OW54403   4.359   4.405   1.951  0.5016  0.1181  0.6052
14250SOL    HW154404   4.429   4.334   1.960  1.5695  1.0553 -0.1759
14250SOL    HW254405   4.279   4.380   2.006  0.9013 -1.6352  0.4170
14251SOL     OW54406   3.696   0.748   4.595 -0.3875  0.6951  0.2993
14251SOL    HW154407   3.643   0.833   4.587 -2.0738 -0.3232  0.4974
14251SOL    HW254408   3.645   0.682   4.650  2.1337  0.4927  2.5109
14252SOL     OW54409   9.331   9.008   1.238  0.0417 -0.0129  0.0465
14252SOL    HW154410   9.319   8.939   1.167 -0.0682 -0.1459  0.1924
14252SOL    HW254411   9.310   9.099   1.202 -1.4666 -0.2492  0.3196
14253SOL     OW54412   4.294   7.964   5.668 -0.0414  0.0881 -0.7003
14253SOL    HW154413   4.346   7.886   5.633  1.3749 -2.8958  6.9779
14253SOL    HW254414   4.198   7.938   5.677 -0.1089  0.2636 -0.9279
14254SOL     OW54415   9.141   4.586   1.077 -0.1244 -0.4011  0.0683
14254SOL    HW154416   9.070   4.529   1.035 -0.4224  0.6547 -0.8930
14254SOL    HW254417   9.216   4.598   1.013  0.3489 -0.4548  0.6088
14255SOL     OW54418   7.340   9.683   2.657  0.3480  0.2476 -0.5379
14255SOL    HW154419   7.330   9.682   2.756  0.5756 -1.3553 -0.5189
14255SOL    HW254420   7.437   9.697   2.633  0.1030  1.9726 -0.5575
14256SOL     OW54421   8.322   1.238   0.322  0.9669  0.3108 -0.2190
14256SOL    HW154422   8.398   1.225   0.386  2.0459 -0.2396 -1.5880
14256SOL    HW254423   8.280   1.328   0.338  0.0628 -0.5564  2.4368
14257SOL     OW54424   3.818   1.114   1.988 -0.1125  0.0800  0.2741
14257SOL    HW154425   3.892   1.181   1.993  0.1654 -0.2304  0.3330
14257SOL    HW254426   3.732   1.157   2.015 -0.0574  0.5996 -0.3718
14258SOL     OW54427   2.132   2.488   7.149 -0.3081 -0.0081 -0.0433
14258SOL    HW154428   2.091   2.404   7.184 -0.6008  0.4979  0.8321
14258SOL    HW254429   2.077   2.522   7.073 -1.4555  0.5931  1.0330
14259SOL     OW54430   0.862   7.998   5.626 -0.5008 -0.5651  0.1261
14259SOL    HW154431   0.867   8.011   5.725  0.0944 -0.2230  0.0542
14259SOL    HW254432   0.872   8.087   5.580  1.1150 -0.9511 -0.2921
14260SOL     OW54433   8.635   7.867   7.369 -0.2399 -0.5978  0.3507
14260SOL    HW154434   8.658   7.861   7.272  1.6682  3.0164  0.4883
14260SOL    HW254435   8.538   7.847   7.382 -0.5219 -1.0893 -2.2742
14261SOL     OW54436   3.447   6.613   4.501  0.2241 -0.4404 -0.2050
14261SOL    HW154437   3.525   6.553   4.518 -1.2024 -2.1908  0.3699
14261SOL    HW254438   3.408   6.591   4.412 -0.5864 -0.7241  0.2095
14262SOL     OW54439   2.470   1.304   3.765 -0.7863  0.0101  0.5161
14262SOL    HW154440   2.427   1.384   3.807 -1.2035 -0.1076  0.3148
14262SOL    HW254441   2.505   1.328   3.674 -1.7555 -0.2760  0.0594
14263SOL     OW54442   4.185   8.969   5.218 -0.1236  0.1183  0.5731
14263SOL    HW154443   4.161   9.030   5.294 -1.0497 -0.2752  0.6064
14263SOL    HW254444   4.272   8.923   5.238 -0.0579  0.4770  1.1202
14264SOL     OW54445   0.926   2.712   2.596 -0.3085  0.2731 -0.7454
14264SOL    HW154446   0.881   2.658   2.667  0.1124  0.2752 -0.4794
14264SOL    HW254447   0.963   2.651   2.526 -0.5821  0.2636 -0.8846
14265SOL     OW54448   1.374   0.903   0.914 -0.0317 -0.3709  0.7949
14265SOL    HW154449   1.323   0.978   0.871 -2.9451 -2.7986 -0.1452
14265SOL    HW254450   1.443   0.869   0.851 -0.2001  0.0518  0.3776
14266SOL     OW54451   2.850   1.871   7.911  0.3464 -0.1731 -0.3043
14266SOL    HW154452   2.813   1.783   7.882 -0.8195 -0.2038  1.2042
14266SOL    HW254453   2.900   1.913   7.836 -0.0866 -1.5890 -1.3990
14267SOL     OW54454   2.529   8.910   0.437  0.0111 -0.3183  0.0191
14267SOL    HW154455   2.476   8.829   0.464 -1.2404  0.3010 -0.5642
14267SOL    HW254456   2.571   8.950   0.518 -1.0125 -0.3952  0.6034
14268SOL     OW54457   0.924   1.750   6.820  0.5281  0.1635  0.3887
14268SOL    HW154458   0.849   1.721   6.880 -0.7579 -0.1381 -1.3161
14268SOL    HW254459   0.887   1.775   6.731  2.2941  1.6036  0.0282
14269SOL     OW54460   5.281   6.340   0.525  0.1273 -0.3850 -0.3938
14269SOL    HW154461   5.260   6.251   0.567 -0.4334 -0.2216 -0.3203
14269SOL    HW254462   5.266   6.335   0.427  0.3167 -0.4356 -0.4208
14270SOL     OW54463   5.061   1.210   4.260 -0.3156  0.2786 -0.2005
14270SOL    HW154464   5.124   1.287   4.254 -0.0005  0.2642  2.3924
14270SOL    HW254465   4.969   1.241   4.238 -0.1619  1.3635  0.6533
14271SOL     OW54466   9.607   5.024   4.265  0.2346  0.0568  0.3233
14271SOL    HW154467   9.629   4.951   4.200  0.3925 -0.0898  0.5412
14271SOL    HW254468   9.512   5.051   4.253  0.3625  0.2807 -0.2194
14272SOL     OW54469   2.498   5.790   7.398 -0.0233  0.2150  0.2758
14272SOL    HW154470   2.475   5.837   7.483 -0.1436 -1.1390  1.0027
14272SOL    HW254471   2.597   5.796   7.383 -0.3756  3.1019 -1.0950
14273SOL     OW54472   7.676   0.871   0.580 -0.1445  0.2760 -0.0195
14273SOL    HW154473   7.675   0.900   0.484  0.9823  0.0220 -0.1131
14273SOL    HW254474   7.635   0.943   0.636 -0.1552  0.7407 -0.6053
14274SOL     OW54475   1.014   3.645   6.677  0.2862 -0.4621 -0.3387
14274SOL    HW154476   1.081   3.681   6.742 -2.5504  2.9255  0.9014
14274SOL    HW254477   0.943   3.596   6.726 -0.7083  0.1957 -1.1050
14275SOL     OW54478   2.655   3.317   2.366 -0.2146  0.2505 -0.6286
14275SOL    HW154479   2.579   3.330   2.303  0.0386  1.4561 -0.6943
14275SOL    HW254480   2.637   3.237   2.423 -1.8112  0.8626 -0.2462
14276SOL     OW54481   6.182   7.742   2.344 -0.0600 -0.2490  0.0738
14276SOL    HW154482   6.200   7.834   2.308 -2.1063  0.4250  0.6819
14276SOL    HW254483   6.250   7.721   2.414  0.9260  0.4573 -0.6396
14277SOL     OW54484   8.466   6.821   3.287  0.1318  0.6171 -0.1604
14277SOL    HW154485   8.564   6.841   3.284  0.3884 -0.5318  0.6000
14277SOL    HW254486   8.442   6.785   3.377 -1.4147  3.0086  0.4157
14278SOL     OW54487   0.811   1.191   5.216 -0.1050  0.1539 -0.2077
14278SOL    HW154488   0.829   1.199   5.118  0.1213  1.4372 -0.0649
14278SOL    HW254489   0.886   1.232   5.268 -0.1524 -0.6444  0.5060
14279SOL     OW54490   2.958   0.478   3.440 -0.6317 -0.1266  0.2811
14279SOL    HW154491   2.893   0.547   3.472 -1.1092  0.0099 -0.9824
14279SOL    HW254492   3.039   0.523   3.403 -0.1895 -0.2854  1.0284
14280SOL     OW54493   1.117   3.783   6.432 -0.0205 -0.0624 -0.4429
14280SOL    HW154494   1.100   3.766   6.335 -2.1587  0.7320 -0.2387
14280SOL    HW254495   1.065   3.716   6.486 -2.0839  1.9965  0.2018
14281SOL     OW54496   4.898   6.636   0.951 -0.1858 -0.5298 -0.1405
14281SOL    HW154497   4.825   6.689   0.909 -0.4056 -0.6936  0.0324
14281SOL    HW254498   4.895   6.648   1.051  0.0981 -0.4398 -0.1433
14282SOL     OW54499   1.269   8.290   7.396  0.3550 -0.5316  0.2012
14282SOL    HW154500   1.180   8.259   7.363  1.2803 -0.9276 -2.0348
14282SOL    HW254501   1.309   8.221   7.456  0.0910 -1.3106 -0.5154
14283SOL     OW54502   2.086   0.750   3.281 -0.1669 -0.0336  0.4098
14283SOL    HW154503   2.048   0.760   3.189 -1.2514  0.7312  0.9292
14283SOL    HW254504   2.078   0.654   3.310  0.1087 -0.2618 -0.2507
14284SOL     OW54505   2.662   8.153   0.506  0.1762  0.1617 -0.5042
14284SOL    HW154506   2.662   8.251   0.524  1.4177  0.2485 -0.9503
14284SOL    HW254507   2.654   8.137   0.407  0.0939 -0.1832 -0.4422
14285SOL     OW54508   2.985   2.622   1.112  0.6945 -0.1224  0.3819
14285SOL    HW154509   3.002   2.636   1.210 -1.2926  0.6111  0.6205
14285SOL    HW254510   3.070   2.592   1.069  1.9156  0.7638  2.0918
14286SOL     OW54511   1.729   7.598   5.659  0.7053  0.5384 -0.0511
14286SOL    HW154512   1.791   7.676   5.663 -0.6579  1.6093  0.4119
14286SOL    HW254513   1.739   7.543   5.742  1.4850  0.3464 -0.2673
14287SOL     OW54514   9.067   1.981   6.582 -0.4905  0.2928  0.0499
14287SOL    HW154515   9.128   1.949   6.655 -1.2230 -0.5392  0.3040
14287SOL    HW254516   9.057   1.909   6.514 -0.8674  0.5851 -0.2011
14288SOL     OW54517   9.095   0.367   2.343 -0.3399 -0.4606 -0.5197
14288SOL    HW154518   9.093   0.401   2.249 -1.8074 -0.4779 -0.5034
14288SOL    HW254519   9.045   0.430   2.402 -0.3622 -1.0253  0.0670
14289SOL     OW54520   2.222   6.771   5.392  0.0135  0.0645  0.0855
14289SOL    HW154521   2.185   6.835   5.460  0.1724  0.8201 -0.5202
14289SOL    HW254522   2.276   6.700   5.437  0.4140  0.7698  0.7222
14290SOL     OW54523   9.596   7.518   4.251  0.2512 -0.1931 -0.2971
14290SOL    HW154524   9.500   7.513   4.224  0.0231  2.1343 -0.0654
14290SOL    HW254525   9.603   7.541   4.348  1.0577 -2.5996  0.2343
14291SOL     OW54526   2.487   1.178   7.400 -0.1510  0.4271  0.0594
14291SOL    HW154527   2.562   1.177   7.333 -1.5354 -0.5915 -1.4982
14291SOL    HW254528   2.411   1.233   7.365 -1.0718 -0.4845  0.5912
14292SOL     OW54529   4.736   3.441   1.786 -0.0041 -0.2032  0.0722
14292SOL    HW154530   4.809   3.504   1.813  0.3323 -0.3101 -0.5800
14292SOL    HW254531   4.742   3.358   1.842  0.3698 -0.2056  0.0313
14293SOL     OW54532   3.664   1.394   3.421 -0.0533 -0.6134  0.3265
14293SOL    HW154533   3.660   1.383   3.322  0.2281 -1.2832  0.3846
14293SOL    HW254534   3.741   1.343   3.457 -0.7201 -1.1672  0.9902
14294SOL     OW54535   3.003   4.295   5.613  0.5684  0.1942  0.2058
14294SOL    HW154536   3.083   4.249   5.651 -0.4136 -2.3238 -0.6818
14294SOL    HW254537   2.995   4.274   5.516 -2.4966 -1.5987  0.7779
14295SOL     OW54538   6.387   0.713   1.081  0.5882  0.4251  0.3006
14295SOL    HW154539   6.299   0.726   1.034  0.5878 -0.0075  0.1824
14295SOL    HW254540   6.444   0.651   1.028  0.6601  0.0766  0.7861
14296SOL     OW54541   1.825   4.129   2.228 -0.0689 -0.5135  0.3349
14296SOL    HW154542   1.822   4.050   2.290  0.2149  0.2716  1.3700
14296SOL    HW254543   1.920   4.158   2.217 -0.2423  0.1177  0.5154
14297SOL     OW54544   6.463   1.452   7.876  0.2897 -0.2276 -0.4558
14297SOL    HW154545   6.460   1.512   7.956  0.0713 -0.7019 -0.1030
14297SOL    HW254546   6.545   1.471   7.823 -0.5543  1.4317 -1.1742
14298SOL     OW54547   6.123   0.181   4.695 -0.0291 -0.1558  0.5846
14298SOL    HW154548   6.162   0.095   4.727 -1.2249 -0.3155  1.6714
14298SOL    HW254549   6.132   0.187   4.595  2.8793 -0.0962  0.8014
14299SOL     OW54550   4.869   7.443   6.045 -0.2703  0.3379 -0.0489
14299SOL    HW154551   4.880   7.428   5.947 -0.6462  0.1517 -0.0628
14299SOL    HW254552   4.776   7.474   6.064 -0.7802 -1.4254  0.4543
14300SOL     OW54553   6.216   7.071   4.380  0.2013  0.4878  0.0963
14300SOL    HW154554   6.249   7.140   4.316 -2.0631  1.3382 -0.1869
14300SOL    HW254555   6.186   7.116   4.465  1.0752 -0.4109  0.8963
14301SOL     OW54556   1.388   5.737   6.034  0.3771  0.1467 -0.3709
14301SOL    HW154557   1.346   5.673   5.970 -0.0370 -0.0090  0.0544
14301SOL    HW254558   1.487   5.740   6.019  0.7139 -2.2650  1.0842
14302SOL     OW54559   2.375   6.591   5.536  0.2741  0.6878 -0.0202
14302SOL    HW154560   2.441   6.553   5.471  0.0071  0.2530 -0.0399
14302SOL    HW254561   2.330   6.516   5.584  1.2155  1.0349  1.4105
14303SOL     OW54562   2.654   3.312   5.610 -0.2717 -0.4942 -0.4544
14303SOL    HW154563   2.647   3.405   5.647 -0.5096 -0.6742 -0.0295
14303SOL    HW254564   2.577   3.258   5.644  0.7216 -1.2809  0.5792
14304SOL     OW54565   5.286   8.721   3.179  0.0850  0.0502 -0.0696
14304SOL    HW154566   5.354   8.702   3.108  0.8805  0.8645  0.4603
14304SOL    HW254567   5.305   8.666   3.260 -0.2927 -0.2241 -0.1670
14305SOL     OW54568   3.630   1.256   7.775  0.2954  0.7188 -0.5900
14305SOL    HW154569   3.659   1.260   7.871 -0.5159 -1.3448 -0.2297
14305SOL    HW254570   3.707   1.225   7.718  0.1463 -0.2428 -0.2800
14306SOL     OW54571   9.693   8.692   7.879 -0.2155 -0.4361 -1.0678
14306SOL    HW154572   9.756   8.740   7.939 -1.3027 -0.6704  0.2849
14306SOL    HW254573   9.646   8.620   7.929 -0.3263 -1.3817 -2.4852
14307SOL     OW54574   9.145   1.386   0.167  0.3067 -0.1814  0.0219
14307SOL    HW154575   9.209   1.361   0.240  2.0454  1.1667 -0.9860
14307SOL    HW254576   9.075   1.316   0.159  2.0673 -2.0852  0.7100
14308SOL     OW54577   2.148   4.127   4.220 -0.4182 -0.1954 -0.5091
14308SOL    HW154578   2.081   4.063   4.258 -1.1289  0.7272 -0.1776
14308SOL    HW254579   2.119   4.155   4.129 -0.1543 -0.2909 -0.6202
14309SOL     OW54580   1.852   1.023   5.713 -0.0292  0.6700 -0.4509
14309SOL    HW154581   1.835   1.086   5.637 -0.8601  2.1897  0.9606
14309SOL    HW254582   1.768   1.010   5.765  0.1205 -1.6997 -0.7684
14310SOL     OW54583   2.216   2.743   1.171  0.2424  0.6615 -0.3275
14310SOL    HW154584   2.235   2.646   1.186 -0.1352  0.1933 -2.6604
14310SOL    HW254585   2.117   2.758   1.167  0.3053  1.0246 -0.6317
14311SOL     OW54586   0.469   1.040   6.361 -0.1525  0.1803  0.7821
14311SOL    HW154587   0.554   1.092   6.366 -2.4089  3.9602  3.2768
14311SOL    HW254588   0.464   0.977   6.439  1.0739 -1.2781 -0.3062
14312SOL     OW54589   2.653   3.628   7.292  0.5249  0.0229  0.1138
14312SOL    HW154590   2.701   3.708   7.328  0.2435 -0.0080  0.5547
14312SOL    HW254591   2.695   3.545   7.329  0.7799 -0.0339 -0.2980
14313SOL     OW54592   2.134   5.749   6.528 -0.4455 -0.0550  0.2004
14313SOL    HW154593   2.180   5.773   6.613 -0.5445 -1.1810  0.5840
14313SOL    HW254594   2.158   5.815   6.457  0.6560  0.1581  0.7639
14314SOL     OW54595   0.291   7.451   6.632  0.0053 -0.1957 -0.4880
14314SOL    HW154596   0.288   7.397   6.548  1.9692 -0.2047 -0.5563
14314SOL    HW254597   0.301   7.390   6.710 -0.0664 -0.0730 -0.3827
14315SOL     OW54598   8.793   9.138   3.560  0.0168  0.4732 -0.1018
14315SOL    HW154599   8.893   9.144   3.561 -0.0299  1.3000 -0.4260
14315SOL    HW254600   8.763   9.086   3.480  0.2074 -0.0926  0.1968
14316SOL     OW54601   0.727   1.384   6.518 -0.1991  0.0178  0.5839
14316SOL    HW154602   0.773   1.387   6.607  0.6536  1.4339  0.1122
14316SOL    HW254603   0.629   1.373   6.531 -0.2823  2.0518  1.7437
14317SOL     OW54604   8.108   5.164   2.194  0.3459 -0.1265  0.6704
14317SOL    HW154605   8.165   5.082   2.197  1.1136  0.4168  0.9715
14317SOL    HW254606   8.159   5.241   2.231 -0.9725  0.1428  1.9361
14318SOL     OW54607   2.429   2.819   1.369  1.0631  0.1239 -0.3473
14318SOL    HW154608   2.404   2.786   1.460  1.1643  1.6431  0.2384
14318SOL    HW254609   2.350   2.810   1.308  0.5384  0.4725  0.2702
14319SOL     OW54610   5.756   2.616   4.162 -0.0781 -0.0134 -0.1060
14319SOL    HW154611   5.801   2.536   4.201  0.0152  0.4837  0.8233
14319SOL    HW254612   5.798   2.639   4.074  0.6994 -0.2682  0.1931
14320SOL     OW54613   0.616   3.023   6.666 -0.2803  0.4248 -0.0115
14320SOL    HW154614   0.706   3.066   6.660 -0.4222  0.5335 -1.6287
14320SOL    HW254615   0.545   3.094   6.672 -0.5492  0.5007 -3.1583
14321SOL     OW54616   1.984   1.175   2.609  0.1069 -0.1314  0.3970
14321SOL    HW154617   2.040   1.106   2.563  0.2198  0.5091 -0.4313
14321SOL    HW254618   1.899   1.133   2.641  0.8442 -0.9936  1.2291
14322SOL     OW54619   7.370   5.007   7.758 -0.4943  0.2000  0.0893
14322SOL    HW154620   7.454   5.040   7.715 -0.1050  0.4505  1.0491
14322SOL    HW254621   7.291   5.044   7.708 -0.0580  1.7150  0.4870
14323SOL     OW54622   3.932   0.170   6.177 -0.0263 -0.0291 -0.1161
14323SOL    HW154623   3.947   0.077   6.213  0.3306 -0.1323 -0.5331
14323SOL    HW254624   4.009   0.228   6.202  0.7121 -0.3668 -1.6090
14324SOL     OW54625   9.734   4.205   1.197 -0.0407  0.0876  0.4503
14324SOL    HW154626   9.763   4.122   1.149  1.8694  1.0785 -0.1758
14324SOL    HW254627   9.636   4.201   1.213  0.1396 -2.6719  1.2016
14325SOL     OW54628   9.788   0.443   1.319  0.3165 -0.3104 -0.0510
14325SOL    HW154629   9.772   0.365   1.380  1.6272 -0.7003 -0.1785
14325SOL    HW254630   9.720   0.514   1.336 -1.2417 -1.7155 -0.3130
14326SOL     OW54631   0.809   2.740   8.094 -0.3967 -0.5311 -0.0004
14326SOL    HW154632   0.750   2.661   8.112  0.4993 -1.2743 -0.2813
14326SOL    HW254633   0.898   2.725   8.136 -0.0960  0.1645 -0.3906
14327SOL     OW54634   4.766   5.452   2.344 -0.6035  0.2215  0.0656
14327SOL    HW154635   4.704   5.445   2.265  1.1474  0.3930 -1.3766
14327SOL    HW254636   4.827   5.373   2.345  1.1476  1.5279 -0.3328
14328SOL     OW54637   3.087   1.851   0.221 -0.2688 -0.0551  0.0997
14328SOL    HW154638   3.132   1.763   0.236  0.7697  0.2660 -1.0519
14328SOL    HW254639   3.033   1.846   0.137  0.7306  0.7608 -0.5972
14329SOL     OW54640   1.905   6.085   2.336 -0.0607  0.0546 -0.1085
14329SOL    HW154641   1.884   6.121   2.244  0.6085 -1.0317 -0.6926
14329SOL    HW254642   2.002   6.095   2.354 -0.6783  3.2354  1.8063
14330SOL     OW54643   1.401   5.854   6.485 -0.0898  0.4387 -0.4174
14330SOL    HW154644   1.484   5.843   6.431  0.7901  0.5729  0.8650
14330SOL    HW254645   1.321   5.834   6.429  0.7795  0.9049 -1.8349
14331SOL     OW54646   9.231   5.828   0.350 -0.1277 -0.2904 -0.5370
14331SOL    HW154647   9.189   5.751   0.302 -0.2679  0.3675 -1.4762
14331SOL    HW254648   9.292   5.878   0.288 -1.7722  1.6939 -0.6256
14332SOL     OW54649   0.244   1.159   6.256  0.2372  0.9705  0.6484
14332SOL    HW154650   0.180   1.090   6.289 -0.9010  1.2212 -0.9652
14332SOL    HW254651   0.335   1.139   6.290  0.4546 -2.8438 -1.8879
14333SOL     OW54652   3.864   0.477   1.989  0.5550  0.1238 -0.2591
14333SOL    HW154653   3.811   0.562   1.993  0.8666  0.2770  0.6677
14333SOL    HW254654   3.861   0.441   1.895 -0.5896  0.4990 -0.3764
14334SOL     OW54655   9.519   1.353   4.809 -0.2423 -0.0326  0.1193
14334SOL    HW154656   9.431   1.399   4.795  0.0181  0.0698 -1.1912
14334SOL    HW254657   9.502   1.256   4.828 -0.6779  0.1549  0.7194
14335SOL     OW54658   4.061   2.883   4.987  0.0406 -0.2375 -0.0262
14335SOL    HW154659   4.037   2.880   4.890 -2.9825  1.7456  0.5999
14335SOL    HW254660   4.057   2.978   5.019  1.0479 -0.8738  2.0336
14336SOL     OW54661   3.899   8.422   6.864  0.5396 -0.2311  0.7672
14336SOL    HW154662   3.812   8.456   6.898  0.5950 -0.3559  1.0338
14336SOL    HW254663   3.907   8.324   6.884  0.4850 -0.3472  0.2240
14337SOL     OW54664   8.390   6.751   6.161  0.1966  0.0692 -0.1643
14337SOL    HW154665   8.390   6.848   6.183  0.6501 -0.1299  0.7453
14337SOL    HW254666   8.484   6.717   6.158 -0.0551 -0.9094  2.1271
14338SOL     OW54667   5.153   5.817   0.176  0.6459  0.8611  0.0884
14338SOL    HW154668   5.174   5.846   0.083  1.2958 -1.9270 -0.6876
14338SOL    HW254669   5.056   5.795   0.184  0.7556  0.2987 -0.1503
14339SOL     OW54670   8.655   6.977   0.553  0.5501 -0.5433  0.1657
14339SOL    HW154671   8.673   7.043   0.480 -1.0214 -0.4605 -0.1597
14339SOL    HW254672   8.638   6.887   0.513 -0.6926 -0.4166  0.4023
14340SOL     OW54673   0.111   3.186   4.551  0.2154 -0.8310  0.4064
14340SOL    HW154674   0.093   3.239   4.634 -0.5471 -0.0932 -0.2257
14340SOL    HW254675   0.141   3.248   4.478  2.5029 -1.6808  0.6067
14341SOL     OW54676   1.454   6.907   1.885  0.3377 -0.2317 -0.1981
14341SOL    HW154677   1.381   6.975   1.881  1.1447  0.5631 -2.2099
14341SOL    HW254678   1.470   6.881   1.980 -0.6862  1.6396  0.5179
14342SOL     OW54679   3.912   2.210   6.757 -0.1744  0.2363 -0.8079
14342SOL    HW154680   3.968   2.137   6.719 -0.0985 -0.0508 -0.1557
14342SOL    HW254681   3.838   2.171   6.811 -0.8704  0.6172 -1.4669
14343SOL     OW54682   8.631   4.832   4.810 -0.5117 -0.2544  0.5491
14343SOL    HW154683   8.667   4.828   4.716  0.2240  1.0653  0.7717
14343SOL    HW254684   8.665   4.753   4.861  1.7296  0.7269  0.6234
14344SOL     OW54685   0.620   0.831   2.596  0.5773 -0.3636  0.4061
14344SOL    HW154686   0.603   0.814   2.499  2.2804 -0.1762  0.0526
14344SOL    HW254687   0.694   0.771   2.628 -0.1568 -0.6127  1.6530
14345SOL     OW54688   9.354   2.682   3.376  0.1622 -0.0299 -0.5154
14345SOL    HW154689   9.440   2.657   3.421 -0.1670 -0.3164 -0.0394
14345SOL    HW254690   9.347   2.782   3.371  0.2516  0.0058 -0.0115
14346SOL     OW54691   1.371   9.295   2.046  0.1472 -0.3125  0.4595
14346SOL    HW154692   1.372   9.227   1.972 -0.3230 -0.0269  0.1830
14346SOL    HW254693   1.451   9.283   2.104 -0.0884 -1.2895  0.5784
14347SOL     OW54694   0.915   9.270   1.806 -0.1852 -0.4053  0.0508
14347SOL    HW154695   1.004   9.229   1.787  0.7508  2.2837 -1.5879
14347SOL    HW254696   0.901   9.275   1.905  0.2696 -3.3101  0.3015
14348SOL     OW54697   0.586   0.745   4.613  0.4213  0.1452  0.1362
14348SOL    HW154698   0.667   0.755   4.670 -1.5395  0.6539  2.9208
14348SOL    HW254699   0.525   0.677   4.653 -1.5819  1.4154 -0.6735
14349SOL     OW54700   9.616   1.640   2.651 -0.0101 -0.6501  0.2352
14349SOL    HW154701   9.547   1.662   2.720  1.4036 -0.9873  1.7674
14349SOL    HW254702   9.707   1.656   2.688  0.7557 -0.1310 -1.8071
14350SOL     OW54703   1.492   6.353   3.718 -0.0533 -0.0282 -0.4565
14350SOL    HW154704   1.467   6.261   3.748  0.4335 -0.2201 -0.6376
14350SOL    HW254705   1.591   6.366   3.726 -0.2137  0.7594  0.3270
14351SOL     OW54706   6.393   5.829   0.975 -0.3652 -0.1434 -0.5825
14351SOL    HW154707   6.393   5.768   0.896 -0.8179 -0.0106 -0.6839
14351SOL    HW254708   6.486   5.863   0.991 -0.7118  1.8759 -2.6416
14352SOL     OW54709   3.048   9.609   5.739 -0.7872 -0.6803  0.5759
14352SOL    HW154710   3.001   9.567   5.662 -0.9185 -1.4468  1.0752
14352SOL    HW254711   3.112   9.679   5.705 -1.2081 -0.6639 -0.1872
14353SOL     OW54712   2.655   0.960   5.349 -0.0507  0.1730  0.5689
14353SOL    HW154713   2.570   0.914   5.373  0.6658 -0.8936  1.0920
14353SOL    HW254714   2.708   0.978   5.432  0.3792  0.5352  0.2182
14354SOL     OW54715   4.246   9.169   6.039  0.0519 -0.4901 -0.5859
14354SOL    HW154716   4.326   9.225   6.019 -0.2959  0.8666  1.7322
14354SOL    HW254717   4.230   9.167   6.138 -1.6946 -2.2519 -0.8788
14355SOL     OW54718   7.342   6.557   6.608 -0.1653  0.2805  0.1274
14355SOL    HW154719   7.354   6.595   6.516  0.9193 -0.5387 -0.0723
14355SOL    HW254720   7.390   6.615   6.674  1.3211 -0.6175 -0.1522
14356SOL     OW54721   8.221   1.842   5.873 -0.2183 -0.1740  0.2383
14356SOL    HW154722   8.128   1.810   5.892 -0.8787  2.0477  0.8272
14356SOL    HW254723   8.220   1.902   5.793  0.0412  2.9965  2.5358
14357SOL     OW54724   0.389   9.687   6.371  0.3985  0.5056  0.9919
14357SOL    HW154725   0.372   9.603   6.319 -0.5809  0.6192  1.1112
14357SOL    HW254726   0.413   9.663   6.465  0.1372  0.3568  1.0219
14358SOL     OW54727   8.426   2.203   7.193  0.1938  0.0228  0.2040
14358SOL    HW154728   8.330   2.213   7.218  0.3214  1.4469  0.1586
14358SOL    HW254729   8.439   2.226   7.097  0.6724  0.4394  0.3627
14359SOL     OW54730   0.283   5.448   5.533  0.5274  0.2693  0.0642
14359SOL    HW154731   0.373   5.407   5.516 -0.7781 -3.1791  1.0205
14359SOL    HW254732   0.295   5.530   5.589  3.0675 -0.5010  0.7628
14360SOL     OW54733   2.443   5.127   1.657 -0.2543 -0.1897 -0.2416
14360SOL    HW154734   2.497   5.044   1.639 -1.1279 -0.5933 -1.0519
14360SOL    HW254735   2.387   5.148   1.576 -1.1548  0.3371  0.5159
14361SOL     OW54736   3.062   5.396   0.871 -0.2926  0.6870  0.2831
14361SOL    HW154737   3.086   5.480   0.919 -3.1483  2.2287 -0.8642
14361SOL    HW254738   3.014   5.334   0.934 -2.3475  1.9039 -0.0634
14362SOL     OW54739   1.323   3.276   2.871  0.1544 -0.3716 -0.0443
14362SOL    HW154740   1.405   3.225   2.845 -0.3088 -0.7863 -0.6963
14362SOL    HW254741   1.283   3.235   2.953 -0.2625 -1.1181 -0.6118
14363SOL     OW54742   3.105   0.058   6.006 -0.2248 -0.0006  0.7872
14363SOL    HW154743   3.178  -0.001   6.041  0.2407  0.9217  1.3807
14363SOL    HW254744   3.113   0.064   5.906  1.7251  1.6303  1.0011
14364SOL     OW54745   4.135   3.943   3.936 -0.2714 -0.0925  0.5353
14364SOL    HW154746   4.145   4.030   3.985 -1.0524  0.3392 -0.0538
14364SOL    HW254747   4.050   3.899   3.963 -0.4842 -0.0701 -0.0950
14365SOL     OW54748   0.579   8.522   1.712 -0.7994  0.1438  0.4164
14365SOL    HW154749   0.674   8.553   1.720 -0.8936  0.1378  1.5857
14365SOL    HW254750   0.541   8.508   1.803 -0.9407 -2.8919 -0.0497
14366SOL     OW54751   0.776   7.525   0.998 -0.1054 -0.3328 -0.4488
14366SOL    HW154752   0.748   7.581   0.920  1.5466 -1.7511 -2.1033
14366SOL    HW254753   0.768   7.579   1.082  0.2101  1.9630 -1.8534
14367SOL     OW54754   8.557   7.212   5.645 -0.8790  0.1517  0.0573
14367SOL    HW154755   8.524   7.168   5.729  0.3140  1.1657  1.0833
14367SOL    HW254756   8.494   7.284   5.618 -0.8101  0.4134  0.5885
14368SOL     OW54757   9.001   6.573   2.575  0.5689  0.1413  0.4230
14368SOL    HW154758   8.943   6.654   2.566  0.4908  0.1731  1.2059
14368SOL    HW254759   8.945   6.495   2.603  0.2343 -0.7339 -2.4700
14369SOL     OW54760   7.168   8.055   2.774  0.3092  0.5195 -0.1627
14369SOL    HW154761   7.164   8.063   2.874  0.2779  1.5224 -0.2374
14369SOL    HW254762   7.162   7.959   2.748 -0.9029  0.3413  0.7420
14370SOL     OW54763   2.009   2.193   6.135  0.0052  0.1881 -0.5850
14370SOL    HW154764   1.955   2.109   6.138 -0.9777  0.8136 -0.4320
14370SOL    HW254765   1.949   2.271   6.119  0.8854  0.8874 -0.5451
14371SOL     OW54766   7.477   2.832   8.176  1.0398  0.3384  0.1507
14371SOL    HW154767   7.483   2.767   8.252  0.3744 -0.1694 -0.2138
14371SOL    HW254768   7.463   2.781   8.090  0.8685  0.9463 -0.1881
14372SOL     OW54769   2.470   4.856   1.603  0.3877 -0.2707  0.4625
14372SOL    HW154770   2.527   4.804   1.666  1.4225 -1.1245 -1.1359
14372SOL    HW254771   2.428   4.794   1.536  1.0563  0.8254 -1.0224
14373SOL     OW54772   2.680   5.178   0.526 -0.2469 -0.6920  0.1774
14373SOL    HW154773   2.761   5.119   0.529  0.4343  0.2467  0.6748
14373SOL    HW254774   2.641   5.187   0.617 -1.1536 -1.4579 -0.1295
14374SOL     OW54775   2.446   3.278   7.861  0.2241 -0.1143  1.1086
14374SOL    HW154776   2.428   3.244   7.769  0.7179  0.9513  0.6125
14374SOL    HW254777   2.529   3.236   7.897  0.5881  0.2235  0.6684
14375SOL     OW54778   8.437   6.760   3.573 -0.2530  0.1308 -0.0899
14375SOL    HW154779   8.513   6.824   3.563  1.1643 -1.5280 -0.1375
14375SOL    HW254780   8.450   6.706   3.657 -0.0055 -1.9650 -1.4517
14376SOL     OW54781   9.336   9.667   3.393 -0.1058  0.4790 -0.4612
14376SOL    HW154782   9.326   9.633   3.487 -1.4099  1.3117 -0.2794
14376SOL    HW254783   9.350   9.590   3.331  3.0669  0.0872  0.6787
14377SOL     OW54784   4.663   8.095   2.609  0.3745  0.2472 -0.1079
14377SOL    HW154785   4.755   8.132   2.592  0.1735  1.4631  1.3182
14377SOL    HW254786   4.670   8.010   2.660  0.8021 -1.1405 -2.4171
14378SOL     OW54787   4.212   4.208   4.348 -0.5878  0.1784 -0.0479
14378SOL    HW154788   4.212   4.303   4.377  1.1907  0.3299 -0.5242
14378SOL    HW254789   4.293   4.162   4.382 -1.9111 -1.4386  0.9981
14379SOL     OW54790   0.235   6.832   0.862  0.1722 -0.0048  0.4482
14379SOL    HW154791   0.241   6.900   0.789  0.6373  0.1866  0.6655
14379SOL    HW254792   0.259   6.742   0.825  1.7659  0.3126  0.6770
14380SOL     OW54793   9.578   9.005   3.833  0.3333  0.2673  0.1450
14380SOL    HW154794   9.494   8.956   3.858  1.6654 -1.3616  1.4786
14380SOL    HW254795   9.555   9.100   3.812 -1.9345 -0.3000 -0.0966
14381SOL     OW54796   4.002   5.134   3.952 -0.2237 -0.7476 -0.0555
14381SOL    HW154797   4.067   5.193   3.904  1.6140 -2.5718  0.1296
14381SOL    HW254798   3.986   5.170   4.044  0.5932 -0.3267 -0.0731
14382SOL     OW54799   4.554   1.198   5.703  0.6121  0.4599  0.0384
14382SOL    HW154800   4.571   1.112   5.751  0.6528  0.3596 -0.1563
14382SOL    HW254801   4.509   1.262   5.765 -0.4445 -0.0838 -0.1440
14383SOL     OW54802   7.426   9.007   1.668 -0.2103 -0.4613 -0.2211
14383SOL    HW154803   7.452   9.015   1.572 -1.3022  1.4307 -0.3846
14383SOL    HW254804   7.502   9.038   1.725 -0.2614  0.2621 -0.5397
14384SOL     OW54805   2.389   1.309   4.587  0.3018 -0.4546  0.3193
14384SOL    HW154806   2.300   1.271   4.564  0.1696  1.4674 -2.6547
14384SOL    HW254807   2.425   1.264   4.669 -1.8912 -3.5801 -0.3497
14385SOL     OW54808   4.003   5.431   6.519 -0.2875  0.1241  0.2897
14385SOL    HW154809   4.037   5.483   6.598 -1.2482  1.4665 -0.1585
14385SOL    HW254810   3.979   5.495   6.446 -0.7905 -1.0225 -0.5552
14386SOL     OW54811   3.082   0.041   2.303  0.0661 -0.0350  0.5301
14386SOL    HW154812   3.023   0.121   2.307  1.5569  1.1650 -0.8288
14386SOL    HW254813   3.114   0.018   2.395  0.8098  1.8495  0.7655
14387SOL     OW54814   6.519   7.904   6.032 -0.0835 -0.3496  0.1871
14387SOL    HW154815   6.423   7.922   6.055 -0.6554 -3.2607  0.2042
14387SOL    HW254816   6.529   7.809   6.002  2.7110  0.0827 -0.3667
14388SOL     OW54817   2.263   1.518   0.580  0.1693  0.3321 -0.6110
14388SOL    HW154818   2.333   1.543   0.647  0.4545 -0.6544 -0.5379
14388SOL    HW254819   2.241   1.421   0.588 -2.0332  0.8615  0.1224
14389SOL     OW54820   9.711   6.177   3.169  0.4126 -0.5150 -0.0643
14389SOL    HW154821   9.789   6.239   3.156 -0.8414  1.4745  1.6356
14389SOL    HW254822   9.742   6.094   3.216  1.7941 -0.4658 -0.8571
14390SOL     OW54823   1.516   9.555   6.890  0.0365 -0.0451  0.0666
14390SOL    HW154824   1.509   9.643   6.843  1.2439 -0.1628 -0.3553
14390SOL    HW254825   1.585   9.499   6.845 -1.6845 -1.7480 -0.4980
14391SOL     OW54826   3.403   4.722   0.470  0.1512  0.1036  0.5300
14391SOL    HW154827   3.419   4.728   0.372 -0.0416 -2.0161  0.3561
14391SOL    HW254828   3.307   4.701   0.488  0.7771 -2.5125  1.0329
14392SOL     OW54829   0.239   1.378   2.580 -0.0967 -0.6344 -0.2714
14392SOL    HW154830   0.167   1.345   2.518 -0.2108  1.3540 -1.2488
14392SOL    HW254831   0.279   1.462   2.542  1.3104 -0.5758  1.3058
14393SOL     OW54832   1.294   8.265   6.105  0.1092  0.5092 -0.2591
14393SOL    HW154833   1.297   8.173   6.143  1.2285  0.6195 -0.0709
14393SOL    HW254834   1.320   8.331   6.176 -0.0470  0.9196 -0.5822
14394SOL     OW54835   9.894   4.838   3.653 -0.3566  0.3254 -0.5813
14394SOL    HW154836   9.815   4.835   3.592 -0.2985  0.8856 -0.6900
14394SOL    HW254837   9.969   4.787   3.612  0.5630  2.8993 -2.2682
14395SOL     OW54838   1.929   3.907   1.568  0.4565  0.0751 -0.2656
14395SOL    HW154839   1.915   3.860   1.655  0.7070 -0.6390 -0.6091
14395SOL    HW254840   1.852   3.968   1.550  0.1405 -0.1864  0.1867
14396SOL     OW54841   7.710   3.997   2.833 -0.1697  0.6270  0.2939
14396SOL    HW154842   7.741   4.030   2.743 -0.1530 -0.1990 -0.0047
14396SOL    HW254843   7.787   3.958   2.882 -0.6998 -1.3812 -0.4275
14397SOL     OW54844   3.359   5.945   7.294 -0.1897 -0.1172  0.6181
14397SOL    HW154845   3.322   6.009   7.226  1.4139  1.1304  0.8663
14397SOL    HW254846   3.415   5.876   7.248 -1.9420 -1.3930  0.3473
14398SOL     OW54847   6.773   8.095   6.618  0.1002  0.3861  0.2897
14398SOL    HW154848   6.735   8.035   6.689  0.3281  0.9006  0.8489
14398SOL    HW254849   6.852   8.050   6.575 -0.4452 -0.2077 -0.0997
14399SOL     OW54850   8.526   3.750   5.081  0.1369 -0.7765 -0.4401
14399SOL    HW154851   8.532   3.771   4.983 -2.3207  0.4517 -0.3641
14399SOL    HW254852   8.481   3.662   5.094  0.0909 -0.7455 -0.3883
14400SOL     OW54853   7.337   7.936   3.388  0.3067  0.1915 -0.0918
14400SOL    HW154854   7.377   7.849   3.362  0.3800  0.1355  0.2094
14400SOL    HW254855   7.391   7.978   3.462 -0.7416 -0.3495  0.9978
14401SOL     OW54856   1.611   0.200   0.259 -0.3918 -0.7568 -0.3749
14401SOL    HW154857   1.602   0.157   0.349  0.0704 -0.3792 -0.1395
14401SOL    HW254858   1.696   0.170   0.216 -0.0043  0.0171 -0.1535
14402SOL     OW54859   4.435   1.513   7.198 -0.6295  0.0915 -0.5585
14402SOL    HW154860   4.464   1.603   7.231  0.9024 -0.4491 -0.4107
14402SOL    HW254861   4.354   1.483   7.249 -0.2294  0.7014  0.4380
14403SOL     OW54862   9.143   9.436   4.094  0.0744 -0.4520  0.0749
14403SOL    HW154863   9.086   9.517   4.102  0.6428 -0.0385  0.0262
14403SOL    HW254864   9.138   9.400   4.001  0.7192  0.2033 -0.2136
14404SOL     OW54865   7.222   8.890   3.184 -0.4358  0.1795  0.1699
14404SOL    HW154866   7.133   8.899   3.228 -0.3332 -0.6051  0.5594
14404SOL    HW254867   7.210   8.854   3.091 -0.5265  0.0631  0.2263
14405SOL     OW54868   1.007   4.968   4.560  1.2751 -0.4024 -0.1128
14405SOL    HW154869   1.104   4.953   4.580  1.5065 -1.4470 -1.9199
14405SOL    HW254870   0.985   4.928   4.471 -1.0965 -1.2076  0.8205
14406SOL     OW54871   7.909   5.764   4.647 -0.1251 -0.1294 -0.6005
14406SOL    HW154872   7.907   5.739   4.744 -0.5393  0.4356 -0.4657
14406SOL    HW254873   7.853   5.845   4.632  0.4787  0.1790 -1.2052
14407SOL     OW54874   0.511   9.098   2.564  0.1009 -0.4228 -0.2863
14407SOL    HW154875   0.479   9.139   2.479  0.8001 -0.0411 -0.3671
14407SOL    HW254876   0.605   9.067   2.553  0.1119 -0.5986  0.2704
14408SOL     OW54877   1.265   3.861   7.854  0.7721 -0.0937  0.8510
14408SOL    HW154878   1.340   3.913   7.813 -0.8807  0.5546 -1.4992
14408SOL    HW254879   1.211   3.921   7.912  0.0168  0.3536 -0.2954
14409SOL     OW54880   3.365   8.058   1.857  0.3293 -0.5753  0.1532
14409SOL    HW154881   3.418   7.991   1.908  0.5672 -0.8447 -0.4328
14409SOL    HW254882   3.270   8.057   1.889  0.3118 -1.2540  0.1001
14410SOL     OW54883   6.593   4.761   0.312  0.5660  0.2026 -0.7112
14410SOL    HW154884   6.674   4.750   0.255  0.0188  2.2323 -1.9084
14410SOL    HW254885   6.532   4.830   0.272 -2.0441 -1.6746 -0.1413
14411SOL     OW54886   3.259   7.440   1.757 -0.8917  0.0666 -0.5383
14411SOL    HW154887   3.217   7.447   1.666 -1.7139  0.9785 -0.1034
14411SOL    HW254888   3.211   7.501   1.820  0.7994  0.7730  0.0864
14412SOL     OW54889   5.316   4.889   7.503  0.1901 -0.1082  0.8369
14412SOL    HW154890   5.377   4.825   7.456  0.3335  0.4610  0.2395
14412SOL    HW254891   5.333   4.885   7.601  0.7614 -0.4019  0.7280
14413SOL     OW54892   8.315   7.106   6.508  0.0914 -0.3576 -0.5143
14413SOL    HW154893   8.381   7.085   6.581  0.7385  1.5438 -0.5366
14413SOL    HW254894   8.223   7.086   6.540  0.2742  1.4576  1.2261
14414SOL     OW54895   3.658   8.713   7.706 -0.0734  0.3376 -0.4312
14414SOL    HW154896   3.606   8.706   7.621  0.8614  0.5604 -1.0244
14414SOL    HW254897   3.600   8.753   7.777 -0.7540  0.4475 -1.0430
14415SOL     OW54898   9.337   4.897   1.746  0.1604 -0.1778  0.5187
14415SOL    HW154899   9.428   4.883   1.783  0.3741 -1.3415 -0.4019
14415SOL    HW254900   9.325   4.993   1.719  1.2566 -0.1139  0.2592
14416SOL     OW54901   3.153   5.748   5.202 -0.1443 -0.0430 -0.2430
14416SOL    HW154902   3.103   5.830   5.232  0.1131 -0.7163  2.0892
14416SOL    HW254903   3.096   5.695   5.140 -1.6396  0.1107  0.9911
14417SOL     OW54904   7.472   8.316   3.475  0.5645  0.5274 -0.1346
14417SOL    HW154905   7.526   8.397   3.500  1.5022 -0.3752  0.8401
14417SOL    HW254906   7.504   8.237   3.528  0.3947 -0.7261 -1.8401
14418SOL     OW54907   9.264   4.941   4.929  0.2999 -0.4268 -0.0591
14418SOL    HW154908   9.165   4.941   4.919  0.3174 -0.3738 -0.2337
14418SOL    HW254909   9.289   4.892   5.012  0.1530 -0.8102 -0.2416
14419SOL     OW54910   6.727   1.468   4.113  0.1292 -0.7367 -0.0450
14419SOL    HW154911   6.691   1.552   4.073  0.4701 -0.1192  0.9258
14419SOL    HW254912   6.725   1.475   4.213 -1.0600 -2.4109  0.0625
14420SOL     OW54913   4.865   1.164   7.986  0.0643 -0.6915  0.3367
14420SOL    HW154914   4.851   1.090   7.921  2.2550 -0.9656  0.1240
14420SOL    HW254915   4.856   1.129   8.080 -1.9296 -0.5473  0.2129
14421SOL     OW54916   9.113   2.437   6.423  0.7937 -0.2410  0.6272
14421SOL    HW154917   9.200   2.445   6.473  0.1847  0.7946  1.5510
14421SOL    HW254918   9.040   2.413   6.486  0.0014  1.1255  0.2466
14422SOL     OW54919   9.435   2.971   0.653 -0.2488  0.3087 -0.0006
14422SOL    HW154920   9.419   2.957   0.750  1.7389 -0.4094  0.2462
14422SOL    HW254921   9.500   3.045   0.640 -0.6137  0.5022 -0.8035
14423SOL     OW54922   9.520   6.469   2.896 -0.1775 -0.5320  0.3583
14423SOL    HW154923   9.503   6.493   2.801  1.4859 -1.5169 -0.2092
14423SOL    HW254924   9.546   6.552   2.947  2.2733 -0.5323 -0.8360
14424SOL     OW54925   8.597   5.663   7.798  0.2160 -0.5066 -0.8031
14424SOL    HW154926   8.594   5.589   7.730 -1.1820 -1.0422 -0.1692
14424SOL    HW254927   8.548   5.743   7.762  1.7598  0.1636 -1.5041
14425SOL     OW54928   5.386   7.477   1.747  0.2895  0.2108  0.4596
14425SOL    HW154929   5.396   7.518   1.837 -1.0547  0.6580  0.4170
14425SOL    HW254930   5.300   7.508   1.706 -0.7076 -2.5893  0.3832
14426SOL     OW54931   8.422   8.606   1.448  0.3281 -0.1019 -0.3349
14426SOL    HW154932   8.461   8.686   1.403  0.8693 -0.4376 -0.4711
14426SOL    HW254933   8.435   8.526   1.389 -1.4402 -0.0489 -0.8330
14427SOL     OW54934   7.083   2.528   0.495  0.3528 -0.3273  0.2130
14427SOL    HW154935   7.158   2.540   0.559  0.4993 -0.1712  0.0118
14427SOL    HW254936   7.117   2.539   0.401  0.1401 -0.5523  0.1077
14428SOL     OW54937   3.020   6.775   3.756  0.0593  0.1404 -0.1390
14428SOL    HW154938   3.061   6.686   3.776  0.2928  0.3501  0.3091
14428SOL    HW254939   2.935   6.785   3.808 -0.0405  0.1255 -0.2967
14429SOL     OW54940   9.442   1.210   3.450  0.5887  0.0001 -0.2562
14429SOL    HW154941   9.425   1.113   3.467  0.7078 -0.0252 -0.2835
14429SOL    HW254942   9.450   1.258   3.537  0.6634 -0.0378 -0.2416
14430SOL     OW54943   4.719   0.469   0.147 -0.7927 -0.8064  0.1182
14430SOL    HW154944   4.672   0.531   0.084 -0.0029  0.6990  0.9904
14430SOL    HW254945   4.729   0.513   0.236 -0.1709 -2.1707  0.7401
14431SOL     OW54946   3.653   3.107   3.713 -0.2860  0.0574 -0.0349
14431SOL    HW154947   3.725   3.043   3.742 -0.1792  1.2762  2.5468
14431SOL    HW254948   3.672   3.198   3.751 -1.8735  0.9817 -1.4007
14432SOL     OW54949   2.238   1.598   7.289  0.6480 -0.5210 -0.2029
14432SOL    HW154950   2.269   1.618   7.196 -0.2253 -1.6615 -0.7445
14432SOL    HW254951   2.177   1.671   7.320 -0.2115 -0.8519 -1.0843
14433SOL     OW54952   6.687   6.725   4.790 -0.2577 -0.0604  0.0327
14433SOL    HW154953   6.702   6.650   4.727 -0.4272 -0.3070  0.2864
14433SOL    HW254954   6.612   6.783   4.756 -1.4282 -1.0961  0.8254
14434SOL     OW54955   5.121   8.988   4.411  0.5500  0.2372  0.3966
14434SOL    HW154956   5.079   8.977   4.501  2.0120 -0.9452  0.9519
14434SOL    HW254957   5.086   8.917   4.349  1.9790 -0.9981  0.9709
14435SOL     OW54958   7.185   3.864   0.327  0.4234 -0.4894 -0.3423
14435SOL    HW154959   7.146   3.837   0.415  1.1486  0.6092  0.3303
14435SOL    HW254960   7.240   3.789   0.290 -2.4548 -2.1200 -1.3945
14436SOL     OW54961   3.963   3.941   7.681  0.3605  0.1767  0.8309
14436SOL    HW154962   3.973   3.913   7.586 -0.1673  0.9032  0.5595
14436SOL    HW254963   3.893   3.885   7.725  1.6510 -1.1651  1.2068
14437SOL     OW54964   6.046   2.847   0.451 -0.8249 -0.4047  0.3092
14437SOL    HW154965   6.129   2.800   0.481 -1.1232 -0.9730  0.2442
14437SOL    HW254966   6.027   2.923   0.514 -1.2501 -1.3801  1.3831
14438SOL     OW54967   8.734   0.548   4.572  0.2919 -0.1328 -0.4810
14438SOL    HW154968   8.728   0.610   4.494 -3.4160 -0.6753 -0.6801
14438SOL    HW254969   8.702   0.595   4.654 -0.3002 -1.0508 -0.1832
14439SOL     OW54970   8.255   1.547   3.715  0.5456  0.4046 -0.1304
14439SOL    HW154971   8.354   1.561   3.710  0.8428 -0.7050  1.8376
14439SOL    HW254972   8.209   1.634   3.732  1.0197  1.1868 -2.7045
14440SOL     OW54973   9.854   6.294   7.638 -0.4554 -0.3885 -0.5610
14440SOL    HW154974   9.912   6.223   7.598 -1.8492 -1.5344 -0.6008
14440SOL    HW254975   9.881   6.309   7.733 -0.5091 -1.3991 -0.3725
14441SOL     OW54976   7.407   8.340   2.391 -0.4420 -0.5926 -0.1169
14441SOL    HW154977   7.414   8.438   2.375  2.0190 -0.2046  2.7909
14441SOL    HW254978   7.431   8.290   2.308 -1.4349  1.2278 -1.5312
14442SOL     OW54979   8.808   8.028   4.778  0.3582 -0.0387  0.3643
14442SOL    HW154980   8.880   7.982   4.831 -0.4236 -0.2588  1.2455
14442SOL    HW254981   8.721   7.980   4.792  0.0183  0.2996 -0.6034
14443SOL     OW54982   5.080   4.013   1.927 -0.2334 -0.3993  0.2863
14443SOL    HW154983   5.045   4.072   2.000 -1.5520 -1.6226  0.6508
14443SOL    HW254984   5.132   4.069   1.862 -2.0290  1.3013  0.2557
14444SOL     OW54985   0.769   8.973   2.505  0.6041 -0.2530 -0.6295
14444SOL    HW154986   0.798   8.877   2.505 -1.5840 -0.9339 -1.2326
14444SOL    HW254987   0.814   9.021   2.429 -0.4579 -1.5014 -2.0808
14445SOL     OW54988   2.342   5.955   1.389 -0.1961 -0.1101 -0.0563
14445SOL    HW154989   2.361   5.879   1.328 -0.3051  0.0742 -0.3197
14445SOL    HW254990   2.276   5.927   1.459  1.0420 -0.7626  0.8768
14446SOL     OW54991   9.503   9.851   3.574  0.0226  0.2064  0.4381
14446SOL    HW154992   9.496   9.792   3.494  1.5474 -0.2481  0.6350
14446SOL    HW254993   9.583   9.825   3.628 -0.8617  0.6629  1.9887
14447SOL     OW54994   4.378   7.483   3.941 -0.0256 -0.9245 -0.4813
14447SOL    HW154995   4.357   7.580   3.954  0.3460 -1.0167  0.8880
14447SOL    HW254996   4.293   7.429   3.946 -0.0673 -0.8043  0.1003
14448SOL     OW54997   8.877   4.941   2.343 -0.1435 -1.2856 -0.1556
14448SOL    HW154998   8.906   5.036   2.328 -1.2421 -1.0408 -0.8413
14448SOL    HW254999   8.834   4.933   2.432  0.4191 -1.2585  0.1218
14449SOL     OW55000   1.600   0.993   5.872  0.6938 -0.5362  0.0795
14449SOL    HW155001   1.647   1.073   5.912  2.3227 -1.6223  0.3678
14449SOL    HW255002   1.559   0.939   5.945 -1.7453  0.8307 -0.2262
14450SOL     OW55003   9.430   8.818   6.230 -0.0509  0.7225 -0.1074
14450SOL    HW155004   9.339   8.853   6.254  0.1286  1.9358 -1.1805
14450SOL    HW255005   9.493   8.894   6.215  0.2888 -0.0080 -2.6721
14451SOL     OW55006   6.717   2.481   3.344 -0.1760  0.0721  0.1064
14451SOL    HW155007   6.778   2.471   3.265 -0.0451 -0.7013  0.3010
14451SOL    HW255008   6.648   2.408   3.342 -1.2363  1.0758 -0.2391
14452SOL     OW55009   8.213   8.416   4.148 -0.2328 -0.2198 -0.6832
14452SOL    HW155010   8.311   8.399   4.159  0.0518  1.3344 -0.7489
14452SOL    HW255011   8.162   8.364   4.217  0.7238 -0.0734  0.1494
14453SOL     OW55012   1.288   7.149   7.106 -0.3784  0.1455  0.3698
14453SOL    HW155013   1.343   7.203   7.169 -0.6067 -1.2681  1.8180
14453SOL    HW255014   1.194   7.142   7.141 -1.1335  1.3486 -1.3493
14454SOL     OW55015   5.803   7.925   6.129 -0.3395  0.2059 -0.2765
14454SOL    HW155016   5.726   7.915   6.192 -0.4981 -0.2953 -0.5532
14454SOL    HW255017   5.777   7.988   6.056  0.3321  1.9278  0.9323
14455SOL     OW55018   2.989   2.612   1.415  0.6775 -0.1375 -0.1599
14455SOL    HW155019   2.990   2.570   1.505  0.2077  1.0877  0.4240
14455SOL    HW255020   3.051   2.691   1.414 -0.2418  0.5894 -0.5444
14456SOL     OW55021   6.167   8.938   4.722  0.3220 -0.3769 -0.2658
14456SOL    HW155022   6.175   8.838   4.725 -2.4799 -0.6381  1.2845
14456SOL    HW255023   6.093   8.963   4.660 -2.0281  0.4081  2.7007
14457SOL     OW55024   5.380   0.002   4.254 -0.0156 -0.2324 -0.0727
14457SOL    HW155025   5.457  -0.057   4.276  0.1688  0.0593  0.0686
14457SOL    HW255026   5.401   0.096   4.283  0.3208  0.1956 -1.6295
14458SOL     OW55027   2.254   8.192   6.451 -0.7077  0.2679 -0.2838
14458SOL    HW155028   2.196   8.113   6.428  0.4935 -0.7451  0.0930
14458SOL    HW255029   2.197   8.266   6.487 -1.5621 -1.3827  1.8731
14459SOL     OW55030   3.717   4.138   0.011 -0.4327 -0.1438 -0.4846
14459SOL    HW155031   3.773   4.085   0.075  0.3243  0.0039 -1.0197
14459SOL    HW255032   3.630   4.160   0.053  0.0481 -0.0869  0.4829
14460SOL     OW55033   5.624   8.032   3.629  0.6535 -0.7165  0.6892
14460SOL    HW155034   5.612   7.953   3.569  0.8130  0.1822 -0.5309
14460SOL    HW255035   5.722   8.049   3.642  0.6280  0.0558 -0.0891
14461SOL     OW55036   3.460   0.222   7.022  0.1395 -0.6264 -0.5236
14461SOL    HW155037   3.404   0.140   7.027 -0.8139  0.0064 -0.6871
14461SOL    HW255038   3.500   0.230   6.931  0.6511 -1.1847 -0.3456
14462SOL     OW55039   6.629   0.592   5.609 -0.4624  0.1844 -0.3266
14462SOL    HW155040   6.554   0.616   5.672 -0.3710  0.1161 -0.1935
14462SOL    HW255041   6.591   0.543   5.530 -0.4024 -0.9009  0.3131
14463SOL     OW55042   6.789   4.458   8.122  0.6566  0.0617 -0.3330
14463SOL    HW155043   6.751   4.421   8.037  1.4297 -2.3566  0.3243
14463SOL    HW255044   6.794   4.385   8.190  3.2786  1.1480  0.6823
14464SOL     OW55045   9.102   5.841   1.997  0.1104  0.3074 -0.0301
14464SOL    HW155046   9.090   5.935   1.964 -0.1493  0.0384 -0.7125
14464SOL    HW255047   9.199   5.822   2.007  0.3217 -0.4239 -3.0801
14465SOL     OW55048   9.375   0.414   1.110 -0.1853  0.6685  0.9966
14465SOL    HW155049   9.366   0.488   1.176 -0.5939 -0.2709  2.0223
14465SOL    HW255050   9.284   0.379   1.087 -0.1745  2.0674 -1.3489
14466SOL     OW55051   2.964   0.631   7.924  0.5301 -0.0007  0.2715
14466SOL    HW155052   2.868   0.658   7.926  0.7207  0.8074 -1.0809
14466SOL    HW255053   2.970   0.531   7.923 -0.3156 -0.0504 -0.5225
14467SOL     OW55054   7.603   1.723   4.215 -0.2269  0.2230  0.3078
14467SOL    HW155055   7.508   1.727   4.184  0.0098  0.6412 -0.3833
14467SOL    HW255056   7.646   1.813   4.203  0.3569 -0.0540  0.2761
14468SOL     OW55057   2.906   9.634   4.350  0.1202  0.7355 -0.0032
14468SOL    HW155058   2.910   9.728   4.384  3.3675  0.2594  1.0591
14468SOL    HW255059   2.833   9.627   4.281 -1.1338  3.6495  0.9488
14469SOL     OW55060   2.198   5.306   4.498 -0.0749  0.1996  0.2130
14469SOL    HW155061   2.249   5.251   4.564  0.4269  0.4031 -0.0076
14469SOL    HW255062   2.262   5.357   4.440 -0.5392  1.9808  1.2273
14470SOL     OW55063   7.183   2.597   2.415 -0.2889  0.0353  0.0489
14470SOL    HW155064   7.200   2.499   2.406 -0.1401  0.0278  0.4013
14470SOL    HW255065   7.140   2.616   2.504 -0.9808  0.2027 -0.3133
14471SOL     OW55066   8.506   9.379   4.163 -0.3060  0.1175  0.0087
14471SOL    HW155067   8.450   9.334   4.093 -1.1347  1.6437 -0.3251
14471SOL    HW255068   8.466   9.468   4.184  1.1984  0.5929  0.8293
14472SOL     OW55069   0.358   4.144   0.995  0.3170  0.2626 -0.1318
14472SOL    HW155070   0.404   4.177   0.912  1.2288 -1.2311 -0.2404
14472SOL    HW255071   0.265   4.181   0.998 -0.1397 -0.5630 -2.4293
14473SOL     OW55072   3.313   7.729   3.221 -0.1739 -0.1055  0.2401
14473SOL    HW155073   3.288   7.656   3.158  1.3880  0.5288 -1.1494
14473SOL    HW255074   3.251   7.807   3.208 -1.0979 -0.7127  0.9038
14474SOL     OW55075   2.096   3.440   6.964 -0.5771 -0.3764 -0.5392
14474SOL    HW155076   2.116   3.353   7.009  0.1757 -0.4535 -1.0247
14474SOL    HW255077   2.110   3.515   7.029 -1.6312 -0.6384  0.0026
14475SOL     OW55078   9.247   7.257   6.326 -0.0957  0.6098 -0.2891
14475SOL    HW155079   9.156   7.226   6.355 -0.5111  1.7373 -0.3502
14475SOL    HW255080   9.288   7.187   6.267 -0.3802 -0.4766  0.7828
14476SOL     OW55081   1.651   7.414   7.262 -0.6100  0.1244 -0.4776
14476SOL    HW155082   1.702   7.329   7.271 -1.7283 -0.6902 -1.6043
14476SOL    HW255083   1.623   7.426   7.167 -1.0050  1.4439 -0.2062
14477SOL     OW55084   3.146   0.099   1.870 -0.1574  0.4225 -0.5039
14477SOL    HW155085   3.083   0.029   1.835 -0.3054 -0.7527  1.9662
14477SOL    HW255086   3.222   0.109   1.807 -0.6058 -1.3251 -1.3700
14478SOL     OW55087   0.111   8.337   4.509  0.0036  0.2060  0.2774
14478SOL    HW155088   0.166   8.363   4.430 -1.3638  0.3772 -0.6250
14478SOL    HW255089   0.156   8.370   4.593 -0.8128  4.0471 -0.7087
14479SOL     OW55090   7.317   4.773   2.871 -0.0863  0.0861  0.0016
14479SOL    HW155091   7.228   4.727   2.864  0.2303 -0.6139  0.6465
14479SOL    HW255092   7.368   4.759   2.786 -0.3630  0.0281 -0.1585
14480SOL     OW55093   1.396   5.297   7.310  0.1298  0.3499 -0.0728
14480SOL    HW155094   1.342   5.290   7.394  2.0519  1.6937  1.3520
14480SOL    HW255095   1.379   5.386   7.267  1.2565  0.8466  0.4703
14481SOL     OW55096   8.156   6.282   3.427 -0.0907  0.0947  0.3023
14481SOL    HW155097   8.140   6.339   3.346 -1.7993  1.7122  1.7261
14481SOL    HW255098   8.243   6.310   3.470 -0.1084  0.5214  0.0646
14482SOL     OW55099   3.504   7.837   6.706 -0.4659 -0.0411  0.1801
14482SOL    HW155100   3.524   7.821   6.609  0.5113  0.3225  0.3185
14482SOL    HW255101   3.572   7.790   6.762 -0.8878 -0.0495  0.6907
14483SOL     OW55102   1.041   2.711   0.003 -0.5647  0.5368 -0.0478
14483SOL    HW155103   1.103   2.711   0.081 -1.4057 -1.0771  0.6361
14483SOL    HW255104   1.094   2.720  -0.082  0.7760 -2.3966  0.4302
14484SOL     OW55105   3.866   9.999   0.445 -0.3526 -0.4877 -0.0300
14484SOL    HW155106   3.955  10.043   0.453  0.0170 -0.6881 -2.6431
14484SOL    HW255107   3.817  10.006   0.532  0.7078  2.8722  0.3612
14485SOL     OW55108   2.060   9.568   1.788  0.1741 -0.3334  0.0936
14485SOL    HW155109   2.143   9.518   1.765  0.6265  0.0974  0.7490
14485SOL    HW255110   2.002   9.575   1.707  0.4912 -1.1720 -0.2150
14486SOL     OW55111   9.650   0.814   2.287  0.2607  0.6207 -0.7332
14486SOL    HW155112   9.586   0.890   2.278 -1.3696 -0.5908  0.3223
14486SOL    HW255113   9.626   0.743   2.221 -0.7183 -0.6781  1.0016
14487SOL     OW55114   2.308   0.278   4.514 -0.5452  0.3734 -0.4184
14487SOL    HW155115   2.259   0.318   4.437  0.7953  2.5715 -0.1660
14487SOL    HW255116   2.387   0.335   4.537  0.1132 -1.2191  1.4307
14488SOL     OW55117   9.376   4.520   5.827 -0.3754 -0.4625  0.3348
14488SOL    HW155118   9.356   4.541   5.731  0.4953  0.4581  0.3474
14488SOL    HW255119   9.397   4.605   5.876 -0.1408 -1.0048  1.1872
14489SOL     OW55120   3.299   9.790   5.804 -0.4871 -0.0336 -0.2889
14489SOL    HW155121   3.305   9.831   5.713 -0.8129  0.2934 -0.1635
14489SOL    HW255122   3.287   9.862   5.872  0.7975 -0.1935  0.1207
14490SOL     OW55123   9.388   8.571   0.694 -0.1156  0.5009  0.0845
14490SOL    HW155124   9.436   8.506   0.755 -1.3605 -0.2244  0.3069
14490SOL    HW255125   9.377   8.529   0.604  1.9291  1.6656 -0.7370
14491SOL     OW55126   7.766   6.202   0.098 -0.8015 -0.2334  0.6253
14491SOL    HW155127   7.720   6.239   0.179 -0.5346 -1.5744  1.4034
14491SOL    HW255128   7.722   6.116   0.072 -0.0746 -0.4493  0.0991
14492SOL     OW55129   2.399   7.536   6.622 -0.3202  0.3981 -0.8660
14492SOL    HW155130   2.485   7.546   6.572 -0.8166  0.2931 -1.7413
14492SOL    HW255131   2.391   7.442   6.656 -0.7267  0.0142 -1.9829
14493SOL     OW55132   3.717   2.426   6.965 -0.0548  0.0831  0.1827
14493SOL    HW155133   3.706   2.521   6.993  0.8958  0.1058  0.4920
14493SOL    HW255134   3.723   2.367   7.045 -0.2778 -0.2001 -0.0052
14494SOL     OW55135   8.466   4.867   7.555 -0.1032  0.2962 -0.1866
14494SOL    HW155136   8.523   4.947   7.573 -0.7609  0.6052  0.5444
14494SOL    HW255137   8.490   4.794   7.618  0.0495  0.1458 -0.4212
14495SOL     OW55138   2.458   7.299   1.016 -0.3086 -0.0920 -0.2783
14495SOL    HW155139   2.497   7.242   1.088 -1.1734 -0.4487 -0.0814
14495SOL    HW255140   2.457   7.395   1.047  1.4574  0.0794 -0.7499
14496SOL     OW55141   5.071   1.537   6.019  0.0395  0.5858  0.3950
14496SOL    HW155142   5.049   1.572   6.109  1.2891 -0.3354  1.0729
14496SOL    HW255143   5.068   1.612   5.952  0.6907  1.5869  1.4732
14497SOL     OW55144   1.295   2.747   1.321  0.3239 -0.4219  0.1585
14497SOL    HW155145   1.313   2.775   1.227  1.6890  0.7798  0.7599
14497SOL    HW255146   1.324   2.652   1.333 -1.6748 -1.2333 -1.1281
14498SOL     OW55147   9.028   7.419   7.610  0.3553  0.0595 -0.0812
14498SOL    HW155148   8.955   7.468   7.563  1.0027 -0.2878 -1.4871
14498SOL    HW255149   9.017   7.320   7.597  0.9602 -0.0041 -0.1595
14499SOL     OW55150   9.360   8.098   3.780 -0.4429  0.2196 -0.2717
14499SOL    HW155151   9.272   8.126   3.817  0.3119  1.6481  0.5108
14499SOL    HW255152   9.377   8.001   3.802 -1.9714 -0.1655 -0.7780
14500SOL     OW55153   8.461   2.609   3.263 -0.1465  0.3365  0.1627
14500SOL    HW155154   8.542   2.631   3.317 -1.3606  2.2681  1.2513
14500SOL    HW255155   8.474   2.637   3.168  0.2915  1.0087  0.4249
14501SOL     OW55156   0.157   6.862   6.843  0.6884  0.1191  0.4981
14501SOL    HW155157   0.121   6.839   6.752 -0.4099 -0.4270  1.0618
14501SOL    HW255158   0.089   6.915   6.893  1.0950 -0.0208  1.1942
14502SOL     OW55159   9.046   8.458   2.039 -0.5618  0.0821  0.0697
14502SOL    HW155160   8.973   8.391   2.026  0.3683 -0.8258 -0.6145
14502SOL    HW255161   9.011   8.536   2.089 -1.9042 -0.5121  0.0850
14503SOL     OW55162   0.383   4.441   3.831 -0.3410  0.5767 -0.3477
14503SOL    HW155163   0.324   4.422   3.909 -0.0451  1.5203  0.1080
14503SOL    HW255164   0.329   4.444   3.747 -0.6099 -0.7960 -0.2361
14504SOL     OW55165   4.265   0.074   4.136  0.8827 -0.0526 -0.0893
14504SOL    HW155166   4.360   0.042   4.128  0.1583 -2.1458 -0.4921
14504SOL    HW255167   4.207   0.000   4.169 -0.4035  1.6103  1.5022
14505SOL     OW55168   9.572   0.092   6.894 -0.2210 -0.1947  0.0467
14505SOL    HW155169   9.583   0.116   6.991  1.3470  0.8471 -0.3643
14505SOL    HW255170   9.607  -0.000   6.878  1.0851  0.2684  0.1715
14506SOL     OW55171   3.114   7.230   0.912 -0.2812  0.3378 -0.0801
14506SOL    HW155172   3.045   7.161   0.893  1.2144 -1.4104  0.7527
14506SOL    HW255173   3.111   7.301   0.841 -2.2524 -0.2212 -0.5781
14507SOL     OW55174   1.163   1.727   8.063 -0.0570 -0.0301  0.5246
14507SOL    HW155175   1.183   1.727   7.965 -2.8757  1.2419 -0.1090
14507SOL    HW255176   1.085   1.668   8.082 -2.8013  3.6334  1.1937
14508SOL     OW55177   9.236   9.065   3.191 -0.2605  0.2266  0.3346
14508SOL    HW155178   9.332   9.042   3.206 -0.7756 -2.0846  0.4088
14508SOL    HW255179   9.218   9.070   3.093 -0.5059 -1.5223  0.2708
14509SOL     OW55180   8.798   4.966   2.611  0.0445  0.0371 -0.9208
14509SOL    HW155181   8.822   5.063   2.615  0.5538 -0.0600 -1.6306
14509SOL    HW255182   8.701   4.955   2.633  0.1782  0.6261 -0.0404
14510SOL     OW55183   8.416   5.877   5.579 -0.0932  0.2061  0.2257
14510SOL    HW155184   8.404   5.806   5.509 -1.3188 -0.7941  1.4450
14510SOL    HW255185   8.505   5.920   5.566 -0.1785 -0.1674 -1.7812
14511SOL     OW55186   9.009   0.342   5.263  0.3212 -0.3594  0.1974
14511SOL    HW155187   9.044   0.353   5.356 -0.5839  1.2552  0.3664
14511SOL    HW255188   8.909   0.336   5.266  0.3052 -0.5900 -0.6575
14512SOL     OW55189   9.698   8.548   2.958 -0.1964  0.0109  0.1351
14512SOL    HW155190   9.768   8.597   3.010 -0.0553  0.0271 -0.0698
14512SOL    HW255191   9.692   8.454   2.991  0.6815 -0.3051 -0.5593
14513SOL     OW55192   6.079   3.772   1.574 -0.7971 -0.1670  0.1420
14513SOL    HW155193   6.073   3.705   1.647 -2.8997 -1.0503 -0.8137
14513SOL    HW255194   6.054   3.862   1.609 -2.2112 -0.6657  0.4118
14514SOL     OW55195   8.150   8.243   1.133  0.0794  0.0666 -0.2630
14514SOL    HW155196   8.229   8.184   1.150 -0.2636 -0.5836 -0.8832
14514SOL    HW255197   8.072   8.187   1.107 -0.1302  0.8270 -1.2951
14515SOL     OW55198   1.561   5.443   5.905 -0.3195 -1.0278 -0.3790
14515SOL    HW155199   1.591   5.536   5.927  0.9113 -1.1872 -1.3137
14515SOL    HW255200   1.500   5.409   5.977  1.4801 -0.5715  1.3976
14516SOL     OW55201   6.853   3.840   1.902 -0.3470 -0.2534 -0.1293
14516SOL    HW155202   6.806   3.792   1.828 -0.5419  0.3585 -0.4130
14516SOL    HW255203   6.847   3.787   1.986 -1.0089 -0.4785 -0.3136
14517SOL     OW55204   2.026   0.441   5.085  0.5605 -0.3655 -0.1376
14517SOL    HW155205   2.116   0.446   5.041  1.3859  1.7014  1.6990
14517SOL    HW255206   2.001   0.531   5.120 -0.3483 -1.7514  2.9931
14518SOL     OW55207   5.508   1.709   6.760 -0.1079 -0.3317  0.1439
14518SOL    HW155208   5.450   1.749   6.831  0.1814  2.2596 -1.0466
14518SOL    HW255209   5.490   1.611   6.755 -1.5841 -0.2208  2.4136
14519SOL     OW55210   5.336   8.019   4.238 -0.0224 -0.2076 -0.5654
14519SOL    HW155211   5.329   8.009   4.337  0.0073  1.7569 -0.3350
14519SOL    HW255212   5.432   8.018   4.211 -0.1102 -3.1869 -0.8839
14520SOL     OW55213   9.260   8.453   2.581 -0.0866  0.3608 -0.0072
14520SOL    HW155214   9.192   8.438   2.509  0.7076 -2.9182 -0.1580
14520SOL    HW255215   9.334   8.509   2.545 -0.7936  0.6542 -1.0373
14521SOL     OW55216   9.447   8.238   7.309  0.3884  0.2337 -0.5286
14521SOL    HW155217   9.439   8.252   7.408 -0.4527  0.0340 -0.5674
14521SOL    HW255218   9.395   8.309   7.261  0.2975 -0.0307 -0.8220
14522SOL     OW55219   5.783   4.282   2.004  0.1738  0.2252  0.0043
14522SOL    HW155220   5.845   4.258   1.930  1.8529  1.3638  1.0089
14522SOL    HW255221   5.754   4.199   2.051  0.1010 -0.4004 -1.1254
14523SOL     OW55222   1.708   7.294   7.643 -0.6078 -0.0052  0.1471
14523SOL    HW155223   1.714   7.225   7.572 -0.6817 -0.8152  0.9144
14523SOL    HW255224   1.779   7.279   7.712 -0.5024  0.7961  0.2262
14524SOL     OW55225   7.371   6.277   6.648 -0.4098  0.5935 -0.3992
14524SOL    HW155226   7.359   6.375   6.633 -0.5480  0.8122  1.0936
14524SOL    HW255227   7.387   6.260   6.745  1.1158 -0.7235 -0.8736
14525SOL     OW55228   2.305   2.457   5.032  0.0290  0.1376 -1.0150
14525SOL    HW155229   2.292   2.493   4.939 -1.9757 -1.6365 -1.4844
14525SOL    HW255230   2.292   2.530   5.099  1.4341  1.4246 -2.1226
14526SOL     OW55231   7.573   5.120   7.625  0.2166  0.1851 -0.6048
14526SOL    HW155232   7.538   5.081   7.540  0.4213 -0.6310 -0.3269
14526SOL    HW255233   7.673   5.113   7.626  0.2318  0.4448 -0.4194
14527SOL     OW55234   1.251   9.797   6.892  0.7266 -0.0026 -0.4107
14527SOL    HW155235   1.303   9.778   6.808 -0.5860 -1.1216 -0.9918
14527SOL    HW255236   1.180   9.727   6.903 -0.5993  1.4516  0.4188
14528SOL     OW55237   1.945   6.459   2.777  0.0904  0.4081  0.3075
14528SOL    HW155238   1.855   6.496   2.799 -0.2211 -0.5777  0.6893
14528SOL    HW255239   1.935   6.380   2.717  0.7646  0.9938 -0.5800
14529SOL     OW55240   9.080   1.343   4.531  0.2680  0.2449  0.9548
14529SOL    HW155241   9.051   1.263   4.583  0.2010  0.2244  0.8843
14529SOL    HW255242   9.004   1.407   4.522  0.4035  0.4482  1.2587
14530SOL     OW55243   7.270   7.693   5.948  0.1544  0.0540  0.3699
14530SOL    HW155244   7.177   7.730   5.940  0.0786 -0.2225 -0.0230
14530SOL    HW255245   7.269   7.613   6.007  0.0352 -0.3208 -0.1309
14531SOL     OW55246   4.129   1.605   3.022  0.1786 -0.2636  0.5490
14531SOL    HW155247   4.154   1.701   3.036  1.3357 -0.6698  1.4027
14531SOL    HW255248   4.150   1.554   3.106 -1.6365 -1.0203  0.5546
14532SOL     OW55249   7.314   3.912   2.726  0.0754  0.5720 -0.0016
14532SOL    HW155250   7.241   3.946   2.667  0.7467 -0.1108 -1.2348
14532SOL    HW255251   7.399   3.905   2.674  0.5252 -0.6184  0.8767
14533SOL     OW55252   1.219   0.444   2.224  0.0113 -0.1995  0.0632
14533SOL    HW155253   1.122   0.467   2.223 -0.0636 -0.5157 -1.4375
14533SOL    HW255254   1.272   0.520   2.187  0.1605 -0.7272 -0.8184
14534SOL     OW55255   2.418   0.944   4.863  0.1843  0.7107 -0.5832
14534SOL    HW155256   2.322   0.921   4.879 -0.1311  1.3856 -1.4107
14534SOL    HW255257   2.477   0.874   4.903 -0.6851 -0.2829 -1.0128
14535SOL     OW55258   2.668   6.544   5.143  0.0638  0.1853 -0.7389
14535SOL    HW155259   2.697   6.638   5.161 -1.4908  0.5487 -0.0112
14535SOL    HW255260   2.614   6.541   5.059 -0.6319  0.1019 -0.2921
14536SOL     OW55261   3.599   1.575   1.607  0.5627 -0.1456 -0.0419
14536SOL    HW155262   3.620   1.672   1.605 -0.9513  0.2234  1.3106
14536SOL    HW255263   3.500   1.562   1.610  0.6736 -1.7726 -2.2592
14537SOL     OW55264   3.741   4.756   0.047  0.1404 -0.3087  0.5407
14537SOL    HW155265   3.756   4.666   0.006 -0.2344  0.7784 -2.0300
14537SOL    HW255266   3.698   4.817  -0.020  0.1285  1.7165  2.3412
14538SOL     OW55267   0.943   2.475   7.551  0.2872 -0.3149 -0.0097
14538SOL    HW155268   1.028   2.424   7.563  0.3103  0.1141  1.7228
14538SOL    HW255269   0.939   2.549   7.618 -0.9529  0.3533 -0.8060
14539SOL     OW55270   7.902   0.004   6.205  0.1881 -0.0840  0.0076
14539SOL    HW155271   7.985   0.036   6.249  0.4200 -1.4738  0.5964
14539SOL    HW255272   7.923  -0.075   6.147 -1.3646 -3.1084  3.3917
14540SOL     OW55273   3.293   0.631   4.824  0.1464 -0.6974 -0.1993
14540SOL    HW155274   3.391   0.623   4.804  0.3177  0.6380  0.0517
14540SOL    HW255275   3.279   0.626   4.922  0.2249  1.5147 -0.0588
14541SOL     OW55276   0.251   8.895   2.849  0.3514  0.3107 -0.1843
14541SOL    HW155277   0.346   8.928   2.854  0.2062  0.8266 -0.7248
14541SOL    HW255278   0.215   8.913   2.758  0.2804 -1.4172 -0.5137
14542SOL     OW55279   8.036   8.822   2.533  0.5701 -0.0284 -0.8172
14542SOL    HW155280   8.134   8.825   2.555  0.5489 -0.6783 -0.6064
14542SOL    HW255281   8.000   8.731   2.556 -0.3061  0.5308  0.0722
14543SOL     OW55282   3.540   5.199   7.842  0.3671  0.2608 -0.0901
14543SOL    HW155283   3.640   5.200   7.840  0.4090 -0.6755  0.6028
14543SOL    HW255284   3.509   5.198   7.937 -0.2318 -2.0589 -0.2760
14544SOL     OW55285   8.143   6.141   3.040 -0.1029  0.0547  0.0534
14544SOL    HW155286   8.089   6.224   3.028 -0.8818 -0.7000 -1.8796
14544SOL    HW255287   8.112   6.092   3.121 -2.2196 -0.2686 -0.9127
14545SOL     OW55288   1.701   9.612   7.760 -0.2769  0.0270  0.4284
14545SOL    HW155289   1.738   9.628   7.852 -0.0977 -1.4743  0.6230
14545SOL    HW255290   1.708   9.696   7.707  1.4701  0.3726  1.1472
14546SOL     OW55291   1.511   9.215   6.722 -0.3681 -0.0826  0.1913
14546SOL    HW155292   1.580   9.253   6.783 -1.1237  0.7504  0.5482
14546SOL    HW255293   1.424   9.209   6.771 -0.7905 -0.1503 -0.5611
14547SOL     OW55294   4.569   7.891   3.208  0.1067 -0.2378  0.1054
14547SOL    HW155295   4.552   7.961   3.139  1.8918 -0.1639 -0.2867
14547SOL    HW255296   4.586   7.935   3.297 -1.5193 -0.3042  0.4578
14548SOL     OW55297   0.590   9.757   0.677  0.6887 -0.6445 -0.5569
14548SOL    HW155298   0.559   9.692   0.607 -0.3323 -2.2939  1.3935
14548SOL    HW255299   0.540   9.843   0.667 -1.4417 -1.8029 -0.1514
14549SOL     OW55300   5.721   7.112   3.576  0.2314  0.6459 -0.2089
14549SOL    HW155301   5.727   7.039   3.507  0.2772 -1.1226  1.6363
14549SOL    HW255302   5.625   7.133   3.594  0.2100  0.5262 -0.1857
14550SOL     OW55303   4.016   4.559   7.753 -0.1195  0.2163  0.3723
14550SOL    HW155304   4.106   4.544   7.712  0.1105 -1.1399  1.3420
14550SOL    HW255305   4.014   4.650   7.795  1.0970 -0.0585  1.0633
14551SOL     OW55306   8.483   8.063   3.826  0.0062 -0.6720 -0.0724
14551SOL    HW155307   8.463   7.976   3.872  0.3986  0.1997  1.8174
14551SOL    HW255308   8.407   8.126   3.843 -1.4552 -1.4176 -3.5399
14552SOL     OW55309   9.481   8.726   3.967 -0.4463  0.0941  0.3278
14552SOL    HW155310   9.527   8.688   4.048  0.0491  1.5133  0.7277
14552SOL    HW255311   9.414   8.794   3.996 -1.9826 -1.1265 -0.3285
14553SOL     OW55312   0.413   8.655   0.105  0.1598  0.1468 -0.7495
14553SOL    HW155313   0.482   8.630   0.037  1.5495  1.1621  0.2528
14553SOL    HW255314   0.417   8.590   0.181 -0.4950 -0.2113 -1.0150
14554SOL     OW55315   2.605   4.159   5.015 -0.2654 -0.0711 -0.1731
14554SOL    HW155316   2.663   4.203   4.947  2.0786 -2.4467  0.2343
14554SOL    HW255317   2.552   4.086   4.971  1.4263 -1.7666  0.5346
14555SOL     OW55318   8.392   6.181   7.774 -0.3906 -0.0891  0.1859
14555SOL    HW155319   8.435   6.219   7.855  0.9732  1.9947 -1.4559
14555SOL    HW255320   8.390   6.250   7.701 -0.2893 -2.3293 -2.0148
14556SOL     OW55321   3.323   7.609   0.735  0.3474  0.3739 -0.5675
14556SOL    HW155322   3.337   7.572   0.644  0.0547 -0.4352 -0.2827
14556SOL    HW255323   3.385   7.564   0.799 -1.0849 -0.7236  0.0622
14557SOL     OW55324   0.383   5.587   5.068  0.7440  0.1359  0.4380
14557SOL    HW155325   0.292   5.570   5.107  0.4761  0.2621 -0.1236
14557SOL    HW255326   0.434   5.501   5.066 -0.1378 -0.3587 -1.1957
14558SOL     OW55327   1.891   1.962   6.228  0.1832  0.6740  0.5466
14558SOL    HW155328   1.918   1.940   6.322  2.3853 -1.0127 -0.4265
14558SOL    HW255329   1.792   1.951   6.218  0.0481  0.0217  2.4456
14559SOL     OW55330   7.912   6.028   2.797  0.3113  0.0248 -0.6428
14559SOL    HW155331   7.940   6.010   2.702  0.0110  0.0527 -0.7397
14559SOL    HW255332   7.898   6.127   2.809  1.0136  0.0895 -0.3807
14560SOL     OW55333   8.765   0.238   8.026  0.4299 -0.1103  0.0353
14560SOL    HW155334   8.815   0.264   7.944 -2.9691 -2.5351 -2.9446
14560SOL    HW255335   8.811   0.161   8.070  3.3845  2.4549  1.6939
14561SOL     OW55336   7.663   7.903   3.044  0.5478  0.4338 -0.0913
14561SOL    HW155337   7.627   7.960   2.971 -0.2592  0.9379  0.6974
14561SOL    HW255338   7.645   7.946   3.132 -1.7696 -1.9583  0.6457
14562SOL     OW55339   1.212   2.560   3.662 -0.0633  0.2913 -0.1489
14562SOL    HW155340   1.294   2.594   3.708  1.2684 -1.2419 -1.3308
14562SOL    HW255341   1.172   2.485   3.714 -0.2815  0.5198  0.0185
14563SOL     OW55342   1.505   4.961   1.148  0.2380 -0.5594  0.2413
14563SOL    HW155343   1.471   5.049   1.115  1.0876 -0.5513 -0.6320
14563SOL    HW255344   1.430   4.910   1.188 -0.6163 -0.1325 -0.7779
14564SOL     OW55345   4.614   7.991   3.483  0.5771 -0.2942  0.2250
14564SOL    HW155346   4.645   8.084   3.498 -0.3828 -0.2156  1.8441
14564SOL    HW255347   4.685   7.927   3.514  0.1230 -0.1066  1.6908
14565SOL     OW55348   3.574   0.483   4.970 -0.1415  0.2154  0.0244
14565SOL    HW155349   3.483   0.493   5.011  0.2715 -0.1669  1.0512
14565SOL    HW255350   3.627   0.416   5.022  0.4639 -0.1360 -1.0329
14566SOL     OW55351   3.637   7.486   0.029 -0.5227 -0.2899  0.3211
14566SOL    HW155352   3.705   7.414   0.042 -1.9307 -1.7941 -0.4073
14566SOL    HW255353   3.562   7.473   0.094 -0.0905  1.4020  1.1787
14567SOL     OW55354   7.564   1.374   1.599  0.2032 -0.0207 -0.4917
14567SOL    HW155355   7.606   1.450   1.649  0.4394 -1.2283  1.2125
14567SOL    HW255356   7.636   1.317   1.559  0.1409 -0.7749  0.4390
14568SOL     OW55357   0.276   7.866   0.571  0.2769 -0.2530 -0.1125
14568SOL    HW155358   0.211   7.796   0.603 -0.0908  0.3958  0.5698
14568SOL    HW255359   0.352   7.872   0.634 -0.3855  0.9417  0.5872
14569SOL     OW55360   6.091   0.432   2.358  0.0051 -0.5119  0.0490
14569SOL    HW155361   6.070   0.401   2.451 -1.3635 -1.2492 -0.4934
14569SOL    HW255362   6.017   0.491   2.325 -0.4733 -1.8185 -1.2818
14570SOL     OW55363   3.092   4.220   0.457 -0.1651 -0.3738 -0.5292
14570SOL    HW155364   3.036   4.166   0.394 -0.5479  1.7230 -2.0448
14570SOL    HW255365   3.064   4.316   0.452  0.2858 -0.0666  2.3393
14571SOL     OW55366   0.100   4.964   2.208 -0.3602  0.0999 -0.1284
14571SOL    HW155367   0.155   5.010   2.138  1.0985 -0.5642  0.5529
14571SOL    HW255368   0.042   4.895   2.165 -0.0406  0.2320 -0.7671
14572SOL     OW55369   7.850   7.451   5.586  0.3011 -0.0165 -0.6856
14572SOL    HW155370   7.825   7.432   5.681  2.6765  0.0110 -0.0014
14572SOL    HW255371   7.861   7.365   5.536 -0.3929 -0.0509 -0.7804
14573SOL     OW55372   1.475   0.535   5.954 -0.1570  0.0024  0.6774
14573SOL    HW155373   1.386   0.503   5.984 -0.6630  0.6374 -0.1240
14573SOL    HW255374   1.503   0.486   5.871 -1.3869  2.2763 -1.1289
14574SOL     OW55375   2.962   5.550   1.785  0.3727  0.5196 -0.2200
14574SOL    HW155376   2.957   5.471   1.845 -1.5105  0.1152 -0.8814
14574SOL    HW255377   3.022   5.530   1.708  0.4491 -0.0116 -0.0196
14575SOL     OW55378   9.585   1.577   3.881  0.1563 -0.0198 -0.3175
14575SOL    HW155379   9.502   1.533   3.846 -0.7917  1.4379  0.0605
14575SOL    HW255380   9.564   1.625   3.966  1.6317 -0.4750  0.3241
14576SOL     OW55381   8.346   0.949   2.970 -0.2105  0.1273 -0.0704
14576SOL    HW155382   8.409   0.875   2.947  1.1844  1.3451 -0.2185
14576SOL    HW255383   8.351   0.968   3.068 -2.0131 -1.2669  0.3212
14577SOL     OW55384   7.487   4.008   2.254  0.3013  0.3536 -0.1078
14577SOL    HW155385   7.551   3.998   2.178  0.0068  0.8607 -0.4201
14577SOL    HW255386   7.405   4.056   2.223 -0.4071 -0.6555  0.1924
14578SOL     OW55387   9.363   9.889   5.829  0.1584  0.2578 -0.0116
14578SOL    HW155388   9.337   9.851   5.918 -1.2455  0.0570 -0.5069
14578SOL    HW255389   9.350   9.988   5.830  0.9168  0.3568  0.2710
14579SOL     OW55390   0.046   8.078   1.106  0.4883  0.2173 -0.2424
14579SOL    HW155391   0.003   8.169   1.103  0.2139  0.0776 -0.5667
14579SOL    HW255392   0.009   8.021   1.032 -0.9359 -0.8552  1.2518
14580SOL     OW55393   7.644   9.460   2.666  0.1481 -0.3349 -0.6144
14580SOL    HW155394   7.741   9.438   2.671  0.3026  0.7645  1.9914
14580SOL    HW255395   7.633   9.560   2.660 -0.8574 -0.2483  2.1301
14581SOL     OW55396   7.658   3.413   1.812 -0.0575 -0.3427 -0.2863
14581SOL    HW155397   7.755   3.438   1.806  0.2772 -1.9545 -2.0717
14581SOL    HW255398   7.650   3.314   1.823 -1.4835 -0.0672  1.3391
14582SOL     OW55399   6.643   2.019   4.248 -0.1380 -0.0013  0.4810
14582SOL    HW155400   6.586   2.101   4.260 -0.7818 -0.3138 -0.3506
14582SOL    HW255401   6.717   2.039   4.184  2.6927  1.3680  3.9827
14583SOL     OW55402   7.994   5.440   6.371 -0.2313 -0.3667  0.4728
14583SOL    HW155403   8.070   5.489   6.415 -1.7026  0.7162  1.8607
14583SOL    HW255404   8.027   5.351   6.338  1.6652  0.1369  0.9301
14584SOL     OW55405   7.111   2.341   5.535  0.4666 -0.0098 -0.1524
14584SOL    HW155406   7.048   2.278   5.490  1.2891 -1.1351  0.2359
14584SOL    HW255407   7.087   2.348   5.632 -0.4060  1.2682 -0.4604
14585SOL     OW55408   2.274   9.760   1.083 -0.3499  0.4993  0.6976
14585SOL    HW155409   2.356   9.785   1.031 -0.3226 -0.3563  0.3255
14585SOL    HW255410   2.299   9.745   1.179 -0.1830  0.8639  0.7110
14586SOL     OW55411   6.589   2.491   0.226  0.6021 -0.2645  0.3142
14586SOL    HW155412   6.620   2.440   0.307  1.1430  2.0226  1.5883
14586SOL    HW255413   6.657   2.559   0.202 -0.8058  0.9062 -0.4281
14587SOL     OW55414   9.764   7.808   3.066 -0.3093 -0.4924 -0.2438
14587SOL    HW155415   9.784   7.722   3.113  0.5505 -0.7787 -1.0993
14587SOL    HW255416   9.697   7.861   3.119  0.4569 -0.9028  1.1590
14588SOL     OW55417   3.224   1.483   2.942 -0.3000  0.3596  0.0876
14588SOL    HW155418   3.296   1.473   2.874  0.2898  1.5975  0.5204
14588SOL    HW255419   3.192   1.578   2.944 -1.4167 -0.0149  0.4252
14589SOL     OW55420   7.723   4.116   3.273  0.7619 -0.1377  0.3013
14589SOL    HW155421   7.687   4.024   3.258  2.3054 -0.5781 -0.8283
14589SOL    HW255422   7.685   4.178   3.204  1.1041 -0.3099 -0.0424
14590SOL     OW55423   1.818   1.337   6.623 -0.1976 -0.4333  1.1388
14590SOL    HW155424   1.739   1.395   6.644  0.8241  0.1710  3.3983
14590SOL    HW255425   1.902   1.389   6.637  0.6476 -0.4559 -3.0697
14591SOL     OW55426   4.906   1.335   0.550 -0.3139  0.6859 -0.0810
14591SOL    HW155427   4.944   1.248   0.580  1.5682  1.6879  0.5170
14591SOL    HW255428   4.894   1.395   0.630 -1.5972  0.9802 -0.4848
14592SOL     OW55429   4.104   9.962   4.625 -0.1906  0.2426 -0.1531
14592SOL    HW155430   4.160   9.879   4.628  0.7278  0.8658  0.0535
14592SOL    HW255431   4.072   9.977   4.532  0.8264  0.4470 -0.4695
14593SOL     OW55432   4.757   9.721   3.676  0.3313  0.4481  0.4376
14593SOL    HW155433   4.844   9.673   3.688  0.2851  0.8935  2.7798
14593SOL    HW255434   4.702   9.713   3.760 -1.4719  1.0059 -0.6606
14594SOL     OW55435   3.350   3.649   0.632 -0.5303  0.5547 -0.3991
14594SOL    HW155436   3.328   3.631   0.537  0.4985  0.1667 -0.5698
14594SOL    HW255437   3.334   3.567   0.687 -0.6271  0.6198 -0.3300
14595SOL     OW55438   0.651   0.989   2.825 -0.3674 -0.1880 -0.2540
14595SOL    HW155439   0.617   0.923   2.891 -1.4953 -1.0122 -1.6415
14595SOL    HW255440   0.670   0.943   2.739 -0.1355  1.1061 -0.9039
14596SOL     OW55441   8.803   0.535   3.105  0.3521 -0.3253  0.8054
14596SOL    HW155442   8.731   0.561   3.170 -0.0554  2.6762 -0.7287
14596SOL    HW255443   8.765   0.475   3.035 -0.4406  0.3993  0.5982
14597SOL     OW55444   4.280   9.021   3.217 -0.6896 -0.0671  0.1974
14597SOL    HW155445   4.258   8.933   3.176  0.0066  1.4395 -3.5574
14597SOL    HW255446   4.196   9.064   3.251 -1.5176 -0.6179 -1.1282
14598SOL     OW55447   3.179   7.048   6.359 -0.3004 -0.0759 -0.8250
14598SOL    HW155448   3.177   6.955   6.394 -0.3948  0.2374  0.0236
14598SOL    HW255449   3.087   7.088   6.365 -0.5064 -0.3215 -2.2686
14599SOL     OW55450   3.353   9.406   2.849  0.3715  0.5209  0.3695
14599SOL    HW155451   3.281   9.393   2.916  0.7224  0.2222  0.6950
14599SOL    HW255452   3.347   9.333   2.780 -0.3307  1.1494 -0.2375
14600SOL     OW55453   2.169   1.329   6.708  0.0323  0.3251 -0.4626
14600SOL    HW155454   2.211   1.245   6.741 -1.1242 -0.3221 -0.6285
14600SOL    HW255455   2.129   1.379   6.786 -1.6395 -0.6122 -0.6925
14601SOL     OW55456   0.670   8.398   5.828 -0.3086 -0.4559 -0.2538
14601SOL    HW155457   0.571   8.383   5.827 -0.1898 -1.2645 -0.8408
14601SOL    HW255458   0.703   8.392   5.922 -0.6981 -1.0063 -0.1477
14602SOL     OW55459   8.375   7.796   5.400 -0.0684 -0.1424 -0.3239
14602SOL    HW155460   8.303   7.865   5.391  0.2687  0.1806 -0.5724
14602SOL    HW255461   8.352   7.716   5.346 -0.5628 -0.3081  0.1306
14603SOL     OW55462   6.391   0.586   2.168 -0.0184  0.9184 -0.4301
14603SOL    HW155463   6.303   0.553   2.133 -0.6526  1.9582  0.1674
14603SOL    HW255464   6.410   0.544   2.256  0.6393 -0.1846 -1.0852
14604SOL     OW55465   0.389   0.587   3.711  0.2747  0.3452 -0.4959
14604SOL    HW155466   0.296   0.551   3.705  0.2696  0.2038  0.3446
14604SOL    HW255467   0.446   0.547   3.639 -0.2656  0.2765 -0.8810
14605SOL     OW55468   0.664   9.288   4.495  0.1690  0.4476  0.5048
14605SOL    HW155469   0.688   9.233   4.575 -0.4096 -2.2091 -1.0998
14605SOL    HW255470   0.581   9.340   4.514  0.1621  0.0051  1.7159
14606SOL     OW55471   3.277   8.399   7.501 -0.1939 -0.0663  0.2373
14606SOL    HW155472   3.188   8.434   7.532 -0.9047  0.0046 -1.8084
14606SOL    HW255473   3.333   8.375   7.580 -1.3229  1.6699  1.5935
14607SOL     OW55474   1.694   2.188   1.978  0.4725  0.1068  0.2451
14607SOL    HW155475   1.669   2.164   2.072 -1.4595  1.4192  0.1206
14607SOL    HW255476   1.629   2.146   1.914  1.1074  0.1233 -0.4207
14608SOL     OW55477   1.729   9.392   6.790  0.5122 -0.5859  0.5591
14608SOL    HW155478   1.795   9.375   6.717 -0.0097 -3.5498  0.7202
14608SOL    HW255479   1.767   9.360   6.877  0.7065  1.9706  1.4533
14609SOL     OW55480   1.763   8.270   0.430  0.3105 -0.4768  0.1674
14609SOL    HW155481   1.735   8.181   0.394  2.3146 -1.7914  1.7521
14609SOL    HW255482   1.795   8.260   0.524  0.4169  1.9654  0.4386
14610SOL     OW55483   4.212   0.050   4.994  0.9778  0.4205 -0.0979
14610SOL    HW155484   4.204   0.133   4.938 -1.3345  1.3363  1.5256
14610SOL    HW255485   4.134  -0.009   4.977  1.7397 -0.6304  0.0460
14611SOL     OW55486   9.034   4.596   0.697  0.5320 -0.7459  0.1853
14611SOL    HW155487   9.121   4.554   0.670 -0.2665 -0.7914 -2.4750
14611SOL    HW255488   9.051   4.674   0.757  2.4140 -0.7024 -0.3817
14612SOL     OW55489   0.394   9.609   2.483  0.4837  0.0969 -0.3934
14612SOL    HW155490   0.407   9.540   2.412  1.5600 -0.4723  0.3407
14612SOL    HW255491   0.457   9.685   2.468 -0.2074  0.5983 -0.7947
14613SOL     OW55492   7.803   3.616   1.179 -0.3570 -0.2930  0.3854
14613SOL    HW155493   7.821   3.684   1.108  0.1929 -1.2950 -0.4340
14613SOL    HW255494   7.863   3.537   1.167 -1.5327 -1.2843  0.8665
14614SOL     OW55495   5.032   3.028   5.263 -0.1806 -0.1654  0.6225
14614SOL    HW155496   4.964   2.989   5.201  1.1346  0.9732 -1.5851
14614SOL    HW255497   5.123   3.022   5.221  0.5202  2.0849  1.7470
14615SOL     OW55498   5.372   9.619   0.722 -0.1966  0.7358  0.4622
14615SOL    HW155499   5.313   9.540   0.706 -2.4801  2.2559  1.0583
14615SOL    HW255500   5.455   9.611   0.666 -2.0451 -0.3226 -2.2372
14616SOL     OW55501   8.882   1.284   3.036 -0.0665  0.7654 -0.3086
14616SOL    HW155502   8.950   1.235   3.091  0.1441 -1.7771 -2.6972
14616SOL    HW255503   8.925   1.318   2.952 -2.2562 -3.9216 -3.5791
14617SOL     OW55504   1.817   6.967   2.484  0.1130  0.3494 -0.1293
14617SOL    HW155505   1.771   7.025   2.416  0.5266  1.0997  0.2243
14617SOL    HW255506   1.765   6.968   2.569  0.9184  1.4341  0.3661
14618SOL     OW55507   0.813   5.916   3.878 -0.2404 -0.6444 -0.0483
14618SOL    HW155508   0.815   5.922   3.778  0.4431  0.3127  0.0258
14618SOL    HW255509   0.762   5.833   3.904 -0.8862 -0.6234 -1.1731
14619SOL     OW55510   5.244   0.471   4.488 -0.1372  0.0123 -0.2055
14619SOL    HW155511   5.193   0.444   4.407 -1.1278  3.6030 -0.8793
14619SOL    HW255512   5.187   0.458   4.570 -1.2279  1.6349 -0.6920
14620SOL     OW55513   4.565   5.238   0.691  0.2484 -0.4194 -0.0899
14620SOL    HW155514   4.637   5.268   0.754  0.1348 -1.5483  0.5966
14620SOL    HW255515   4.523   5.317   0.647  0.9312  0.3242  0.5927
14621SOL     OW55516   2.974   0.480   0.847 -0.4501 -0.3561  0.2815
14621SOL    HW155517   2.977   0.566   0.795 -0.9834  0.1097  0.9943
14621SOL    HW255518   2.884   0.471   0.890 -0.2413 -1.0573  0.5710
14622SOL     OW55519   0.384   0.794   3.351 -0.0772 -0.2422  0.9154
14622SOL    HW155520   0.420   0.786   3.444 -0.5841 -2.0440  0.9704
14622SOL    HW255521   0.290   0.760   3.348  0.7246 -2.4578 -0.7070
14623SOL     OW55522   2.005   7.080   0.857  0.2107  0.3652 -0.3353
14623SOL    HW155523   2.077   7.141   0.890  0.8957 -0.5244 -0.1550
14623SOL    HW255524   2.047   7.003   0.809 -0.5492 -0.8968  0.9873
14624SOL     OW55525   1.766   6.665   0.511  0.7228  0.7844 -0.3854
14624SOL    HW155526   1.754   6.734   0.440 -1.0456  0.1404 -0.7248
14624SOL    HW255527   1.766   6.574   0.470 -3.4393  0.2109  0.7265
14625SOL     OW55528   9.412   7.894   6.044  0.4696  1.0630 -0.0052
14625SOL    HW155529   9.420   7.846   6.131  0.0580  2.3877  0.7726
14625SOL    HW255530   9.503   7.907   6.005  0.5445 -0.8366 -0.5057
14626SOL     OW55531   4.579   0.337   1.252 -0.2368 -0.3227 -0.1976
14626SOL    HW155532   4.524   0.320   1.334 -0.5147  0.2249 -0.2629
14626SOL    HW255533   4.589   0.436   1.239  0.7347 -0.4206 -0.2138
14627SOL     OW55534   3.619   4.520   5.219  0.2850  0.6410 -0.3151
14627SOL    HW155535   3.612   4.456   5.296 -1.8418  1.1599 -0.0485
14627SOL    HW255536   3.546   4.501   5.153  1.9889  0.3034 -2.1666
14628SOL     OW55537   3.807   4.210   1.217  0.3771  0.6481  0.9200
14628SOL    HW155538   3.842   4.167   1.300  0.5216 -0.8611  0.1042
14628SOL    HW255539   3.776   4.139   1.154  1.0092  1.7371 -0.6460
14629SOL     OW55540   1.475   0.482   2.966  0.3169  0.4058 -0.0181
14629SOL    HW155541   1.387   0.474   2.919 -0.3047 -1.5248  1.3980
14629SOL    HW255542   1.547   0.441   2.910  0.6153  3.3394 -1.8621
14630SOL     OW55543   3.164   2.514   2.215 -0.2762 -0.5569 -0.1368
14630SOL    HW155544   3.069   2.510   2.247 -0.3221  2.4168  0.1926
14630SOL    HW255545   3.226   2.501   2.292 -0.4159 -0.3485  0.0118
14631SOL     OW55546   4.151   2.523   5.794  0.0066  0.2708  0.0583
14631SOL    HW155547   4.250   2.519   5.808 -0.1830 -2.3960  0.7154
14631SOL    HW255548   4.116   2.432   5.771 -2.3760  1.0812  0.3160
14632SOL     OW55549   4.293   0.334   7.993  0.1477  0.3668 -0.0181
14632SOL    HW155550   4.366   0.343   7.925 -0.6902  2.1072 -0.7013
14632SOL    HW255551   4.329   0.288   8.074  1.3226 -1.1844 -1.3740
14633SOL     OW55552   0.136   5.922   2.719 -0.0091 -0.1143 -0.0827
14633SOL    HW155553   0.041   5.936   2.690 -0.1741 -0.2580  0.3924
14633SOL    HW255554   0.196   5.930   2.639 -0.0648  3.5165  0.1722
14634SOL     OW55555   6.928   1.202   1.205  0.1512  0.5919 -0.4148
14634SOL    HW155556   7.014   1.236   1.166  1.8810 -1.6863  1.3224
14634SOL    HW255557   6.889   1.133   1.144  1.1365 -0.5683  0.2612
14635SOL     OW55558   9.078   6.745   6.427 -0.2980  0.1468  0.6987
14635SOL    HW155559   9.088   6.657   6.380 -0.6791  0.4644  0.0186
14635SOL    HW255560   8.996   6.743   6.485 -1.2007  0.6010 -0.5474
14636SOL     OW55561   6.452   5.897   0.104 -0.0603 -0.3706  0.4001
14636SOL    HW155562   6.472   5.803   0.132 -2.3745 -1.0266 -0.0462
14636SOL    HW255563   6.517   5.959   0.148  1.3093 -2.1353  0.9418
14637SOL     OW55564   3.012   9.703   4.953  0.3425  0.1969 -0.8369
14637SOL    HW155565   2.935   9.677   5.011 -0.9164  0.8703 -2.1666
14637SOL    HW255566   3.079   9.753   5.007 -0.7716  0.7410  0.0599
14638SOL     OW55567   9.893   0.269   4.713  0.1987  0.1609  0.0491
14638SOL    HW155568   9.818   0.322   4.751 -0.1997  0.2676 -0.8677
14638SOL    HW255569   9.973   0.328   4.700  0.5230 -0.0066  1.2455
14639SOL     OW55570   7.923   6.121   3.969  0.4237  0.0503 -0.0395
14639SOL    HW155571   7.911   6.051   3.899 -0.8043  0.6228 -0.4004
14639SOL    HW255572   7.944   6.208   3.926 -0.2926  0.3928  0.2995
14640SOL     OW55573   7.895   4.879   7.279  0.8787 -0.5341  0.2265
14640SOL    HW155574   7.844   4.889   7.364  0.3679 -1.1599 -0.0027
14640SOL    HW255575   7.871   4.792   7.236  0.7383  0.0208 -0.8228
14641SOL     OW55576   3.209   0.901   4.418  0.4526 -0.3926  0.5694
14641SOL    HW155577   3.140   0.904   4.346  1.0919 -0.6018 -0.0725
14641SOL    HW255578   3.167   0.874   4.504 -0.4699  0.6574  0.4549
14642SOL     OW55579   3.665   6.413   0.397  0.0012 -0.2823 -0.0404
14642SOL    HW155580   3.608   6.487   0.434  2.0913  1.5205 -0.3447
14642SOL    HW255581   3.630   6.387   0.307 -1.4577 -0.4901  0.5687
14643SOL     OW55582   5.131   5.975   0.869 -0.2292 -0.0706  0.2607
14643SOL    HW155583   5.069   5.916   0.922 -0.0976  1.4946  2.1932
14643SOL    HW255584   5.225   5.945   0.882 -0.2214  0.1415  0.6972
14644SOL     OW55585   1.846   0.976   0.354  0.2218  0.0378 -0.0722
14644SOL    HW155586   1.923   0.950   0.412 -0.4381 -1.1149  0.3147
14644SOL    HW255587   1.841   1.076   0.348  0.3225  0.1865  1.8457
14645SOL     OW55588   3.543   4.649   2.558 -0.1178  0.1885 -0.2257
14645SOL    HW155589   3.529   4.575   2.623 -0.4657  0.8087  0.4199
14645SOL    HW255590   3.640   4.658   2.537  0.1098  0.5781  0.9275
14646SOL     OW55591   2.095   1.504   4.758 -0.2398  0.8121 -0.0237
14646SOL    HW155592   2.062   1.592   4.725  0.5334  1.1653  0.1410
14646SOL    HW255593   2.190   1.512   4.786  0.0426 -0.2347 -0.6296
14647SOL     OW55594   2.540   6.872   1.498  0.1392  0.0691 -0.4071
14647SOL    HW155595   2.480   6.939   1.456 -0.1633 -0.0535 -0.1741
14647SOL    HW255596   2.521   6.782   1.459  0.5457  0.1198 -0.7217
14648SOL     OW55597   8.371   7.864   6.890  0.3202 -0.5616  0.2089
14648SOL    HW155598   8.386   7.963   6.892  2.9212 -0.9072 -0.3115
14648SOL    HW255599   8.415   7.825   6.809 -0.4404 -2.1887  0.5499
14649SOL     OW55600   0.721   3.356   4.997 -0.1649  0.3538 -0.2563
14649SOL    HW155601   0.658   3.386   4.925 -0.6229 -0.4400 -0.1911
14649SOL    HW255602   0.783   3.430   5.020 -1.2495  1.2430 -0.1388
14650SOL     OW55603   6.384   7.171   4.813 -0.3030 -0.0870 -0.3273
14650SOL    HW155604   6.332   7.196   4.895 -2.3004  0.4699 -1.7159
14650SOL    HW255605   6.385   7.249   4.750  2.5786  0.0350 -0.1683
14651SOL     OW55606   3.459   1.515   0.436 -0.3810 -0.0492 -0.4919
14651SOL    HW155607   3.467   1.615   0.442  0.9023 -0.2009  0.7135
14651SOL    HW255608   3.366   1.488   0.460 -1.2657  0.9641 -2.5916
14652SOL     OW55609   2.255   9.244   5.225 -0.3376  0.1208  0.1242
14652SOL    HW155610   2.353   9.230   5.237 -0.1690  0.2527 -1.0013
14652SOL    HW255611   2.205   9.197   5.298  0.2801 -4.6224 -2.3253
14653SOL     OW55612   0.199   1.662   5.968  0.5907  0.5572  0.7670
14653SOL    HW155613   0.205   1.573   6.012  0.5952  0.6039  0.8621
14653SOL    HW255614   0.281   1.678   5.914 -0.8430 -0.8882 -1.9179
14654SOL     OW55615   0.564   6.328   0.189 -0.0939  0.0227 -0.5345
14654SOL    HW155616   0.593   6.406   0.133 -0.1012 -0.9956 -1.9734
14654SOL    HW255617   0.612   6.246   0.159  0.0336 -0.5131  1.0850
14655SOL     OW55618   0.522   1.732   6.355 -0.3965  0.1372  0.2295
14655SOL    HW155619   0.518   1.635   6.330  0.7844  0.7139 -2.3841
14655SOL    HW255620   0.430   1.765   6.376 -1.3922 -0.6411 -2.6563
14656SOL     OW55621   4.877   2.983   5.029  0.8259  0.2264  0.7410
14656SOL    HW155622   4.896   2.901   4.975 -0.4768  0.5770 -0.2954
14656SOL    HW255623   4.840   3.054   4.969  2.3762  1.7467  1.5463
14657SOL     OW55624   8.618   8.391   5.785 -0.3725  0.4686 -0.5792
14657SOL    HW155625   8.615   8.488   5.807 -0.4348  0.7576 -1.7992
14657SOL    HW255626   8.525   8.355   5.779 -0.3215  0.0485  1.0423
14658SOL     OW55627   0.222   4.671   5.905 -0.3128  0.0049 -0.1975
14658SOL    HW155628   0.201   4.767   5.924  0.7608  0.1685  0.1955
14658SOL    HW255629   0.257   4.628   5.988  1.1923 -0.1725 -0.9109
14659SOL     OW55630   2.320   3.640   7.033  0.1717 -0.2773 -0.6534
14659SOL    HW155631   2.397   3.619   6.974  0.9125  2.1381 -0.5722
14659SOL    HW255632   2.334   3.598   7.123 -0.1578 -2.5182 -1.6176
14660SOL     OW55633   5.046   0.775   2.337  0.3186  0.0652  0.0438
14660SOL    HW155634   5.017   0.685   2.368  0.5963 -0.4199 -1.1055
14660SOL    HW255635   5.057   0.835   2.417  0.4949 -1.0140  0.8437
14661SOL     OW55636   3.021   5.259   2.360 -0.1009  0.2174 -0.0666
14661SOL    HW155637   2.930   5.235   2.325  0.2533 -0.4775 -0.5359
14661SOL    HW255638   3.058   5.336   2.307 -1.3127  1.9672  1.5558
14662SOL     OW55639   6.998   5.642   1.259  0.1504  0.2203 -0.3839
14662SOL    HW155640   6.917   5.610   1.308  0.6412 -0.5902 -0.0806
14662SOL    HW255641   7.019   5.736   1.285  0.4648 -0.2318  1.0584
14663SOL     OW55642   2.082   9.876   3.536 -0.0753  0.1590  0.5443
14663SOL    HW155643   2.020   9.799   3.552 -1.4299  1.4781  1.7102
14663SOL    HW255644   2.102   9.921   3.623  2.3526 -0.0894  0.1680
14664SOL     OW55645   0.277   4.163   4.428  0.5953  0.3638 -0.1011
14664SOL    HW155646   0.349   4.094   4.422  0.2012 -0.0702  0.0693
14664SOL    HW255647   0.317   4.252   4.451  0.8564 -0.3280  2.3179
14665SOL     OW55648   3.708   1.433   6.654  0.3638 -0.1135  0.2275
14665SOL    HW155649   3.640   1.484   6.708  0.9628 -0.0309  0.9097
14665SOL    HW255650   3.760   1.498   6.598 -0.4524 -0.2277 -0.6914
14666SOL     OW55651   8.741   1.538   3.922  0.4027 -0.1837 -0.1241
14666SOL    HW155652   8.747   1.453   3.974  2.7079  0.4993  0.7813
14666SOL    HW255653   8.662   1.590   3.953  1.2005 -0.2274  2.0566
14667SOL     OW55654   0.203   8.884   6.808  0.1159 -0.3483  0.2533
14667SOL    HW155655   0.277   8.868   6.872  0.5573  0.1005 -0.1372
14667SOL    HW255656   0.240   8.912   6.719 -0.5203  0.1870  0.1448
14668SOL     OW55657   8.563   7.685   5.176  0.1719 -0.2547  0.6068
14668SOL    HW155658   8.483   7.684   5.235 -0.0206  0.9495  0.3749
14668SOL    HW255659   8.608   7.774   5.182  1.4497 -0.9002  0.6770
14669SOL     OW55660   1.359   4.914   2.004 -0.4907 -0.1458  0.0085
14669SOL    HW155661   1.428   4.972   2.047 -1.4889  0.2104  1.1304
14669SOL    HW255662   1.328   4.956   1.919  0.8457 -0.4285 -0.6310
14670SOL     OW55663   3.039   4.443   6.499  0.3452  0.2328 -0.1030
14670SOL    HW155664   3.115   4.407   6.445  0.4911 -2.0561  1.5401
14670SOL    HW255665   2.957   4.446   6.443  1.3375  1.4943 -1.5242
14671SOL     OW55666   8.242   4.973   0.612 -0.0780 -0.1409 -0.3657
14671SOL    HW155667   8.295   4.989   0.529 -0.2560  0.0130 -0.4497
14671SOL    HW255668   8.147   4.951   0.588  0.1371 -1.2425 -0.2509
14672SOL     OW55669   0.272   5.356   1.766 -0.8868 -0.3112 -0.7314
14672SOL    HW155670   0.230   5.442   1.795 -1.0222 -0.2067 -1.2286
14672SOL    HW255671   0.366   5.374   1.736 -0.6165 -0.4825  0.0176
14673SOL     OW55672   2.731   0.911   7.382  0.2056  0.0875 -0.0027
14673SOL    HW155673   2.677   0.967   7.445  0.2747  1.2190 -0.9267
14673SOL    HW255674   2.777   0.839   7.433 -0.4247  0.4543  1.1143
14674SOL     OW55675   8.925   6.165   6.058  0.2415  0.1829 -0.3018
14674SOL    HW155676   8.972   6.225   6.122 -0.1186  0.1291  0.0139
14674SOL    HW255677   8.980   6.155   5.975  1.0347 -0.2931  0.2751
14675SOL     OW55678   3.780   6.265   0.614  0.0340  0.5108  0.0269
14675SOL    HW155679   3.705   6.232   0.672  0.5696 -2.8445 -1.1053
14675SOL    HW255680   3.744   6.297   0.527 -0.2206  0.0026 -0.0579
14676SOL     OW55681   0.675   0.236   1.691 -0.5517 -0.6613 -0.1846
14676SOL    HW155682   0.627   0.159   1.651 -0.9604 -0.7361  0.4584
14676SOL    HW255683   0.611   0.293   1.743  0.2912 -1.4873  1.7843
14677SOL     OW55684   8.953   0.984   3.990  0.1129 -0.2499 -0.0288
14677SOL    HW155685   8.929   0.915   3.922  0.7648  1.7108 -2.3085
14677SOL    HW255686   9.053   0.991   3.996  0.0537  0.3952  0.2745
14678SOL     OW55687   0.858   7.501   4.706 -0.0540 -0.0420  0.5038
14678SOL    HW155688   0.943   7.449   4.718 -0.3240 -0.6592 -0.3111
14678SOL    HW255689   0.827   7.533   4.796  0.3604 -0.8753  0.9562
14679SOL     OW55690   1.806   5.442   8.184  0.5047  0.0869  0.0104
14679SOL    HW155691   1.758   5.457   8.097 -2.2291 -2.7564  0.9576
14679SOL    HW255692   1.871   5.367   8.173  0.5784  0.1134  0.2738
14680SOL     OW55693   8.263   8.508   4.937  1.0867 -0.1533 -0.2019
14680SOL    HW155694   8.343   8.452   4.957  0.8264 -0.4913 -0.1030
14680SOL    HW255695   8.289   8.605   4.939  1.3224 -0.2244  0.6267
14681SOL     OW55696   8.958   3.030   1.657  0.1324  0.2083 -0.0509
14681SOL    HW155697   8.861   3.015   1.677 -0.3516  0.9951 -1.7392
14681SOL    HW255698   9.013   2.978   1.722 -1.4099  0.2105  1.3015
14682SOL     OW55699   1.421   9.514   8.012 -0.7087  0.0186  0.1763
14682SOL    HW155700   1.500   9.463   7.977 -0.7835 -0.0994  0.1829
14682SOL    HW255701   1.365   9.455   8.070 -0.6064  0.2031  0.4676
14683SOL     OW55702   2.305   0.467   6.796 -0.4704 -0.1546 -0.3336
14683SOL    HW155703   2.217   0.457   6.749  0.0671  0.4699 -1.5150
14683SOL    HW255704   2.291   0.504   6.888 -1.4891 -0.6505 -0.2898
14684SOL     OW55705   8.537   9.426   3.066 -0.0233 -0.6108 -0.3066
14684SOL    HW155706   8.456   9.482   3.086  0.6047  0.0263  0.4692
14684SOL    HW255707   8.509   9.331   3.054 -0.8576 -0.4410  0.2078
14685SOL     OW55708   7.749   4.224   0.836  0.0760 -0.0462  0.2077
14685SOL    HW155709   7.767   4.322   0.835  0.1472 -0.0659 -0.5391
14685SOL    HW255710   7.817   4.177   0.780 -0.6291 -0.4082 -0.3449
14686SOL     OW55711   5.643   9.133   2.875 -0.5578  0.1803 -0.0390
14686SOL    HW155712   5.694   9.216   2.853 -2.3268  1.3838  0.3167
14686SOL    HW255713   5.628   9.129   2.974 -1.1904 -0.1558 -0.1489
14687SOL     OW55714   8.316   6.659   0.223 -0.1468 -0.1083  0.5092
14687SOL    HW155715   8.357   6.723   0.158  0.5644  1.4290  2.4061
14687SOL    HW255716   8.286   6.577   0.175 -2.0171  2.0420 -2.1920
14688SOL     OW55717   9.121   4.745   5.950  0.6845  0.5176  0.7497
14688SOL    HW155718   9.218   4.755   5.970  0.7030  1.2381  0.3232
14688SOL    HW255719   9.069   4.743   6.036  0.9467  1.5416  0.9387
14689SOL     OW55720   0.192   7.559   7.129  0.4394 -0.2355 -0.0598
14689SOL    HW155721   0.118   7.492   7.121 -0.0088  0.3470 -0.7499
14689SOL    HW255722   0.279   7.515   7.108  0.1976 -0.7053 -0.0887
14690SOL     OW55723   8.943   4.621   0.261 -0.0861  0.5202 -0.1320
14690SOL    HW155724   8.929   4.607   0.163 -1.6279 -0.0165  0.1586
14690SOL    HW255725   8.972   4.716   0.277  0.3403  0.5582 -1.1141
14691SOL     OW55726   8.311   1.393   7.682 -0.0575 -0.3356 -0.3734
14691SOL    HW155727   8.297   1.448   7.600 -0.4948 -0.3988 -0.3421
14691SOL    HW255728   8.267   1.437   7.760 -2.1232 -1.7262 -0.7242
14692SOL     OW55729   8.436   7.580   7.166  0.1077  0.3761  0.3332
14692SOL    HW155730   8.474   7.672   7.160 -0.7630  0.7004 -0.2433
14692SOL    HW255731   8.364   7.569   7.098  1.2999 -1.2682 -0.7061
14693SOL     OW55732   2.640   3.233   4.442  0.9433  0.2308 -0.6976
14693SOL    HW155733   2.595   3.259   4.357 -1.6985 -0.2601  0.5130
14693SOL    HW255734   2.619   3.300   4.514  0.4863 -1.0714  0.4057
14694SOL     OW55735   7.953   4.248   5.781  0.5761 -0.4536 -0.2406
14694SOL    HW155736   8.047   4.247   5.815  0.1288 -2.8279  0.9867
14694SOL    HW255737   7.911   4.335   5.805  1.8270 -0.1527  0.9578
14695SOL     OW55738   1.494   5.558   4.352 -0.8432 -0.1372 -0.4587
14695SOL    HW155739   1.493   5.632   4.420 -0.3429 -0.1728 -0.4116
14695SOL    HW255740   1.408   5.560   4.300 -0.5772  0.8714 -0.8829
14696SOL     OW55741   2.224   2.436   4.416 -0.4596  0.6146  0.1134
14696SOL    HW155742   2.130   2.409   4.393 -0.2031  0.0568 -0.2845
14696SOL    HW255743   2.250   2.514   4.360 -0.8079  0.9905  0.4710
14697SOL     OW55744   5.125   2.489   3.862  0.4886 -0.1581 -0.0179
14697SOL    HW155745   5.048   2.529   3.912  1.3815  0.5060  0.8627
14697SOL    HW255746   5.097   2.470   3.768 -0.2263  1.7930 -0.2385
14698SOL     OW55747   2.113   2.888   3.159 -0.5668  0.1850  0.4429
14698SOL    HW155748   2.022   2.868   3.123 -0.8266 -1.2181  1.8195
14698SOL    HW255749   2.142   2.979   3.128 -1.1388 -0.5900 -2.5031
14699SOL     OW55750   7.537   3.307   3.920  0.3411 -0.6342  0.1466
14699SOL    HW155751   7.482   3.379   3.877 -1.0951 -0.6634  1.9031
14699SOL    HW255752   7.579   3.251   3.849  0.8764  1.4720 -1.2552
14700SOL     OW55753   8.137   4.672   1.449  0.1194  0.8482  0.3584
14700SOL    HW155754   8.221   4.653   1.500 -0.4594 -0.1476  0.9630
14700SOL    HW255755   8.108   4.766   1.467  0.3506  0.7535  1.2529
14701SOL     OW55756   9.485   5.120   2.165  0.3191  0.0092  0.0182
14701SOL    HW155757   9.534   5.203   2.192  0.9194 -0.0489 -0.8760
14701SOL    HW255758   9.416   5.142   2.097  0.9632 -0.3385 -0.7456
14702SOL     OW55759   7.712   5.637   0.842  0.2138 -0.1006  0.0066
14702SOL    HW155760   7.761   5.720   0.867 -0.2341  0.4095 -0.7620
14702SOL    HW255761   7.629   5.662   0.792  0.8509 -1.0539 -1.5695
14703SOL     OW55762   0.324   0.106   2.284 -0.4615  0.5560 -0.5553
14703SOL    HW155763   0.342   0.041   2.359  2.8908  1.3300 -0.6115
14703SOL    HW255764   0.234   0.088   2.246 -2.3886  0.2830  3.8033
14704SOL     OW55765   2.880   0.714   2.636 -0.2229 -0.0267 -0.3412
14704SOL    HW155766   2.799   0.763   2.605 -0.0270 -0.4494 -1.5773
14704SOL    HW255767   2.903   0.642   2.570  1.5463  0.5255 -0.3595
14705SOL     OW55768   8.516   9.623   3.487 -0.3396 -0.2625  0.4298
14705SOL    HW155769   8.519   9.548   3.553 -1.7065 -1.7092 -1.1258
14705SOL    HW255770   8.547   9.590   3.398 -0.3433  1.1963 -0.1221
14706SOL     OW55771   4.971   1.350   1.054 -0.0622 -0.0220  0.1072
14706SOL    HW155772   4.941   1.432   1.103 -2.6051 -0.8318  0.0050
14706SOL    HW255773   5.019   1.289   1.117 -0.2324  0.5107  0.7536
14707SOL     OW55774   1.319   2.303   2.082 -0.5249 -0.3730 -0.8231
14707SOL    HW155775   1.397   2.340   2.031 -0.0234 -0.2976 -0.0124
14707SOL    HW255776   1.288   2.371   2.149 -0.4268 -0.9164 -0.2216
14708SOL     OW55777   3.703   3.040   3.358  0.2326  0.3307  0.5563
14708SOL    HW155778   3.607   3.043   3.331 -0.0750  1.0593  1.6787
14708SOL    HW255779   3.755   3.105   3.304  0.2719 -0.7717 -0.7349
14709SOL     OW55780   5.449   9.288   6.311  0.6055  0.0788  0.2867
14709SOL    HW155781   5.445   9.258   6.406  0.7088  0.5059  0.4244
14709SOL    HW255782   5.544   9.287   6.279  0.5499 -0.2570  0.1249
14710SOL     OW55783   0.942   7.150   1.534 -0.0208 -0.2753  0.0769
14710SOL    HW155784   0.964   7.066   1.484 -1.7408  0.2328 -1.5987
14710SOL    HW255785   1.004   7.223   1.505 -0.6921 -0.1098 -0.9644
14711SOL     OW55786   9.548   9.621   3.974  0.4500  0.4058  0.3655
14711SOL    HW155787   9.467   9.609   3.917  0.1050 -0.2386  0.9804
14711SOL    HW255788   9.552   9.548   4.042  0.6113  1.4312  1.4655
14712SOL     OW55789   2.264   2.401   4.688 -0.0115  0.9595 -0.0922
14712SOL    HW155790   2.350   2.353   4.703 -0.8833 -1.3216 -2.0991
14712SOL    HW255791   2.250   2.415   4.590 -1.8898  1.3544  0.2106
14713SOL     OW55792   3.378   8.644   2.657 -0.0837 -0.2220 -0.3355
14713SOL    HW155793   3.414   8.570   2.599  1.6016 -0.1932  0.6273
14713SOL    HW255794   3.445   8.666   2.727 -0.5430  2.2739 -0.6318
14714SOL     OW55795   0.928   8.842   1.595 -0.3099 -0.1432 -0.3361
14714SOL    HW155796   1.027   8.850   1.611 -0.4013  1.2970 -0.4144
14714SOL    HW255797   0.905   8.887   1.509 -0.5354 -3.6138 -2.1765
14715SOL     OW55798   9.266   5.183   2.019 -0.0398  0.7247 -0.3554
14715SOL    HW155799   9.211   5.170   2.102 -0.5981  0.7300 -0.7230
14715SOL    HW255800   9.207   5.176   1.938  0.2400  2.1253 -0.7000
14716SOL     OW55801   5.585   0.698   1.291  0.1964  0.1698  0.2726
14716SOL    HW155802   5.583   0.771   1.222 -0.4426  1.0636  1.2212
14716SOL    HW255803   5.651   0.628   1.263  2.2975  2.0695  0.3075
14717SOL     OW55804   9.573   6.944   0.343  0.2996  0.1956 -0.2968
14717SOL    HW155805   9.528   6.971   0.258 -1.1117 -0.2417  0.3063
14717SOL    HW255806   9.670   6.969   0.338  0.1543  0.5079 -1.8808
14718SOL     OW55807   1.082   4.180   0.638 -0.1745 -0.2844  0.3230
14718SOL    HW155808   1.129   4.205   0.553 -1.1155  1.9470  0.4204
14718SOL    HW255809   1.023   4.101   0.622  1.9252 -1.7368 -0.3406
14719SOL     OW55810   9.394   2.381   5.629  0.1373 -0.7364  0.1808
14719SOL    HW155811   9.365   2.388   5.534 -1.6203  1.9711  0.8497
14719SOL    HW255812   9.327   2.325   5.680  0.7569 -1.6843 -0.0310
14720SOL     OW55813   7.656   6.350   5.800 -0.2433 -0.1258 -0.3735
14720SOL    HW155814   7.658   6.439   5.845 -1.0059  0.0901 -0.7569
14720SOL    HW255815   7.650   6.278   5.869 -1.6114  0.2151 -0.1189
14721SOL     OW55816   1.458   6.195   7.756  0.2560 -0.6030 -0.5715
14721SOL    HW155817   1.410   6.107   7.765  0.7403 -0.7132  1.1240
14721SOL    HW255818   1.396   6.263   7.716 -0.4748 -1.4348 -0.8594
14722SOL     OW55819   2.119   9.249   4.713  0.0045 -0.7951 -0.0343
14722SOL    HW155820   2.019   9.252   4.711 -0.0149 -0.2864  1.1825
14722SOL    HW255821   2.150   9.198   4.794  0.7330 -0.9464 -0.3961
14723SOL     OW55822   0.036   6.783   6.155 -0.0342  0.1043 -0.3142
14723SOL    HW155823  -0.029   6.822   6.221 -0.7702 -0.1617 -0.8748
14723SOL    HW255824   0.028   6.832   6.068  0.8649  0.3890 -0.2402
14724SOL     OW55825   8.236   9.608   1.590  0.5475  0.0096  0.0946
14724SOL    HW155826   8.212   9.615   1.687 -3.0533 -3.2542 -0.4455
14724SOL    HW255827   8.329   9.574   1.581  1.4744  1.8048  2.3633
14725SOL     OW55828   9.595   5.950   1.660 -0.3700 -0.4248  0.2280
14725SOL    HW155829   9.634   5.997   1.739 -0.2918 -1.1985  0.6559
14725SOL    HW255830   9.497   5.936   1.675 -0.8085  1.3727 -0.7743
14726SOL     OW55831   9.405   1.437   6.503 -0.9015 -0.6004 -0.1103
14726SOL    HW155832   9.451   1.427   6.591  0.9610  0.8960 -0.8750
14726SOL    HW255833   9.395   1.347   6.461  0.5178 -1.0533  0.4900
14727SOL     OW55834   0.096   6.339   3.398 -0.2327  0.1171  0.2045
14727SOL    HW155835   0.063   6.274   3.330  0.7839 -1.5858  1.2923
14727SOL    HW255836   0.040   6.332   3.480  0.3793  0.0130  0.6204
14728SOL     OW55837   0.819   5.674   6.805 -0.6343  0.0909 -0.2739
14728SOL    HW155838   0.788   5.580   6.820 -0.4811  0.1466  0.3881
14728SOL    HW255839   0.764   5.715   6.732  0.2332 -0.9678 -1.5537
14729SOL     OW55840   1.803   5.228   1.993  0.0313  0.5113  0.3997
14729SOL    HW155841   1.855   5.260   2.073 -0.3496  2.1769 -0.0090
14729SOL    HW255842   1.862   5.169   1.938  1.2789  1.7957  0.3234
14730SOL     OW55843   7.606   5.939   1.159 -0.6443 -0.1170 -0.0360
14730SOL    HW155844   7.553   5.855   1.147 -1.0176 -0.1883  1.9627
14730SOL    HW255845   7.676   5.924   1.230  1.0741  0.4409 -1.5756
14731SOL     OW55846   9.302   8.669   3.448  0.6731  0.5974  0.4921
14731SOL    HW155847   9.324   8.609   3.371 -0.7011 -0.4365  0.8917
14731SOL    HW255848   9.382   8.676   3.508  0.8986 -0.7025  0.3557
14732SOL     OW55849   4.843   9.795   2.907 -0.0056 -0.1193  0.2545
14732SOL    HW155850   4.939   9.767   2.899 -0.0375  0.0874 -1.0750
14732SOL    HW255851   4.810   9.775   2.999  0.8389 -1.7192  0.2362
14733SOL     OW55852   1.732   8.234   7.560  0.0527 -0.0330 -0.1127
14733SOL    HW155853   1.717   8.141   7.591 -0.0513  0.0634  0.1220
14733SOL    HW255854   1.794   8.281   7.623 -2.3503  1.0275  1.5191
14734SOL     OW55855   8.199   9.991   7.743 -0.5282 -0.0145  0.1725
14734SOL    HW155856   8.131  10.035   7.685 -1.1507 -0.0857  0.8428
14734SOL    HW255857   8.178  10.008   7.839  1.0584  0.9441  0.3787
14735SOL     OW55858   9.802   3.375   0.668 -0.1568  0.6412 -0.9769
14735SOL    HW155859   9.866   3.404   0.739 -0.2903  0.9697 -0.9906
14735SOL    HW255860   9.851   3.321   0.600 -0.2918 -0.8359  0.0729
14736SOL     OW55861   9.297   1.394   5.134  0.2138 -0.3652  0.3945
14736SOL    HW155862   9.240   1.388   5.216 -1.2521 -0.2158 -0.5942
14736SOL    HW255863   9.244   1.365   5.055  1.7480 -0.9042 -0.4480
14737SOL     OW55864   1.435   6.296   5.266 -0.4098  0.2095 -0.7279
14737SOL    HW155865   1.436   6.388   5.303  0.0796  0.4485 -1.3269
14737SOL    HW255866   1.524   6.253   5.280 -1.4277 -1.1638  1.9557
14738SOL     OW55867   9.704   4.656   6.732  0.6212  0.5956  0.4487
14738SOL    HW155868   9.613   4.653   6.691 -0.3008  0.7330  2.3899
14738SOL    HW255869   9.743   4.564   6.734  0.0651  0.3625  0.5942
14739SOL     OW55870   9.517   5.436   5.409  0.5745  0.3314  0.2233
14739SOL    HW155871   9.448   5.370   5.382  0.7649  1.0912 -2.2423
14739SOL    HW255872   9.578   5.396   5.478 -1.1473 -0.9843  0.9883
14740SOL     OW55873   5.500   3.906   7.881 -1.0523  0.3899  0.2386
14740SOL    HW155874   5.538   3.814   7.873 -0.6161  0.7527 -2.0303
14740SOL    HW255875   5.565   3.965   7.929 -0.1256  0.2166 -0.8056
14741SOL     OW55876   7.100   5.962   7.947  0.1441 -0.3900  0.3433
14741SOL    HW155877   7.131   5.893   7.881 -1.5333 -2.7055  1.8539
14741SOL    HW255878   7.178   5.998   7.998  1.2876  0.3941 -1.8979
14742SOL     OW55879   0.606   3.466   1.510  0.2155  0.1766 -0.1166
14742SOL    HW155880   0.665   3.441   1.433  0.9198 -0.0997  0.5106
14742SOL    HW255881   0.636   3.553   1.548 -0.0974  0.2817 -0.1060
14743SOL     OW55882   0.233   8.881   0.456 -0.1130 -0.0077 -0.0046
14743SOL    HW155883   0.198   8.818   0.386  0.5014  1.2374 -1.4730
14743SOL    HW255884   0.300   8.942   0.414 -0.1324  1.1038  1.5665
14744SOL     OW55885   0.398   0.815   6.539 -0.5442  0.5559 -0.2795
14744SOL    HW155886   0.331   0.762   6.486 -0.6478  0.2211  0.1853
14744SOL    HW255887   0.361   0.834   6.630  0.5397 -0.8483  0.4911
14745SOL     OW55888   1.810   2.521   3.474  0.7258 -0.1222  0.0832
14745SOL    HW155889   1.815   2.435   3.525 -1.7564  0.1450  0.8540
14745SOL    HW255890   1.861   2.512   3.388  0.7904 -2.2425  0.3206
14746SOL     OW55891   0.253   7.102   0.753  0.1657 -0.3190 -0.0735
14746SOL    HW155892   0.348   7.134   0.755 -0.6781  2.2547  2.2909
14746SOL    HW255893   0.199   7.163   0.695  0.0097 -2.1025 -1.8643
14747SOL     OW55894   7.111   8.089   3.587 -0.4604 -0.1661  0.1269
14747SOL    HW155895   7.119   8.038   3.673  1.2424  0.3925  0.3183
14747SOL    HW255896   7.170   8.048   3.518 -0.6460  0.3149 -0.3203
14748SOL     OW55897   9.263   2.394   3.395 -0.6592  0.3066  0.4650
14748SOL    HW155898   9.344   2.344   3.424 -0.0915  1.6113  1.2035
14748SOL    HW255899   9.288   2.488   3.372 -1.8583  0.5446  0.0811
14749SOL     OW55900   2.266   9.004   6.482  0.3498 -1.0726  0.1403
14749SOL    HW155901   2.225   8.948   6.410 -0.5147 -0.8456  0.4556
14749SOL    HW255902   2.256   8.959   6.570  0.4350 -0.8380  0.2711
14750SOL     OW55903   6.724   8.358   6.037 -0.2179 -0.1140  0.2732
14750SOL    HW155904   6.735   8.317   6.128 -4.9889 -0.0779  1.0260
14750SOL    HW255905   6.742   8.456   6.042  1.4063 -0.4163  0.7141
14751SOL     OW55906   0.988   1.988   1.677 -0.2522 -0.3111 -0.4344
14751SOL    HW155907   1.035   2.058   1.623  0.2701 -0.9958 -0.8810
14751SOL    HW255908   0.895   2.019   1.698  0.1613  0.7597 -0.1310
14752SOL     OW55909   6.927   2.818   4.524 -0.1703  0.4296  0.1588
14752SOL    HW155910   6.921   2.842   4.621 -1.6114  0.5194  0.0598
14752SOL    HW255911   6.845   2.767   4.497 -0.1026  1.0052 -1.1786
14753SOL     OW55912   9.829   1.464   7.357 -0.1235 -0.3344  0.2365
14753SOL    HW155913   9.777   1.501   7.280 -0.7766 -0.0751  0.8055
14753SOL    HW255914   9.925   1.455   7.330 -0.6193 -1.7826 -1.1642
14754SOL     OW55915   0.032   6.400   5.974 -0.2087  0.1596  1.0465
14754SOL    HW155916   0.103   6.454   6.018  0.6988  0.6993 -1.0009
14754SOL    HW255917   0.074   6.323   5.925 -1.0447  0.3849 -0.0410
14755SOL     OW55918   9.162   0.771   5.282 -0.1860 -0.6139 -0.0685
14755SOL    HW155919   9.187   0.867   5.277 -1.6274 -0.2306 -0.1276
14755SOL    HW255920   9.244   0.715   5.297  0.7006  0.5809 -0.4646
14756SOL     OW55921   5.460   2.981   1.571  0.1147  0.1611  0.4355
14756SOL    HW155922   5.515   2.899   1.588 -0.5376 -0.1281  1.1981
14756SOL    HW255923   5.505   3.037   1.502 -0.3064 -1.6903 -1.3865
14757SOL     OW55924   9.355   8.041   0.396  0.0813 -0.0282 -0.4423
14757SOL    HW155925   9.395   7.983   0.326 -1.4508 -0.2266 -1.1789
14757SOL    HW255926   9.388   8.014   0.486  1.7102 -0.0625 -1.0491
14758SOL     OW55927   8.271   0.451   8.048 -0.3491 -0.2880 -0.0793
14758SOL    HW155928   8.202   0.508   8.091  2.0033  2.3421  0.3709
14758SOL    HW255929   8.296   0.377   8.110 -1.2819 -0.0574  0.5853
14759SOL     OW55930   8.749   0.041   7.129 -0.0858 -0.3617  0.1306
14759SOL    HW155931   8.794  -0.001   7.050 -0.1443  0.3758 -0.3070
14759SOL    HW255932   8.710  -0.030   7.187 -0.3398 -0.9047 -0.6875
14760SOL     OW55933   8.285   0.760   4.993  0.0646  0.0105  0.6271
14760SOL    HW155934   8.350   0.690   4.966 -0.6347 -0.4368  0.0805
14760SOL    HW255935   8.221   0.777   4.918 -0.0350  0.9235  0.9148
14761SOL     OW55936   4.925   2.832   0.571  0.1580 -0.3613 -0.2253
14761SOL    HW155937   4.968   2.921   0.589  0.1107 -0.4108  0.1378
14761SOL    HW255938   4.826   2.841   0.577  0.1535 -0.4427 -0.1826
14762SOL     OW55939   9.637   0.856   3.341 -0.4715  1.2007 -0.3972
14762SOL    HW155940   9.682   0.941   3.370 -1.9466  1.4371  1.2966
14762SOL    HW255941   9.542   0.857   3.372 -0.9051 -0.4512 -1.6294
14763SOL     OW55942   9.328   3.135   3.599  0.0055 -0.1773 -0.2598
14763SOL    HW155943   9.306   3.229   3.574 -2.2721 -0.0871  1.8469
14763SOL    HW255944   9.373   3.133   3.688 -0.8475 -1.1148  0.1729
14764SOL     OW55945   9.026   7.220   5.391 -0.2231 -0.5516  0.5068
14764SOL    HW155946   8.927   7.237   5.394  0.0397  1.4221 -1.1135
14764SOL    HW255947   9.066   7.244   5.479 -0.9802  0.1275  0.6753
14765SOL     OW55948   2.381   3.859   5.362 -0.4513  0.5074 -0.1083
14765SOL    HW155949   2.382   3.824   5.268 -3.3188 -0.6591  0.2296
14765SOL    HW255950   2.319   3.803   5.417 -0.3043  2.3740  1.9930
14766SOL     OW55951   9.815   0.173   3.332  0.0058 -0.0412  0.1848
14766SOL    HW155952   9.758   0.138   3.406  0.1917 -1.4918 -0.3405
14766SOL    HW255953   9.791   0.268   3.313 -1.4145 -0.2797  0.7577
14767SOL     OW55954   4.362   3.753   6.143 -0.7130 -0.0649 -0.1595
14767SOL    HW155955   4.267   3.758   6.175 -0.4354 -0.4301  0.7488
14767SOL    HW255956   4.383   3.659   6.117 -0.0261 -0.3831  1.4890
14768SOL     OW55957   8.918   6.876   7.020  0.0306  0.0157  0.4215
14768SOL    HW155958   8.938   6.784   6.986  2.0042  0.6534 -0.1933
14768SOL    HW255959   8.820   6.886   7.034 -0.5585 -1.0692 -2.7295
14769SOL     OW55960   5.108   8.725   4.619  0.4810 -0.1009  0.1266
14769SOL    HW155961   5.203   8.715   4.648  0.7256 -0.5113 -0.8018
14769SOL    HW255962   5.082   8.821   4.625  0.5708 -0.1478  1.5326
14770SOL     OW55963   0.169   8.447   7.583 -0.6126 -0.1900 -0.3805
14770SOL    HW155964   0.076   8.478   7.563 -0.1940  0.9530 -0.5425
14770SOL    HW255965   0.232   8.524   7.580 -0.2555 -0.2289  3.7338
14771SOL     OW55966   2.706   2.846   3.862  0.0173 -0.0490  0.2826
14771SOL    HW155967   2.788   2.855   3.804 -0.4713  1.9312 -0.1230
14771SOL    HW255968   2.706   2.918   3.931 -1.2778 -0.2088  0.4527
14772SOL     OW55969   7.668   5.129   2.075 -0.0469  0.0049  0.1483
14772SOL    HW155970   7.582   5.162   2.034 -1.0234 -3.4535 -0.7415
14772SOL    HW255971   7.669   5.152   2.172 -0.8409  2.2509 -0.3394
14773SOL     OW55972   9.895   6.946   1.259  0.1292  0.0407  0.3668
14773SOL    HW155973   9.948   6.870   1.221  0.6064  1.6741 -2.3732
14773SOL    HW255974   9.829   6.978   1.192  0.1391  2.2565  1.3669
14774SOL     OW55975   0.956   4.825   7.687  0.0185  0.5294  0.1651
14774SOL    HW155976   1.028   4.757   7.674 -2.6804 -2.1627 -1.2089
14774SOL    HW255977   0.968   4.899   7.622  1.9738  0.5247  0.4929
14775SOL     OW55978   1.273   2.292   4.690  0.6702 -0.4181 -0.2286
14775SOL    HW155979   1.345   2.353   4.723 -0.1101  0.5146 -0.2179
14775SOL    HW255980   1.266   2.299   4.591  1.0932 -1.0581 -0.2995
14776SOL     OW55981   3.247   9.967   7.562 -0.3470 -0.2613 -0.3137
14776SOL    HW155982   3.287   9.968   7.654 -0.3731 -0.1309 -0.3034
14776SOL    HW255983   3.302  10.026   7.502 -0.9729  0.5460 -0.1098
14777SOL     OW55984   2.226   9.697   7.845  0.7306  0.1018  0.0275
14777SOL    HW155985   2.189   9.698   7.937 -0.8340 -1.9777 -0.5319
14777SOL    HW255986   2.168   9.750   7.784  1.1052  0.4901  0.0065
14778SOL     OW55987   5.057   7.584   2.513  0.3414  0.3648 -0.1622
14778SOL    HW155988   5.059   7.628   2.423 -1.0657 -1.7776 -1.2671
14778SOL    HW255989   5.120   7.507   2.515 -1.5660 -1.2228 -0.1977
14779SOL     OW55990   5.998   0.675   4.116 -0.5061  0.2668  0.8207
14779SOL    HW155991   6.069   0.618   4.076 -0.8731  1.0018 -0.8961
14779SOL    HW255992   6.039   0.760   4.150 -0.0128 -0.8177  3.0954
14780SOL     OW55993   3.864   6.684   1.734 -0.2404  0.2386 -0.1158
14780SOL    HW155994   3.871   6.756   1.666 -1.5267  1.3931  0.9461
14780SOL    HW255995   3.883   6.721   1.825  0.2626 -1.0155  0.3117
14781SOL     OW55996   0.442   4.743   4.416 -0.0812  0.2823 -0.2002
14781SOL    HW155997   0.491   4.756   4.502  0.1251 -1.3093 -0.0622
14781SOL    HW255998   0.349   4.777   4.425  0.2551  1.0680  0.3279
14782SOL     OW55999   5.305   9.633   6.320 -0.4973 -0.5856  0.5581
14782SOL    HW156000   5.395   9.604   6.349  0.6257  1.6645 -0.5209
14782SOL    HW256001   5.279   9.585   6.236  0.7151  0.4542 -0.4234
14783SOL     OW56002   4.494   8.913   1.110 -0.1091  0.8436 -0.0035
14783SOL    HW156003   4.419   8.856   1.075  0.4364  0.0413  0.1381
14783SOL    HW256004   4.569   8.855   1.140  0.9344  1.6920 -0.9695
14784SOL     OW56005   2.550   0.047   6.591 -0.4735  0.4731  0.1633
14784SOL    HW156006   2.647   0.068   6.599 -0.5174  1.5038 -1.6126
14784SOL    HW256007   2.497   0.115   6.643 -0.3263  1.1245 -0.5260
14785SOL     OW56008   3.165   1.195   5.547  0.0322 -0.1241 -0.5991
14785SOL    HW156009   3.205   1.257   5.480 -0.2522 -0.5060 -1.1337
14785SOL    HW256010   3.193   1.101   5.525  0.4542 -0.1896  0.1947
14786SOL     OW56011   2.136   4.360   0.698  0.3266 -0.3926  0.1316
14786SOL    HW156012   2.132   4.261   0.683  1.6525 -0.5118  0.4653
14786SOL    HW256013   2.155   4.406   0.612  0.1093 -0.4550  0.0490
14787SOL     OW56014   0.074   7.850   2.833  0.0860  0.4450  0.3606
14787SOL    HW156015   0.152   7.794   2.807 -0.5228  0.5361 -1.7023
14787SOL    HW256016   0.101   7.914   2.905  1.2468 -1.2321  1.4604
14788SOL     OW56017   1.188   4.386   2.089  0.0520 -0.0418 -0.1335
14788SOL    HW156018   1.158   4.452   2.021 -3.0456 -0.2224  0.9827
14788SOL    HW256019   1.118   4.316   2.101  0.8877 -0.4745  2.6360
14789SOL     OW56020   5.840   1.274   3.943 -0.0010 -0.4810  0.0974
14789SOL    HW156021   5.903   1.209   3.985  0.3214 -0.1603  0.1149
14789SOL    HW256022   5.752   1.229   3.926  0.2834 -0.9783 -0.0763
14790SOL     OW56023   4.828   4.135   8.028 -0.1491 -0.0915 -0.5452
14790SOL    HW156024   4.867   4.219   8.065 -0.9615  0.9625 -2.0461
14790SOL    HW256025   4.749   4.108   8.084  2.5160 -2.1448  2.3947
14791SOL     OW56026   6.000   4.421   7.655 -0.3223  0.1879 -0.4918
14791SOL    HW156027   5.971   4.471   7.736  0.1842  2.1159 -1.4926
14791SOL    HW256028   5.919   4.390   7.604 -0.6321 -0.5037  0.4036
14792SOL     OW56029   9.717   6.096   4.092  0.0737  0.0881 -0.2085
14792SOL    HW156030   9.620   6.098   4.068  0.1551 -0.0624 -0.5546
14792SOL    HW256031   9.744   6.003   4.115 -0.3153  0.4410  1.7683
14793SOL     OW56032   6.647   3.167   0.366 -0.0222  0.0179 -0.3867
14793SOL    HW156033   6.706   3.242   0.396 -1.7914  0.3898  2.3336
14793SOL    HW256034   6.552   3.191   0.383 -0.7742 -1.7893 -1.9204
14794SOL     OW56035   8.436   6.586   4.573 -0.1593  1.1667 -0.1471
14794SOL    HW156036   8.492   6.591   4.656  1.5469 -1.0600 -1.1075
14794SOL    HW256037   8.345   6.551   4.596  0.0458  1.3156  0.9025
14795SOL     OW56038   1.964   5.145   7.538 -0.2786  0.8545 -0.4386
14795SOL    HW156039   2.011   5.078   7.480  0.8159  0.7607  0.5563
14795SOL    HW256040   1.865   5.137   7.523 -0.1062 -0.2700 -1.0914
14796SOL     OW56041   2.447   3.952   3.739 -0.0967 -0.4305  0.4382
14796SOL    HW156042   2.408   3.885   3.802 -0.6446 -0.6586 -0.1294
14796SOL    HW256043   2.488   4.027   3.790  0.2512 -1.0492  1.0776
14797SOL     OW56044   8.280   3.494   2.599 -0.5003 -0.5230 -0.0013
14797SOL    HW156045   8.209   3.561   2.576  0.3387  1.1405  2.0702
14797SOL    HW256046   8.238   3.413   2.640 -1.3009  0.0056  0.2417
14798SOL     OW56047   9.081   7.559   2.573  0.0593  0.8223  0.3094
14798SOL    HW156048   9.144   7.503   2.520 -1.0699  0.1697 -0.3793
14798SOL    HW256049   9.053   7.639   2.519 -2.3044 -0.6553 -0.7475
14799SOL     OW56050   3.426   7.121   8.112  0.4509 -0.0025  0.1129
14799SOL    HW156051   3.473   7.089   8.194 -3.4622 -1.8703  1.7701
14799SOL    HW256052   3.413   7.220   8.117  1.3915  0.0803  1.1157
14800SOL     OW56053   5.078   6.524   0.172 -0.2020 -0.7341 -0.0818
14800SOL    HW156054   5.027   6.475   0.242 -0.1401  1.0457  1.2476
14800SOL    HW256055   5.173   6.534   0.201 -0.6873  2.0026  0.6712
14801SOL     OW56056   5.669   0.031   3.479 -0.8484  0.2301  0.2930
14801SOL    HW156057   5.583   0.028   3.428 -0.0818 -2.5862 -0.9376
14801SOL    HW256058   5.734   0.090   3.432 -0.8367 -0.7229 -0.9153
14802SOL     OW56059   0.795   8.135   7.472  0.3349 -0.5497 -0.5841
14802SOL    HW156060   0.700   8.104   7.458  0.1694 -1.2479  1.7508
14802SOL    HW256061   0.802   8.232   7.450 -1.3313 -0.0946  0.7488
14803SOL     OW56062   2.568   5.828   4.589 -0.0048  0.3471 -0.5856
14803SOL    HW156063   2.577   5.925   4.613 -2.0374  1.4320 -3.9404
14803SOL    HW256064   2.658   5.784   4.592  0.7276  1.8822  2.5491
14804SOL     OW56065   0.271   9.526   5.998 -0.0002  0.0558 -0.9890
14804SOL    HW156066   0.294   9.622   5.978  1.0747  0.1033  0.3800
14804SOL    HW256067   0.172   9.515   6.000 -0.1640  1.5942  0.8127
14805SOL     OW56068   7.920   2.264   2.002 -0.1977 -0.0505  0.4094
14805SOL    HW156069   8.010   2.222   2.011 -0.4572 -0.5690  0.6464
14805SOL    HW256070   7.858   2.198   1.958 -0.3002  0.5313 -0.3360
14806SOL     OW56071   1.876   2.005   0.456  0.3238  0.3361  0.5437
14806SOL    HW156072   1.924   2.056   0.528  0.1858  0.8576  0.2645
14806SOL    HW256073   1.806   2.064   0.415  1.0055  0.3224 -0.6359
14807SOL     OW56074   4.997   8.536   6.198 -0.7764 -0.1429 -0.0572
14807SOL    HW156075   5.011   8.440   6.219  0.2861  0.4292  2.0077
14807SOL    HW256076   5.083   8.577   6.168 -0.8837  0.4884  0.4745
14808SOL     OW56077   6.834   4.698   1.667  0.0948 -0.4068  0.8620
14808SOL    HW156078   6.750   4.662   1.707  0.2608 -0.2803  1.3199
14808SOL    HW256079   6.896   4.622   1.647 -0.6499 -0.6300 -0.6890
14809SOL     OW56080   9.074   9.722   5.528 -0.2624 -0.0095  0.3742
14809SOL    HW156081   8.982   9.715   5.490 -0.7308  1.5729  1.1761
14809SOL    HW256082   9.117   9.632   5.527 -0.3680 -0.1318 -3.5788
14810SOL     OW56083   0.641   2.485   4.599  0.4827 -0.0376 -0.1935
14810SOL    HW156084   0.723   2.530   4.634  0.2110  0.8423 -0.6872
14810SOL    HW256085   0.561   2.519   4.646  0.3070 -0.2355 -0.3480
14811SOL     OW56086   4.512   8.369   4.897 -0.0129 -0.1323  0.0807
14811SOL    HW156087   4.602   8.394   4.932 -0.8258 -0.1505  2.2711
14811SOL    HW256088   4.450   8.447   4.904 -0.1110 -0.0256 -1.7008
14812SOL     OW56089   7.020   7.843   6.540 -0.1041  0.0404  0.3406
14812SOL    HW156090   6.994   7.886   6.454  0.3987  0.5569  0.4372
14812SOL    HW256091   7.060   7.753   6.522 -1.6184 -0.5976  0.1752
14813SOL     OW56092   6.004   8.073   3.376 -0.0567 -0.1710  0.4415
14813SOL    HW156093   5.909   8.084   3.345  0.4282 -0.3321 -1.1366
14813SOL    HW256094   6.062   8.053   3.298  0.9087 -2.5598  1.7273
14814SOL     OW56095   7.515   0.549   4.497  0.4071  0.8082 -0.0085
14814SOL    HW156096   7.578   0.627   4.496  1.1936  0.2622  2.3102
14814SOL    HW256097   7.526   0.499   4.583 -1.4524 -0.7542 -0.6412
14815SOL     OW56098   3.510   0.609   7.192  0.2328  0.0287 -0.4271
14815SOL    HW156099   3.421   0.598   7.149  0.4480 -0.0654 -0.8594
14815SOL    HW256100   3.559   0.685   7.149  0.4203 -0.0225 -0.3057
14816SOL     OW56101   7.515   9.301   3.584  0.5581 -0.3205  0.0556
14816SOL    HW156102   7.510   9.209   3.544 -0.5852 -0.2097 -0.0643
14816SOL    HW256103   7.588   9.303   3.653  2.4369 -0.5803 -1.8606
14817SOL     OW56104   1.055   1.191   1.538 -0.4317  0.3719 -0.2772
14817SOL    HW156105   1.106   1.273   1.511  0.1331  0.6988  1.6871
14817SOL    HW256106   0.965   1.217   1.573 -1.3806 -0.0897 -2.3380
14818SOL     OW56107   0.890   9.116   4.992 -0.0219  0.8292  0.1140
14818SOL    HW156108   0.839   9.059   5.056  0.9777  0.9927  1.0590
14818SOL    HW256109   0.848   9.207   4.988 -0.3990  0.6580  0.1344
14819SOL     OW56110   5.134   0.758   7.640  0.6668 -0.1639 -0.0018
14819SOL    HW156111   5.181   0.670   7.635 -1.4239 -1.2800 -0.3736
14819SOL    HW256112   5.189   0.827   7.593  1.9245 -1.4251 -0.4510
14820SOL     OW56113   0.136   8.742   5.769  0.5519  0.1253 -0.2712
14820SOL    HW156114   0.146   8.805   5.845  0.5967  1.9123 -1.7182
14820SOL    HW256115   0.226   8.709   5.740  0.6523  0.4982 -0.3926
14821SOL     OW56116   8.606   3.279   4.875 -0.0637  0.3282 -0.3429
14821SOL    HW156117   8.698   3.256   4.908  0.0926  0.4565 -0.6898
14821SOL    HW256118   8.542   3.207   4.901  0.1555  0.1878 -0.1947
14822SOL     OW56119   1.530   8.823   0.958 -0.2044 -0.3973  0.4487
14822SOL    HW156120   1.574   8.745   0.914  0.7078 -0.1646  0.9274
14822SOL    HW256121   1.600   8.881   1.000 -0.7449  1.3707 -1.0114
14823SOL     OW56122   3.430   5.069   7.654 -0.1953 -0.0812 -0.3820
14823SOL    HW156123   3.336   5.102   7.655  0.5053  1.9858 -0.7164
14823SOL    HW256124   3.482   5.112   7.728  0.3789 -1.5458  0.0784
14824SOL     OW56125   1.856   9.112   7.649  0.2781 -0.3762  0.4195
14824SOL    HW156126   1.950   9.124   7.680 -0.3145  0.4046  1.9589
14824SOL    HW256127   1.826   9.193   7.599  0.1076 -0.2173  0.7751
14825SOL     OW56128   0.813   6.270   4.711 -0.0702  0.4153  0.0609
14825SOL    HW156129   0.724   6.247   4.671  0.4828 -0.5076 -0.6386
14825SOL    HW256130   0.810   6.364   4.747 -1.9277 -0.2451  1.7461
14826SOL     OW56131   0.017   3.632   1.241 -0.1696 -0.2404  0.0330
14826SOL    HW156132   0.041   3.536   1.252 -0.5105 -0.0494  2.7161
14826SOL    HW256133   0.010   3.676   1.331  0.4744  2.4228 -1.1412
14827SOL     OW56134   0.963   3.356   1.400  0.3234  0.2496 -0.2362
14827SOL    HW156135   0.871   3.365   1.362  0.0779  0.0439  0.3050
14827SOL    HW256136   0.957   3.314   1.491  0.6657  3.1063  1.1777
14828SOL     OW56137   4.545   9.320   8.012 -0.0516  0.1537 -0.1776
14828SOL    HW156138   4.634   9.365   8.011  0.1736 -0.2953 -0.5070
14828SOL    HW256139   4.547   9.242   8.074  0.0864 -0.4575 -0.9366
14829SOL     OW56140   9.210   2.373   7.196  0.6881 -0.0018  0.5921
14829SOL    HW156141   9.227   2.280   7.228 -2.0400 -0.9361 -0.4573
14829SOL    HW256142   9.167   2.426   7.269 -0.3589 -0.4492  0.3202
14830SOL     OW56143   1.012   5.200   3.100 -0.4528  0.0156 -0.3468
14830SOL    HW156144   1.108   5.188   3.126 -1.1406 -0.3904  2.0678
14830SOL    HW256145   0.972   5.111   3.079 -1.0910 -0.1586  1.5485
14831SOL     OW56146   8.640   1.784   1.276 -0.3122  0.0122  0.3643
14831SOL    HW156147   8.733   1.758   1.250 -0.4360  1.2669 -1.4638
14831SOL    HW256148   8.640   1.880   1.306 -0.7915 -0.3907  1.6807
14832SOL     OW56149   9.585   4.920   4.530  0.1440 -0.4130  0.4007
14832SOL    HW156150   9.511   4.981   4.556 -0.3842 -1.8957  2.5058
14832SOL    HW256151   9.628   4.953   4.446 -1.3599  1.7582  0.4562
14833SOL     OW56152   1.122   7.717   6.251 -0.2708 -0.6014 -0.0151
14833SOL    HW156153   1.175   7.711   6.167  0.9901 -1.0971  0.8042
14833SOL    HW256154   1.175   7.680   6.327 -1.4167 -0.2158  0.9935
14834SOL     OW56155   6.744   8.725   5.618 -0.5430 -0.1562  0.0276
14834SOL    HW156156   6.679   8.691   5.685 -0.0783  0.6534  0.9044
14834SOL    HW256157   6.822   8.767   5.665 -0.8464  1.6055 -1.0010
14835SOL     OW56158   2.754   4.348   4.442  0.2861 -0.4547 -0.0997
14835SOL    HW156159   2.792   4.437   4.417  1.7121 -1.0948 -0.2334
14835SOL    HW256160   2.670   4.332   4.390  0.2933  0.5954 -0.4421
14836SOL     OW56161   9.749   5.646   7.969 -0.3273  0.3228 -0.2406
14836SOL    HW156162   9.837   5.695   7.964  0.0988 -0.4394 -0.2657
14836SOL    HW256163   9.757   5.570   8.034 -0.5895 -0.5280 -1.2031
14837SOL     OW56164   3.976   4.065   4.675  0.1121  0.1792 -0.3303
14837SOL    HW156165   4.035   3.987   4.654  0.8023  0.5269  0.3014
14837SOL    HW256166   4.018   4.120   4.747  0.2160  1.8177 -1.6208
14838SOL     OW56167   7.706   8.212   5.471  0.0367 -0.2880 -0.2206
14838SOL    HW156168   7.657   8.194   5.386  1.4178  1.4530 -1.4320
14838SOL    HW256169   7.800   8.180   5.463  0.3285  0.3584  0.4511
14839SOL     OW56170   7.879   6.416   4.885 -0.0309 -0.3301  0.2065
14839SOL    HW156171   7.919   6.505   4.863 -0.1149 -0.4058 -0.2732
14839SOL    HW256172   7.934   6.372   4.956 -0.4312  0.4252  0.9936
14840SOL     OW56173   0.377   9.857   7.469 -0.5906  0.5998  0.4925
14840SOL    HW156174   0.458   9.915   7.468  0.6229 -1.0621 -0.3534
14840SOL    HW256175   0.377   9.800   7.551 -0.7368  0.3785  0.3415
14841SOL     OW56176   9.390   5.661   4.284  0.3838 -0.4047  0.7070
14841SOL    HW156177   9.295   5.632   4.275  0.8530 -1.7917  0.1089
14841SOL    HW256178   9.418   5.712   4.202 -0.3249  1.4447  1.5916
14842SOL     OW56179   5.908   4.952   0.914  0.3302  0.1858  0.2649
14842SOL    HW156180   5.968   4.903   0.852 -0.5967 -1.2489  0.4590
14842SOL    HW256181   5.814   4.948   0.880 -0.1973 -0.6838  1.7709
14843SOL     OW56182   8.362   7.737   0.282 -0.3572  0.2449  0.2657
14843SOL    HW156183   8.422   7.811   0.313 -1.4369  0.6413  1.4501
14843SOL    HW256184   8.372   7.725   0.183  0.8381  1.0545  0.2805
14844SOL     OW56185   5.099   9.868   0.903  0.4023  0.3826  0.2594
14844SOL    HW156186   5.074   9.792   0.964 -0.6048  1.6129  1.4086
14844SOL    HW256187   5.022   9.931   0.895  1.0340  0.9904 -1.1450
14845SOL     OW56188   9.743   8.485   5.664  0.3035 -0.0030 -0.2854
14845SOL    HW156189   9.821   8.539   5.634 -0.7940  1.6321 -0.2324
14845SOL    HW256190   9.670   8.490   5.595 -0.1013 -0.8068  0.0713
14846SOL     OW56191   3.165   0.251   1.083 -0.3664 -0.4281 -0.7441
14846SOL    HW156192   3.073   0.271   1.118 -0.2163 -3.3481  1.4274
14846SOL    HW256193   3.162   0.168   1.027  0.7494  0.1735 -1.7203
14847SOL     OW56194   8.141   0.735   3.762  0.3648  0.0093  0.0047
14847SOL    HW156195   8.125   0.753   3.665  0.8053  1.3062  0.1750
14847SOL    HW256196   8.239   0.734   3.781  0.2840 -0.2854  0.4345
14848SOL     OW56197   7.300   6.117   4.458 -0.3013  0.5458  0.0886
14848SOL    HW156198   7.260   6.205   4.433 -0.4844  0.9286  1.7005
14848SOL    HW256199   7.259   6.045   4.401  0.8719  1.6507 -2.2109
14849SOL     OW56200   1.032   6.321   3.395  0.5162  0.2491 -0.1321
14849SOL    HW156201   1.109   6.310   3.459  1.9923  1.6137 -1.6426
14849SOL    HW256202   1.035   6.247   3.328 -0.8989 -1.0494  1.1984
14850SOL     OW56203   8.317   6.706   7.168  0.1906  0.3653 -0.6428
14850SOL    HW156204   8.381   6.683   7.242 -0.2704  0.5212 -0.1921
14850SOL    HW256205   8.223   6.701   7.203 -0.0632 -0.1814 -1.3857
14851SOL     OW56206   7.989   2.081   7.569  0.6357  0.1852 -0.1968
14851SOL    HW156207   7.928   2.014   7.611 -0.4972  0.2035 -1.8106
14851SOL    HW256208   8.004   2.156   7.633 -0.4872 -0.1408  0.4621
14852SOL     OW56209   6.495   5.193   7.353 -0.1659  0.2634 -0.0423
14852SOL    HW156210   6.405   5.234   7.343  0.6932  2.4573  1.0181
14852SOL    HW256211   6.519   5.142   7.270 -2.0488  0.2942 -0.6083
14853SOL     OW56212   6.338   4.010   2.241 -0.2027 -0.6110 -0.3707
14853SOL    HW156213   6.373   4.092   2.196  0.1253 -0.4913  0.0955
14853SOL    HW256214   6.406   3.977   2.307 -1.2646  0.0229  1.0523
14854SOL     OW56215   2.500   4.301   4.330 -0.1382 -0.1698 -0.5165
14854SOL    HW156216   2.470   4.378   4.274 -1.6706 -0.6113 -0.3301
14854SOL    HW256217   2.466   4.216   4.290 -0.3664 -0.5714  0.5151
14855SOL     OW56218   2.624   8.562   2.078 -0.0294  0.1286 -0.3394
14855SOL    HW156219   2.586   8.649   2.111  2.3353  1.4517 -0.9430
14855SOL    HW256220   2.601   8.489   2.142 -1.2917  1.3768  0.6548
14856SOL     OW56221   2.771   7.613   0.079 -0.6389 -0.1845  0.0836
14856SOL    HW156222   2.720   7.662   0.008  0.4180 -0.1197 -0.6616
14856SOL    HW256223   2.782   7.672   0.159 -2.3744 -0.4832  0.5433
14857SOL     OW56224   9.696   8.962   2.957 -0.4364  0.7237  0.2538
14857SOL    HW156225   9.757   8.901   3.008  0.2339 -0.1411 -1.5570
14857SOL    HW256226   9.748   9.042   2.925 -0.1940 -0.0787 -1.4032
14858SOL     OW56227   3.930   0.427   2.724 -0.4272  0.3256 -0.1628
14858SOL    HW156228   3.997   0.475   2.781  1.2396 -0.9436 -1.0228
14858SOL    HW256229   3.839   0.464   2.742  0.6394  2.9090  0.1317
14859SOL     OW56230   8.159   1.009   7.268  0.0236 -0.2019  0.8122
14859SOL    HW156231   8.179   1.098   7.309  0.1307  0.3271 -0.3729
14859SOL    HW256232   8.245   0.961   7.249  0.0227  0.0893  0.0518
14860SOL     OW56233   8.947   9.924   1.571  0.0498 -0.2855  0.9030
14860SOL    HW156234   8.917   9.963   1.484  0.0444 -1.7416  0.2453
14860SOL    HW256235   8.968   9.827   1.559 -0.7919 -0.7102  2.7107
14861SOL     OW56236   5.190   0.405   6.677  0.0956 -0.3761  0.4470
14861SOL    HW156237   5.151   0.313   6.669  0.5805 -0.5439 -0.0379
14861SOL    HW256238   5.147   0.465   6.609  0.6196 -0.5437 -0.0402
14862SOL     OW56239   5.487   2.649   4.445 -0.1499  0.2524 -0.1580
14862SOL    HW156240   5.402   2.701   4.442 -0.2048  0.2111  0.6501
14862SOL    HW256241   5.560   2.702   4.402 -0.9622 -0.4484 -2.4824
14863SOL     OW56242   8.062   8.040   7.584  0.1099 -0.3563 -0.4680
14863SOL    HW156243   8.028   8.042   7.490  1.1628 -0.5651 -0.8565
14863SOL    HW256244   8.077   8.133   7.616 -2.1829 -0.1857  0.2174
14864SOL     OW56245   7.834   3.801   5.118 -0.4277  0.0383  0.1295
14864SOL    HW156246   7.928   3.772   5.135 -0.8524 -0.4425  1.8160
14864SOL    HW256247   7.828   3.901   5.124  0.4259  0.2582 -2.4347
14865SOL     OW56248   0.586   9.334   6.509  0.2174 -0.1421 -0.2736
14865SOL    HW156249   0.493   9.356   6.480  0.1521 -0.9662 -0.6718
14865SOL    HW256250   0.599   9.235   6.510  0.2115 -0.1705  2.4740
14866SOL     OW56251   0.551   1.022   7.626 -0.1060  0.2943  0.5365
14866SOL    HW156252   0.594   1.042   7.714 -0.4346  2.1202  0.2940
14866SOL    HW256253   0.623   1.005   7.558  0.2048  1.2235  0.6219
14867SOL     OW56254   1.761   3.565   5.495  0.0773 -0.0471 -0.5077
14867SOL    HW156255   1.853   3.532   5.512 -0.1460 -1.1118 -1.3465
14867SOL    HW256256   1.751   3.658   5.533  1.0175 -0.5105  0.9151
14868SOL     OW56257   9.182   8.908   6.198 -0.0364  0.3262  0.4500
14868SOL    HW156258   9.219   8.993   6.161 -3.0034  1.2611 -0.5018
14868SOL    HW256259   9.115   8.870   6.134  0.5928 -2.2598  1.2795
14869SOL     OW56260   2.412   9.991   5.205  0.1859  0.5107  0.2867
14869SOL    HW156261   2.425  10.040   5.292 -1.5593  2.0478 -0.3022
14869SOL    HW256262   2.498   9.946   5.180  1.0681  1.0529  2.1875
14870SOL     OW56263   9.360   4.584   3.475  0.3998 -0.2965  0.1349
14870SOL    HW156264   9.394   4.522   3.404 -1.4927 -1.3461  0.1037
14870SOL    HW256265   9.434   4.608   3.537  1.9008 -0.0022 -1.7239
14871SOL     OW56266   2.458   7.533   5.940 -0.2178  0.4916 -0.3777
14871SOL    HW156267   2.476   7.627   5.969  0.8874  1.0682 -2.8313
14871SOL    HW256268   2.368   7.528   5.896 -0.6876  0.1844  0.5971
14872SOL     OW56269   2.337   7.222   2.689  0.0503 -0.4319  0.0207
14872SOL    HW156270   2.431   7.216   2.723 -0.5558  1.2570  2.1558
14872SOL    HW256271   2.279   7.158   2.739 -0.2591 -0.2037 -0.0426
14873SOL     OW56272   5.016   5.028   1.438  0.6940 -0.0915  0.9195
14873SOL    HW156273   5.040   5.085   1.517 -0.7295 -0.0022  1.2987
14873SOL    HW256274   4.964   4.948   1.469 -1.3722  0.8196 -0.0799
14874SOL     OW56275   3.056   9.408   2.649 -0.4480 -0.6285  0.1562
14874SOL    HW156276   3.026   9.466   2.574  1.0815 -0.5694 -0.4212
14874SOL    HW256277   3.049   9.312   2.622 -0.0399 -0.6123 -0.0035
14875SOL     OW56278   5.354   8.054   4.997 -0.5646  0.2061  0.1361
14875SOL    HW156279   5.391   7.978   4.943  0.4821  1.0332 -0.3185
14875SOL    HW256280   5.267   8.083   4.958 -1.1147 -0.9632  0.4905
14876SOL     OW56281   4.155   9.954   2.060 -0.2868  0.1794 -0.0668
14876SOL    HW156282   4.152   9.861   2.025  0.4268 -0.2118  0.8797
14876SOL    HW256283   4.131  10.018   1.987  0.9364 -0.6173 -1.1840
14877SOL     OW56284   8.572   9.055   0.341  0.0112  0.0272 -0.1763
14877SOL    HW156285   8.593   9.137   0.287  0.7804 -0.0660 -0.0222
14877SOL    HW256286   8.631   9.052   0.422 -1.0295  0.0836  0.5854
14878SOL     OW56287   9.422   8.827   0.812 -0.2532 -0.0497  0.5770
14878SOL    HW156288   9.397   8.744   0.762 -1.0684 -0.5216  1.7393
14878SOL    HW256289   9.363   8.902   0.783 -0.8878 -0.3833  0.9941
14879SOL     OW56290   5.510   1.033   7.621 -0.4956 -0.5707 -0.0070
14879SOL    HW156291   5.418   1.029   7.582 -1.0006  2.6381  0.7165
14879SOL    HW256292   5.567   1.093   7.565  0.4933 -0.6612  0.8925
14880SOL     OW56293   6.865   5.027   7.087 -0.1639  0.5974  0.1580
14880SOL    HW156294   6.952   4.992   7.053 -0.2948  0.6571 -0.2417
14880SOL    HW256295   6.880   5.083   7.168  0.0225 -0.6481  1.0048
14881SOL     OW56296   8.988   6.707   0.500 -0.7786  0.3230 -0.4910
14881SOL    HW156297   8.985   6.794   0.451 -1.7039 -0.1452 -1.2768
14881SOL    HW256298   9.056   6.647   0.459  0.3980  0.9442  0.5198
14882SOL     OW56299   3.731   2.335   5.181  0.4384  0.1462 -0.5204
14882SOL    HW156300   3.638   2.298   5.180  0.9258 -1.0754 -1.5896
14882SOL    HW256301   3.729   2.431   5.153 -0.6167  0.4280  0.4671
14883SOL     OW56302   3.808   9.528   6.351  0.6247 -0.5457  0.1277
14883SOL    HW156303   3.853   9.613   6.327 -1.3598  0.9503  1.5308
14883SOL    HW256304   3.775   9.483   6.268 -0.6381  1.4052 -0.4666
14884SOL     OW56305   0.165   8.502   2.140 -0.3032 -0.0741 -0.8444
14884SOL    HW156306   0.202   8.494   2.048  0.3708 -2.2055 -0.4219
14884SOL    HW256307   0.239   8.493   2.207 -0.8152  1.2031 -0.0917
14885SOL     OW56308   0.786   3.956   6.784  0.1726  0.0516  0.2082
14885SOL    HW156309   0.809   3.950   6.882 -0.0573  0.8803  0.3170
14885SOL    HW256310   0.770   3.864   6.748 -0.5083 -0.1972  1.1355
14886SOL     OW56311   7.344   1.556   7.083  0.5147  0.1169 -1.0445
14886SOL    HW156312   7.431   1.515   7.109  0.1604 -0.1661 -0.2845
14886SOL    HW256313   7.355   1.654   7.069  0.8091  0.2065 -0.2237
14887SOL     OW56314   2.891   1.360   5.214  0.0244 -0.1812 -0.1837
14887SOL    HW156315   2.885   1.443   5.158  0.1409  0.4045  0.6675
14887SOL    HW256316   2.807   1.350   5.267  1.4486  1.3771  2.4660
14888SOL     OW56317   8.780   1.782   3.496  0.1747 -0.1489  0.7387
14888SOL    HW156318   8.718   1.851   3.457 -0.4760  1.3280  4.1525
14888SOL    HW256319   8.751   1.691   3.466  0.3762  0.9255 -2.9698
14889SOL     OW56320   4.292   4.083   3.707  0.0510  0.2821 -0.4245
14889SOL    HW156321   4.240   4.032   3.776 -1.0487  1.1100 -0.6427
14889SOL    HW256322   4.348   4.153   3.752  0.6554 -0.3141 -0.2317
14890SOL     OW56323   2.070   0.408   7.226 -0.4311 -0.5707  0.6455
14890SOL    HW156324   2.086   0.406   7.325 -1.6294 -0.2147  0.8606
14890SOL    HW256325   2.068   0.314   7.191  0.7946 -0.6651  0.8237
14891SOL     OW56326   8.637   2.935   0.091  0.0196 -0.1599  0.2584
14891SOL    HW156327   8.708   2.952   0.159  0.6911 -0.5340 -0.3481
14891SOL    HW256328   8.564   3.003   0.101  1.4650  1.5286 -0.4605
14892SOL     OW56329   8.330   5.829   2.899 -0.1587  0.3047 -0.1314
14892SOL    HW156330   8.384   5.909   2.924  0.5852 -0.2144 -0.0712
14892SOL    HW256331   8.242   5.832   2.947  1.2071 -0.6356  2.5832
14893SOL     OW56332   3.366   2.739   0.132  0.8718 -0.5207 -0.2601
14893SOL    HW156333   3.441   2.779   0.080  0.9228 -0.6923 -0.3161
14893SOL    HW256334   3.388   2.645   0.157  0.3659 -0.8039 -0.8984
14894SOL     OW56335   4.270   3.862   7.472 -0.3952 -0.1446 -0.3711
14894SOL    HW156336   4.240   3.767   7.469 -1.5150  0.2262 -1.0964
14894SOL    HW256337   4.201   3.921   7.429 -0.0648  1.0794  0.7188
14895SOL     OW56338   8.758   8.712   7.564  0.1281  0.1373  0.4622
14895SOL    HW156339   8.678   8.733   7.507  0.2631 -0.3609  0.0912
14895SOL    HW256340   8.727   8.670   7.650 -0.0366  0.3346  0.5008
14896SOL     OW56341   7.559   6.755   3.534  0.1303 -0.0373  0.1397
14896SOL    HW156342   7.654   6.741   3.509  0.2834  0.4652  0.4420
14896SOL    HW256343   7.520   6.830   3.481  0.3261  0.7267  1.0580
14897SOL     OW56344   1.982   9.952   3.023 -0.0125  0.0310  0.1929
14897SOL    HW156345   1.888   9.975   3.000 -0.2361 -1.6964 -0.6833
14897SOL    HW256346   1.983   9.879   3.091  0.6952  1.3605  1.6423
14898SOL     OW56347   7.977   5.385   3.277  0.3144  0.5484 -0.6786
14898SOL    HW156348   8.024   5.303   3.243  0.0917  0.5914 -1.0921
14898SOL    HW256349   8.024   5.467   3.243 -1.2256  0.5956 -2.7353
14899SOL     OW56350   6.055   7.288   4.965  0.1250 -0.4415 -0.6403
14899SOL    HW156351   6.081   7.364   4.905 -2.0364 -0.3381 -1.4933
14899SOL    HW256352   5.986   7.319   5.030 -1.4061 -1.8764 -1.5615
14900SOL     OW56353   9.368   6.518   1.832 -0.1202 -0.1037  0.0210
14900SOL    HW156354   9.364   6.613   1.799 -0.3123 -0.1639 -0.1232
14900SOL    HW256355   9.406   6.459   1.761 -0.2374 -0.1787  0.0209
14901SOL     OW56356   5.660   0.900   8.066  0.5501  0.3190 -0.0669
14901SOL    HW156357   5.573   0.949   8.057  0.1590 -0.3550  0.0220
14901SOL    HW256358   5.651   0.809   8.026  0.8969 -0.1394  0.8957
14902SOL     OW56359   4.824   0.217   2.182 -0.3944  0.2646 -0.6220
14902SOL    HW156360   4.798   0.256   2.270 -0.0740  0.8287 -0.7694
14902SOL    HW256361   4.895   0.274   2.140  1.2052 -1.3224 -0.1432
14903SOL     OW56362   7.809   4.617   3.768 -0.4945  0.3464  0.2889
14903SOL    HW156363   7.731   4.654   3.819 -0.6662 -1.3405  1.2724
14903SOL    HW256364   7.779   4.585   3.678 -1.1174 -1.1397  1.0193
14904SOL     OW56365   1.094   8.755   1.236  0.2873  0.7010  0.3491
14904SOL    HW156366   1.131   8.806   1.158  1.3833  1.0805  1.0971
14904SOL    HW256367   1.160   8.758   1.311  0.0923 -1.2734  0.6335
14905SOL     OW56368   6.821   2.492   2.829 -0.0955  0.0767  0.5023
14905SOL    HW156369   6.876   2.411   2.807 -1.7952 -0.9071 -0.2302
14905SOL    HW256370   6.752   2.505   2.758 -0.8103  1.2806  1.4094
14906SOL     OW56371   0.871   6.793   0.222 -0.2335  0.0521 -0.0153
14906SOL    HW156372   0.902   6.812   0.315 -1.1569  0.1354  0.2809
14906SOL    HW256373   0.879   6.876   0.166  0.2638  0.0187  0.0091
14907SOL     OW56374   7.009   9.673   1.894 -0.5568  0.3706  0.2624
14907SOL    HW156375   7.056   9.739   1.953 -0.3697  0.5652 -0.1004
14907SOL    HW256376   7.058   9.667   1.807 -1.1986  0.5549 -0.1104
14908SOL     OW56377   9.270   0.899   4.595  0.0835  0.1658 -0.2582
14908SOL    HW156378   9.357   0.870   4.555  1.1092  0.7111  1.5162
14908SOL    HW256379   9.215   0.819   4.618  0.8769 -0.2440  0.2393
14909SOL     OW56380   1.155   8.089   6.406  0.1119  0.4619  0.4830
14909SOL    HW156381   1.159   8.189   6.404 -0.9802  0.4817 -0.9823
14909SOL    HW256382   1.224   8.052   6.344 -0.2989  0.3145  0.1204
14910SOL     OW56383   8.441   5.714   5.370 -0.4846  0.1312 -0.4767
14910SOL    HW156384   8.344   5.696   5.355 -0.4542 -1.4583  1.0128
14910SOL    HW256385   8.493   5.630   5.358  0.4111  0.4521  0.9912
14911SOL     OW56386   0.716   0.237   0.570  0.0085 -0.1797 -0.1079
14911SOL    HW156387   0.656   0.260   0.494  0.4244 -2.6184 -1.2147
14911SOL    HW256388   0.672   0.264   0.656 -1.1290  1.2209 -1.1045
14912SOL     OW56389   1.105   5.560   4.586 -0.2417  0.7069 -0.2772
14912SOL    HW156390   1.150   5.476   4.555 -1.3425  0.6493 -1.8027
14912SOL    HW256391   1.006   5.551   4.575 -0.4658  1.6957  0.8412
14913SOL     OW56392   6.059   8.300   3.520 -0.3742  0.3063  0.0034
14913SOL    HW156393   6.087   8.224   3.461 -0.2123  1.5108 -1.5242
14913SOL    HW256394   6.053   8.269   3.614 -1.4365 -1.8944 -0.7486
14914SOL     OW56395   7.512   3.951   7.261  0.4220  0.3938 -0.2045
14914SOL    HW156396   7.501   3.868   7.316 -1.6509  0.4279 -0.5322
14914SOL    HW256397   7.542   4.026   7.320  2.0220 -0.4911  0.1479
14915SOL     OW56398   9.037   1.685   5.634  0.2006  0.2255 -0.2266
14915SOL    HW156399   8.962   1.623   5.612 -2.8421  3.5089  0.5606
14915SOL    HW256400   9.053   1.685   5.733 -0.4842  1.4236 -0.1110
14916SOL     OW56401   4.111   8.739   0.441  0.5049  0.6211  0.0874
14916SOL    HW156402   4.050   8.724   0.363  1.0833  1.3500 -0.5121
14916SOL    HW256403   4.058   8.771   0.519 -0.1573 -0.6125  0.1657
14917SOL     OW56404   8.785   1.237   3.996 -0.6203 -0.1839 -0.3020
14917SOL    HW156405   8.703   1.215   4.048 -0.2601 -1.4232 -0.2193
14917SOL    HW256406   8.806   1.160   3.935  0.1280  0.3806 -0.7577
14918SOL     OW56407   1.031   0.917   8.104 -0.7161 -0.4393 -0.3509
14918SOL    HW156408   0.996   0.824   8.116 -1.4333 -0.2563 -0.9718
14918SOL    HW256409   0.998   0.954   8.017 -0.4181  0.3860 -0.1188
14919SOL     OW56410   9.530   0.748   5.520  0.9767 -0.1842  0.5631
14919SOL    HW156411   9.602   0.809   5.487 -0.9222 -0.0078 -3.5244
14919SOL    HW256412   9.465   0.800   5.575  0.3908  1.1406 -1.3308
14920SOL     OW56413   4.216   2.976   0.087  0.2468 -0.1151 -0.4558
14920SOL    HW156414   4.156   2.919   0.031  2.1707 -1.9543 -0.7191
14920SOL    HW256415   4.296   2.923   0.114 -0.3097  0.9182  3.5353
14921SOL     OW56416   0.361   6.268   5.623 -0.0917 -0.0805  0.1487
14921SOL    HW156417   0.348   6.213   5.540 -1.9302  1.6838 -0.7573
14921SOL    HW256418   0.312   6.226   5.699 -0.0465 -0.6434 -0.1327
14922SOL     OW56419   3.370   4.041   2.064 -0.8380  0.1154  0.2411
14922SOL    HW156420   3.371   4.107   2.139 -0.8810  0.0763  0.2761
14922SOL    HW256421   3.433   4.071   1.992 -0.8720  0.2040  0.2484
14923SOL     OW56422   1.484   1.882   5.887 -0.4027 -0.4650 -0.0861
14923SOL    HW156423   1.565   1.838   5.925 -0.1961  0.3328  0.4134
14923SOL    HW256424   1.407   1.869   5.949 -0.1508  0.5371  0.4515
14924SOL     OW56425   6.697   0.362   1.701  0.0687 -0.1215  0.4420
14924SOL    HW156426   6.686   0.264   1.682 -1.1049 -0.1742  1.3318
14924SOL    HW256427   6.789   0.391   1.674  0.0628 -1.2324 -0.8101
14925SOL     OW56428   0.010   7.170   6.819 -0.6503  0.3075 -0.1378
14925SOL    HW156429  -0.026   7.262   6.837  0.2420  1.3532 -3.3174
14925SOL    HW256430  -0.056   7.102   6.849 -2.0853  2.0422  0.7335
14926SOL     OW56431   8.643   4.548   4.302  0.2104 -0.1533 -0.6304
14926SOL    HW156432   8.680   4.483   4.368  2.2340 -0.4594 -2.0170
14926SOL    HW256433   8.633   4.503   4.213 -1.9592  0.4034 -0.7023
14927SOL     OW56434   0.429   4.082   4.130 -0.3004  0.0495  0.1858
14927SOL    HW156435   0.450   4.088   4.228  0.0339 -0.5989  0.1525
14927SOL    HW256436   0.410   3.987   4.106  1.3222 -0.0534 -0.7278
14928SOL     OW56437   7.555   7.187   2.643  0.2736 -0.0727  0.5939
14928SOL    HW156438   7.548   7.114   2.711  0.0365  0.0651  0.7221
14928SOL    HW256439   7.530   7.274   2.686 -0.3573 -0.0564  0.2126
14929SOL     OW56440   9.338   4.632   4.860 -0.4679  0.7637 -0.2551
14929SOL    HW156441   9.340   4.676   4.950 -0.7098  1.1633 -0.4465
14929SOL    HW256442   9.401   4.678   4.799  2.0765 -1.4357  0.5964
14930SOL     OW56443   1.770   2.729   7.513  0.0086 -0.3049  0.0836
14930SOL    HW156444   1.864   2.760   7.525 -0.2722  0.6218 -0.0510
14930SOL    HW256445   1.765   2.668   7.434  0.1289  1.3978 -1.2744
14931SOL     OW56446   1.982   4.440   6.626 -0.2393 -0.0574 -0.2940
14931SOL    HW156447   2.005   4.537   6.631  1.2003 -0.3650 -0.8025
14931SOL    HW256448   1.964   4.415   6.530 -1.8688 -0.0219 -0.0166
14932SOL     OW56449   1.199   3.910   3.613 -0.0828 -0.1012 -0.1276
14932SOL    HW156450   1.193   3.986   3.677 -0.3032  0.0674 -0.3508
14932SOL    HW256451   1.135   3.924   3.538  0.8414  0.1641 -0.8676
14933SOL     OW56452   4.222   3.472   4.064  0.1270  0.6568  0.4348
14933SOL    HW156453   4.131   3.430   4.056  0.6429 -0.2710 -0.5680
14933SOL    HW256454   4.220   3.562   4.022 -0.1069  0.2937 -0.3330
14934SOL     OW56455   7.990   8.876   4.062  0.3810  0.5666 -0.1105
14934SOL    HW156456   8.053   8.933   4.114  0.2934 -0.5226  1.2079
14934SOL    HW256457   8.041   8.803   4.016  0.2849  0.6883 -0.4121
14935SOL     OW56458   9.553   4.769   6.412 -0.5986 -0.0939 -0.3751
14935SOL    HW156459   9.622   4.832   6.447 -0.9317  0.3728 -0.5447
14935SOL    HW256460   9.472   4.821   6.383 -0.5996 -0.5315 -1.1900
14936SOL     OW56461   4.185   7.621   2.691  0.7706 -0.3897 -0.2110
14936SOL    HW156462   4.204   7.647   2.786  1.2112  0.5360 -0.5554
14936SOL    HW256463   4.250   7.665   2.630 -1.5726  1.7191 -1.2775
14937SOL     OW56464   9.228   1.157   6.175 -0.1726 -0.4363 -0.1095
14937SOL    HW156465   9.284   1.111   6.106 -1.7694 -1.5535 -0.6972
14937SOL    HW256466   9.279   1.160   6.261  0.8928 -1.2093 -0.6824
14938SOL     OW56467   1.254   1.912   1.009  0.1370 -1.0422 -0.9341
14938SOL    HW156468   1.178   1.894   0.946 -1.8624 -0.0028  1.1004
14938SOL    HW256469   1.288   2.005   0.995 -0.3717 -0.7779 -0.4098
14939SOL     OW56470   6.273   1.642   6.444 -0.4859  0.1760 -0.4208
14939SOL    HW156471   6.256   1.656   6.346  0.4360  0.4034 -0.5537
14939SOL    HW256472   6.371   1.632   6.459 -0.5278  1.2938  0.6382
14940SOL     OW56473   7.909   2.624   5.773 -0.2160 -0.0545  0.1308
14940SOL    HW156474   7.855   2.651   5.694 -0.8020  0.7012  0.7807
14940SOL    HW256475   7.883   2.531   5.801  2.5225 -1.7758 -2.7218
14941SOL     OW56476   1.766   9.152   5.119  0.1991 -0.2786 -0.2984
14941SOL    HW156477   1.743   9.062   5.155  0.4754 -0.1281  0.2473
14941SOL    HW256478   1.690   9.186   5.064 -1.0054  0.3190  1.6977
14942SOL     OW56479   4.384   0.917   1.198 -0.8141 -0.1895 -0.0906
14942SOL    HW156480   4.478   0.888   1.182 -1.9037 -3.5687 -0.8416
14942SOL    HW256481   4.365   1.000   1.146  1.1780 -0.5804 -1.4937
14943SOL     OW56482   4.848   0.900   3.409 -0.2742  0.0927 -0.3211
14943SOL    HW156483   4.820   0.816   3.362 -0.4659  1.1112 -2.1192
14943SOL    HW256484   4.935   0.886   3.455 -1.3276 -1.6930  1.1749
14944SOL     OW56485   6.584   5.070   7.135  0.6351  0.1566 -0.4087
14944SOL    HW156486   6.528   4.993   7.105  0.6010 -0.2922  0.7863
14944SOL    HW256487   6.678   5.040   7.148  0.0243 -0.4719  3.0773
14945SOL     OW56488   2.526   5.071   4.377  0.0792  0.0142 -0.8171
14945SOL    HW156489   2.602   5.092   4.316  1.5936 -0.0993  1.0105
14945SOL    HW256490   2.544   4.986   4.426 -0.7092  0.5652  0.4635
14946SOL     OW56491   1.281   6.523   5.914 -0.1494  0.3325  0.7507
14946SOL    HW156492   1.187   6.527   5.880  0.2770 -0.7473 -0.5893
14946SOL    HW256493   1.280   6.505   6.013 -1.3475 -0.5815  0.5874
14947SOL     OW56494   9.194   0.618   4.093  0.1854  0.1384  0.3982
14947SOL    HW156495   9.155   0.526   4.089  0.1546  0.1880 -1.0175
14947SOL    HW256496   9.173   0.660   4.181 -1.1667 -0.6279  0.4605
14948SOL     OW56497   3.771   4.966   0.668  0.1388  0.4979 -0.8425
14948SOL    HW156498   3.815   4.934   0.753  1.8166 -0.6682 -2.1195
14948SOL    HW256499   3.835   4.956   0.592 -1.3183  1.6449 -2.2483
14949SOL     OW56500   3.560   2.477   5.766 -0.4185  0.1379 -0.3972
14949SOL    HW156501   3.560   2.488   5.667 -0.0931  0.4600 -0.3642
14949SOL    HW256502   3.591   2.562   5.809  0.7172 -0.4334 -0.0786
14950SOL     OW56503   8.586   2.105   2.026  0.6293  0.0541 -0.1483
14950SOL    HW156504   8.619   2.011   2.041 -0.0174 -0.7112 -3.1340
14950SOL    HW256505   8.588   2.155   2.113  0.3987 -2.9029  1.6490
14951SOL     OW56506   2.654   3.503   7.635  0.4660 -0.0965  0.0438
14951SOL    HW156507   2.743   3.506   7.589  0.6769 -0.3454  0.4281
14951SOL    HW256508   2.666   3.526   7.732  0.0839  0.0519  0.0554
14952SOL     OW56509   6.351   8.152   5.420  0.4616  0.1358 -0.5158
14952SOL    HW156510   6.420   8.220   5.396 -1.0886  0.9305 -2.9248
14952SOL    HW256511   6.263   8.178   5.381 -1.1895 -0.9973  2.2424
14953SOL     OW56512   4.415   3.219   6.575  0.3368  0.3435  0.1760
14953SOL    HW156513   4.454   3.181   6.659 -0.4561 -0.1776  0.3166
14953SOL    HW256514   4.483   3.277   6.530  1.9071 -1.9096 -0.4773
14954SOL     OW56515   8.455   3.502   5.211  0.0102 -0.4449 -0.2789
14954SOL    HW156516   8.544   3.459   5.228  0.0720 -0.3307 -0.3110
14954SOL    HW256517   8.383   3.433   5.219 -0.0719 -0.1890  1.5712
14955SOL     OW56518   4.820   3.366   5.319 -0.0399  0.0964  0.0067
14955SOL    HW156519   4.860   3.352   5.229  0.6893 -0.6633  0.4466
14955SOL    HW256520   4.725   3.334   5.319 -0.4863  1.4250 -0.8903
14956SOL     OW56521   0.204   4.053   7.244  0.0656  0.4583  0.1495
14956SOL    HW156522   0.166   3.981   7.301  0.2849  0.9843  0.9755
14956SOL    HW256523   0.237   4.014   7.158 -1.1428 -0.1972 -0.0342
14957SOL     OW56524   9.787   7.452   3.561 -0.0850 -0.5468 -0.6895
14957SOL    HW156525   9.751   7.495   3.644  0.9813 -1.9236  0.5047
14957SOL    HW256526   9.795   7.521   3.489 -1.2187  0.6183  0.2804
14958SOL     OW56527   9.078   4.854   7.564  0.7541  0.6237  0.4200
14958SOL    HW156528   9.120   4.816   7.646 -0.5508 -1.5785  0.0995
14958SOL    HW256529   8.979   4.855   7.574  0.4046 -1.9132 -1.9786
14959SOL     OW56530   3.677   7.791   7.963  0.5610 -0.6255  0.1735
14959SOL    HW156531   3.606   7.791   7.893  0.6816 -2.1229  0.0310
14959SOL    HW256532   3.753   7.849   7.934  0.3145 -0.6956 -0.6295
14960SOL     OW56533   7.983   7.759   2.645  0.0935  0.3074 -0.7325
14960SOL    HW156534   8.038   7.783   2.565  1.0756  0.7419  0.0617
14960SOL    HW256535   8.007   7.667   2.675  1.1620  0.9147  0.2671
14961SOL     OW56536   7.936   2.800   3.829  0.4531  0.0882  0.1343
14961SOL    HW156537   8.003   2.747   3.881  0.2399 -0.0499  0.2653
14961SOL    HW256538   7.953   2.898   3.843  0.4245  0.0513  0.4254
14962SOL     OW56539   8.902   3.207   3.434 -0.7823 -0.1033 -0.2475
14962SOL    HW156540   8.952   3.121   3.430 -0.1519  0.3040 -1.6640
14962SOL    HW256541   8.942   3.272   3.368 -1.8391  0.9472  0.1205
14963SOL     OW56542   3.839   8.502   0.397 -0.2985 -0.1135  0.0056
14963SOL    HW156543   3.876   8.564   0.328  0.2911  0.9485  1.2506
14963SOL    HW256544   3.873   8.410   0.382  0.1774  0.2038 -0.8571
14964SOL     OW56545   3.212   8.074   3.631 -0.1641  0.0974  0.2991
14964SOL    HW156546   3.133   8.019   3.604  0.4800 -1.2498  1.1049
14964SOL    HW256547   3.295   8.038   3.589  0.1157  1.1740 -0.1033
14965SOL     OW56548   3.247   0.147   2.105 -0.0006 -0.1489 -0.2929
14965SOL    HW156549   3.193   0.136   2.022 -0.1315 -2.2163  0.0433
14965SOL    HW256550   3.199   0.105   2.182  0.9915  0.0881  0.4646
14966SOL     OW56551   0.640   9.740   7.973 -0.2585  0.0127  0.7120
14966SOL    HW156552   0.653   9.827   7.925  0.5983  0.2050  1.2686
14966SOL    HW256553   0.637   9.757   8.072  0.9752 -0.7056  0.8769
14967SOL     OW56554   1.113   6.283   0.926  0.1542  0.2661 -0.0224
14967SOL    HW156555   1.185   6.221   0.894 -0.8722 -0.5194 -0.8464
14967SOL    HW256556   1.058   6.314   0.848  0.5617  2.1030  0.4008
14968SOL     OW56557   5.609   9.228   6.764  0.0185  0.2618 -0.4919
14968SOL    HW156558   5.602   9.309   6.705 -1.2618  0.7702  0.3530
14968SOL    HW256559   5.518   9.200   6.794  0.6693  0.1231  1.4231
14969SOL     OW56560   3.468   9.287   4.175  0.0747  0.2474  0.3343
14969SOL    HW156561   3.405   9.275   4.252  0.6400 -1.6241  0.5487
14969SOL    HW256562   3.561   9.268   4.206  0.2892 -0.6494 -0.8224
14970SOL     OW56563   1.992   5.041   1.875  0.0356  0.3778 -0.0941
14970SOL    HW156564   1.909   5.030   1.821  0.6225 -0.1893 -0.8909
14970SOL    HW256565   2.062   4.977   1.843  0.7242  0.7324  0.6760
14971SOL     OW56566   0.685   1.968   7.590 -0.3427  0.0165 -0.0341
14971SOL    HW156567   0.616   2.040   7.586  1.9020  2.1989 -1.7038
14971SOL    HW256568   0.773   2.008   7.614  0.8815 -2.2412 -0.5920
14972SOL     OW56569   7.996   7.537   4.819 -0.3446 -0.7515  0.7675
14972SOL    HW156570   7.926   7.488   4.767 -0.1124  0.8583 -1.1394
14972SOL    HW256571   7.951   7.602   4.881 -0.5728  0.1125 -0.2829
14973SOL     OW56572   1.934   4.658   1.834 -0.4373  0.4910 -0.0811
14973SOL    HW156573   1.850   4.710   1.849  1.7914  3.2940  3.4755
14973SOL    HW256574   1.984   4.697   1.757 -0.4331  1.4700  0.4101
14974SOL     OW56575   6.645   8.823   6.723 -0.7180 -0.1596  0.2024
14974SOL    HW156576   6.547   8.846   6.726 -0.9436 -0.7780 -1.7944
14974SOL    HW256577   6.699   8.906   6.732 -1.4986  0.8205 -3.4310
14975SOL     OW56578   2.363   2.702   2.769 -0.1697  0.0149  1.0511
14975SOL    HW156579   2.361   2.626   2.833 -2.1683 -0.4816  0.4280
14975SOL    HW256580   2.284   2.761   2.784  0.9684  1.5839  1.0470
14976SOL     OW56581   4.645   9.771   1.304  0.1996 -0.3353  0.3517
14976SOL    HW156582   4.696   9.854   1.284 -0.2609 -0.4529 -1.3980
14976SOL    HW256583   4.573   9.791   1.370  1.1719  0.2814  1.2272
14977SOL     OW56584   2.409   5.258   3.880 -0.3783 -0.0775  0.0778
14977SOL    HW156585   2.428   5.327   3.949  1.2079 -0.2548 -0.1597
14977SOL    HW256586   2.311   5.259   3.858 -0.7243  0.6699  1.5662
14978SOL     OW56587   4.077   0.929   3.918  0.5795 -0.0613  0.1306
14978SOL    HW156588   4.022   0.971   3.846  0.4315  1.7541  1.2889
14978SOL    HW256589   4.020   0.867   3.973  0.6367 -1.2603 -1.1226
14979SOL     OW56590   5.579   2.241   4.599  0.1878  0.4292 -0.0588
14979SOL    HW156591   5.676   2.245   4.574  0.2586 -0.0056  0.1315
14979SOL    HW256592   5.571   2.245   4.698  0.2342 -2.9363  0.1307
14980SOL     OW56593   8.355   0.705   2.466  0.2310 -0.2439 -0.1315
14980SOL    HW156594   8.367   0.670   2.559  0.9549  0.4134  0.0234
14980SOL    HW256595   8.266   0.751   2.459 -0.6322 -1.8877 -0.2715
14981SOL     OW56596   9.099   2.301   1.459  0.3681 -0.0440  0.2287
14981SOL    HW156597   9.165   2.320   1.387  1.4523 -0.3306  1.1170
14981SOL    HW256598   9.012   2.274   1.419  1.3501 -1.5034 -0.9694
14982SOL     OW56599   1.483   1.775   5.632 -0.6833 -0.4987  0.1822
14982SOL    HW156600   1.400   1.720   5.642 -2.9312  2.9775  1.4608
14982SOL    HW256601   1.502   1.823   5.718  2.1620 -0.5396 -0.3766
14983SOL     OW56602   7.353   4.405   0.781 -0.3525  0.0620  0.5055
14983SOL    HW156603   7.333   4.502   0.770  0.6207  0.1213 -0.8484
14983SOL    HW256604   7.432   4.394   0.841 -0.0672  0.1315  0.1419
14984SOL     OW56605   9.741   8.441   0.197  0.3300  0.1037  0.0710
14984SOL    HW156606   9.812   8.398   0.251 -0.3533 -0.5492  0.4616
14984SOL    HW256607   9.781   8.513   0.140  1.2184  0.0551  0.6274
14985SOL     OW56608   2.051   5.402   1.746 -0.4225 -0.2793  0.2305
14985SOL    HW156609   2.083   5.315   1.782 -0.7263 -0.5196 -0.0746
14985SOL    HW256610   2.029   5.464   1.821 -1.3796 -0.8944  0.4700
14986SOL     OW56611   8.789   7.732   7.576 -0.9874 -0.0638 -0.0691
14986SOL    HW156612   8.730   7.763   7.502  0.4491 -0.4120 -1.3871
14986SOL    HW256613   8.788   7.632   7.580 -0.1079 -0.0859 -0.4050
14987SOL     OW56614   1.506   5.794   2.224  0.4810 -0.3520  0.4106
14987SOL    HW156615   1.547   5.724   2.165  1.4558  0.1043  0.5453
14987SOL    HW256616   1.572   5.824   2.293 -0.3955 -0.3225  1.2628
14988SOL     OW56617   0.613   3.788   1.531  0.4317 -0.0190 -0.2943
14988SOL    HW156618   0.557   3.749   1.604  1.3336 -0.3872  0.2043
14988SOL    HW256619   0.703   3.812   1.567  0.5406  0.7365 -1.0512
14989SOL     OW56620   0.968   4.471   0.221  0.3914 -0.5969 -0.4609
14989SOL    HW156621   0.880   4.423   0.211 -0.8975  1.8350 -1.1691
14989SOL    HW256622   0.985   4.490   0.318 -0.2451 -0.3600 -0.3967
14990SOL     OW56623   7.234   1.756   6.406 -0.5979 -0.1589 -0.4708
14990SOL    HW156624   7.248   1.689   6.333 -0.8561 -0.2819 -0.4058
14990SOL    HW256625   7.319   1.766   6.458 -0.1509  0.5532 -1.3152
14991SOL     OW56626   4.847   9.052   1.300 -0.1177 -0.7064  0.2283
14991SOL    HW156627   4.862   9.051   1.201 -1.0134  0.3056  0.0742
14991SOL    HW256628   4.934   9.037   1.347  0.3295 -1.0938 -0.7099
14992SOL     OW56629   3.564   9.358   6.830 -0.0976 -0.0288  0.1712
14992SOL    HW156630   3.597   9.326   6.741 -0.0529  1.1281 -0.2367
14992SOL    HW256631   3.492   9.425   6.816 -1.2087 -1.0340  1.0365
14993SOL     OW56632   9.213   4.758   1.287 -0.0207 -0.1876 -0.2881
14993SOL    HW156633   9.272   4.839   1.286  1.1635 -1.0170  0.3593
14993SOL    HW256634   9.196   4.729   1.193  0.3802  0.2250 -0.4969
14994SOL     OW56635   3.452   8.276   5.804 -0.6901  0.0861 -0.0891
14994SOL    HW156636   3.440   8.375   5.811  2.5908  0.6382 -1.6192
14994SOL    HW256637   3.394   8.241   5.731 -0.9226  1.0425 -0.3758
14995SOL     OW56638   8.339   3.082   6.419 -0.1104  0.1179  0.3719
14995SOL    HW156639   8.280   3.010   6.456 -0.1038  0.4588  1.0667
14995SOL    HW256640   8.283   3.160   6.391 -0.1046 -0.0906 -0.2332
14996SOL     OW56641   0.956   0.534   2.826 -0.1759  0.5779 -0.2878
14996SOL    HW156642   0.948   0.437   2.802  0.2442  0.0200  1.7158
14996SOL    HW256643   0.896   0.554   2.903 -1.9491  2.4560 -2.0970
14997SOL     OW56644   7.465   2.324   0.254 -0.0153  0.2339  0.4830
14997SOL    HW156645   7.460   2.256   0.180 -2.2005 -0.1288  0.9024
14997SOL    HW256646   7.377   2.372   0.260  1.5275  3.2400  0.1097
14998SOL     OW56647   3.787   5.975   3.220 -0.2156  0.2155  0.2400
14998SOL    HW156648   3.838   5.903   3.173 -1.2462 -0.2174 -0.2270
14998SOL    HW256649   3.693   5.978   3.185 -0.4995  1.0376  1.0502
14999SOL     OW56650   1.520   1.796   7.986  0.5399 -0.4051  0.3546
14999SOL    HW156651   1.537   1.700   8.009  0.5976 -0.4641  0.0676
14999SOL    HW256652   1.429   1.804   7.943  0.5227 -0.3277  0.4056
15000SOL     OW56653   8.220   4.741   4.687 -0.3320  0.0949 -0.4287
15000SOL    HW156654   8.272   4.659   4.664  1.0092  0.4102  1.3452
15000SOL    HW256655   8.250   4.776   4.775 -2.4396  1.2484 -0.1272
15001SOL     OW56656   3.326   1.008   1.204  0.2234 -0.2848 -0.0667
15001SOL    HW156657   3.230   1.030   1.225  1.2728  2.7477  1.7969
15001SOL    HW256658   3.373   0.982   1.288  2.1877  2.9523 -0.0723
15002SOL     OW56659   1.063   3.039   1.829  0.3021  0.2770  1.0497
15002SOL    HW156660   0.981   3.004   1.874 -0.8040  1.1039 -0.2552
15002SOL    HW256661   1.126   2.964   1.810 -0.9977 -0.6688  0.3941
15003SOL     OW56662   8.894   5.835   6.704  0.4769  0.3415 -0.4119
15003SOL    HW156663   8.820   5.879   6.753  0.3985 -0.7900  0.5231
15003SOL    HW256664   8.860   5.798   6.618  0.0173  0.0795 -0.1186
15004SOL     OW56665   4.962   8.881   2.143  0.2048  0.3526  0.8751
15004SOL    HW156666   5.047   8.903   2.095 -0.1681  1.1241  0.5640
15004SOL    HW256667   4.890   8.945   2.115 -0.5918 -0.5611  0.8142
15005SOL     OW56668   2.438   0.738   1.258  0.4629 -0.0049  0.4764
15005SOL    HW156669   2.346   0.765   1.286 -1.1958 -1.8268 -2.9606
15005SOL    HW256670   2.486   0.817   1.219 -0.6468  0.3161 -0.2372
15006SOL     OW56671   7.802   1.687   8.041 -0.5797  0.2193 -0.3917
15006SOL    HW156672   7.755   1.618   8.096  1.1959 -0.2347  0.6053
15006SOL    HW256673   7.785   1.671   7.944 -1.1222 -0.9304 -0.1053
15007SOL     OW56674   2.944   4.569   7.676 -0.3129  0.2065  0.0571
15007SOL    HW156675   2.871   4.591   7.611  0.6839  2.7570 -0.2513
15007SOL    HW256676   3.019   4.523   7.628 -0.7153 -0.3086 -0.0781
15008SOL     OW56677   1.044   2.212   2.789 -0.3428  0.0764  0.3937
15008SOL    HW156678   1.040   2.303   2.829 -1.3194  0.2166 -0.0190
15008SOL    HW256679   0.961   2.162   2.810 -0.1911 -0.4024 -0.1214
15009SOL     OW56680   6.707   1.802   0.315  0.2468  0.5411 -0.2043
15009SOL    HW156681   6.668   1.717   0.351  0.9295 -0.2051 -1.2192
15009SOL    HW256682   6.695   1.804   0.216  0.4542  1.5206 -0.2101
15010SOL     OW56683   9.314   8.863   2.147 -0.4241 -0.2182  0.1981
15010SOL    HW156684   9.251   8.830   2.077  0.3540 -2.7846  0.6650
15010SOL    HW256685   9.339   8.788   2.208  1.3502  1.2622  1.3506
15011SOL     OW56686   2.818   2.234   6.785  0.1432  0.0882  0.1370
15011SOL    HW156687   2.840   2.332   6.787  2.7362 -0.4958  1.8193
15011SOL    HW256688   2.751   2.217   6.712  1.8970  2.6496 -2.1799
15012SOL     OW56689   3.681   0.451   8.175 -0.7225 -0.2606 -0.4694
15012SOL    HW156690   3.608   0.420   8.114 -0.8963 -1.2078  0.2107
15012SOL    HW256691   3.742   0.513   8.126 -2.6733  1.5306 -0.7128
15013SOL     OW56692   1.171   7.116   4.282  0.2335 -0.0987  0.2362
15013SOL    HW156693   1.177   7.073   4.372 -1.6977  1.8585  1.3245
15013SOL    HW256694   1.233   7.194   4.278  0.1961 -0.0855 -0.1002
15014SOL     OW56695   7.521   0.269   1.282  0.0065  0.1865  0.0462
15014SOL    HW156696   7.461   0.214   1.224  0.5694 -1.0678  0.6392
15014SOL    HW256697   7.530   0.225   1.372  0.8636  0.9879  0.3588
15015SOL     OW56698   8.846   9.098   2.175  0.3773 -0.1929 -0.6720
15015SOL    HW156699   8.921   9.115   2.238 -1.6471  0.5414  1.6126
15015SOL    HW256700   8.863   9.147   2.090  2.4081  0.0625 -0.1544
15016SOL     OW56701   1.243   1.880   3.173  0.2053 -0.2988  0.4090
15016SOL    HW156702   1.148   1.864   3.145 -0.2910  0.7766  1.4579
15016SOL    HW256703   1.293   1.793   3.172 -0.3649 -0.6328 -1.6589
15017SOL     OW56704   1.442   8.832   3.205  0.0065  0.3929 -0.3624
15017SOL    HW156705   1.375   8.897   3.170 -0.0120  0.2271 -0.6319
15017SOL    HW256706   1.527   8.881   3.226 -0.3843  0.7018  0.5275
15018SOL     OW56707   6.302   5.503   8.030  0.4544 -0.2836  0.1125
15018SOL    HW156708   6.370   5.577   8.027  0.3226 -0.1366  0.7217
15018SOL    HW256709   6.231   5.526   8.096  0.0876 -0.6828 -0.1408
15019SOL     OW56710   8.674   8.912   2.235 -0.3704  0.0253 -0.2609
15019SOL    HW156711   8.681   8.889   2.332  0.8849 -1.0124 -0.5720
15019SOL    HW256712   8.744   8.980   2.212 -0.3655 -0.0661 -0.5201
15020SOL     OW56713   9.453   8.772   7.246 -0.0585  0.1284  0.1377
15020SOL    HW156714   9.537   8.810   7.208  2.2388 -2.9811  1.9445
15020SOL    HW256715   9.441   8.678   7.215 -1.7590 -0.1663  1.5725
15021SOL     OW56716   8.277   6.874   0.835  0.0451  0.4785 -0.4843
15021SOL    HW156717   8.177   6.882   0.824 -0.2964  0.5771  2.3913
15021SOL    HW256718   8.304   6.778   0.827 -0.0885  0.5867 -2.5240
15022SOL     OW56719   7.917   1.839   7.137 -0.1535 -0.3011  0.2756
15022SOL    HW156720   7.990   1.772   7.151 -0.4241 -1.3027 -2.5854
15022SOL    HW256721   7.949   1.930   7.162  1.7739 -0.8718 -0.0495
15023SOL     OW56722   1.230   8.115   0.134  0.4282 -0.2674 -0.1406
15023SOL    HW156723   1.148   8.085   0.182  0.4082  0.0422  0.0153
15023SOL    HW256724   1.295   8.154   0.199  0.4749 -0.0168 -0.3353
15024SOL     OW56725   9.545   6.253   6.388  0.3910 -0.2944 -0.0868
15024SOL    HW156726   9.584   6.165   6.414 -0.7987 -0.6565  0.4948
15024SOL    HW256727   9.496   6.244   6.302  1.1367  0.0493 -0.5593
15025SOL     OW56728   9.276   0.569   0.415  0.2615 -0.0883 -0.1273
15025SOL    HW156729   9.292   0.488   0.358 -1.0493 -0.6664  0.3312
15025SOL    HW256730   9.253   0.647   0.356  2.4690  0.2225 -0.6469
15026SOL     OW56731   0.199   9.418   1.072  0.5557 -0.0522 -0.5234
15026SOL    HW156732   0.138   9.459   1.005  0.4815  0.9303  0.1428
15026SOL    HW256733   0.293   9.449   1.055  0.8988 -1.5656 -1.5520
15027SOL     OW56734   3.024   0.371   0.007  0.2733  0.6109 -0.0426
15027SOL    HW156735   3.000   0.359   0.103  1.0209  0.6263  0.1467
15027SOL    HW256736   3.119   0.400  -0.001  0.4776 -0.2342 -0.8178
15028SOL     OW56737   0.164   9.842   6.286  0.4129  0.5478 -0.1579
15028SOL    HW156738   0.191   9.916   6.224 -0.7237 -0.2337 -1.5786
15028SOL    HW256739   0.242   9.781   6.301  0.9240  1.1925 -0.1395
15029SOL     OW56740   4.038   1.160   8.200 -0.1971  0.6012  0.5781
15029SOL    HW156741   3.958   1.103   8.223  1.0496 -0.6982  1.7871
15029SOL    HW256742   4.024   1.252   8.235 -1.5352  0.6145  0.0456
15030SOL     OW56743   7.429   6.369   2.315  0.2816  0.0314 -0.6644
15030SOL    HW156744   7.428   6.463   2.352 -0.0788  0.5766 -2.0260
15030SOL    HW256745   7.492   6.313   2.368  1.1877  1.2811 -0.3893
15031SOL     OW56746   8.554   6.293   0.265  0.5551 -0.0057 -0.1134
15031SOL    HW156747   8.649   6.322   0.259  0.5147 -0.1728 -1.7760
15031SOL    HW256748   8.547   6.196   0.242 -0.2341  0.4412 -1.8894
15032SOL     OW56749   5.943   2.714   0.071 -0.0585  0.1547 -0.3958
15032SOL    HW156750   6.042   2.711   0.056  0.1448  1.0008  0.6729
15032SOL    HW256751   5.925   2.706   0.169 -0.9917  1.1299 -0.4864
15033SOL     OW56752   1.285   0.012   1.429 -0.0422  0.1254 -0.4425
15033SOL    HW156753   1.361   0.076   1.437  0.5587 -0.7254  0.5950
15033SOL    HW256754   1.206   0.060   1.389  0.6410  1.3147 -0.3901
15034SOL     OW56755   9.170   6.193   5.940 -0.3167 -0.6074  0.5089
15034SOL    HW156756   9.143   6.278   5.894 -0.2683 -1.0471 -0.3354
15034SOL    HW256757   9.268   6.177   5.925 -0.1270 -0.3374  1.4366
15035SOL     OW56758   9.650   5.068   2.720 -0.0425  0.5068 -0.3931
15035SOL    HW156759   9.575   5.132   2.705  0.5087  1.8415  2.2335
15035SOL    HW256760   9.629   5.011   2.800  0.5694 -0.9122 -1.2357
15036SOL     OW56761   4.653   6.213   1.729 -0.5817 -0.1022 -0.7464
15036SOL    HW156762   4.588   6.223   1.653  0.1648  1.9362 -1.1439
15036SOL    HW256763   4.664   6.301   1.775 -0.2976 -1.1093  1.1463
15037SOL     OW56764   4.474   3.478   6.153  0.1529 -0.2157  0.6096
15037SOL    HW156765   4.558   3.488   6.100 -0.6151  1.9850 -0.2616
15037SOL    HW256766   4.489   3.510   6.247 -0.0167  1.3464  0.1192
15038SOL     OW56767   2.349   6.684   7.368 -0.3764 -0.0591  0.2586
15038SOL    HW156768   2.394   6.668   7.456 -0.8554 -0.3661  0.4489
15038SOL    HW256769   2.341   6.783   7.353 -2.0230  0.0098  1.4596
15039SOL     OW56770   2.037   8.379   1.938  0.1202 -0.5883  0.3872
15039SOL    HW156771   1.988   8.460   1.905  2.0989  0.9764  1.1952
15039SOL    HW256772   1.987   8.339   2.015 -2.1447 -1.6087 -1.5606
15040SOL     OW56773   7.513   7.017   4.102  0.4057 -0.0659  0.0628
15040SOL    HW156774   7.444   7.075   4.059  0.1484 -1.9410 -2.1470
15040SOL    HW256775   7.469   6.950   4.162  0.3900 -0.5986 -0.5450
15041SOL     OW56776   0.357   5.885   0.591  0.0929 -0.0221  0.3314
15041SOL    HW156777   0.363   5.845   0.683 -0.3466  0.7539  0.7038
15041SOL    HW256778   0.449   5.896   0.554  0.2565 -0.6295  0.5519
15042SOL     OW56779   8.269   1.054   6.702 -0.2737  0.4732 -0.6095
15042SOL    HW156780   8.228   0.975   6.749 -0.4462  0.7931 -0.2230
15042SOL    HW256781   8.287   1.126   6.769  0.2249  0.6217 -0.9023
15043SOL     OW56782   5.053   0.516   6.456 -0.5261 -0.8811  0.0394
15043SOL    HW156783   5.059   0.460   6.374 -0.5921  1.2018 -1.4076
15043SOL    HW256784   4.964   0.561   6.459  1.0828  2.5179 -1.0693
15044SOL     OW56785   7.254   7.297   4.383 -0.1483 -0.0499  0.1683
15044SOL    HW156786   7.238   7.198   4.390  0.9294 -0.1248  1.6538
15044SOL    HW256787   7.181   7.346   4.429 -0.1447 -0.1803  0.3121
15045SOL     OW56788   7.374   1.513   5.971 -0.3529  0.4649  0.6520
15045SOL    HW156789   7.287   1.561   5.979 -0.7244 -0.3190  1.4168
15045SOL    HW256790   7.393   1.493   5.875  0.0846  2.6168  0.2592
15046SOL     OW56791   1.005   1.571   0.590 -0.1740  0.3401  0.1844
15046SOL    HW156792   1.025   1.591   0.686 -0.7416 -0.0299  0.3853
15046SOL    HW256793   1.051   1.637   0.531 -0.3049  0.9241  0.7405
15047SOL     OW56794   8.307   3.711   2.125  0.1244  0.1253 -0.2971
15047SOL    HW156795   8.285   3.804   2.097 -0.1220  0.1149 -0.1431
15047SOL    HW256796   8.297   3.649   2.047 -0.8213  0.0554 -0.1315
15048SOL     OW56797   2.969   4.927   0.910 -0.1931 -0.0652 -0.0712
15048SOL    HW156798   2.969   4.888   1.003  0.9844  0.7320  0.2691
15048SOL    HW256799   3.063   4.946   0.882 -0.7259  2.4958 -0.2431
15049SOL     OW56800   7.937   4.509   3.186  0.1071 -0.0933 -0.2023
15049SOL    HW156801   7.845   4.472   3.172 -0.7406  1.6278  0.6624
15049SOL    HW256802   7.972   4.544   3.099 -0.1994 -0.4117 -0.4572
15050SOL     OW56803   0.309   7.179   5.769  0.4198 -0.1112 -0.3059
15050SOL    HW156804   0.356   7.244   5.830  0.7895  1.7580 -2.5379
15050SOL    HW256805   0.372   7.149   5.698  0.4121 -3.4043  1.0029
15051SOL     OW56806   9.628   9.806   7.189  0.1288 -0.1191 -0.0877
15051SOL    HW156807   9.585   9.817   7.099  0.6435  0.9872 -0.2101
15051SOL    HW256808   9.719   9.848   7.187  0.2661 -0.3710  0.8624
15052SOL     OW56809   8.041   6.658   2.756  0.3144 -0.5658 -0.9138
15052SOL    HW156810   8.043   6.698   2.848 -0.5400 -0.1450 -1.0759
15052SOL    HW256811   7.991   6.719   2.694 -2.0621 -2.3871 -0.8866
15053SOL     OW56812   2.140   7.183   6.404  0.2633 -0.3937 -0.4602
15053SOL    HW156813   2.230   7.223   6.386 -0.8691  2.4240 -0.1235
15053SOL    HW256814   2.101   7.150   6.318  0.3964  1.0551 -1.0926
15054SOL     OW56815   1.538   6.602   0.657  0.4424  0.4983  0.7283
15054SOL    HW156816   1.616   6.619   0.597 -0.6836 -0.0008 -0.8962
15054SOL    HW256817   1.556   6.520   0.712  1.1413  0.5063  0.5177
15055SOL     OW56818   3.380   8.341   1.766 -0.4544  0.1054 -0.2418
15055SOL    HW156819   3.404   8.254   1.809  0.3674  0.9418  1.0194
15055SOL    HW256820   3.458   8.374   1.712 -0.3440  0.6338  0.2351
15056SOL     OW56821   1.085   4.104   3.249  0.4139 -0.0688 -0.4496
15056SOL    HW156822   0.995   4.091   3.208  0.5880 -2.1876 -0.1988
15056SOL    HW256823   1.155   4.063   3.190  1.1188  0.7893 -0.2124
15057SOL     OW56824   4.991   5.647   0.817 -0.0967 -0.0902  0.3586
15057SOL    HW156825   4.921   5.692   0.761  0.4506  0.9558  0.5035
15057SOL    HW256826   4.952   5.622   0.906  0.2458  2.3518  1.2340
15058SOL     OW56827   8.247   2.414   3.662  0.2876 -0.4674 -0.3399
15058SOL    HW156828   8.212   2.479   3.594  0.7780  0.0262 -0.1266
15058SOL    HW256829   8.345   2.430   3.675 -0.4496  1.7622  3.0028
15059SOL     OW56830   0.755   2.653   0.412  0.7706 -0.4306 -0.1684
15059SOL    HW156831   0.715   2.562   0.412  0.9554 -0.5147  1.9527
15059SOL    HW256832   0.693   2.716   0.364 -0.8258 -1.0219  1.0915
15060SOL     OW56833   7.186   6.497   3.391 -0.1629 -0.1891 -0.4434
15060SOL    HW156834   7.275   6.501   3.346  0.4966  0.3313  0.8690
15060SOL    HW256835   7.197   6.522   3.488 -1.7230 -0.1693 -0.2647
15061SOL     OW56836   5.026   8.555   4.973 -0.2825  0.5369  0.2748
15061SOL    HW156837   5.039   8.572   5.071 -1.6914 -0.8856  0.7253
15061SOL    HW256838   5.101   8.497   4.939 -0.1512  0.4766  0.6682
15062SOL     OW56839   1.739   7.231   3.950  0.4486 -0.0607  0.3431
15062SOL    HW156840   1.758   7.156   4.014 -3.3244 -1.2781  0.1208
15062SOL    HW256841   1.770   7.205   3.858  0.8450 -0.5465  0.6078
15063SOL     OW56842   1.910   9.724   5.581  0.5503  0.1421  0.4997
15063SOL    HW156843   1.916   9.778   5.664 -0.0213 -0.3897  0.8902
15063SOL    HW256844   1.877   9.781   5.506 -1.6776 -0.0609  1.2926
15064SOL     OW56845   8.925   1.143   4.723  0.0670 -0.1674  0.3958
15064SOL    HW156846   8.868   1.218   4.691  1.8812  0.3077 -1.7930
15064SOL    HW256847   8.904   1.060   4.672  1.1102 -0.0597 -0.2304
15065SOL     OW56848   2.264   1.017   1.513 -0.0645  0.3779  0.7000
15065SOL    HW156849   2.292   1.097   1.566  0.3426  0.2546  0.6762
15065SOL    HW256850   2.291   1.030   1.417  0.5487 -0.0512  0.8141
15066SOL     OW56851   6.712   5.371   0.514  0.0473 -0.2282  0.0597
15066SOL    HW156852   6.694   5.283   0.557 -1.8732  0.0421 -0.1538
15066SOL    HW256853   6.635   5.396   0.454 -0.3463  2.4677  1.5879
15067SOL     OW56854   0.778   9.507   7.893 -0.0823 -0.8209 -0.1874
15067SOL    HW156855   0.768   9.504   7.793 -3.2829 -1.6546  0.0937
15067SOL    HW256856   0.731   9.588   7.928 -0.9587 -1.7467  0.8156
15068SOL     OW56857   2.224   3.643   3.206 -1.0814 -0.2086 -0.1583
15068SOL    HW156858   2.126   3.658   3.218 -1.1682 -0.6873 -0.2800
15068SOL    HW256859   2.240   3.585   3.127 -0.7277 -0.5395  0.1537
15069SOL     OW56860   4.413   5.457   0.414 -0.3235 -0.0328 -0.3032
15069SOL    HW156861   4.459   5.405   0.342  0.9026  1.4520 -0.6087
15069SOL    HW256862   4.314   5.449   0.402 -0.1464  1.4202 -3.0759
15070SOL     OW56863   3.078   4.693   4.320 -0.2271  0.2353 -0.2535
15070SOL    HW156864   3.164   4.743   4.328  0.9755 -1.1851 -3.3206
15070SOL    HW256865   3.025   4.730   4.244 -0.6030 -1.2844 -0.7529
15071SOL     OW56866   8.349   5.923   3.215 -0.1165  0.7982  0.2613
15071SOL    HW156867   8.353   5.988   3.139 -1.3260 -0.0611 -0.5556
15071SOL    HW256868   8.254   5.908   3.241  0.2829  1.0079  1.8997
15072SOL     OW56869   1.553   5.305   4.122 -0.6465 -0.0246 -0.0616
15072SOL    HW156870   1.506   5.291   4.209  0.0610  0.5913  0.4290
15072SOL    HW256871   1.595   5.220   4.092 -3.1218 -0.9187 -1.1438
15073SOL     OW56872   1.397   6.065   3.296 -0.1820  0.2806 -0.1068
15073SOL    HW156873   1.307   6.040   3.332  0.0855 -1.2533 -0.4571
15073SOL    HW256874   1.467   6.053   3.366  0.5148 -3.8949 -1.3961
15074SOL     OW56875   9.713   2.593   6.521  0.5602 -0.4310  0.2305
15074SOL    HW156876   9.675   2.525   6.584 -1.8049  0.5099 -0.1415
15074SOL    HW256877   9.805   2.564   6.492  1.1484 -1.5454  3.0268
15075SOL     OW56878   2.439   5.943   4.921 -0.2328 -0.0560 -0.5940
15075SOL    HW156879   2.466   6.014   4.857  0.4947 -0.0550 -0.2835
15075SOL    HW256880   2.339   5.940   4.927 -0.2357  1.8707  0.4457
15076SOL     OW56881   3.120   7.288   5.551 -0.4709 -0.3024  0.0694
15076SOL    HW156882   3.137   7.359   5.620  0.7147 -0.8028  0.3057
15076SOL    HW256883   3.128   7.198   5.594 -1.1990 -0.5926 -0.4039
15077SOL     OW56884   3.855   7.676   4.171  0.3580 -0.1847 -0.4608
15077SOL    HW156885   3.874   7.766   4.132  0.1637  0.0778  0.0482
15077SOL    HW256886   3.938   7.622   4.173  0.9822  0.8134  1.3991
15078SOL     OW56887   8.865   9.542   3.088 -0.2312  0.3299  0.4786
15078SOL    HW156888   8.945   9.602   3.086  0.4077 -0.4372  2.3531
15078SOL    HW256889   8.804   9.569   3.162 -1.0380  0.0592 -0.0811
15079SOL     OW56890   8.189   0.986   0.743 -0.2774  0.2055  0.1562
15079SOL    HW156891   8.232   0.992   0.653  0.1055  1.4292  0.4139
15079SOL    HW256892   8.096   1.020   0.738 -0.6984 -0.9470 -0.0516
15080SOL     OW56893   3.101   5.654   7.670 -0.1298  0.1646 -0.2048
15080SOL    HW156894   3.154   5.732   7.639  0.8452 -0.7170 -0.7897
15080SOL    HW256895   3.005   5.668   7.647 -0.2768  2.0920  1.5017
15081SOL     OW56896   7.347   6.297   2.071  0.4120 -0.1444 -0.1331
15081SOL    HW156897   7.283   6.222   2.088  0.7395 -0.5065 -0.4858
15081SOL    HW256898   7.374   6.338   2.158 -0.2979  0.0104  0.0167
15082SOL     OW56899   9.842   1.583   6.776 -0.6111 -0.0532  0.5901
15082SOL    HW156900   9.891   1.523   6.840  0.1140 -1.6673 -1.4247
15082SOL    HW256901   9.847   1.678   6.809  0.5311 -0.7239  2.4337
15083SOL     OW56902   8.054   0.157   4.208  0.3393 -0.1230  0.1700
15083SOL    HW156903   8.100   0.196   4.128  1.4487 -0.0032  0.8556
15083SOL    HW256904   8.088   0.200   4.291  0.0224 -1.0450  0.7922
15084SOL     OW56905   1.877   7.247   3.198  0.0733  0.0510 -0.5305
15084SOL    HW156906   1.846   7.265   3.291 -1.5175  0.4535 -1.1261
15084SOL    HW256907   1.852   7.323   3.138 -1.4847 -1.4359 -1.8581
15085SOL     OW56908   1.417   7.489   0.265 -0.1770  0.6181 -0.0270
15085SOL    HW156909   1.324   7.496   0.302 -0.1418 -2.2542  0.7358
15085SOL    HW256910   1.421   7.532   0.175 -2.0516  1.4278  0.2561
15086SOL     OW56911   1.759   9.864   3.998  0.0633  0.2421  0.7914
15086SOL    HW156912   1.712   9.923   3.932  1.9348  0.7833 -0.0945
15086SOL    HW256913   1.765   9.910   4.086  1.3662  1.3362  0.1494
15087SOL     OW56914   2.918   7.624   7.949  0.1680  0.0337 -0.5327
15087SOL    HW156915   2.887   7.529   7.953  0.6052 -0.1177 -0.7210
15087SOL    HW256916   2.960   7.649   8.036  2.4015 -0.7594 -1.3394
15088SOL     OW56917   7.851   5.996   7.591 -0.3713  0.6493  0.3984
15088SOL    HW156918   7.821   6.037   7.505 -1.8345 -1.0395  0.0722
15088SOL    HW256919   7.951   5.999   7.597 -0.0239 -1.8793 -2.7730
15089SOL     OW56920   0.454   9.582   1.771 -0.2149  0.4624  0.2908
15089SOL    HW156921   0.554   9.586   1.760 -0.1932  1.1880  0.7322
15089SOL    HW256922   0.422   9.490   1.749  0.2952  0.7862 -2.0005
15090SOL     OW56923   3.289   2.102   2.665  0.1503  0.6231 -0.2887
15090SOL    HW156924   3.376   2.099   2.614 -0.5365  2.6273 -1.6564
15090SOL    HW256925   3.303   2.149   2.752  0.7878 -0.5752  0.2716
15091SOL     OW56926   4.758   1.254   4.177  0.4314 -0.6941 -0.1300
15091SOL    HW156927   4.726   1.314   4.250 -0.9812  0.1676 -1.4100
15091SOL    HW256928   4.679   1.221   4.125  1.4691 -0.2829 -2.0238
15092SOL     OW56929   2.346   8.102   7.739  0.0209 -0.2488 -0.4352
15092SOL    HW156930   2.348   8.127   7.642 -2.2452 -0.6141 -0.6096
15092SOL    HW256931   2.427   8.137   7.784  0.2534  1.4440 -2.1014
15093SOL     OW56932   3.955   9.833   6.045  0.2377  0.5195  0.6285
15093SOL    HW156933   3.973   9.771   6.122  0.1369 -0.4488 -0.1324
15093SOL    HW256934   3.863   9.817   6.010  1.4042 -1.3074 -1.7665
15094SOL     OW56935   0.850   4.446   1.459 -0.0788  0.2784 -0.5763
15094SOL    HW156936   0.905   4.374   1.415 -1.7293 -0.2957 -1.7711
15094SOL    HW256937   0.887   4.536   1.435  0.7104 -0.1133 -0.8522
15095SOL     OW56938   3.365   8.065   4.135  0.2576  0.0639 -0.3486
15095SOL    HW156939   3.433   8.138   4.138 -1.0775  1.2758  1.2481
15095SOL    HW256940   3.314   8.071   4.049 -0.3333  1.5038  0.0739
15096SOL     OW56941   0.524   8.485   1.996  0.5595  0.6838  0.8538
15096SOL    HW156942   0.494   8.509   2.088  0.8335 -0.3543  1.2189
15096SOL    HW256943   0.607   8.430   2.001 -0.9127 -1.7184  0.1279
15097SOL     OW56944   8.080   9.327   5.062 -0.6142  0.1062 -0.4021
15097SOL    HW156945   8.151   9.382   5.106 -0.3216 -0.0029 -0.7366
15097SOL    HW256946   7.997   9.381   5.052 -0.0982  0.7238 -1.3904
15098SOL     OW56947   1.635   1.152   4.914 -0.3359  0.6241 -0.2024
15098SOL    HW156948   1.563   1.084   4.901  1.4093 -0.9862 -1.9651
15098SOL    HW256949   1.680   1.170   4.826  1.7690  1.1411  0.9403
15099SOL     OW56950   8.296   0.281   6.920  0.2119  0.3705  0.4025
15099SOL    HW156951   8.377   0.278   6.979  0.3083  0.4232  0.2738
15099SOL    HW256952   8.244   0.364   6.939  1.4352  1.5318 -1.1550
15100SOL     OW56953   0.178   6.837   5.140  0.4251 -0.5555 -0.0510
15100SOL    HW156954   0.226   6.879   5.217  0.8785  1.1632 -1.2647
15100SOL    HW256955   0.174   6.738   5.154  1.7240 -0.4103  1.4900
15101SOL     OW56956   0.561   8.731   4.480  0.5011 -0.2640 -0.2073
15101SOL    HW156957   0.533   8.745   4.385 -1.0695  2.5817  0.5974
15101SOL    HW256958   0.656   8.759   4.491  0.3131  0.5973 -0.7087
15102SOL     OW56959   2.466   4.848   2.599  0.1410  0.1173 -0.0851
15102SOL    HW156960   2.373   4.813   2.615  0.2731 -0.7257 -1.0848
15102SOL    HW256961   2.529   4.802   2.661  0.2955 -1.3921 -1.3133
15103SOL     OW56962   0.293   3.959   2.666 -0.0644  0.0632 -0.4270
15103SOL    HW156963   0.204   3.935   2.702 -1.9692  2.4072 -3.3236
15103SOL    HW256964   0.319   4.050   2.700  1.8939 -1.1716  1.4940
15104SOL     OW56965   4.277   4.422   6.985 -0.1585 -0.8536  0.2312
15104SOL    HW156966   4.367   4.399   6.948 -1.1494  0.2858 -3.0452
15104SOL    HW256967   4.216   4.344   6.972 -0.6311 -0.2876 -1.0413
15105SOL     OW56968   1.272   4.147   1.399 -0.1376  0.3601 -0.0478
15105SOL    HW156969   1.278   4.167   1.301  0.0814 -0.0361 -0.1143
15105SOL    HW256970   1.344   4.083   1.425  0.1305  0.8721  0.4772
15106SOL     OW56971   1.815   2.145   3.067 -0.4329 -0.5363  0.1294
15106SOL    HW156972   1.727   2.168   3.027 -0.5456 -2.4785 -0.8015
15106SOL    HW256973   1.802   2.111   3.160 -0.6237 -0.4855  0.1213
15107SOL     OW56974   4.805   0.890   5.264 -0.0778  0.2362  0.1465
15107SOL    HW156975   4.774   0.985   5.268  0.0158  0.2396  0.7880
15107SOL    HW256976   4.789   0.846   5.352 -0.4392 -0.4438 -0.2554
15108SOL     OW56977   1.439   2.529   7.002 -0.4942 -0.0331  0.2183
15108SOL    HW156978   1.444   2.601   7.072 -0.7521  0.0824  0.1197
15108SOL    HW256979   1.351   2.482   7.009 -1.3687  1.3339 -1.3385
15109SOL     OW56980   9.638   0.103   6.515 -0.6954  0.4519  0.2708
15109SOL    HW156981   9.708   0.091   6.445  0.0661 -0.1046  1.1177
15109SOL    HW256982   9.659   0.185   6.569 -0.4924  0.0825  0.7551
15110SOL     OW56983   0.381   9.313   1.728  0.3706 -0.9265 -0.2452
15110SOL    HW156984   0.313   9.252   1.687 -2.2836  0.5580  1.8317
15110SOL    HW256985   0.386   9.296   1.826  1.6777  0.2558 -0.0993
15111SOL     OW56986   8.802   7.468   6.475 -0.2470  0.0973  0.3756
15111SOL    HW156987   8.817   7.445   6.571  1.1121 -1.2662 -0.1478
15111SOL    HW256988   8.890   7.480   6.430 -0.7993 -1.8570 -1.2962
15112SOL     OW56989   7.304   8.635   2.675 -0.2195 -0.1482  0.7305
15112SOL    HW156990   7.246   8.650   2.596 -1.0643 -0.1054  1.3521
15112SOL    HW256991   7.249   8.638   2.759  1.1067  2.7465  1.5628
15113SOL     OW56992   2.821   6.445   6.491 -0.3045 -0.3438  0.4004
15113SOL    HW156993   2.834   6.441   6.392  0.9457 -1.2589  0.5929
15113SOL    HW256994   2.807   6.540   6.519 -1.8444 -0.2015 -0.7934
15114SOL     OW56995   4.312   7.428   3.564 -0.5053 -0.2745  0.4300
15114SOL    HW156996   4.308   7.331   3.589 -1.6900 -0.5483 -0.7758
15114SOL    HW256997   4.376   7.440   3.488  0.6798  0.0990  1.4701
15115SOL     OW56998   7.810   0.389   4.224  0.4546 -0.1879  0.1546
15115SOL    HW156999   7.859   0.366   4.140  1.3662  0.9531  0.3608
15115SOL    HW257000   7.711   0.385   4.207  0.6109 -1.4955 -0.5405
15116SOL     OW57001   5.931   3.641   0.634  0.1544  0.2271  0.0399
15116SOL    HW157002   5.989   3.623   0.555  0.7434 -0.1626  0.5547
15116SOL    HW257003   5.960   3.583   0.710  0.1287  1.2008  0.7953
15117SOL     OW57004   9.987   0.193   8.088 -0.0723  0.0327  0.4018
15117SOL    HW157005   9.939   0.121   8.138 -1.0657  0.0699 -0.4780
15117SOL    HW257006  10.030   0.153   8.007  1.4160 -0.0031  1.2035
15118SOL     OW57007   0.526   5.609   2.998  0.5486 -0.5977 -0.1045
15118SOL    HW157008   0.613   5.639   2.958  2.4131 -1.7450  2.9137
15118SOL    HW257009   0.508   5.514   2.970  0.3677 -0.4324 -0.5530
15119SOL     OW57010   3.874   7.140   3.908 -0.1532  0.3354  0.2658
15119SOL    HW157011   3.886   7.201   3.830  0.5815  0.5442  0.5411
15119SOL    HW257012   3.815   7.184   3.976 -0.3382  0.3784  0.0794
15120SOL     OW57013   4.025   9.201   1.425 -0.7782 -0.2572  0.0511
15120SOL    HW157014   4.120   9.186   1.452  0.2999  1.1675 -2.7075
15120SOL    HW257015   3.967   9.128   1.463  1.6620 -2.0635  0.4378
15121SOL     OW57016   7.562   2.871   4.600  0.5858  0.2727 -0.1302
15121SOL    HW157017   7.531   2.861   4.694  0.9560  0.5727  0.0251
15121SOL    HW257018   7.652   2.828   4.590  0.0251 -0.8047 -0.6345
15122SOL     OW57019   6.388   1.214   8.021  0.0444 -0.0416  0.4140
15122SOL    HW157020   6.388   1.291   7.957  0.7399 -0.1817  0.2399
15122SOL    HW257021   6.469   1.220   8.079 -1.0478  0.6002  1.9103
15123SOL     OW57022   2.920   3.644   2.054 -0.0865 -0.5542 -0.6914
15123SOL    HW157023   2.975   3.580   2.107  0.8854  0.5783 -0.2924
15123SOL    HW257024   2.823   3.629   2.073  0.1238 -2.1280 -0.8803
15124SOL     OW57025   2.761   7.843   4.801  0.2036 -0.0132 -0.2534
15124SOL    HW157026   2.727   7.765   4.854  0.4645  0.5429  0.7320
15124SOL    HW257027   2.711   7.849   4.715 -2.3575  0.9239  1.2579
15125SOL     OW57028   5.829   0.005   4.874  0.5601  0.1578  0.0885
15125SOL    HW157029   5.862  -0.087   4.851 -0.2970 -0.0197 -0.4633
15125SOL    HW257030   5.827   0.060   4.791  3.2409  1.3976  0.7780
15126SOL     OW57031   7.932   1.968   1.631  0.4658 -0.2973  0.2137
15126SOL    HW157032   7.865   1.925   1.570  1.7227 -2.1284  0.0598
15126SOL    HW257033   7.933   2.066   1.616  0.8260 -0.7177 -2.8238
15127SOL     OW57034   2.996   5.493   4.067 -0.1225  0.5351 -0.0853
15127SOL    HW157035   2.979   5.460   3.974 -0.5660 -0.6677  0.4182
15127SOL    HW257036   2.919   5.549   4.097 -1.0129 -0.8973  0.3707
15128SOL     OW57037   5.449   7.593   4.192 -0.0513  0.2938 -0.5007
15128SOL    HW157038   5.524   7.607   4.257 -0.2932  0.4888 -0.2625
15128SOL    HW257039   5.487   7.575   4.101  0.3558 -2.5949  0.1934
15129SOL     OW57040   8.745   4.364   2.103 -0.0044  0.0167  0.1093
15129SOL    HW157041   8.740   4.442   2.165 -0.5650  0.3609 -0.3666
15129SOL    HW257042   8.719   4.281   2.153 -0.8948  0.3578  0.2210
15130SOL     OW57043   1.655   0.511   3.425  0.1649  0.5993 -0.1888
15130SOL    HW157044   1.619   0.490   3.515 -1.3712 -1.4172 -1.2265
15130SOL    HW257045   1.624   0.601   3.397 -0.8756  0.4699  0.5395
15131SOL     OW57046   5.387   5.457   8.062 -0.0371 -0.2187 -0.1141
15131SOL    HW157047   5.429   5.505   8.140 -1.3685  0.3094  0.2817
15131SOL    HW257048   5.458   5.436   7.995  0.5630  2.4763 -0.3825
15132SOL     OW57049   7.308   7.661   2.508  0.4638  0.4403 -0.3137
15132SOL    HW157050   7.362   7.658   2.424  1.7869 -1.4731  0.5507
15132SOL    HW257051   7.369   7.679   2.586 -0.3181 -0.5033  0.5319
15133SOL     OW57052   9.006   4.327   7.930  0.1880 -0.2719  0.1736
15133SOL    HW157053   8.935   4.283   7.985  1.7390 -2.7704  0.2533
15133SOL    HW257054   8.974   4.337   7.836 -1.6027  1.9102  0.9887
15134SOL     OW57055   4.504   9.536   2.773 -0.5281 -0.1247 -0.3999
15134SOL    HW157056   4.494   9.546   2.872  0.7334  1.0370 -0.3636
15134SOL    HW257057   4.581   9.476   2.753 -0.7666 -0.3390 -0.6767
15135SOL     OW57058   1.869   5.069   1.135  0.4571 -0.2022 -0.5311
15135SOL    HW157059   1.792   5.117   1.093 -1.0770 -0.0205  2.3474
15135SOL    HW257060   1.846   4.972   1.145  1.5099 -0.5856 -1.6530
15136SOL     OW57061   2.211   5.547   3.198 -0.2960 -0.2370 -0.3265
15136SOL    HW157062   2.226   5.605   3.117 -0.4075  0.6762  0.2951
15136SOL    HW257063   2.200   5.605   3.279  0.2028 -1.1560  0.4136
15137SOL     OW57064   2.326   6.888   0.050 -0.2450  0.0857 -0.0362
15137SOL    HW157065   2.261   6.932   0.112 -1.2848 -2.5699  0.8313
15137SOL    HW257066   2.418   6.897   0.087 -0.8252 -1.2809  1.8120
15138SOL     OW57067   9.933   6.569   3.922  0.0345 -0.0404 -0.1230
15138SOL    HW157068   9.950   6.659   3.963 -0.0716  0.2259 -0.6589
15138SOL    HW257069   9.841   6.538   3.946 -0.2714  0.4143 -0.7127
15139SOL     OW57070   0.701   0.022   7.829  0.5425 -0.7029 -0.3986
15139SOL    HW157071   0.649   0.067   7.756 -0.9158 -2.8777 -0.7499
15139SOL    HW257072   0.665   0.052   7.918  0.9207  0.3342 -0.5860
15140SOL     OW57073   4.728   2.150   6.317 -0.2157  0.0224  0.1024
15140SOL    HW157074   4.799   2.206   6.359 -0.3772  1.4118 -1.4190
15140SOL    HW257075   4.650   2.142   6.379  0.5791 -0.1073  1.0943
15141SOL     OW57076   1.684   5.073   6.500 -0.0641 -0.0468 -0.4701
15141SOL    HW157077   1.613   5.038   6.439 -1.1413  0.5739  0.4006
15141SOL    HW257078   1.670   5.035   6.592  0.2863  0.6657 -0.1220
15142SOL     OW57079   3.659   9.845   3.324 -0.3825 -0.2441 -0.2499
15142SOL    HW157080   3.722   9.774   3.353 -0.2682 -0.6545 -1.4917
15142SOL    HW257081   3.589   9.806   3.265 -0.7759  0.5302 -0.3045
15143SOL     OW57082   0.884   6.918   4.179  0.0852 -0.0168 -0.1866
15143SOL    HW157083   0.873   7.017   4.191 -1.4430 -0.1041 -0.7472
15143SOL    HW257084   0.917   6.899   4.087  1.2501  0.0090  0.2138
15144SOL     OW57085   6.989   1.519   7.996  0.1356  0.3948  0.6224
15144SOL    HW157086   6.932   1.590   7.955 -0.1974 -0.7952 -1.0503
15144SOL    HW257087   6.974   1.516   8.095 -1.2464  1.3729  0.4518
15145SOL     OW57088   1.256   6.415   2.481 -0.2035  0.3896 -0.6734
15145SOL    HW157089   1.349   6.381   2.494  0.1564  1.0160 -1.5657
15145SOL    HW257090   1.220   6.384   2.393 -0.9290 -0.0408 -0.2347
15146SOL     OW57091   3.535   1.742   5.140  0.3891  0.2053 -0.4086
15146SOL    HW157092   3.602   1.745   5.066  0.1480 -0.6913 -0.6619
15146SOL    HW257093   3.525   1.648   5.173 -0.4329  0.4029 -0.0893
15147SOL     OW57094   1.602   8.323   3.072 -0.2321  0.0184 -0.2925
15147SOL    HW157095   1.659   8.284   3.143 -0.4463 -1.3894 -0.8665
15147SOL    HW257096   1.654   8.330   2.987 -0.3153  0.6105 -0.2964
15148SOL     OW57097   1.863   9.708   7.966  0.1112  0.4155 -0.3006
15148SOL    HW157098   1.933   9.664   8.023 -0.1001 -2.5655 -2.2064
15148SOL    HW257099   1.899   9.791   7.926  2.1065 -0.3576 -0.1593
15149SOL     OW57100   2.346   5.106   6.059 -0.5126 -0.2165 -0.2392
15149SOL    HW157101   2.404   5.181   6.026 -0.9073 -0.4702 -1.5021
15149SOL    HW257102   2.296   5.137   6.140 -0.3862  0.7643 -0.5266
15150SOL     OW57103   8.335   7.684   6.050  0.0912  0.1025  0.1417
15150SOL    HW157104   8.294   7.759   6.101 -1.6692  1.0525 -2.5623
15150SOL    HW257105   8.385   7.720   5.971 -0.2918 -1.5138 -0.8710
15151SOL     OW57106   8.070   2.906   2.713 -0.4649 -0.5423 -0.0781
15151SOL    HW157107   8.124   2.829   2.746 -0.1999 -0.5112 -0.4364
15151SOL    HW257108   7.980   2.874   2.683 -0.3121 -0.7276 -0.3365
15152SOL     OW57109   2.554   2.521   2.929  0.0341 -0.0725  0.0252
15152SOL    HW157110   2.479   2.468   2.888  0.2213 -0.1147 -0.2621
15152SOL    HW257111   2.573   2.485   3.020  0.2200 -0.5577 -0.2041
15153SOL     OW57112   1.606   8.949   2.895  0.5849  0.0046  0.6008
15153SOL    HW157113   1.543   8.942   2.817  0.1907 -0.0671  0.9185
15153SOL    HW257114   1.695   8.982   2.864  0.5627 -0.4458  0.0523
15154SOL     OW57115   6.765   8.782   3.792  0.7064  0.3276  0.2353
15154SOL    HW157116   6.723   8.728   3.865  0.7970  0.7616  0.6189
15154SOL    HW257117   6.861   8.757   3.783  1.0222  1.1708  1.1456
15155SOL     OW57118   1.748   8.893   0.089 -0.5620 -0.1977 -0.3049
15155SOL    HW157119   1.764   8.938   0.177  2.1130 -1.9633  0.1626
15155SOL    HW257120   1.835   8.887   0.038 -1.3400 -2.5695 -1.4202
15156SOL     OW57121   2.658   3.552   3.101  0.0976  0.8132  0.1672
15156SOL    HW157122   2.692   3.611   3.174  0.3803  0.4861  0.3003
15156SOL    HW257123   2.581   3.596   3.055  1.1900  1.9274 -0.6489
15157SOL     OW57124   9.353   5.977   5.395 -0.3597  0.0567 -0.0430
15157SOL    HW157125   9.317   5.930   5.476 -0.5496  1.3948  0.6641
15157SOL    HW257126   9.281   5.984   5.326 -1.3685  2.2823  1.1755
15158SOL     OW57127   8.461   7.374   3.257  0.3743  0.3009  0.3584
15158SOL    HW157128   8.414   7.405   3.339 -0.3073 -0.4806  0.2772
15158SOL    HW257129   8.555   7.349   3.280  0.2766  0.3663  0.8425
15159SOL     OW57130   2.709   3.030   2.135  0.4675 -0.3305 -0.2347
15159SOL    HW157131   2.775   3.105   2.136  0.0532  0.1085 -2.8898
15159SOL    HW257132   2.628   3.056   2.187  0.5045  0.9178 -0.7780
15160SOL     OW57133   4.872   9.750   6.093  1.0451 -0.2656 -0.3749
15160SOL    HW157134   4.953   9.807   6.079  0.4085  0.3844 -1.5389
15160SOL    HW257135   4.800   9.805   6.137  0.2124  0.0619 -2.0601
15161SOL     OW57136   8.528   3.686   1.788  0.6001  0.1638  0.5647
15161SOL    HW157137   8.529   3.732   1.700  1.2398  0.0912  0.5332
15161SOL    HW257138   8.601   3.721   1.845  0.2999  0.0857  1.0052
15162SOL     OW57139   9.682   2.711   3.131  0.2539  0.3379 -0.2384
15162SOL    HW157140   9.594   2.713   3.083  0.8452 -0.9221 -1.4289
15162SOL    HW257141   9.741   2.782   3.094  0.0219  0.6381 -0.0289
15163SOL     OW57142   2.048   2.817   0.110  0.1883  0.0344  0.2262
15163SOL    HW157143   1.965   2.849   0.064  1.0688 -0.5749 -1.8321
15163SOL    HW257144   2.077   2.885   0.177 -0.5302  1.4514 -0.8762
15164SOL     OW57145   3.453   2.799   2.134 -0.5196  0.5373  0.0446
15164SOL    HW157146   3.540   2.751   2.148 -0.2523  0.6770 -1.0977
15164SOL    HW257147   3.468   2.881   2.080 -1.2368  1.0289  0.5844
15165SOL     OW57148   4.857   8.799   3.803 -0.1911  0.2568 -0.0587
15165SOL    HW157149   4.802   8.804   3.886 -0.6780  2.9584 -0.4847
15165SOL    HW257150   4.945   8.756   3.824 -0.9399 -0.5838  1.4626
15166SOL     OW57151   3.293   8.729   4.096  0.3040  0.4352  0.0545
15166SOL    HW157152   3.272   8.633   4.076  0.0854  0.4686  0.1178
15166SOL    HW257153   3.208   8.781   4.104  0.4725  1.1667 -2.5752
15167SOL     OW57154   1.841   9.854   0.304 -0.1637 -0.5485  0.0076
15167SOL    HW157155   1.911   9.783   0.286 -1.0186 -1.9175  1.9531
15167SOL    HW257156   1.751   9.818   0.280 -0.3592  0.8030 -1.3679
15168SOL     OW57157   4.671   9.735   4.426  0.2630 -0.0426 -0.3201
15168SOL    HW157158   4.627   9.824   4.408  0.7880  0.2057 -0.3787
15168SOL    HW257159   4.743   9.720   4.359 -1.5044 -1.6806 -1.9337
15169SOL     OW57160   9.669   0.793   7.366  0.3481 -0.1321  0.2567
15169SOL    HW157161   9.583   0.807   7.317  0.9878  3.0762 -0.0958
15169SOL    HW257162   9.651   0.781   7.463 -0.6297 -1.9270 -0.1256
15170SOL     OW57163   3.257   3.687   0.352  0.4981  0.3393  0.0267
15170SOL    HW157164   3.288   3.770   0.397  0.7847  0.0220  0.4225
15170SOL    HW257165   3.330   3.651   0.293  0.1666  0.6877 -0.5932
15171SOL     OW57166   6.348   8.025   3.387  0.1061  0.5144  0.0966
15171SOL    HW157167   6.303   8.024   3.298  1.1141  0.3819 -0.4194
15171SOL    HW257168   6.326   7.942   3.437  0.3800  0.1019 -0.4629
15172SOL     OW57169   8.885   5.579   2.669 -0.0078  0.0996  0.1158
15172SOL    HW157170   8.891   5.584   2.570  0.1014 -0.9428  0.0644
15172SOL    HW257171   8.944   5.648   2.710  0.4961  0.0527 -0.5340
15173SOL     OW57172   8.216   2.641   7.862 -0.4556  0.1530  0.4931
15173SOL    HW157173   8.269   2.565   7.824 -0.9977  0.0870 -0.1372
15173SOL    HW257174   8.163   2.608   7.941  0.2184  0.1518  0.9424
15174SOL     OW57175   7.765   8.038   2.172  0.1160  0.2041  0.0554
15174SOL    HW157176   7.669   8.018   2.189  0.1224  0.8780  0.9494
15174SOL    HW257177   7.808   7.960   2.127 -0.5770 -0.5561  0.6891
15175SOL     OW57178   0.920   3.510   5.107 -1.0153 -0.4466  0.0372
15175SOL    HW157179   0.955   3.511   5.201 -2.8737 -0.0774  0.7363
15175SOL    HW257180   0.988   3.552   5.046 -0.2389  0.2863  1.3828
15176SOL     OW57181   9.262   0.767   1.115 -0.2627  0.2707 -0.2024
15176SOL    HW157182   9.182   0.755   1.056 -1.7630  2.2166  1.3797
15176SOL    HW257183   9.337   0.807   1.061 -0.0633 -2.1556 -1.8490
15177SOL     OW57184   3.712   5.344   7.411  0.1059 -0.6490 -0.1947
15177SOL    HW157185   3.783   5.274   7.407 -0.0281 -0.7033 -2.3898
15177SOL    HW257186   3.623   5.302   7.398 -0.2151 -0.4130  1.2330
15178SOL     OW57187   4.443   5.065   7.666  0.1169 -0.2010 -0.3741
15178SOL    HW157188   4.365   5.109   7.712  0.0368  1.5252 -2.1125
15178SOL    HW257189   4.493   5.010   7.733 -1.5402  0.0999  1.1844
15179SOL     OW57190   2.343   0.173   1.534 -0.0745  0.1142  0.1673
15179SOL    HW157191   2.332   0.245   1.603 -0.1656  0.4190 -0.1596
15179SOL    HW257192   2.254   0.155   1.491 -0.2897 -1.0359  1.0733
15180SOL     OW57193   8.712   9.495   2.258  0.4912 -0.5051 -0.1410
15180SOL    HW157194   8.686   9.550   2.337  0.2163 -0.5360 -0.2099
15180SOL    HW257195   8.804   9.459   2.271  0.9834  0.6205 -0.4400
15181SOL     OW57196   1.047   9.610   8.116 -0.4426  0.1282 -0.0792
15181SOL    HW157197   1.073   9.673   8.043  2.0638 -0.1248  0.5276
15181SOL    HW257198   1.017   9.523   8.077 -3.8300  1.6309 -0.9104
15182SOL     OW57199   7.311   9.556   1.909 -0.3350 -0.5571  0.0287
15182SOL    HW157200   7.348   9.464   1.919  1.4450  0.3540  2.1089
15182SOL    HW257201   7.340   9.613   1.986 -1.1010  1.8523 -1.3973
15183SOL     OW57202   8.631   7.941   4.207 -0.0409 -0.4968  0.5687
15183SOL    HW157203   8.678   7.935   4.295 -0.9175  0.1746  1.0892
15183SOL    HW257204   8.569   7.864   4.196 -0.1986 -0.3889  0.6998
15184SOL     OW57205   2.140   3.967   6.804  0.0215  0.2760 -0.3580
15184SOL    HW157206   2.236   3.943   6.818 -0.2397 -0.0616  0.8761
15184SOL    HW257207   2.089   3.885   6.778 -0.6480 -0.3199  2.7141
15185SOL     OW57208   2.983   3.893   3.303 -0.7445 -0.4440  0.7063
15185SOL    HW157209   3.070   3.867   3.262 -0.9836  0.0797 -0.1432
15185SOL    HW257210   2.982   3.992   3.320 -2.1885  0.0083 -1.7851
15186SOL     OW57211   8.310   9.503   4.894  0.0596 -0.4735  0.2108
15186SOL    HW157212   8.219   9.481   4.859  1.1943 -1.9601 -1.9887
15186SOL    HW257213   8.361   9.553   4.824  0.8920  0.4454  1.4687
15187SOL     OW57214   5.491   2.418   4.814 -0.3816 -0.9424  0.2328
15187SOL    HW157215   5.471   2.378   4.903  0.1063 -0.6442  0.4737
15187SOL    HW257216   5.561   2.489   4.823 -0.0971 -1.1324 -0.4323
15188SOL     OW57217   1.241   6.500   1.388  0.5094  0.3244 -0.1763
15188SOL    HW157218   1.208   6.414   1.426  1.5439  0.5664  1.2872
15188SOL    HW257219   1.166   6.567   1.388 -0.1658 -0.4238 -0.8813
15189SOL     OW57220   7.788   7.356   3.386  0.2254  0.5429  0.4213
15189SOL    HW157221   7.843   7.347   3.303  0.1401  0.4788  0.3716
15189SOL    HW257222   7.840   7.407   3.455  0.0672  1.1241  0.1176
15190SOL     OW57223   1.244   1.882   4.877 -0.0395 -0.8178 -0.2866
15190SOL    HW157224   1.199   1.963   4.841  1.3150 -0.6158 -1.5865
15190SOL    HW257225   1.321   1.857   4.818 -0.3160 -2.9394  0.1966
15191SOL     OW57226   9.779   3.140   5.481  0.1803  0.0881 -0.1651
15191SOL    HW157227   9.749   3.134   5.577  1.7327 -1.3372  0.2521
15191SOL    HW257228   9.702   3.119   5.421 -0.9978  1.7086  0.7355
15192SOL     OW57229   5.809   9.207   2.257 -0.2140  0.2970  0.0718
15192SOL    HW157230   5.791   9.109   2.248  0.7597 -0.1356  2.5103
15192SOL    HW257231   5.902   9.227   2.226 -0.2718  0.4024 -0.0358
15193SOL     OW57232   2.842   5.555   5.233  0.0284 -0.2014 -0.3616
15193SOL    HW157233   2.845   5.654   5.217 -2.1327 -0.1265 -0.4996
15193SOL    HW257234   2.876   5.534   5.324 -0.0712  0.7262 -0.1145
15194SOL     OW57235   9.590   7.382   3.248 -0.1217 -0.7117  0.5389
15194SOL    HW157236   9.634   7.386   3.338 -0.8193 -2.7526  0.9931
15194SOL    HW257237   9.657   7.351   3.180  0.8508  2.3685  0.0076
15195SOL     OW57238   7.870   1.624   5.521 -0.2263  0.2704  0.2660
15195SOL    HW157239   7.867   1.705   5.463  0.1080 -0.9926 -1.5721
15195SOL    HW257240   7.789   1.621   5.578 -0.8018  1.3133 -0.4668
15196SOL     OW57241   3.860   4.529   3.209 -0.3374  0.3309  0.4799
15196SOL    HW157242   3.836   4.625   3.192  0.2504  0.2092 -1.1250
15196SOL    HW257243   3.875   4.483   3.121 -1.0214 -1.3400  1.2215
15197SOL     OW57244   3.392   6.956   5.209 -0.0302  0.1552 -0.3751
15197SOL    HW157245   3.455   7.033   5.220 -2.7941  2.2322  1.7199
15197SOL    HW257246   3.315   6.984   5.152 -1.0259 -1.0522  0.3453
15198SOL     OW57247   5.653   6.482   1.362 -0.1358  0.0300 -0.4442
15198SOL    HW157248   5.579   6.480   1.429 -0.8046  0.6808 -1.1560
15198SOL    HW257249   5.688   6.390   1.349 -0.6210 -0.2396  0.1190
15199SOL     OW57250   2.736   3.046   0.948  0.3553  0.1350  0.2703
15199SOL    HW157251   2.741   2.973   0.880  0.2163 -0.0376  0.4467
15199SOL    HW257252   2.717   3.007   1.038 -1.4781  0.5364  0.0783
15200SOL     OW57253   0.787   0.865   6.341  0.0977 -0.0757  0.4398
15200SOL    HW157254   0.837   0.779   6.350  2.4612  1.3174  1.2948
15200SOL    HW257255   0.771   0.884   6.244 -0.9839 -1.7384  0.2690
15201SOL     OW57256   3.183   2.721   7.267 -0.3436 -0.2832  0.1029
15201SOL    HW157257   3.178   2.637   7.321 -0.6174 -1.2184 -1.3547
15201SOL    HW257258   3.101   2.729   7.211 -0.2665  0.9111  0.1484
15202SOL     OW57259   5.753   0.912   4.045 -0.2330 -0.4142  0.3123
15202SOL    HW157260   5.852   0.926   4.042 -0.6285  2.6647 -0.7740
15202SOL    HW257261   5.715   0.929   3.954 -2.0020  0.8098  1.2481
15203SOL     OW57262   4.621   9.126   1.451  0.1786 -0.0435 -0.3773
15203SOL    HW157263   4.606   9.215   1.495 -1.1141 -0.5667  0.2629
15203SOL    HW257264   4.715   9.120   1.419  0.3709  1.4264 -0.1118
15204SOL     OW57265   0.750   7.953   3.881  0.4883  0.5962 -0.1481
15204SOL    HW157266   0.814   7.897   3.828  0.4458  0.4699 -0.0678
15204SOL    HW257267   0.758   7.930   3.978  1.0268  1.2978 -0.0301
15205SOL     OW57268   3.359   8.040   7.193 -0.0099  0.4409  0.0702
15205SOL    HW157269   3.349   7.969   7.123  0.0902 -1.3528  1.8331
15205SOL    HW257270   3.383   7.998   7.280  2.5404  2.8831  0.6060
15206SOL     OW57271   9.265   3.605   0.907 -0.2693  0.2104  0.1378
15206SOL    HW157272   9.342   3.668   0.912 -1.3875  1.5353  1.2161
15206SOL    HW257273   9.253   3.560   0.995  1.0807 -2.2348 -0.8846
15207SOL     OW57274   2.486   3.841   6.449 -0.3462 -0.0295 -0.6857
15207SOL    HW157275   2.452   3.754   6.412 -0.3006 -0.2939 -0.1138
15207SOL    HW257276   2.414   3.885   6.502 -0.3206  0.2121 -0.8509
15208SOL     OW57277   0.659   3.294   3.752  0.9643  0.4160  0.2683
15208SOL    HW157278   0.733   3.282   3.818  1.9371 -2.1652 -1.2641
15208SOL    HW257279   0.608   3.209   3.742  0.7960  0.7745 -2.3050
15209SOL     OW57280   0.147   3.358   0.178  0.2953  0.1142 -0.0741
15209SOL    HW157281   0.210   3.322   0.109 -0.0329  0.1566 -0.3975
15209SOL    HW257282   0.174   3.326   0.268 -1.2515 -2.7184 -0.5748
15210SOL     OW57283   3.683   1.128   1.280  0.0548  0.0419 -0.4748
15210SOL    HW157284   3.780   1.109   1.268  0.3431  1.6951 -0.8934
15210SOL    HW257285   3.641   1.142   1.190 -0.8585 -1.9925 -0.3821
15211SOL     OW57286   2.368   6.352   4.297 -0.5647  0.0511 -0.0529
15211SOL    HW157287   2.273   6.323   4.308 -0.7959  0.6091 -0.5390
15211SOL    HW257288   2.371   6.451   4.283  0.0284 -0.0558 -0.7444
15212SOL     OW57289   0.309   9.707   0.061  0.0520  0.0529  0.1265
15212SOL    HW157290   0.355   9.619   0.046  0.5300  0.2082  0.6424
15212SOL    HW257291   0.378   9.777   0.079 -0.2250  0.8800 -1.9076
15213SOL     OW57292   0.352   9.594   3.538  0.3755 -0.2766 -0.0398
15213SOL    HW157293   0.258   9.577   3.510  0.1949  0.3748  0.1670
15213SOL    HW257294   0.396   9.657   3.474  0.2914  0.3757  0.5332
15214SOL     OW57295   9.832   7.939   0.333  0.4746 -0.1297 -0.1886
15214SOL    HW157296   9.816   7.964   0.238 -0.4442 -2.2892 -0.6459
15214SOL    HW257297   9.928   7.913   0.345  0.4417 -0.4930 -0.6915
15215SOL     OW57298   8.351   3.920   3.172  0.1578 -0.2299 -0.3532
15215SOL    HW157299   8.399   3.963   3.248  0.1259  2.0562 -1.6053
15215SOL    HW257300   8.361   3.820   3.179  0.9382 -0.0123  2.0980
15216SOL     OW57301   3.343   8.279   2.738  0.4380 -0.1181 -0.5378
15216SOL    HW157302   3.398   8.218   2.681  0.7636  0.7045 -1.1166
15216SOL    HW257303   3.249   8.279   2.705  0.0288 -1.7193  0.6088
15217SOL     OW57304   8.309   9.716   6.439 -0.1904  0.2293  0.3679
15217SOL    HW157305   8.233   9.773   6.410  0.2692  0.2862 -0.7475
15217SOL    HW257306   8.315   9.635   6.381 -0.8147 -0.9523  1.9212
15218SOL     OW57307   1.009   5.054   5.215  0.5582  0.0057 -0.1418
15218SOL    HW157308   0.967   5.144   5.206 -1.1563 -0.4264  2.8657
15218SOL    HW257309   0.998   5.003   5.129  0.1103  2.0489 -1.3138
15219SOL     OW57310   0.857   5.370   3.757 -0.0750  0.1391 -0.5919
15219SOL    HW157311   0.929   5.403   3.819 -0.4606  0.4131 -0.2856
15219SOL    HW257312   0.780   5.337   3.811 -0.3228  0.1747 -0.9248
15220SOL     OW57313   2.158   0.308   4.018  0.0204 -0.2524 -0.2042
15220SOL    HW157314   2.168   0.208   4.011 -0.6150 -0.3122 -0.2533
15220SOL    HW257315   2.179   0.337   4.111  0.9774 -0.3366 -0.3817
15221SOL     OW57316   9.520   2.195   3.036 -0.4474  0.0668  0.0222
15221SOL    HW157317   9.546   2.129   3.106 -0.3644  0.8047  0.6902
15221SOL    HW257318   9.542   2.158   2.946 -1.4466 -1.3048  0.3133
15222SOL     OW57319   1.792   7.027   1.003 -0.5367 -0.0200  0.1133
15222SOL    HW157320   1.877   7.050   0.956 -1.3050  0.4133 -1.0737
15222SOL    HW257321   1.756   6.941   0.966 -1.7438  0.9127 -0.9289
15223SOL     OW57322   1.781   0.581   2.620 -0.0493 -0.6209  0.3312
15223SOL    HW157323   1.820   0.553   2.707  0.8494  0.7048  0.3669
15223SOL    HW257324   1.685   0.606   2.632  0.2441  0.1425  1.0499
15224SOL     OW57325   0.373   2.785   3.843 -0.3720  0.5219  0.7593
15224SOL    HW157326   0.364   2.686   3.850  0.0626  0.4607  0.4251
15224SOL    HW257327   0.290   2.828   3.880 -0.1213  0.0663  1.8898
15225SOL     OW57328   7.202   8.129   3.034 -0.4491  0.4340 -0.0637
15225SOL    HW157329   7.245   8.156   3.120 -3.1191  1.8830  0.8786
15225SOL    HW257330   7.139   8.053   3.049 -0.5796  0.3816 -0.8119
15226SOL     OW57331   5.256   1.836   3.297 -0.4651 -0.1625 -0.0335
15226SOL    HW157332   5.346   1.816   3.335 -0.6140 -1.4894 -0.3535
15226SOL    HW257333   5.212   1.907   3.351  1.2965  1.4376 -0.6434
15227SOL     OW57334   0.270   8.383   6.385  0.1081  0.2641 -0.1155
15227SOL    HW157335   0.213   8.397   6.304 -1.3663  1.8600  1.1491
15227SOL    HW257336   0.238   8.442   6.459  0.6042 -2.0912  2.0553
15228SOL     OW57337   9.020   2.540   1.167 -0.4021  0.2371  0.0886
15228SOL    HW157338   8.949   2.486   1.121  1.4584 -1.7313 -0.5911
15228SOL    HW257339   9.048   2.616   1.108 -3.7613  2.6598  1.4723
15229SOL     OW57340   0.362   6.593   1.305 -0.1510 -0.2060  0.2381
15229SOL    HW157341   0.404   6.510   1.268  2.9833  1.9812 -1.3938
15229SOL    HW257342   0.273   6.608   1.262  1.2647 -0.3459 -2.9045
15230SOL     OW57343   1.704   9.347   3.441 -0.1237 -0.1829 -0.2335
15230SOL    HW157344   1.694   9.247   3.448  2.5050 -0.6145 -1.7098
15230SOL    HW257345   1.768   9.378   3.512 -0.8213  0.4583  0.1232
15231SOL     OW57346   2.151   9.593   5.500  0.2532  0.0675  0.2825
15231SOL    HW157347   2.224   9.641   5.550 -1.2163  1.4701  1.1336
15231SOL    HW257348   2.065   9.641   5.514 -0.4239 -0.2412 -2.6238
15232SOL     OW57349   8.124   9.507   7.355  0.3193 -0.3024 -0.5791
15232SOL    HW157350   8.105   9.410   7.367  1.9611 -0.4554  1.0611
15232SOL    HW257351   8.161   9.523   7.263 -0.2802 -1.1721 -0.9755
15233SOL     OW57352   1.964   0.553   4.388 -0.1620 -0.2741  0.3402
15233SOL    HW157353   1.917   0.518   4.469 -1.8771  1.0954 -0.0345
15233SOL    HW257354   1.985   0.650   4.402  3.6086 -1.1142  0.9646
15234SOL     OW57355   9.806   2.292   2.468  0.1982 -0.1538 -0.1320
15234SOL    HW157356   9.807   2.234   2.387  0.8786  0.5292 -0.6236
15234SOL    HW257357   9.784   2.237   2.548  0.8012 -1.0798 -0.5974
15235SOL     OW57358   9.425   1.639   1.914 -0.0234 -0.1173 -0.5352
15235SOL    HW157359   9.350   1.573   1.903 -0.0640 -0.5237  1.8694
15235SOL    HW257360   9.511   1.589   1.927  0.4562  0.3422 -1.8578
15236SOL     OW57361   1.766   4.147   3.373  0.0201  0.5248 -0.4490
15236SOL    HW157362   1.840   4.145   3.440 -0.8707 -0.1392  0.5361
15236SOL    HW257363   1.775   4.228   3.316 -0.6087  2.4500  2.0896
15237SOL     OW57364   0.525   0.287   5.388 -0.3596 -0.3169  0.1801
15237SOL    HW157365   0.435   0.244   5.387 -1.0117  1.0034 -1.0429
15237SOL    HW257366   0.595   0.221   5.361 -1.1216 -1.0496  0.0013
15238SOL     OW57367   8.880   4.805   0.557  0.3364  0.3747  0.3445
15238SOL    HW157368   8.943   4.741   0.600  0.6528 -0.0610 -0.7394
15238SOL    HW257369   8.814   4.838   0.624  1.3214  0.3398  1.3364
15239SOL     OW57370   4.625   4.421   8.108 -0.2378 -0.1083  0.1502
15239SOL    HW157371   4.573   4.336   8.097  2.2329 -1.7767  1.0930
15239SOL    HW257372   4.560   4.497   8.120 -2.4800 -1.9128 -0.0622
15240SOL     OW57373   8.202   8.740   5.306 -0.3497  0.3776 -0.2992
15240SOL    HW157374   8.136   8.750   5.230 -0.5941 -1.6206 -0.3643
15240SOL    HW257375   8.244   8.650   5.301  0.1513  0.5070  1.5572
15241SOL     OW57376   3.070   9.342   5.841  0.1468  0.3204 -0.4375
15241SOL    HW157377   3.102   9.434   5.817  0.4325 -0.0552 -1.5439
15241SOL    HW257378   3.116   9.275   5.783 -1.4457 -0.3721 -0.9245
15242SOL     OW57379   0.532   2.595   5.651 -0.2689  0.2932  0.1437
15242SOL    HW157380   0.541   2.532   5.728  1.6930 -0.6197 -0.8150
15242SOL    HW257381   0.492   2.548   5.573 -0.3222  0.6844 -0.0700
15243SOL     OW57382   7.545   6.619   7.417  0.2477  0.2228 -0.2174
15243SOL    HW157383   7.547   6.701   7.360  0.7893  0.1020 -0.3800
15243SOL    HW257384   7.631   6.612   7.468  0.0419 -0.0290  0.0965
15244SOL     OW57385   4.232   9.393   4.096  0.0565 -0.4255  0.4522
15244SOL    HW157386   4.187   9.435   4.017  0.2064 -0.3360  0.4120
15244SOL    HW257387   4.323   9.361   4.069 -0.4080 -1.5958  0.2571
15245SOL     OW57388   4.038   0.078   4.362 -0.3741 -0.3786  0.1768
15245SOL    HW157389   4.086   0.163   4.342  0.2862 -1.3391 -2.4953
15245SOL    HW257390   4.076   0.004   4.307 -3.0029 -1.7762  0.1353
15246SOL     OW57391   0.331   6.395   6.325  0.3263  0.2982  0.3002
15246SOL    HW157392   0.377   6.446   6.399 -0.3431  1.6282 -0.1932
15246SOL    HW257393   0.251   6.446   6.294 -0.3551 -1.0659 -0.2126
15247SOL     OW57394   7.372   5.199   6.737  0.2497  0.3747  0.3521
15247SOL    HW157395   7.452   5.212   6.679  1.1663 -0.0999  1.4899
15247SOL    HW257396   7.386   5.118   6.795 -0.2479  1.3789  1.8852
15248SOL     OW57397   9.317   4.368   7.557  0.2727 -0.0430  0.5278
15248SOL    HW157398   9.355   4.291   7.609  0.5525 -0.6580 -0.5724
15248SOL    HW257399   9.349   4.454   7.597 -0.6837 -0.4732  2.2530
15249SOL     OW57400   3.384   1.523   7.836 -0.8474 -0.2695  0.1057
15249SOL    HW157401   3.420   1.538   7.743 -0.5034 -0.0537  0.2709
15249SOL    HW257402   3.445   1.568   7.902 -1.2035 -0.2498  0.4190
15250SOL     OW57403   6.037   0.343   2.902  0.3223  0.1152 -0.4493
15250SOL    HW157404   6.011   0.417   2.964  0.3792 -0.2952  0.0703
15250SOL    HW257405   5.996   0.257   2.934  0.2299 -0.0706 -1.0652
15251SOL     OW57406   9.501   5.450   8.081 -0.2333  0.4341 -0.0910
15251SOL    HW157407   9.463   5.505   8.156 -1.8067  1.3467 -1.5201
15251SOL    HW257408   9.600   5.447   8.089 -0.3528  0.8740  1.7990
15252SOL     OW57409   3.365   0.321   3.185  0.2081 -0.2476 -0.1337
15252SOL    HW157410   3.304   0.381   3.134 -0.4218  0.2646  1.2133
15252SOL    HW257411   3.414   0.262   3.121 -0.8247  0.1422 -1.3032
15253SOL     OW57412   8.257   5.756   1.456 -0.1109  0.1688  0.0744
15253SOL    HW157413   8.292   5.695   1.385 -1.3982 -1.6204  0.9397
15253SOL    HW257414   8.302   5.736   1.543 -1.9549 -0.9359  0.8016
15254SOL     OW57415   3.776   2.926   1.222 -0.1907  0.3540 -0.4485
15254SOL    HW157416   3.724   2.951   1.304 -0.0400  1.8636 -0.7949
15254SOL    HW257417   3.712   2.900   1.149 -0.2962 -1.7464  0.3696
15255SOL     OW57418   4.914   3.667   1.946  0.7402  0.7080  0.0289
15255SOL    HW157419   4.898   3.749   1.892  1.0214  2.2114  2.1816
15255SOL    HW257420   5.001   3.625   1.919  1.3377  1.9734 -0.0234
15256SOL     OW57421   9.539   6.412   0.835  0.0203  0.1196  0.1705
15256SOL    HW157422   9.607   6.480   0.810  1.0275 -0.7204  0.5788
15256SOL    HW257423   9.518   6.419   0.932 -0.4875  0.3808  0.0452
15257SOL     OW57424   1.728   4.810   2.143 -0.5404  0.6032 -0.0290
15257SOL    HW157425   1.757   4.822   2.048  2.0572 -2.1082  0.3252
15257SOL    HW257426   1.639   4.764   2.146 -0.3252  0.1093 -1.1412
15258SOL     OW57427   9.709   8.592   7.446  0.4094  0.0496  0.3739
15258SOL    HW157428   9.712   8.692   7.458 -0.4791  0.0754  0.3875
15258SOL    HW257429   9.695   8.571   7.349  4.7234 -0.1296 -0.3101
15259SOL     OW57430   4.061   1.407   7.498  0.2315  0.3075 -0.4102
15259SOL    HW157431   4.050   1.459   7.583 -0.6576  0.4206 -0.5947
15259SOL    HW257432   4.136   1.342   7.509  1.2451  1.5099 -0.1200
15260SOL     OW57433   3.860   8.705   6.870 -0.4767  0.6167  0.0926
15260SOL    HW157434   3.837   8.721   6.774 -1.2795  1.7731  0.4639
15260SOL    HW257435   3.888   8.609   6.883  1.5730  0.9593 -1.6437
15261SOL     OW57436   3.099   6.238   5.454 -0.0417 -0.6160 -0.6594
15261SOL    HW157437   3.142   6.276   5.372  0.1616  0.1125 -0.2277
15261SOL    HW257438   3.052   6.311   5.503 -0.3827 -1.0974 -0.2638
15262SOL     OW57439   5.275   8.547   2.468 -0.5069 -0.4117 -0.0149
15262SOL    HW157440   5.201   8.479   2.475 -0.1300 -0.6444  1.9936
15262SOL    HW257441   5.272   8.607   2.547 -0.8305  1.9572 -1.7859
15263SOL     OW57442   5.649   6.920   1.330 -0.7670 -0.3063 -0.4760
15263SOL    HW157443   5.676   6.839   1.278 -0.5471 -0.0990 -0.6847
15263SOL    HW257444   5.714   6.935   1.404 -1.1989 -0.7257 -0.0052
15264SOL     OW57445   1.027   0.833   5.205  0.5459  0.1456  1.0249
15264SOL    HW157446   1.048   0.889   5.285  2.0234  0.5327  0.3916
15264SOL    HW257447   1.091   0.856   5.131  1.1802 -2.3396  0.7519
15265SOL     OW57448   8.037   4.082   7.761 -0.3584  0.4131  0.0084
15265SOL    HW157449   8.101   4.155   7.739 -0.5627  0.5299 -0.2085
15265SOL    HW257450   8.034   4.016   7.686  2.1845 -1.5111  1.5665
15266SOL     OW57451   0.481   4.833   5.081 -0.4159  0.0037  0.4025
15266SOL    HW157452   0.482   4.895   5.002  2.4725 -0.3977  0.0471
15266SOL    HW257453   0.478   4.738   5.049  1.7645 -0.1906  0.7037
15267SOL     OW57454   3.898   0.947   0.520 -0.4367  0.1561  0.4189
15267SOL    HW157455   3.848   1.018   0.571  0.3084 -1.6218  3.7951
15267SOL    HW257456   3.856   0.858   0.538  2.4788 -1.0682  1.5010
15268SOL     OW57457   0.573   9.222   1.031  0.1552 -0.3512  0.3385
15268SOL    HW157458   0.646   9.237   0.964  2.0393  1.0312  2.6245
15268SOL    HW257459   0.536   9.310   1.061 -1.5533 -1.0055  0.1763
15269SOL     OW57460   7.576   0.688   7.822  0.1794  0.0433  0.1220
15269SOL    HW157461   7.515   0.613   7.797 -0.3607 -0.0446  1.6331
15269SOL    HW257462   7.575   0.700   7.921  1.5918  0.9299  0.0432
15270SOL     OW57463   3.179   2.785   8.164  0.0725 -0.7734  0.0500
15270SOL    HW157464   3.224   2.760   8.250  1.8223  2.3727  0.1004
15270SOL    HW257465   3.098   2.841   8.185  0.3029 -0.2975 -0.3392
15271SOL     OW57466   1.144   5.657   4.833 -0.1931 -0.5611 -0.0615
15271SOL    HW157467   1.219   5.723   4.832  0.0072 -0.7902 -0.1869
15271SOL    HW257468   1.130   5.621   4.741  0.5022 -1.6021  0.2357
15272SOL     OW57469   2.278   4.493   4.957 -0.0708  0.2248  0.6525
15272SOL    HW157470   2.188   4.482   4.999  0.5819 -0.5347  1.8596
15272SOL    HW257471   2.348   4.453   5.016  0.6932 -2.4711 -1.9755
15273SOL     OW57472   6.565   9.217   5.601 -0.0990 -0.2609 -0.1094
15273SOL    HW157473   6.599   9.249   5.690  0.6494  1.1375 -0.8832
15273SOL    HW257474   6.477   9.259   5.583 -0.0351 -0.1804 -0.2333
15274SOL     OW57475   1.772   7.828   5.337 -0.0738  0.2987  0.2980
15274SOL    HW157476   1.795   7.731   5.347 -0.8654  0.1401  0.6661
15274SOL    HW257477   1.677   7.842   5.365  0.6411  1.5249  2.1750
15275SOL     OW57478   5.069   9.124   6.327 -0.9342  0.3549 -0.0929
15275SOL    HW157479   4.970   9.112   6.341 -0.6434  0.2586  2.1680
15275SOL    HW257480   5.118   9.090   6.407  0.9028  1.1090 -0.8662
15276SOL     OW57481   0.885   2.956   7.976 -0.0994  0.5118 -0.1522
15276SOL    HW157482   0.820   3.029   7.954 -1.0373 -0.5741 -1.0813
15276SOL    HW257483   0.837   2.881   8.021  0.7760  0.2982  0.4293
15277SOL     OW57484   4.806   4.813   2.525  0.0336 -0.2915 -0.0287
15277SOL    HW157485   4.732   4.879   2.510 -1.8996 -2.5327 -0.6113
15277SOL    HW257486   4.799   4.774   2.617  2.4381  1.7778  1.1156
15278SOL     OW57487   4.947   3.510   6.176 -0.4694  0.7579  0.3841
15278SOL    HW157488   4.940   3.415   6.145  0.0133  1.0657 -0.7025
15278SOL    HW257489   5.018   3.517   6.246 -1.8668 -0.0215  1.9034
15279SOL     OW57490   7.972   0.713   1.437  0.1813  0.2237 -0.4890
15279SOL    HW157491   8.014   0.802   1.458 -0.9849  0.4912  0.7483
15279SOL    HW257492   7.876   0.713   1.467 -0.3931 -0.7742 -2.2545
15280SOL     OW57493   5.999   1.497   4.565 -0.4759 -0.3271  0.5079
15280SOL    HW157494   5.967   1.406   4.592  1.5387 -0.4325  2.7149
15280SOL    HW257495   6.079   1.487   4.505 -2.2518 -0.0185 -1.9744
15281SOL     OW57496   4.997   5.189   8.006  0.0155  0.0381 -0.3132
15281SOL    HW157497   4.966   5.283   8.015 -0.6452 -0.2395  0.3788
15281SOL    HW257498   5.039   5.160   8.092 -0.5332 -0.5620 -0.2410
15282SOL     OW57499   7.520   3.596   3.394 -0.2118 -0.6321  0.0893
15282SOL    HW157500   7.592   3.600   3.464 -0.7379 -2.0460  0.7388
15282SOL    HW257501   7.484   3.503   3.389 -2.1156  0.0852 -0.0912
15283SOL     OW57502   4.084   4.834   3.268  0.5531 -0.2199  0.3460
15283SOL    HW157503   4.028   4.786   3.200  0.2163 -0.9633  1.1358
15283SOL    HW257504   4.026   4.896   3.320  0.9329  0.8224 -0.4677
15284SOL     OW57505   7.645   0.906   6.385 -0.3347  0.1589 -0.4014
15284SOL    HW157506   7.642   0.997   6.426  2.6769 -0.6822  1.9356
15284SOL    HW257507   7.701   0.909   6.302  1.2383  0.1548  0.6313
15285SOL     OW57508   0.131   0.472   5.886  0.1224 -0.4972  0.3258
15285SOL    HW157509   0.226   0.463   5.856  0.1480  0.2789  0.1703
15285SOL    HW257510   0.084   0.384   5.872 -0.0791  0.0247 -2.7693
15286SOL     OW57511   4.665   8.958   0.823  0.4745  0.2990 -0.4103
15286SOL    HW157512   4.639   8.952   0.727 -0.7091 -2.8287  0.0286
15286SOL    HW257513   4.582   8.949   0.880  1.5429 -1.6917  0.9094
15287SOL     OW57514   1.419   7.193   6.445 -0.1823 -0.3269 -0.0694
15287SOL    HW157515   1.369   7.254   6.384 -0.3770  0.5500  0.9578
15287SOL    HW257516   1.355   7.141   6.501  0.0156  0.0378  0.5090
15288SOL     OW57517   3.017   5.736   0.673 -0.3158 -0.3762  0.0128
15288SOL    HW157518   3.067   5.662   0.627 -0.4542 -0.4455 -0.0272
15288SOL    HW257519   3.007   5.715   0.770 -0.3548 -0.4101  0.0015
15289SOL     OW57520   0.358   7.146   2.450 -0.9442  0.0576  0.0107
15289SOL    HW157521   0.404   7.090   2.381 -1.4714 -1.6377  0.9822
15289SOL    HW257522   0.280   7.193   2.408  0.3450  1.2000 -1.1375
15290SOL     OW57523   0.122   6.230   3.867  0.0239  0.3762  0.2661
15290SOL    HW157524   0.161   6.273   3.949  0.3867 -0.7820  0.7124
15290SOL    HW257525   0.186   6.163   3.831 -1.0799 -0.7298  0.3393
15291SOL     OW57526   4.390   4.871   2.457  0.1597 -0.3169  0.1748
15291SOL    HW157527   4.461   4.932   2.421 -0.5574  0.2668 -0.2728
15291SOL    HW257528   4.322   4.925   2.506  0.2956 -0.9377  1.0367
15292SOL     OW57529   7.882   2.759   3.569 -0.2793  0.7268 -0.9556
15292SOL    HW157530   7.871   2.786   3.665 -2.9816  0.0105 -1.0264
15292SOL    HW257531   7.884   2.841   3.511  0.9922  1.1446 -0.3442
15293SOL     OW57532   8.694   1.451   4.674 -0.4233 -0.1913  0.1466
15293SOL    HW157533   8.622   1.498   4.623  1.6961 -0.2214 -3.0048
15293SOL    HW257534   8.780   1.501   4.666  0.7727 -2.0656  0.7532
15294SOL     OW57535   4.396   3.626   1.235 -0.4703 -0.4565  0.2444
15294SOL    HW157536   4.405   3.528   1.249 -0.9789 -0.9428 -2.4728
15294SOL    HW257537   4.350   3.643   1.148  1.6421  2.1889 -0.4415
15295SOL     OW57538   9.141   5.325   5.672 -0.2120  0.1791  0.3393
15295SOL    HW157539   9.171   5.230   5.663 -1.4081 -0.1061 -0.7441
15295SOL    HW257540   9.071   5.330   5.744 -0.6851  0.0971 -0.1066
15296SOL     OW57541   3.063   0.549   3.732  0.5561 -0.5555  0.1276
15296SOL    HW157542   3.116   0.514   3.809 -1.4336 -0.9855  1.3477
15296SOL    HW257543   3.019   0.473   3.685 -2.9138  0.0774  2.1332
15297SOL     OW57544   1.326   5.336   2.621 -0.0024  0.2269  0.2493
15297SOL    HW157545   1.228   5.331   2.600  0.2095  1.2009 -1.0280
15297SOL    HW257546   1.341   5.305   2.715 -1.4559 -0.5226  0.2523
15298SOL     OW57547   5.071   5.056   0.020  0.6272  0.2054  0.4916
15298SOL    HW157548   5.045   4.976  -0.034 -0.5831  0.3600  0.8327
15298SOL    HW257549   5.016   5.060   0.103  1.0580  1.0898  0.7477
15299SOL     OW57550   4.243   0.967   8.105  0.1728  0.2966  0.1782
15299SOL    HW157551   4.324   1.001   8.058 -1.0868  1.3686 -1.2869
15299SOL    HW257552   4.181   1.043   8.125 -1.0022 -0.6480  0.2095
15300SOL     OW57553   8.588   0.705   0.782  0.2000 -0.1874  0.0192
15300SOL    HW157554   8.684   0.679   0.773  0.1705 -0.2379 -0.1553
15300SOL    HW257555   8.532   0.645   0.725 -0.0717 -0.9586  1.0856
15301SOL     OW57556   0.186   4.376   2.895  0.0319 -0.0571 -0.1241
15301SOL    HW157557   0.154   4.314   2.822  0.8249  0.0216 -0.5520
15301SOL    HW257558   0.113   4.439   2.920 -0.4888 -0.5698 -0.3375
15302SOL     OW57559   3.510   3.249   4.095  0.1301 -0.6314  0.6119
15302SOL    HW157560   3.496   3.293   4.184  0.8292 -0.6854  0.7459
15302SOL    HW257561   3.607   3.229   4.082  0.0104 -0.7623 -0.0992
15303SOL     OW57562   6.568   9.761   4.808 -0.2924  0.2845 -0.2446
15303SOL    HW157563   6.561   9.793   4.713  1.7215  1.0349 -0.1633
15303SOL    HW257564   6.622   9.677   4.810  0.9907  1.1127  0.3921
15304SOL     OW57565   9.090   4.973   3.361  0.2952  0.0085 -0.0002
15304SOL    HW157566   9.069   5.003   3.268 -0.5159  0.1622  0.2344
15304SOL    HW257567   9.177   4.923   3.360 -0.7884 -1.9138 -1.2117
15305SOL     OW57568   3.400   8.141   4.888 -0.0511 -0.0879  0.2975
15305SOL    HW157569   3.445   8.065   4.936  1.5974 -0.2709 -1.5021
15305SOL    HW257570   3.467   8.192   4.835 -1.4278  1.6764  0.1865
15306SOL     OW57571   7.599   0.434   5.720 -0.5150 -0.4492  0.0373
15306SOL    HW157572   7.692   0.420   5.687 -0.3119  0.3791  0.2349
15306SOL    HW257573   7.535   0.385   5.661  0.2515 -3.4465  1.6099
15307SOL     OW57574   2.921   3.840   2.763 -0.6175  0.1794 -0.1169
15307SOL    HW157575   2.885   3.747   2.772 -1.7606  0.5257 -0.9964
15307SOL    HW257576   2.940   3.859   2.667  0.3125  0.6132  0.1449
15308SOL     OW57577   9.849   7.871   2.113  0.4170 -0.2504  0.2773
15308SOL    HW157578   9.919   7.801   2.127  0.3831 -0.5654 -1.0311
15308SOL    HW257579   9.771   7.851   2.172  1.5582  0.3126  2.0193
15309SOL     OW57580   8.219   4.935   4.457 -0.1452  0.4120  0.0992
15309SOL    HW157581   8.260   4.901   4.541 -1.3121 -0.6703  0.2539
15309SOL    HW257582   8.222   5.035   4.456 -1.0314  0.4766  1.9188
15310SOL     OW57583   3.670   2.189   3.116  0.5384 -0.2908 -0.0584
15310SOL    HW157584   3.636   2.176   3.210 -2.9896 -0.8391 -1.3187
15310SOL    HW257585   3.638   2.276   3.081 -0.6764 -1.3733 -1.7315
15311SOL     OW57586   5.497   1.919   8.138  0.5147 -0.1093 -0.3038
15311SOL    HW157587   5.511   2.017   8.123 -2.8287  0.2331 -1.6690
15311SOL    HW257588   5.540   1.892   8.224  3.2419  2.0923 -0.9170
15312SOL     OW57589   3.906   2.777   2.609 -0.2400  0.7882  0.7512
15312SOL    HW157590   3.862   2.699   2.654  0.9165  0.0291  0.6064
15312SOL    HW257591   3.977   2.815   2.670  0.9793  0.0817 -0.1972
15313SOL     OW57592   0.878   7.180   3.865 -0.0474 -0.2147 -0.2605
15313SOL    HW157593   0.912   7.171   3.959 -0.1675  0.6436 -0.1340
15313SOL    HW257594   0.845   7.273   3.850 -1.5328 -0.7784 -0.6544
15314SOL     OW57595   3.356   5.199   0.501  0.8261  0.0208 -0.4186
15314SOL    HW157596   3.453   5.219   0.515  1.0712 -0.1796 -1.7199
15314SOL    HW257597   3.347   5.113   0.451 -0.0339 -0.0572 -0.1386
15315SOL     OW57598   3.113   9.799   0.795  0.1495 -0.1210 -0.2090
15315SOL    HW157599   3.141   9.727   0.731  3.0584 -0.1520  1.0344
15315SOL    HW257600   3.187   9.864   0.807 -1.3783  1.4590  0.9957
15316SOL     OW57601   5.165   2.217   4.042 -0.4388 -0.0910  0.7429
15316SOL    HW157602   5.145   2.269   3.959  0.4563 -1.2534 -0.2186
15316SOL    HW257603   5.217   2.274   4.105 -0.4188  0.5401  0.1643
15317SOL     OW57604   4.090   5.231   1.672 -0.0188 -0.3226 -0.1580
15317SOL    HW157605   4.148   5.181   1.736  0.7857 -0.0598 -0.6824
15317SOL    HW257606   4.004   5.181   1.660 -0.4713 -0.0147  1.6595
15318SOL     OW57607   0.530   3.133   5.293  0.2759  0.1516 -0.2309
15318SOL    HW157608   0.503   3.050   5.341  0.8340 -0.6596 -1.3104
15318SOL    HW257609   0.618   3.118   5.248  1.0573  1.7742  0.7148
15319SOL     OW57610   6.017   9.804   3.270  0.2493 -0.2705 -0.5668
15319SOL    HW157611   6.100   9.779   3.320 -0.4180 -0.8852  0.2528
15319SOL    HW257612   5.954   9.850   3.331  1.0635  2.6216 -1.8419
15320SOL     OW57613   7.703   4.838   1.572 -0.0897  0.2779 -0.3569
15320SOL    HW157614   7.608   4.846   1.602 -0.0727  0.3969 -0.3371
15320SOL    HW257615   7.740   4.750   1.603  0.8652  1.6395  2.6018
15321SOL     OW57616   7.320   7.021   4.584  0.1725  0.4616 -0.1275
15321SOL    HW157617   7.253   7.014   4.510  0.2557 -1.5586 -0.0465
15321SOL    HW257618   7.277   7.064   4.664 -1.3863 -1.8137  0.3037
15322SOL     OW57619   3.186   2.191   7.924  0.0942  0.2479  0.2231
15322SOL    HW157620   3.220   2.107   7.966  0.4728  0.1024 -0.3693
15322SOL    HW257621   3.166   2.174   7.827 -1.7553  0.2927  0.5696
15323SOL     OW57622   7.541   5.509   6.682  0.3418  0.2222 -0.2810
15323SOL    HW157623   7.598   5.589   6.698  0.5930 -0.1792  0.8442
15323SOL    HW257624   7.599   5.429   6.666  0.0980 -0.0432  0.1439
15324SOL     OW57625   2.627   2.830   7.550 -0.6666  0.0602  0.1258
15324SOL    HW157626   2.569   2.908   7.570 -1.3308 -0.6092  0.8458
15324SOL    HW257627   2.582   2.771   7.483  0.1917  0.7077 -1.0372
15325SOL     OW57628   1.062   5.244   2.001 -0.4605 -0.0060 -0.0110
15325SOL    HW157629   1.095   5.305   2.073 -0.2096  0.1168 -0.2334
15325SOL    HW257630   1.034   5.157   2.042 -1.8770  0.6501  0.4650
15326SOL     OW57631   1.891   0.856   1.383 -0.0783 -0.7567  0.2946
15326SOL    HW157632   1.858   0.795   1.311  0.2562 -0.5282 -0.0534
15326SOL    HW257633   1.935   0.802   1.455  1.7062 -0.8067 -0.8093
15327SOL     OW57634   9.007   7.613   5.521 -0.3466 -0.1440  0.2326
15327SOL    HW157635   9.106   7.597   5.520 -0.2891  0.1481  0.6110
15327SOL    HW257636   8.970   7.599   5.430 -0.0996 -1.1156  0.2786
15328SOL     OW57637   2.366   7.003   1.326 -0.7074 -0.4931 -0.2527
15328SOL    HW157638   2.297   7.010   1.255 -2.7569 -1.6640  1.5360
15328SOL    HW257639   2.405   7.093   1.345 -1.0020  0.0132 -1.9722
15329SOL     OW57640   9.290   1.583   7.954  0.2754  0.0476  0.7530
15329SOL    HW157641   9.281   1.609   7.858  0.8641 -2.1392  0.0627
15329SOL    HW257642   9.203   1.596   8.001 -0.3767 -0.0946 -0.4087
15330SOL     OW57643   4.442   8.548   2.881 -0.3334  0.2620 -0.2548
15330SOL    HW157644   4.517   8.575   2.821 -0.8699  1.4233 -0.4263
15330SOL    HW257645   4.465   8.571   2.976 -0.6499  1.0617 -0.3614
15331SOL     OW57646   3.404   0.608   6.911 -0.1072 -0.5177 -0.0627
15331SOL    HW157647   3.438   0.674   6.845 -0.3413 -1.0490 -0.7242
15331SOL    HW257648   3.341   0.652   6.974  1.1629  0.3006  0.6702
15332SOL     OW57649   9.721   5.788   7.738 -0.0815 -0.3699  0.3743
15332SOL    HW157650   9.648   5.728   7.770 -0.0302 -0.4310  0.3804
15332SOL    HW257651   9.807   5.763   7.783 -0.4747  1.0593  1.9601
15333SOL     OW57652   9.055   0.585   6.617 -0.3238 -0.2068 -0.6604
15333SOL    HW157653   9.027   0.668   6.666  1.3264  0.2236 -0.4008
15333SOL    HW257654   9.155   0.579   6.617 -0.3962 -1.6291 -1.6379
15334SOL     OW57655   2.593   2.109   3.310 -0.7111 -0.1564 -0.3824
15334SOL    HW157656   2.497   2.081   3.301 -1.1631  0.6056  1.7946
15334SOL    HW257657   2.621   2.103   3.406  0.4769  2.6058 -0.5210
15335SOL     OW57658   5.605   1.823   5.858  0.3292  0.4745  0.4106
15335SOL    HW157659   5.577   1.727   5.851 -0.9979  0.6351  2.8595
15335SOL    HW257660   5.608   1.864   5.767  2.1059 -2.1971 -0.7924
15336SOL     OW57661   9.410   0.101   3.201 -0.4944  0.4209 -0.3765
15336SOL    HW157662   9.422   0.035   3.127 -1.5466 -0.3008  0.0884
15336SOL    HW257663   9.365   0.183   3.166 -2.2920 -0.4904 -0.2608
15337SOL     OW57664   4.750   2.857   0.017 -0.5504 -0.1911  0.0190
15337SOL    HW157665   4.691   2.778   0.001 -0.4818 -0.3875  0.7124
15337SOL    HW257666   4.714   2.936  -0.032 -1.2198 -0.3896  0.1872
15338SOL     OW57667   2.107   7.880   3.306 -0.0128 -0.4236  0.4671
15338SOL    HW157668   2.143   7.920   3.222  0.2512 -1.4706  0.0724
15338SOL    HW257669   2.138   7.785   3.313 -0.7841 -0.6167  1.2902
15339SOL     OW57670   0.053   5.294   2.424 -0.1333 -0.0828  0.3654
15339SOL    HW157671   0.106   5.359   2.370  0.1271 -0.5420  0.0699
15339SOL    HW257672   0.032   5.334   2.514  1.8263 -0.4062  0.9856
15340SOL     OW57673   0.308   1.108   0.485  0.2374  0.6145 -0.1787
15340SOL    HW157674   0.339   1.187   0.432  0.1005  1.6253  1.2215
15340SOL    HW257675   0.387   1.061   0.525  0.3512 -0.2298 -1.3660
15341SOL     OW57676   9.457   9.473   4.680  0.6165 -0.5183 -0.4318
15341SOL    HW157677   9.392   9.464   4.604  0.1196 -1.0709  0.0595
15341SOL    HW257678   9.429   9.413   4.755  1.1385 -0.0111  0.1694
15342SOL     OW57679   3.188   9.135   7.674 -0.0443 -0.3680  0.0339
15342SOL    HW157680   3.264   9.075   7.647  0.8214  0.2402  1.0469
15342SOL    HW257681   3.173   9.203   7.603  0.8915 -0.0130  0.1618
15343SOL     OW57682   1.602   0.822   0.306  0.4041  0.0460 -0.4113
15343SOL    HW157683   1.669   0.894   0.287  0.2449  0.2696 -0.1291
15343SOL    HW257684   1.635   0.766   0.382  0.9433 -0.7215 -1.1977
15344SOL     OW57685   8.111   0.961   1.487  0.6798 -0.7546  0.3318
15344SOL    HW157686   8.132   1.026   1.414  1.5282 -2.3724 -0.9232
15344SOL    HW257687   8.127   1.004   1.576  2.4106  0.3832 -0.4885
15345SOL     OW57688   1.826   0.986   4.406  0.0187  0.1048  0.1473
15345SOL    HW157689   1.811   1.012   4.310 -1.0232 -0.1181  0.2458
15345SOL    HW257690   1.917   0.945   4.415  0.0916  0.0437 -0.7639
15346SOL     OW57691   6.446   9.368   2.829 -0.5547  0.3083  0.5232
15346SOL    HW157692   6.440   9.446   2.768 -1.2578  0.0742  0.2977
15346SOL    HW257693   6.460   9.400   2.923 -3.1142  0.7847  0.7667
15347SOL     OW57694   5.101   8.344   1.521  0.0946 -0.5956 -0.1272
15347SOL    HW157695   5.016   8.388   1.491  0.9880  0.8921 -0.5187
15347SOL    HW257696   5.111   8.255   1.475 -1.0250 -0.5805 -0.4080
15348SOL     OW57697   2.199   7.958   0.885 -0.6284 -0.4546 -0.3965
15348SOL    HW157698   2.202   7.878   0.945  2.1396 -0.7410 -0.8299
15348SOL    HW257699   2.219   7.930   0.791  0.0480  0.6754 -0.6024
15349SOL     OW57700   1.389   6.943   5.646  0.2113  0.4538  0.1449
15349SOL    HW157701   1.370   7.027   5.698 -1.2641  1.0458 -1.3009
15349SOL    HW257702   1.396   6.866   5.710  0.2969  1.4618  1.3852
15350SOL     OW57703   0.156   4.241   2.433 -0.0472  0.4809 -0.1060
15350SOL    HW157704   0.186   4.336   2.435 -0.3364  0.5954 -1.0135
15350SOL    HW257705   0.076   4.232   2.374  0.7844 -0.5443 -1.1193
15351SOL     OW57706   7.758   4.597   0.570 -0.1405  0.5222  0.0342
15351SOL    HW157707   7.816   4.638   0.500 -1.9281  0.6599 -1.3900
15351SOL    HW257708   7.665   4.632   0.561 -0.9982 -1.4964  0.7719
15352SOL     OW57709   7.553   0.898   5.418 -0.1347  0.5588  0.3657
15352SOL    HW157710   7.568   0.804   5.449 -1.9166  0.1674  0.0834
15352SOL    HW257711   7.523   0.954   5.496  0.1175  0.7089  0.3563
15353SOL     OW57712   9.166   3.370   2.248 -0.4855  0.0354 -0.5377
15353SOL    HW157713   9.211   3.331   2.329  0.7013  2.2659 -0.0801
15353SOL    HW257714   9.211   3.335   2.166  2.9211  3.0411 -0.0689
15354SOL     OW57715   8.932   1.941   0.397 -0.7184 -0.1294  0.3011
15354SOL    HW157716   8.967   1.878   0.467  0.3605  0.1194  0.0061
15354SOL    HW257717   9.009   1.973   0.341 -1.3801  0.8013 -0.0754
15355SOL     OW57718   9.055   5.831   4.779 -0.6031  0.6714  0.0044
15355SOL    HW157719   9.023   5.762   4.713  0.8155 -1.0124  1.0222
15355SOL    HW257720   8.977   5.883   4.813 -1.4757  0.8781 -2.2161
15356SOL     OW57721   3.510   9.181   0.659  0.8527 -0.1999  0.5668
15356SOL    HW157722   3.555   9.234   0.730 -2.1525 -0.7425  2.9807
15356SOL    HW257723   3.526   9.084   0.674 -1.3357 -0.4198  1.6779
15357SOL     OW57724   0.788   9.401   3.359  0.3489  0.0532  0.1098
15357SOL    HW157725   0.737   9.462   3.299  3.2651  2.2180 -0.2762
15357SOL    HW257726   0.820   9.322   3.307 -1.4240 -0.6385  0.0473
15358SOL     OW57727   5.641   2.850   0.763 -0.2636 -0.1941 -0.1604
15358SOL    HW157728   5.580   2.793   0.708 -0.0848 -1.2213  0.6858
15358SOL    HW257729   5.635   2.822   0.859  0.1191  0.9590  0.2168
15359SOL     OW57730   6.224   9.773   2.170  0.1582 -0.3325 -0.4650
15359SOL    HW157731   6.324   9.774   2.167  0.1389 -1.3690 -2.9121
15359SOL    HW257732   6.188   9.797   2.080 -1.8258  0.8245  0.6055
15360SOL     OW57733   9.233   7.684   7.362 -0.3114  0.4249 -0.0416
15360SOL    HW157734   9.246   7.754   7.433 -1.0176  0.9518 -0.4230
15360SOL    HW257735   9.296   7.608   7.378 -0.7439  0.3507  1.3730
15361SOL     OW57736   9.665   7.447   4.825 -0.5498 -0.1813 -0.1853
15361SOL    HW157737   9.708   7.498   4.750 -0.2748  0.5424  0.4657
15361SOL    HW257738   9.719   7.458   4.908 -1.3984 -0.1540  0.3691
15362SOL     OW57739   9.077   5.484   3.550 -0.3518 -0.2194  0.4391
15362SOL    HW157740   9.015   5.517   3.621  0.2196  0.8832  0.4291
15362SOL    HW257741   9.026   5.428   3.485 -0.6942 -2.0262  2.2278
15363SOL     OW57742   1.809   8.751   5.461  0.2988  0.3463  0.4639
15363SOL    HW157743   1.877   8.818   5.491  0.3826 -0.3915  1.9556
15363SOL    HW257744   1.764   8.710   5.541 -0.7022 -0.4049 -0.4627
15364SOL     OW57745   0.988   3.062   3.781 -0.2912  0.0471 -0.4535
15364SOL    HW157746   0.913   3.022   3.729 -1.1942  0.8014  0.2543
15364SOL    HW257747   1.020   2.998   3.850 -1.2530  0.2587  0.1999
15365SOL     OW57748   9.167   7.290   2.782  0.1920 -0.3246  0.2559
15365SOL    HW157749   9.181   7.275   2.879 -0.1719 -0.3037  0.3122
15365SOL    HW257750   9.238   7.242   2.730  1.2953  0.9228  0.5952
15366SOL     OW57751   3.627   0.319   0.596  0.4301 -0.3105 -0.1285
15366SOL    HW157752   3.602   0.247   0.532  1.7439 -0.9093 -0.0044
15366SOL    HW257753   3.720   0.351   0.575  0.3116  0.5015  0.5611
15367SOL     OW57754   4.312   0.547   3.549 -0.0952  0.2431  0.5993
15367SOL    HW157755   4.233   0.495   3.516  0.8464 -1.3413  0.8077
15367SOL    HW257756   4.320   0.632   3.497 -1.7150  0.2413  0.3242
15368SOL     OW57757   8.905   9.174   6.538 -0.1008  0.1048  0.1237
15368SOL    HW157758   8.964   9.152   6.615 -2.3076 -2.1692  1.2266
15368SOL    HW257759   8.846   9.252   6.563 -2.6506 -2.2577  1.8226
15369SOL     OW57760   0.187   6.042   3.509  0.0284  0.0565 -0.0023
15369SOL    HW157761   0.100   6.033   3.557  0.7101  0.3346  1.3074
15369SOL    HW257762   0.257   5.986   3.555  0.7490  0.5060 -0.5309
15370SOL     OW57763   3.466   2.546   3.778  0.3420 -0.2834  0.0272
15370SOL    HW157764   3.548   2.509   3.734  0.5176 -0.1272  0.2190
15370SOL    HW257765   3.406   2.471   3.805 -0.6466 -0.3117 -2.1483
15371SOL     OW57766   4.166   5.152   3.497 -0.3805  0.1561 -0.3334
15371SOL    HW157767   4.175   5.245   3.531  0.3606  0.0568 -0.2574
15371SOL    HW257768   4.184   5.150   3.399 -0.3331  0.0819 -0.3235
15372SOL     OW57769   3.342   9.419   3.745 -0.6920  0.1602  0.3081
15372SOL    HW157770   3.422   9.360   3.752  0.2960  1.1165 -2.3320
15372SOL    HW257771   3.340   9.482   3.824  0.5904 -0.5193  0.8921
15373SOL     OW57772   3.727   4.466   3.633 -0.3519  0.0223  0.7338
15373SOL    HW157773   3.701   4.562   3.646  0.6334  0.2693  0.9436
15373SOL    HW257774   3.696   4.435   3.544  1.3452  1.2560 -0.3382
15374SOL     OW57775   1.752   7.065   7.465 -0.8043 -0.3705 -0.4790
15374SOL    HW157776   1.836   7.011   7.464  0.1499  1.0961 -0.8022
15374SOL    HW257777   1.700   7.047   7.382 -2.2630 -3.4789  1.0355
15375SOL     OW57778   8.188   5.350   1.502 -0.7990 -0.7027 -0.4821
15375SOL    HW157779   8.114   5.416   1.512 -0.2434  0.0797 -1.3764
15375SOL    HW257780   8.190   5.289   1.581 -1.5400  0.1387  0.1959
15376SOL     OW57781   8.220   0.222   6.661 -0.2360  0.3895  0.2841
15376SOL    HW157782   8.236   0.235   6.759  1.7581  1.8957 -0.2184
15376SOL    HW257783   8.202   0.125   6.644  0.6876 -0.1169  1.9728
15377SOL     OW57784   8.510   5.665   1.344  0.3269 -0.2139  0.0040
15377SOL    HW157785   8.533   5.759   1.365 -0.0609 -0.3209  0.9323
15377SOL    HW257786   8.577   5.603   1.385  1.3806 -0.2833 -1.8006
15378SOL     OW57787   6.727   2.780   0.717  0.0146  0.0231  0.0243
15378SOL    HW157788   6.715   2.819   0.625  0.7701  0.1278 -0.0337
15378SOL    HW257789   6.743   2.681   0.709 -0.8376 -0.1234  0.1037
15379SOL     OW57790   7.216   2.371   7.850  0.1498 -0.1293  0.4070
15379SOL    HW157791   7.197   2.273   7.841 -1.1125  0.0204  1.2810
15379SOL    HW257792   7.221   2.412   7.759 -0.6091 -0.7838  0.0568
15380SOL     OW57793   0.792   6.441   6.921 -0.0383  0.0260  0.0109
15380SOL    HW157794   0.803   6.342   6.928  0.6165  0.0183 -0.9767
15380SOL    HW257795   0.782   6.467   6.825 -1.2657  0.8139  0.3398
15381SOL     OW57796   4.296   9.124   0.564 -0.1971 -0.1308 -0.4357
15381SOL    HW157797   4.209   9.128   0.517 -0.0989  1.0690 -0.5395
15381SOL    HW257798   4.305   9.204   0.624  1.0388  0.0324 -0.8191
15382SOL     OW57799   3.547   0.769   5.706 -0.0326  0.4685  0.0231
15382SOL    HW157800   3.597   0.855   5.701  0.5370  0.1663  0.4975
15382SOL    HW257801   3.449   0.788   5.717  0.0682  1.0523 -0.0722
15383SOL     OW57802   4.605   5.562   1.740  0.1741 -0.5159  0.1548
15383SOL    HW157803   4.570   5.644   1.786 -0.8183 -1.2052  0.6354
15383SOL    HW257804   4.705   5.567   1.734  0.0964  0.8998 -0.1389
15384SOL     OW57805   9.626   9.724   2.342  0.1622 -0.3900 -0.1370
15384SOL    HW157806   9.550   9.787   2.333 -0.2901 -0.5370  2.1832
15384SOL    HW257807   9.657   9.694   2.252 -2.4301 -0.2182 -1.1108
15385SOL     OW57808   0.229   1.560   1.475  0.2475 -0.2439  0.3810
15385SOL    HW157809   0.201   1.611   1.556 -1.4109  0.3479 -0.5310
15385SOL    HW257810   0.152   1.506   1.441  1.4076 -1.7984  0.1590
15386SOL     OW57811   9.747   4.942   5.728  0.3904  0.4207 -0.5984
15386SOL    HW157812   9.667   4.993   5.697  0.1125 -0.2639 -1.0258
15386SOL    HW257813   9.724   4.892   5.811  0.8279  1.4320  0.1398
15387SOL     OW57814   9.422   0.595   5.992 -0.7915 -0.0199 -0.8151
15387SOL    HW157815   9.326   0.603   5.965 -0.7918 -1.3622 -1.2600
15387SOL    HW257816   9.480   0.599   5.911 -0.5213  0.0044 -0.6208
15388SOL     OW57817   5.933   5.132   1.768 -0.5047  0.0281 -0.4313
15388SOL    HW157818   5.951   5.192   1.690 -3.5263 -0.9475 -1.9719
15388SOL    HW257819   5.834   5.118   1.778 -0.0236 -2.5382  1.5361
15389SOL     OW57820   6.708   9.655   5.688 -0.3624 -0.4865 -0.4491
15389SOL    HW157821   6.746   9.741   5.722 -0.0886 -0.3092 -1.1990
15389SOL    HW257822   6.763   9.578   5.721  0.6023 -0.2378 -1.4646
15390SOL     OW57823   8.743   0.323   5.206 -0.2436 -0.3692  0.2712
15390SOL    HW157824   8.713   0.317   5.111 -0.1813 -0.7772  0.2780
15390SOL    HW257825   8.705   0.406   5.248 -0.2113 -0.1513 -0.1272
15391SOL     OW57826   3.983   8.379   3.515 -0.3990  0.5711  0.3438
15391SOL    HW157827   3.914   8.338   3.455 -0.3387  1.0879 -0.0837
15391SOL    HW257828   4.005   8.471   3.482 -0.6618  1.0145  1.3889
15392SOL     OW57829   3.172   8.803   6.485 -0.1335 -0.1494 -0.0183
15392SOL    HW157830   3.235   8.739   6.529  0.0663  0.7271  0.9946
15392SOL    HW257831   3.078   8.770   6.496  0.0935 -1.1688 -1.0445
15393SOL     OW57832   4.217   2.756   3.476  0.0007  0.3123  0.2528
15393SOL    HW157833   4.160   2.696   3.419  0.2749  0.3641 -0.0768
15393SOL    HW257834   4.173   2.769   3.565  0.6810 -1.6156  0.8972
15394SOL     OW57835   1.021   4.670   6.434 -0.0874 -0.4538  0.1319
15394SOL    HW157836   0.954   4.731   6.392  0.3928  1.4988  2.0776
15394SOL    HW257837   0.990   4.644   6.525  0.5790 -1.6639  0.0268
15395SOL     OW57838   5.418   2.060   5.214 -0.3206 -0.9942 -0.2402
15395SOL    HW157839   5.492   2.087   5.152 -1.3558 -1.4119 -1.6935
15395SOL    HW257840   5.387   2.141   5.264 -0.9271 -0.1704 -1.8801
15396SOL     OW57841   6.581   1.110   6.027 -0.3594  0.0581  0.7539
15396SOL    HW157842   6.482   1.120   6.030 -0.3417  0.4131  0.2315
15396SOL    HW257843   6.612   1.113   5.932  0.1251 -0.2845  0.9006
15397SOL     OW57844   8.952   7.873   1.331  0.4321 -0.6926  0.0764
15397SOL    HW157845   9.022   7.804   1.348 -1.8650 -2.6068  2.0381
15397SOL    HW257846   8.951   7.939   1.406 -1.4607 -2.1072  1.3609
15398SOL     OW57847   2.542   7.713   6.299 -0.3869  0.0956  0.1318
15398SOL    HW157848   2.593   7.647   6.355 -2.2429  0.8820  2.8382
15398SOL    HW257849   2.585   7.803   6.307 -1.4221  0.4975  1.4440
15399SOL     OW57850   1.770   7.973   2.416 -0.9329 -0.0152  0.7116
15399SOL    HW157851   1.818   7.888   2.436 -1.6754 -0.4143  0.8065
15399SOL    HW257852   1.708   7.959   2.338  0.0266  0.8310 -0.2217
15400SOL     OW57853   4.170   6.068   0.891 -0.0548 -0.6961 -0.2816
15400SOL    HW157854   4.098   6.137   0.895  0.6727  0.0154  0.8395
15400SOL    HW257855   4.138   5.989   0.838 -1.3467 -0.0390 -0.4976
15401SOL     OW57856   7.654   9.138   2.713 -0.0959 -0.2558  0.3612
15401SOL    HW157857   7.639   9.040   2.702 -0.4441 -0.1173 -0.4232
15401SOL    HW257858   7.599   9.188   2.647 -1.7938  0.5838  2.3591
15402SOL     OW57859   3.273   2.656   0.836 -0.9201  0.3936  0.3398
15402SOL    HW157860   3.235   2.597   0.907  0.4813 -0.2261  0.5790
15402SOL    HW257861   3.307   2.741   0.878 -0.6131  0.2737  0.3324
15403SOL     OW57862   7.893   6.727   5.119  0.5403 -0.3413  0.4190
15403SOL    HW157863   7.858   6.694   5.207  1.1151  0.3332  0.9028
15403SOL    HW257864   7.816   6.754   5.061  0.2388  1.3232  1.5530
15404SOL     OW57865   7.442   0.625   2.587  0.2151  0.2514 -0.8623
15404SOL    HW157866   7.422   0.527   2.581  1.6045 -0.0041 -1.4759
15404SOL    HW257867   7.367   0.677   2.546 -0.2100 -0.5843 -1.1522
15405SOL     OW57868   8.702   3.211   2.208  0.3444  0.5937  0.4448
15405SOL    HW157869   8.764   3.282   2.242  0.2931  0.7981  0.1155
15405SOL    HW257870   8.611   3.250   2.193  0.6605  0.7911 -1.0301
15406SOL     OW57871   0.662   3.737   0.187  0.1682 -0.4358  0.6151
15406SOL    HW157872   0.621   3.647   0.172 -0.4520 -0.0710  0.0987
15406SOL    HW257873   0.753   3.726   0.227  0.2502 -1.3078  0.1990
15407SOL     OW57874   8.201   9.168   3.334 -0.2130 -0.4114  0.6637
15407SOL    HW157875   8.176   9.088   3.280  0.2594  0.6468 -1.2013
15407SOL    HW257876   8.288   9.204   3.301 -0.8303  1.3573  0.8799
15408SOL     OW57877   4.924   2.278   0.414 -0.7989  0.1499  0.1660
15408SOL    HW157878   4.940   2.182   0.395 -0.4670  0.2962 -0.2883
15408SOL    HW257879   5.004   2.318   0.459 -0.5762  0.4355 -0.4743
15409SOL     OW57880   4.692   7.806   0.894 -0.3315 -0.0116 -0.1838
15409SOL    HW157881   4.621   7.753   0.848 -1.0282  0.6724  0.0748
15409SOL    HW257882   4.753   7.745   0.944  0.0056 -0.6976 -1.4329
15410SOL     OW57883   8.590   3.482   2.656 -0.0042  0.6969  0.2130
15410SOL    HW157884   8.586   3.553   2.726 -0.3673 -0.1804  1.0852
15410SOL    HW257885   8.504   3.431   2.655  0.0954  0.5376 -0.7008
15411SOL     OW57886   3.506   7.893   2.002  0.1604  0.1328  0.9303
15411SOL    HW157887   3.598   7.854   1.998  1.4440  3.1388 -1.0667
15411SOL    HW257888   3.502   7.962   2.075 -0.3345  0.3569  0.6934
15412SOL     OW57889   1.051   4.504   0.995  0.2725 -0.2906 -0.1014
15412SOL    HW157890   0.993   4.558   0.934 -1.6914 -1.1182  0.9973
15412SOL    HW257891   1.103   4.438   0.941 -1.4374 -1.0126 -0.9272
15413SOL     OW57892   5.115   9.310   4.789 -0.3603 -0.5349  0.0530
15413SOL    HW157893   5.197   9.342   4.836 -1.6722 -0.1174  2.1255
15413SOL    HW257894   5.118   9.340   4.693  0.8478  1.4235  0.6675
15414SOL     OW57895   4.081   7.244   5.368  0.3068  0.1099  0.5463
15414SOL    HW157896   4.003   7.183   5.353  1.4044 -1.4225  0.8242
15414SOL    HW257897   4.096   7.299   5.286  1.0334 -2.0695 -0.8543
15415SOL     OW57898   0.794   4.553   8.174  0.3811  0.1899 -0.4898
15415SOL    HW157899   0.725   4.573   8.104 -0.8327  1.2367  0.9627
15415SOL    HW257900   0.846   4.636   8.194  1.1584 -0.2656 -0.5971
15416SOL     OW57901   1.709   0.100   5.646  0.3848  0.1805  0.4690
15416SOL    HW157902   1.783   0.095   5.580 -0.4392 -1.0300 -0.3698
15416SOL    HW257903   1.646   0.173   5.619  0.1245 -0.2179  0.0046
15417SOL     OW57904   4.240   2.525   6.086 -0.0312 -0.2747 -0.6677
15417SOL    HW157905   4.154   2.563   6.051  0.3800  0.5234 -0.8021
15417SOL    HW257906   4.284   2.472   6.014 -0.0523 -0.0851 -0.8224
15418SOL     OW57907   0.166   0.379   0.004 -0.4811  0.2520  0.2133
15418SOL    HW157908   0.252   0.329   0.011 -0.2668  0.7918  1.6671
15418SOL    HW257909   0.098   0.322  -0.041  0.8715  0.1481 -1.7967
15419SOL     OW57910   4.088   7.346   5.792 -0.7238  0.1506 -0.0093
15419SOL    HW157911   4.113   7.443   5.782 -0.4225  0.0057 -0.6795
15419SOL    HW257912   4.160   7.299   5.844 -0.4009  0.0789 -0.5233
15420SOL     OW57913   3.793   9.213   2.143  0.2046 -0.4428  0.4340
15420SOL    HW157914   3.763   9.257   2.058  2.9867 -0.0196 -0.3883
15420SOL    HW257915   3.778   9.276   2.219  0.6950  0.4883 -0.2181
15421SOL     OW57916   1.874   0.824   5.421  0.3841  0.7403 -0.1345
15421SOL    HW157917   1.873   0.804   5.323 -0.2939 -0.3691  0.1001
15421SOL    HW257918   1.897   0.921   5.434  1.3589  0.6909 -1.3461
15422SOL     OW57919   5.787   0.740   6.051  0.4442  0.2339  0.2135
15422SOL    HW157920   5.792   0.809   6.122 -1.3722  0.6071  0.0078
15422SOL    HW257921   5.872   0.740   5.997  0.9162  1.4791  0.9476
15423SOL     OW57922   7.142   5.771   2.430  0.1402  0.6232 -0.1219
15423SOL    HW157923   7.088   5.828   2.492  1.3096  0.9673  0.6030
15423SOL    HW257924   7.209   5.718   2.483  0.1871 -0.1654 -0.9552
15424SOL     OW57925   8.874   2.313   4.242  0.2468 -0.5148 -0.0332
15424SOL    HW157926   8.821   2.231   4.222  3.1481 -2.0221 -1.8843
15424SOL    HW257927   8.893   2.363   4.158  2.5987 -0.5747  0.4103
15425SOL     OW57928   5.062   3.270   8.078 -0.0034 -0.0383  0.1879
15425SOL    HW157929   5.155   3.235   8.077 -0.2902 -0.8890  1.7975
15425SOL    HW257930   5.001   3.203   8.035 -0.3778 -1.0572  2.2430
15426SOL     OW57931   0.403   4.472   5.473  0.1655 -0.2704  0.0589
15426SOL    HW157932   0.358   4.544   5.525  1.0506  0.0792  0.3447
15426SOL    HW257933   0.476   4.511   5.417  0.6424 -0.9419  0.1990
15427SOL     OW57934   8.334   6.179   5.385  0.5999 -0.4661  0.3646
15427SOL    HW157935   8.302   6.180   5.480 -0.6667 -2.5187 -0.0024
15427SOL    HW257936   8.430   6.209   5.383  1.1214 -1.7926  2.5124
15428SOL     OW57937   3.876   6.698   1.285  0.3284  0.1487  0.4637
15428SOL    HW157938   3.975   6.689   1.299  0.1946  1.0937  2.1274
15428SOL    HW257939   3.831   6.713   1.373 -1.1903  0.7472 -0.3975
15429SOL     OW57940   2.329   1.450   2.675  0.5368 -0.8956  0.3309
15429SOL    HW157941   2.388   1.529   2.694 -0.3629 -0.2371  0.4626
15429SOL    HW257942   2.373   1.367   2.707  2.3011 -0.6661 -1.4241
15430SOL     OW57943   1.506   8.861   7.030  0.5928 -1.0381 -0.4286
15430SOL    HW157944   1.484   8.796   6.957  1.9275 -1.3437 -0.5887
15430SOL    HW257945   1.528   8.810   7.113 -0.2555 -0.7170 -0.0077
15431SOL     OW57946   9.060   2.276   2.749 -0.5001 -0.4841 -0.3227
15431SOL    HW157947   9.132   2.325   2.698 -1.1526  1.0620  0.2000
15431SOL    HW257948   8.987   2.249   2.685  0.3481 -1.7164 -0.7887
15432SOL     OW57949   0.865   3.494   3.579 -0.5638 -0.3342  0.2829
15432SOL    HW157950   0.800   3.425   3.610 -0.4589 -0.7792 -0.4726
15432SOL    HW257951   0.888   3.555   3.655 -1.2824 -0.6331  0.7421
15433SOL     OW57952   5.207   2.954   1.535 -0.3516  0.0305 -0.5408
15433SOL    HW157953   5.149   2.966   1.615 -0.9857  2.7274 -1.3437
15433SOL    HW257954   5.300   2.981   1.556 -0.3899  0.1589 -0.5357
15434SOL     OW57955   0.256   1.812   7.714 -0.2056 -0.2654  0.2351
15434SOL    HW157956   0.261   1.855   7.804 -1.5859 -1.7834  1.0611
15434SOL    HW257957   0.347   1.807   7.674  0.1367  2.3974  0.5982
15435SOL     OW57958   0.219   1.010   7.897  0.0236  0.1516 -0.1179
15435SOL    HW157959   0.253   0.978   7.808 -0.5831  0.3582 -0.4266
15435SOL    HW257960   0.286   0.989   7.968  0.8350  0.6092 -0.7349
15436SOL     OW57961   0.658   6.739   5.686  0.2339  0.7034 -0.6172
15436SOL    HW157962   0.720   6.735   5.608  1.2572  1.4282  0.1297
15436SOL    HW257963   0.702   6.791   5.760  0.8937 -3.0872  1.8154
15437SOL     OW57964   2.172   4.011   2.201 -0.7381 -0.2349  0.0905
15437SOL    HW157965   2.117   4.026   2.119 -1.6727  0.4070  0.8166
15437SOL    HW257966   2.190   4.099   2.246 -0.1397 -0.5667  0.5104
15438SOL     OW57967   1.377   9.381   3.676 -0.5248 -0.2037  0.1619
15438SOL    HW157968   1.354   9.288   3.706 -1.4381 -0.5215 -1.4188
15438SOL    HW257969   1.397   9.379   3.578  0.6015  1.0801  0.3666
15439SOL     OW57970   2.952   7.851   6.041 -0.4191 -0.2184 -0.1561
15439SOL    HW157971   2.931   7.829   6.136 -0.4863 -0.1772 -0.1620
15439SOL    HW257972   3.008   7.778   6.002  0.1541  0.0861  0.1076
15440SOL     OW57973   9.451   2.508   2.932  0.0017  0.0668  0.2637
15440SOL    HW157974   9.372   2.448   2.923 -0.3825  0.6333 -0.1857
15440SOL    HW257975   9.534   2.453   2.945 -0.1652 -0.6220 -1.4624
15441SOL     OW57976   5.311   1.423   6.076  0.2361 -0.0445  0.1307
15441SOL    HW157977   5.372   1.431   5.997  0.5953 -0.4626  0.3586
15441SOL    HW257978   5.222   1.463   6.054  0.6820  0.8242 -0.1046
15442SOL     OW57979   8.846   7.182   4.386 -0.0924  0.3387  0.5426
15442SOL    HW157980   8.781   7.255   4.408 -3.0792 -2.2652  0.7087
15442SOL    HW257981   8.887   7.147   4.471 -0.8799 -0.1270  0.7364
15443SOL     OW57982   9.315   6.119   3.233 -0.2942  0.3580  0.0302
15443SOL    HW157983   9.326   6.187   3.306 -0.2818 -0.8078  1.1221
15443SOL    HW257984   9.379   6.044   3.247 -0.2861  0.1190 -1.1981
15444SOL     OW57985   4.174   0.938   2.335 -0.1256  0.2514  0.1373
15444SOL    HW157986   4.203   0.881   2.412  0.9287  1.1894  0.4433
15444SOL    HW257987   4.109   0.886   2.278 -0.4718 -0.6496  1.3265
15445SOL     OW57988   1.654   2.828   0.785  0.1803  0.2735  0.1847
15445SOL    HW157989   1.684   2.814   0.690 -0.1527  0.1478  0.0990
15445SOL    HW257990   1.554   2.832   0.788  0.1614 -0.5613  0.6523
15446SOL     OW57991   3.912   9.466   5.858  0.2664 -0.2404 -0.0248
15446SOL    HW157992   3.872   9.511   5.777  0.4089 -0.0616  0.0032
15446SOL    HW257993   3.840   9.449   5.925 -0.2173 -2.1893 -1.0022
15447SOL     OW57994   1.300   1.547   5.905  0.1393 -0.2021 -0.2413
15447SOL    HW157995   1.224   1.558   5.841 -0.7193 -1.1549  0.5897
15447SOL    HW257996   1.386   1.568   5.859 -0.6916  1.6911 -0.9663
15448SOL     OW57997   2.265   4.241   3.818 -0.3365 -0.1047 -0.0037
15448SOL    HW157998   2.359   4.219   3.845 -0.6561 -1.6354 -0.1056
15448SOL    HW257999   2.225   4.304   3.885  0.5694  0.0848  0.3608
15449SOL     OW58000   2.311   4.764   6.396  0.0051  0.5301 -0.2874
15449SOL    HW158001   2.238   4.754   6.328 -0.0212  1.3075 -0.3843
15449SOL    HW258002   2.305   4.855   6.438 -0.7452 -0.4088  1.6692
15450SOL     OW58003   7.147   7.648   4.062 -0.3468 -0.2077  0.1777
15450SOL    HW158004   7.188   7.687   4.145 -1.7362  1.6155  0.0543
15450SOL    HW258005   7.052   7.678   4.056  0.1760  0.9910 -2.8580
15451SOL     OW58006   3.984   0.025   0.865  0.2432 -0.2551 -0.4044
15451SOL    HW158007   3.906   0.087   0.872  0.3286  0.0613 -2.0760
15451SOL    HW258008   4.043   0.053   0.790  2.7426  0.3182  1.6989
15452SOL     OW58009   0.406   8.858   0.781  0.2886  0.0903 -0.1987
15452SOL    HW158010   0.393   8.792   0.707 -0.4619 -0.3441  0.3091
15452SOL    HW258011   0.473   8.823   0.847  1.5392  0.8207 -1.0621
15453SOL     OW58012   8.624   4.607   1.533  0.2050  0.6136 -0.6264
15453SOL    HW158013   8.620   4.658   1.447 -1.5562  1.5159 -0.0299
15453SOL    HW258014   8.625   4.509   1.513  0.2362  0.8186 -1.6846
15454SOL     OW58015   9.557   5.143   8.126 -0.2504 -0.0390  0.0383
15454SOL    HW158016   9.539   5.128   8.224 -0.4407 -1.4897 -0.2171
15454SOL    HW258017   9.512   5.228   8.097  1.8431  1.7330  1.7676
15455SOL     OW58018   1.716   8.610   0.052  0.1815  0.6687 -0.4999
15455SOL    HW158019   1.724   8.706   0.078 -1.1331  0.4815  0.6285
15455SOL    HW258020   1.748   8.599  -0.042  1.0083  2.0796 -0.4062
15456SOL     OW58021   3.011   7.366   6.935 -0.2885  0.4057  0.2818
15456SOL    HW158022   3.032   7.440   6.871  0.2181 -0.5159 -0.6358
15456SOL    HW258023   2.927   7.320   6.906 -0.7510  0.7948  1.0043
15457SOL     OW58024   8.528   5.359   1.446  0.2176  0.3941 -0.0147
15457SOL    HW158025   8.603   5.337   1.384  0.3918  0.8769  0.0279
15457SOL    HW258026   8.447   5.385   1.392 -0.3139 -1.3446 -0.1012
15458SOL     OW58027   7.886   5.064   3.567  0.1273 -0.0583  0.1603
15458SOL    HW158028   7.856   5.158   3.549  1.7871  0.6733  1.0834
15458SOL    HW258029   7.855   5.005   3.493  1.5884  1.7693 -2.0027
15459SOL     OW58030   2.147   2.853   6.992  0.8792 -0.4161  0.4400
15459SOL    HW158031   2.132   2.919   6.918  1.5794 -1.0122 -0.2312
15459SOL    HW258032   2.245   2.848   7.012  0.6852 -0.1666  1.4983
15460SOL     OW58033   3.516   0.506   4.078 -0.1343  0.7138 -0.0514
15460SOL    HW158034   3.507   0.407   4.087  0.9977  0.5543 -0.6393
15460SOL    HW258035   3.503   0.549   4.168 -0.0395 -0.0081  0.3124
15461SOL     OW58036   4.496   5.640   2.838 -0.3538 -0.0071 -0.4309
15461SOL    HW158037   4.509   5.717   2.900  0.1276  0.0422 -0.5973
15461SOL    HW258038   4.576   5.580   2.841 -0.5195 -0.2455 -0.6696
15462SOL     OW58039   2.851   1.294   7.027 -0.1364 -0.5121 -0.5311
15462SOL    HW158040   2.925   1.228   7.009  1.3654  0.8401  0.5906
15462SOL    HW258041   2.851   1.363   6.955 -0.8584 -0.9743 -0.9808
15463SOL     OW58042   7.433   4.855   7.327  0.4506  0.2988 -0.2797
15463SOL    HW158043   7.454   4.950   7.348 -0.9024  0.5804 -0.1235
15463SOL    HW258044   7.464   4.834   7.235  1.4586  0.6563 -0.0335
15464SOL     OW58045   9.984   4.540   2.945 -0.1396  0.0738  1.1608
15464SOL    HW158046  10.058   4.608   2.951  0.6528 -0.5413 -0.9648
15464SOL    HW258047   9.903   4.583   2.907  0.1918 -0.0018  0.3388
15465SOL     OW58048   1.778   6.662   1.601  0.0757 -0.3045  0.2720
15465SOL    HW158049   1.719   6.640   1.679 -0.7815 -0.0525 -0.3011
15465SOL    HW258050   1.868   6.620   1.615 -0.0962 -0.3292  1.3555
15466SOL     OW58051   3.089   1.024   3.407 -0.2265  0.3652 -0.0615
15466SOL    HW158052   3.181   0.986   3.398 -0.2430  0.2842  0.1120
15466SOL    HW258053   3.070   1.044   3.504 -1.4318 -2.2334  0.2816
15467SOL     OW58054   4.170   1.924   3.590  0.1342 -0.0771  0.0345
15467SOL    HW158055   4.248   1.943   3.531 -0.5885  2.3294 -0.2397
15467SOL    HW258056   4.144   1.828   3.582  2.0499 -0.5252 -1.0883
15468SOL     OW58057   4.164   0.272   6.309 -0.6716 -0.4766 -0.4308
15468SOL    HW158058   4.230   0.309   6.373  0.3504  0.4250 -1.9771
15468SOL    HW258059   4.212   0.231   6.231 -1.9024  0.7066 -1.8521
15469SOL     OW58060   9.038   3.351   4.103  0.4143 -0.2367  0.2723
15469SOL    HW158061   9.119   3.394   4.142 -0.1473 -0.3084  1.5499
15469SOL    HW258062   8.970   3.336   4.175 -1.0173  0.4589 -0.9094
15470SOL     OW58063   3.475   3.319   1.905 -0.2197  0.0806  0.7447
15470SOL    HW158064   3.416   3.389   1.947  0.8719 -0.2220  2.8596
15470SOL    HW258065   3.567   3.357   1.892 -0.6127  0.2652 -1.7295
15471SOL     OW58066   1.362   0.499   7.301  0.0876  0.8060  0.5210
15471SOL    HW158067   1.339   0.564   7.373 -1.1361 -3.0008  3.7222
15471SOL    HW258068   1.461   0.497   7.287  0.2559  2.2439  1.4490
15472SOL     OW58069   7.135   1.880   4.512 -0.4871 -0.0743 -0.3549
15472SOL    HW158070   7.045   1.915   4.484  0.1435  1.7263 -0.1862
15472SOL    HW258071   7.204   1.949   4.493  0.9009 -1.5238 -0.6442
15473SOL     OW58072   1.827   1.665   4.031  0.1643 -0.0049 -0.6154
15473SOL    HW158073   1.826   1.569   4.061 -0.8251  0.0774 -0.3737
15473SOL    HW258074   1.733   1.700   4.026  0.4219  0.5529 -2.0025
15474SOL     OW58075   7.271   3.343   1.596  0.1930 -0.8355 -0.0423
15474SOL    HW158076   7.303   3.383   1.510  0.3049 -1.1560 -0.1517
15474SOL    HW258077   7.198   3.399   1.634  0.0446 -0.7715 -0.4203
15475SOL     OW58078   4.099   7.802   4.928  0.0939  0.0359  0.4383
15475SOL    HW158079   4.051   7.762   5.005  1.1506  0.6311  1.4178
15475SOL    HW258080   4.143   7.887   4.956  1.7001 -0.4750 -0.4188
15476SOL     OW58081   8.064   5.821   2.927 -0.4492  0.4107 -0.1197
15476SOL    HW158082   8.031   5.896   2.871 -1.2591 -0.7159 -1.1862
15476SOL    HW258083   8.009   5.814   3.010 -0.7244  0.6656 -0.2809
15477SOL     OW58084   3.798   9.724   3.904  0.2831 -0.1823  0.2567
15477SOL    HW158085   3.771   9.757   3.995 -0.8340 -2.4889  0.7944
15477SOL    HW258086   3.721   9.675   3.863  0.7461  0.9482 -2.0209
15478SOL     OW58087   4.352   9.139   4.357 -0.0906  0.3970 -0.9829
15478SOL    HW158088   4.444   9.179   4.360  0.3348 -0.6621  1.1124
15478SOL    HW258089   4.329   9.117   4.262  1.8457  0.6390 -1.5431
15479SOL     OW58090   8.356   8.918   2.257  0.0578  0.1258 -0.0301
15479SOL    HW158091   8.454   8.939   2.262  0.5771 -1.9469 -0.6220
15479SOL    HW258092   8.337   8.874   2.169 -1.1399 -0.7358  0.6446
15480SOL     OW58093   2.709   1.076   6.192 -0.3089 -0.3378  0.1436
15480SOL    HW158094   2.665   0.987   6.180 -1.0676  0.0067  0.3138
15480SOL    HW258095   2.643   1.140   6.232  0.6586 -0.0837  1.3423
15481SOL     OW58096   7.309   6.730   3.170 -0.0816 -0.0637  0.1358
15481SOL    HW158097   7.294   6.685   3.082 -2.0205 -2.4639  1.6314
15481SOL    HW258098   7.377   6.679   3.223 -1.5755 -0.7425  1.4518
15482SOL     OW58099   5.161   7.422   3.485  0.2818  0.1796 -0.7488
15482SOL    HW158100   5.061   7.427   3.482  0.2249 -0.0091  0.4291
15482SOL    HW258101   5.189   7.333   3.521  0.8721  0.3008 -0.8974
15483SOL     OW58102   1.490   1.149   6.131  0.0455  0.1581  0.1640
15483SOL    HW158103   1.411   1.196   6.092  0.3429 -0.0143 -0.6594
15483SOL    HW258104   1.565   1.150   6.065  0.3274 -0.7397  0.4652
15484SOL     OW58105   2.966   7.550   6.672 -0.4592  0.0500  0.0995
15484SOL    HW158106   2.927   7.461   6.647  0.0710 -0.2914  0.4785
15484SOL    HW258107   3.055   7.561   6.630 -0.8021  0.6773 -0.4644
15485SOL     OW58108   4.424   5.165   2.600  0.3725  0.1559  0.2529
15485SOL    HW158109   4.418   5.216   2.514 -2.2209 -1.9868 -0.8884
15485SOL    HW258110   4.520   5.144   2.618  1.0693  1.6228 -1.5204
15486SOL     OW58111   4.295   3.259   0.812  0.2988 -0.5430 -0.4630
15486SOL    HW158112   4.217   3.321   0.809  1.9377  1.7010  1.1998
15486SOL    HW258113   4.285   3.197   0.891  0.4457  0.1134  0.0784
15487SOL     OW58114   3.833   8.732   6.052  0.3707 -0.1629  0.6233
15487SOL    HW158115   3.909   8.720   5.988 -0.4171 -1.3505 -0.1207
15487SOL    HW258116   3.808   8.829   6.056  0.7091 -0.0131 -0.5640
15488SOL     OW58117   2.215   8.265   3.244 -0.5260 -0.2153 -0.6131
15488SOL    HW158118   2.277   8.343   3.240 -0.5769 -0.2400 -1.9892
15488SOL    HW258119   2.224   8.220   3.333 -0.8930  1.6714  0.4089
15489SOL     OW58120   3.170   4.625   6.992  0.6887 -0.5456 -0.1061
15489SOL    HW158121   3.085   4.644   7.041  0.1511 -2.3496 -0.3347
15489SOL    HW258122   3.231   4.704   7.002 -0.9800  0.7639  0.0738
15490SOL     OW58123   9.682   2.358   3.917 -0.3237  0.4419 -0.0148
15490SOL    HW158124   9.715   2.440   3.964  2.2078 -0.2443 -0.5034
15490SOL    HW258125   9.719   2.356   3.824 -1.9790 -0.2621 -0.6734
15491SOL     OW58126   7.551   7.183   4.537 -0.3977  0.6629  0.1791
15491SOL    HW158127   7.477   7.127   4.574  0.9872 -1.0761  0.4033
15491SOL    HW258128   7.575   7.151   4.445 -0.0920  1.3881 -0.0012
15492SOL     OW58129   1.046   3.014   2.953  0.1574  0.5305 -0.3441
15492SOL    HW158130   0.953   3.045   2.969  0.3456  1.4030 -0.8770
15492SOL    HW258131   1.057   2.990   2.857  0.3632  0.0176 -0.1931
15493SOL     OW58132   8.209   5.768   7.047  0.1709  0.2847  1.0280
15493SOL    HW158133   8.243   5.783   6.954  0.3104  0.9734  1.1864
15493SOL    HW258134   8.200   5.670   7.064 -1.2432  0.1920 -0.1993
15494SOL     OW58135   4.808   8.615   5.982 -0.1029 -0.2484  0.4672
15494SOL    HW158136   4.852   8.565   6.057 -1.4184 -1.4874  0.4221
15494SOL    HW258137   4.743   8.681   6.020  1.8295  1.6875  0.5405
15495SOL     OW58138   3.505   4.164   3.662  0.4579 -0.2481  0.2217
15495SOL    HW158139   3.540   4.149   3.570  0.5824  0.1362  0.2071
15495SOL    HW258140   3.464   4.255   3.668 -0.7046 -0.7499  0.1806
15496SOL     OW58141   1.933   6.381   7.382  0.0439 -0.1083 -0.2138
15496SOL    HW158142   1.945   6.283   7.369  0.1395 -0.2080  0.5552
15496SOL    HW258143   1.978   6.408   7.468  1.9294  1.0076 -1.5318
15497SOL     OW58144   9.155   4.843   1.992  0.2233 -0.1872  0.3796
15497SOL    HW158145   9.076   4.781   1.993  0.1524 -0.1259 -0.8446
15497SOL    HW258146   9.178   4.866   1.897 -0.2311  2.2626  0.8497
15498SOL     OW58147   1.280   6.845   1.038  0.0727 -0.4437  0.4621
15498SOL    HW158148   1.275   6.815   0.943  1.7247 -0.6023  0.4000
15498SOL    HW258149   1.292   6.944   1.042 -1.1679 -0.2965  0.5407
15499SOL     OW58150   8.965   3.327   0.789  0.2978  0.1455  0.2564
15499SOL    HW158151   8.978   3.324   0.888  2.6149  1.0885  0.0243
15499SOL    HW258152   9.047   3.291   0.744 -1.1502 -1.2602 -1.3210
15500SOL     OW58153   3.246   2.947   2.554 -0.2285 -0.2499 -0.7123
15500SOL    HW158154   3.322   2.884   2.565  1.0931  1.1676 -1.5556
15500SOL    HW258155   3.244   3.011   2.631 -0.6310 -0.3434 -0.6422
15501SOL     OW58156   4.167   9.735   2.781 -0.2727  0.0389  0.0429
15501SOL    HW158157   4.250   9.782   2.749  1.0739 -1.2477  1.6142
15501SOL    HW258158   4.176   9.637   2.766 -0.8027 -0.2902  1.8490
15502SOL     OW58159   6.458   6.622   5.779  0.2124  0.2949  0.2944
15502SOL    HW158160   6.524   6.691   5.750  0.9648 -0.9027 -0.9463
15502SOL    HW258161   6.439   6.633   5.877  3.2832 -0.1449  1.0042
15503SOL     OW58162   7.029   6.222   8.097 -0.6746 -0.3076  0.2955
15503SOL    HW158163   7.107   6.182   8.146 -0.8926  0.8403  1.6003
15503SOL    HW258164   7.060   6.255   8.008 -0.3141 -2.5760 -0.4454
15504SOL     OW58165   3.052   3.061   7.123  0.7170  0.1575  0.1569
15504SOL    HW158166   3.015   2.970   7.141  1.5582 -0.2181  0.0099
15504SOL    HW258167   2.989   3.131   7.158  0.0132 -0.4779  0.1516
15505SOL     OW58168   1.567   7.377   4.094 -0.3025 -0.2813  0.0855
15505SOL    HW158169   1.622   7.315   4.039 -1.2479 -2.3871  1.4354
15505SOL    HW258170   1.506   7.430   4.034 -0.2612 -1.4467 -1.0069
15506SOL     OW58171   3.731   0.296   6.303 -0.0826  0.0697 -0.0398
15506SOL    HW158172   3.637   0.276   6.276 -0.1937 -1.2498  1.2307
15506SOL    HW258173   3.795   0.239   6.250 -0.1602 -0.8004  0.7823
15507SOL     OW58174   1.185   6.857   2.198  0.5785 -0.0805 -0.3230
15507SOL    HW158175   1.284   6.847   2.196  0.7771  1.0008  2.1600
15507SOL    HW258176   1.143   6.787   2.141  2.7365 -1.0504 -0.7478
15508SOL     OW58177   6.931   9.543   3.598  0.1066 -0.2340 -0.2750
15508SOL    HW158178   6.948   9.479   3.673 -0.8006 -0.6461 -0.4248
15508SOL    HW258179   7.014   9.551   3.542  0.4494 -0.7266  0.1586
15509SOL     OW58180   7.852   3.544   2.015  0.3613  0.2258  0.1228
15509SOL    HW158181   7.879   3.517   1.923 -1.5452 -1.0524 -0.0945
15509SOL    HW258182   7.761   3.586   2.012  0.7446  1.1651  1.2794
15510SOL     OW58183   6.651   7.589   2.699  0.1002  0.2803  0.1839
15510SOL    HW158184   6.731   7.530   2.690 -0.4185 -0.4544  0.3044
15510SOL    HW258185   6.577   7.538   2.742 -0.2949  1.0860  0.4660
15511SOL     OW58186   1.794   8.774   4.333  0.2310  0.4632 -0.3427
15511SOL    HW158187   1.770   8.808   4.242 -1.4052 -1.1156 -0.5347
15511SOL    HW258188   1.725   8.805   4.399  0.2456 -0.1665 -0.0297
15512SOL     OW58189   1.394   2.854   1.074  0.5789 -0.6644  0.5033
15512SOL    HW158190   1.416   2.839   0.978  0.0184 -0.8117  0.3975
15512SOL    HW258191   1.325   2.926   1.082  0.2885 -0.9681  0.7632
15513SOL     OW58192   2.871   4.626   2.276 -0.2871  0.5943 -0.6162
15513SOL    HW158193   2.944   4.584   2.223 -0.2366 -1.0193  0.6883
15513SOL    HW258194   2.782   4.596   2.241 -0.2420 -1.6341  1.0633
15514SOL     OW58195   9.090   1.418   6.879  0.6131 -0.3273 -0.2403
15514SOL    HW158196   9.135   1.394   6.793  1.5770  1.4021 -0.2478
15514SOL    HW258197   8.995   1.386   6.877  0.3231  0.5802 -2.3690
15515SOL     OW58198   3.864   3.593   6.959 -0.1600 -0.1668 -0.3176
15515SOL    HW158199   3.920   3.529   7.011  0.5382 -2.0335 -3.3068
15515SOL    HW258200   3.874   3.577   6.861 -2.6196  2.2816 -1.0721
15516SOL     OW58201   9.178   3.923   1.276 -0.1657  0.1616 -0.0421
15516SOL    HW158202   9.190   3.968   1.188 -1.2388 -0.3323 -0.4525
15516SOL    HW258203   9.092   3.871   1.276 -0.4775  0.6392  1.5053
15517SOL     OW58204   2.126   2.975   1.353 -0.1710 -0.1118 -0.1450
15517SOL    HW158205   2.150   2.987   1.257 -0.1849 -0.3146 -0.1756
15517SOL    HW258206   2.102   2.879   1.369  0.2508 -0.1693  0.1532
15518SOL     OW58207   6.170   0.843   3.765  0.1317 -0.4569 -0.2760
15518SOL    HW158208   6.262   0.865   3.732  1.2431 -1.6008  1.9464
15518SOL    HW258209   6.154   0.745   3.758 -0.3077 -0.4745  0.8047
15519SOL     OW58210   6.886   8.206   4.351  0.2208 -0.1000 -0.6758
15519SOL    HW158211   6.796   8.219   4.391  1.4028  1.8100  1.5213
15519SOL    HW258212   6.907   8.282   4.290  0.1459 -0.8125 -1.5998
15520SOL     OW58213   3.226   0.604   4.531 -0.4728 -0.4151 -0.2173
15520SOL    HW158214   3.154   0.673   4.520  0.7123  1.0051  0.6148
15520SOL    HW258215   3.250   0.597   4.628  2.3302  1.0771 -0.7648
15521SOL     OW58216   7.768   7.435   7.478 -0.0623 -0.0530 -0.1382
15521SOL    HW158217   7.850   7.407   7.427  0.9265 -0.6806  1.7331
15521SOL    HW258218   7.783   7.525   7.519  0.9122 -1.4179  2.6819
15522SOL     OW58219   2.253   6.676   1.649  0.5590  0.3114 -0.1222
15522SOL    HW158220   2.242   6.687   1.748 -0.3344 -0.7518 -0.0929
15522SOL    HW258221   2.182   6.614   1.614 -0.9777  2.9586 -1.8836
15523SOL     OW58222   4.664   5.353   8.191  0.2655 -0.0535 -0.2650
15523SOL    HW158223   4.717   5.396   8.118 -2.0187 -2.4125 -3.4238
15523SOL    HW258224   4.584   5.410   8.211  0.5470  0.2628 -0.0231
15524SOL     OW58225   4.918   2.268   7.559  0.0637  0.0667  0.5529
15524SOL    HW158226   4.967   2.323   7.626  1.1342  0.1007 -0.2481
15524SOL    HW258227   4.912   2.174   7.590 -0.1089  0.2329  1.0352
15525SOL     OW58228   2.466   5.111   2.646  0.4715  0.4696 -0.1048
15525SOL    HW158229   2.372   5.086   2.622  0.2809  0.3192  0.7741
15525SOL    HW258230   2.528   5.037   2.621  0.5367  1.1440 -1.9597
15526SOL     OW58231   9.017   1.415   1.492  0.3282 -0.4338  0.3675
15526SOL    HW158232   8.988   1.419   1.396  0.2891 -0.6263  0.3710
15526SOL    HW258233   9.116   1.397   1.496  0.3887 -0.1169  0.3600
15527SOL     OW58234   4.644   8.831   6.916  0.3791 -0.5468  0.6787
15527SOL    HW158235   4.556   8.875   6.896 -0.4062 -1.6419  1.6863
15527SOL    HW258236   4.633   8.732   6.918  1.5123 -0.6677  1.4767
15528SOL     OW58237   1.642   3.423   3.053 -0.1159  0.0792  0.1012
15528SOL    HW158238   1.650   3.417   3.153 -0.6663 -1.1175  0.0829
15528SOL    HW258239   1.573   3.491   3.029 -0.9854 -0.6141  0.5828
15529SOL     OW58240   1.224   0.139   2.567 -0.0308 -0.0180 -0.2102
15529SOL    HW158241   1.230   0.040   2.551 -0.0079 -0.3518  1.7485
15529SOL    HW258242   1.136   0.172   2.534 -0.6722 -0.9843  0.4712
15530SOL     OW58243   1.194   5.869   0.057 -0.1962 -0.3350 -0.0403
15530SOL    HW158244   1.262   5.844   0.127  0.2030 -1.8649 -0.9430
15530SOL    HW258245   1.231   5.849  -0.034 -0.7720  1.5005 -0.6920
15531SOL     OW58246   8.875   0.178   5.563 -0.0199 -0.6285  0.6452
15531SOL    HW158247   8.818   0.123   5.502 -0.2444  0.0909  0.2070
15531SOL    HW258248   8.937   0.118   5.614 -1.2739 -1.4324  1.2456
15532SOL     OW58249   1.707   6.443   4.535 -0.6687 -0.4778  0.3134
15532SOL    HW158250   1.749   6.462   4.624 -0.0034 -1.6457  0.2628
15532SOL    HW258251   1.778   6.412   4.472 -1.3585 -0.9134 -0.2434
15533SOL     OW58252   7.572   7.711   2.377  1.0930 -0.1250 -0.4374
15533SOL    HW158253   7.641   7.702   2.449  0.1907  0.6247  0.5481
15533SOL    HW258254   7.548   7.807   2.367 -0.9072 -0.5180  0.3066
15534SOL     OW58255   0.882   5.300   5.237 -0.3752  0.2148 -0.3236
15534SOL    HW158256   0.891   5.399   5.246  0.2139 -0.0448  2.8120
15534SOL    HW258257   0.827   5.264   5.313 -0.7433 -1.8412 -1.5105
15535SOL     OW58258   9.481   6.917   3.865 -0.0247  0.0372  0.4778
15535SOL    HW158259   9.455   6.926   3.961  0.1326 -0.0635  0.5302
15535SOL    HW258260   9.567   6.867   3.858 -0.9261 -1.5053  0.1861
15536SOL     OW58261   4.854   8.326   2.396  0.3735 -0.3859  0.5989
15536SOL    HW158262   4.757   8.310   2.418 -0.3474  0.6570 -1.6871
15536SOL    HW258263   4.889   8.246   2.346  0.2444 -0.1004  0.0490
15537SOL     OW58264   0.504   0.827   2.972 -0.2426 -0.0382  0.1878
15537SOL    HW158265   0.460   0.904   3.018 -1.0978 -1.5459  1.9967
15537SOL    HW258266   0.526   0.757   3.039 -1.3571 -2.2473 -1.6733
15538SOL     OW58267   8.185   8.975   7.044 -0.4856 -0.2336  0.3066
15538SOL    HW158268   8.171   8.931   7.133 -0.1957 -0.2595  0.3402
15538SOL    HW258269   8.101   8.968   6.990 -0.0453 -1.9935 -0.1968
15539SOL     OW58270   6.701   4.419   7.100  0.3213  1.0883  0.5047
15539SOL    HW158271   6.801   4.421   7.098  0.3884 -1.2636 -0.4382
15539SOL    HW258272   6.670   4.365   7.178 -0.0733 -1.6909 -1.4892
15540SOL     OW58273   4.973   3.741   0.586  0.1528  0.0162  0.3324
15540SOL    HW158274   4.947   3.646   0.569 -0.5200  0.3416 -0.5182
15540SOL    HW258275   5.072   3.748   0.598  0.8255 -0.1414 -4.3273
15541SOL     OW58276   7.163   2.315   1.541  0.0575  0.2113 -0.2618
15541SOL    HW158277   7.239   2.251   1.531  0.6026  0.8975 -0.6607
15541SOL    HW258278   7.080   2.276   1.503 -0.1410 -1.1444  1.5088
15542SOL     OW58279   8.889   0.966   8.077  0.1043  0.0056 -0.6819
15542SOL    HW158280   8.806   0.915   8.055 -0.8350  1.1924  0.0514
15542SOL    HW258281   8.921   0.940   8.168  0.6388 -0.5756 -1.0344
15543SOL     OW58282   3.207   7.819   8.076  0.1405  0.1680  0.2658
15543SOL    HW158283   3.167   7.909   8.093  1.2405  0.5004  1.2206
15543SOL    HW258284   3.306   7.824   8.089  0.3692 -0.8683 -1.0353
15544SOL     OW58285   1.535   3.811   1.758  0.0324  0.0537 -0.0421
15544SOL    HW158286   1.461   3.788   1.695 -0.1651  2.4749 -0.7794
15544SOL    HW258287   1.529   3.908   1.782  0.2338 -0.7440  3.5626
15545SOL     OW58288   0.219   3.762   3.371 -0.2074  0.2074  0.4407
15545SOL    HW158289   0.189   3.723   3.459  0.3408  0.5767  0.7950
15545SOL    HW258290   0.310   3.803   3.382  0.3314 -0.7027 -0.5713
15546SOL     OW58291   2.244   7.462   1.566  0.0968  0.4747  0.3635
15546SOL    HW158292   2.171   7.525   1.592  0.7147  1.7555 -0.9078
15546SOL    HW258293   2.321   7.472   1.629  0.1470  0.9159  0.2342
15547SOL     OW58294   9.956   7.512   2.289 -0.5425  0.1903  0.0750
15547SOL    HW158295   9.953   7.446   2.214 -0.1186 -0.0175  0.2343
15547SOL    HW258296   9.983   7.601   2.253 -0.3195  0.0871 -0.0213
15548SOL     OW58297   6.680   1.010   0.060  0.0235 -0.0433 -0.0412
15548SOL    HW158298   6.692   0.971  -0.031 -0.7540  1.0189 -0.6193
15548SOL    HW258299   6.766   1.007   0.110  0.5979 -0.1141 -1.0286
15549SOL     OW58300   0.387   1.454   6.283 -0.1895  0.3989  0.0191
15549SOL    HW158301   0.484   1.444   6.261  0.1318  1.2323  0.9794
15549SOL    HW258302   0.334   1.469   6.199  0.7667  1.8164 -0.3549
15550SOL     OW58303   2.292   5.253   0.432  0.4771 -0.2712  0.7260
15550SOL    HW158304   2.315   5.349   0.450  0.8586 -0.6526  2.4111
15550SOL    HW258305   2.195   5.245   0.412  0.7364  0.6638 -0.9746
15551SOL     OW58306   4.101   3.653   6.769 -0.4882 -0.0221 -0.6768
15551SOL    HW158307   4.083   3.558   6.794 -2.6921  0.6531  0.4490
15551SOL    HW258308   4.107   3.660   6.670 -0.7423 -1.2669 -0.7966
15552SOL     OW58309   1.905   7.058   0.318  0.3109 -0.3806 -0.9906
15552SOL    HW158310   1.863   6.968   0.317  0.5891 -0.5136 -0.6724
15552SOL    HW258311   1.910   7.092   0.412 -2.3908  1.1847 -1.3596
15553SOL     OW58312   8.696   3.855   6.037  0.7345 -0.0725 -0.2216
15553SOL    HW158313   8.605   3.816   6.050  0.5946  0.3736  0.1489
15553SOL    HW258314   8.713   3.868   5.939  0.5733 -0.5693 -0.3165
15554SOL     OW58315   2.843   9.883   5.540  0.6657  0.5312  0.2357
15554SOL    HW158316   2.892   9.849   5.460  0.1883  0.6749 -0.1215
15554SOL    HW258317   2.890   9.855   5.623  0.2528 -1.0179 -0.0492
15555SOL     OW58318   1.561   7.410   1.391 -0.3248 -0.2751 -0.2831
15555SOL    HW158319   1.621   7.345   1.345  0.1348 -0.6622  0.8418
15555SOL    HW258320   1.571   7.400   1.490 -0.6648  1.1153 -0.0964
15556SOL     OW58321   6.506   3.452   1.203  0.6021 -0.1193  0.1125
15556SOL    HW158322   6.554   3.540   1.200  0.3648 -0.0246 -1.1341
15556SOL    HW258323   6.561   3.385   1.252  0.7331  0.7584  1.1743
15557SOL     OW58324   9.969   5.211   7.836  0.0298 -0.8671  0.3311
15557SOL    HW158325   9.924   5.201   7.925 -1.8428 -0.6473 -0.5665
15557SOL    HW258326   9.913   5.268   7.777  1.7850 -0.1389 -0.6558
15558SOL     OW58327   9.520   4.718   4.691 -0.3449  0.0984 -0.5601
15558SOL    HW158328   9.520   4.794   4.625 -2.2450  0.6839  0.0778
15558SOL    HW258329   9.613   4.706   4.728  0.0569  1.8971 -0.9269
15559SOL     OW58330   0.299   4.817   6.284  0.1479 -0.2564  0.0802
15559SOL    HW158331   0.208   4.844   6.312  0.7007  1.8140 -0.0376
15559SOL    HW258332   0.358   4.808   6.364  0.6249  1.4534 -0.0662
15560SOL     OW58333   1.217   2.750   7.004  0.3966  0.4919 -0.0333
15560SOL    HW158334   1.253   2.808   6.932  1.2606 -0.3668 -0.3053
15560SOL    HW258335   1.165   2.675   6.964 -1.0106  1.2487  0.3268
15561SOL     OW58336   1.126   4.523   6.258  0.5143 -0.4656 -0.6460
15561SOL    HW158337   1.078   4.580   6.324  2.6779 -0.1585  0.6988
15561SOL    HW258338   1.071   4.441   6.239 -0.1704 -0.5401  1.5011
15562SOL     OW58339   0.024   5.053   3.030  0.1780  0.4386 -0.2665
15562SOL    HW158340  -0.049   5.105   2.985 -0.0285 -1.0923 -1.7579
15562SOL    HW258341  -0.016   4.976   3.081  0.6208  0.5677  0.2792
15563SOL     OW58342   1.785   4.845   2.637 -0.1749  0.0053 -0.4425
15563SOL    HW158343   1.880   4.815   2.641 -0.2764 -0.2902 -0.2337
15563SOL    HW258344   1.728   4.782   2.689 -0.1877  1.3497  1.2148
15564SOL     OW58345   9.613   6.849   6.116  0.7941 -0.3518  0.0910
15564SOL    HW158346   9.624   6.783   6.041 -0.4535  0.1162 -0.5101
15564SOL    HW258347   9.638   6.940   6.084  3.5127 -0.6594  1.2147
15565SOL     OW58348   0.746   1.416   4.103  1.1143 -0.2184 -0.1379
15565SOL    HW158349   0.833   1.419   4.053  1.7855 -2.0738  0.8897
15565SOL    HW258350   0.693   1.498   4.081  3.1556  0.9989 -0.7084
15566SOL     OW58351   2.684   9.349   1.832  0.1928 -0.1376  0.2071
15566SOL    HW158352   2.782   9.348   1.814  0.6283  2.1386  2.2470
15566SOL    HW258353   2.666   9.308   1.921 -0.6317  0.2136  0.2026
15567SOL     OW58354   8.381   4.712   2.407 -0.1305  0.0276  0.4753
15567SOL    HW158355   8.380   4.812   2.416  0.4137 -0.0699  1.7136
15567SOL    HW258356   8.339   4.671   2.488  1.6251 -0.8105  0.9798
15568SOL     OW58357   9.282   0.152   5.838 -0.7379  0.6048  0.3727
15568SOL    HW158358   9.352   0.224   5.838  0.6500 -0.6789  3.2895
15568SOL    HW258359   9.192   0.194   5.851 -0.1883  1.9988 -0.1637
15569SOL     OW58360   5.583   0.570   6.651 -0.0374 -0.0994 -0.0329
15569SOL    HW158361   5.507   0.585   6.715  0.3586  2.3117 -0.1006
15569SOL    HW258362   5.668   0.600   6.693  0.1618  2.0063 -1.8802
15570SOL     OW58363   7.217   5.621   1.677 -0.5949  0.8139  0.2520
15570SOL    HW158364   7.258   5.658   1.594 -0.6349 -0.1323 -0.2019
15570SOL    HW258365   7.275   5.644   1.755  0.1952  0.5003 -0.2259
15571SOL     OW58366   9.242   5.299   7.057  0.0401  0.6984  0.0701
15571SOL    HW158367   9.259   5.359   7.135  0.6860  0.8430 -0.1815
15571SOL    HW258368   9.293   5.332   6.978  0.4386 -0.2170 -0.0565
15572SOL     OW58369   0.624   9.988   1.919  0.2340  0.5356 -0.4309
15572SOL    HW158370   0.673   9.961   1.836  1.6040  0.3292  0.4191
15572SOL    HW258371   0.681  10.052   1.971 -0.3757  0.2198  0.6344
15573SOL     OW58372   6.327   5.062   0.554  0.2432  0.0665  0.2238
15573SOL    HW158373   6.247   5.090   0.607  0.4663 -0.3070  0.7753
15573SOL    HW258374   6.344   5.127   0.480  0.2976  0.9532  1.0030
15574SOL     OW58375   7.052   1.821   1.363  0.3088  0.0077 -1.4196
15574SOL    HW158376   6.968   1.874   1.355  0.0198 -0.3756 -0.9515
15574SOL    HW258377   7.037   1.729   1.325  0.2662 -0.3310 -0.5944
15575SOL     OW58378   2.811   2.011   1.305 -0.3896 -0.1069  0.1524
15575SOL    HW158379   2.775   1.962   1.384 -3.5327  1.0053 -0.4992
15575SOL    HW258380   2.823   2.107   1.327 -0.0852 -0.0206 -0.3595
15576SOL     OW58381   1.461   0.774   4.085 -0.0804  0.9827 -0.4344
15576SOL    HW158382   1.430   0.762   4.179  1.5834 -0.8532 -0.1052
15576SOL    HW258383   1.477   0.685   4.043 -0.8394  1.7779 -2.4915
15577SOL     OW58384   8.851   5.628   7.935  0.1716  0.8722  0.2598
15577SOL    HW158385   8.759   5.642   7.898 -0.1132  1.2710  1.1015
15577SOL    HW258386   8.866   5.530   7.951  0.7750  0.5560 -2.0955
15578SOL     OW58387   1.137   6.276   1.759 -0.3371 -0.0622 -0.1350
15578SOL    HW158388   1.232   6.246   1.759 -0.3277 -0.0455 -1.2776
15578SOL    HW258389   1.106   6.290   1.853  0.5939 -0.6797  0.2601
15579SOL     OW58390   3.589   3.140   1.439  0.4217  0.2065 -0.0260
15579SOL    HW158391   3.549   3.065   1.491 -0.1679 -0.0337 -0.8242
15579SOL    HW258392   3.662   3.182   1.493  1.3806 -1.5170  0.0624
15580SOL     OW58393   4.320   5.890   1.560 -0.0419  0.2285  0.3420
15580SOL    HW158394   4.273   5.811   1.600  0.5709  0.1416  0.9007
15580SOL    HW258395   4.297   5.897   1.463  1.7278 -2.0040 -0.2777
15581SOL     OW58396   8.872   6.647   7.506  0.3185 -0.5038  0.1862
15581SOL    HW158397   8.946   6.663   7.572 -0.9528  1.6250  1.1639
15581SOL    HW258398   8.801   6.591   7.550 -0.6150  1.0697  0.7204
15582SOL     OW58399   3.921   8.868   7.529 -0.4070 -0.1773 -0.4309
15582SOL    HW158400   3.841   8.841   7.583  1.8053 -1.2998  2.4317
15582SOL    HW258401   3.911   8.963   7.499 -3.2178 -0.6119 -0.9640
15583SOL     OW58402   1.783   4.085   5.349 -0.1135  0.7414  0.3316
15583SOL    HW158403   1.761   4.101   5.445  1.7122 -0.9056  1.0697
15583SOL    HW258404   1.723   4.015   5.312 -1.3900  1.9892  0.0077
15584SOL     OW58405   6.949   8.480   3.007  0.6432 -0.2521 -0.2339
15584SOL    HW158406   6.937   8.428   2.922 -0.0643 -2.8110  1.3522
15584SOL    HW258407   6.877   8.549   3.014  0.9805  0.3042 -1.9004
15585SOL     OW58408   1.206   7.462   1.631 -0.3440 -0.7583  0.3823
15585SOL    HW158409   1.271   7.418   1.570  0.5850 -0.8362  1.4081
15585SOL    HW258410   1.154   7.393   1.681  0.4221 -0.7104  1.2645
15586SOL     OW58411   9.888   0.333   2.152  0.1906  0.2597  0.4006
15586SOL    HW158412   9.794   0.308   2.173 -0.5277  0.9887 -1.8212
15586SOL    HW258413   9.913   0.415   2.204 -0.8448  0.8279  0.0252
15587SOL     OW58414   3.647   9.405   6.550  0.3734 -0.1584 -0.3091
15587SOL    HW158415   3.713   9.442   6.485  1.7057 -1.3418  0.3463
15587SOL    HW258416   3.590   9.337   6.504 -0.8171  1.2978 -1.0300
15588SOL     OW58417   2.470   2.719   7.330 -0.1697  0.8565 -0.7023
15588SOL    HW158418   2.473   2.621   7.309  0.2299  0.3511  1.5136
15588SOL    HW258419   2.376   2.753   7.317 -0.6488 -0.1819 -0.0496
15589SOL     OW58420   1.733   2.539   7.061 -0.3644 -0.5149  0.3212
15589SOL    HW158421   1.809   2.574   7.005  0.4589  0.1667  1.8283
15589SOL    HW258422   1.650   2.536   7.006  0.6028 -0.6085 -1.1598
15590SOL     OW58423   7.623   7.135   5.643  0.2332  0.0983  0.2355
15590SOL    HW158424   7.632   7.037   5.663  0.9640 -0.1161 -1.1106
15590SOL    HW258425   7.528   7.154   5.618  0.2200 -0.3930 -0.1125
15591SOL     OW58426   7.343   2.166   3.805  0.3269 -0.2143  0.0920
15591SOL    HW158427   7.252   2.126   3.812  0.5624 -0.8049 -0.1624
15591SOL    HW258428   7.376   2.159   3.711  0.9361 -0.6803  0.3345
15592SOL     OW58429   3.570   9.249   2.648  0.2144 -0.5623 -0.0754
15592SOL    HW158430   3.567   9.331   2.591 -1.4418 -0.1378  0.6159
15592SOL    HW258431   3.654   9.249   2.702 -0.2631  1.1945  0.6766
15593SOL     OW58432   9.310   1.843   0.710 -0.0656 -0.0923  0.0628
15593SOL    HW158433   9.231   1.797   0.668 -0.0346  0.2458 -0.3724
15593SOL    HW258434   9.387   1.840   0.646  0.5370 -1.1750  0.8305
15594SOL     OW58435   3.967   0.641   0.584  0.1246 -0.1240 -0.0789
15594SOL    HW158436   4.013   0.689   0.659  1.4251 -2.7163  0.8643
15594SOL    HW258437   3.868   0.649   0.595  0.3054  1.8658  0.3184
15595SOL     OW58438   0.865   8.391   2.946 -0.1236 -0.0839  0.7720
15595SOL    HW158439   0.854   8.481   2.904  1.6501  0.1746  0.8404
15595SOL    HW258440   0.930   8.336   2.893 -1.8180 -1.6444  0.2553
15596SOL     OW58441   7.941   8.646   6.202  0.1533 -0.1959  0.1507
15596SOL    HW158442   7.992   8.561   6.190  0.4861  0.1022 -0.5461
15596SOL    HW258443   7.845   8.624   6.222 -0.6594 -0.7484 -3.9160
15597SOL     OW58444   7.307   4.777   0.313 -0.3119  0.2624 -0.3680
15597SOL    HW158445   7.209   4.758   0.309  0.3455 -3.3252 -0.9521
15597SOL    HW258446   7.321   4.873   0.338 -3.9467  0.9958 -0.8473
15598SOL     OW58447   5.330   8.796   1.546 -0.2653  0.6414 -0.2081
15598SOL    HW158448   5.356   8.701   1.526 -0.0102  0.5494  0.5635
15598SOL    HW258449   5.354   8.854   1.468  0.7455  0.2784 -0.1663
15599SOL     OW58450   2.020   9.049   3.806  0.9231 -0.3868 -0.1652
15599SOL    HW158451   1.969   8.974   3.848  1.3321  0.1763  1.3764
15599SOL    HW258452   2.052   9.021   3.715 -2.4453 -0.5879 -1.3474
15600SOL     OW58453   9.595   1.687   0.112  0.4072  0.4406 -0.4079
15600SOL    HW158454   9.652   1.683   0.030 -0.4069 -1.0671 -0.9183
15600SOL    HW258455   9.605   1.602   0.163 -0.6410  0.5677  0.0145
15601SOL     OW58456   3.924   6.409   1.052  0.1307  0.6429 -0.3270
15601SOL    HW158457   3.877   6.345   0.992 -2.3957  1.5687  0.6032
15601SOL    HW258458   3.858   6.470   1.095  1.7847 -0.1730  3.6668
15602SOL     OW58459   5.211   9.238   2.491 -0.3126 -0.4619  0.1725
15602SOL    HW158460   5.151   9.166   2.456  0.3101 -1.5672  1.3537
15602SOL    HW258461   5.300   9.199   2.514 -0.0223  0.6590  0.9883
15603SOL     OW58462   8.853   6.710   2.283 -0.3057 -0.7401  0.1618
15603SOL    HW158463   8.829   6.787   2.224 -0.0970 -0.0692  0.9419
15603SOL    HW258464   8.951   6.692   2.276 -0.0163  0.2865  1.4019
15604SOL     OW58465   8.235   5.640   2.423  0.5730 -1.0102 -0.1745
15604SOL    HW158466   8.261   5.702   2.497  1.6284 -2.4596  0.6869
15604SOL    HW258467   8.206   5.694   2.343  0.6158  0.5692  0.8497
15605SOL     OW58468   2.188   1.349   1.409  0.4931 -0.1187 -0.2201
15605SOL    HW158469   2.246   1.430   1.422 -1.8492  1.6944 -0.7374
15605SOL    HW258470   2.128   1.338   1.488  1.3219 -1.8446  0.1970
15606SOL     OW58471   7.588   0.594   8.087 -0.4561 -0.2598  0.6741
15606SOL    HW158472   7.597   0.686   8.126  0.7295  0.8952 -2.1978
15606SOL    HW258473   7.534   0.537   8.149 -2.6254  2.8224  1.7565
15607SOL     OW58474   5.789   0.516   5.711  0.2617  0.0821 -0.1250
15607SOL    HW158475   5.719   0.447   5.730 -1.4485  1.4118 -1.3683
15607SOL    HW258476   5.814   0.512   5.614  0.6538  0.7477 -0.0523
15608SOL     OW58477   5.131   9.803   4.540  0.1353  0.2203 -0.0955
15608SOL    HW158478   5.120   9.828   4.636 -1.8713  2.7041 -0.9046
15608SOL    HW258479   5.073   9.724   4.519 -1.5981  1.4175  0.1156
15609SOL     OW58480   4.401   0.199   7.154 -0.1272  0.1326 -0.2530
15609SOL    HW158481   4.384   0.292   7.125  0.4186 -0.1073 -1.3716
15609SOL    HW258482   4.414   0.197   7.253 -1.0412  1.0963 -0.1059
15610SOL     OW58483   8.047   5.420   3.696 -0.2434 -0.0879 -0.1030
15610SOL    HW158484   8.000   5.398   3.611  0.0466  1.1240 -0.5797
15610SOL    HW258485   8.099   5.340   3.727 -0.7498 -0.6900 -0.7884
15611SOL     OW58486   3.836   7.598   1.979  0.0196 -0.1707  0.4865
15611SOL    HW158487   3.767   7.567   1.913  0.4762 -0.4862  0.1581
15611SOL    HW258488   3.839   7.697   1.979 -0.0530 -0.1661  0.0986
15612SOL     OW58489   2.747   6.904   2.067  0.0587  0.3630 -0.0810
15612SOL    HW158490   2.818   6.954   2.117 -0.5503  0.8939  0.2654
15612SOL    HW258491   2.777   6.890   1.972  1.5820 -1.4156  0.6399
15613SOL     OW58492   9.749   6.181   5.507 -0.1693 -0.3007  0.3115
15613SOL    HW158493   9.726   6.087   5.481  0.2624 -0.4545  0.4917
15613SOL    HW258494   9.843   6.201   5.481 -0.4510  0.2881 -0.2832
15614SOL     OW58495   8.911   5.457   6.079 -0.1337  0.0928 -0.1314
15614SOL    HW158496   8.826   5.472   6.028  1.0921  1.3761 -1.8620
15614SOL    HW258497   8.893   5.399   6.159 -3.2334  2.8312  1.2701
15615SOL     OW58498   8.535   0.699   1.490 -0.1548  0.0264 -0.5636
15615SOL    HW158499   8.585   0.772   1.443 -0.7157  0.3098 -0.7232
15615SOL    HW258500   8.442   0.729   1.510 -0.6423 -0.9391 -1.3533
15616SOL     OW58501   2.166   6.363   2.428  0.3125  1.0930  0.0165
15616SOL    HW158502   2.099   6.434   2.451 -0.8519  0.5677 -1.6486
15616SOL    HW258503   2.164   6.345   2.330  0.5157 -1.2943  0.4021
15617SOL     OW58504   9.015   3.624   6.604 -0.5394 -0.1130 -0.2085
15617SOL    HW158505   8.943   3.607   6.537 -0.3614  1.8442 -0.9106
15617SOL    HW258506   9.104   3.601   6.565 -0.3986  1.3953 -0.7897
15618SOL     OW58507   4.154   9.282   4.495  0.8048  0.1396  0.3068
15618SOL    HW158508   4.244   9.244   4.477  0.8658 -0.3483  1.6084
15618SOL    HW258509   4.086   9.238   4.436  1.3984  0.4597 -0.6227
15619SOL     OW58510   3.635   8.044   5.680 -0.5833 -0.3232  0.2526
15619SOL    HW158511   3.652   8.096   5.763 -1.5312  1.8342 -0.8610
15619SOL    HW258512   3.546   8.070   5.642 -1.3225 -3.1679 -0.0532
15620SOL     OW58513   3.681   9.922   2.318 -0.6920 -0.2512  0.3289
15620SOL    HW158514   3.605   9.971   2.275  1.2620  1.8463 -0.8366
15620SOL    HW258515   3.690   9.950   2.414 -1.7020 -0.9019  0.6168
15621SOL     OW58516   1.003   8.800   4.606 -0.4197  0.6785 -0.2856
15621SOL    HW158517   1.071   8.792   4.533 -0.7825  1.0788 -0.6646
15621SOL    HW258518   1.044   8.768   4.692 -0.2363 -0.4690 -0.7973
15622SOL     OW58519   8.235   4.654   2.656  0.1233  0.6616 -0.4334
15622SOL    HW158520   8.288   4.596   2.717 -0.3044 -0.3871 -1.0527
15622SOL    HW258521   8.138   4.646   2.679  0.0442  0.9744 -0.6574
15623SOL     OW58522   5.226   5.318   7.603 -0.3572 -0.5231  0.0223
15623SOL    HW158523   5.290   5.266   7.546  0.8001  0.2241  0.6185
15623SOL    HW258524   5.210   5.268   7.688 -2.2786 -1.7583 -1.0464
15624SOL     OW58525   5.011   1.414   5.279 -0.1463  0.1974 -0.5397
15624SOL    HW158526   5.043   1.508   5.267 -0.0672  0.3251  0.5625
15624SOL    HW258527   5.055   1.354   5.213 -0.2276  0.9477 -1.2703
15625SOL     OW58528   0.805   9.160   0.874  0.0874 -0.2247 -0.3151
15625SOL    HW158529   0.738   9.134   0.805 -3.8661 -0.1124  3.2969
15625SOL    HW258530   0.834   9.078   0.924  1.1722  0.0069 -0.5433
15626SOL     OW58531   6.475   9.856   3.515 -0.4570  0.6286  0.0364
15626SOL    HW158532   6.523   9.768   3.519  0.9603  1.3878  0.0801
15626SOL    HW258533   6.525   9.919   3.456 -0.3788  2.0305  1.5415
15627SOL     OW58534   8.776   7.134   7.215 -0.3301 -0.4625  0.1344
15627SOL    HW158535   8.696   7.086   7.178 -1.1051 -0.4068  1.6790
15627SOL    HW258536   8.833   7.069   7.266 -0.7008 -0.0106  1.1335
15628SOL     OW58537   9.832   2.894   0.782  0.0210 -0.5855 -0.0410
15628SOL    HW158538   9.794   2.987   0.783  1.5230  0.0410  0.8702
15628SOL    HW258539   9.845   2.863   0.876  1.4088 -0.9322 -0.3470
15629SOL     OW58540   1.470   8.851   5.113  0.4819  0.0519  0.1965
15629SOL    HW158541   1.404   8.836   5.187  0.1965  2.5086  0.4702
15629SOL    HW258542   1.562   8.830   5.146  0.3174  0.7925  1.1450
15630SOL     OW58543   7.913   6.779   2.218  0.2664  0.2030  0.0811
15630SOL    HW158544   7.996   6.781   2.273  0.1720 -0.9278  0.2742
15630SOL    HW258545   7.937   6.765   2.122  0.2054 -1.8169  0.3563
15631SOL     OW58546   4.384   0.053   3.617  0.5203 -0.8950 -0.2726
15631SOL    HW158547   4.393   0.043   3.518 -0.5623  0.9517 -0.5717
15631SOL    HW258548   4.343  -0.030   3.655  0.0211 -1.2215 -1.4938
15632SOL     OW58549   1.176   9.653   4.537  0.2654  0.5511  0.0743
15632SOL    HW158550   1.225   9.566   4.546  0.1418  0.5635  0.8740
15632SOL    HW258551   1.089   9.648   4.586  0.0825  0.9947 -0.2040
15633SOL     OW58552   2.638   8.516   1.591 -0.6839  0.0035  0.7220
15633SOL    HW158553   2.721   8.488   1.543 -0.1180  0.9401  1.1307
15633SOL    HW258554   2.662   8.547   1.683 -1.5456 -0.1889  1.0091
15634SOL     OW58555   7.689   0.255   7.862 -0.2019 -0.4399 -0.7897
15634SOL    HW158556   7.708   0.350   7.886  0.6143 -1.0049  0.8577
15634SOL    HW258557   7.647   0.209   7.940 -1.4532 -1.2100 -1.8859
15635SOL     OW58558   4.812   8.919   6.650 -0.3559 -0.2900  0.0538
15635SOL    HW158559   4.803   9.007   6.696 -0.2578 -0.6196  0.7055
15635SOL    HW258560   4.903   8.881   6.667 -0.0791 -0.0996 -0.9719
15636SOL     OW58561   0.213   3.406   8.015  0.3261 -0.6550 -0.1055
15636SOL    HW158562   0.291   3.464   7.995  0.5490 -1.3587 -1.3511
15636SOL    HW258563   0.129   3.448   7.978  0.3537 -0.6735 -0.1891
15637SOL     OW58564   3.504   8.695   1.756 -0.1526  0.3420  0.1522
15637SOL    HW158565   3.596   8.710   1.792  0.0334 -0.7076  0.1168
15637SOL    HW258566   3.451   8.641   1.821  0.1565 -1.4890 -1.0976
15638SOL     OW58567   1.795   1.112   7.478  0.4417  0.3952 -0.0258
15638SOL    HW158568   1.776   1.017   7.500 -2.5487  0.8169 -0.6284
15638SOL    HW258569   1.767   1.171   7.554  1.4977  0.8842  0.0028
15639SOL     OW58570   4.871   9.040   7.287 -0.7221  0.1044 -0.0159
15639SOL    HW158571   4.822   9.127   7.278 -2.2711 -0.6742  0.7291
15639SOL    HW258572   4.806   8.967   7.304  0.4135 -1.4979 -2.3312
15640SOL     OW58573   4.220   8.213   5.019 -0.1613 -0.1860 -0.1015
15640SOL    HW158574   4.172   8.207   4.932  0.4909 -0.5622 -0.4372
15640SOL    HW258575   4.225   8.122   5.061 -1.1620  0.1230  0.7008
15641SOL     OW58576   2.206   8.747   6.346 -0.7439  0.1396 -0.3151
15641SOL    HW158577   2.276   8.681   6.317 -2.0702 -0.8500 -1.3383
15641SOL    HW258578   2.154   8.778   6.266 -0.4108  2.1242  0.2191
15642SOL     OW58579   2.195   2.824   6.124  0.1285 -0.1968  0.3744
15642SOL    HW158580   2.106   2.787   6.154  0.5182 -0.8708  0.7069
15642SOL    HW258581   2.208   2.804   6.027 -0.6782  1.0886 -0.0214
15643SOL     OW58582   2.566   0.927   4.152  0.1226 -0.0956  0.5215
15643SOL    HW158583   2.563   1.018   4.110  0.2038  0.9402  2.6449
15643SOL    HW258584   2.561   0.857   4.081  2.2132  1.5538 -1.3585
15644SOL     OW58585   9.896   4.907   1.749 -0.2631  0.5734 -0.6924
15644SOL    HW158586   9.844   4.972   1.694 -0.2438  0.6731 -0.5921
15644SOL    HW258587   9.897   4.937   1.845 -0.7481  0.1234 -0.5388
15645SOL     OW58588   6.072   2.463   0.520 -0.1473  0.1823 -0.8379
15645SOL    HW158589   6.132   2.529   0.474  0.3413 -1.0076 -1.9571
15645SOL    HW258590   6.089   2.372   0.483 -0.7981 -0.5813  0.7047
15646SOL     OW58591   9.004   4.407   0.919  0.0573 -0.1908  0.8629
15646SOL    HW158592   8.911   4.378   0.897  0.0390 -0.0471  0.7491
15646SOL    HW258593   9.054   4.427   0.834  0.4742 -1.1474  0.8760
15647SOL     OW58594   6.658   0.515   8.113  0.1077  0.2382 -0.9507
15647SOL    HW158595   6.597   0.585   8.074 -0.2689 -0.7041 -2.0814
15647SOL    HW258596   6.659   0.523   8.212 -1.5322  0.5455 -0.9429
15648SOL     OW58597   7.460   7.343   3.775  0.4800 -0.1567 -0.2490
15648SOL    HW158598   7.395   7.363   3.702 -1.3612 -1.1841  1.0616
15648SOL    HW258599   7.464   7.421   3.838 -0.9003 -0.8205  0.6769
15649SOL     OW58600   1.253   2.188   6.836  0.1417 -0.5707  0.7059
15649SOL    HW158601   1.189   2.111   6.848 -0.4102 -0.1088  0.7416
15649SOL    HW258602   1.290   2.214   6.925 -1.6771  0.9115  1.0525
15650SOL     OW58603   3.459   5.075   3.695 -0.1068 -0.2813  0.2756
15650SOL    HW158604   3.547   5.070   3.742  1.6659 -0.8094 -2.9243
15650SOL    HW258605   3.405   4.993   3.714  0.2957 -0.1915  1.8375
15651SOL     OW58606   9.189   3.386   4.821  0.4116  0.3703  0.0520
15651SOL    HW158607   9.253   3.349   4.753 -1.6251 -2.5285 -0.3799
15651SOL    HW258608   9.128   3.451   4.777  0.3814  0.0019 -0.4635
15652SOL     OW58609   7.365   6.522   4.996 -0.0370 -0.3195 -0.8090
15652SOL    HW158610   7.358   6.603   4.937 -0.1960  0.3626  0.1226
15652SOL    HW258611   7.279   6.471   4.993 -0.4862  0.3931 -0.2134
15653SOL     OW58612   3.600   9.645   1.380 -0.2968  0.3239 -0.1981
15653SOL    HW158613   3.507   9.668   1.352 -0.1851  0.6345 -0.3149
15653SOL    HW258614   3.649   9.607   1.301 -0.1961  0.5504 -0.2444
15654SOL     OW58615   3.356   0.946   4.996  0.2409 -0.8656  0.2711
15654SOL    HW158616   3.388   1.006   4.924 -0.2996  0.4732  1.1256
15654SOL    HW258617   3.420   0.870   5.008  0.5108 -0.8970 -1.3493
15655SOL     OW58618   1.325   6.702   1.725  0.0510 -0.8080  0.1451
15655SOL    HW158619   1.377   6.774   1.772 -0.3513  0.9652 -2.0493
15655SOL    HW258620   1.388   6.639   1.680  0.3504  0.5428 -1.3580
15656SOL     OW58621   0.405   7.403   5.343  0.3023 -0.1918 -0.4774
15656SOL    HW158622   0.467   7.468   5.387  0.1957 -0.6144  0.3070
15656SOL    HW258623   0.334   7.452   5.294  0.7941  0.2921 -0.7121
15657SOL     OW58624   2.077   3.403   1.433  0.5987 -0.1014  0.1882
15657SOL    HW158625   2.015   3.325   1.429 -1.2179  1.3313 -0.5431
15657SOL    HW258626   2.055   3.459   1.512  1.9022 -0.3116  0.7167
15658SOL     OW58627   2.517   5.234   6.388 -0.2247 -0.3691  0.6715
15658SOL    HW158628   2.611   5.264   6.406 -0.7844  0.0534  3.1454
15658SOL    HW258629   2.460   5.313   6.364  0.6096 -0.9857 -3.7722
15659SOL     OW58630   0.979   0.876   4.613  0.3236 -0.4156  0.2637
15659SOL    HW158631   0.903   0.828   4.655  0.2836 -0.0156  0.6513
15659SOL    HW258632   1.065   0.828   4.634  0.1842 -0.8614 -0.1689
15660SOL     OW58633   0.208   4.637   6.946  0.4105 -0.1383 -0.1561
15660SOL    HW158634   0.223   4.554   6.892 -0.1379 -1.2560  1.4060
15660SOL    HW258635   0.166   4.614   7.033  0.6899  1.7406  0.5025
15661SOL     OW58636   1.478   2.948   6.144 -0.3605  0.1674  0.7447
15661SOL    HW158637   1.481   3.046   6.126 -2.1805  0.4744  1.9318
15661SOL    HW258638   1.480   2.898   6.057 -0.2875  1.2835  0.0919
15662SOL     OW58639   2.062   7.664   4.918 -0.0820 -0.0449  0.1112
15662SOL    HW158640   2.006   7.588   4.884  1.9210 -0.8513 -1.5070
15662SOL    HW258641   2.006   7.746   4.925 -1.8695 -1.2337  0.2063
15663SOL     OW58642   8.015   1.831   0.998 -0.0290  0.7148  0.1682
15663SOL    HW158643   7.953   1.909   1.005  0.2791  0.9600  0.1802
15663SOL    HW258644   7.964   1.751   0.966 -0.1588  1.1630 -0.7795
15664SOL     OW58645   4.928   4.941   0.268  0.0758 -0.1267  0.2337
15664SOL    HW158646   4.878   4.858   0.293 -0.2522  0.4219  1.4417
15664SOL    HW258647   4.970   4.980   0.350  0.8086  0.5174 -0.4455
15665SOL     OW58648   4.444   9.546   0.622 -0.5258 -0.2265  0.6577
15665SOL    HW158649   4.346   9.550   0.637 -0.5582 -0.0971  0.4227
15665SOL    HW258650   4.488   9.499   0.698 -0.7648 -0.2430  0.7846
15666SOL     OW58651   2.232   2.096   1.303 -0.1548 -0.4875  0.0170
15666SOL    HW158652   2.261   2.191   1.305 -0.0553 -0.5288  1.6815
15666SOL    HW258653   2.133   2.092   1.289 -0.3107 -0.0827  0.9286
15667SOL     OW58654   5.936   4.146   1.314 -0.2184 -0.3289 -0.6382
15667SOL    HW158655   5.838   4.160   1.301 -0.2678  0.5180  0.6099
15667SOL    HW258656   5.980   4.233   1.334  0.9010 -0.6106 -1.8134
15668SOL     OW58657   6.044   8.421   6.485 -0.0098  0.2129 -0.6012
15668SOL    HW158658   6.104   8.342   6.475 -0.1018  0.1856 -0.9247
15668SOL    HW258659   6.096   8.497   6.525  0.2299  0.1709 -0.8299
15669SOL     OW58660   9.523   7.250   1.098  0.6336 -0.2406  0.2589
15669SOL    HW158661   9.428   7.221   1.089  0.7992 -0.8087  0.3601
15669SOL    HW258662   9.536   7.335   1.047  0.3445 -0.7583 -0.6856
15670SOL     OW58663   6.782   2.499   4.850  0.2791 -0.7285  0.4448
15670SOL    HW158664   6.880   2.502   4.828  0.0395  0.0578 -0.5880
15670SOL    HW258665   6.746   2.409   4.828  0.6276 -0.8009  0.1513
15671SOL     OW58666   3.798   1.818   5.988 -0.1100 -0.2363  0.0830
15671SOL    HW158667   3.724   1.757   5.958  0.5235 -1.2765  0.6050
15671SOL    HW258668   3.773   1.912   5.968 -0.8248 -0.7060 -1.3448
15672SOL     OW58669   3.335   5.267   1.602  0.3139 -0.2102  0.2053
15672SOL    HW158670   3.351   5.363   1.582  0.2624  0.1672  1.9095
15672SOL    HW258671   3.360   5.211   1.522 -1.4630  1.3537 -1.4721
15673SOL     OW58672   0.444   7.141   5.309  0.1842 -0.3071 -0.0444
15673SOL    HW158673   0.360   7.099   5.344 -0.0381 -1.1512 -1.5208
15673SOL    HW258674   0.429   7.240   5.298  0.6507  0.1745  3.2660
15674SOL     OW58675   4.365   9.712   3.351 -0.0290  0.1692 -0.2414
15674SOL    HW158676   4.442   9.651   3.370  0.0525 -0.3401 -2.1368
15674SOL    HW258677   4.287   9.659   3.318 -0.5167  0.9185 -0.3197
15675SOL     OW58678   8.718   8.139   1.644  0.0946 -0.7576 -0.1045
15675SOL    HW158679   8.658   8.215   1.617  0.9674 -0.3390 -0.9165
15675SOL    HW258680   8.663   8.061   1.673 -0.8396 -0.4661 -1.0841
15676SOL     OW58681   0.520   4.611   1.793  0.1594  0.6312 -0.9708
15676SOL    HW158682   0.588   4.671   1.834  0.1374  0.9571 -1.4042
15676SOL    HW258683   0.453   4.584   1.862 -0.0540  1.4223 -0.8606
15677SOL     OW58684   5.668   5.270   0.120 -0.3796  0.0249  0.1203
15677SOL    HW158685   5.714   5.294   0.035  0.5132  0.1510  0.6210
15677SOL    HW258686   5.708   5.186   0.157 -0.7920 -0.0559  0.3890
15678SOL     OW58687   9.845   5.505   5.383 -0.4418  0.0146  0.3756
15678SOL    HW158688   9.794   5.419   5.380 -0.8989  0.2450  1.2813
15678SOL    HW258689   9.942   5.488   5.365 -1.0562 -0.2174 -3.0335
15679SOL     OW58690   5.043   8.031   6.326  0.1144  0.4532 -0.2030
15679SOL    HW158691   4.994   8.117   6.313 -0.8172 -0.0128  0.2260
15679SOL    HW258692   4.999   7.959   6.272 -0.3245 -0.2087  1.0182
15680SOL     OW58693   2.699   9.520   0.350 -0.7333  0.1214 -0.0619
15680SOL    HW158694   2.654   9.607   0.331 -0.9313 -0.0682 -0.4729
15680SOL    HW258695   2.630   9.447   0.354 -0.5177 -0.0906 -0.1932
15681SOL     OW58696   9.502   3.330   1.458  0.3471  0.3143 -0.6953
15681SOL    HW158697   9.565   3.287   1.523 -0.0026 -0.4649 -0.8733
15681SOL    HW258698   9.552   3.399   1.405  2.1455 -3.1754 -3.7638
15682SOL     OW58699   0.616   4.713   7.370 -0.0804 -0.3374 -0.3891
15682SOL    HW158700   0.591   4.778   7.443 -1.8007  0.9470 -2.0649
15682SOL    HW258701   0.693   4.750   7.318 -2.1922  1.3420 -2.4774
15683SOL     OW58702   0.489   9.618   2.743  0.0277  0.2312 -0.1846
15683SOL    HW158703   0.441   9.691   2.792 -0.6695 -0.6066  0.3834
15683SOL    HW258704   0.448   9.606   2.653  0.0339  0.4138 -0.2131
15684SOL     OW58705   9.961   2.893   1.693  0.8623  0.4142  0.2107
15684SOL    HW158706   9.995   2.974   1.644 -0.3038  0.2919 -0.8496
15684SOL    HW258707   9.861   2.893   1.689  0.7568  0.3804  2.6214
15685SOL     OW58708   3.916   6.958   1.173  0.4032 -0.0962  0.2648
15685SOL    HW158709   3.886   6.874   1.218 -1.5782  0.9452  0.9354
15685SOL    HW258710   3.852   6.982   1.100  1.6567  0.1571 -0.7846
15686SOL     OW58711   8.007   9.596   2.102  0.4087  0.3575 -0.0869
15686SOL    HW158712   8.062   9.532   2.157  0.8335  1.5810  0.9452
15686SOL    HW258713   7.962   9.546   2.028  3.2660 -0.6182 -1.2477
15687SOL     OW58714   8.246   6.762   0.461 -0.3564  0.0734 -0.0778
15687SOL    HW158715   8.232   6.687   0.525 -1.7064 -1.8502 -2.5086
15687SOL    HW258716   8.260   6.724   0.369 -0.7587  2.7956 -1.2971
15688SOL     OW58717   8.307   7.314   4.078  0.2885  0.4951  0.3375
15688SOL    HW158718   8.215   7.348   4.097  0.6101  1.8793 -0.4744
15688SOL    HW258719   8.303   7.247   4.004 -0.1186  0.2203  0.6079
15689SOL     OW58720   0.664   3.741   6.647  0.0079 -0.2302  0.0161
15689SOL    HW158721   0.614   3.810   6.594 -0.8946  0.0717  1.2258
15689SOL    HW258722   0.704   3.674   6.585 -0.3824  0.5432 -1.0923
15690SOL     OW58723   1.941   8.317   3.419 -0.2897  0.2717 -0.2438
15690SOL    HW158724   2.007   8.246   3.444 -1.3038  0.0006  1.8082
15690SOL    HW258725   1.966   8.403   3.463 -1.3260  0.1451  0.6316
15691SOL     OW58726   5.698   0.785   5.787  0.1848 -0.0619 -0.8446
15691SOL    HW158727   5.745   0.701   5.760 -1.1060 -1.0334 -0.0817
15691SOL    HW258728   5.701   0.794   5.887  0.3029  0.7933 -0.9217
15692SOL     OW58729   3.096   2.116   0.297  0.1986  0.5011 -0.3359
15692SOL    HW158730   3.086   2.190   0.230 -2.0145  0.9671  0.4711
15692SOL    HW258731   3.082   2.028   0.252  0.4452  0.7119 -0.8264
15693SOL     OW58732   5.042   5.317   0.870 -0.3195 -0.1241  0.2454
15693SOL    HW158733   5.126   5.356   0.832 -1.8023  2.6713 -0.3072
15693SOL    HW258734   5.026   5.227   0.831  0.9811  0.4810 -1.7627
15694SOL     OW58735   9.811   7.438   0.602  0.7204  0.2720  0.2154
15694SOL    HW158736   9.815   7.340   0.581  1.2914  0.7396 -1.9709
15694SOL    HW258737   9.903   7.471   0.622  0.6300  0.5071  0.2470
15695SOL     OW58738   3.117   5.115   7.634  0.3757  0.2288 -0.1164
15695SOL    HW158739   3.084   5.072   7.550 -1.8152  1.9052 -0.1618
15695SOL    HW258740   3.084   5.210   7.638  0.7580  0.2884  2.4623
15696SOL     OW58741   9.493   8.472   1.505  0.2541  0.2880 -0.1056
15696SOL    HW158742   9.403   8.515   1.517 -0.0840 -1.1552  3.2787
15696SOL    HW258743   9.548   8.487   1.588  2.0600 -1.3028 -0.9751
15697SOL     OW58744   1.237   3.893   0.305 -0.2777 -0.0623 -0.2208
15697SOL    HW158745   1.202   3.819   0.362 -0.5690  0.9617  0.9669
15697SOL    HW258746   1.319   3.863   0.258 -0.1490 -1.0019  0.5882
15698SOL     OW58747   4.838   7.284   2.284 -0.1167  0.2393 -0.0790
15698SOL    HW158748   4.914   7.304   2.222  0.3283 -0.1221  0.3475
15698SOL    HW258749   4.873   7.237   2.365 -0.9386 -0.8308 -0.3386
15699SOL     OW58750   4.360   8.260   2.997  0.3192 -0.7357  0.1066
15699SOL    HW158751   4.380   8.350   2.959  0.3898 -0.9543 -0.3925
15699SOL    HW258752   4.444   8.216   3.027  0.3458 -0.8301 -0.1030
15700SOL     OW58753   2.534   4.324   3.159 -0.1885  0.5431 -0.0242
15700SOL    HW158754   2.440   4.318   3.190 -0.1962  1.0231  0.0449
15700SOL    HW258755   2.568   4.418   3.170 -0.0478  0.6205 -1.0535
15701SOL     OW58756   3.376   2.860   7.149  0.0383 -0.1562 -0.0958
15701SOL    HW158757   3.310   2.803   7.199  0.6014 -0.7374 -0.0047
15701SOL    HW258758   3.359   2.956   7.169 -1.3645 -0.2465 -0.7872
15702SOL     OW58759   6.236   9.607   4.774 -0.2340  0.3113 -0.1737
15702SOL    HW158760   6.289   9.522   4.766 -2.6034 -1.1066 -1.3063
15702SOL    HW258761   6.267   9.672   4.705  1.9974  0.6266  1.0702
15703SOL     OW58762   1.335   0.892   0.205  0.0066  0.3586  0.3180
15703SOL    HW158763   1.291   0.929   0.287 -1.1627  0.5727 -0.3878
15703SOL    HW258764   1.428   0.862   0.228  0.2025  1.7067  1.4017
15704SOL     OW58765   9.614   3.931   6.754 -0.1052  0.2109  0.2982
15704SOL    HW158766   9.626   4.027   6.776 -0.6042  0.1108  1.0327
15704SOL    HW258767   9.520   3.903   6.774  0.0127 -0.4034  0.0212
15705SOL     OW58768   3.983   9.937   4.871  0.0544  0.1905  0.4670
15705SOL    HW158769   4.030   9.943   4.783  0.8320 -0.6655  0.8075
15705SOL    HW258770   3.890   9.971   4.862  0.3644  0.8017 -0.5088
15706SOL     OW58771   0.008   7.101   2.885 -0.6598  0.0305  0.3412
15706SOL    HW158772  -0.046   7.038   2.941  0.4824 -0.3062  1.0936
15706SOL    HW258773  -0.008   7.082   2.789 -1.9682  0.0200  0.5617
15707SOL     OW58774   4.758   0.855   5.000 -0.0205 -0.6286 -0.1603
15707SOL    HW158775   4.775   0.841   5.098 -0.7703  0.5988  0.1536
15707SOL    HW258776   4.836   0.904   4.960  0.3981 -1.3496 -0.2382
15708SOL     OW58777   0.161   8.103   4.252 -0.1879 -0.0645 -0.1636
15708SOL    HW158778   0.243   8.082   4.199 -0.7037  0.7612 -1.3226
15708SOL    HW258779   0.126   8.020   4.295  2.3048 -0.1083  1.8981
15709SOL     OW58780   2.451   3.932   4.905 -0.0289 -0.2288  0.3168
15709SOL    HW158781   2.387   3.877   4.958 -1.2259 -0.2062 -1.0845
15709SOL    HW258782   2.527   3.875   4.875 -0.4533 -0.7432  0.2212
15710SOL     OW58783   8.359   6.312   3.944 -0.0484  0.4467 -0.4402
15710SOL    HW158784   8.367   6.349   4.036 -0.5971 -1.1696  0.2674
15710SOL    HW258785   8.308   6.377   3.886  0.2345  1.4276  0.4013
15711SOL     OW58786   2.700   3.204   7.546  0.5429  0.3095 -0.3427
15711SOL    HW158787   2.679   3.301   7.561  1.0576  0.3997 -0.1814
15711SOL    HW258788   2.617   3.156   7.518  0.7905  1.2564 -2.7840
15712SOL     OW58789   6.068   2.415   4.170  0.4006  0.2450 -0.2062
15712SOL    HW158790   6.114   2.486   4.225  1.7463 -1.9109  1.5371
15712SOL    HW258791   6.113   2.407   4.082 -0.3000  2.1279 -0.7640
15713SOL     OW58792   5.864   8.690   4.589 -0.4767 -0.0161  0.2836
15713SOL    HW158793   5.765   8.703   4.580 -0.8378 -2.6513 -0.0587
15713SOL    HW258794   5.882   8.601   4.629  1.7559  1.1029  1.8720
15714SOL     OW58795   8.480   5.033   2.856 -0.0617 -0.1312  0.4150
15714SOL    HW158796   8.523   5.123   2.853 -0.4895  0.0647  0.0835
15714SOL    HW258797   8.523   4.977   2.927 -1.1615  1.0409  2.0394
15715SOL     OW58798   8.861   9.926   5.220  0.2165 -0.2063  0.0925
15715SOL    HW158799   8.807   9.908   5.137 -0.9634  0.5363  0.6804
15715SOL    HW258800   8.819  10.002   5.270  1.3801 -0.1370  0.9686
15716SOL     OW58801   8.160   9.976   3.064 -1.0383  0.3761  0.2880
15716SOL    HW158802   8.089   9.949   3.128 -1.9243 -0.4120 -0.9954
15716SOL    HW258803   8.248   9.941   3.094 -1.4660 -0.0746  1.0161
15717SOL     OW58804   7.773   8.338   2.167  0.3368 -0.2449  0.0567
15717SOL    HW158805   7.862   8.371   2.199  0.4145 -0.1619 -0.2421
15717SOL    HW258806   7.770   8.239   2.174  0.4920 -0.2556 -0.0383
15718SOL     OW58807   5.662   3.149   0.045 -0.0818 -0.2043 -0.2068
15718SOL    HW158808   5.687   3.223  -0.016 -0.1143  0.3380  0.4314
15718SOL    HW258809   5.571   3.115   0.023  0.0978 -0.3330 -0.7568
15719SOL     OW58810   8.080   3.495   5.299 -0.4802  0.4049 -0.5376
15719SOL    HW158811   7.984   3.475   5.317 -0.2583  0.3326  0.6040
15719SOL    HW258812   8.126   3.412   5.268 -0.4230  0.0241  0.5248
15720SOL     OW58813   8.488   7.337   4.662  0.3201  0.5136  0.6801
15720SOL    HW158814   8.405   7.328   4.718  0.8063 -0.7377  1.2270
15720SOL    HW258815   8.556   7.389   4.713  0.1414  0.9125  0.5209
15721SOL     OW58816   9.843   1.879   7.799  0.8281  0.0546 -0.4424
15721SOL    HW158817   9.745   1.874   7.819  1.0004 -0.5335  0.3063
15721SOL    HW258818   9.886   1.943   7.862  0.9322  0.2937 -0.7562
15722SOL     OW58819   3.742   2.182   3.588 -0.2227 -0.3801 -0.4951
15722SOL    HW158820   3.772   2.201   3.682 -1.2385 -0.7812 -0.0914
15722SOL    HW258821   3.822   2.161   3.532  0.3156 -0.9587  0.4731
15723SOL     OW58822   3.616   1.857   2.166  0.1326 -0.4702  0.0322
15723SOL    HW158823   3.688   1.817   2.222 -0.0322  0.1595  0.6963
15723SOL    HW258824   3.535   1.799   2.170  0.2622 -0.6468  0.1044
15724SOL     OW58825   8.115   6.002   2.552  0.0787  0.0880 -0.3382
15724SOL    HW158826   8.084   6.039   2.464 -0.8279  0.4257  0.1144
15724SOL    HW258827   8.211   5.974   2.545  0.4955  1.6202 -0.9737
15725SOL     OW58828   1.471   5.580   2.786 -0.1963 -0.0160  0.1588
15725SOL    HW158829   1.556   5.542   2.751 -0.0835  0.3916 -0.0175
15725SOL    HW258830   1.451   5.666   2.739 -0.8404 -0.2405  0.0224
15726SOL     OW58831   4.875   9.839   6.524 -0.1650 -0.0989  0.4883
15726SOL    HW158832   4.938   9.902   6.480 -1.7310 -1.2910 -3.7441
15726SOL    HW258833   4.897   9.745   6.496 -2.1198 -0.7722  1.1023
15727SOL     OW58834   9.691   9.600   2.042  0.2410 -0.7004 -0.1251
15727SOL    HW158835   9.677   9.501   2.052  0.3406 -0.8087 -1.0509
15727SOL    HW258836   9.785   9.623   2.066  0.6079 -1.0222 -1.2493
15728SOL     OW58837   5.545   3.037   0.543 -0.8036 -0.0779  0.3560
15728SOL    HW158838   5.605   2.980   0.600  0.0238  0.1274 -0.3152
15728SOL    HW258839   5.599   3.088   0.477 -1.6359  0.7802  0.3217
15729SOL     OW58840   7.768   9.901   4.619 -0.0301  1.0549 -0.3568
15729SOL    HW158841   7.736   9.963   4.548 -0.1634  0.2515 -1.0111
15729SOL    HW258842   7.775   9.809   4.581  0.7693  0.7895  0.4313
15730SOL     OW58843   8.646   7.960   7.967 -0.0086  0.4631 -0.4863
15730SOL    HW158844   8.584   7.952   8.045  0.4409  0.6920 -0.1057
15730SOL    HW258845   8.722   7.897   7.978  0.8280  1.5420 -0.0116
15731SOL     OW58846   0.500   6.126   7.898 -0.7956  0.0721 -0.0753
15731SOL    HW158847   0.436   6.196   7.930  2.1193  2.1403  1.4454
15731SOL    HW258848   0.513   6.136   7.799 -0.0623  2.0669  0.1839
15732SOL     OW58849   9.402   7.077   2.845 -0.3532  0.3607 -0.3455
15732SOL    HW158850   9.431   7.156   2.899 -1.0627  1.1564 -1.1111
15732SOL    HW258851   9.392   7.104   2.749  0.2462 -0.8702 -0.7740
15733SOL     OW58852   7.174   8.613   2.923  0.1673  0.3632  0.0540
15733SOL    HW158853   7.095   8.565   2.961 -0.3374  1.7816  0.8417
15733SOL    HW258854   7.156   8.711   2.923  0.6245  0.4881 -2.8131
15734SOL     OW58855   9.032   5.592   3.189  0.0119  0.7953  0.0958
15734SOL    HW158856   9.063   5.497   3.188 -1.4153  0.3168  0.5309
15734SOL    HW258857   9.065   5.637   3.272  1.7009  1.0329 -0.6869
15735SOL     OW58858   8.719   9.237   6.869  0.1051 -0.1756  0.5766
15735SOL    HW158859   8.744   9.143   6.847  0.5183 -0.2005  1.1365
15735SOL    HW258860   8.700   9.244   6.967  0.1751  0.3481  0.5513
15736SOL     OW58861   9.107   5.410   6.757 -0.1772  0.1147 -0.2658
15736SOL    HW158862   9.117   5.321   6.712  0.6519 -1.2185  2.4208
15736SOL    HW258863   9.196   5.440   6.792 -0.7625  1.1486  0.3728
15737SOL     OW58864   6.817   9.400   5.666 -0.2862 -0.0244  0.8208
15737SOL    HW158865   6.842   9.369   5.757  0.1140 -0.5880  0.5231
15737SOL    HW258866   6.807   9.321   5.605  1.2920  0.4677 -0.0902
15738SOL     OW58867   4.655   9.688   2.566 -0.2598  0.8697 -0.1071
15738SOL    HW158868   4.715   9.738   2.630  0.5037 -1.3608  0.9644
15738SOL    HW258869   4.571   9.663   2.612  0.4057 -0.9850  0.1187
15739SOL     OW58870   9.478   0.769   3.745 -0.3756 -0.2704  0.5688
15739SOL    HW158871   9.464   0.783   3.844  1.2358 -1.9994  1.0700
15739SOL    HW258872   9.469   0.672   3.724 -0.2426  0.0377 -0.9194
15740SOL     OW58873   1.133   7.253   6.045  0.0479  0.3283 -0.0420
15740SOL    HW158874   1.176   7.173   6.001  0.3569  1.0630 -1.1064
15740SOL    HW258875   1.102   7.317   5.974  0.4244  1.4744  0.8170
15741SOL     OW58876   6.697   6.028   0.726  0.5548  0.1741 -0.1568
15741SOL    HW158877   6.784   6.064   0.694  0.3081 -0.4954 -1.5871
15741SOL    HW258878   6.623   6.090   0.700  0.8576  2.1611  3.4362
15742SOL     OW58879   4.750   6.467   1.883 -0.0241 -0.4035  0.1956
15742SOL    HW158880   4.822   6.399   1.894  0.4279  0.0426  0.0281
15742SOL    HW258881   4.694   6.470   1.966  0.8973  0.1139  0.8013
15743SOL     OW58882   7.750   2.201   1.399  0.3355 -0.0729 -0.2672
15743SOL    HW158883   7.744   2.300   1.388  1.6136 -0.0310 -0.6528
15743SOL    HW258884   7.659   2.160   1.385 -0.0007  0.9429 -1.0837
15744SOL     OW58885   4.164   1.737   0.970 -0.0880  0.2667  0.7219
15744SOL    HW158886   4.151   1.642   0.944 -0.6833  0.4955  0.1626
15744SOL    HW258887   4.242   1.745   1.033 -0.3925 -0.6580  1.2163
15745SOL     OW58888   5.299   9.531   3.049  0.1180  0.4349 -0.7629
15745SOL    HW158889   5.343   9.621   3.056  0.9866 -0.1445  1.7956
15745SOL    HW258890   5.320   9.490   2.960  2.1848  1.4928 -0.7931
15746SOL     OW58891   5.217   8.327   6.257  0.2415  0.6293 -0.1214
15746SOL    HW158892   5.267   8.282   6.331  0.8575 -0.7723 -1.3855
15746SOL    HW258893   5.153   8.263   6.215 -1.0402  1.7810  0.0122
15747SOL     OW58894   7.506   6.182   4.130 -0.6162 -0.4234 -0.4903
15747SOL    HW158895   7.537   6.177   4.035 -4.7109 -0.7651 -1.9316
15747SOL    HW258896   7.570   6.133   4.189  2.7776  1.0328 -2.8298
15748SOL     OW58897   0.532   3.204   2.842 -0.4082  0.1864  0.9820
15748SOL    HW158898   0.469   3.279   2.861  0.0818  0.7597  0.3913
15748SOL    HW258899   0.604   3.236   2.780  1.3359 -0.0200  2.8186
15749SOL     OW58900   0.543   2.178   7.617 -0.6295  0.0519  0.3420
15749SOL    HW158901   0.604   2.234   7.674  1.0646 -1.3265 -0.0720
15749SOL    HW258902   0.527   2.225   7.530 -1.6031  1.2286  1.1334
15750SOL     OW58903   0.889   6.203   1.616 -0.1758  0.1856 -0.6149
15750SOL    HW158904   0.962   6.219   1.681 -0.5145 -0.0414 -0.1740
15750SOL    HW258905   0.917   6.234   1.525  0.0338  1.1469 -0.2297
15751SOL     OW58906   1.606   3.511   6.404 -0.5646  0.1077  0.4523
15751SOL    HW158907   1.545   3.582   6.440 -3.0162 -0.4284 -2.4023
15751SOL    HW258908   1.603   3.431   6.465  0.4531  1.5784  2.4723
15752SOL     OW58909   3.994   8.321   4.295  0.5681 -0.5429  0.3619
15752SOL    HW158910   4.037   8.231   4.292 -1.0147 -1.2865 -0.6797
15752SOL    HW258911   3.901   8.313   4.330  0.7607  0.8483  1.2559
15753SOL     OW58912   4.766   8.121   7.011  0.1857 -0.9648 -0.7463
15753SOL    HW158913   4.795   8.051   6.946  0.1071 -1.0976 -0.6397
15753SOL    HW258914   4.666   8.122   7.016  0.1475 -0.0544 -1.5993
15754SOL     OW58915   2.802   5.565   1.194 -0.3280  0.4614  0.2101
15754SOL    HW158916   2.899   5.539   1.192  0.0169  1.7447 -0.8988
15754SOL    HW258917   2.795   5.665   1.194 -1.6473  0.3714  1.1594
15755SOL     OW58918   5.512   8.811   5.490  0.5404 -0.2034  0.0695
15755SOL    HW158919   5.561   8.795   5.575  0.7750  0.8019  0.1266
15755SOL    HW258920   5.435   8.874   5.506  0.0309 -0.7292 -0.2758
15756SOL     OW58921   0.082   7.505   4.508  0.1048 -0.0273 -0.4220
15756SOL    HW158922   0.065   7.407   4.497 -0.1887 -0.2758  1.9984
15756SOL    HW258923   0.175   7.519   4.541  0.1341  0.5176 -0.7321
15757SOL     OW58924   8.375   8.724   5.701  0.2638 -0.2478 -0.4080
15757SOL    HW158925   8.395   8.821   5.709  0.1019 -0.2484  0.0385
15757SOL    HW258926   8.459   8.671   5.717  0.1513 -0.2123  0.3362
15758SOL     OW58927   9.455   6.627   3.437 -0.3591 -0.0899 -0.0545
15758SOL    HW158928   9.530   6.583   3.387 -0.3300 -1.1132  0.8800
15758SOL    HW258929   9.374   6.569   3.432  0.2861 -1.3459  3.0163
15759SOL     OW58930   1.192   3.144   3.152  0.0147  0.0362  0.3047
15759SOL    HW158931   1.208   3.080   3.226  1.7874 -2.1702 -1.9108
15759SOL    HW258932   1.120   3.108   3.092  0.5339  0.4489 -0.5759
15760SOL     OW58933   2.548   9.615   1.873 -0.4699  0.1414 -0.6805
15760SOL    HW158934   2.618   9.546   1.859 -1.9488 -1.6001  0.3206
15760SOL    HW258935   2.570   9.668   1.955 -0.6425 -0.8254 -0.0014
15761SOL     OW58936   6.826   0.155   6.539 -0.3339 -0.2882  0.4801
15761SOL    HW158937   6.886   0.168   6.618  0.8220 -1.6987 -0.1399
15761SOL    HW258938   6.874   0.181   6.456 -0.7305 -1.0540  0.0078
15762SOL     OW58939   1.435   0.768   7.967 -0.3063  0.3271 -0.0370
15762SOL    HW158940   1.526   0.809   7.958 -0.3279  0.3965  0.0610
15762SOL    HW258941   1.393   0.799   8.052 -1.6279  2.7048 -1.4683
15763SOL     OW58942   9.084   1.060   7.512  0.3250  0.0317  0.1467
15763SOL    HW158943   9.035   1.028   7.593  0.8405  0.6427  0.7111
15763SOL    HW258944   9.133   0.984   7.470  2.1492  0.1997  1.8986
15764SOL     OW58945   3.294   3.480   1.176 -0.4351 -0.1894 -0.1990
15764SOL    HW158946   3.289   3.440   1.268 -0.6896  0.4051  0.0475
15764SOL    HW258947   3.328   3.573   1.182 -2.0928  0.4522 -0.5225
15765SOL     OW58948   0.557   2.956   7.536  0.0816 -0.0407  0.1285
15765SOL    HW158949   0.546   2.949   7.436  1.0011 -0.2681  0.0401
15765SOL    HW258950   0.650   2.929   7.561 -0.4440 -0.8985  1.1540
15766SOL     OW58951   0.884   4.246   0.376 -0.0707 -0.3973 -0.2321
15766SOL    HW158952   0.823   4.176   0.340  0.0665 -0.1401 -0.9645
15766SOL    HW258953   0.976   4.208   0.386  0.2852  0.0412 -1.8162
15767SOL     OW58954   4.004   9.233   0.551  0.3126 -0.8962 -0.4477
15767SOL    HW158955   4.006   9.256   0.648  3.7449  1.5914 -1.0496
15767SOL    HW258956   3.915   9.259   0.513  0.1046  1.1218  1.3324
15768SOL     OW58957   2.418   5.759   1.212 -0.0021 -0.5679  0.6742
15768SOL    HW158958   2.420   5.707   1.126  3.0316 -0.8246  0.8464
15768SOL    HW258959   2.411   5.696   1.289 -1.6365 -0.3942  0.6823
15769SOL     OW58960   5.411   0.888   0.694  0.0329 -0.2078  0.1655
15769SOL    HW158961   5.505   0.917   0.711 -0.2743  1.0006 -0.1559
15769SOL    HW258962   5.397   0.879   0.595 -0.1631 -0.4779  0.2184
15770SOL     OW58963   5.607   3.117   1.380 -0.0961  0.6018 -0.1971
15770SOL    HW158964   5.625   3.196   1.439 -0.6170  0.3769  0.2607
15770SOL    HW258965   5.602   3.148   1.285  0.2823  1.0325 -0.0803
15771SOL     OW58966   1.648   8.535   1.674  0.2638  0.4872 -0.0758
15771SOL    HW158967   1.678   8.446   1.639 -0.2457  0.1018  0.4602
15771SOL    HW258968   1.614   8.524   1.768  2.7342  1.7001  1.0253
15772SOL     OW58969   3.137   1.044   5.933  0.1809  0.4813  0.0427
15772SOL    HW158970   3.178   0.964   5.891  1.4134  0.4454  1.2914
15772SOL    HW258971   3.050   1.064   5.888  0.5616 -0.6732 -1.2434
15773SOL     OW58972   5.521   4.716   7.705  0.0519  0.1832  0.3779
15773SOL    HW158973   5.570   4.636   7.739  0.4247  0.2722  0.0514
15773SOL    HW258974   5.550   4.735   7.611 -0.3145  0.4750  0.3248
15774SOL     OW58975   0.570   8.808   6.400  0.8129 -0.2089  0.4634
15774SOL    HW158976   0.481   8.762   6.405  1.0911 -0.6768  1.1461
15774SOL    HW258977   0.585   8.842   6.307  0.2383 -0.7507  0.1709
15775SOL     OW58978   8.603   4.769   5.894 -0.4464  0.1046 -0.1032
15775SOL    HW158979   8.659   4.685   5.896 -0.9030 -0.2172 -0.6853
15775SOL    HW258980   8.510   4.747   5.921  0.0021  0.8805  2.1352
15776SOL     OW58981   1.349   7.948   5.781 -0.1419 -0.1088  0.5195
15776SOL    HW158982   1.368   8.028   5.724  0.2629 -0.5771 -0.0021
15776SOL    HW258983   1.252   7.950   5.808 -0.4635 -0.1343 -0.5810
15777SOL     OW58984   8.559   8.772   4.263 -0.4862  0.2954 -0.1909
15777SOL    HW158985   8.476   8.792   4.211  0.8001 -2.0142 -3.2781
15777SOL    HW258986   8.632   8.833   4.235 -0.4303  0.6081  0.6321
15778SOL     OW58987   3.193   0.756   6.621  0.2367 -0.2325 -0.2250
15778SOL    HW158988   3.281   0.742   6.575  0.6448  3.0061 -0.5183
15778SOL    HW258989   3.208   0.763   6.720  0.3877  0.7624 -0.3124
15779SOL     OW58990   2.145   7.765   1.046  0.0760  0.5322  0.2205
15779SOL    HW158991   2.079   7.689   1.049  1.2186 -0.4441  1.1445
15779SOL    HW258992   2.178   7.784   1.138  1.2827  0.8459 -0.2737
15780SOL     OW58993   6.591   2.577   3.571 -0.4072  0.0542 -0.0254
15780SOL    HW158994   6.653   2.603   3.645 -2.3181  1.6221  1.0632
15780SOL    HW258995   6.643   2.561   3.488  1.5271  0.5574  1.0594
15781SOL     OW58996   1.074   8.654   5.923  0.1415  0.4150  0.3867
15781SOL    HW158997   1.143   8.603   5.975  1.4070 -0.2175 -1.8319
15781SOL    HW258998   1.069   8.748   5.956 -0.6862 -0.5110  3.1046
15782SOL     OW58999   8.972   7.160   4.672 -0.0556  0.4190  0.0683
15782SOL    HW159000   8.874   7.174   4.686 -0.0367  1.7121 -0.9325
15782SOL    HW259001   9.017   7.144   4.759 -0.9062  1.5428  0.7239
15783SOL     OW59002   9.668   8.735   5.316 -0.1978 -0.7639  0.4185
15783SOL    HW159003   9.759   8.743   5.275 -0.5466 -0.2277 -0.2585
15783SOL    HW259004   9.600   8.729   5.243 -0.7490 -0.6851  0.9317
15784SOL     OW59005   2.902   2.196   7.517  0.0329  1.2660 -0.1797
15784SOL    HW159006   2.969   2.237   7.455 -0.9687  1.4316 -1.1590
15784SOL    HW259007   2.830   2.262   7.536 -0.2667  0.8160  0.2713
15785SOL     OW59008   7.605   6.954   5.218  0.0294 -0.0188  0.0148
15785SOL    HW159009   7.541   7.027   5.243 -1.3194 -1.6412  1.4376
15785SOL    HW259010   7.604   6.941   5.119 -0.5197  1.1529 -0.1424
15786SOL     OW59011   9.332   7.262   5.209  0.4142 -0.8577  0.5786
15786SOL    HW159012   9.412   7.264   5.149 -0.7695 -2.1565 -1.1108
15786SOL    HW259013   9.282   7.177   5.194 -2.3022  0.7505  0.2102
15787SOL     OW59014   9.230   6.804   3.686 -0.3770  0.1477 -0.1366
15787SOL    HW159015   9.330   6.803   3.690 -0.2094  4.1926 -0.8608
15787SOL    HW259016   9.194   6.813   3.778 -0.0897 -0.8986  0.0900
15788SOL     OW59017   0.763   3.359   8.164  0.0855 -0.8952  0.3822
15788SOL    HW159018   0.758   3.265   8.198  0.4595 -0.6392  1.1483
15788SOL    HW259019   0.854   3.376   8.127 -0.1667 -1.0154 -0.3031
15789SOL     OW59020   4.738   4.053   7.307  0.2590 -0.1654 -0.0973
15789SOL    HW159021   4.759   4.081   7.213  0.4913 -0.8027 -0.2359
15789SOL    HW259022   4.639   4.043   7.318  0.0249  2.3495  0.4177
15790SOL     OW59023   6.632   1.123   5.761  0.5712  0.0448  0.4552
15790SOL    HW159024   6.650   1.221   5.760 -1.9999  0.5238 -0.5957
15790SOL    HW259025   6.697   1.076   5.701  0.4405  1.3480 -0.7160
15791SOL     OW59026   5.078   6.288   1.665 -0.5875 -0.8317  0.3137
15791SOL    HW159027   5.150   6.225   1.633 -0.2610 -0.2447 -0.1099
15791SOL    HW259028   5.097   6.316   1.759 -0.3012 -0.7373  0.2279
15792SOL     OW59029   2.632   5.483   2.321 -0.4788 -0.1818  0.1651
15792SOL    HW159030   2.609   5.425   2.400 -0.3988  1.0508  1.0998
15792SOL    HW259031   2.690   5.432   2.258  0.6669 -0.7052  1.6118
15793SOL     OW59032   1.654   3.973   2.652  0.0598  0.4513  0.1942
15793SOL    HW159033   1.736   3.917   2.639 -0.1155  0.3025 -0.2489
15793SOL    HW259034   1.676   4.069   2.635 -0.0777  0.3052 -0.8366
15794SOL     OW59035   7.571   1.933   2.047 -0.2382 -0.2267  0.0289
15794SOL    HW159036   7.605   1.972   2.133  0.0035  0.9757 -0.6110
15794SOL    HW259037   7.473   1.949   2.039 -0.4346 -1.1692  0.5214
15795SOL     OW59038   8.130   0.213   8.187  0.3315  0.1764 -0.0824
15795SOL    HW159039   8.083   0.246   8.105 -0.6731 -0.7637  0.1050
15795SOL    HW259040   8.165   0.120   8.170 -0.0862 -0.1100  0.6382
15796SOL     OW59041   7.606   7.632   6.387  0.5766 -0.4568  0.2281
15796SOL    HW159042   7.573   7.588   6.303  1.0265 -0.4289  0.0325
15796SOL    HW259043   7.646   7.563   6.447 -2.3419 -0.9153  1.7033
15797SOL     OW59044   7.254   9.919   5.014  0.8886  0.1862 -0.1981
15797SOL    HW159045   7.227   9.876   5.100  3.1045  0.5099  0.7116
15797SOL    HW259046   7.207   9.874   4.938 -0.6008 -0.5437  1.1137
15798SOL     OW59047   7.586   3.388   0.218 -0.1745 -0.1874 -0.5576
15798SOL    HW159048   7.681   3.406   0.194 -0.2237 -0.1562 -0.7327
15798SOL    HW259049   7.547   3.467   0.265  0.0310 -0.3903 -0.0417
15799SOL     OW59050   9.502   3.182   0.501 -0.3107  0.2096  0.1687
15799SOL    HW159051   9.498   3.278   0.526 -0.5539 -0.3102  2.2427
15799SOL    HW259052   9.409   3.145   0.497 -0.2728  0.2462 -1.4604
15800SOL     OW59053   8.242   9.663   5.920 -0.0279 -0.2862  0.2263
15800SOL    HW159054   8.178   9.666   5.843 -1.0717  0.4387  1.1002
15800SOL    HW259055   8.232   9.746   5.975  2.5785  0.4308 -0.3216
15801SOL     OW59056   8.316   2.611   4.719 -0.2267 -0.3813  0.2118
15801SOL    HW159057   8.229   2.592   4.765  0.2507 -0.6437  1.0305
15801SOL    HW259058   8.348   2.702   4.744 -0.2784 -0.2807 -0.0953
15802SOL     OW59059   6.101   0.616   2.024 -0.4604 -0.3715  0.1010
15802SOL    HW159060   6.090   0.634   1.926  1.2498  2.2104  0.3290
15802SOL    HW259061   6.059   0.690   2.077  0.9146 -0.3775  1.2465
15803SOL     OW59062   2.059   4.993   3.828  0.5773 -0.8090  0.3759
15803SOL    HW159063   2.101   5.078   3.859 -2.7247  0.8436  0.6420
15803SOL    HW259064   2.000   4.957   3.901 -0.0425 -1.9340 -0.6607
15804SOL     OW59065   8.493   2.277   6.078  0.2806  0.2364  0.6332
15804SOL    HW159066   8.448   2.352   6.030  0.2124  0.1534  0.5687
15804SOL    HW259067   8.467   2.190   6.037 -0.6550  0.0859  1.5054
15805SOL     OW59068   2.783   9.869   7.214  0.6634 -0.3055  0.1870
15805SOL    HW159069   2.865   9.840   7.264  0.8146  1.4070  0.9694
15805SOL    HW259070   2.809   9.902   7.123  0.7379 -0.6249  0.0931
15806SOL     OW59071   4.549   7.527   6.414 -0.4108 -0.0822  0.1174
15806SOL    HW159072   4.614   7.460   6.378 -1.2923 -1.6828  1.4400
15806SOL    HW259073   4.580   7.619   6.391  2.4817 -0.7984  0.9162
15807SOL     OW59074   0.794   7.350   7.307 -0.1382 -0.2621  0.9059
15807SOL    HW159075   0.888   7.360   7.274 -0.9377  0.1877 -1.3420
15807SOL    HW259076   0.756   7.441   7.323 -1.3990 -0.2589 -1.8399
15808SOL     OW59077   0.670   2.356   6.320  0.7663 -0.3349 -0.5105
15808SOL    HW159078   0.668   2.346   6.420  1.4922  0.7170 -0.3844
15808SOL    HW259079   0.592   2.410   6.290  2.1409  1.8689 -0.2016
15809SOL     OW59080   8.416   7.351   7.575 -0.5243  0.4615  0.0250
15809SOL    HW159081   8.367   7.437   7.588 -1.2679 -0.0070  0.3073
15809SOL    HW259082   8.399   7.317   7.483 -0.5035  0.4376  0.0301
15810SOL     OW59083   3.150   1.772   2.959  0.1454  0.5737 -0.5756
15810SOL    HW159084   3.223   1.761   3.026 -0.3139  0.5969 -0.0642
15810SOL    HW259085   3.064   1.789   3.007 -0.8665 -2.9049 -1.0038
15811SOL     OW59086   3.178   0.740   4.140  0.6786 -0.4279  0.0432
15811SOL    HW159087   3.197   0.835   4.115  1.8155 -0.7545 -0.3767
15811SOL    HW259088   3.080   0.722   4.133  0.4742  0.6808  0.0067
15812SOL     OW59089   8.613   0.280   3.071 -1.1664  0.4890  0.2065
15812SOL    HW159090   8.631   0.279   3.170 -1.8878 -2.6365  0.3823
15812SOL    HW259091   8.530   0.333   3.053  0.6218  3.6574  0.8713
15813SOL     OW59092   7.969   3.471   6.515  0.7939  0.6546  0.4303
15813SOL    HW159093   8.055   3.522   6.505  1.7024 -0.8380  0.4139
15813SOL    HW259094   7.893   3.535   6.519  1.7495  1.9579 -1.2443
15814SOL     OW59095   4.280   9.578   7.341 -0.7567 -0.1181  0.3659
15814SOL    HW159096   4.308   9.671   7.362 -0.2461 -0.4721  1.2996
15814SOL    HW259097   4.342   9.538   7.273 -0.5041 -0.0509  0.5591
15815SOL     OW59098   9.201   8.598   6.229  0.2365 -0.5558  0.3453
15815SOL    HW159099   9.228   8.558   6.141 -0.1125 -0.1606  0.0535
15815SOL    HW259100   9.254   8.682   6.245 -0.5827  0.0497 -0.0812
15816SOL     OW59101   9.213   3.913   3.290 -0.3217 -0.4240  0.3153
15816SOL    HW159102   9.137   3.973   3.267 -0.2564 -0.0666  0.9995
15816SOL    HW259103   9.299   3.954   3.260 -0.3416 -0.5097  0.1435
15817SOL     OW59104   3.727   2.837   6.393 -0.0242 -0.3079  0.0411
15817SOL    HW159105   3.633   2.823   6.426 -0.0356  0.8318  0.4881
15817SOL    HW259106   3.740   2.783   6.309 -1.5804  0.7413 -0.9191
15818SOL     OW59107   6.779   5.679   7.055  0.6233 -0.2509 -0.4354
15818SOL    HW159108   6.724   5.617   7.112  0.1090  0.6857  0.0963
15818SOL    HW259109   6.794   5.637   6.965 -0.9820 -0.4900 -0.5957
15819SOL     OW59110   0.997   5.881   7.519 -0.0274 -0.1528 -0.4503
15819SOL    HW159111   0.970   5.946   7.590  2.5746  2.5490 -1.8168
15819SOL    HW259112   0.951   5.903   7.433  1.4342  0.3926 -1.1098
15820SOL     OW59113   3.213   4.199   0.025 -0.1017 -0.0923 -0.0978
15820SOL    HW159114   3.253   4.130   0.085  2.7360  0.5754 -1.1586
15820SOL    HW259115   3.193   4.282   0.077  0.9658 -0.0285  0.2061
15821SOL     OW59116   4.867   2.702   0.327  0.2957 -0.4419 -0.6798
15821SOL    HW159117   4.894   2.722   0.421  1.8123  0.0569 -1.2148
15821SOL    HW259118   4.887   2.781   0.269 -0.3176 -0.8754 -1.4933
15822SOL     OW59119   1.603   6.642   1.066 -0.4564  0.5222 -0.4216
15822SOL    HW159120   1.515   6.596   1.082  0.3241 -0.2839  1.7608
15822SOL    HW259121   1.645   6.664   1.153  1.9543  0.0667 -1.4231
15823SOL     OW59122   2.372   2.705   6.654  0.0876  0.8378  0.0657
15823SOL    HW159123   2.430   2.772   6.700  0.4407 -1.0844  2.5748
15823SOL    HW259124   2.345   2.634   6.720 -0.6913 -1.1949 -2.3611
15824SOL     OW59125   8.558   1.761   3.964  0.1264 -0.0442 -0.1583
15824SOL    HW159126   8.626   1.813   4.016  1.2569 -0.5582 -1.1031
15824SOL    HW259127   8.565   1.783   3.867 -0.5584 -0.6685 -0.3598
15825SOL     OW59128   2.863   6.344   5.242  0.1066  0.0861  0.3922
15825SOL    HW159129   2.869   6.356   5.341  2.7571  1.3250  0.1023
15825SOL    HW259130   2.814   6.421   5.202  2.1404  1.3790  0.3686
15826SOL     OW59131   9.236   7.579   7.833  0.0715  0.1284 -0.5124
15826SOL    HW159132   9.166   7.640   7.797  0.1247 -0.4995 -1.7247
15826SOL    HW259133   9.213   7.484   7.811  0.4759 -0.2191  0.4997
15827SOL     OW59134   3.931   2.769   6.610  0.6751 -0.4059 -0.3179
15827SOL    HW159135   3.892   2.678   6.625  2.7970 -1.3928 -0.6509
15827SOL    HW259136   3.892   2.809   6.527 -1.0524 -0.5425  0.4026
15828SOL     OW59137   2.508   3.081   1.419  0.5557  0.0619 -0.4448
15828SOL    HW159138   2.473   3.113   1.331 -0.2417 -0.5562 -0.3542
15828SOL    HW259139   2.496   2.982   1.426  0.1218  0.1734  0.5722
15829SOL     OW59140   0.388   8.178   3.709 -0.4113 -0.0340 -0.2887
15829SOL    HW159141   0.460   8.245   3.691  0.3718 -1.0907 -1.1563
15829SOL    HW259142   0.340   8.202   3.793 -0.5660  1.9772 -0.9376
15830SOL     OW59143   5.564   8.690   2.347  0.4626  0.4881 -0.0061
15830SOL    HW159144   5.547   8.653   2.438  0.0586 -1.2103 -0.7362
15830SOL    HW259145   5.487   8.747   2.319  0.8262  1.4384  0.9166
15831SOL     OW59146   4.230   1.577   0.455  0.1193 -0.5056  0.0735
15831SOL    HW159147   4.257   1.587   0.551  0.5389 -2.9423  0.2558
15831SOL    HW259148   4.312   1.579   0.398 -0.0470  0.0124 -0.1492
15832SOL     OW59149   5.025   1.766   4.734 -0.2996 -0.5042  0.4398
15832SOL    HW159150   4.951   1.701   4.752 -1.0745 -0.6405 -2.8998
15832SOL    HW259151   4.986   1.854   4.707  0.7101 -0.5840 -1.3805
15833SOL     OW59152   9.441   9.606   7.226  0.2156  0.3667  0.5165
15833SOL    HW159153   9.366   9.620   7.291 -0.1642  0.3363  0.0894
15833SOL    HW259154   9.501   9.686   7.227  0.3399  0.2716  1.0666
15834SOL     OW59155   4.555   2.901   0.379 -0.1429  0.3939  0.0529
15834SOL    HW159156   4.527   2.860   0.293 -0.3379 -0.3804  0.4812
15834SOL    HW259157   4.640   2.951   0.366  1.4173 -2.1960  0.0699
15835SOL     OW59158   4.431   0.577   5.872  0.5368 -0.0293  0.1371
15835SOL    HW159159   4.457   0.491   5.829  1.3454  0.7051 -0.8746
15835SOL    HW259160   4.510   0.615   5.920  0.5338  0.7476 -0.4535
15836SOL     OW59161   2.483   7.964   3.095 -0.2553  0.2027  0.3239
15836SOL    HW159162   2.386   7.982   3.112 -0.1323  0.9937  0.1747
15836SOL    HW259163   2.534   8.049   3.100  0.5581 -0.3257  1.2255
15837SOL     OW59164   8.168   8.179   2.832  0.2479  0.0598 -0.2974
15837SOL    HW159165   8.235   8.159   2.761 -0.0214 -0.2926 -0.4532
15837SOL    HW259166   8.083   8.128   2.814 -1.1840  2.8625 -1.8443
15838SOL     OW59167   4.791   8.108   5.629  0.1875 -0.5458  0.2832
15838SOL    HW159168   4.707   8.064   5.600 -0.8005 -0.5086  2.9478
15838SOL    HW259169   4.853   8.039   5.667  0.7472 -0.3539 -0.2726
15839SOL     OW59170   4.902   4.245   1.126  0.3085  0.8292 -0.3167
15839SOL    HW159171   4.827   4.300   1.162  1.6676  1.2944  1.9040
15839SOL    HW259172   4.875   4.149   1.123 -0.6585  1.0957 -0.3448
15840SOL     OW59173   9.074   4.025   1.973 -0.2241 -0.4613 -0.7234
15840SOL    HW159174   9.112   3.938   1.943  2.3076  0.1988  0.4243
15840SOL    HW259175   9.049   4.019   2.070 -1.9216 -0.4959 -1.1450
15841SOL     OW59176   0.549   0.192   3.261  0.0110 -0.2823 -0.9002
15841SOL    HW159177   0.478   0.261   3.276  0.6270  0.3114 -0.6753
15841SOL    HW259178   0.523   0.133   3.185  0.7593  1.9504 -2.9381
15842SOL     OW59179   6.809   5.941   0.343  0.1915  0.0789  0.0501
15842SOL    HW159180   6.768   5.895   0.421 -0.7807  1.4170  0.3237
15842SOL    HW259181   6.899   5.976   0.369  0.7780 -1.3194 -0.0505
15843SOL     OW59182   5.675   9.272   3.487  0.1852  0.3201  0.7206
15843SOL    HW159183   5.681   9.316   3.397 -1.1808 -0.6500  0.1298
15843SOL    HW259184   5.761   9.226   3.507  0.5558  0.6685 -0.0278
15844SOL     OW59185   9.934   5.950   5.256  0.6151 -0.0426  0.4887
15844SOL    HW159186   9.895   6.011   5.187  0.4056  1.9718  2.3626
15844SOL    HW259187   9.863   5.888   5.290  0.7917 -1.2819 -1.2757
15845SOL     OW59188   0.008   1.052   4.155  0.4378 -0.6991 -0.0515
15845SOL    HW159189  -0.058   1.015   4.220 -0.9208 -0.2426 -1.1420
15845SOL    HW259190   0.083   0.987   4.142  0.5287 -0.9526  1.6713
15846SOL     OW59191   4.168   9.550   3.231  0.3586  0.0502 -0.1949
15846SOL    HW159192   4.221   9.487   3.175  1.5081 -0.2871  1.2649
15846SOL    HW259193   4.094   9.590   3.176  0.4847 -1.4937 -1.4953
15847SOL     OW59194   7.012   0.371   5.173 -0.1997  0.2590 -0.5272
15847SOL    HW159195   6.950   0.437   5.216 -1.3838 -1.5856  0.6851
15847SOL    HW259196   7.034   0.299   5.238 -0.2802 -1.4439 -2.3361
15848SOL     OW59197   4.405   9.123   6.709 -0.4217  0.0344 -0.5187
15848SOL    HW159198   4.405   9.023   6.716 -0.0454  0.1583  1.7938
15848SOL    HW259199   4.315   9.158   6.737 -0.2483  0.3921 -0.4077
15849SOL     OW59200   5.662   9.240   4.647  0.0334 -0.3303 -0.5103
15849SOL    HW159201   5.631   9.333   4.626  2.2297  0.4119 -0.5456
15849SOL    HW259202   5.585   9.187   4.682 -0.7100  2.2526  2.0000
15850SOL     OW59203   4.979   1.748   5.770  0.1812 -0.4720 -0.0860
15850SOL    HW159204   5.028   1.829   5.736 -0.4637 -0.7343 -1.6685
15850SOL    HW259205   4.941   1.768   5.860  0.1822  0.9342 -0.3831
15851SOL     OW59206   7.962   7.763   7.017  0.5153 -0.1934 -0.3998
15851SOL    HW159207   7.997   7.845   6.972 -0.4513 -0.3374 -1.4276
15851SOL    HW259208   7.932   7.785   7.110 -1.0612  0.9264 -1.1531
15852SOL     OW59209   6.297   2.818   0.573 -0.2808 -0.3673  0.0010
15852SOL    HW159210   6.328   2.912   0.562  0.6328 -0.5493  0.9995
15852SOL    HW259211   6.336   2.779   0.656 -0.8659 -1.5420 -0.2646
15853SOL     OW59212   2.130   0.029   7.359 -0.2546 -0.6038  0.0418
15853SOL    HW159213   2.165   0.028   7.452  0.7475  0.8191 -0.3033
15853SOL    HW259214   2.196   0.074   7.299 -1.6917  0.1237 -1.0226
15854SOL     OW59215   4.898   3.123   6.906  0.0711 -0.1173 -0.1386
15854SOL    HW159216   4.926   3.217   6.921 -1.6926  1.0582 -3.6785
15854SOL    HW259217   4.809   3.107   6.949  0.3025 -0.1621  0.3340
15855SOL     OW59218   0.100   6.037   6.490 -0.4560  0.3104 -0.1283
15855SOL    HW159219   0.045   6.108   6.533  0.4088  0.4561  0.7671
15855SOL    HW259220   0.083   5.949   6.535 -0.4896  0.2197 -0.3166
15856SOL     OW59221   9.169   1.105   7.873 -0.0485  0.2062  0.0473
15856SOL    HW159222   9.105   1.067   7.806 -0.5223 -0.8169  1.0741
15856SOL    HW259223   9.140   1.197   7.899 -0.2466  0.3364 -0.6225
15857SOL     OW59224   8.617   6.459   2.575  0.4638  0.8294  0.1346
15857SOL    HW159225   8.547   6.487   2.509  2.0075  0.3223 -1.7475
15857SOL    HW259226   8.685   6.402   2.530  2.3625  1.6954  1.8184
15858SOL     OW59227   6.142   9.348   4.020  0.2355  1.2885  0.1145
15858SOL    HW159228   6.178   9.422   4.077  1.0007 -0.2374  1.6568
15858SOL    HW259229   6.196   9.341   3.936 -0.0340  2.6598 -0.1836
15859SOL     OW59230   1.493   4.281   3.195 -0.2289  0.4489  0.4633
15859SOL    HW159231   1.429   4.316   3.126 -0.3814  2.2478  1.4966
15859SOL    HW259232   1.587   4.307   3.169 -0.4208  2.4566  1.6874
15860SOL     OW59233   8.717   2.452   0.046 -0.1287 -0.1059  0.2172
15860SOL    HW159234   8.780   2.382   0.079  0.6492  0.1610 -0.6683
15860SOL    HW259235   8.640   2.409  -0.001 -0.1028 -0.3905  0.4332
15861SOL     OW59236   3.123   7.023   5.650  0.3453  0.0891  0.0776
15861SOL    HW159237   3.206   6.975   5.624  0.3711  1.4250 -2.3968
15861SOL    HW259238   3.044   6.980   5.606 -0.2430 -0.8001  1.9301
15862SOL     OW59239   0.642   6.615   5.336 -0.0987  0.6228  0.1482
15862SOL    HW159240   0.639   6.715   5.340  0.0865  0.6628 -0.5480
15862SOL    HW259241   0.699   6.580   5.410 -1.0907  0.9665  1.0976
15863SOL     OW59242   7.054   0.057   4.598  0.4076  0.0706  0.3424
15863SOL    HW159243   7.115   0.007   4.536  0.3300 -0.4623  0.6962
15863SOL    HW259244   7.018  -0.006   4.667 -0.8637  0.3029 -0.0976
15864SOL     OW59245   7.438   8.764   3.293  0.3089  0.0788 -0.4396
15864SOL    HW159246   7.418   8.711   3.375 -0.0415  0.1510 -0.4766
15864SOL    HW259247   7.357   8.816   3.267  0.5038  0.2633 -0.6770
15865SOL     OW59248   3.681   5.828   7.730 -0.4341 -0.3542 -0.1309
15865SOL    HW159249   3.776   5.833   7.700 -0.3427 -0.5482  0.1250
15865SOL    HW259250   3.622   5.875   7.663  0.1374  2.1505  1.0988
15866SOL     OW59251   5.301   7.303   1.118 -0.1880  0.4925  0.2598
15866SOL    HW159252   5.315   7.230   1.185 -0.0279  0.8265  0.5879
15866SOL    HW259253   5.208   7.297   1.081  0.0113 -0.2409 -0.1467
15867SOL     OW59254   7.527   3.447   2.614 -0.2388 -0.0955 -0.4542
15867SOL    HW159255   7.625   3.456   2.602 -0.3659  1.3874 -0.4640
15867SOL    HW259256   7.481   3.531   2.584 -1.4660 -0.5802 -0.0003
15868SOL     OW59257   1.576   3.893   1.213 -0.5666  0.2689  0.0904
15868SOL    HW159258   1.628   3.965   1.167 -0.0268  0.8391  1.5689
15868SOL    HW259259   1.625   3.806   1.203  0.3217  0.6706  0.8615
15869SOL     OW59260   4.853   7.708   4.693  0.3987 -0.2263  0.1170
15869SOL    HW159261   4.838   7.807   4.690  0.4808 -0.1638  1.7272
15869SOL    HW259262   4.789   7.663   4.630  0.3337  0.8309 -0.5945
15870SOL     OW59263   3.396   0.695   3.932 -0.4479 -0.1505 -0.3299
15870SOL    HW159264   3.448   0.631   3.988  0.9911  1.0759 -0.2339
15870SOL    HW259265   3.301   0.698   3.964  0.9002  2.5753  3.9835
15871SOL     OW59266   7.625   1.247   5.853  0.5082 -0.4368 -0.2623
15871SOL    HW159267   7.683   1.191   5.794 -0.2705 -1.8246  0.2539
15871SOL    HW259268   7.630   1.213   5.947  1.1541  1.2880  0.3555
15872SOL     OW59269   5.277   8.279   5.171 -0.6432 -0.0222 -0.4419
15872SOL    HW159270   5.247   8.368   5.139 -0.0104  0.2072 -0.4073
15872SOL    HW259271   5.325   8.231   5.097  1.4354  0.7984  0.3325
15873SOL     OW59272   3.989   3.110   6.209  0.1764  0.1902  0.0624
15873SOL    HW159273   3.955   3.020   6.182 -0.9885  0.9015 -0.8941
15873SOL    HW259274   4.023   3.158   6.128 -0.2294  1.0331  0.3841
15874SOL     OW59275   7.906   1.880   0.053 -0.0869 -0.3961  0.7367
15874SOL    HW159276   7.865   1.803   0.004  0.5166 -0.7027  0.7168
15874SOL    HW259277   7.972   1.846   0.119 -1.4396 -0.0340  2.3074
15875SOL     OW59278   8.143   7.789   7.646 -0.1160  0.2139 -0.2481
15875SOL    HW159279   8.196   7.790   7.731 -0.3703 -1.4260 -0.0579
15875SOL    HW259280   8.120   7.883   7.621  1.0035  0.8003  0.8405
15876SOL     OW59281   9.566   8.966   1.629 -0.7085 -1.1471  0.0562
15876SOL    HW159282   9.522   8.897   1.687 -1.5911 -0.6250  0.0149
15876SOL    HW259283   9.663   8.971   1.651 -1.3315  0.1819  2.6144
15877SOL     OW59284   2.791   6.906   2.632  0.0229 -0.3320  0.3700
15877SOL    HW159285   2.732   6.842   2.681  0.8585 -2.4352 -1.3189
15877SOL    HW259286   2.825   6.864   2.548  2.1992  1.6080  0.2135
15878SOL     OW59287   6.353   3.818   0.581 -0.1201 -0.0586 -0.4408
15878SOL    HW159288   6.433   3.784   0.530 -0.3961  0.4251 -1.2050
15878SOL    HW259289   6.367   3.804   0.679  0.6453 -0.5274 -0.6177
15879SOL     OW59290   8.330   3.516   2.312 -0.1567  0.6344  0.2511
15879SOL    HW159291   8.327   3.526   2.412 -0.7180  3.5490 -0.0183
15879SOL    HW259292   8.317   3.605   2.269 -0.2175 -0.6268 -2.4576
15880SOL     OW59293   3.477   7.915   4.679 -0.3388  0.0308  0.0691
15880SOL    HW159294   3.428   7.981   4.622 -0.8308 -0.4248 -0.0437
15880SOL    HW259295   3.509   7.839   4.622  0.8431  0.5232  0.0795
15881SOL     OW59296   2.329   9.792   4.469  0.1170  0.5211 -0.8447
15881SOL    HW159297   2.406   9.748   4.515 -1.4779 -0.9513  0.4926
15881SOL    HW259298   2.288   9.859   4.530  1.1167  2.2867 -2.0452
15882SOL     OW59299   8.385   9.790   5.010 -0.1533 -0.1573  0.2724
15882SOL    HW159300   8.320   9.859   5.040 -0.0493 -0.4149  1.0848
15882SOL    HW259301   8.366   9.703   5.056  0.2171 -0.4679 -0.1474
15883SOL     OW59302   0.844   1.366   6.765 -0.1855 -0.5818  0.6485
15883SOL    HW159303   0.871   1.388   6.859 -0.5831 -0.8507  0.8218
15883SOL    HW259304   0.810   1.273   6.760  0.9827 -0.9879  0.0032
15884SOL     OW59305   5.218   8.623   3.479 -0.8482 -0.1349  0.6230
15884SOL    HW159306   5.146   8.585   3.537  0.0455 -1.0936  1.1159
15884SOL    HW259307   5.275   8.685   3.533  0.6388 -1.8494  1.0905
15885SOL     OW59308   2.084   8.579   2.450  0.5844 -0.4197 -0.1087
15885SOL    HW159309   2.114   8.641   2.377  1.6537 -0.9506 -0.1284
15885SOL    HW259310   2.009   8.522   2.416 -0.1587  0.6118 -0.2040
15886SOL     OW59311   7.200   4.632   1.810  0.3126  0.1329  0.1870
15886SOL    HW159312   7.271   4.618   1.880 -1.2793 -1.8017  1.4643
15886SOL    HW259313   7.205   4.726   1.776  0.7805  1.3010  3.3181
15887SOL     OW59314   5.887   0.538   3.535 -0.0880  0.2087  0.3916
15887SOL    HW159315   5.947   0.471   3.493  0.1245  0.5454  0.1597
15887SOL    HW259316   5.817   0.566   3.469  0.9865  1.6614 -0.1570
15888SOL     OW59317   8.540   5.342   2.832 -0.4026 -0.5292 -0.2528
15888SOL    HW159318   8.631   5.364   2.867 -0.9885 -0.2015  1.1100
15888SOL    HW259319   8.473   5.404   2.872 -1.1431 -0.3074 -1.7918
15889SOL     OW59320   0.254   3.026   0.166  0.4579 -0.6108  0.3109
15889SOL    HW159321   0.347   2.993   0.182 -0.3261 -2.6445  0.9483
15889SOL    HW259322   0.251   3.075   0.079  2.4287  0.8543  1.0218
15890SOL     OW59323   9.691   9.755   5.798  0.1183 -0.2701  0.2112
15890SOL    HW159324   9.606   9.712   5.766  0.0551 -0.9236  1.2380
15890SOL    HW259325   9.716   9.828   5.735 -0.4923 -0.9398 -0.8385
15891SOL     OW59326   6.794   7.014   4.910 -0.7586 -0.9692 -0.3763
15891SOL    HW159327   6.774   6.920   4.941  4.0270 -1.6155  1.2397
15891SOL    HW259328   6.838   7.011   4.821  0.3661 -0.3634  0.1488
15892SOL     OW59329   5.827   7.905   4.220  0.0849 -0.7161  0.0164
15892SOL    HW159330   5.740   7.944   4.187  0.5813 -0.4937 -1.0471
15892SOL    HW259331   5.814   7.807   4.239 -0.8583 -0.3204  1.5862
15893SOL     OW59332   4.367   9.541   1.321 -0.1387  0.0004  0.5099
15893SOL    HW159333   4.274   9.515   1.294 -0.6391  0.6540  1.5572
15893SOL    HW259334   4.421   9.560   1.239 -1.0568  0.0623 -0.0959
15894SOL     OW59335   2.099   4.321   7.198  0.3960  0.3987  0.3831
15894SOL    HW159336   2.053   4.357   7.279  1.7165  1.5645  0.6496
15894SOL    HW259337   2.131   4.398   7.141  0.9879 -0.3875 -0.3672
15895SOL     OW59338   0.659   7.523   2.742 -0.2868 -0.0555  0.2437
15895SOL    HW159339   0.745   7.475   2.725 -0.2318  0.5367 -1.2415
15895SOL    HW259340   0.672   7.621   2.724 -0.7696  0.3392  1.8807
15896SOL     OW59341   2.641   6.584   4.448  0.3157  0.8845 -0.0547
15896SOL    HW159342   2.562   6.592   4.388  0.6350  1.6891 -0.3686
15896SOL    HW259343   2.655   6.671   4.496  0.1953  0.3225  1.0167
15897SOL     OW59344   8.836   8.817   6.193 -0.4661 -0.0287 -0.4442
15897SOL    HW159345   8.811   8.880   6.267 -0.5180 -0.6112  0.0401
15897SOL    HW259346   8.883   8.868   6.121  0.9495  0.2950  0.6691
15898SOL     OW59347   0.689   8.384   6.295  0.5515 -0.4011  0.0291
15898SOL    HW159348   0.734   8.415   6.211 -0.0667 -2.5030 -1.1036
15898SOL    HW259349   0.601   8.343   6.272  0.5124 -1.2559  1.6943
15899SOL     OW59350   6.928   6.526   6.053 -0.0313  0.3426 -0.4861
15899SOL    HW159351   6.911   6.620   6.025  0.6037 -0.2231 -2.8871
15899SOL    HW259352   7.000   6.524   6.122  0.5566  1.5320 -1.0525
15900SOL     OW59353   4.836   3.243   0.149  0.6419 -0.4578 -0.0244
15900SOL    HW159354   4.803   3.337   0.154 -0.3911 -0.7086 -1.8315
15900SOL    HW259355   4.769   3.186   0.102  2.3698 -1.5785 -1.2018
15901SOL     OW59356   1.785   5.661   7.755  0.4596 -0.6565 -0.1608
15901SOL    HW159357   1.740   5.597   7.692  0.7771 -0.6574 -0.3867
15901SOL    HW259358   1.735   5.748   7.754  0.7089 -0.5169 -0.7368
15902SOL     OW59359   8.407   4.794   6.210 -0.3167  0.2165 -0.0617
15902SOL    HW159360   8.499   4.764   6.235  0.4765  0.8896 -2.0770
15902SOL    HW259361   8.382   4.755   6.122 -2.3682 -0.7265  0.8979
15903SOL     OW59362   0.143   3.680   3.623  0.1870  0.2735 -0.4722
15903SOL    HW159363   0.163   3.759   3.682  1.6322  1.0451 -1.9645
15903SOL    HW259364   0.061   3.633   3.656  1.0520  0.5963  2.2651
15904SOL     OW59365   9.415   5.790   5.921  0.1272 -0.0343 -0.4483
15904SOL    HW159366   9.487   5.846   5.880  2.5394 -0.9747  2.3149
15904SOL    HW259367   9.327   5.835   5.909  1.5229  2.5323 -1.4870
15905SOL     OW59368   6.153   4.563   1.172  0.1146 -0.0528  0.1005
15905SOL    HW159369   6.173   4.655   1.203 -1.2524  0.6876 -1.1431
15905SOL    HW259370   6.187   4.551   1.079 -0.3582 -0.5697 -0.0071
15906SOL     OW59371   1.947   8.441   3.144 -0.2012  0.3670  0.5448
15906SOL    HW159372   2.019   8.404   3.203  0.1967  0.1591 -0.0706
15906SOL    HW259373   1.872   8.474   3.201  0.1442  0.0942  1.1688
15907SOL     OW59374   1.459   1.352   3.619  0.0669  0.4794 -0.6590
15907SOL    HW159375   1.558   1.364   3.611  0.1446  0.3195  0.0736
15907SOL    HW259376   1.426   1.395   3.703 -0.6258  1.3582 -1.3621
15908SOL     OW59377   7.307   7.092   3.008 -0.2050  0.3705  0.6673
15908SOL    HW159378   7.296   7.185   2.972 -1.0415 -0.2377 -0.7249
15908SOL    HW259379   7.351   7.035   2.939 -1.3945 -0.7144  0.7757
15909SOL     OW59380   8.311   1.699   5.222  0.7786 -0.1588 -0.1192
15909SOL    HW159381   8.224   1.651   5.213  0.3728  0.6458 -0.5778
15909SOL    HW259382   8.373   1.670   5.150  0.2469  0.5894 -0.8955
15910SOL     OW59383   0.299   1.795   2.288  0.1268 -0.3733  0.0253
15910SOL    HW159384   0.388   1.818   2.250  0.6449 -0.3299  1.2411
15910SOL    HW259385   0.249   1.736   2.225  1.3641 -1.1097 -0.2701
15911SOL     OW59386   2.599   5.376   1.277  0.1723  0.1991 -0.2317
15911SOL    HW159387   2.669   5.445   1.257 -0.6156  0.6040 -1.6336
15911SOL    HW259388   2.615   5.339   1.368 -0.3112  3.3746  1.2221
15912SOL     OW59389   0.280   9.669   6.801 -0.3911  0.2978 -0.0543
15912SOL    HW159390   0.229   9.722   6.869 -0.3422 -0.5444  0.6445
15912SOL    HW259391   0.217   9.611   6.750 -0.0305 -1.5629  1.5522
15913SOL     OW59392   7.880   1.384   6.456  0.1493 -0.8078 -0.6008
15913SOL    HW159393   7.968   1.431   6.452 -0.3893  0.2723  0.1864
15913SOL    HW259394   7.896   1.287   6.478  1.1870 -0.8026 -1.2724
15914SOL     OW59395   0.547   5.336   1.696 -0.1062  0.3428  0.5666
15914SOL    HW159396   0.558   5.306   1.791 -0.9527  0.3510  0.6671
15914SOL    HW259397   0.597   5.274   1.636 -2.5322 -1.7868  0.6861
15915SOL     OW59398   4.041   4.726   0.937  0.0892  0.2012  0.3835
15915SOL    HW159399   4.115   4.783   0.971  1.4969 -1.5346  0.3213
15915SOL    HW259400   4.056   4.631   0.967 -2.6995 -0.0003  1.3337
15916SOL     OW59401   7.218   5.209   7.242 -0.3673 -0.3447 -0.5147
15916SOL    HW159402   7.210   5.236   7.147  0.2512 -0.5685 -0.6358
15916SOL    HW259403   7.253   5.287   7.296 -1.4529  0.0242 -0.3275
15917SOL     OW59404   3.801   3.937   2.765  0.0404 -0.9505 -0.6483
15917SOL    HW159405   3.806   3.868   2.693  1.5547 -1.2551 -0.2668
15917SOL    HW259406   3.705   3.954   2.788 -0.3773 -2.3172 -1.3226
15918SOL     OW59407   0.474   2.212   1.373  0.4621  0.4363  0.3252
15918SOL    HW159408   0.556   2.239   1.423  0.6002  0.6158  0.0020
15918SOL    HW259409   0.499   2.149   1.299  0.3687  0.8617 -0.0711
15919SOL     OW59410   0.662   4.584   2.534 -0.0195  0.0381  0.6401
15919SOL    HW159411   0.640   4.665   2.479 -0.4095  1.1886  2.4478
15919SOL    HW259412   0.591   4.514   2.521  0.4125 -0.1191 -1.0693
15920SOL     OW59413   1.440   2.159   8.202  0.0599  0.0626  0.0544
15920SOL    HW159414   1.362   2.141   8.142  0.2586  1.3118 -0.5981
15920SOL    HW259415   1.494   2.075   8.213  0.1339 -0.1486 -1.6954
15921SOL     OW59416   9.140   3.233   5.213 -0.0163  0.2419 -0.1520
15921SOL    HW159417   9.211   3.259   5.278  0.8398 -1.2417 -0.4784
15921SOL    HW259418   9.182   3.198   5.129 -1.1077 -1.6732  0.0643
15922SOL     OW59419   9.619   9.064   4.187 -0.2550 -0.2983  0.1031
15922SOL    HW159420   9.523   9.070   4.160 -0.0591 -0.1552 -0.5775
15922SOL    HW259421   9.667   9.001   4.126  0.1349 -0.1944  0.2991
15923SOL     OW59422   7.875   8.977   6.237  0.2095  0.2144 -0.0443
15923SOL    HW159423   7.934   9.038   6.184  0.5391 -0.1476 -0.1024
15923SOL    HW259424   7.925   8.944   6.317  0.0452 -0.0007 -0.0284
15924SOL     OW59425   0.619   6.108   1.592 -0.1356  0.9495 -0.2059
15924SOL    HW159426   0.703   6.162   1.599  1.3579 -1.1846 -1.0303
15924SOL    HW259427   0.611   6.071   1.500 -1.5380  0.3987  0.1210
15925SOL     OW59428   4.735   7.522   2.432 -0.1614 -0.0444 -0.1809
15925SOL    HW159429   4.738   7.441   2.374  0.5244 -0.1986  0.0585
15925SOL    HW259430   4.823   7.532   2.479 -0.8975 -0.2527  1.2846
15926SOL     OW59431   2.325   9.729   7.333  0.0978  0.2411  0.1817
15926SOL    HW159432   2.275   9.741   7.418  2.3784 -0.2608  1.6474
15926SOL    HW259433   2.371   9.815   7.309 -3.5008  1.5253 -2.5895
15927SOL     OW59434   7.210   4.442   2.119  0.0756  0.0834  0.6629
15927SOL    HW159435   7.155   4.509   2.170 -1.6706 -1.4667  0.8974
15927SOL    HW259436   7.161   4.416   2.035  1.5830  0.4574 -0.3407
15928SOL     OW59437   3.810   9.151   1.635  0.1076  0.3780 -0.4509
15928SOL    HW159438   3.720   9.157   1.680  0.0633  1.4607 -0.6725
15928SOL    HW259439   3.829   9.056   1.613 -0.1031 -0.1131  1.3969
15929SOL     OW59440   7.768   9.514   5.935  0.2506 -0.1152  0.0982
15929SOL    HW159441   7.776   9.514   5.836 -2.7332  2.4447 -0.2102
15929SOL    HW259442   7.838   9.573   5.975 -0.2881  1.0716 -0.6894
15930SOL     OW59443   8.975   2.682   6.662 -0.5149 -0.0453 -0.0431
15930SOL    HW159444   8.913   2.689   6.740 -1.4213 -0.7815 -0.6833
15930SOL    HW259445   9.013   2.589   6.658 -1.1372 -0.2733 -0.9623
15931SOL     OW59446   5.728   8.349   1.507 -0.5700 -0.3828  0.3221
15931SOL    HW159447   5.782   8.290   1.567 -1.4218 -0.1365  1.3720
15931SOL    HW259448   5.752   8.445   1.525  0.0508 -0.3650 -0.6143
15932SOL     OW59449   3.101   7.210   3.354 -0.0284  0.1318 -0.1732
15932SOL    HW159450   3.098   7.287   3.290 -1.1526 -1.7599 -2.4684
15932SOL    HW259451   3.193   7.172   3.356 -0.3292 -0.7187 -1.8279
15933SOL     OW59452   3.857   8.999   5.537  0.0551 -0.0634 -0.6290
15933SOL    HW159453   3.808   8.920   5.574  1.5449 -1.2455 -1.1634
15933SOL    HW259454   3.797   9.048   5.474 -0.5097 -1.3992 -1.1490
15934SOL     OW59455   1.404   8.600   1.089  0.4692  0.2957  0.0303
15934SOL    HW159456   1.480   8.661   1.068  0.9611 -0.1120  0.6025
15934SOL    HW259457   1.337   8.602   1.014  0.9057  0.8642 -0.3450
15935SOL     OW59458   1.598   7.568   3.748 -0.8140 -0.2318  0.0942
15935SOL    HW159459   1.690   7.549   3.782 -1.0800 -0.8401  0.4827
15935SOL    HW259460   1.530   7.534   3.813 -1.3195  0.9944  0.2286
15936SOL     OW59461   5.954   0.122   1.600  0.2484  0.3106 -0.0002
15936SOL    HW159462   5.926   0.166   1.685  1.1180  1.6098 -0.3724
15936SOL    HW259463   5.957   0.023   1.613 -3.5112  0.1596  0.3447
15937SOL     OW59464   5.688   9.596   1.482 -0.1617 -0.4237  0.4183
15937SOL    HW159465   5.619   9.526   1.500 -2.1498  1.1927 -0.7171
15937SOL    HW259466   5.657   9.657   1.409  1.8061  1.2546  0.9028
15938SOL     OW59467   0.674   8.379   7.837  0.0532 -0.1625  0.0095
15938SOL    HW159468   0.717   8.464   7.807  0.3840 -0.6294 -0.8706
15938SOL    HW259469   0.645   8.388   7.932 -1.9777  1.7051 -0.7502
15939SOL     OW59470   1.788   2.308   3.641  0.3210  0.3158 -0.3208
15939SOL    HW159471   1.694   2.341   3.650  0.4352  0.6641 -0.4066
15939SOL    HW259472   1.835   2.316   3.729  1.4142  3.6506 -1.1512
15940SOL     OW59473   0.085   0.789   3.744  0.0128 -0.9277 -0.5694
15940SOL    HW159474   0.168   0.812   3.694  0.5002 -0.4874  0.4219
15940SOL    HW259475   0.071   0.855   3.818 -0.8001 -1.4534 -0.2408
15941SOL     OW59476   4.473   2.432   2.577 -0.1919  0.1455 -0.0888
15941SOL    HW159477   4.381   2.450   2.542 -0.8130 -1.8706  0.4142
15941SOL    HW259478   4.535   2.415   2.500  0.0186  2.4648 -0.4791
15942SOL     OW59479   7.004   2.254   3.099 -0.3895 -0.3390  0.5295
15942SOL    HW159480   7.082   2.194   3.080 -0.2565  0.1483 -0.4937
15942SOL    HW259481   6.968   2.233   3.190  0.8551 -0.6568  0.9728
15943SOL     OW59482   3.561   5.444   0.717  0.0086  0.0673  0.2559
15943SOL    HW159483   3.660   5.453   0.704  0.0292  1.0921  1.1026
15943SOL    HW259484   3.533   5.350   0.695  1.2630 -0.3986  0.6082
15944SOL     OW59485   1.525   0.306   5.492  0.3149 -0.6231  0.2608
15944SOL    HW159486   1.474   0.383   5.454  0.3786 -0.3249  0.7837
15944SOL    HW259487   1.566   0.254   5.417 -0.7073 -0.8357 -0.1647
15945SOL     OW59488   8.981   3.052   5.920 -0.0423  0.1077 -0.2194
15945SOL    HW159489   8.911   3.015   5.858 -0.7659  2.8151 -1.0899
15945SOL    HW259490   8.942   3.065   6.011  0.2007 -1.2206  0.0757
15946SOL     OW59491   1.962   0.309   5.340 -0.4400 -0.0906 -0.4023
15946SOL    HW159492   2.043   0.322   5.397 -0.7177 -0.2349  0.0313
15946SOL    HW259493   1.980   0.342   5.247 -0.1903  0.7402 -0.0647
15947SOL     OW59494   0.409   6.985   2.681  0.0740  0.5170  0.4987
15947SOL    HW159495   0.395   7.024   2.590  3.0826  1.2798  0.3116
15947SOL    HW259496   0.337   7.017   2.743 -2.2434 -0.3297 -1.6802
15948SOL     OW59497   1.317   2.873   7.801 -0.1498  0.0351 -0.3151
15948SOL    HW159498   1.336   2.959   7.847 -1.5701 -0.3950  1.1294
15948SOL    HW259499   1.395   2.848   7.744  1.1650  1.1893  0.9278
15949SOL     OW59500   4.337   2.395   5.492  0.1720  0.2994  0.3218
15949SOL    HW159501   4.327   2.406   5.591 -0.4616  1.9150  0.0910
15949SOL    HW259502   4.412   2.453   5.460 -1.4538  1.9666 -0.5380
15950SOL     OW59503   4.222   6.046   1.951 -0.1549 -0.2783  0.3039
15950SOL    HW159504   4.321   6.033   1.959 -0.2516 -0.6040  0.9638
15950SOL    HW259505   4.176   6.003   2.028 -0.7853  0.2200  0.2090
15951SOL     OW59506   0.292   3.732   7.978  0.3658  0.2044 -0.5663
15951SOL    HW159507   0.359   3.658   7.974  0.1797 -0.0208  0.4283
15951SOL    HW259508   0.271   3.762   7.885  1.1896 -0.3137 -0.9248
15952SOL     OW59509   5.978   1.374   0.312  0.3465  0.3418 -0.2911
15952SOL    HW159510   6.008   1.387   0.407 -2.2209 -1.0908  0.7890
15952SOL    HW259511   6.032   1.432   0.251  0.5891  2.9384  2.2806
15953SOL     OW59512   5.078   7.610   5.300  0.2779  0.3162 -0.0724
15953SOL    HW159513   5.114   7.696   5.264  1.6379  0.2824  1.1553
15953SOL    HW259514   4.989   7.591   5.258 -1.0104  3.3423  1.0793
15954SOL     OW59515   3.656   8.639   2.409  0.5590 -0.0772 -0.1532
15954SOL    HW159516   3.721   8.642   2.485  1.8908  1.7310 -1.3276
15954SOL    HW259517   3.616   8.729   2.395 -0.5021 -0.6491 -0.9229
15955SOL     OW59518   7.780   4.405   1.478 -0.1260 -0.2601  0.2514
15955SOL    HW159519   7.817   4.468   1.546 -0.9850 -0.1867  0.6541
15955SOL    HW259520   7.725   4.456   1.412  0.7707 -0.3189 -0.5483
15956SOL     OW59521   2.116   5.601   7.149 -0.2637  0.1696  0.2329
15956SOL    HW159522   2.195   5.661   7.139  0.1843 -0.4900 -0.3316
15956SOL    HW259523   2.076   5.585   7.059 -0.8523  0.2543  0.4813
15957SOL     OW59524   8.876   9.071   1.733  0.2585  0.1613 -0.0474
15957SOL    HW159525   8.944   9.092   1.803  1.5865  2.4014 -1.9214
15957SOL    HW259526   8.859   8.973   1.730  2.9742 -0.3611  0.8343
15958SOL     OW59527   8.933   7.367   2.257  0.2425  0.5203 -0.6977
15958SOL    HW159528   8.916   7.462   2.229 -1.0328  0.5004 -0.0426
15958SOL    HW259529   9.022   7.361   2.301 -0.3361  1.7546  0.7127
15959SOL     OW59530   7.104   8.724   2.502  0.3534 -0.0174  0.2016
15959SOL    HW159531   7.109   8.823   2.487 -1.9132 -0.1962 -2.1735
15959SOL    HW259532   7.107   8.677   2.414 -0.1791 -1.9876  1.2068
15960SOL     OW59533   6.058   0.298   5.575  0.5947 -0.2164  0.4263
15960SOL    HW159534   6.016   0.367   5.516  0.5107 -0.4147  0.2562
15960SOL    HW259535   5.987   0.245   5.621  0.6525 -1.3078 -0.7318
15961SOL     OW59536   3.137   3.742   2.359  0.0526 -0.0238 -0.2807
15961SOL    HW159537   3.103   3.663   2.308  1.9589 -0.1130 -1.4868
15961SOL    HW259538   3.206   3.712   2.424 -0.0268  0.5033  0.0461
15962SOL     OW59539   5.769   1.556   3.972  0.2106 -0.4581  0.8085
15962SOL    HW159540   5.820   1.470   3.969  2.3545  0.5778  4.3466
15962SOL    HW259541   5.733   1.570   4.064 -0.6532  2.1444  0.1231
15963SOL     OW59542   9.746   7.719   1.075 -0.1515 -0.1704  0.2809
15963SOL    HW159543   9.725   7.788   1.144  1.6107 -1.3648  2.0476
15963SOL    HW259544   9.758   7.630   1.118 -3.1253 -1.7933 -2.0550
15964SOL     OW59545   2.560   7.777   5.985  0.2425 -0.4630  0.3180
15964SOL    HW159546   2.571   7.780   6.084 -1.3723  0.7776  0.4722
15964SOL    HW259547   2.577   7.868   5.946 -1.1831 -0.4534 -0.3053
15965SOL     OW59548   1.246   4.321   1.639  0.1175  0.0549 -0.5461
15965SOL    HW159549   1.155   4.317   1.679 -0.2901  0.5659 -1.4381
15965SOL    HW259550   1.260   4.242   1.580  0.3769 -0.1892 -0.1675
15966SOL     OW59551   8.429   3.794   6.132 -0.4684  0.1414  0.5527
15966SOL    HW159552   8.371   3.806   6.214 -0.4889  1.4880  0.3516
15966SOL    HW259553   8.389   3.724   6.073 -0.7357 -0.4717  1.4514
15967SOL     OW59554   8.224   4.888   0.863  0.3314  0.3157 -0.4631
15967SOL    HW159555   8.147   4.825   0.871  1.0399 -0.6346 -1.0244
15967SOL    HW259556   8.210   4.947   0.783  1.0915 -1.1566 -1.7168
15968SOL     OW59557   7.978   0.435   6.221 -0.4759  0.2875  0.0373
15968SOL    HW159558   8.020   0.407   6.308 -3.5137 -3.1455  0.5135
15968SOL    HW259559   7.922   0.516   6.237 -1.3846 -0.5844  1.4493
15969SOL     OW59560   4.608   9.110   8.193  0.2638 -0.3208  0.2862
15969SOL    HW159561   4.602   9.139   8.289  0.7080  1.3116 -0.1606
15969SOL    HW259562   4.650   9.019   8.188 -1.0838 -1.0548  1.7264
15970SOL     OW59563   3.761   6.364   3.553  0.1122  0.2911  0.4883
15970SOL    HW159564   3.857   6.340   3.543 -0.7430 -3.1190 -0.5536
15970SOL    HW259565   3.722   6.387   3.464 -1.0341 -2.8315  0.1087
15971SOL     OW59566   1.104   1.646   3.793  0.3099 -0.3618 -0.3642
15971SOL    HW159567   1.153   1.608   3.714 -0.3041  1.0727 -1.4713
15971SOL    HW259568   1.092   1.745   3.780 -1.6001 -0.4512  0.5557
15972SOL     OW59569   2.224   5.049   2.514  0.2951  0.7740  0.2081
15972SOL    HW159570   2.154   5.065   2.582  0.2555  1.5763 -0.0168
15972SOL    HW259571   2.182   5.013   2.430  0.3747 -0.4439  0.6861
15973SOL     OW59572   2.600   2.586   4.509 -0.2011 -0.2319 -0.0321
15973SOL    HW159573   2.562   2.513   4.451 -0.3567 -0.2269  0.0630
15973SOL    HW259574   2.535   2.607   4.582 -0.6060  0.6947 -0.6401
15974SOL     OW59575   0.882   5.577   1.492  0.2445  0.1279  0.4527
15974SOL    HW159576   0.809   5.564   1.558 -1.1617 -1.9618 -1.3979
15974SOL    HW259577   0.843   5.600   1.403  2.0560  2.3263  0.1758
15975SOL     OW59578   8.818   4.810   4.068 -0.0768  0.2073 -0.1568
15975SOL    HW159579   8.754   4.830   3.994  1.7933  0.8556 -1.6431
15975SOL    HW259580   8.891   4.750   4.034  0.2236 -0.3860  1.4654
15976SOL     OW59581   1.570   8.505   5.856  0.3348 -0.7673 -0.4037
15976SOL    HW159582   1.534   8.555   5.934  2.3278  0.8343 -0.4332
15976SOL    HW259583   1.505   8.436   5.826 -1.1447 -0.2838  1.6332
15977SOL     OW59584   8.617   8.550   6.985  0.0171  0.1756 -0.7344
15977SOL    HW159585   8.522   8.580   6.977  0.1238  0.6110 -0.3908
15977SOL    HW259586   8.677   8.611   6.934  0.2173  0.4682 -0.1637
15978SOL     OW59587   3.797   8.400   1.953 -0.2735 -0.0513 -0.2146
15978SOL    HW159588   3.735   8.332   1.913 -0.2748 -0.7917  0.9884
15978SOL    HW259589   3.747   8.453   2.022  0.1875 -0.0403  0.1099
15979SOL     OW59590   1.799   0.223   1.796 -0.6930  0.1593  0.5413
15979SOL    HW159591   1.803   0.172   1.710 -0.7016  1.4917 -0.2593
15979SOL    HW259592   1.892   0.231   1.833 -0.8159 -1.3219  1.2116
15980SOL     OW59593   7.701   0.522   1.532 -0.0472 -0.0983 -0.0409
15980SOL    HW159594   7.693   0.539   1.433  0.0882 -0.2640 -0.0804
15980SOL    HW259595   7.738   0.431   1.547  0.0329 -0.0320  0.1626
15981SOL     OW59596   1.618   1.997   1.172  0.3371  0.3937  0.6692
15981SOL    HW159597   1.535   1.995   1.116  0.1938 -0.7037  0.9113
15981SOL    HW259598   1.621   2.083   1.223 -1.2703 -0.0526  1.5675
15982SOL     OW59599   0.238   7.501   5.844  0.1028  0.0024  0.5793
15982SOL    HW159600   0.331   7.485   5.811 -0.2175 -0.1370 -0.2642
15982SOL    HW259601   0.173   7.487   5.770 -0.5832  0.2840  1.1160
15983SOL     OW59602   9.285   5.670   1.534  0.1066 -0.0402 -0.0361
15983SOL    HW159603   9.250   5.589   1.579 -1.0013  0.9513  0.9283
15983SOL    HW259604   9.287   5.747   1.598  2.4237  0.3765 -0.5564
15984SOL     OW59605   1.364   8.205   1.614 -0.1779  0.6502 -0.2086
15984SOL    HW159606   1.358   8.288   1.559  0.0761  0.4061 -0.6089
15984SOL    HW259607   1.310   8.133   1.571  0.8205  0.1698 -0.6710
15985SOL     OW59608   1.733   5.178   4.393  0.1618 -0.5858 -0.1056
15985SOL    HW159609   1.737   5.232   4.309 -1.6864  0.9820  0.7674
15985SOL    HW259610   1.820   5.187   4.441  0.1676  1.0307 -0.3659
15986SOL     OW59611   0.738   1.618   2.077 -0.4972 -0.2761 -0.0522
15986SOL    HW159612   0.800   1.691   2.106  0.5168 -0.6423 -1.2834
15986SOL    HW259613   0.788   1.533   2.068 -1.1115 -0.5213 -1.3110
15987SOL     OW59614   2.360   7.222   3.314  0.0999  0.1246 -0.1865
15987SOL    HW159615   2.305   7.261   3.387  1.6153 -0.1293  1.1070
15987SOL    HW259616   2.406   7.140   3.347 -1.0029 -1.3062 -2.1069
15988SOL     OW59617   8.701   3.676   6.561  0.1883  0.5961 -0.0050
15988SOL    HW159618   8.666   3.594   6.516  0.4189 -0.2763  1.3583
15988SOL    HW259619   8.723   3.745   6.492 -6.6017  2.2294 -0.9071
15989SOL     OW59620   9.235   0.978   3.967  0.6233  0.0755 -0.2168
15989SOL    HW159621   9.312   0.915   3.978  0.9078  0.7222  1.5876
15989SOL    HW259622   9.270   1.071   3.957  0.1648  0.0776 -1.9516
15990SOL     OW59623   0.787   6.194   2.101  0.0136 -0.8126 -0.8788
15990SOL    HW159624   0.715   6.125   2.109 -1.6154  0.7471 -1.6078
15990SOL    HW259625   0.808   6.231   2.192 -0.3844 -0.9939 -0.7124
15991SOL     OW59626   1.859   0.641   0.725 -0.1162  0.5558  0.7304
15991SOL    HW159627   1.840   0.715   0.660  1.7017 -0.6477 -1.2569
15991SOL    HW259628   1.946   0.659   0.770 -0.2072  0.1916  1.0530
15992SOL     OW59629   1.397   2.360   3.081  0.1782  0.1971  0.4242
15992SOL    HW159630   1.345   2.276   3.092 -0.2453  0.0871 -2.0999
15992SOL    HW259631   1.333   2.438   3.074  0.4137  0.2994 -0.6821
15993SOL     OW59632   9.409   7.696   1.921  0.1953 -0.4706  0.0898
15993SOL    HW159633   9.508   7.701   1.935  0.3610 -1.7097 -0.6253
15993SOL    HW259634   9.364   7.758   1.986  1.4481  0.3745  0.1720
15994SOL     OW59635   0.313   0.023   6.149 -0.8475  0.7980  0.3703
15994SOL    HW159636   0.363   0.025   6.236 -0.8874  1.7645  0.3749
15994SOL    HW259637   0.351  -0.049   6.090 -2.0842 -1.1720  1.9272
15995SOL     OW59638   4.800   0.508   7.601 -0.0205 -0.3305  0.0201
15995SOL    HW159639   4.712   0.460   7.594 -0.6338  0.7371  0.2999
15995SOL    HW259640   4.874   0.441   7.602 -0.7874 -1.2097 -0.9812
15996SOL     OW59641   8.246   2.654   2.750 -0.0133 -0.0285 -0.0086
15996SOL    HW159642   8.282   2.589   2.683  1.1837  0.3694  0.2449
15996SOL    HW259643   8.321   2.705   2.791 -0.8353  0.5292  0.8230
15997SOL     OW59644   3.283   6.188   7.598 -0.0282  0.2283  0.1088
15997SOL    HW159645   3.193   6.217   7.565 -0.1843 -2.2190 -1.7849
15997SOL    HW259646   3.345   6.267   7.601 -1.6551  1.5630 -0.4967
15998SOL     OW59647   9.061   0.826   3.084  0.0383 -0.4011  0.3499
15998SOL    HW159648   9.081   0.744   3.138 -0.6978 -0.6381  0.2572
15998SOL    HW259649   9.044   0.903   3.145 -1.2095 -0.7648  0.4609
15999SOL     OW59650   0.892   8.030   5.124 -0.6066  0.2982 -0.1885
15999SOL    HW159651   0.954   8.046   5.201 -0.0447  2.9928 -1.1462
15999SOL    HW259652   0.846   7.942   5.136  1.9056 -0.8382  1.5514
16000SOL     OW59653   4.384   6.508   1.385 -0.4713  1.0433 -0.5082
16000SOL    HW159654   4.387   6.425   1.439  0.1805  1.8362  0.6945
16000SOL    HW259655   4.448   6.575   1.422 -2.8513  3.0351  0.1417
16001SOL     OW59656   8.648   0.011   1.490  0.4097 -0.0984  0.2607
16001SOL    HW159657   8.630  -0.024   1.582 -3.0973  0.5421 -0.1433
16001SOL    HW259658   8.666  -0.066   1.429 -0.4361 -0.7525  0.8160
16002SOL     OW59659   0.443   3.930   1.914  0.7594  0.6911  0.1730
16002SOL    HW159660   0.382   3.940   1.993 -0.9953 -1.8713 -0.8241
16002SOL    HW259661   0.507   3.855   1.931  0.5410  0.3003 -0.7251
16003SOL     OW59662   7.194   8.995   3.651  0.3699 -0.4303 -0.6460
16003SOL    HW159663   7.200   9.072   3.588 -0.3504  0.1307 -0.0347
16003SOL    HW259664   7.278   8.991   3.707  0.0537  0.4092 -0.1090
16004SOL     OW59665   2.121   2.491   1.303 -0.0946 -0.4357  0.5484
16004SOL    HW159666   2.187   2.417   1.314  3.1734  2.0402 -1.4836
16004SOL    HW259667   2.065   2.474   1.222 -0.2110 -1.2587  0.7953
16005SOL     OW59668   9.066   6.959   0.198  0.2082 -0.0250 -0.1569
16005SOL    HW159669   9.095   6.975   0.292  0.2216 -1.6364  0.1318
16005SOL    HW259670   8.969   6.932   0.197  0.7290 -1.9387 -0.4060
16006SOL     OW59671   4.507   4.020   1.179  0.0109  0.0449 -0.2062
16006SOL    HW159672   4.422   3.971   1.160  0.4234 -1.4118  1.4682
16006SOL    HW259673   4.486   4.111   1.214 -0.8900 -0.2985  0.1759
16007SOL     OW59674   8.742   2.385   7.077 -0.0222 -0.5387  0.1857
16007SOL    HW159675   8.658   2.431   7.106 -0.5123 -1.6253  0.5549
16007SOL    HW259676   8.754   2.397   6.978 -0.1176  0.4090  0.2896
16008SOL     OW59677   4.786   0.387   3.886 -0.1357 -0.3391 -0.5149
16008SOL    HW159678   4.842   0.445   3.826 -0.8061 -0.2596 -1.0716
16008SOL    HW259679   4.692   0.386   3.852 -0.8599  0.9105  1.3734
16009SOL     OW59680   0.008   3.177   1.561 -0.1196 -0.2041 -0.2944
16009SOL    HW159681  -0.042   3.228   1.631  0.5505  0.4651 -0.2942
16009SOL    HW259682  -0.055   3.120   1.510 -1.0872  1.5007 -1.0575
16010SOL     OW59683   8.111   9.308   4.204  0.4938 -0.3928  0.3549
16010SOL    HW159684   8.136   9.326   4.299  0.4244 -0.9064  0.4695
16010SOL    HW259685   8.157   9.225   4.173  1.5776  0.4953 -0.4744
16011SOL     OW59686   9.255   3.258   2.469 -0.5093  0.1578  0.5029
16011SOL    HW159687   9.201   3.203   2.533  0.1553 -1.7671 -0.5556
16011SOL    HW259688   9.332   3.299   2.517 -0.4674 -0.6315  1.1280
16012SOL     OW59689   9.204   1.082   3.571  0.0066  0.2660 -0.2109
16012SOL    HW159690   9.273   1.011   3.557  0.9434  0.7678  1.7721
16012SOL    HW259691   9.223   1.132   3.656 -0.3901  3.1516 -1.7374
16013SOL     OW59692   3.300   3.952   7.470 -0.4735  0.0372 -0.1090
16013SOL    HW159693   3.279   3.940   7.567  1.1083 -0.6884  0.1671
16013SOL    HW259694   3.307   4.049   7.448  0.1844  0.1894  0.7488
16014SOL     OW59695   4.596   7.401   0.965 -0.4105  0.6155 -0.1719
16014SOL    HW159696   4.597   7.304   0.940  0.2167  0.5140  0.2346
16014SOL    HW259697   4.546   7.413   1.051  0.8507  0.4509  0.5863
16015SOL     OW59698   0.218   9.519   1.536  0.5110 -0.1749 -0.5386
16015SOL    HW159699   0.238   9.604   1.586  0.9184 -1.1081  0.9236
16015SOL    HW259700   0.131   9.481   1.568  1.8530 -1.9584  1.1212
16016SOL     OW59701   8.959   8.824   5.108  0.0239 -0.4162  0.0328
16016SOL    HW159702   9.043   8.822   5.054 -0.0819  0.2909 -0.1612
16016SOL    HW259703   8.906   8.905   5.083  0.5545  0.5880  2.0606
16017SOL     OW59704   2.624   6.331   3.872 -0.0068  0.0865  0.2759
16017SOL    HW159705   2.638   6.331   3.971  0.5500  0.7251  0.2002
16017SOL    HW259706   2.709   6.304   3.827  0.3091  1.6758 -0.1025
16018SOL     OW59707   8.188   4.052   8.035 -0.3167 -0.1009 -0.4883
16018SOL    HW159708   8.124   4.055   7.957 -1.4774 -1.6605  0.3841
16018SOL    HW259709   8.199   3.958   8.066 -0.0935  0.5283  1.4233
16019SOL     OW59710   1.535   3.411   0.995  0.1229  0.1036 -0.1132
16019SOL    HW159711   1.497   3.503   1.001  0.5426  0.1752  1.8663
16019SOL    HW259712   1.611   3.402   1.059 -0.1608 -1.7306 -0.0076
16020SOL     OW59713   3.391   3.798   6.910 -0.2622 -0.0454 -0.5126
16020SOL    HW159714   3.327   3.872   6.932  0.1648  0.4312 -0.8539
16020SOL    HW259715   3.347   3.710   6.924 -1.0849  0.2834 -1.0380
16021SOL     OW59716   4.292   9.846   0.549  0.0159  0.3190 -0.6419
16021SOL    HW159717   4.380   9.805   0.527 -0.1597 -0.0648 -0.6329
16021SOL    HW259718   4.243   9.870   0.465 -0.1834 -0.1414 -0.6614
16022SOL     OW59719   8.779   9.518   5.621  0.1947  0.1185  0.5667
16022SOL    HW159720   8.838   9.440   5.602 -0.1628 -0.0339  0.0639
16022SOL    HW259721   8.790   9.587   5.549  1.3489  1.0455  1.5888
16023SOL     OW59722   9.341   5.326   7.925 -0.2860  0.1028 -0.5716
16023SOL    HW159723   9.384   5.380   7.997  0.7263 -0.0205 -1.0709
16023SOL    HW259724   9.390   5.341   7.839 -0.6192 -0.8239 -0.9253
16024SOL     OW59725   9.430   4.583   6.722 -0.6618  0.6750  0.9518
16024SOL    HW159726   9.378   4.518   6.778  0.1442  0.1812  1.1407
16024SOL    HW259727   9.446   4.543   6.631  1.8176 -0.3861  1.8102
16025SOL     OW59728   3.024   9.544   1.723  0.3949 -0.1996  0.0330
16025SOL    HW159729   2.990   9.583   1.637  0.7972 -0.8596 -0.4377
16025SOL    HW259730   3.114   9.582   1.743 -0.9101  2.1356  1.6852
16026SOL     OW59731   1.483   7.677   5.465 -0.5214 -0.1976  0.7986
16026SOL    HW159732   1.564   7.626   5.437 -1.4746 -2.4850  2.0817
16026SOL    HW259733   1.502   7.775   5.461  2.0284 -0.6879  0.2798
16027SOL     OW59734   3.283   2.075   5.949  0.0551  0.1353 -0.1456
16027SOL    HW159735   3.374   2.052   5.913 -0.2721 -0.4078 -0.6351
16027SOL    HW259736   3.222   1.996   5.937 -0.6008  0.6527 -0.2179
16028SOL     OW59737   0.329   4.928   7.361 -0.1249  0.5669 -0.0464
16028SOL    HW159738   0.311   5.026   7.366  1.9915  0.9868 -0.3532
16028SOL    HW259739   0.391   4.909   7.286 -0.0901 -0.9583  0.3433
16029SOL     OW59740   6.626   1.159   5.010  0.1406  0.0016 -0.4090
16029SOL    HW159741   6.554   1.225   4.989  0.4808  0.3799 -0.3895
16029SOL    HW259742   6.587   1.067   5.013 -0.7566  0.4385  1.7669
16030SOL     OW59743   6.581   3.701   1.163  0.0288 -0.2517  0.8784
16030SOL    HW159744   6.640   3.767   1.116 -0.3009 -0.2079  0.5204
16030SOL    HW259745   6.553   3.738   1.251 -1.5546  0.8524 -0.0435
16031SOL     OW59746   9.109   0.841   2.815 -0.2905  0.1039 -0.2207
16031SOL    HW159747   9.094   0.876   2.908 -0.3620  1.6450 -0.8021
16031SOL    HW259748   9.136   0.916   2.755  0.7879 -1.0650 -1.2271
16032SOL     OW59749   5.013   9.315   1.481 -0.2357 -0.3883 -0.4918
16032SOL    HW159750   5.056   9.328   1.570  1.4442  2.0320 -1.6091
16032SOL    HW259751   5.069   9.254   1.425 -0.4007 -0.5381 -0.4961
16033SOL     OW59752   0.251   0.457   1.170  0.3839 -0.7755  0.0025
16033SOL    HW159753   0.287   0.406   1.248  1.3856  0.8954  0.6762
16033SOL    HW259754   0.247   0.397   1.090  0.7330 -2.1238  0.9782
16034SOL     OW59755   9.477   4.051   2.758 -0.3155 -0.0202  0.5317
16034SOL    HW159756   9.500   4.137   2.805 -0.5244  0.6744 -0.6259
16034SOL    HW259757   9.387   4.060   2.716 -0.5993 -1.0311  0.9131
16035SOL     OW59758   1.557   5.962   2.016 -0.2376 -0.0072 -0.2313
16035SOL    HW159759   1.523   5.903   2.089  1.5495 -2.4657 -1.2922
16035SOL    HW259760   1.649   5.993   2.038 -0.0246 -0.0546 -1.0170
16036SOL     OW59761   7.303   1.554   3.020 -0.2484 -0.3000 -0.6131
16036SOL    HW159762   7.308   1.598   2.930  1.6630 -2.0748 -1.4267
16036SOL    HW259763   7.306   1.624   3.091  0.7936  0.9996 -1.8956
16037SOL     OW59764   9.016   8.106   6.406  0.0082 -0.3980  0.0083
16037SOL    HW159765   9.001   8.041   6.481 -2.3504  0.4735  0.3472
16037SOL    HW259766   8.957   8.082   6.329  0.6984  0.1016 -0.6821
16038SOL     OW59767   1.213   8.622   7.683  0.5560  0.5568  0.2608
16038SOL    HW159768   1.164   8.540   7.652  0.9578  0.6165 -0.5399
16038SOL    HW259769   1.257   8.603   7.771 -1.1888  0.6063  1.1854
16039SOL     OW59770   0.137   9.046   0.153  0.4106 -0.2584 -0.2498
16039SOL    HW159771   0.040   9.055   0.131  0.6490  0.2422 -1.1322
16039SOL    HW259772   0.159   9.103   0.232  0.1487  0.1976 -0.5095
16040SOL     OW59773   9.161   3.513   1.885  0.1404  0.6434  0.7989
16040SOL    HW159774   9.192   3.431   1.934  0.7054 -0.5876 -1.5250
16040SOL    HW259775   9.224   3.532   1.810 -1.2599  1.8567 -0.0950
16041SOL     OW59776   7.452   3.647   2.421 -0.5757 -0.4085 -0.2842
16041SOL    HW159777   7.505   3.613   2.344 -0.3010  1.1208 -0.7954
16041SOL    HW259778   7.354   3.639   2.401 -0.5137  1.1804 -1.3766
16042SOL     OW59779   5.415   1.524   4.740 -0.3139 -0.0607  0.3947
16042SOL    HW159780   5.370   1.488   4.822 -0.0080 -0.3068  0.4531
16042SOL    HW259781   5.345   1.558   4.677 -0.5795 -0.3667  0.5209
16043SOL     OW59782   7.622   6.203   2.054  0.2931 -0.2909 -0.0853
16043SOL    HW159783   7.656   6.124   2.104  2.3060  0.4483 -0.2237
16043SOL    HW259784   7.525   6.216   2.073  0.2263 -2.0843  0.8547
16044SOL     OW59785   0.207   6.871   4.331 -0.0853 -0.2999 -0.2516
16044SOL    HW159786   0.138   6.823   4.385  2.0567 -1.6598  1.3297
16044SOL    HW259787   0.197   6.845   4.235 -1.0553 -1.3699  0.1243
16045SOL     OW59788   7.206   5.515   6.378 -0.4853  0.4102  0.4853
16045SOL    HW159789   7.261   5.513   6.462 -1.4749  0.2065  1.1441
16045SOL    HW259790   7.241   5.586   6.317 -0.6029  1.5072  1.6622
16046SOL     OW59791   0.540   9.229   4.001  0.7411 -0.4086 -1.0221
16046SOL    HW159792   0.640   9.227   3.997  0.7869  1.2148 -1.2348
16046SOL    HW259793   0.505   9.278   3.921 -0.2548 -1.4328 -1.2224
16047SOL     OW59794   1.596   0.103   6.037 -0.9378  0.9150  0.3087
16047SOL    HW159795   1.577   0.163   6.115 -0.3253 -0.1045  1.2512
16047SOL    HW259796   1.691   0.113   6.010 -1.1780  1.3493 -0.3904
16048SOL     OW59797   3.561   6.036   3.513  0.1731  0.5642 -0.6478
16048SOL    HW159798   3.470   6.000   3.491  0.4109 -1.1677  1.0771
16048SOL    HW259799   3.558   6.085   3.600  1.5085 -2.2611  1.0549
16049SOL     OW59800   2.374   6.877   7.778 -0.4073 -0.3274  0.2002
16049SOL    HW159801   2.435   6.949   7.746 -1.5619  0.2813 -0.6776
16049SOL    HW259802   2.401   6.849   7.871  1.1371 -0.0243 -0.1408
16050SOL     OW59803   4.048   3.539   8.010 -0.1149  0.1547 -0.5687
16050SOL    HW159804   4.101   3.569   7.930  1.1179  0.3709  0.3097
16050SOL    HW259805   4.109   3.531   8.089 -0.7566 -2.9581 -0.3548
16051SOL     OW59806   9.177   0.033   6.840  0.2469 -0.3039 -0.0484
16051SOL    HW159807   9.153   0.092   6.763 -0.1935  0.0233  0.3417
16051SOL    HW259808   9.246   0.078   6.896  1.5501 -1.0996 -0.9789
16052SOL     OW59809   1.962   3.359   4.986 -0.3832 -0.1304 -0.2163
16052SOL    HW159810   2.046   3.365   4.933  0.0615  0.2561  0.5325
16052SOL    HW259811   1.983   3.346   5.083 -1.1985 -1.3719 -0.1884
16053SOL     OW59812   6.647   0.378   1.965 -0.4646  0.0991 -0.2619
16053SOL    HW159813   6.557   0.349   1.998 -0.4948 -0.1678 -0.5795
16053SOL    HW259814   6.656   0.355   1.868 -0.2573  0.6073 -0.3637
16054SOL     OW59815   7.250   5.460   0.876 -0.5503 -0.1152 -0.2260
16054SOL    HW159816   7.325   5.481   0.938 -0.6850 -0.3328  0.0133
16054SOL    HW259817   7.285   5.412   0.795 -0.5417 -0.9877  0.2871
16055SOL     OW59818   9.394   1.693   6.624 -0.7103  0.2293  0.4226
16055SOL    HW159819   9.361   1.656   6.537  0.2269  0.7187 -0.1562
16055SOL    HW259820   9.331   1.763   6.657  0.3668  2.0826 -1.3306
16056SOL     OW59821   4.275   9.051   8.051 -1.0690 -1.0318  0.4049
16056SOL    HW159822   4.205   9.117   8.024  0.3841  0.4823  0.2116
16056SOL    HW259823   4.271   9.037   8.150 -2.2168 -1.6417  0.2773
16057SOL     OW59824   6.978   5.269   1.569 -0.4927 -0.1568 -0.3898
16057SOL    HW159825   7.057   5.225   1.612  0.2252  1.2320 -0.2596
16057SOL    HW259826   7.000   5.291   1.474 -0.7188  0.2412 -0.3505
16058SOL     OW59827   2.867   7.395   1.853 -0.6195 -0.1013 -0.2186
16058SOL    HW159828   2.888   7.387   1.756 -1.5273  3.9057 -0.8175
16058SOL    HW259829   2.943   7.358   1.907  0.8040 -0.4727 -2.4284
16059SOL     OW59830   9.037   7.776   4.195  0.8778  0.2664 -0.0037
16059SOL    HW159831   8.957   7.775   4.135  1.9082  0.8822 -1.4352
16059SOL    HW259832   9.057   7.870   4.222  1.3083  0.1567  0.0702
16060SOL     OW59833   6.808   7.651   5.425  0.4625 -0.6628  0.3610
16060SOL    HW159834   6.877   7.723   5.425  0.3750 -0.5501 -1.9118
16060SOL    HW259835   6.847   7.568   5.464  1.9794 -0.6667 -1.1067
16061SOL     OW59836   1.640   9.329   7.960 -0.6358  0.1237 -0.2026
16061SOL    HW159837   1.608   9.267   8.031  0.3102 -1.4442 -1.1135
16061SOL    HW259838   1.606   9.299   7.871 -0.5786  1.2003 -0.6005
16062SOL     OW59839   5.057   8.780   2.566 -0.3012  0.3884  0.4163
16062SOL    HW159840   5.018   8.693   2.536 -0.4689  0.5448  0.1739
16062SOL    HW259841   5.001   8.855   2.531  0.0310  0.6033  0.3444
16063SOL     OW59842   4.013   3.231   7.493  0.2958 -0.3795  0.2434
16063SOL    HW159843   4.046   3.180   7.572 -0.6671 -0.7040  0.4344
16063SOL    HW259844   3.933   3.286   7.519 -0.3261 -0.8630 -0.6155
16064SOL     OW59845   3.851   4.606   5.686  0.1734 -0.0883  0.1657
16064SOL    HW159846   3.783   4.654   5.630  0.5601  0.6703  0.3584
16064SOL    HW259847   3.804   4.542   5.747 -0.3991  0.6609  0.5194
16065SOL     OW59848   4.184   7.739   1.498 -0.2241  0.0396 -0.3526
16065SOL    HW159849   4.154   7.706   1.408 -0.1679  0.7582 -0.6367
16065SOL    HW259850   4.134   7.689   1.569 -1.1036  0.2663 -0.7990
16066SOL     OW59851   1.795   7.277   2.421  0.3969  0.1930 -0.6188
16066SOL    HW159852   1.820   7.256   2.516 -0.2101  2.1190 -0.0018
16066SOL    HW259853   1.875   7.315   2.374  0.1577  1.1842 -0.2505
16067SOL     OW59854   0.136   1.732   1.661 -0.9056 -0.0537  0.0169
16067SOL    HW159855   0.050   1.761   1.618 -0.7214 -0.4493 -0.6223
16067SOL    HW259856   0.115   1.684   1.746 -1.4082 -1.5868 -0.9586
16068SOL     OW59857   1.765   6.447   6.605 -0.2546  0.3428 -0.2395
16068SOL    HW159858   1.735   6.354   6.581  0.5696  0.0136 -0.0129
16068SOL    HW259859   1.775   6.454   6.704  0.1702  0.5176 -0.2928
16069SOL     OW59860   2.729   2.603   0.139 -0.1681  0.3115 -0.0960
16069SOL    HW159861   2.820   2.607   0.097 -0.2398  2.1610 -0.1281
16069SOL    HW259862   2.688   2.513   0.123  1.4697 -0.3831 -0.4647
16070SOL     OW59863   8.976   2.612   4.942 -0.3484 -0.0574 -0.3736
16070SOL    HW159864   9.068   2.575   4.956 -0.3873  0.3903  1.2051
16070SOL    HW259865   8.980   2.690   4.880  0.7137  1.4443  1.4994
16071SOL     OW59866   4.658   9.929   7.413 -0.9176  0.1280 -0.3923
16071SOL    HW159867   4.724  10.000   7.390  0.2337 -1.4815 -2.2091
16071SOL    HW259868   4.663   9.909   7.511 -0.7264  1.9743  0.0013
16072SOL     OW59869   9.847   6.161   2.426 -0.0100 -0.4957 -0.3229
16072SOL    HW159870   9.923   6.223   2.404  0.0188  0.3854  2.0871
16072SOL    HW259871   9.836   6.094   2.353  4.5686 -2.0917  0.2883
16073SOL     OW59872   2.264   1.076   0.303 -0.6110  0.3066 -0.3518
16073SOL    HW159873   2.210   1.126   0.234  0.5573  1.5913 -0.3555
16073SOL    HW259874   2.361   1.086   0.283 -0.1878  1.8122  2.2274
16074SOL     OW59875   2.698   9.794   6.704  0.7963  0.0503 -0.8171
16074SOL    HW159876   2.747   9.867   6.657 -0.8799  1.2747 -0.7060
16074SOL    HW259877   2.602   9.797   6.679 -0.4397  1.5870  3.5668
16075SOL     OW59878   9.022   4.889   0.335 -0.2975 -0.3933  0.3388
16075SOL    HW159879   8.974   4.942   0.264  0.2479 -0.3505 -0.0006
16075SOL    HW259880   8.957   4.862   0.406 -0.6731  0.3439  0.2790
16076SOL     OW59881   0.639   3.135   3.240  0.4757 -0.0029  0.0925
16076SOL    HW159882   0.616   3.041   3.265 -2.0693  0.9254  1.3577
16076SOL    HW259883   0.689   3.178   3.316 -1.1794  0.6578  0.8158
16077SOL     OW59884   2.831   1.706   2.982  0.4090 -0.7907 -0.1636
16077SOL    HW159885   2.784   1.789   3.011  2.3277  0.3647 -0.2363
16077SOL    HW259886   2.765   1.631   2.974 -0.8725 -0.0700  2.8831
16078SOL     OW59887   5.744   2.136   4.022  0.1185 -0.2809  0.1975
16078SOL    HW159888   5.755   2.055   4.079 -0.8020  0.6662  1.7553
16078SOL    HW259889   5.647   2.146   3.997 -0.2353  1.7473  2.2084
16079SOL     OW59890   4.710   1.813   5.640  0.1241  0.4077  0.5030
16079SOL    HW159891   4.793   1.757   5.639 -0.8375 -1.0449  0.2183
16079SOL    HW259892   4.666   1.806   5.729 -0.8901 -0.6571 -0.0627
16080SOL     OW59893   5.086   8.504   7.659  0.4235 -0.2873  0.4125
16080SOL    HW159894   5.120   8.489   7.752  1.2846 -1.6517 -0.1066
16080SOL    HW259895   4.988   8.482   7.656  0.0530  1.1427  1.3111
16081SOL     OW59896   9.567   7.112   7.126  0.4752 -0.4983  0.1559
16081SOL    HW159897   9.572   7.211   7.117  1.4756 -0.2804  2.6362
16081SOL    HW259898   9.477   7.086   7.162  0.2436 -0.4854 -0.4115
16082SOL     OW59899   0.443   2.452   2.162  0.0928 -0.1721  0.6930
16082SOL    HW159900   0.469   2.460   2.066 -0.4221  0.3874  0.5964
16082SOL    HW259901   0.516   2.405   2.212 -0.1324 -1.4751 -0.1718
16083SOL     OW59902   1.257   5.544   1.195  0.2867  0.0596 -0.1027
16083SOL    HW159903   1.255   5.592   1.283  0.1880 -2.5659  1.3737
16083SOL    HW259904   1.345   5.499   1.184  0.1631  0.0768 -1.1882
16084SOL     OW59905   1.878   8.043   1.145  0.2518 -0.0141 -0.1871
16084SOL    HW159906   1.780   8.027   1.140  0.1495  0.3213  0.6254
16084SOL    HW259907   1.916   8.053   1.053 -0.5580  0.3655 -0.4803
16085SOL     OW59908   1.771   2.080   3.318  0.1476 -0.3277 -0.0430
16085SOL    HW159909   1.838   2.048   3.385  1.1977  0.4134 -0.7332
16085SOL    HW259910   1.703   2.137   3.365  0.8690  0.1779  0.4015
16086SOL     OW59911   8.192   0.001   7.084 -0.6420 -0.3196 -0.3342
16086SOL    HW159912   8.127   0.025   7.156 -0.9940 -1.2286 -0.3437
16086SOL    HW259913   8.206   0.080   7.024  0.4809  0.7929  1.3425
16087SOL     OW59914   3.277   6.257   4.398 -0.2839 -0.2904 -0.3835
16087SOL    HW159915   3.211   6.187   4.424 -0.3883 -0.3176 -0.7174
16087SOL    HW259916   3.349   6.262   4.467 -1.1022  0.3491  0.4235
16088SOL     OW59917   9.314   6.505   3.079  0.2979  0.6426 -0.3440
16088SOL    HW159918   9.385   6.447   3.040 -1.3281 -0.4462 -1.7908
16088SOL    HW259919   9.355   6.578   3.133  2.4792 -0.1358 -0.9270
16089SOL     OW59920   2.320   8.393   2.694  0.6937  0.1560  0.3449
16089SOL    HW159921   2.236   8.348   2.663  1.2458 -0.1765 -0.6971
16089SOL    HW259922   2.396   8.365   2.635  0.9267  2.9841 -0.7531
16090SOL     OW59923   1.367   2.707   3.324  0.3428  0.0891  0.6503
16090SOL    HW159924   1.439   2.705   3.394 -0.2342  1.2212  1.2976
16090SOL    HW259925   1.326   2.798   3.321 -0.2707 -0.2157 -0.5297
16091SOL     OW59926   6.685   0.860   4.225  0.4210 -0.3869  0.0493
16091SOL    HW159927   6.677   0.851   4.324  1.4924  0.8536  0.2578
16091SOL    HW259928   6.615   0.923   4.192  0.6085 -0.1451  0.1178
16092SOL     OW59929   2.109   6.739   6.072  0.1238 -0.0896  0.1991
16092SOL    HW159930   2.158   6.732   6.159 -0.6986 -0.0582  0.6677
16092SOL    HW259931   2.082   6.833   6.057 -0.5539 -0.2602  0.3584
16093SOL     OW59932   1.579   6.344   5.917 -0.2413  0.2387 -0.3720
16093SOL    HW159933   1.614   6.251   5.911  0.8647  0.7372 -2.0308
16093SOL    HW259934   1.481   6.344   5.900 -0.1118 -0.5239 -1.1218
16094SOL     OW59935   0.446   2.146   1.865 -0.1146  0.0386 -0.1817
16094SOL    HW159936   0.359   2.190   1.889 -0.3162 -0.0444 -0.7388
16094SOL    HW259937   0.467   2.075   1.931  0.7671  1.7080  1.3589
16095SOL     OW59938   7.702   7.667   4.773  0.0242 -0.1123 -0.4428
16095SOL    HW159939   7.603   7.677   4.784 -0.0992  0.3816 -1.8769
16095SOL    HW259940   7.745   7.665   4.863 -1.3277 -0.8249  0.2153
16096SOL     OW59941   0.153   2.562   7.596  1.0470 -0.1401  0.3265
16096SOL    HW159942   0.125   2.467   7.588  0.1750  0.0732  0.7621
16096SOL    HW259943   0.077   2.622   7.571  1.8295  0.4441 -0.6974
16097SOL     OW59944   0.456   9.463   4.627 -0.5554 -0.4739  0.2412
16097SOL    HW159945   0.408   9.539   4.673 -0.6757 -2.0682  2.8837
16097SOL    HW259946   0.390   9.390   4.606  0.1354 -1.3011  0.9016
16098SOL     OW59947   3.018   2.592   7.709 -0.1202  0.1874  1.0159
16098SOL    HW159948   2.984   2.504   7.741  2.5164 -2.2039 -2.3237
16098SOL    HW259949   2.966   2.621   7.628 -0.1233  1.0103  1.3095
16099SOL     OW59950   2.066   7.603   3.690 -0.0482 -0.4238  0.0254
16099SOL    HW159951   2.027   7.559   3.609  1.4067  0.8605 -1.4109
16099SOL    HW259952   2.162   7.575   3.699 -0.3507 -0.9649  1.6081
16100SOL     OW59953   6.868   1.251   7.762 -0.3769 -0.2174  0.1632
16100SOL    HW159954   6.950   1.208   7.724  1.0964  1.3597  1.4905
16100SOL    HW259955   6.813   1.182   7.809  0.2351 -1.2783 -0.6588
16101SOL     OW59956   1.678   5.570   7.313  0.4870 -0.2283  0.0753
16101SOL    HW159957   1.603   5.614   7.263  0.1057  1.0544  1.6951
16101SOL    HW259958   1.761   5.624   7.302  0.1493  0.6562  1.6273
16102SOL     OW59959   1.160   5.618   0.435 -0.7125 -0.3556  0.4089
16102SOL    HW159960   1.152   5.523   0.404 -0.6987 -0.2482  0.0709
16102SOL    HW259961   1.086   5.672   0.396  0.8236  0.3467 -1.6113
16103SOL     OW59962   1.991   1.745   7.085 -0.1011 -0.2142  0.0648
16103SOL    HW159963   1.894   1.749   7.060  0.0838 -1.1130 -0.8497
16103SOL    HW259964   2.041   1.693   7.015  0.4046 -3.0440  2.4204
16104SOL     OW59965   1.972   0.373   1.454  0.2296  0.3786 -0.3972
16104SOL    HW159966   2.025   0.287   1.457 -0.5691 -0.1707 -1.8455
16104SOL    HW259967   2.030   0.448   1.486  1.6699 -0.3379 -1.2533
16105SOL     OW59968   9.704   1.080   4.267  0.1903 -0.1960 -0.7033
16105SOL    HW159969   9.683   1.093   4.363 -0.7681 -1.4096 -0.7420
16105SOL    HW259970   9.666   1.156   4.214 -0.6971 -0.3581 -0.3111
16106SOL     OW59971   8.595   1.786   2.951 -0.1465 -0.1601  0.1779
16106SOL    HW159972   8.511   1.839   2.946 -1.7130 -2.2161  2.9293
16106SOL    HW259973   8.672   1.846   2.974 -1.4733  1.2402  1.0031
16107SOL     OW59974   5.926   2.991   0.070 -0.2333 -0.0935  0.1179
16107SOL    HW159975   5.839   3.040   0.069 -0.0006  0.2883 -1.7046
16107SOL    HW259976   5.908   2.893   0.082 -0.7661  0.2148  2.2216
16108SOL     OW59977   3.548   2.962   8.199 -0.4691 -0.2488 -0.1508
16108SOL    HW159978   3.633   2.976   8.149 -0.8529  2.0238 -0.2055
16108SOL    HW259979   3.568   2.959   8.297  0.0291 -2.7686 -0.2894
16109SOL     OW59980   1.346   8.914   3.656 -0.1339 -0.1216  0.0890
16109SOL    HW159981   1.307   8.983   3.717 -2.0156 -1.6684  0.6847
16109SOL    HW259982   1.275   8.880   3.594  1.1591 -0.3960 -1.2711
16110SOL     OW59983   4.060   5.325   7.626  0.1833  0.1229 -0.3725
16110SOL    HW159984   4.142   5.383   7.624  1.0612 -1.0778  0.3484
16110SOL    HW259985   3.979   5.383   7.643  1.0310  1.1473  0.2404
16111SOL     OW59986   9.282   8.624   4.236 -0.1639 -0.6441 -0.0231
16111SOL    HW159987   9.287   8.535   4.281 -0.0877  0.2050  1.6653
16111SOL    HW259988   9.258   8.611   4.139  0.7426 -2.5434 -0.0073
16112SOL     OW59989   5.468   8.563   3.016  0.2228 -0.3788 -0.6431
16112SOL    HW159990   5.440   8.528   2.927  0.5539 -1.1786 -0.4388
16112SOL    HW259991   5.520   8.493   3.065  0.1323  0.0918  0.1411
16113SOL     OW59992   7.291   5.987   1.555  0.0610 -0.4719  0.3068
16113SOL    HW159993   7.268   6.057   1.487 -2.8731  1.2478  2.9380
16113SOL    HW259994   7.361   6.023   1.617  1.1599 -1.2478 -0.4553
16114SOL     OW59995   0.595   7.895   5.626  0.3120 -0.7709  0.1761
16114SOL    HW159996   0.692   7.910   5.606  1.0266 -1.8175  2.6511
16114SOL    HW259997   0.540   7.942   5.558  2.5470  2.1807  0.2916
16115SOL     OW59998   2.836   1.772   6.996 -0.5331 -0.1159 -0.0716
16115SOL    HW159999   2.789   1.860   7.003 -3.1579 -1.2412 -2.5261
16115SOL    HW260000   2.834   1.727   7.085 -2.7696  0.5716  0.2668
16116SOL     OW60001   6.956   9.081   4.969 -0.3215 -0.1156 -0.7788
16116SOL    HW160002   6.874   9.046   5.015 -0.1087 -0.5273 -0.7134
16116SOL    HW260003   6.939   9.175   4.939 -0.2889  0.3435  0.5941
16117SOL     OW60004   5.975   8.226   4.587  0.1774  0.1414 -0.4266
16117SOL    HW160005   5.895   8.186   4.541 -1.2451  1.7790  0.5736
16117SOL    HW260006   6.029   8.153   4.629 -1.2968 -0.9186 -0.3171
16118SOL     OW60007   0.472   3.282   3.468 -0.5901 -0.1259 -0.5877
16118SOL    HW160008   0.412   3.347   3.515 -0.1640 -0.8266  0.9379
16118SOL    HW260009   0.541   3.332   3.416 -0.9141  0.6521 -0.2726
16119SOL     OW60010   9.312   8.917   7.839 -0.1076 -0.1366 -0.0648
16119SOL    HW160011   9.214   8.937   7.849 -0.0360  0.8171 -1.1561
16119SOL    HW260012   9.332   8.827   7.878 -1.7952 -1.2231 -1.6404
16120SOL     OW60013   4.285   0.589   0.715  0.0615 -0.1831 -0.2708
16120SOL    HW160014   4.219   0.592   0.791  1.8218 -0.7260  1.3342
16120SOL    HW260015   4.297   0.495   0.686 -0.5496  0.0196 -1.1919
16121SOL     OW60016   6.916   6.774   4.475 -0.5099 -0.5680 -0.3420
16121SOL    HW160017   6.933   6.739   4.567  0.4626 -0.5396 -0.5057
16121SOL    HW260018   6.825   6.815   4.471 -0.2529  0.1291  0.8185
16122SOL     OW60019   9.204   8.811   5.859 -0.2012 -0.7027 -0.5229
16122SOL    HW160020   9.262   8.892   5.846 -0.9843  0.2174  1.4360
16122SOL    HW260021   9.261   8.730   5.868  0.8358  0.2558  1.8987
16123SOL     OW60022   0.322   7.728   2.829  0.2479  0.0683 -0.0343
16123SOL    HW160023   0.341   7.809   2.773 -2.3081  0.3088 -0.6164
16123SOL    HW260024   0.383   7.727   2.908  2.8414  0.5860 -1.9258
16124SOL     OW60025   7.237   0.607   1.504  0.4351 -0.5293 -0.0362
16124SOL    HW160026   7.266   0.528   1.558  2.9331  0.9141  0.8562
16124SOL    HW260027   7.207   0.680   1.566  0.8695  0.2346 -0.7133
16125SOL     OW60028   9.520   8.747   3.191  0.3464 -0.5022 -0.5940
16125SOL    HW160029   9.449   8.677   3.192  0.6218 -0.7863 -0.7729
16125SOL    HW260030   9.541   8.773   3.097 -0.6543  0.7483 -0.4830
16126SOL     OW60031   6.551   1.112   3.194  0.0301 -0.1678 -0.1617
16126SOL    HW160032   6.514   1.205   3.187 -0.8673 -0.6519 -2.3172
16126SOL    HW260033   6.525   1.073   3.282 -1.3669  0.8784 -0.0871
16127SOL     OW60034   4.719   2.153   5.574  0.3576 -0.1581  0.0083
16127SOL    HW160035   4.716   2.097   5.491 -1.1833 -0.3543  0.1809
16127SOL    HW260036   4.690   2.099   5.652 -1.5182  0.9376  0.1181
16128SOL     OW60037   8.207   7.200   0.783  0.4051 -0.1130  0.1768
16128SOL    HW160038   8.270   7.132   0.747 -0.3394  0.0193 -1.4124
16128SOL    HW260039   8.211   7.282   0.726 -2.6560 -0.8490 -1.1718
16129SOL     OW60040   5.888   1.447   2.965 -0.8284  0.0972  0.0544
16129SOL    HW160041   5.910   1.515   2.895  0.7518 -1.1702 -0.6819
16129SOL    HW260042   5.853   1.364   2.922  0.2235 -0.7165  0.7643
16130SOL     OW60043   0.981   6.055   0.036 -0.4300 -0.3205  0.2136
16130SOL    HW160044   1.033   6.130  -0.006  0.5628 -0.2215  1.6148
16130SOL    HW260045   1.044   5.984   0.068 -1.2145 -0.6252  1.1054
16131SOL     OW60046   3.486   2.650   1.140  0.7080 -0.1696 -0.3388
16131SOL    HW160047   3.517   2.716   1.072 -1.3511  0.1731 -0.9912
16131SOL    HW260048   3.429   2.697   1.208  0.7098 -0.9596  0.2099
16132SOL     OW60049   1.129   8.763   3.489  0.6410 -0.2303  0.4670
16132SOL    HW160050   1.194   8.709   3.435  1.8859  0.6870  1.0093
16132SOL    HW260051   1.062   8.806   3.428  1.8751  0.5792 -0.3559
16133SOL     OW60052   3.301   4.508   4.702 -0.4121 -0.0244  0.2044
16133SOL    HW160053   3.358   4.580   4.741 -0.4892  0.3436 -0.3622
16133SOL    HW260054   3.355   4.424   4.692 -0.0097  0.2817 -0.1943
16134SOL     OW60055   2.196   9.330   5.863 -0.8911 -0.1186  0.1222
16134SOL    HW160056   2.182   9.302   5.769 -1.9936 -0.5869  0.4135
16134SOL    HW260057   2.135   9.278   5.923 -0.2507  0.2204  1.0817
16135SOL     OW60058   2.431   3.743   7.954  0.3534 -0.2088  0.0762
16135SOL    HW160059   2.353   3.773   7.899  0.0268  0.1074  0.7013
16135SOL    HW260060   2.431   3.792   8.041  1.1649 -0.3227  0.1418
16136SOL     OW60061   1.948   9.924   5.119  0.1088 -0.7639 -0.2375
16136SOL    HW160062   2.037   9.891   5.153  1.2965  2.9084  0.3584
16136SOL    HW260063   1.960   9.962   5.028 -0.6559  0.6976  0.2694
16137SOL     OW60064   2.496   4.770   5.405  0.4485 -0.2737  0.1289
16137SOL    HW160065   2.528   4.785   5.499  0.2285  0.4282  0.0893
16137SOL    HW260066   2.420   4.832   5.385  0.9983  0.1095 -0.7778
16138SOL     OW60067   1.059   2.470   2.441  0.1762  0.3327 -0.1290
16138SOL    HW160068   1.110   2.461   2.527  1.4685 -1.0014 -0.9924
16138SOL    HW260069   0.992   2.396   2.434 -1.1427  1.4576  0.5127
16139SOL     OW60070   3.856   7.667   1.257 -0.3397 -0.5246  0.0880
16139SOL    HW160071   3.854   7.595   1.326 -2.5095  0.3937  1.0265
16139SOL    HW260072   3.810   7.636   1.174  0.0370 -0.7285 -0.0473
16140SOL     OW60073   9.975   0.990   3.421  0.2426  0.5945  0.7308
16140SOL    HW160074   9.893   1.047   3.418 -0.1549 -0.0357 -1.2055
16140SOL    HW260075   9.950   0.897   3.448  0.1580  0.1701 -0.7615
16141SOL     OW60076   5.302   1.746   6.096  0.3050 -0.1793 -0.4303
16141SOL    HW160077   5.368   1.730   6.024 -0.3137  0.1422 -1.0731
16141SOL    HW260078   5.345   1.731   6.185  1.4817  0.9160 -0.8081
16142SOL     OW60079   7.420   1.280   1.068  0.0860  0.2692 -0.6742
16142SOL    HW160080   7.476   1.322   0.997 -1.0141  1.7540 -0.6909
16142SOL    HW260081   7.425   1.334   1.151  1.5577 -1.5896  0.4967
16143SOL     OW60082   3.325   4.071   1.144  0.2483 -0.5378  0.1721
16143SOL    HW160083   3.317   4.146   1.079 -0.1351  0.3214  1.1805
16143SOL    HW260084   3.391   4.096   1.215 -1.7048 -0.0741  1.9056
16144SOL     OW60085   8.815   4.049   0.801  0.5812  0.7102 -0.3638
16144SOL    HW160086   8.770   3.964   0.773  0.6665  1.5094 -3.0106
16144SOL    HW260087   8.913   4.043   0.782  0.4362  1.7677 -1.5031
16145SOL     OW60088   1.416   5.881   2.677 -0.0338 -0.2789 -0.8623
16145SOL    HW160089   1.352   5.884   2.601 -0.7415 -0.4521 -0.2762
16145SOL    HW260090   1.462   5.970   2.685 -0.7803  0.1081 -0.7947
16146SOL     OW60091   0.424   8.964   5.166  0.1781  0.0695 -0.4956
16146SOL    HW160092   0.495   8.979   5.235  1.1636 -0.9490 -1.2587
16146SOL    HW260093   0.393   9.052   5.130  0.2887  0.5690  0.5982
16147SOL     OW60094   1.446   9.598   1.513  0.3858 -0.0787 -0.2362
16147SOL    HW160095   1.393   9.652   1.578  0.4621 -0.8917  0.5095
16147SOL    HW260096   1.423   9.501   1.523  0.7808 -0.2656 -1.0611
16148SOL     OW60097   0.021   0.313   7.608 -0.1542  0.3699  0.5975
16148SOL    HW160098  -0.017   0.322   7.517 -0.2428  0.0059  0.5959
16148SOL    HW260099  -0.013   0.386   7.667  0.0679  0.7240  0.2818
16149SOL     OW60100   7.830   0.552   5.282  0.4496  0.4227 -0.3077
16149SOL    HW160101   7.870   0.619   5.344 -1.3083  0.0792  1.2432
16149SOL    HW260102   7.807   0.596   5.195  0.2336  1.5958  0.3339
16150SOL     OW60103   8.333   7.829   3.167  0.2182  0.0880 -0.2678
16150SOL    HW160104   8.400   7.757   3.147  1.0746  0.8869 -0.2808
16150SOL    HW260105   8.380   7.912   3.196 -0.8843 -0.4113  3.2559
16151SOL     OW60106   3.943   3.859   4.333  0.5735  0.4135 -0.2302
16151SOL    HW160107   3.908   3.781   4.280  1.8996 -0.2638 -0.1237
16151SOL    HW260108   3.914   3.849   4.428  0.5933  0.1327 -0.2523
16152SOL     OW60109   9.692   2.016   3.293 -0.2601 -0.6894 -0.0015
16152SOL    HW160110   9.604   2.018   3.340  0.1290  0.3601  0.7000
16152SOL    HW260111   9.766   2.002   3.359  0.4413  2.6043 -0.0177
16153SOL     OW60112   8.324   0.292   5.882  0.2649  0.1606 -0.2294
16153SOL    HW160113   8.358   0.278   5.974  0.2066 -1.7324 -0.4782
16153SOL    HW260114   8.276   0.210   5.851  0.9884  0.4687 -2.2477
16154SOL     OW60115   4.681   0.710   3.302  0.3050 -0.1138 -0.3926
16154SOL    HW160116   4.595   0.711   3.252  0.2906  0.4818 -0.3614
16154SOL    HW260117   4.744   0.645   3.259  0.1066  0.0116 -0.8706
16155SOL     OW60118   8.940   7.131   1.059 -0.6285 -0.4348 -0.3830
16155SOL    HW160119   8.908   7.169   1.146  0.4248 -0.6787  0.1093
16155SOL    HW260120   8.904   7.038   1.048 -1.2046 -0.2055 -0.4667
16156SOL     OW60121   3.608   7.467   2.177  0.0990 -0.0769 -0.0797
16156SOL    HW160122   3.607   7.548   2.236 -0.1217 -0.9320  1.1064
16156SOL    HW260123   3.515   7.441   2.154  0.1395 -0.4504  0.1766
16157SOL     OW60124   0.019   1.641   0.968 -0.9703  0.2409 -0.0775
16157SOL    HW160125   0.116   1.619   0.976 -1.1661 -0.3814  0.6738
16157SOL    HW260126   0.000   1.725   1.019 -0.7720  0.5201 -0.4642
16158SOL     OW60127   2.996   8.967   2.805 -0.4652 -0.9229  0.0726
16158SOL    HW160128   3.025   8.930   2.716 -1.3390 -0.0983 -0.5703
16158SOL    HW260129   3.065   8.945   2.874  0.5971 -0.9166 -0.9635
16159SOL     OW60130   8.223   5.208   4.426 -0.1023 -0.0780 -0.0048
16159SOL    HW160131   8.265   5.187   4.338  1.7428  0.5237  0.7236
16159SOL    HW260132   8.148   5.272   4.412 -0.0457 -0.2558 -1.1745
16160SOL     OW60133   2.362   4.783   4.076 -0.1388  0.2533 -0.1474
16160SOL    HW160134   2.273   4.778   4.122 -0.1264  0.0365 -0.1464
16160SOL    HW260135   2.388   4.879   4.064  0.0645  0.3036  0.6873
16161SOL     OW60136   8.470   2.869   1.102  0.1156 -0.1442  0.3429
16161SOL    HW160137   8.516   2.789   1.144  1.5688 -0.1348 -1.1794
16161SOL    HW260138   8.427   2.923   1.174 -0.8029 -2.2276  1.4302
16162SOL     OW60139   5.113   7.722   3.260 -0.2538 -0.2011  0.0177
16162SOL    HW160140   5.118   7.813   3.300  0.7514 -0.6584  0.9763
16162SOL    HW260141   5.100   7.654   3.333 -1.1952 -0.8125 -0.7013
16163SOL     OW60142   1.446   9.444   3.420  0.0427  0.0736 -0.2851
16163SOL    HW160143   1.432   9.406   3.329  2.0011 -0.9321 -0.1848
16163SOL    HW260144   1.537   9.419   3.453 -0.5097  0.7400  1.7965
16164SOL     OW60145   7.346   3.467   7.942 -0.2411 -0.7280 -0.2046
16164SOL    HW160146   7.339   3.487   8.039 -0.4456 -0.9563 -0.1733
16164SOL    HW260147   7.384   3.376   7.929 -1.0437 -1.0424 -0.3300
16165SOL     OW60148   9.624   9.698   4.338 -0.0411 -0.5707  0.5444
16165SOL    HW160149   9.706   9.678   4.393  0.0103 -1.6356  0.1061
16165SOL    HW260150   9.637   9.782   4.287  0.6042 -0.4898  0.8393
16166SOL     OW60151   3.631   0.132   7.904  0.3537 -0.4293 -0.0976
16166SOL    HW160152   3.569   0.160   7.977  1.2821 -0.2988  0.6652
16166SOL    HW260153   3.579   0.105   7.824 -0.6538  0.3637  0.2795
16167SOL     OW60154   1.862   0.368   0.450 -0.5843 -0.6978  0.2869
16167SOL    HW160155   1.860   0.397   0.354 -1.4046 -0.0305  0.5011
16167SOL    HW260156   1.951   0.327   0.470  0.1181  0.4545 -0.3853
16168SOL     OW60157   9.853   5.148   3.484  0.1242  0.1449  0.3958
16168SOL    HW160158   9.807   5.206   3.417 -1.2748 -1.9074 -0.4757
16168SOL    HW260159   9.813   5.162   3.574  1.8443  2.7305  0.8080
16169SOL     OW60160   8.443   4.213   0.110  0.2558 -0.6310  0.1186
16169SOL    HW160161   8.381   4.196   0.187  1.8542 -2.0370  1.1343
16169SOL    HW260162   8.406   4.286   0.053 -1.9455 -0.9180  1.1222
16170SOL     OW60163   4.826   2.103   1.216  0.2591  0.4027 -0.3470
16170SOL    HW160164   4.764   2.144   1.283 -0.1817  0.1186 -0.5810
16170SOL    HW260165   4.777   2.088   1.130  0.8398  0.8329 -0.7579
16171SOL     OW60166   7.232   0.550   1.060  0.2740  0.0406 -0.6424
16171SOL    HW160167   7.175   0.626   1.090 -0.4055 -0.5472 -0.4305
16171SOL    HW260168   7.300   0.531   1.130  0.7165  0.7213 -0.8808
16172SOL     OW60169   2.166   6.343   6.267 -0.9366  0.2080 -0.2401
16172SOL    HW160170   2.093   6.366   6.332  1.5623  3.2517  1.6239
16172SOL    HW260171   2.192   6.426   6.216  1.8365 -0.5843 -0.1924
16173SOL     OW60172   0.993   8.067   7.982 -0.2520  0.2423  0.0042
16173SOL    HW160173   0.996   7.969   7.962  0.3847  0.4126 -0.7400
16173SOL    HW260174   0.950   8.116   7.906 -0.6783  0.5273  0.4248
16174SOL     OW60175   0.867   7.459   3.475 -0.6368  0.0182  0.1726
16174SOL    HW160176   0.845   7.444   3.571 -1.2689 -0.0494  0.0207
16174SOL    HW260177   0.920   7.543   3.465  1.0162 -0.9242  0.7800
16175SOL     OW60178   3.278   2.617   6.529 -0.5336 -0.3565 -0.0520
16175SOL    HW160179   3.267   2.522   6.555 -2.0799 -0.2686 -0.3125
16175SOL    HW260180   3.208   2.673   6.575  0.6385  0.7237  0.4616
16176SOL     OW60181   7.684   5.948   1.608 -0.5846 -0.3771 -0.9830
16176SOL    HW160182   7.715   6.013   1.538  2.7581 -1.5682 -0.7031
16176SOL    HW260183   7.666   5.859   1.566 -1.5989 -0.2794 -0.7798
16177SOL     OW60184   3.661   8.956   4.191 -0.4679 -0.1385 -0.2713
16177SOL    HW160185   3.695   8.863   4.179 -0.1566  0.1204 -1.5216
16177SOL    HW260186   3.626   8.967   4.284  1.1926 -0.9409  0.4715
16178SOL     OW60187   4.233   8.626   2.390 -0.0150 -0.0785 -0.7226
16178SOL    HW160188   4.326   8.654   2.366  0.8488 -2.2840 -0.0782
16178SOL    HW260189   4.232   8.590   2.484 -1.8304  1.3306 -0.1734
16179SOL     OW60190   6.193   8.047   3.157  0.1153  0.6822 -0.8766
16179SOL    HW160191   6.205   7.965   3.101 -0.0724 -0.2526  0.4263
16179SOL    HW260192   6.233   8.126   3.110  2.5605 -0.6047 -1.0295
16180SOL     OW60193   1.646   7.417   1.082 -0.2086 -0.3697 -0.3905
16180SOL    HW160194   1.735   7.390   1.044 -0.4409  1.0425 -2.0020
16180SOL    HW260195   1.657   7.501   1.136 -0.4969 -0.4640 -0.1814
16181SOL     OW60196   1.772   9.663   1.153  0.1004 -0.7286  0.6659
16181SOL    HW160197   1.767   9.750   1.104 -1.7833 -1.6786 -0.9046
16181SOL    HW260198   1.751   9.676   1.249 -1.8277  0.3109  0.1200
16182SOL     OW60199   9.445   6.585   2.665  0.0257  0.0416  0.2916
16182SOL    HW160200   9.360   6.598   2.716  0.0310  1.4586 -0.0335
16182SOL    HW260201   9.485   6.674   2.645  0.9553 -0.5742 -0.6231
16183SOL     OW60202   0.785   6.428   1.796  0.5006  0.0740  0.0217
16183SOL    HW160203   0.787   6.366   1.718 -0.6528  1.3493 -1.0432
16183SOL    HW260204   0.821   6.381   1.877 -1.3120 -2.2888 -0.5022
16184SOL     OW60205   1.589   0.116   5.282 -0.0680  0.2011 -0.2359
16184SOL    HW160206   1.515   0.077   5.228 -1.4864 -0.4241  2.0835
16184SOL    HW260207   1.666   0.052   5.285 -0.3692 -0.1816 -0.6910
16185SOL     OW60208   9.339   7.463   0.535  0.1192  0.1795  0.2121
16185SOL    HW160209   9.402   7.389   0.513 -0.2522 -0.0158 -0.2028
16185SOL    HW260210   9.282   7.437   0.613 -1.3592 -0.7732 -1.1536
16186SOL     OW60211   9.815   7.838   8.042 -0.3476  0.0885  0.6365
16186SOL    HW160212   9.882   7.767   8.063 -0.5922 -0.1747  0.5230
16186SOL    HW260213   9.780   7.825   7.949 -0.6601  0.1410  0.7452
16187SOL     OW60214   5.942   4.581   0.973 -0.2452  0.3883 -0.2024
16187SOL    HW160215   6.023   4.574   0.914  0.0857 -1.6040  0.4177
16187SOL    HW260216   5.972   4.597   1.068 -0.4039 -2.5134  0.3903
16188SOL     OW60217   6.479   1.908   5.711  0.0334  0.1796  0.2631
16188SOL    HW160218   6.461   1.933   5.806  2.5816 -2.8845  1.6216
16188SOL    HW260219   6.417   1.835   5.684 -2.2470  2.5728 -1.2583
16189SOL     OW60220   8.257   2.031   8.211  0.1464  0.2671 -0.2697
16189SOL    HW160221   8.222   1.965   8.277 -0.5593 -0.2076 -1.1173
16189SOL    HW260222   8.357   2.031   8.213  0.1456 -0.8417 -0.2838
16190SOL     OW60223   9.178   7.057   4.009 -0.4204  0.4382  0.1604
16190SOL    HW160224   9.273   7.039   4.037 -1.0451 -0.9263  1.4860
16190SOL    HW260225   9.137   7.124   4.071  0.0421  1.9666 -1.1572
16191SOL     OW60226   9.206   7.898   0.899 -0.0573 -0.1493 -0.2965
16191SOL    HW160227   9.254   7.888   0.986  1.7379 -0.8765 -1.3451
16191SOL    HW260228   9.130   7.833   0.896 -0.5134  0.3141  0.9769
16192SOL     OW60229   9.692   5.324   3.326  0.5406 -0.0582 -0.3274
16192SOL    HW160230   9.695   5.407   3.271 -1.9982 -0.2435 -0.7841
16192SOL    HW260231   9.620   5.332   3.395 -1.7094 -2.9498 -2.2142
16193SOL     OW60232   4.882   2.104   6.885 -0.4515  0.2377 -0.4037
16193SOL    HW160233   4.791   2.137   6.912 -0.6426 -0.4991 -0.1371
16193SOL    HW260234   4.925   2.058   6.963  0.1898  0.6727 -0.5042
16194SOL     OW60235   0.423   7.691   5.073 -0.2104 -0.0447  0.7769
16194SOL    HW160236   0.352   7.667   5.139  0.1289  0.3590  1.2877
16194SOL    HW260237   0.462   7.780   5.097  2.4435 -1.5493  2.1427
16195SOL     OW60238   4.150   7.096   3.963 -0.5234 -0.0918  0.3182
16195SOL    HW160239   4.165   7.083   4.061 -1.4124 -0.0663  0.4668
16195SOL    HW260240   4.052   7.091   3.944 -0.3519 -0.1221 -0.5759
16196SOL     OW60241   7.100   6.123   0.419  0.0113 -0.6899  0.5579
16196SOL    HW160242   7.186   6.121   0.471 -0.4273 -0.5693  1.2994
16196SOL    HW260243   7.093   6.209   0.369  0.8646 -1.1942 -0.4454
16197SOL     OW60244   1.041   3.390   8.119 -0.8811  0.6934 -0.3562
16197SOL    HW160245   1.108   3.317   8.109 -1.7227  0.0532 -1.3327
16197SOL    HW260246   1.068   3.468   8.063 -0.4465  0.8107  0.0099
16198SOL     OW60247   7.460   3.639   5.171 -0.4189 -0.0602  0.0544
16198SOL    HW160248   7.378   3.621   5.116 -0.7603  0.5744  0.3459
16198SOL    HW260249   7.540   3.646   5.111 -0.7455  0.3562 -0.3376
16199SOL     OW60250   1.783   8.870   1.965  0.4086  0.0294 -0.2032
16199SOL    HW160251   1.858   8.867   2.031  1.2797 -0.2463 -1.1875
16199SOL    HW260252   1.805   8.810   1.888 -0.5146  0.4838 -0.8197
16200SOL     OW60253   3.736   1.174   6.770 -0.4168 -0.3395 -0.0868
16200SOL    HW160254   3.743   1.267   6.736 -0.3077 -0.6217 -0.8585
16200SOL    HW260255   3.647   1.136   6.746 -0.0944 -0.7617 -0.6353
16201SOL     OW60256   7.883   4.952   4.118 -0.4154 -0.1513  0.2909
16201SOL    HW160257   7.870   4.970   4.021  1.2763  0.6480  0.2040
16201SOL    HW260258   7.906   5.037   4.165 -1.5794 -0.4678  1.4600
16202SOL     OW60259   7.479   5.125   7.357  0.3516  0.5750  0.0838
16202SOL    HW160260   7.518   5.148   7.267  2.1226 -0.9987  0.4262
16202SOL    HW260261   7.380   5.140   7.355  0.3266  0.3139 -2.2179
16203SOL     OW60262   2.288   2.632   7.823  0.3629 -0.7130 -0.3021
16203SOL    HW160263   2.244   2.625   7.734  1.0218 -0.8806 -0.6198
16203SOL    HW260264   2.387   2.637   7.811  0.4259 -0.1953  0.3950
16204SOL     OW60265   3.270   9.013   3.405 -0.5034 -0.0733 -0.8521
16204SOL    HW160266   3.209   9.042   3.332 -0.6280 -1.6886 -1.4032
16204SOL    HW260267   3.217   8.975   3.480 -0.1748 -1.9422 -1.5433
16205SOL     OW60268   7.769   5.243   2.942 -0.0392 -0.4278 -0.5699
16205SOL    HW160269   7.788   5.151   2.907  1.8953  0.5369 -2.1164
16205SOL    HW260270   7.852   5.298   2.939 -1.4649  1.7653 -0.8367
16206SOL     OW60271   6.372   1.106   4.781 -0.5118  0.6021 -0.3679
16206SOL    HW160272   6.376   1.154   4.869 -0.3625 -0.3855  0.1696
16206SOL    HW260273   6.465   1.090   4.748 -0.5348 -0.1198 -0.0977
16207SOL     OW60274   8.214   9.311   1.924 -0.2497 -0.4579  0.6694
16207SOL    HW160275   8.254   9.399   1.947 -1.5888  0.0810  0.9595
16207SOL    HW260276   8.221   9.249   2.002  1.6823 -0.9910  0.1075
16208SOL     OW60277   9.218   8.321   1.170 -0.2003 -0.5619 -0.5818
16208SOL    HW160278   9.305   8.369   1.161 -0.5197 -0.2365 -2.0778
16208SOL    HW260279   9.143   8.387   1.164 -0.5851 -0.9503 -0.1466
16209SOL     OW60280   2.565   4.814   0.092  0.6730 -0.3763 -0.0261
16209SOL    HW160281   2.529   4.724   0.065 -0.2937 -0.1950  0.6332
16209SOL    HW260282   2.488   4.876   0.108  1.3099  0.1644  0.9061
16210SOL     OW60283   2.053   5.365   6.004 -0.2352 -0.1510  0.6862
16210SOL    HW160284   2.090   5.303   5.935  0.0738 -0.8561  1.4706
16210SOL    HW260285   2.122   5.433   6.028 -0.5765  0.4998 -0.1814
16211SOL     OW60286   8.589   7.073   5.228 -0.0710  0.0934  0.1493
16211SOL    HW160287   8.523   7.003   5.201 -0.5402  0.9888 -1.0709
16211SOL    HW260288   8.555   7.163   5.201  0.8223  0.7423  1.1251
16212SOL     OW60289   9.268   4.785   6.797  0.2202 -0.1299 -0.6135
16212SOL    HW160290   9.182   4.754   6.837  1.2189 -2.5819 -0.2919
16212SOL    HW260291   9.325   4.706   6.775  2.4835  1.4688 -0.6598
16213SOL     OW60292   2.376   6.039   8.164  0.2024  0.0095 -0.0698
16213SOL    HW160293   2.384   5.965   8.098  0.0198 -2.5685  2.6921
16213SOL    HW260294   2.283   6.077   8.161 -0.2102 -1.0137 -0.3160
16214SOL     OW60295   0.866   8.588   4.226  0.3903 -0.3820 -0.1997
16214SOL    HW160296   0.825   8.506   4.186  1.6087 -0.1772 -1.9436
16214SOL    HW260297   0.884   8.573   4.323 -1.8199 -1.2162  0.1136
16215SOL     OW60298   8.346   0.646   1.221  0.4784  0.7930 -0.2180
16215SOL    HW160299   8.318   0.551   1.215  1.3865  0.4348  0.9638
16215SOL    HW260300   8.289   0.694   1.288  0.3707  0.9443 -0.4172
16216SOL     OW60301   3.369   2.907   4.045 -0.0552  0.6249  0.2347
16216SOL    HW160302   3.283   2.914   4.096  0.5066  1.8252  1.0139
16216SOL    HW260303   3.372   2.978   3.975  1.5202  2.3712  2.0339
16217SOL     OW60304   0.398   6.539   6.561  0.1868  0.8585  0.2099
16217SOL    HW160305   0.335   6.540   6.638 -1.2856 -1.4124 -0.9024
16217SOL    HW260306   0.381   6.618   6.503 -2.8025 -0.5276 -0.9141
16218SOL     OW60307   4.188   0.499   2.339  0.3414 -0.0547 -0.7656
16218SOL    HW160308   4.129   0.419   2.337  0.2684 -0.0182 -0.1162
16218SOL    HW260309   4.135   0.580   2.311 -0.0174  0.0410  0.1851
16219SOL     OW60310   3.916   3.450   6.513 -0.7780  0.3785 -0.3154
16219SOL    HW160311   3.851   3.494   6.575  0.1769 -0.2172  1.1324
16219SOL    HW260312   3.874   3.370   6.471 -1.1449  0.2675  0.2542
16220SOL     OW60313   9.903   9.380   3.090  0.2311  0.6750  0.1675
16220SOL    HW160314   9.894   9.302   3.027 -0.1395  0.4584  0.4905
16220SOL    HW260315   9.882   9.464   3.041  0.8328  0.5937 -0.2379
16221SOL     OW60316   8.741   6.054   6.366 -0.1515 -0.5851 -0.1312
16221SOL    HW160317   8.822   6.006   6.335 -0.3487 -1.3505  0.5143
16221SOL    HW260318   8.716   6.124   6.299  0.7091 -0.7194 -0.6003
16222SOL     OW60319   0.053   2.524   6.465  0.5152  0.0407 -0.4744
16222SOL    HW160320   0.116   2.448   6.448 -0.8250 -0.9701 -0.9826
16222SOL    HW260321   0.079   2.571   6.549  1.5279 -0.7916 -0.3150
16223SOL     OW60322   7.890   2.326   3.492 -0.0570  0.1160 -0.3564
16223SOL    HW160323   7.799   2.295   3.520 -0.0870  0.8272  0.3623
16223SOL    HW260324   7.884   2.419   3.456  0.4131  0.2532 -0.0931
16224SOL     OW60325   7.981   3.091   1.138  0.1040 -0.6121 -0.1308
16224SOL    HW160326   7.905   3.088   1.074 -0.4300 -0.4330  0.4860
16224SOL    HW260327   8.065   3.112   1.089 -0.7708  2.5520 -0.3888
16225SOL     OW60328   4.290   3.927   5.439  0.4262  0.1692  0.1918
16225SOL    HW160329   4.361   3.964   5.379  0.9467 -0.8864  0.1499
16225SOL    HW260330   4.212   3.896   5.385 -0.8195  2.8879  0.3464
16226SOL     OW60331   0.779   7.086   7.017 -0.4259  0.1073  0.5933
16226SOL    HW160332   0.794   7.057   7.112 -1.5352 -2.9385 -0.0978
16226SOL    HW260333   0.725   7.016   6.969 -1.2646  2.3429 -1.8572
16227SOL     OW60334   8.451   7.025   0.996 -0.4675  0.1630  0.3758
16227SOL    HW160335   8.383   6.962   0.959  0.0027 -0.6805  0.9307
16227SOL    HW260336   8.536   7.016   0.945 -1.1235  2.0967 -1.1179
16228SOL     OW60337   2.477   1.555   6.784  0.3386  0.2244 -0.0320
16228SOL    HW160338   2.562   1.509   6.759 -0.3925 -0.5852 -1.0807
16228SOL    HW260339   2.439   1.512   6.866  0.7112  0.2923  0.1761
16229SOL     OW60340   1.338   5.590   7.633 -0.1697  0.3103  0.3560
16229SOL    HW160341   1.406   5.649   7.590 -0.5493 -0.5045 -1.4104
16229SOL    HW260342   1.384   5.526   7.694  0.5859  0.2874 -0.2246
16230SOL     OW60343   7.350   0.963   3.646 -0.4148 -0.3722  0.4428
16230SOL    HW160344   7.443   0.955   3.683 -0.4424  1.4025  0.9895
16230SOL    HW260345   7.345   0.920   3.557  1.0903 -0.0201  0.1767
16231SOL     OW60346   1.827   8.774   2.446  0.6615  0.8395 -0.3064
16231SOL    HW160347   1.743   8.758   2.498 -0.1204  2.3845 -1.0483
16231SOL    HW260348   1.904   8.785   2.510  0.2136 -0.0572  0.3999
16232SOL     OW60349   1.499   7.179   5.893  0.3458 -0.0687  0.2838
16232SOL    HW160350   1.584   7.153   5.939 -0.8112 -1.2480  1.7946
16232SOL    HW260351   1.489   7.278   5.896 -0.2162 -0.1540  3.6179
16233SOL     OW60352   1.242   7.064   1.862  0.6644 -0.4859 -0.2018
16233SOL    HW160353   1.174   7.030   1.927  1.2876 -0.7839  0.3006
16233SOL    HW260354   1.207   7.145   1.816  1.1547  1.1603  2.2494
16234SOL     OW60355   0.811   3.027   1.353  0.6101 -0.0551  0.3082
16234SOL    HW160356   0.733   3.089   1.359  1.1089  0.5458  0.6499
16234SOL    HW260357   0.837   2.998   1.444 -0.9163 -2.4291  0.0422
16235SOL     OW60358   9.757   2.797   6.870  0.0761  0.0482 -0.8799
16235SOL    HW160359   9.803   2.769   6.954  1.9415 -0.9877 -2.1892
16235SOL    HW260360   9.660   2.776   6.875  0.4345 -1.2918  0.4600
16236SOL     OW60361   9.281   1.669   1.306 -0.0818  0.1205  0.2436
16236SOL    HW160362   9.188   1.633   1.306 -0.3015  0.6731  0.3292
16236SOL    HW260363   9.280   1.764   1.338  0.5615 -0.0021  0.6518
16237SOL     OW60364   8.924   9.317   5.524 -0.0529  0.2093 -0.4539
16237SOL    HW160365   8.937   9.243   5.589  1.6789 -0.6813 -1.7619
16237SOL    HW260366   8.877   9.283   5.442  1.0255  0.4702 -1.1952
16238SOL     OW60367   4.658   0.595   3.564 -0.3933 -0.0528 -0.0415
16238SOL    HW160368   4.682   0.655   3.487 -2.0324 -0.2623 -0.7248
16238SOL    HW260369   4.608   0.515   3.530  2.1103 -2.0525  0.8095
16239SOL     OW60370   8.435   1.409   5.699  0.1241 -0.2851  0.5466
16239SOL    HW160371   8.447   1.439   5.604 -3.2244  1.2231  0.5192
16239SOL    HW260372   8.400   1.315   5.700  2.1421 -1.0507  0.3657
16240SOL     OW60373   9.314   4.205   4.464  0.6873  0.3611  0.1290
16240SOL    HW160374   9.346   4.115   4.495  1.5978  0.4923 -0.4291
16240SOL    HW260375   9.219   4.218   4.494  0.2502 -1.1478 -0.5503
16241SOL     OW60376   8.829   1.275   6.313 -0.1837  0.2619  0.4377
16241SOL    HW160377   8.834   1.215   6.233  1.0029  1.0744 -0.1069
16241SOL    HW260378   8.759   1.344   6.299  0.2572  0.6144 -0.0523
16242SOL     OW60379   8.858   4.033   3.969  0.0813  0.1014 -0.1833
16242SOL    HW160380   8.903   4.090   4.037 -1.5727 -1.1569  2.0459
16242SOL    HW260381   8.898   4.049   3.879 -0.1530  4.5226  0.4252
16243SOL     OW60382   6.940   6.985   5.857  0.3737  0.2329  0.3184
16243SOL    HW160383   6.938   6.984   5.757 -2.9256  1.7918  0.2897
16243SOL    HW260384   6.980   7.072   5.888 -0.5033  0.6290  0.3380
16244SOL     OW60385   1.388   4.014   0.761  0.8082 -0.1160  0.2758
16244SOL    HW160386   1.295   3.984   0.781  1.2990  0.4325  3.6261
16244SOL    HW260387   1.447   3.934   0.750  0.3992 -0.4434  0.4409
16245SOL     OW60388   6.793   8.269   6.287 -0.3531 -0.4362 -0.2651
16245SOL    HW160389   6.885   8.283   6.249 -0.0152 -0.4657  0.5347
16245SOL    HW260390   6.781   8.327   6.367 -1.3632  0.2432 -0.8961
16246SOL     OW60391   2.380   6.075   3.155 -0.6024 -0.0949 -0.6426
16246SOL    HW160392   2.467   6.039   3.189 -0.0391 -0.6775 -2.6527
16246SOL    HW260393   2.397   6.139   3.080 -1.7188  2.7890  1.4546
16247SOL     OW60394   1.911   8.868   2.207 -0.2937  0.0897 -0.0009
16247SOL    HW160395   1.865   8.848   2.293  0.8585 -2.1318  0.1417
16247SOL    HW260396   2.009   8.879   2.224 -0.0197 -0.6385 -1.0473
16248SOL     OW60397   9.280   5.395   1.224 -0.3277  0.2297 -0.0679
16248SOL    HW160398   9.273   5.495   1.228  0.5838  0.2995 -0.1357
16248SOL    HW260399   9.367   5.369   1.181 -1.2764 -0.5865 -1.5437
16249SOL     OW60400   4.025   7.737   4.398 -0.1268  0.1834 -0.3702
16249SOL    HW160401   4.084   7.672   4.351 -0.2257 -0.2996  0.1626
16249SOL    HW260402   3.950   7.764   4.337  0.3370  0.3845 -0.8558
16250SOL     OW60403   6.894   1.037   1.604 -0.1576  0.3051  0.3408
16250SOL    HW160404   6.833   1.015   1.680 -0.1605 -0.0463  0.2397
16250SOL    HW260405   6.924   0.952   1.561  1.2667  0.4463  1.0552
16251SOL     OW60406   8.871   8.288   4.818 -0.1946  0.4397 -0.3074
16251SOL    HW160407   8.965   8.283   4.852 -0.1948  0.0355 -0.3593
16251SOL    HW260408   8.843   8.198   4.783 -0.0404  0.9502 -1.7681
16252SOL     OW60409   5.932   5.902   0.662 -0.3864 -0.8401 -0.0051
16252SOL    HW160410   5.963   5.810   0.687 -0.9898 -0.8340  0.7843
16252SOL    HW260411   5.935   5.961   0.743  2.7427  0.6160 -1.1211
16253SOL     OW60412   7.412   2.401   3.032  0.3169  0.6163 -0.2298
16253SOL    HW160413   7.344   2.401   2.958  0.1406  0.2939 -0.0735
16253SOL    HW260414   7.415   2.310   3.073  0.9160  0.6032 -0.2957
16254SOL     OW60415   2.666   1.366   5.389 -0.2398 -0.2133  0.0564
16254SOL    HW160416   2.744   1.329   5.441  0.9944  0.2182 -1.4458
16254SOL    HW260417   2.584   1.313   5.410  0.7921 -1.6634  0.5069
16255SOL     OW60418   6.152   1.867   4.710 -0.1096  0.1453 -0.1007
16255SOL    HW160419   6.224   1.805   4.677 -0.2139  1.1883 -2.3899
16255SOL    HW260420   6.193   1.940   4.764  0.2824 -0.5871  0.5981
16256SOL     OW60421   6.238   8.357   4.663  0.0290  0.4221  0.1348
16256SOL    HW160422   6.238   8.371   4.762  0.2809  0.7505  0.0912
16256SOL    HW260423   6.160   8.300   4.638 -1.0674  1.7797  0.3383
16257SOL     OW60424   2.848   6.178   2.208 -0.1699 -0.9296 -0.2412
16257SOL    HW160425   2.762   6.217   2.175 -0.2608 -1.3405 -0.4917
16257SOL    HW260426   2.901   6.249   2.253 -1.7809 -1.2106  2.2127
16258SOL     OW60427   9.832   6.625   5.952  0.3924  0.3259 -0.0238
16258SOL    HW160428   9.833   6.693   5.879  0.1696 -0.0438 -0.3706
16258SOL    HW260429   9.900   6.554   5.932  1.5711  1.1380  0.9974
16259SOL     OW60430   6.909   5.409   7.904  0.3242  0.1220 -0.2904
16259SOL    HW160431   6.854   5.417   7.821 -1.0005  0.9987  0.6338
16259SOL    HW260432   6.856   5.446   7.981  1.1434 -1.5674  1.0932
16260SOL     OW60433   8.859   3.731   5.107 -0.1208 -0.1520 -0.0305
16260SOL    HW160434   8.877   3.660   5.038  3.4403  1.3901 -0.8526
16260SOL    HW260435   8.769   3.717   5.146  0.3664 -5.0572 -0.2473
16261SOL     OW60436   4.034   8.939   4.346  0.0375 -0.1996 -0.2972
16261SOL    HW160437   4.048   8.967   4.251 -2.3475  1.4532 -0.2002
16261SOL    HW260438   3.984   9.010   4.395  0.4007 -1.4492  1.9567
16262SOL     OW60439   0.176   1.989   1.981 -0.5556  0.0541  0.2292
16262SOL    HW160440   0.260   1.936   1.969 -1.3438 -0.6712 -2.4506
16262SOL    HW260441   0.198   2.086   1.979  0.1264 -0.1182 -1.4481
16263SOL     OW60442   0.790   6.229   3.511  0.3401 -0.3456  0.0056
16263SOL    HW160443   0.872   6.286   3.508 -1.5432  2.4659  0.8581
16263SOL    HW260444   0.759   6.211   3.418  1.1892 -0.3511 -0.2816
16264SOL     OW60445   3.532   3.079   7.545  0.0057 -0.1079 -0.0091
16264SOL    HW160446   3.448   3.034   7.576  0.5470 -2.5169 -1.8850
16264SOL    HW260447   3.600   3.075   7.619 -0.6554 -0.5044  0.5913
16265SOL     OW60448   6.800   0.514   3.024 -0.3513 -0.0739 -0.2224
16265SOL    HW160449   6.867   0.486   3.093 -0.5683  0.0392  0.0343
16265SOL    HW260450   6.821   0.607   2.994  0.9540 -0.8422 -1.7820
16266SOL     OW60451   6.089   4.392   1.373 -0.2681  0.6256  0.3995
16266SOL    HW160452   6.137   4.429   1.293  0.3817 -1.5984 -0.2562
16266SOL    HW260453   6.004   4.442   1.386 -0.5912  0.7376 -1.9415
16267SOL     OW60454   9.068   5.951   4.080  0.5946  0.3753 -0.0224
16267SOL    HW160455   9.070   5.930   3.982  1.0492  0.3463 -0.0096
16267SOL    HW260456   9.048   5.868   4.131  1.1166  0.2278 -0.0483
16268SOL     OW60457   0.941   4.288   6.727  0.2092  0.3594  0.2061
16268SOL    HW160458   0.879   4.305   6.804  0.2231 -0.8521  0.4936
16268SOL    HW260459   0.898   4.223   6.664  0.5457  0.7105 -0.3871
16269SOL     OW60460   0.832   4.541   4.394  0.4074  0.3730 -0.2809
16269SOL    HW160461   0.898   4.559   4.468 -0.1506  1.0161  0.0646
16269SOL    HW260462   0.876   4.486   4.323  0.9243 -0.3597  0.5839
16270SOL     OW60463   4.027   1.965   6.666  0.7231  0.5749  0.1621
16270SOL    HW160464   4.005   1.935   6.573  0.2187  0.3385  0.3545
16270SOL    HW260465   4.122   1.945   6.686  1.1725  1.7644 -0.7500
16271SOL     OW60466   1.628   8.283   4.459  0.1749  0.0870 -0.1676
16271SOL    HW160467   1.615   8.190   4.494  0.7621  0.2370  0.4676
16271SOL    HW260468   1.627   8.281   4.359 -2.1370 -0.2553 -0.1697
16272SOL     OW60469   9.647   0.296   6.698  0.7887 -0.6343  0.1294
16272SOL    HW160470   9.647   0.258   6.790 -1.6717  0.5133  0.6330
16272SOL    HW260471   9.676   0.392   6.702  2.3797 -1.0578 -0.5519
16273SOL     OW60472   6.351   4.631   0.671 -0.3436 -0.1835  0.0781
16273SOL    HW160473   6.385   4.705   0.612 -0.3655  0.1588  0.4930
16273SOL    HW260474   6.293   4.570   0.617 -0.9332  0.5174 -0.0952
16274SOL     OW60475   7.773   4.849   6.463 -0.3916 -0.3657 -0.2921
16274SOL    HW160476   7.783   4.945   6.489  1.3791 -0.5027 -0.3598
16274SOL    HW260477   7.832   4.830   6.384 -1.6986 -1.2049 -1.0773
16275SOL     OW60478   8.613   4.458   4.061  0.1092  0.3367  0.1538
16275SOL    HW160479   8.531   4.417   4.020  0.7983 -1.4558  0.5444
16275SOL    HW260480   8.679   4.480   3.989 -0.0440  0.2988  0.0001
16276SOL     OW60481   2.758   9.531   2.385 -0.5044 -0.4744  0.0365
16276SOL    HW160482   2.857   9.547   2.381  0.2412 -4.0319  1.9084
16276SOL    HW260483   2.723   9.559   2.474 -1.1261  0.4460 -0.4921
16277SOL     OW60484   1.678   5.490   2.615  0.3004 -0.0079 -0.0779
16277SOL    HW160485   1.736   5.419   2.655  0.3684 -1.0972 -2.0350
16277SOL    HW260486   1.677   5.480   2.515  0.5959  2.9559 -0.4330
16278SOL     OW60487   4.026   6.513   2.818 -0.3930  0.2940 -0.1211
16278SOL    HW160488   3.941   6.558   2.845 -0.2713  0.8502 -0.6532
16278SOL    HW260489   4.093   6.521   2.892 -0.3081  1.1682 -0.2792
16279SOL     OW60490   8.537   7.903   0.435  0.2471 -0.0714  0.1953
16279SOL    HW160491   8.610   7.945   0.381 -0.7882  0.1239 -1.0788
16279SOL    HW260492   8.575   7.834   0.496  1.4205 -0.3559 -0.8513
16280SOL     OW60493   6.038   4.512   1.654  0.0785 -0.2856  0.5844
16280SOL    HW160494   6.042   4.561   1.567  1.8052  0.4172  1.0301
16280SOL    HW260495   5.985   4.566   1.719  0.2750  0.0491  0.4724
16281SOL     OW60496   5.573   0.635   2.526 -0.3572  0.6338  0.2363
16281SOL    HW160497   5.581   0.591   2.436 -1.5270 -2.2279  1.4776
16281SOL    HW260498   5.663   0.638   2.569  0.0958  1.4154 -0.7602
16282SOL     OW60499   9.541   6.462   8.161 -0.7331  0.8111  0.2281
16282SOL    HW160500   9.446   6.488   8.180 -0.6155  0.3908  1.4175
16282SOL    HW260501   9.568   6.386   8.221  1.8446  3.9933  3.2942
16283SOL     OW60502   0.127   3.431   7.670 -0.1815  0.1585  0.0825
16283SOL    HW160503   0.066   3.361   7.632 -0.6437  0.6089 -0.0090
16283SOL    HW260504   0.211   3.436   7.616 -1.1417  1.3140 -1.3500
16284SOL     OW60505   0.076   3.965   3.474 -0.9126 -0.5817  0.5939
16284SOL    HW160506   0.122   3.876   3.471 -0.3493 -0.2642 -0.2579
16284SOL    HW260507  -0.004   3.963   3.414 -0.7457 -0.4274  0.3663
16285SOL     OW60508   6.807   0.796   1.977 -0.0134  0.1520 -0.3831
16285SOL    HW160509   6.754   0.727   2.026 -0.4317  0.5774 -0.2286
16285SOL    HW260510   6.846   0.756   1.894 -0.3455 -0.2363 -0.3544
16286SOL     OW60511   1.895   4.688   0.428 -0.1038  0.0716 -0.0065
16286SOL    HW160512   1.856   4.613   0.374  1.5193  0.0946 -1.2422
16286SOL    HW260513   1.822   4.750   0.457 -1.5813 -2.3365  1.6411
16287SOL     OW60514   7.215   9.940   5.806  0.4534 -0.2941  0.3291
16287SOL    HW160515   7.141   9.985   5.754 -0.7240 -2.5726 -0.0615
16287SOL    HW260516   7.302   9.985   5.785 -0.5696  1.3571 -0.5487
16288SOL     OW60517   3.049   1.679   1.097 -0.3813  0.0633  0.4749
16288SOL    HW160518   3.128   1.662   1.039 -1.1671 -1.3842 -0.1974
16288SOL    HW260519   3.046   1.776   1.121  0.7704  0.4075 -0.6924
16289SOL     OW60520   5.272   7.844   3.059  0.3948  0.1644  0.1162
16289SOL    HW160521   5.346   7.778   3.048  0.7609  0.2089  1.9892
16289SOL    HW260522   5.202   7.806   3.121 -1.4652 -0.1249 -2.1041
16290SOL     OW60523   6.831   2.738   1.051 -0.1369  0.5733 -0.2670
16290SOL    HW160524   6.751   2.735   1.111  0.2905 -1.0480  0.2696
16290SOL    HW260525   6.815   2.803   0.976 -2.3437 -0.4172 -0.7031
16291SOL     OW60526   9.812   2.225   6.653 -0.4496 -0.1026 -0.0980
16291SOL    HW160527   9.722   2.269   6.661 -0.7020 -0.4918 -0.7523
16291SOL    HW260528   9.828   2.200   6.558 -1.1722 -3.2143  0.5382
16292SOL     OW60529   0.252   5.224   6.106 -0.3170  0.1404 -0.1766
16292SOL    HW160530   0.225   5.259   6.016 -1.3680  0.7515  0.3784
16292SOL    HW260531   0.276   5.300   6.166  0.1143 -0.2505  0.1503
16293SOL     OW60532   6.532   3.390   2.053 -1.1303  0.2871  0.4761
16293SOL    HW160533   6.570   3.469   2.004 -0.9094  1.1094  1.9594
16293SOL    HW260534   6.606   3.338   2.096 -1.4914  0.6445  1.5291
16294SOL     OW60535   3.986   1.603   2.105 -0.4680 -0.3476  0.2677
16294SOL    HW160536   4.066   1.547   2.127 -0.7857  0.2409  3.2080
16294SOL    HW260537   3.938   1.564   2.027  1.6712 -1.7367 -0.3974
16295SOL     OW60538   9.518   9.358   7.107 -0.0900  0.4832 -0.3120
16295SOL    HW160539   9.450   9.288   7.129  1.0099 -0.5918 -0.2900
16295SOL    HW260540   9.475   9.448   7.110 -2.0396 -0.3232 -2.3601
16296SOL     OW60541   2.945   7.319   0.029  0.1149 -0.0525 -0.2976
16296SOL    HW160542   2.872   7.287   0.089 -0.7601 -3.1186 -2.8573
16296SOL    HW260543   2.926   7.413   0.001 -1.2238  0.2356  1.4631
16297SOL     OW60544   3.886   4.703   4.403 -0.3728  0.1896 -0.1008
16297SOL    HW160545   3.891   4.708   4.503 -0.5062 -0.6649 -0.0415
16297SOL    HW260546   3.901   4.608   4.374  0.3250  0.5519 -0.9338
16298SOL     OW60547   3.572   2.256   7.137  0.2294  0.3629 -0.0851
16298SOL    HW160548   3.530   2.209   7.059  0.6068 -0.4286  0.1875
16298SOL    HW260549   3.567   2.197   7.218  2.8161 -0.1580 -0.2920
16299SOL     OW60550   1.136   3.758   6.901  0.1923  0.6691 -0.3147
16299SOL    HW160551   1.095   3.845   6.931  1.2124  1.0899 -0.1188
16299SOL    HW260552   1.171   3.709   6.981  0.8980  0.7414 -0.5774
16300SOL     OW60553   3.633   3.545   2.948  0.2596 -0.0221 -0.0817
16300SOL    HW160554   3.597   3.514   3.036  0.8153 -0.0174  0.1468
16300SOL    HW260555   3.580   3.502   2.874 -1.2361  1.2072  0.2497
16301SOL     OW60556   7.844   8.113   3.611 -0.2643  0.4505  0.3456
16301SOL    HW160557   7.845   8.208   3.642  1.5992  0.1488  1.2616
16301SOL    HW260558   7.778   8.061   3.665  0.4039  0.7113  1.4249
16302SOL     OW60559   2.796   7.014   4.864 -0.2410  0.0167 -0.1266
16302SOL    HW160560   2.838   7.094   4.821 -1.0492  0.5884  0.1448
16302SOL    HW260561   2.707   7.039   4.903 -1.0534 -1.2771 -1.0990
16303SOL     OW60562   9.044   8.809   0.598  0.2529 -0.2844  0.1287
16303SOL    HW160563   8.970   8.775   0.656  0.9570 -2.3010 -0.0897
16303SOL    HW260564   9.096   8.731   0.562  1.8173  1.0593 -0.5860
16304SOL     OW60565   4.032   2.886   3.036 -0.4756  0.3617  0.4814
16304SOL    HW160566   3.973   2.948   2.982  0.3233  1.3217  0.6924
16304SOL    HW260567   3.980   2.850   3.113 -0.7683  1.2949  0.7326
16305SOL     OW60568   8.595   6.424   1.776 -0.0352  0.3053  0.4491
16305SOL    HW160569   8.563   6.479   1.853  0.8857  0.8803  0.4248
16305SOL    HW260570   8.562   6.330   1.787 -0.0059  0.4046  1.4962
16306SOL     OW60571   0.893   1.629   4.826  0.6493  0.1044 -0.1069
16306SOL    HW160572   0.888   1.572   4.744  2.1608 -1.3352  0.7824
16306SOL    HW260573   0.951   1.585   4.895 -0.3905  1.4126  1.6549
16307SOL     OW60574   5.712   5.693   8.086 -0.0164 -0.0092  0.3591
16307SOL    HW160575   5.785   5.656   8.029  0.2526 -1.7644  1.8198
16307SOL    HW260576   5.701   5.637   8.168 -3.0390  0.1975  0.1498
16308SOL     OW60577   9.348   0.699   0.168 -0.4392  0.1517 -0.2978
16308SOL    HW160578   9.344   0.794   0.140  1.1023 -0.1417 -1.6151
16308SOL    HW260579   9.442   0.676   0.193 -0.8118 -1.0021  0.0802
16309SOL     OW60580   5.760   9.185   1.673 -0.3957  0.2536  0.0729
16309SOL    HW160581   5.703   9.202   1.753 -1.3997  0.4079 -0.6523
16309SOL    HW260582   5.703   9.190   1.590  0.7894  0.9749 -0.7089
16310SOL     OW60583   9.398   4.251   5.610  0.1327 -0.6306 -0.3379
16310SOL    HW160584   9.398   4.268   5.709  1.7691  0.4006 -0.4882
16310SOL    HW260585   9.314   4.285   5.570  0.2299  0.5692  0.4540
16311SOL     OW60586   1.054   2.756   3.537  0.1748  0.1704  0.2428
16311SOL    HW160587   1.128   2.724   3.596  0.2147  0.5245  0.3854
16311SOL    HW260588   1.009   2.678   3.494  0.6260 -0.0470  0.1635
16312SOL     OW60589   9.884   8.469   7.615 -0.2518 -0.3073 -0.8320
16312SOL    HW160590   9.842   8.412   7.685  1.3006 -1.6045 -0.9411
16312SOL    HW260591   9.818   8.486   7.542 -1.3629 -0.2784  0.1660
16313SOL     OW60592   9.451   0.506   2.226 -0.7136 -0.3251  0.2524
16313SOL    HW160593   9.406   0.584   2.270 -0.6002 -1.2948  2.1618
16313SOL    HW260594   9.395   0.475   2.149 -1.0563  1.2601 -0.1662
16314SOL     OW60595   1.987   6.329   0.336 -0.0334 -0.3987 -0.1626
16314SOL    HW160596   1.969   6.325   0.434 -0.9795 -0.0230 -0.3194
16314SOL    HW260597   1.950   6.247   0.292  1.0010 -0.9046 -0.1190
16315SOL     OW60598   8.913   3.630   0.258 -0.0489  0.0676 -0.0345
16315SOL    HW160599   8.914   3.589   0.167 -0.2680 -1.1335  0.4963
16315SOL    HW260600   8.844   3.702   0.261 -0.4169 -0.2536 -0.6640
16316SOL     OW60601   8.822   8.968   6.825  0.3770 -0.7087  0.1333
16316SOL    HW160602   8.778   8.878   6.829  0.0003 -0.5274  0.0492
16316SOL    HW260603   8.921   8.956   6.825  0.3423 -1.0783  1.3722
16317SOL     OW60604   8.054   1.560   0.244  0.4269 -0.5692 -0.7244
16317SOL    HW160605   8.140   1.544   0.293 -0.7906  0.3968  1.7980
16317SOL    HW260606   7.993   1.482   0.257  0.1989 -0.4382 -1.0034
16318SOL     OW60607   8.118   3.951   0.836 -0.1633  0.0846 -0.0640
16318SOL    HW160608   8.090   3.855   0.844  0.8436 -0.3487 -1.6101
16318SOL    HW260609   8.114   3.994   0.926  1.4396 -1.9869  1.0316
16319SOL     OW60610   3.567   1.857   4.346  0.3139 -0.3278 -0.1330
16319SOL    HW160611   3.642   1.871   4.410 -0.4248  1.1917  0.4101
16319SOL    HW260612   3.595   1.885   4.254  0.9123 -1.2348 -0.2402
16320SOL     OW60613   5.418   9.939   5.914 -0.5853 -0.0999  0.0676
16320SOL    HW160614   5.417   9.903   6.008  0.1649  1.2390  0.6044
16320SOL    HW260615   5.354  10.015   5.907 -0.2208  0.1685 -0.3604
16321SOL     OW60616   1.426   0.282   6.822 -0.5741  0.0483  0.2792
16321SOL    HW160617   1.341   0.287   6.875 -1.2600  0.4866 -0.8475
16321SOL    HW260618   1.484   0.360   6.843 -0.2009 -0.5414  1.4651
16322SOL     OW60619   3.073   3.858   5.957 -0.1100 -0.3383  0.0117
16322SOL    HW160620   2.984   3.888   5.925 -0.7989 -1.7532  0.5635
16322SOL    HW260621   3.075   3.861   6.057  0.8617  0.7632 -0.0161
16323SOL     OW60622   3.918   3.031   3.771  0.1158 -0.4506  0.4554
16323SOL    HW160623   3.909   3.004   3.675  0.1762  0.4541  0.1869
16323SOL    HW260624   3.979   3.110   3.777  1.7190 -1.7413  1.4502
16324SOL     OW60625   8.379   4.851   3.815 -0.3037  0.1949 -0.3966
16324SOL    HW160626   8.382   4.754   3.838  1.0874 -0.2140 -2.1358
16324SOL    HW260627   8.289   4.888   3.838 -0.5134 -1.2419  1.2324
16325SOL     OW60628   1.264   1.028   5.953 -0.1818 -0.7276 -0.0187
16325SOL    HW160629   1.178   1.045   6.001 -0.4970  1.2301 -1.2024
16325SOL    HW260630   1.310   1.114   5.936 -0.5320 -1.2026 -3.9653
16326SOL     OW60631   2.143   6.036   4.962  0.7063 -0.2013  0.2384
16326SOL    HW160632   2.082   5.977   4.908  2.7587 -3.3740  1.2125
16326SOL    HW260633   2.110   6.039   5.057  0.9572 -0.3228  0.3295
16327SOL     OW60634   6.800   4.235   0.092 -0.1385 -0.9727  0.1757
16327SOL    HW160635   6.865   4.227   0.167 -1.1298  2.1905  1.4628
16327SOL    HW260636   6.707   4.243   0.129 -0.6291  0.7066 -1.3201
16328SOL     OW60637   9.335   4.279   2.467  0.1781  0.0222 -0.4245
16328SOL    HW160638   9.273   4.334   2.411  1.8349  2.6239  0.2367
16328SOL    HW260639   9.429   4.293   2.437  0.6895 -1.8963  0.2444
16329SOL     OW60640   8.476   1.504   5.374 -0.3803 -0.2341 -0.1274
16329SOL    HW160641   8.449   1.590   5.331 -0.7039 -1.0625 -1.5869
16329SOL    HW260642   8.575   1.491   5.365 -0.2991  0.0795  0.2863
16330SOL     OW60643   9.771   9.094   5.386 -0.3129  0.1860  0.5688
16330SOL    HW160644   9.784   9.192   5.399  0.9649 -0.0335  0.9839
16330SOL    HW260645   9.675   9.071   5.400 -0.6452  1.4002  0.3079
16331SOL     OW60646   1.499   7.300   3.673  0.4407  0.3500  0.2713
16331SOL    HW160647   1.545   7.388   3.675 -0.4693  0.8864 -1.2284
16331SOL    HW260648   1.544   7.240   3.606  0.4855  0.0084  0.6058
16332SOL     OW60649   9.385   3.852   4.109 -0.8067 -0.1393  0.3739
16332SOL    HW160650   9.318   3.790   4.068  0.0898 -1.0201  0.2518
16332SOL    HW260651   9.463   3.800   4.144 -0.7854  0.7666  1.6962
16333SOL     OW60652   5.241   7.798   4.116 -0.4163 -0.1415  0.3189
16333SOL    HW160653   5.306   7.724   4.130  0.9120  0.9987  0.3308
16333SOL    HW260654   5.275   7.881   4.161 -1.3748  0.7415 -0.5574
16334SOL     OW60655   9.453   7.396   4.631 -0.2349 -0.5562 -0.1287
16334SOL    HW160656   9.521   7.426   4.699 -0.9094  0.7932 -0.0183
16334SOL    HW260657   9.367   7.446   4.647 -0.9759 -1.6104 -0.8069
16335SOL     OW60658   2.500   0.617   4.693 -0.0190  0.2091  0.5405
16335SOL    HW160659   2.532   0.679   4.622 -0.3092 -1.3425 -0.9844
16335SOL    HW260660   2.529   0.524   4.672 -1.1701 -0.4586  1.7953
16336SOL     OW60661   6.739   4.246   7.876 -0.3195 -0.8601  0.2670
16336SOL    HW160662   6.839   4.245   7.871 -0.2953  0.4998  0.4608
16336SOL    HW260663   6.701   4.232   7.785  0.0521 -0.3432  0.0302
16337SOL     OW60664   2.600   8.742   7.421  0.0646 -0.0065 -0.1115
16337SOL    HW160665   2.592   8.696   7.333 -0.7543 -0.2210  0.0726
16337SOL    HW260666   2.663   8.819   7.413 -1.5570  1.2056 -1.3764
16338SOL     OW60667   4.215   5.023   0.358 -0.1397 -0.6517 -0.5195
16338SOL    HW160668   4.182   5.107   0.314 -0.0412 -0.4152 -0.1361
16338SOL    HW260669   4.164   4.945   0.321 -0.2298 -0.4241 -0.8765
16339SOL     OW60670   0.708   7.374   5.880 -0.1178 -0.1031  0.3805
16339SOL    HW160671   0.797   7.412   5.905 -2.0050  3.1458  2.5712
16339SOL    HW260672   0.708   7.352   5.783  2.0081  3.0801 -0.4365
16340SOL     OW60673   5.433   9.040   5.769  0.1086  0.3810  0.1700
16340SOL    HW160674   5.416   9.002   5.678  0.4377 -0.9552  0.6436
16340SOL    HW260675   5.390   9.130   5.777  1.5462  1.2889 -1.8883
16341SOL     OW60676   3.745   1.357   5.671  0.0033 -0.4783  0.1424
16341SOL    HW160677   3.768   1.311   5.585 -1.4398  1.9254 -1.5867
16341SOL    HW260678   3.673   1.306   5.718 -0.1961 -1.0519 -0.7707
16342SOL     OW60679   2.531   2.475   5.952 -0.4876  0.4684 -0.0453
16342SOL    HW160680   2.500   2.394   6.002 -1.2285  0.1792 -0.9556
16342SOL    HW260681   2.578   2.537   6.015 -1.6103  0.2177  1.0666
16343SOL     OW60682   0.143   4.935   5.930 -0.1834  0.2350  0.1329
16343SOL    HW160683   0.087   4.942   5.847  0.0409 -0.3502 -0.0687
16343SOL    HW260684   0.096   4.981   6.006 -1.4609 -1.2138  0.2404
16344SOL     OW60685   5.166   0.022   6.908 -0.5682 -0.0113 -0.2611
16344SOL    HW160686   5.241  -0.035   6.875 -0.3100  0.0920  0.1453
16344SOL    HW260687   5.100  -0.034   6.958 -0.9405 -0.1626 -0.9104
16345SOL     OW60688   4.916   5.283   1.792  0.0062  0.0157  0.1565
16345SOL    HW160689   4.821   5.292   1.762 -0.3201 -1.1413  0.7765
16345SOL    HW260690   4.925   5.315   1.886  0.1343 -0.2564  0.2399
16346SOL     OW60691   5.035   1.709   0.299 -0.1455  0.4167  0.0838
16346SOL    HW160692   5.077   1.643   0.361 -1.4311  0.9252  1.5265
16346SOL    HW260693   4.938   1.688   0.290  0.1135  0.0877 -2.1246
16347SOL     OW60694   5.279   9.865   2.294  0.1530  0.6197  0.0711
16347SOL    HW160695   5.239   9.952   2.324  0.2665  0.4523  0.7188
16347SOL    HW260696   5.207   9.802   2.266 -0.0055  0.5101  0.7157
16348SOL     OW60697   6.966   2.129   4.811  0.0280  0.0597  0.6702
16348SOL    HW160698   6.955   2.041   4.857 -0.4147 -0.5282 -0.5488
16348SOL    HW260699   6.890   2.144   4.749  0.1441  1.2793  0.8136
16349SOL     OW60700   1.499   0.254   7.977  0.2300  0.3837  0.2062
16349SOL    HW160701   1.420   0.314   7.967 -0.5720 -0.4730  1.2763
16349SOL    HW260702   1.469   0.162   8.002  1.5529 -0.0004  0.4612
16350SOL     OW60703   9.430   6.780   1.768 -0.4272 -0.0067  0.2704
16350SOL    HW160704   9.528   6.791   1.784 -0.3416 -0.0750 -0.1886
16350SOL    HW260705   9.397   6.856   1.711 -1.4543  2.2518  3.7358
16351SOL     OW60706   4.062   0.612   3.188  0.5984  0.5065 -0.2453
16351SOL    HW160707   4.035   0.690   3.130 -1.6063 -0.4993 -0.6348
16351SOL    HW260708   4.088   0.535   3.130  1.8775  0.6520  0.1356
16352SOL     OW60709   5.742   9.718   5.793 -0.2463  0.3045 -0.0010
16352SOL    HW160710   5.748   9.817   5.793 -0.9203  0.3504 -0.6086
16352SOL    HW260711   5.821   9.680   5.745  1.6178  0.4217  2.9014
16353SOL     OW60712   5.132   4.043   0.294 -0.8979 -0.5711 -0.2315
16353SOL    HW160713   5.171   4.133   0.316 -0.3073 -0.5324 -1.3748
16353SOL    HW260714   5.041   4.055   0.254 -1.4439 -0.5714  1.0000
16354SOL     OW60715   4.427   0.885   5.053  0.7937 -0.7895 -0.1659
16354SOL    HW160716   4.413   0.904   5.150 -0.6284 -1.4314 -0.2328
16354SOL    HW260717   4.519   0.847   5.040  1.4590  0.4676  0.7467
16355SOL     OW60718   7.664   0.336   3.826  0.0418 -0.0767 -0.2812
16355SOL    HW160719   7.720   0.311   3.747 -0.0157  0.2162 -0.4157
16355SOL    HW260720   7.611   0.418   3.805  0.0135 -0.0071  0.0557
16356SOL     OW60721   8.641   0.404   4.371 -0.0856 -0.0082 -0.5240
16356SOL    HW160722   8.688   0.450   4.446 -1.6526  0.7459  0.0259
16356SOL    HW260723   8.692   0.323   4.344  0.8702  0.1153  0.8734
16357SOL     OW60724   1.128   9.596   0.838 -0.6837  0.2732 -0.4411
16357SOL    HW160725   1.035   9.568   0.814 -1.7561  0.1154  3.5830
16357SOL    HW260726   1.135   9.695   0.834 -0.2895  0.1707 -3.0969
16358SOL     OW60727   0.480   2.574   5.229 -0.0277  0.2449  0.7830
16358SOL    HW160728   0.394   2.565   5.177 -0.4330 -0.0882  1.5018
16358SOL    HW260729   0.555   2.535   5.175 -0.5909 -0.9078  0.7991
16359SOL     OW60730   3.621   8.368   0.434  0.3610  0.1668 -0.0072
16359SOL    HW160731   3.670   8.289   0.471 -0.6582  0.8364  2.9335
16359SOL    HW260732   3.684   8.446   0.427  0.4393  0.1778  0.8182
16360SOL     OW60733   3.089   7.982   1.270  0.8021  0.1661 -0.3224
16360SOL    HW160734   3.141   8.048   1.324  0.6659  0.6395 -0.7694
16360SOL    HW260735   3.002   8.021   1.242  0.3187 -0.5332  0.1836
16361SOL     OW60736   8.984   8.908   5.993 -0.2790  0.2048 -0.1479
16361SOL    HW160737   9.056   8.890   5.927 -1.8492  0.2458 -1.9296
16361SOL    HW260738   8.964   9.006   5.994 -1.3923 -0.0024 -0.8624
16362SOL     OW60739   2.026   6.039   2.845 -0.3925  0.0210  0.1560
16362SOL    HW160740   1.975   5.953   2.838 -0.9731  0.0989  2.6924
16362SOL    HW260741   1.962   6.114   2.863  0.4247  0.3481  1.8594
16363SOL     OW60742   9.252   8.127   7.682 -0.4619 -0.0364  0.2133
16363SOL    HW160743   9.224   8.190   7.610  3.4058  1.5503 -0.0446
16363SOL    HW260744   9.236   8.170   7.771 -1.4770 -0.3228  0.1708
16364SOL     OW60745   4.425   9.796   1.451 -0.2753  0.2929  0.2462
16364SOL    HW160746   4.421   9.792   1.551 -0.0908  0.6379  0.2679
16364SOL    HW260747   4.370   9.722   1.412 -0.5498  0.3125  0.6003
16365SOL     OW60748   2.904   2.872   5.764 -0.3454  0.2189  0.0585
16365SOL    HW160749   2.908   2.970   5.783 -0.0743  0.6640 -2.1179
16365SOL    HW260750   2.809   2.840   5.768 -0.6912  1.0354 -1.3439
16366SOL     OW60751   8.455   4.860   2.649 -0.0734  0.3045  0.6116
16366SOL    HW160752   8.442   4.931   2.719  0.0300 -0.6561  1.6261
16366SOL    HW260753   8.375   4.800   2.648  1.3807 -1.7377  2.3241
16367SOL     OW60754   1.574   5.112   2.093  0.3324  0.2885 -0.2468
16367SOL    HW160755   1.572   5.144   2.188 -0.0849  0.1072 -0.1964
16367SOL    HW260756   1.663   5.134   2.053 -0.0058  1.6793 -0.2631
16368SOL     OW60757   8.274   3.292   5.289 -0.4103  0.3587 -0.1007
16368SOL    HW160758   8.233   3.204   5.267  0.1928  0.2484 -0.8096
16368SOL    HW260759   8.291   3.298   5.388  0.0174 -0.5227 -0.1179
16369SOL     OW60760   6.270   8.970   5.130 -0.0453  0.2870  0.4083
16369SOL    HW160761   6.313   9.024   5.201  1.5889  0.2505 -0.5248
16369SOL    HW260762   6.329   8.968   5.049 -1.5475 -0.2390 -0.7017
16370SOL     OW60763   6.377   8.850   2.135 -0.4169 -0.6306  0.0605
16370SOL    HW160764   6.443   8.924   2.124  0.3735 -1.7373 -3.2134
16370SOL    HW260765   6.421   8.772   2.181 -0.3842 -0.2031  0.7619
16371SOL     OW60766   7.377   3.959   1.758 -0.3326 -0.3670  0.1097
16371SOL    HW160767   7.304   4.026   1.763 -1.0553 -1.1110 -0.4016
16371SOL    HW260768   7.359   3.885   1.822  0.3099 -0.2326  0.4518
16372SOL     OW60769   0.710   4.168   4.805  0.1528  0.0516  0.4728
16372SOL    HW160770   0.732   4.130   4.895  0.4931  0.4507  0.5590
16372SOL    HW260771   0.765   4.249   4.788  0.8360 -0.6090 -0.5286
16373SOL     OW60772   7.136   6.280   6.427 -0.1177  0.2570 -0.3205
16373SOL    HW160773   7.107   6.280   6.523 -1.2160 -0.1278 -0.6553
16373SOL    HW260774   7.184   6.195   6.407 -0.8131 -0.1184 -0.3936
16374SOL     OW60775   3.234   6.942   3.466  0.2643 -0.1282 -0.1005
16374SOL    HW160776   3.318   6.954   3.413  1.2161 -0.8293  1.2038
16374SOL    HW260777   3.255   6.891   3.550 -1.0151  1.8371  1.4496
16375SOL     OW60778   0.544   5.729   3.470 -0.1595 -0.7168  0.4206
16375SOL    HW160779   0.544   5.764   3.376 -0.4552 -0.8506  0.3709
16375SOL    HW260780   0.469   5.771   3.521  1.1019  0.7486  1.1225
16376SOL     OW60781   1.633   8.747   6.506  0.0133  0.5147 -0.3551
16376SOL    HW160782   1.707   8.747   6.573  0.7846 -1.7133 -1.1609
16376SOL    HW260783   1.576   8.828   6.519 -0.2557 -0.2089  3.3984
16377SOL     OW60784   1.055   2.966   2.679 -0.1582 -0.0343  0.0462
16377SOL    HW160785   1.059   3.033   2.605 -0.5929  0.8323  0.7993
16377SOL    HW260786   1.025   2.878   2.643 -0.6666  0.4629 -0.7479
16378SOL     OW60787   9.878   6.830   2.213  0.2165  0.1943 -0.2424
16378SOL    HW160788   9.875   6.836   2.113 -2.3368  2.3724 -0.1104
16378SOL    HW260789   9.784   6.823   2.249  0.8679  2.4924  2.1069
16379SOL     OW60790   5.676   2.818   4.335  0.5920 -0.0866  0.1847
16379SOL    HW160791   5.627   2.874   4.268  0.6768 -1.0226 -0.6869
16379SOL    HW260792   5.745   2.763   4.287  0.5521 -0.8815  1.0325
16380SOL     OW60793   2.714   3.329   3.541 -0.0045  0.0146  0.1577
16380SOL    HW160794   2.736   3.341   3.444  2.1017  1.6711  0.8307
16380SOL    HW260795   2.614   3.327   3.551 -0.2614 -0.7416 -2.0932
16381SOL     OW60796   8.064   4.011   2.075 -0.1154 -0.6092  0.1074
16381SOL    HW160797   8.041   3.990   2.170 -0.6226 -1.0315 -0.1060
16381SOL    HW260798   8.163   4.000   2.061 -0.2200 -1.7977  0.2698
16382SOL     OW60799   8.846   7.454   8.170  0.3413  0.2720  0.0186
16382SOL    HW160800   8.939   7.465   8.206  0.1735 -2.0152  1.2465
16382SOL    HW260801   8.784   7.516   8.218  1.1632  1.5991 -0.6042
16383SOL     OW60802   9.632   4.211   6.757  0.4656  0.5530  0.1290
16383SOL    HW160803   9.616   4.199   6.659 -1.7842  2.0834  0.2681
16383SOL    HW260804   9.704   4.279   6.771  0.2365  0.9182 -0.4421
16384SOL     OW60805   7.415   7.425   5.213  0.7111 -0.1155  0.3654
16384SOL    HW160806   7.356   7.480   5.273  1.8339  0.8156  0.6185
16384SOL    HW260807   7.437   7.338   5.258 -0.8855 -0.7023  0.0554
16385SOL     OW60808   5.605   0.764   4.504  0.2055 -0.0767 -0.2603
16385SOL    HW160809   5.515   0.803   4.483 -0.4977 -2.2692 -1.5334
16385SOL    HW260810   5.663   0.768   4.423  1.1438  1.0265  0.4645
16386SOL     OW60811   7.984   7.727   2.319 -0.2868  0.0529 -0.2434
16386SOL    HW160812   7.961   7.633   2.344 -0.7432 -0.0989 -1.1916
16386SOL    HW260813   7.925   7.757   2.243  0.2999  0.8702 -0.3878
16387SOL     OW60814   7.801   6.871   5.420  0.4217  0.1337  0.4291
16387SOL    HW160815   7.741   6.902   5.346  0.7741  0.4174  0.2589
16387SOL    HW260816   7.810   6.772   5.417 -0.5708  0.0272  0.8625
16388SOL     OW60817   0.509   4.153   8.153 -0.7325 -0.2469  0.1749
16388SOL    HW160818   0.598   4.189   8.183 -0.4696 -0.6400 -0.1343
16388SOL    HW260819   0.500   4.058   8.182 -0.8204 -0.3785 -0.2710
16389SOL     OW60820   1.150   1.199   4.250  0.2560  0.1998 -0.3520
16389SOL    HW160821   1.092   1.143   4.191  3.0141 -1.9532 -1.0731
16389SOL    HW260822   1.108   1.204   4.341 -1.2969 -0.9423 -0.9705
16390SOL     OW60823   8.659   7.897   1.392  0.4186  0.1881  0.0636
16390SOL    HW160824   8.759   7.896   1.401  0.4107 -0.4947  0.0784
16390SOL    HW260825   8.617   7.868   1.478  0.2283 -0.3126 -0.1928
16391SOL     OW60826   9.149   0.863   1.829 -0.2484  0.1149 -0.0856
16391SOL    HW160827   9.131   0.929   1.902  1.5747  2.0470 -1.3218
16391SOL    HW260828   9.095   0.781   1.844 -0.3785  0.7268  3.1038
16392SOL     OW60829   7.060   3.264   2.314  0.4043  0.0376  0.5542
16392SOL    HW160830   7.106   3.278   2.401 -0.6128 -2.6525  1.5898
16392SOL    HW260831   7.127   3.260   2.240  1.4807  0.0083  1.5259
16393SOL     OW60832   3.004   5.480   6.516  0.3026  0.5456  0.5928
16393SOL    HW160833   2.922   5.493   6.573  0.0459  1.6246 -0.0210
16393SOL    HW260834   3.030   5.566   6.474  0.8326 -0.1304 -0.4890
16394SOL     OW60835   1.587   4.701   3.612  0.8538 -0.2214  0.7784
16394SOL    HW160836   1.654   4.754   3.560  0.1623  0.3553  0.4636
16394SOL    HW260837   1.591   4.727   3.708  0.8105  0.0892  0.6954
16395SOL     OW60838   2.698   3.772   7.824 -1.1792 -0.1511  0.2485
16395SOL    HW160839   2.752   3.854   7.845 -0.2231 -1.5790  3.6524
16395SOL    HW260840   2.616   3.771   7.881 -1.2466 -1.4925  0.1358
16396SOL     OW60841   3.342   8.792   2.377  0.0074 -0.4894 -0.5005
16396SOL    HW160842   3.387   8.726   2.437 -0.7225 -0.0482  0.5489
16396SOL    HW260843   3.410   8.850   2.332  0.4814  0.4495  1.3989
16397SOL     OW60844   8.834   4.825   3.609 -0.2319  0.0723  0.3105
16397SOL    HW160845   8.790   4.737   3.589  0.0065 -0.0129  0.1554
16397SOL    HW260846   8.897   4.813   3.686  0.3243 -0.0584 -0.1560
16398SOL     OW60847   0.613   1.817   2.884  0.7257  0.2840 -0.1894
16398SOL    HW160848   0.628   1.815   2.983  2.0249 -1.0496 -0.3953
16398SOL    HW260849   0.540   1.754   2.860  0.8578  0.1198 -0.1573
16399SOL     OW60850   9.671   3.088   5.738 -0.1220 -0.0789  0.4195
16399SOL    HW160851   9.638   2.998   5.767  0.2653 -0.1604  0.6114
16399SOL    HW260852   9.723   3.129   5.813 -0.1171  0.2138  0.2547
16400SOL     OW60853   9.253   8.128   4.723 -0.1744 -0.2605 -0.4064
16400SOL    HW160854   9.322   8.092   4.786  0.6557 -0.3347 -1.3477
16400SOL    HW260855   9.172   8.155   4.775  0.0478 -1.3982  0.5691
16401SOL     OW60856   9.282   1.497   4.670  0.2863 -0.0484  0.1232
16401SOL    HW160857   9.240   1.452   4.591 -0.6452  0.6441  0.2061
16401SOL    HW260858   9.214   1.557   4.714  1.7553  2.2262 -0.5860
16402SOL     OW60859   7.903   8.942   1.540  0.2712 -0.1208 -0.0508
16402SOL    HW160860   7.979   8.888   1.506  1.3463  0.5327  1.2591
16402SOL    HW260861   7.918   9.038   1.517 -1.0423 -0.2127 -1.3362
16403SOL     OW60862   5.884   7.213   5.254 -0.6120  0.6162  0.1628
16403SOL    HW160863   5.855   7.261   5.171 -0.1769  1.1229  0.2985
16403SOL    HW260864   5.840   7.256   5.333  2.1939  2.8544  0.5962
16404SOL     OW60865   8.199   9.315   7.016 -0.2257 -0.5697  0.1574
16404SOL    HW160866   8.268   9.377   6.978 -1.7789  1.8320  1.0999
16404SOL    HW260867   8.116   9.319   6.960 -0.6587 -1.0853  0.7537
16405SOL     OW60868   9.126   2.534   7.405  0.1575 -0.3946  0.1633
16405SOL    HW160869   9.046   2.533   7.465 -0.0152 -0.0437 -0.0563
16405SOL    HW260870   9.208   2.514   7.459 -0.0110 -0.2196  0.4928
16406SOL     OW60871   3.968   3.479   1.652  0.5667  0.3140 -0.1750
16406SOL    HW160872   4.008   3.420   1.723 -1.0531 -0.1737  0.3391
16406SOL    HW260873   4.042   3.526   1.604  1.7003  0.7434  1.8983
16407SOL     OW60874   4.433   9.812   1.738 -0.1256 -0.1357 -0.0930
16407SOL    HW160875   4.456   9.739   1.803 -2.5628  0.0414  1.0351
16407SOL    HW260876   4.456   9.901   1.778 -0.4119 -0.1050  0.0095
16408SOL     OW60877   4.799   1.455   6.049  0.0644 -0.2187  0.8989
16408SOL    HW160878   4.899   1.453   6.038  0.0556 -0.1958  0.8121
16408SOL    HW260879   4.774   1.531   6.109 -0.1601  2.1236 -2.0042
16409SOL     OW60880   2.739   0.511   5.588 -0.2567  0.5021  0.8136
16409SOL    HW160881   2.660   0.572   5.579 -1.0325 -0.3108  2.0156
16409SOL    HW260882   2.758   0.468   5.500 -0.0677  2.0163  0.0912
16410SOL     OW60883   3.115   8.316   1.793 -0.0918  0.4141 -0.5176
16410SOL    HW160884   3.100   8.239   1.854 -1.2102  0.1992 -1.0448
16410SOL    HW260885   3.213   8.330   1.780  0.1224 -0.6287 -0.0539
16411SOL     OW60886   2.496   7.014   3.407 -0.5596 -0.3105 -0.2934
16411SOL    HW160887   2.567   6.993   3.474 -1.1857 -0.4387  0.3266
16411SOL    HW260888   2.432   6.937   3.401 -1.4144  0.3768  0.1239
16412SOL     OW60889   0.903   8.484   0.266 -0.0374 -0.4027 -0.2802
16412SOL    HW160890   0.940   8.566   0.308  0.6574 -1.4498  1.2005
16412SOL    HW260891   0.925   8.484   0.168  1.2566  0.4477  0.0035
16413SOL     OW60892   4.311   3.193   1.875 -0.1248 -0.1674  0.2197
16413SOL    HW160893   4.359   3.279   1.894 -2.6273  1.2886  0.0851
16413SOL    HW260894   4.343   3.122   1.939  1.0266  1.1749  1.1678
16414SOL     OW60895   5.026   6.751   1.227  0.3628  0.1393  0.2147
16414SOL    HW160896   5.100   6.764   1.161  1.2703  0.4649  1.2871
16414SOL    HW260897   4.992   6.840   1.258  0.9040 -0.0086  1.2534
16415SOL     OW60898   9.288   0.883   0.494 -0.2800  0.1066  0.1467
16415SOL    HW160899   9.319   0.808   0.552  1.0454  0.0892 -0.5701
16415SOL    HW260900   9.327   0.969   0.525 -1.3406  0.4346  0.6128
16416SOL     OW60901   1.113   9.612   7.190 -0.5427 -0.0660  0.2580
16416SOL    HW160902   1.200   9.566   7.171  0.5563  1.4942  1.3384
16416SOL    HW260903   1.067   9.567   7.267  0.0978  0.0902  0.7358
16417SOL     OW60904   6.886   3.341   8.190  0.2939 -0.1446 -0.8631
16417SOL    HW160905   6.871   3.402   8.267  1.1940  0.0400 -0.8198
16417SOL    HW260906   6.876   3.393   8.105  0.2750 -0.1175 -0.8443
16418SOL     OW60907   6.309   5.236   8.002 -0.0654 -0.4676 -0.0107
16418SOL    HW160908   6.293   5.333   8.019 -1.8684 -0.7096 -0.2684
16418SOL    HW260909   6.404   5.223   7.971 -0.4000  1.4591 -1.9293
16419SOL     OW60910   0.244   9.032   2.607 -0.5935 -0.1102  0.6037
16419SOL    HW160911   0.334   9.074   2.603 -1.2176  1.0823 -1.3851
16419SOL    HW260912   0.237   8.959   2.539 -1.6165  0.8063 -0.2845
16420SOL     OW60913   1.414   5.197   8.203  0.4031 -0.8343 -0.5368
16420SOL    HW160914   1.352   5.269   8.236  2.6008  1.3505 -0.9942
16420SOL    HW260915   1.361   5.121   8.166 -1.9870  0.7986 -0.5594
16421SOL     OW60916   8.470   2.515   0.700 -0.8038 -0.2129 -0.7409
16421SOL    HW160917   8.388   2.460   0.684 -1.7539  1.6149 -2.3826
16421SOL    HW260918   8.467   2.552   0.793 -0.6947 -2.0151 -0.0047
16422SOL     OW60919   9.523   1.964   2.333 -0.0812 -0.2642 -0.2540
16422SOL    HW160920   9.521   2.024   2.254  0.3479  0.1900  0.0787
16422SOL    HW260921   9.431   1.957   2.372  0.0017  0.7729  0.1478
16423SOL     OW60922   3.589   1.889   2.860 -0.5570 -0.3146  0.4698
16423SOL    HW160923   3.655   1.877   2.785 -0.4788  0.8378  0.3373
16423SOL    HW260924   3.615   1.832   2.937 -0.0362 -0.7123  0.0047
16424SOL     OW60925   3.880   1.860   7.809  0.4904 -0.1107  0.3872
16424SOL    HW160926   3.780   1.860   7.800  0.4453 -1.6051  0.7920
16424SOL    HW260927   3.905   1.840   7.904  1.1736  1.4186  0.5463
16425SOL     OW60928   4.159   5.768   1.036  0.5355 -0.4295  0.8107
16425SOL    HW160929   4.070   5.742   1.073  0.6198 -1.8384  0.0361
16425SOL    HW260930   4.157   5.765   0.936  1.3227 -0.0406  0.7753
16426SOL     OW60931   0.726   4.313   0.064  0.7579  0.0317 -0.2247
16426SOL    HW160932   0.678   4.346   0.145 -0.0296 -0.4395 -0.4883
16426SOL    HW260933   0.769   4.390   0.017  1.7554  0.2280  0.9701
16427SOL     OW60934   4.058   3.333   0.104 -0.0159  0.9007  0.1802
16427SOL    HW160935   4.077   3.249   0.154 -0.7062  0.0576 -0.9385
16427SOL    HW260936   3.960   3.339   0.085 -0.2285  2.8354  1.7660
16428SOL     OW60937   9.197   6.488   6.690  0.2557  0.1525 -0.7269
16428SOL    HW160938   9.252   6.572   6.695 -0.3791  0.5982 -1.1883
16428SOL    HW260939   9.249   6.418   6.641  1.1074  0.0154  0.3386
16429SOL     OW60940   2.421   0.154   6.113  0.2005 -0.1189 -0.7820
16429SOL    HW160941   2.368   0.084   6.064 -1.0433 -0.6201  1.1989
16429SOL    HW260942   2.454   0.116   6.199 -0.2584  1.6296  0.1982
16430SOL     OW60943   2.457   1.311   5.116 -0.9851  0.3352 -0.0435
16430SOL    HW160944   2.488   1.399   5.079 -1.8842  0.2326 -1.0743
16430SOL    HW260945   2.381   1.326   5.178  0.1956  0.4603  1.3953
16431SOL     OW60946   7.458   3.279   8.200  0.2477  0.6019  0.2087
16431SOL    HW160947   7.520   3.315   8.270 -0.4980  1.9516  0.2070
16431SOL    HW260948   7.365   3.308   8.221 -0.0215  0.7683 -1.1763
16432SOL     OW60949   4.896   4.715   1.794 -0.0363  0.2154 -0.2701
16432SOL    HW160950   4.851   4.627   1.779 -0.1320  0.2471 -0.1762
16432SOL    HW260951   4.935   4.717   1.886  1.3922 -0.3450 -0.8586
16433SOL     OW60952   1.272   4.474   2.742  0.0856  0.9894 -0.1886
16433SOL    HW160953   1.233   4.565   2.756 -1.7785  0.1869 -0.0078
16433SOL    HW260954   1.206   4.417   2.692  0.9853 -0.4409  0.2378
16434SOL     OW60955   7.967   0.363   6.731 -0.3608  0.2343  0.4341
16434SOL    HW160956   8.058   0.320   6.735 -0.4259  0.1553  1.2077
16434SOL    HW260957   7.976   0.456   6.696 -0.0786 -0.0296 -0.2141
16435SOL     OW60958   4.918   7.897   5.721 -0.0014 -0.3096  0.7102
16435SOL    HW160959   4.860   7.880   5.801  1.4637  0.4238  1.9716
16435SOL    HW260960   4.931   7.811   5.671 -1.2532 -0.6976  1.0300
16436SOL     OW60961   4.868   2.851   6.822  0.1546 -0.0187 -0.1622
16436SOL    HW160962   4.786   2.866   6.767 -0.2309  0.2166  0.4607
16436SOL    HW260963   4.901   2.939   6.858  1.0966 -0.0283 -0.9917
16437SOL     OW60964   8.768   5.578   3.093  0.0576 -0.3804 -0.1316
16437SOL    HW160965   8.857   5.614   3.120 -0.7714  0.8279  1.0487
16437SOL    HW260966   8.696   5.627   3.142 -1.3367 -0.3783 -2.1335
16438SOL     OW60967   1.652   9.819   5.407 -0.5356 -0.5916  0.4295
16438SOL    HW160968   1.723   9.888   5.395 -0.6237 -0.4799  0.5554
16438SOL    HW260969   1.582   9.852   5.469 -0.9430 -0.5131 -0.0685
16439SOL     OW60970   2.927   6.724   6.952  0.1376  0.0029 -0.1415
16439SOL    HW160971   2.847   6.713   6.893  0.5347 -0.1024 -0.6634
16439SOL    HW260972   2.985   6.797   6.917 -0.0140  0.4647  0.5618
16440SOL     OW60973   3.204   6.927   7.580  0.2137  0.0648  0.0066
16440SOL    HW160974   3.196   6.914   7.679  0.2159  1.1988  0.1645
16440SOL    HW260975   3.121   6.973   7.546  0.1934 -0.3638 -0.5236
16441SOL     OW60976   8.766   8.321   7.345 -0.0805 -0.0259 -0.2750
16441SOL    HW160977   8.809   8.257   7.281 -0.9260  0.8992 -1.8091
16441SOL    HW260978   8.836   8.360   7.405  0.6041 -1.5351 -0.0730
16442SOL     OW60979   9.829   1.442   0.973  0.2680 -0.0246 -0.2707
16442SOL    HW160980   9.892   1.511   1.007  0.3206 -0.5013  0.6162
16442SOL    HW260981   9.735   1.475   0.983  0.2957 -0.0579  0.0986
16443SOL     OW60982   0.121   9.689   3.727  0.8664 -0.2745  0.0061
16443SOL    HW160983   0.199   9.742   3.694  1.0323 -0.1881  0.5383
16443SOL    HW260984   0.037   9.720   3.681  0.9114  0.6746  0.5647
16444SOL     OW60985   1.186   2.283   6.593 -0.1423 -0.6153  0.5528
16444SOL    HW160986   1.186   2.383   6.593 -1.5783 -0.5905  2.5328
16444SOL    HW260987   1.211   2.249   6.684  0.1821 -2.0566 -0.0596
16445SOL     OW60988   1.739   5.051   6.064 -0.8276  0.0046  0.4595
16445SOL    HW160989   1.794   5.042   6.147 -2.0886  2.4418  1.6080
16445SOL    HW260990   1.756   5.140   6.022  0.6154 -1.6054 -2.5634
16446SOL     OW60991   9.032   0.415   7.128 -0.2250  0.4765 -0.3062
16446SOL    HW160992   8.995   0.422   7.035 -0.0117  0.3420 -0.4010
16446SOL    HW260993   9.044   0.319   7.152 -1.8403  0.4558  0.4761
16447SOL     OW60994   0.708   7.840   0.462  0.3389  0.0126  0.8383
16447SOL    HW160995   0.722   7.921   0.519 -0.7925 -1.0411  2.6470
16447SOL    HW260996   0.698   7.759   0.520 -1.6809 -0.9751 -0.8067
16448SOL     OW60997   7.201   9.441   2.530 -0.5902 -0.3390  0.0648
16448SOL    HW160998   7.193   9.451   2.629 -1.9222 -0.2978 -0.0357
16448SOL    HW260999   7.198   9.531   2.487  1.9120 -0.2115  0.0947
16449SOL     OW61000   8.381   4.355   6.499 -0.2081  0.0475  0.4374
16449SOL    HW161001   8.458   4.361   6.436 -0.8568 -0.6951 -0.4490
16449SOL    HW261002   8.415   4.336   6.591  0.5965 -1.7295 -0.1999
16450SOL     OW61003   6.699   8.021   4.724 -0.1263 -0.0027 -1.3120
16450SOL    HW161004   6.663   8.109   4.756 -0.7928 -1.0030  0.7885
16450SOL    HW261005   6.623   7.956   4.716  0.7810 -1.2763  0.2147
16451SOL     OW61006   8.351   9.981   4.462 -0.1889  0.6945  0.3708
16451SOL    HW161007   8.432  10.017   4.507 -0.0737  0.3937  0.4077
16451SOL    HW261008   8.378   9.906   4.400 -0.7974 -1.7093  2.9071
16452SOL     OW61009   9.584   3.947   2.402  0.3770 -0.2734  0.1572
16452SOL    HW161010   9.544   3.872   2.454 -0.3881  0.2955  0.3876
16452SOL    HW261011   9.646   3.999   2.461 -0.6736  0.5149  0.5734
16453SOL     OW61012   6.606   9.037   6.005 -0.1104  0.4896  0.1014
16453SOL    HW161013   6.522   9.015   5.957 -0.5888  1.5057  0.4722
16453SOL    HW261014   6.593   9.025   6.104  0.8006 -1.3716  0.0412
16454SOL     OW61015   4.855   8.405   0.824 -0.0107 -0.2803  0.0656
16454SOL    HW161016   4.873   8.469   0.749 -1.1137 -1.0667 -0.8884
16454SOL    HW261017   4.794   8.448   0.891 -0.2119 -0.0965 -0.2352
16455SOL     OW61018   0.669   8.888   1.711 -0.6514  0.2437  0.0562
16455SOL    HW161019   0.769   8.888   1.703 -0.4210 -2.8649  1.7503
16455SOL    HW261020   0.630   8.833   1.637 -0.9285 -0.2134  0.5348
16456SOL     OW61021   3.241   6.164   4.759  0.1063  0.6155 -0.1993
16456SOL    HW161022   3.321   6.214   4.792 -0.0882  0.2297  0.8674
16456SOL    HW261023   3.227   6.083   4.815 -1.8514  1.4110  0.4922
16457SOL     OW61024   9.821   5.984   6.741  0.0505  0.1752  0.6938
16457SOL    HW161025   9.894   5.919   6.717  0.1729  0.2375  0.9002
16457SOL    HW261026   9.829   6.065   6.684 -0.4841 -0.2572 -0.0075
16458SOL     OW61027   5.338   1.052   3.583  0.4363 -0.0215  0.0085
16458SOL    HW161028   5.420   0.997   3.597 -0.0563 -0.5384  0.9465
16458SOL    HW261029   5.364   1.145   3.555  1.3296 -0.2121  0.1881
16459SOL     OW61030   9.682   2.943   5.080  0.0590  0.0655  0.7463
16459SOL    HW161031   9.675   2.881   5.159  0.4878 -0.1045  0.6530
16459SOL    HW261032   9.761   3.003   5.093  0.1005  0.0710  0.4747
16460SOL     OW61033   6.513   0.912   1.222  0.3411 -0.0684 -0.4275
16460SOL    HW161034   6.520   0.894   1.321  0.5819 -1.1748 -0.6379
16460SOL    HW261035   6.484   0.828   1.175 -1.3579  0.8810 -1.1177
16461SOL     OW61036   7.633   1.382   6.293  0.9521 -0.2640  0.1372
16461SOL    HW161037   7.730   1.369   6.311  0.7753  0.0377  1.3196
16461SOL    HW261038   7.615   1.479   6.273  0.5813  0.0457  1.9215
16462SOL     OW61039   6.539   9.562   2.437 -0.4313 -0.7492 -0.0179
16462SOL    HW161040   6.593   9.478   2.429 -1.5920 -1.4776 -0.2092
16462SOL    HW261041   6.593   9.639   2.403 -0.8738 -2.0046 -3.7974
16463SOL     OW61042   5.624   4.988   1.261 -0.5698  0.5590 -0.1648
16463SOL    HW161043   5.681   4.912   1.227  1.8362  1.0256  2.5751
16463SOL    HW261044   5.576   4.959   1.343  0.4759  1.9943  0.9860
16464SOL     OW61045   2.779   8.775   4.087  0.3788 -0.2036  0.0854
16464SOL    HW161046   2.872   8.809   4.101  0.1685 -0.0986  1.3511
16464SOL    HW261047   2.716   8.852   4.078  0.0289 -0.2373  2.0519
16465SOL     OW61048   1.210   8.164   0.720 -0.5442  0.2026 -0.2280
16465SOL    HW161049   1.158   8.087   0.757 -0.7362  0.3816 -0.1246
16465SOL    HW261050   1.298   8.131   0.686  0.5900  0.3453  2.4144
16466SOL     OW61051   7.377   2.909   5.526  0.3103  0.1515 -0.0988
16466SOL    HW161052   7.370   2.989   5.585  0.1538 -0.6508  0.9918
16466SOL    HW261053   7.332   2.831   5.570 -0.2670 -0.3227 -1.5238
16467SOL     OW61054   3.966   7.267   3.245 -0.2181  0.3947 -0.1117
16467SOL    HW161055   3.944   7.347   3.189 -1.5924 -1.3269 -2.0944
16467SOL    HW261056   4.048   7.223   3.209 -0.8889 -0.5038 -0.5416
16468SOL     OW61057   2.633   5.522   4.779 -0.0764 -0.0496 -0.0177
16468SOL    HW161058   2.686   5.469   4.845  0.9403  0.5048 -0.3885
16468SOL    HW261059   2.692   5.553   4.705 -0.9054  0.6199 -0.4095
16469SOL     OW61060   0.430   9.454   0.017  0.0049 -0.7339 -0.2384
16469SOL    HW161061   0.524   9.428  -0.004 -0.2190 -0.6032 -1.4265
16469SOL    HW261062   0.369   9.376   0.001  0.0280 -1.1306  1.5046
16470SOL     OW61063   3.699   9.980   4.841 -0.4040  0.3359 -0.0968
16470SOL    HW161064   3.713   9.926   4.759 -1.2716 -0.3228  0.1773
16470SOL    HW261065   3.603   9.975   4.868 -0.2505  1.0514  0.6034
16471SOL     OW61066   0.129   0.296   1.655  0.6216  0.5366 -0.1384
16471SOL    HW161067   0.125   0.261   1.562  1.6201 -0.2484  0.1019
16471SOL    HW261068   0.215   0.344   1.670  0.4034  0.7880  0.3312
16472SOL     OW61069   6.621   4.181   7.618  0.5018 -0.5963 -0.3009
16472SOL    HW161070   6.544   4.117   7.611  1.1008 -1.2115 -1.3634
16472SOL    HW261071   6.661   4.195   7.528  0.1042  1.6576 -0.1589
16473SOL     OW61072   2.787   7.920   2.769  0.5096 -0.0226  0.0794
16473SOL    HW161073   2.818   7.956   2.681  0.4935 -1.5640 -0.5721
16473SOL    HW261074   2.701   7.964   2.795  0.2264  0.0467 -0.9571
16474SOL     OW61075   9.479   9.063   2.013 -0.0582  0.2320  0.2148
16474SOL    HW161076   9.435   9.115   1.940 -1.4042 -0.1258  0.7642
16474SOL    HW261077   9.410   9.031   2.078  0.9241 -0.9750  0.6792
16475SOL     OW61078   7.872   6.272   1.218  0.2831 -0.7214 -0.4615
16475SOL    HW161079   7.784   6.281   1.172 -0.6556  0.5283  1.4800
16475SOL    HW261080   7.907   6.363   1.240  1.4610 -1.2502 -0.1135
16476SOL     OW61081   5.523   1.029   5.340 -0.5066  0.2756 -0.0989
16476SOL    HW161082   5.472   1.082   5.272 -0.1324  3.4176  1.9902
16476SOL    HW261083   5.620   1.052   5.334 -0.1098 -1.3385 -0.1512
16477SOL     OW61084   8.727   3.460   7.722 -0.4594 -0.1756 -0.4444
16477SOL    HW161085   8.642   3.488   7.678 -0.6253  0.2256  0.1268
16477SOL    HW261086   8.722   3.479   7.820  0.9217  1.4857 -0.6499
16478SOL     OW61087   5.893   8.543   3.746 -0.4362  0.0197  0.0393
16478SOL    HW161088   5.964   8.579   3.686 -0.3211  0.5859  0.5100
16478SOL    HW261089   5.881   8.604   3.824  1.1043 -1.9132  1.8532
16479SOL     OW61090   0.662   2.612   1.133 -0.3481 -0.1564 -0.6605
16479SOL    HW161091   0.732   2.679   1.158 -0.2988 -1.2374  2.3530
16479SOL    HW261092   0.697   2.520   1.145 -1.3424 -0.7298 -2.0102
16480SOL     OW61093   8.364   1.263   4.814  0.1321  0.3807 -0.4678
16480SOL    HW161094   8.306   1.300   4.741 -0.0408  0.3924 -0.3245
16480SOL    HW261095   8.346   1.165   4.824 -0.8467  0.6444  0.4881
16481SOL     OW61096   7.523   8.896   2.862  0.3447  0.4968  0.9840
16481SOL    HW161097   7.489   8.804   2.883 -1.4437  1.0545  0.6315
16481SOL    HW261098   7.591   8.923   2.930  0.8169 -1.0454  1.1500
16482SOL     OW61099   3.871   9.267   7.033 -0.2734  0.0709  0.3920
16482SOL    HW161100   3.953   9.224   7.071 -0.3041 -0.5388 -0.2382
16482SOL    HW261101   3.845   9.223   6.947 -0.8197  0.7611  0.1868
16483SOL     OW61102   8.829   9.438   6.045  0.3023  0.6941 -0.4952
16483SOL    HW161103   8.784   9.398   5.965  0.2550  1.6299 -0.9369
16483SOL    HW261104   8.760   9.477   6.106  0.4354  1.2309 -0.6840
16484SOL     OW61105   4.004   0.402   5.893 -0.1631 -0.4288  0.1068
16484SOL    HW161106   3.946   0.405   5.974 -0.7613  0.7794 -0.3615
16484SOL    HW261107   4.063   0.482   5.891 -0.4814 -0.2101 -0.8920
16485SOL     OW61108   8.717   5.186   5.434 -0.1308 -0.4889  0.2731
16485SOL    HW161109   8.715   5.264   5.371  1.1194  0.1896  1.0659
16485SOL    HW261110   8.715   5.219   5.528  1.5357 -1.3666  0.6312
16486SOL     OW61111   0.572   1.476   6.784 -0.7865  0.3956 -0.0837
16486SOL    HW161112   0.541   1.570   6.798 -2.1560 -0.0194 -0.2275
16486SOL    HW261113   0.671   1.472   6.789 -0.6312  2.0768 -1.3737
16487SOL     OW61114   6.055   1.174   7.347 -0.2746  0.9163 -0.2787
16487SOL    HW161115   5.987   1.171   7.274  1.5688 -1.0574 -1.9783
16487SOL    HW261116   6.037   1.101   7.413 -0.5293  1.1787 -0.0570
16488SOL     OW61117   8.039   5.488   2.550 -0.4811 -0.3734 -0.1028
16488SOL    HW161118   8.127   5.501   2.503 -0.5162  3.9476  0.7705
16488SOL    HW261119   8.055   5.440   2.636  0.7779 -1.0980 -0.7196
16489SOL     OW61120   5.264   9.906   1.967  0.3968  0.2479 -0.0870
16489SOL    HW161121   5.181   9.962   1.969 -0.6580 -1.2401 -0.7027
16489SOL    HW261122   5.244   9.816   2.005  1.9977  0.1879  0.6486
16490SOL     OW61123   6.079   5.194   7.500  0.2642 -0.2239 -0.1496
16490SOL    HW161124   5.988   5.190   7.459  0.7684 -1.3554 -1.1957
16490SOL    HW261125   6.071   5.203   7.599 -0.9842 -1.7089 -0.0996
16491SOL     OW61126   4.421   3.820   8.004  0.5003  0.3789  0.6466
16491SOL    HW161127   4.380   3.850   7.918  0.6003 -1.5848 -0.1008
16491SOL    HW261128   4.416   3.894   8.071 -0.4153  1.6009 -0.7591
16492SOL     OW61129   0.376   6.230   6.053 -0.1594 -0.1643 -0.2731
16492SOL    HW161130   0.406   6.325   6.041  1.4217 -0.4971  1.0149
16492SOL    HW261131   0.366   6.210   6.150 -1.2713 -1.0931 -0.5692
16493SOL     OW61132   7.580   8.648   5.258 -0.9200  0.7272  0.1269
16493SOL    HW161133   7.640   8.667   5.180 -1.7113 -0.5160 -0.8065
16493SOL    HW261134   7.630   8.593   5.325 -0.4510  1.2173  0.1823
16494SOL     OW61135   8.664   1.027   7.541  0.1185 -0.3288  0.2881
16494SOL    HW161136   8.734   1.016   7.612  2.0528 -1.5975 -1.7387
16494SOL    HW261137   8.603   0.947   7.542  0.4861 -0.6150  0.1692
16495SOL     OW61138   9.478   8.268   7.596 -0.1724 -0.2099 -0.2463
16495SOL    HW161139   9.408   8.203   7.625  0.3685  0.1185  1.8401
16495SOL    HW261140   9.458   8.358   7.635  1.1723 -0.0134  0.0243
16496SOL     OW61141   1.941   5.843   8.124 -0.5392  0.3705  0.6068
16496SOL    HW161142   1.958   5.809   8.217 -0.9392 -1.3739  0.0468
16496SOL    HW261143   2.005   5.800   8.060  0.6022  2.5160  0.2207
16497SOL     OW61144   2.883   0.165   5.560 -0.1897  0.3368  0.8140
16497SOL    HW161145   2.845   0.074   5.542 -3.0205  1.5848  0.2472
16497SOL    HW261146   2.854   0.196   5.650 -1.3038  1.6828  0.0141
16498SOL     OW61147   2.568   3.918   7.084  0.6620  0.1887  0.0983
16498SOL    HW161148   2.558   3.936   7.182  1.5941  0.5275  0.1371
16498SOL    HW261149   2.620   3.993   7.042 -0.7001  0.6166 -0.8615
16499SOL     OW61150   9.766   2.031   4.920  0.3076  0.0296 -0.5154
16499SOL    HW161151   9.857   2.006   4.955  0.6128  0.2131 -1.1777
16499SOL    HW261152   9.696   1.984   4.973  0.7978 -0.2237 -0.0905
16500SOL     OW61153   1.777   7.587   1.862  0.5705 -0.0375  0.2715
16500SOL    HW161154   1.858   7.642   1.882 -0.2716  0.9980  0.9615
16500SOL    HW261155   1.709   7.602   1.934 -1.6297  1.9012 -2.0878
16501SOL     OW61156   7.687   0.596   1.265  0.3374 -0.4420  0.5803
16501SOL    HW161157   7.596   0.588   1.226  0.2394  0.3746  0.6364
16501SOL    HW261158   7.754   0.602   1.191  0.3137 -0.7147  0.5379
16502SOL     OW61159   3.559   0.553   1.451  0.8169  0.2009 -0.4468
16502SOL    HW161160   3.653   0.554   1.416  0.6111  0.0036 -1.0076
16502SOL    HW261161   3.534   0.644   1.483  1.5175  0.0554  0.5600
16503SOL     OW61162   1.428   6.748   5.855 -0.3843  0.0175 -0.5043
16503SOL    HW161163   1.362   6.679   5.886 -0.1328  0.0884  0.1912
16503SOL    HW261164   1.517   6.731   5.898 -0.4835  1.1585  0.1631
16504SOL     OW61165   0.930   0.682   0.263 -0.0750 -0.5173  0.2419
16504SOL    HW161166   0.971   0.669   0.353 -0.7157  4.1379  1.3664
16504SOL    HW261167   1.001   0.674   0.193  1.2458 -0.2052  1.5184
16505SOL     OW61168   2.192   0.459   0.392  0.2990 -0.5657  0.1561
16505SOL    HW161169   2.274   0.450   0.335  0.1842  1.0587 -0.3003
16505SOL    HW261170   2.125   0.389   0.366  0.7242 -0.5935 -0.8844
16506SOL     OW61171   0.209   6.997   3.841 -0.1679  0.4200 -0.5294
16506SOL    HW161172   0.263   6.930   3.891 -0.6757  0.4109  0.0177
16506SOL    HW261173   0.238   7.000   3.746 -0.2410 -0.6818 -0.5879
16507SOL     OW61174   2.770   0.349   7.685  0.2037 -0.1006  0.0602
16507SOL    HW161175   2.819   0.395   7.612 -0.7461 -2.5309 -2.2077
16507SOL    HW261176   2.830   0.282   7.729  0.2565  0.1002  0.2913
16508SOL     OW61177   8.574   0.055   2.081  0.3149  0.0014 -0.5963
16508SOL    HW161178   8.503   0.076   2.015 -1.4865  0.2075  1.3609
16508SOL    HW261179   8.536  -0.001   2.155  2.2824 -0.2745  0.2472
16509SOL     OW61180   4.986   1.962   4.121  0.2484  0.3406  0.1684
16509SOL    HW161181   5.041   2.044   4.102  0.8353 -0.0741  0.0372
16509SOL    HW261182   5.020   1.917   4.204  0.4881 -0.2402 -0.2388
16510SOL     OW61183   2.004   7.737   2.438  0.1628 -0.2115 -0.2358
16510SOL    HW161184   1.927   7.711   2.496 -0.1137  0.8068 -0.1413
16510SOL    HW261185   2.051   7.816   2.478 -1.2153  1.7411 -2.4108
16511SOL     OW61186   6.094   7.483   5.198  0.0492  0.0800 -0.0963
16511SOL    HW161187   6.143   7.402   5.168 -0.3793 -0.7896  1.4739
16511SOL    HW261188   6.103   7.493   5.297 -0.9424  1.2434 -0.1048
16512SOL     OW61189   7.346   6.562   7.026 -0.1252  0.1995 -0.1312
16512SOL    HW161190   7.386   6.588   7.114  0.5272  0.3099 -0.4572
16512SOL    HW261191   7.251   6.593   7.022 -0.4717 -0.6760  0.9271
16513SOL     OW61192   9.232   0.334   3.853 -0.3581 -0.0764 -0.2317
16513SOL    HW161193   9.279   0.327   3.941  0.3558 -0.2022 -0.6186
16513SOL    HW261194   9.134   0.319   3.866  0.0414 -2.4990  0.2028
16514SOL     OW61195   9.426   8.758   1.765 -0.2047 -0.4543 -0.1125
16514SOL    HW161196   9.369   8.697   1.710 -0.5581  0.0236 -0.2770
16514SOL    HW261197   9.368   8.810   1.827 -0.2151  1.6637 -1.8278
16515SOL     OW61198   9.807   8.436   1.580  0.4379  0.6931 -0.0114
16515SOL    HW161199   9.819   8.516   1.522 -0.6049 -0.5635 -1.9870
16515SOL    HW261200   9.729   8.451   1.641  1.6990  2.1192  1.2994
16516SOL     OW61201   9.567   9.551   1.384 -0.0762 -0.1597 -0.5066
16516SOL    HW161202   9.503   9.484   1.344 -0.4370  0.0753 -0.3271
16516SOL    HW261203   9.563   9.636   1.332 -0.1590 -0.0333 -0.2975
16517SOL     OW61204   0.682   7.597   0.266  0.0297 -0.3776  0.2610
16517SOL    HW161205   0.687   7.617   0.168  1.7288 -0.6208  0.2834
16517SOL    HW261206   0.670   7.683   0.316  3.5389  0.2934  0.1060
16518SOL     OW61207   0.795   2.520   3.047 -0.2476 -0.2102 -0.2091
16518SOL    HW161208   0.790   2.423   3.071 -1.4758 -0.2162 -0.4361
16518SOL    HW261209   0.872   2.562   3.095  1.3366 -1.6558 -1.4018
16519SOL     OW61210   9.618   9.030   7.205 -0.1564 -0.0651 -0.8197
16519SOL    HW161211   9.701   9.057   7.156 -0.4422  0.6610 -0.9048
16519SOL    HW261212   9.606   9.088   7.286  0.0073 -0.8877 -0.2033
16520SOL     OW61213   2.137   8.905   0.258 -0.2543 -0.3116 -0.2220
16520SOL    HW161214   2.174   8.845   0.187  0.7799  0.6339 -0.4957
16520SOL    HW261215   2.078   8.974   0.217 -0.0422 -0.0618 -0.1112
16521SOL     OW61216   6.737   3.599   0.047  0.3402  0.0505  0.1225
16521SOL    HW161217   6.719   3.626  -0.048  2.1347  1.4899  0.1735
16521SOL    HW261218   6.675   3.647   0.108  2.2793  2.7224  0.0514
16522SOL     OW61219   6.388   9.000   4.883  0.2897  0.1489 -0.6489
16522SOL    HW161220   6.306   9.029   4.833 -0.0191 -0.7416 -0.6576
16522SOL    HW261221   6.437   8.931   4.830 -0.4160 -1.3203  0.5642
16523SOL     OW61222   3.948   2.683   5.383  0.9119  0.3081 -0.2967
16523SOL    HW161223   3.902   2.741   5.315  0.0154 -0.3584 -0.2701
16523SOL    HW261224   3.997   2.610   5.335  0.7330  0.1602 -0.2540
16524SOL     OW61225   2.231   5.723   2.033 -0.6352  0.0688 -0.5846
16524SOL    HW161226   2.248   5.665   2.113 -0.6665  1.4882  0.4643
16524SOL    HW261227   2.314   5.727   1.977  0.1138  0.8323  0.5380
16525SOL     OW61228   2.165   4.553   2.813 -0.5653 -0.3641 -0.5337
16525SOL    HW161229   2.105   4.631   2.793 -0.5129 -0.8654 -2.7229
16525SOL    HW261230   2.261   4.581   2.802 -0.5200 -0.5270 -0.5587
16526SOL     OW61231   0.634   6.815   4.241 -0.3447 -0.8002 -0.1549
16526SOL    HW161232   0.725   6.853   4.231 -0.2015 -1.7416 -2.7245
16526SOL    HW261233   0.589   6.857   4.320  0.8425  2.5605 -1.1765
16527SOL     OW61234   1.166   6.536   7.575  0.3869  0.0173 -0.5711
16527SOL    HW161235   1.179   6.617   7.631  0.0385 -0.2521 -0.0994
16527SOL    HW261236   1.104   6.472   7.621  0.4606 -0.4081 -1.0474
16528SOL     OW61237   2.617   4.904   4.579 -0.0882  0.3773 -0.4369
16528SOL    HW161238   2.683   4.837   4.613  2.1478  1.1532 -3.1176
16528SOL    HW261239   2.525   4.865   4.585  0.7446 -1.3218  1.9014
16529SOL     OW61240   2.466   4.579   7.705 -0.0130  0.1799  0.3263
16529SOL    HW161241   2.423   4.504   7.754 -0.0208  1.5820  2.5045
16529SOL    HW261242   2.554   4.601   7.747 -0.6077  2.2515  0.5949
16530SOL     OW61243   3.295   1.588   1.599  0.5469  0.2139 -0.5894
16530SOL    HW161244   3.247   1.586   1.511 -1.2459 -2.0860  0.3998
16530SOL    HW261245   3.246   1.649   1.662 -0.4586 -1.2368  0.0544
16531SOL     OW61246   0.589   7.341   6.613 -0.2899 -0.0859  0.2353
16531SOL    HW161247   0.607   7.288   6.695  1.2800  0.6024  0.3713
16531SOL    HW261248   0.567   7.435   6.639  1.1310  0.3665 -0.1439
16532SOL     OW61249   2.037   5.138   4.850 -0.5380  0.0759  0.3707
16532SOL    HW161250   1.969   5.076   4.889 -0.7275  0.8197  1.2513
16532SOL    HW261251   2.008   5.232   4.863  0.9023  0.4248  1.2612
16533SOL     OW61252   5.949   3.320   1.477  0.0561  0.6244 -0.8899
16533SOL    HW161253   5.866   3.327   1.532 -0.0734 -1.1828 -0.8259
16533SOL    HW261254   6.029   3.338   1.536 -0.1854  0.6813 -0.5777
16534SOL     OW61255   4.388   9.519   2.493 -0.5206 -0.3442 -0.6037
16534SOL    HW161256   4.348   9.574   2.567 -0.0807 -0.7129 -0.0901
16534SOL    HW261257   4.357   9.555   2.405  1.1909  1.8959 -0.3547
16535SOL     OW61258   5.525   7.859   3.437 -0.1575  0.7918 -0.4472
16535SOL    HW161259   5.602   7.814   3.391  2.4846  3.4105  1.1832
16535SOL    HW261260   5.501   7.942   3.387 -0.4394  1.1388  0.2669
16536SOL     OW61261   9.362   0.368   4.456  0.3498 -0.8810 -0.3378
16536SOL    HW161262   9.292   0.297   4.463 -0.1960 -0.3026  0.1571
16536SOL    HW261263   9.397   0.371   4.363 -0.8880 -0.6038 -0.8030
16537SOL     OW61264   9.453   6.148   5.111  0.1082  0.0915  0.0895
16537SOL    HW161265   9.509   6.070   5.083  0.4888  0.7459 -0.9925
16537SOL    HW261266   9.484   6.179   5.201 -0.9370 -1.8339  1.1453
16538SOL     OW61267   7.067   1.677   2.001  0.0603  0.2682  0.0715
16538SOL    HW161268   7.040   1.609   2.069  1.4584  0.4042  0.7881
16538SOL    HW261269   7.092   1.632   1.916 -0.6078  0.0163  0.0036
16539SOL     OW61270   3.142   1.376   6.774  0.4996 -0.0201  0.1432
16539SOL    HW161271   3.228   1.395   6.821  0.6402 -0.1646 -0.0545
16539SOL    HW261272   3.150   1.404   6.678  0.6958 -1.0326 -0.1456
16540SOL     OW61273   7.303   4.574   8.112  0.0606 -0.3350 -0.2650
16540SOL    HW161274   7.341   4.555   8.022 -0.3087 -0.4002 -0.4083
16540SOL    HW261275   7.377   4.583   8.179  0.4117  0.9683 -0.8113
16541SOL     OW61276   5.189   5.073   6.591  0.4280 -0.2151  0.1876
16541SOL    HW161277   5.252   5.029   6.527 -0.9488 -0.0717 -1.3017
16541SOL    HW261278   5.137   5.004   6.639  0.7736 -0.2949  0.4511
16542SOL     OW61279   9.652   1.496   2.074  0.5633  0.2657  0.1041
16542SOL    HW161280   9.739   1.457   2.044  0.6114 -0.1578  0.7879
16542SOL    HW261281   9.638   1.475   2.171 -0.9266 -0.8141 -0.3384
16543SOL     OW61282   1.026   4.648   7.989  1.0997 -0.4586  0.3615
16543SOL    HW161283   1.073   4.617   8.072 -0.5042  0.2368  1.5485
16543SOL    HW261284   1.065   4.735   7.960  1.0749 -0.2743  0.8756
16544SOL     OW61285   5.623   0.943   3.780  0.3509  0.4303 -0.3478
16544SOL    HW161286   5.559   0.875   3.744  1.0858 -0.9073  0.8269
16544SOL    HW261287   5.702   0.949   3.719  0.7523 -0.5247  0.0568
16545SOL     OW61288   2.896   3.697   3.662  0.5409  0.2247 -0.0845
16545SOL    HW161289   2.857   3.626   3.721  1.6884  0.2985  0.7871
16545SOL    HW261290   2.822   3.750   3.621 -0.3113 -0.9018 -0.0477
16546SOL     OW61291   6.851   0.530   6.402  0.3837 -0.0842  0.1182
16546SOL    HW161292   6.865   0.514   6.500 -1.6199 -1.9744  0.1338
16546SOL    HW261293   6.850   0.443   6.354 -1.2545  0.6498 -1.2173
16547SOL     OW61294   6.969   7.075   6.325 -0.4191 -0.6656 -0.0622
16547SOL    HW161295   7.048   7.106   6.377  0.9521 -1.7532 -1.4254
16547SOL    HW261296   6.897   7.144   6.327  0.9828  0.7947  0.3351
16548SOL     OW61297   7.659   6.540   6.014  0.1189  0.1235 -0.2991
16548SOL    HW161298   7.691   6.564   6.106  0.3694  2.7351 -1.0379
16548SOL    HW261299   7.566   6.505   6.020 -0.1985  1.1263  0.8599
16549SOL     OW61300   2.530   9.959   4.379  0.0389  0.0812  0.2055
16549SOL    HW161301   2.511   9.994   4.288  1.6927  0.7162  0.0816
16549SOL    HW261302   2.458   9.896   4.407 -1.4160  1.2995 -0.7864
16550SOL     OW61303   0.460   5.821   1.931  0.2362  0.3073  0.3255
16550SOL    HW161304   0.440   5.913   1.964  1.3552  0.9536 -0.7692
16550SOL    HW261305   0.517   5.826   1.849  0.6491 -1.3698  0.4868
16551SOL     OW61306   3.266   7.472   4.055 -0.1181  0.4280  0.0807
16551SOL    HW161307   3.348   7.500   4.105 -0.9621  2.8770  0.1301
16551SOL    HW261308   3.218   7.401   4.107  1.3945 -0.2855  0.5466
16552SOL     OW61309   0.056   4.622   3.527 -0.1834  0.1213 -0.0243
16552SOL    HW161310   0.145   4.590   3.560 -0.0118  0.5533 -0.0666
16552SOL    HW261311  -0.012   4.549   3.540 -0.2972  0.5636  2.0153
16553SOL     OW61312   1.894   7.847   6.332  0.5997  0.0379 -0.6399
16553SOL    HW161313   1.809   7.864   6.381  1.5446  0.8590  0.7287
16553SOL    HW261314   1.883   7.767   6.274 -0.4527 -1.0807  1.0766
16554SOL     OW61315   7.921   3.627   4.131 -0.0757 -0.5565 -0.2002
16554SOL    HW161316   7.890   3.699   4.068  0.4129  0.3554  0.5875
16554SOL    HW261317   7.843   3.571   4.159 -0.3923 -0.5957 -1.1569
16555SOL     OW61318   6.923   1.383   3.546 -0.1759 -0.2355 -0.5171
16555SOL    HW161319   6.894   1.316   3.476 -1.2008  0.5541 -0.8651
16555SOL    HW261320   6.853   1.453   3.555  1.0736  1.0103 -0.4157
16556SOL     OW61321   5.663   5.204   1.107  0.2570  0.3293  1.2073
16556SOL    HW161322   5.761   5.201   1.091  0.5258  0.5074  2.7493
16556SOL    HW261323   5.637   5.130   1.170 -0.6217  0.1734  0.6736
16557SOL     OW61324   7.737   9.764   4.075 -0.5563 -0.8280 -0.4351
16557SOL    HW161325   7.726   9.833   4.004 -0.8450 -0.3322  0.0911
16557SOL    HW261326   7.712   9.674   4.038 -1.8167 -0.4014 -0.6250
16558SOL     OW61327   9.040   3.987   7.874 -0.6922  0.5416 -0.0021
16558SOL    HW161328   9.000   4.041   7.800 -1.4503  0.2039  0.1484
16558SOL    HW261329   9.066   4.048   7.949  1.5638  1.0556 -1.1869
16559SOL     OW61330   2.606   4.876   6.812 -0.2707 -0.0276 -0.1430
16559SOL    HW161331   2.597   4.845   6.717 -2.2569  0.3014 -0.0848
16559SOL    HW261332   2.554   4.816   6.872  1.6785 -0.7457  0.8846
16560SOL     OW61333   8.836   2.471   5.628  0.0435  0.5058 -0.0477
16560SOL    HW161334   8.749   2.514   5.653  0.6302  1.6763 -0.0050
16560SOL    HW261335   8.847   2.474   5.528  0.0013  0.2937 -0.0581
16561SOL     OW61336   8.943   2.629   2.243  0.4478  0.2386  0.2931
16561SOL    HW161337   8.887   2.700   2.200  1.6185  1.2308  0.3617
16561SOL    HW261338   9.039   2.644   2.219  0.6760 -1.4863  0.0985
16562SOL     OW61339   0.676   0.346   1.363 -0.5513  0.1740 -0.0027
16562SOL    HW161340   0.714   0.254   1.361 -3.1402 -0.9400  0.1460
16562SOL    HW261341   0.732   0.404   1.421  0.3910 -1.6224  0.9263
16563SOL     OW61342   9.332   4.846   3.384 -0.6349 -0.0111 -0.0423
16563SOL    HW161343   9.413   4.790   3.371  0.3446  1.1859  0.8744
16563SOL    HW261344   9.287   4.821   3.470 -0.0521  0.7888  0.4951
16564SOL     OW61345   8.861   0.446   3.419  0.3233  0.0856  0.8248
16564SOL    HW161346   8.778   0.416   3.371 -0.6159  2.1536  1.0893
16564SOL    HW261347   8.917   0.502   3.358  1.2767 -0.8716  0.8131
16565SOL     OW61348   6.057   0.616   0.788 -0.4348  0.2653  0.5278
16565SOL    HW161349   5.962   0.604   0.820 -0.6844 -0.5193 -0.4897
16565SOL    HW261350   6.070   0.564   0.704  0.9596  0.2443  0.7551
16566SOL     OW61351   1.059   7.537   7.518  0.0615 -0.5921 -0.2720
16566SOL    HW161352   1.000   7.610   7.552 -0.2233 -0.4748 -1.0189
16566SOL    HW261353   1.148   7.543   7.563 -0.4134 -0.6310  0.6829
16567SOL     OW61354   5.257   8.391   4.858 -0.5503  0.2228 -0.0843
16567SOL    HW161355   5.343   8.381   4.808 -1.1542  1.7860 -1.5091
16567SOL    HW261356   5.180   8.390   4.793 -1.5315 -0.0609  1.0548
16568SOL     OW61357   2.093   2.092   3.931  0.2572  0.3528 -0.2553
16568SOL    HW161358   2.034   2.169   3.907 -1.3921 -1.0293 -0.6740
16568SOL    HW261359   2.140   2.059   3.850 -0.8523 -0.5956 -0.5127
16569SOL     OW61360   2.339   8.032   1.792 -0.2159 -0.5868  0.2626
16569SOL    HW161361   2.410   8.091   1.831 -1.2696 -0.5249  2.1847
16569SOL    HW261362   2.325   8.054   1.696 -0.3812  2.1105  0.8708
16570SOL     OW61363   1.079   1.244   1.237 -0.0012 -0.2697 -0.2525
16570SOL    HW161364   1.027   1.236   1.322 -0.5717 -0.9541 -0.6589
16570SOL    HW261365   1.175   1.218   1.254 -0.1614 -0.6246  0.1333
16571SOL     OW61366   7.085   1.344   0.282 -0.1048 -0.1393  0.4551
16571SOL    HW161367   7.161   1.287   0.252 -0.1975  0.1313 -0.3028
16571SOL    HW261368   7.119   1.432   0.314 -0.0376 -0.2916  0.8057
16572SOL     OW61369   0.363   3.115   0.749 -0.3309  0.0304  0.2028
16572SOL    HW161370   0.383   3.212   0.764  0.4027 -0.0014 -0.5271
16572SOL    HW261371   0.431   3.076   0.686 -0.3983 -1.0475  0.7773
16573SOL     OW61372   7.856   6.615   4.444  0.2750  0.0914  0.1799
16573SOL    HW161373   7.907   6.697   4.471  0.4446  0.0818 -0.1084
16573SOL    HW261374   7.809   6.632   4.357 -2.9688  1.2543  2.0912
16574SOL     OW61375   0.349   5.778   0.845  0.5202  0.0522 -0.1848
16574SOL    HW161376   0.424   5.716   0.866  0.5392 -0.0080 -0.4224
16574SOL    HW261377   0.263   5.726   0.840  0.8929 -0.3557 -2.7673
16575SOL     OW61378   5.785   5.198   7.359 -0.1478  0.1695 -0.3428
16575SOL    HW161379   5.751   5.181   7.452  0.3583  2.5629  0.2999
16575SOL    HW261380   5.750   5.286   7.327  1.6048  0.4439 -1.5120
16576SOL     OW61381   0.496   7.935   0.037  0.1924 -0.6010  0.3049
16576SOL    HW161382   0.593   7.925   0.055 -0.2140 -1.9123  1.8937
16576SOL    HW261383   0.457   8.004   0.098  0.1950  0.2638 -0.6468
16577SOL     OW61384   6.615   2.768   1.678  0.7340  0.1449  0.1251
16577SOL    HW161385   6.650   2.743   1.768  0.8676 -2.4186 -0.6046
16577SOL    HW261386   6.515   2.768   1.680  0.7341 -0.3315  0.1691
16578SOL     OW61387   7.683   4.150   5.363  0.2107  0.7668 -0.2885
16578SOL    HW161388   7.753   4.190   5.422 -0.8593 -1.0725  2.3145
16578SOL    HW261389   7.593   4.186   5.388 -0.1583  0.6170 -1.3816
16579SOL     OW61390   5.324   9.105   2.869 -0.0553  0.1547 -0.0979
16579SOL    HW161391   5.409   9.080   2.916  0.0275  0.7040  0.0416
16579SOL    HW261392   5.247   9.093   2.932  0.0533  0.8701  0.1811
16580SOL     OW61393   7.120   5.953   4.738  0.3196  0.4079  0.4169
16580SOL    HW161394   7.109   5.924   4.833 -0.9467  0.5056  0.3087
16580SOL    HW261395   7.122   5.873   4.678 -1.2939  0.4436  0.2999
16581SOL     OW61396   8.580   6.896   4.739  0.1880  0.0937 -0.0643
16581SOL    HW161397   8.526   6.950   4.675  0.5930  0.6621  0.0709
16581SOL    HW261398   8.661   6.859   4.692  0.5715  0.6470  0.1474
16582SOL     OW61399   6.886   0.593   4.483 -0.6097  0.0736  0.1046
16582SOL    HW161400   6.922   0.614   4.574 -1.0471 -1.5568  0.6689
16582SOL    HW261401   6.797   0.547   4.492 -0.4788 -0.4377 -1.1229
16583SOL     OW61402   0.011   0.708   2.658  0.4546 -0.0513 -0.2166
16583SOL    HW161403  -0.017   0.742   2.568  0.9157  0.8408 -0.0352
16583SOL    HW261404   0.042   0.785   2.714 -0.0880 -0.5673  0.8028
16584SOL     OW61405   2.683   0.109   3.497  0.2335 -0.1249  0.0197
16584SOL    HW161406   2.620   0.096   3.421 -1.1187  0.9610  0.9199
16584SOL    HW261407   2.740   0.027   3.508 -0.3676 -0.7452 -1.3954
16585SOL     OW61408   5.362   9.302   3.180 -0.4192 -0.2060  0.2916
16585SOL    HW161409   5.324   9.384   3.136 -0.6608  0.2790  1.3868
16585SOL    HW261410   5.441   9.270   3.128 -1.2300 -0.1768 -1.0090
16586SOL     OW61411   6.379   2.152   1.144 -0.2130 -0.2662  0.4089
16586SOL    HW161412   6.343   2.064   1.176  0.3606 -0.6581 -0.0214
16586SOL    HW261413   6.336   2.175   1.057 -1.9676  0.9267  1.5612
16587SOL     OW61414   1.972   6.052   6.525 -0.0136  0.1514  0.9688
16587SOL    HW161415   2.013   6.122   6.584  1.3364  0.5796 -0.4388
16587SOL    HW261416   2.036   5.976   6.514  0.4087  0.7907 -1.1988
16588SOL     OW61417   0.817   9.247   3.672  0.3653  0.4246 -0.0388
16588SOL    HW161418   0.870   9.213   3.595  0.6006 -0.8401  0.6748
16588SOL    HW261419   0.749   9.180   3.699  1.1512  0.2805  1.6881
16589SOL     OW61420   3.186   4.178   7.122  0.2805 -0.0142  0.0696
16589SOL    HW161421   3.219   4.271   7.131 -0.1275  0.0489  0.9894
16589SOL    HW261422   3.232   4.133   7.046  1.3158  0.5667  0.3498
16590SOL     OW61423   4.677   6.203   0.220  0.4378 -0.0897 -0.0457
16590SOL    HW161424   4.760   6.208   0.275  1.4980 -0.1615 -1.6127
16590SOL    HW261425   4.695   6.239   0.129 -0.3898 -2.9272 -1.3856
16591SOL     OW61426   7.893   5.008   2.295 -0.0147 -0.2485  0.3677
16591SOL    HW161427   7.956   5.076   2.259 -0.6173 -0.0877 -0.3927
16591SOL    HW261428   7.804   5.051   2.312  0.6181  0.0415  3.3851
16592SOL     OW61429   2.208   6.075   7.129  0.1356 -0.1020  0.5139
16592SOL    HW161430   2.285   6.129   7.162 -0.1679  1.3079 -1.0287
16592SOL    HW261431   2.225   5.978   7.147  2.1251  0.2261  0.4380
16593SOL     OW61432   1.349   5.714   4.571  0.3909  0.2685  0.0145
16593SOL    HW161433   1.359   5.813   4.582  0.1492  0.1127  1.6863
16593SOL    HW261434   1.257   5.693   4.537  0.2132  0.5693  0.3095
16594SOL     OW61435   1.964   3.204   0.018  0.1337 -0.3783  0.4380
16594SOL    HW161436   2.053   3.212  -0.027  0.6824 -0.0728  1.5706
16594SOL    HW261437   1.933   3.109   0.014  0.4685 -0.4677 -0.0282
16595SOL     OW61438   0.271   6.278   7.989 -0.2246 -0.1268 -0.4110
16595SOL    HW161439   0.261   6.325   8.077  1.3045 -1.9127  0.7709
16595SOL    HW261440   0.265   6.344   7.914 -0.1707  1.6168  1.0868
16596SOL     OW61441   2.739   4.552   3.662  0.1411 -0.1340 -0.1712
16596SOL    HW161442   2.834   4.538   3.633  0.6498 -0.8512  1.7714
16596SOL    HW261443   2.738   4.596   3.751 -1.3577 -0.9462  0.2208
16597SOL     OW61444   8.761   4.106   3.142 -0.6077 -0.2159  0.4343
16597SOL    HW161445   8.712   4.129   3.058 -0.3950 -0.7758  0.1517
16597SOL    HW261446   8.697   4.072   3.210 -0.5154 -1.8778 -0.2629
16598SOL     OW61447   3.434   9.502   6.317  0.0954  0.0201 -0.0770
16598SOL    HW161448   3.430   9.596   6.282 -2.3860 -0.4575 -1.1733
16598SOL    HW261449   3.377   9.494   6.399  2.0588 -0.0300  1.3151
16599SOL     OW61450   2.143   2.570   3.786 -0.1491 -0.6442  0.0912
16599SOL    HW161451   2.198   2.548   3.705 -0.3040 -0.4917 -0.0552
16599SOL    HW261452   2.105   2.661   3.776 -2.7247 -1.7969 -1.0963
16600SOL     OW61453   1.548   2.599   6.494 -0.3375  0.3819 -0.2543
16600SOL    HW161454   1.500   2.635   6.574 -0.4503 -0.7078  0.1755
16600SOL    HW261455   1.647   2.602   6.509 -0.3149  1.2771 -0.5554
16601SOL     OW61456   0.968   9.591   7.621  0.6742 -0.0238  0.0076
16601SOL    HW161457   1.008   9.678   7.593  0.0302  0.1838 -0.2780
16601SOL    HW261458   1.014   9.558   7.703  0.6940  0.7580  0.3147
16602SOL     OW61459   8.660   2.712   7.930  0.1499  0.5484  0.3028
16602SOL    HW161460   8.581   2.731   7.989  0.1709 -0.2928  0.6062
16602SOL    HW261461   8.635   2.643   7.862  0.2521  1.2149 -0.4168
16603SOL     OW61462   0.939   7.363   3.221 -0.5099  0.6559 -0.8881
16603SOL    HW161463   0.884   7.395   3.299 -0.2487  0.1875 -0.5093
16603SOL    HW261464   1.000   7.436   3.191  0.0073  0.5586 -0.0913
16604SOL     OW61465   0.874   5.709   1.844 -0.1111  0.7191  0.0456
16604SOL    HW161466   0.906   5.641   1.778 -0.7687  2.5173 -2.2104
16604SOL    HW261467   0.850   5.664   1.930  1.0413 -1.6546 -0.8388
16605SOL     OW61468   3.512   9.200   6.384 -0.1882 -0.3364  0.6206
16605SOL    HW161469   3.437   9.161   6.437 -1.2669 -0.4038 -0.9266
16605SOL    HW261470   3.585   9.133   6.373 -0.3746 -0.6329  1.2051
16606SOL     OW61471   8.953   1.450   2.844  0.2635 -0.2346 -0.0911
16606SOL    HW161472   9.049   1.451   2.872  0.7180 -0.8268 -1.5748
16606SOL    HW261473   8.914   1.541   2.857  1.0760  0.0468  0.3932
16607SOL     OW61474   1.769   0.001   4.258 -0.1304 -0.2418  0.2983
16607SOL    HW161475   1.752  -0.092   4.291 -0.2962 -0.9189 -1.6543
16607SOL    HW261476   1.685   0.055   4.263 -0.2251 -0.4257  0.7013
16608SOL     OW61477   6.096   4.154   1.097 -0.2468  0.2637  0.3907
16608SOL    HW161478   6.185   4.136   1.139  0.1608 -0.4110 -0.7581
16608SOL    HW261479   6.030   4.176   1.169  0.8439  0.7807  1.2460
16609SOL     OW61480   1.566   8.580   6.132 -0.3883  0.0364  0.7954
16609SOL    HW161481   1.530   8.515   6.199 -0.1865 -1.4126 -0.4473
16609SOL    HW261482   1.507   8.661   6.129 -0.2576  0.2225  2.8606
16610SOL     OW61483   5.112   0.198   5.564  0.1904 -0.2103 -0.2857
16610SOL    HW161484   5.138   0.124   5.502 -0.0258  0.2999 -0.9994
16610SOL    HW261485   5.019   0.228   5.542  0.7044  1.0653 -0.7955
16611SOL     OW61486   0.064   2.634   7.259  0.3661 -0.7953  0.4925
16611SOL    HW161487   0.146   2.579   7.275  1.0340  0.5840  1.8522
16611SOL    HW261488   0.074   2.722   7.304 -0.4223  0.7188 -2.2031
16612SOL     OW61489   8.197   3.074   1.653 -0.1495 -0.1496  0.0181
16612SOL    HW161490   8.283   3.121   1.635  0.3684 -1.0026  0.2077
16612SOL    HW261491   8.179   3.009   1.579 -0.5231 -0.1180  0.0834
16613SOL     OW61492   8.466   5.966   7.055  0.0267 -0.0092 -1.2238
16613SOL    HW161493   8.429   6.048   7.098  1.0564 -0.1435 -0.0681
16613SOL    HW261494   8.414   5.886   7.086  1.5880 -0.2571  0.7932
16614SOL     OW61495   0.420   8.386   1.540 -0.3770  0.1201  0.4295
16614SOL    HW161496   0.414   8.444   1.459 -0.7044  2.7923  2.3053
16614SOL    HW261497   0.473   8.433   1.612  1.1346 -2.7795  1.2926
16615SOL     OW61498   7.893   9.894   2.684  0.2491 -0.3541 -0.4091
16615SOL    HW161499   7.951   9.965   2.725 -1.6651  0.5807  0.7749
16615SOL    HW261500   7.833   9.936   2.615 -2.3973 -0.3695  1.8059
16616SOL     OW61501   0.486   4.445   3.435 -0.0658  0.4087 -0.3160
16616SOL    HW161502   0.498   4.371   3.369 -1.2645 -0.0685 -0.0135
16616SOL    HW261503   0.575   4.483   3.460  0.5809 -1.1462 -0.2320
16617SOL     OW61504   2.687   5.277   4.574 -0.5947 -0.1171  0.3339
16617SOL    HW161505   2.650   5.184   4.577 -1.3230  0.1746  0.4447
16617SOL    HW261506   2.774   5.279   4.623  0.7851 -1.3442 -1.9545
16618SOL     OW61507   8.108   1.782   3.752  0.2633 -0.1807 -0.1897
16618SOL    HW161508   8.151   1.872   3.757  0.8168 -0.1198 -4.1502
16618SOL    HW261509   8.018   1.790   3.709 -1.0988 -1.1433  2.3883
16619SOL     OW61510   6.053   9.390   2.680 -0.2271  0.0352 -0.0475
16619SOL    HW161511   6.097   9.301   2.671 -0.8398 -0.2072 -0.7686
16619SOL    HW261512   6.014   9.417   2.592 -0.5919  0.7210  0.3171
16620SOL     OW61513   3.334   3.476   5.816 -0.8043  0.6012  0.1708
16620SOL    HW161514   3.270   3.450   5.888 -1.6289  1.4460 -0.2377
16620SOL    HW261515   3.415   3.517   5.857 -1.4892  1.5457  0.6269
16621SOL     OW61516   0.198   0.207   7.290 -0.0800  0.1199  0.5531
16621SOL    HW161517   0.265   0.159   7.347 -1.3760  0.7268  2.6165
16621SOL    HW261518   0.118   0.148   7.277 -0.1775  0.3484  0.1302
16622SOL     OW61519   0.910   2.279   0.149 -0.1575 -0.0367  0.0338
16622SOL    HW161520   0.858   2.219   0.211  0.6214  0.1959  0.9263
16622SOL    HW261521   0.847   2.340   0.102 -0.8088 -0.5171  0.2697
16623SOL     OW61522   5.168   8.672   7.465 -0.2056  0.0276  0.2809
16623SOL    HW161523   5.150   8.591   7.520  0.1517 -0.1973  0.0659
16623SOL    HW261524   5.267   8.684   7.454 -0.2849 -0.2529 -0.7967
16624SOL     OW61525   3.583   2.784   1.489  0.3102 -0.0312  0.1044
16624SOL    HW161526   3.512   2.782   1.419  0.2472  0.0854  0.1642
16624SOL    HW261527   3.576   2.702   1.546  1.2456 -0.8193 -0.8903
16625SOL     OW61528   8.802   0.165   1.095 -0.1133 -0.2353 -0.4629
16625SOL    HW161529   8.751   0.237   1.048  1.1354  0.7765 -0.2854
16625SOL    HW261530   8.839   0.101   1.027 -0.8262 -0.4456 -0.6533
16626SOL     OW61531   3.083   6.070   4.527  0.8819  0.5138  0.0078
16626SOL    HW161532   3.082   5.975   4.559 -2.2144  1.1618  2.0754
16626SOL    HW261533   3.127   6.127   4.596  1.5552  0.7711 -0.6349
16627SOL     OW61534   0.026   3.057   5.589 -0.2773 -0.3604  0.3334
16627SOL    HW161535   0.082   3.034   5.509  1.0193  0.8841  0.8531
16627SOL    HW261536  -0.069   3.067   5.562  0.0713 -0.4671 -0.9641
16628SOL     OW61537   4.989   9.887   4.754  0.1597 -0.3825 -0.2503
16628SOL    HW161538   4.898   9.892   4.713  0.3680 -1.9644 -0.9510
16628SOL    HW261539   5.026   9.980   4.765 -1.4825  0.2621 -0.0448
16629SOL     OW61540   2.246   5.434   2.666  0.5956  0.0887  0.1766
16629SOL    HW161541   2.216   5.521   2.703 -0.2255 -0.0548 -0.1532
16629SOL    HW261542   2.218   5.360   2.727  0.1893 -0.0535 -0.1821
16630SOL     OW61543   5.201   3.321   5.175  1.0890  0.2131  0.1326
16630SOL    HW161544   5.270   3.258   5.141  1.0933 -0.1876  0.8768
16630SOL    HW261545   5.110   3.282   5.162  1.2611 -1.5627  3.8618
16631SOL     OW61546   1.321   9.309   5.241  0.0529  0.7811 -0.0295
16631SOL    HW161547   1.275   9.324   5.328 -2.0036 -1.0257 -0.7736
16631SOL    HW261548   1.256   9.320   5.166  0.7732 -1.9426 -1.1091
16632SOL     OW61549   9.308   3.853   3.730 -0.6701  0.3730  0.4730
16632SOL    HW161550   9.389   3.797   3.707 -1.0666 -0.2843  0.6663
16632SOL    HW261551   9.230   3.821   3.676 -0.9906  0.4874  0.8715
16633SOL     OW61552   2.265   3.271   3.716  0.0516 -0.2235 -0.1397
16633SOL    HW161553   2.292   3.179   3.744 -1.8814 -0.9617 -0.6235
16633SOL    HW261554   2.335   3.309   3.656  2.1693 -0.3030  2.1954
16634SOL     OW61555   8.714   7.050   4.160  0.0005 -0.3724 -0.5174
16634SOL    HW161556   8.759   7.053   4.250  2.6855  1.2927 -1.8534
16634SOL    HW261557   8.657   7.132   4.149 -2.3973 -1.8250  0.6338
16635SOL     OW61558   0.609   9.023   5.351 -0.2785  0.3181  0.2838
16635SOL    HW161559   0.682   9.031   5.284 -1.3920  1.5882 -0.8034
16635SOL    HW261560   0.571   9.113   5.371 -0.0745 -0.0454  2.5310
16636SOL     OW61561   2.861   0.527   0.497 -0.1206  0.2735 -1.1308
16636SOL    HW161562   2.879   0.429   0.500 -0.3575  0.2731  0.6660
16636SOL    HW261563   2.862   0.558   0.402  1.8299 -1.1121 -1.5919
16637SOL     OW61564   1.495   4.076   7.287  0.4304  0.2722 -0.2545
16637SOL    HW161565   1.475   3.978   7.274 -0.0502  0.4130 -0.5863
16637SOL    HW261566   1.474   4.125   7.203 -0.1708  0.7962  0.2009
16638SOL     OW61567   3.269   6.321   5.249  0.3438  0.2812  0.7280
16638SOL    HW161568   3.290   6.235   5.203  0.0578 -1.0977  3.1225
16638SOL    HW261569   3.267   6.395   5.181  3.1119 -1.1474 -1.0165
16639SOL     OW61570   3.463   8.091   6.807  0.2614  0.2906  0.1666
16639SOL    HW161571   3.474   7.995   6.780 -1.6405 -0.0695  0.6525
16639SOL    HW261572   3.411   8.140   6.737  0.4467  0.7714  0.3599
16640SOL     OW61573   8.951   1.044   3.529 -0.3991  0.1374 -0.0888
16640SOL    HW161574   8.892   1.083   3.600 -1.0254 -2.1686  0.6899
16640SOL    HW261575   9.046   1.068   3.547 -0.6727  0.5407  0.8554
16641SOL     OW61576   4.409   9.925   2.183  0.7214  0.0450 -0.6488
16641SOL    HW161577   4.311   9.923   2.164  1.0634  1.0183 -2.6373
16641SOL    HW261578   4.443  10.019   2.177  1.9424 -0.3951 -0.8391
16642SOL     OW61579   8.683   4.547   8.106 -0.6189  0.2486 -0.0379
16642SOL    HW161580   8.665   4.453   8.133  0.7044 -0.1402 -0.4766
16642SOL    HW261581   8.597   4.597   8.099 -1.2158 -0.4445  1.9384
16643SOL     OW61582   8.469   5.982   6.782 -0.0380  0.1243 -0.2394
16643SOL    HW161583   8.462   5.996   6.881  1.2252 -0.6436 -0.0337
16643SOL    HW261584   8.541   6.042   6.745 -0.5724  0.4782 -0.7078
16644SOL     OW61585   7.789   9.627   4.568 -0.1474 -0.6126  0.2772
16644SOL    HW161586   7.758   9.563   4.499  0.2691 -0.3201 -0.1807
16644SOL    HW261587   7.744   9.606   4.655 -0.7047 -0.9494 -0.0863
16645SOL     OW61588   0.253   3.797   5.235  0.7459 -0.2715 -0.0767
16645SOL    HW161589   0.290   3.760   5.150  0.4895  0.1771 -0.3867
16645SOL    HW261590   0.278   3.893   5.243  0.2904 -0.1657  0.0815
16646SOL     OW61591   4.516   3.204   5.475 -0.2618  0.5581  0.3751
16646SOL    HW161592   4.446   3.226   5.544  0.4937  1.4777  0.8595
16646SOL    HW261593   4.542   3.108   5.484 -1.1495  0.3184  0.4786
16647SOL     OW61594   2.558   9.163   0.108 -0.0516 -1.0858  0.0607
16647SOL    HW161595   2.522   9.214   0.029  0.3428  0.4055  0.8237
16647SOL    HW261596   2.658   9.169   0.109 -0.0296 -1.4936  0.4133
16648SOL     OW61597   8.418   8.440   1.063 -0.0262  0.1994  0.3922
16648SOL    HW161598   8.342   8.455   1.000  0.3473 -0.1604 -0.1541
16648SOL    HW261599   8.480   8.372   1.024 -1.3166 -2.2690  2.4956
16649SOL     OW61600   1.595   0.497   5.692  0.3679 -0.3056 -0.4397
16649SOL    HW161601   1.598   0.581   5.638 -0.4613  1.0273  1.5444
16649SOL    HW261602   1.567   0.421   5.633  0.9518  0.8210 -2.2155
16650SOL     OW61603   9.230   2.520   3.984 -0.3533 -0.1499  0.1373
16650SOL    HW161604   9.277   2.557   3.904  2.1027 -0.1868  1.5133
16650SOL    HW261605   9.241   2.583   4.061 -0.2316 -1.4650  1.2081
16651SOL     OW61606   8.622   8.666   5.795  0.5753  0.4006 -0.2840
16651SOL    HW161607   8.632   8.696   5.890  1.7812  0.2747 -0.3606
16651SOL    HW261608   8.670   8.729   5.734 -0.5537  0.7227 -0.8646
16652SOL     OW61609   8.646   7.865   7.103 -0.4496  0.1630 -0.2698
16652SOL    HW161610   8.717   7.877   7.034  1.1856  1.5036  1.5673
16652SOL    HW261611   8.575   7.934   7.091  0.0994  0.7313 -0.3241
16653SOL     OW61612   3.770   8.990   2.701  0.2831 -0.2986 -0.5247
16653SOL    HW161613   3.673   9.004   2.721  0.5730  2.5044 -0.9658
16653SOL    HW261614   3.787   9.004   2.604  1.3601  0.7407 -0.2028
16654SOL     OW61615   5.064   2.192   5.562  0.0870 -0.2705  0.1521
16654SOL    HW161616   5.079   2.289   5.581  1.0819  0.0251 -1.9963
16654SOL    HW261617   4.967   2.171   5.574 -0.1348  1.0014  0.6442
16655SOL     OW61618   4.678   4.741   1.404 -0.2285  0.1086  0.2555
16655SOL    HW161619   4.636   4.822   1.363 -2.0521 -1.0883 -0.3076
16655SOL    HW261620   4.756   4.712   1.348 -1.2524 -0.1198 -1.0829
16656SOL     OW61621   3.453   3.446   2.580 -0.0978 -0.4883  0.0151
16656SOL    HW161622   3.426   3.388   2.503 -1.9559 -0.7415  0.8149
16656SOL    HW261623   3.551   3.438   2.595  0.1008 -1.3289 -1.5952
16657SOL     OW61624   3.335   1.069   4.613  0.3982  0.9381 -0.6506
16657SOL    HW161625   3.305   0.979   4.644  1.9639  1.2494  1.9426
16657SOL    HW261626   3.258   1.119   4.574 -0.7273 -1.0894 -1.0757
16658SOL     OW61627   9.752   8.372   3.655 -0.1396 -0.0904 -0.2969
16658SOL    HW161628   9.663   8.340   3.622 -0.0039 -2.6214  1.6729
16658SOL    HW261629   9.815   8.381   3.577 -1.5172 -0.2948 -1.4469
16659SOL     OW61630   1.863   6.796   4.600  0.6430 -0.3994 -0.5820
16659SOL    HW161631   1.885   6.852   4.680 -0.4611  1.8422 -1.8088
16659SOL    HW261632   1.766   6.775   4.600  0.8020 -1.1355 -0.8824
16660SOL     OW61633   8.813   5.899   5.372 -0.1324 -0.4650  0.1880
16660SOL    HW161634   8.772   5.821   5.325 -3.6213  0.6988  1.1279
16660SOL    HW261635   8.818   5.977   5.310  0.0439 -0.4098  0.2712
16661SOL     OW61636   1.557   9.375   6.009  0.4405  0.1934 -0.2685
16661SOL    HW161637   1.510   9.420   6.085  0.9277  1.3178 -0.6165
16661SOL    HW261638   1.490   9.325   5.953  0.0279 -0.3031  0.6599
16662SOL     OW61639   9.279   0.279   4.112 -0.5278 -0.0602  0.0183
16662SOL    HW161640   9.280   0.188   4.154 -1.8640  0.3354  0.9281
16662SOL    HW261641   9.363   0.327   4.135 -0.3096 -0.6511  0.4741
16663SOL     OW61642   4.539   0.420   3.779  0.1453 -0.5967 -0.3789
16663SOL    HW161643   4.523   0.517   3.796 -0.6086 -0.7807 -0.0196
16663SOL    HW261644   4.451   0.372   3.772  0.4674 -0.9173 -2.5496
16664SOL     OW61645   3.788   9.363   2.360  0.6366 -0.6903  0.1438
16664SOL    HW161646   3.757   9.454   2.335 -1.3331 -1.1865  0.6731
16664SOL    HW261647   3.864   9.371   2.426  0.8630  0.5463 -0.2481
16665SOL     OW61648   9.258   9.970   2.797  0.3828 -0.0454  0.1172
16665SOL    HW161649   9.177   9.948   2.851  2.4171 -0.8581  3.0233
16665SOL    HW261650   9.281  10.066   2.810  0.4717 -0.0688  0.1318
16666SOL     OW61651   0.291   1.849   5.028  0.0256  0.1924 -0.7940
16666SOL    HW161652   0.312   1.917   5.098 -1.9984 -1.7225  1.7457
16666SOL    HW261653   0.198   1.862   4.994  0.1537 -0.3719 -1.3857
16667SOL     OW61654   9.773   3.174   5.992  0.4870 -0.0507  0.0488
16667SOL    HW161655   9.756   3.123   6.076  1.1069 -0.2145  0.0792
16667SOL    HW261656   9.781   3.271   6.013 -2.5508  0.3167 -0.2489
16668SOL     OW61657   5.793   0.048   2.416 -0.5169 -0.4583 -0.0420
16668SOL    HW161658   5.770  -0.049   2.405 -1.1126 -0.4479  1.0368
16668SOL    HW261659   5.816   0.066   2.512  1.3841  0.0947 -0.5754
16669SOL     OW61660   2.017   4.155   7.583 -0.0860 -0.0331 -0.0081
16669SOL    HW161661   2.014   4.156   7.683  0.3627 -2.7423  0.0508
16669SOL    HW261662   1.950   4.090   7.548  0.1054  0.5328 -1.4642
16670SOL     OW61663   5.178   1.903   5.161 -0.3172  0.2700  0.0876
16670SOL    HW161664   5.233   1.977   5.202  0.9883  0.4352 -1.8827
16670SOL    HW261665   5.188   1.906   5.061 -1.5399 -1.5863 -0.1068
16671SOL     OW61666   2.777   9.349   7.283  0.1051  0.1421  0.3559
16671SOL    HW161667   2.695   9.331   7.229 -0.1409 -1.7167  1.2714
16671SOL    HW261668   2.853   9.373   7.223  0.1194 -2.9659 -0.9551
16672SOL     OW61669   1.552   4.445   0.277 -0.2568 -0.6952  0.1660
16672SOL    HW161670   1.510   4.526   0.237  0.7709  0.6858  1.8427
16672SOL    HW261671   1.652   4.456   0.276 -0.1080 -1.9853  0.3108
16673SOL     OW61672   7.461   0.135   5.902 -0.1526 -0.0201  0.3473
16673SOL    HW161673   7.503   0.226   5.908 -0.1341  0.0136 -0.3412
16673SOL    HW261674   7.455   0.107   5.807 -0.1178 -0.7667  0.5629
16674SOL     OW61675   9.403   3.974   5.518  0.7536  0.0925  0.2402
16674SOL    HW161676   9.312   3.937   5.501  0.7299 -0.1026  0.7676
16674SOL    HW261677   9.404   4.071   5.495  0.5679 -0.0311 -0.2945
16675SOL     OW61678   1.831   7.235   3.668 -0.0938  0.0901 -0.2934
16675SOL    HW161679   1.929   7.213   3.665 -0.5032 -2.0222  1.1566
16675SOL    HW261680   1.795   7.239   3.575  1.3363  0.8447 -0.8448
16676SOL     OW61681   5.462   0.889   7.030  0.7715  0.2159  0.3969
16676SOL    HW161682   5.428   0.804   6.990 -0.9190  0.7209  0.7060
16676SOL    HW261683   5.418   0.967   6.984  2.0423  0.9228  0.3481
16677SOL     OW61684   0.322   7.944   4.035 -0.5460 -0.3742 -0.5248
16677SOL    HW161685   0.384   7.866   4.025 -0.9598 -0.7213 -0.3914
16677SOL    HW261686   0.230   7.917   4.008 -1.0189 -0.3841  1.0557
16678SOL     OW61687   2.126   1.257   7.018 -0.2143  0.3387 -0.0978
16678SOL    HW161688   2.209   1.202   7.015  0.1204  0.7857  0.8510
16678SOL    HW261689   2.046   1.198   7.014  0.1356 -0.0486 -1.9775
16679SOL     OW61690   5.742   7.085   4.960  0.1889 -0.0703 -0.5871
16679SOL    HW161691   5.779   7.175   4.985  1.3789 -0.5726 -0.5100
16679SOL    HW261692   5.658   7.068   5.011  0.1091  0.8854 -0.3950
16680SOL     OW61693   1.012   2.887   7.157  0.3602 -0.6127 -0.0063
16680SOL    HW161694   1.069   2.860   7.080  0.9593 -1.2972  0.6549
16680SOL    HW261695   0.936   2.823   7.166 -1.4360  1.2182 -1.8492
16681SOL     OW61696   1.666   3.227   7.889  0.3967  0.2794 -0.7927
16681SOL    HW161697   1.716   3.274   7.961 -1.1929  3.4756 -1.6699
16681SOL    HW261698   1.724   3.218   7.808  0.9093  0.2178 -0.4205
16682SOL     OW61699   5.723   9.751   2.413  0.0174 -0.9125  0.1473
16682SOL    HW161700   5.659   9.782   2.343 -1.4270 -0.5369  1.6102
16682SOL    HW261701   5.787   9.685   2.372  0.5535  0.8633 -2.0132
16683SOL     OW61702   2.190   2.877   4.356  0.4069  0.3312  0.2971
16683SOL    HW161703   2.231   2.793   4.319  0.1245 -0.3350  1.4849
16683SOL    HW261704   2.255   2.922   4.417  0.3098  0.6164  0.1904
16684SOL     OW61705   4.414   8.384   5.707  0.0322  0.1063 -0.2815
16684SOL    HW161706   4.499   8.340   5.735 -1.7391 -1.6834  2.5165
16684SOL    HW261707   4.386   8.349   5.617  0.8813 -1.2778 -0.0153
16685SOL     OW61708   0.251   0.704   6.348 -0.0053  0.3276  0.6240
16685SOL    HW161709   0.160   0.680   6.382 -0.3064  0.5082 -0.0558
16685SOL    HW261710   0.249   0.797   6.311  0.4318  0.2952  0.5186
16686SOL     OW61711   8.816   5.733   6.481 -0.3772  0.0333  0.1580
16686SOL    HW161712   8.867   5.800   6.427  0.6167 -0.3131  0.6571
16686SOL    HW261713   8.730   5.711   6.435  0.2269  0.1310 -1.0203
16687SOL     OW61714   6.629   7.265   4.841  0.6120 -0.6068  0.4020
16687SOL    HW161715   6.539   7.224   4.849  1.1717 -1.9865 -0.3059
16687SOL    HW261716   6.697   7.209   4.889  0.9120  1.1322  2.1179
16688SOL     OW61717   9.480   6.304   0.398  0.4694  0.4219  0.2604
16688SOL    HW161718   9.383   6.280   0.398  0.9013 -1.5599  2.8891
16688SOL    HW261719   9.489   6.403   0.403 -1.4462  0.6085  0.6323
16689SOL     OW61720   5.488   4.027   7.517 -0.1004  0.5295 -0.6282
16689SOL    HW161721   5.572   4.081   7.507 -1.1560  2.3006 -0.0817
16689SOL    HW261722   5.472   4.008   7.614  0.0743 -0.4996 -0.7915
16690SOL     OW61723   0.033   9.717   4.846 -0.6683  0.6232 -0.1143
16690SOL    HW161724  -0.063   9.712   4.819 -1.3113  1.3624  1.8974
16690SOL    HW261725   0.055   9.642   4.908  0.3943 -0.2469 -1.5197
16691SOL     OW61726   8.363   3.497   1.936  0.5141 -0.0665  0.0537
16691SOL    HW161727   8.407   3.553   1.866 -0.3182 -0.4363 -0.7819
16691SOL    HW261728   8.375   3.400   1.915 -0.9827 -0.1787 -0.4073
16692SOL     OW61729   3.236   8.289   6.023  0.1472  0.2778 -0.2611
16692SOL    HW161730   3.331   8.314   6.004 -0.6430  1.4199 -2.9987
16692SOL    HW261731   3.197   8.353   6.089  0.7236  1.0187 -0.6365
16693SOL     OW61732   3.322   9.884   5.543 -0.0495 -0.2620 -0.0759
16693SOL    HW161733   3.415   9.914   5.519  0.3864 -1.3291  0.2297
16693SOL    HW261734   3.257   9.956   5.519  0.9071  0.7294  0.2181
16694SOL     OW61735   6.468   2.411   1.199 -0.5214  0.3778 -0.3845
16694SOL    HW161736   6.457   2.313   1.184 -0.5253 -0.1485  2.6529
16694SOL    HW261737   6.379   2.454   1.212 -0.4418  0.5140 -0.2735
16695SOL     OW61738   5.546   8.904   7.436 -0.3981 -0.5200  0.0542
16695SOL    HW161739   5.560   8.958   7.353 -4.2301 -1.2525 -1.1707
16695SOL    HW261740   5.517   8.964   7.511  0.1242 -0.2601  0.0523
16696SOL     OW61741   6.922   9.695   2.709 -0.3039 -0.0002  0.3873
16696SOL    HW161742   6.978   9.627   2.758 -3.6216 -1.0612  2.9133
16696SOL    HW261743   6.916   9.669   2.613  2.9025 -0.2324  0.1739
16697SOL     OW61744   1.374   2.549   4.731  0.2748 -0.8193 -0.1351
16697SOL    HW161745   1.373   2.547   4.831  1.0052 -0.0094 -0.1083
16697SOL    HW261746   1.454   2.500   4.697  0.9356  0.3423 -0.2736
16698SOL     OW61747   7.211   0.963   5.452  0.0197  0.2948 -0.1729
16698SOL    HW161748   7.226   1.031   5.525 -1.2475  0.3758  0.0162
16698SOL    HW261749   7.298   0.946   5.405  0.7634  0.5581  1.0760
16699SOL     OW61750   8.987   4.750   6.181 -0.3089  0.0266  0.4706
16699SOL    HW161751   8.992   4.742   6.280 -2.6975  1.7869  0.7735
16699SOL    HW261752   8.918   4.818   6.156 -1.9513 -2.5720 -2.4693
16700SOL     OW61753   0.773   3.531   3.044 -0.4591 -0.1457 -0.5543
16700SOL    HW161754   0.841   3.475   3.093 -0.3871  0.3745 -0.0514
16700SOL    HW261755   0.818   3.612   3.006 -0.0090 -1.7378 -3.6064
16701SOL     OW61756   2.172   5.240   3.520  0.0845 -0.0721 -0.6734
16701SOL    HW161757   2.126   5.255   3.433  0.5980 -1.3723 -1.1849
16701SOL    HW261758   2.241   5.311   3.535 -1.2924  1.2378 -0.4277
16702SOL     OW61759   2.662   7.661   0.431 -0.0344  0.1402 -0.0154
16702SOL    HW161760   2.594   7.705   0.373 -0.4573  0.2427  0.5544
16702SOL    HW261761   2.722   7.604   0.375 -0.9318 -0.3816 -0.4600
16703SOL     OW61762   7.350   1.088   4.506  0.4904  0.6073  0.2581
16703SOL    HW161763   7.289   1.039   4.569 -1.0830  1.2821 -0.7132
16703SOL    HW261764   7.300   1.163   4.462  1.3726 -0.1965 -2.2163
16704SOL     OW61765   5.986   0.415   0.606  0.1849 -0.3745  0.3387
16704SOL    HW161766   5.986   0.342   0.675  0.7113  1.7851  2.7096
16704SOL    HW261767   5.897   0.417   0.560  0.0415 -2.2659  0.4795
16705SOL     OW61768   6.010   3.807   1.181 -0.4620  0.3658 -0.7424
16705SOL    HW161769   6.054   3.759   1.104 -2.0144 -0.5573 -1.0740
16705SOL    HW261770   6.078   3.863   1.228  0.7308  0.1819 -2.1979
16706SOL     OW61771   3.838   8.644   2.603  0.2856 -0.1319  0.1847
16706SOL    HW161772   3.832   8.618   2.700  0.2203  0.5056  0.3565
16706SOL    HW261773   3.898   8.724   2.594 -0.5072  0.4239 -0.1756
16707SOL     OW61774   6.812   4.546   0.797  0.1553 -0.3755  0.1485
16707SOL    HW161775   6.789   4.627   0.744  1.4541  0.7978  1.3330
16707SOL    HW261776   6.806   4.568   0.895 -0.0609 -1.8777  0.4809
16708SOL     OW61777   0.799   4.154   3.795  0.1199  0.5098  0.2545
16708SOL    HW161778   0.871   4.210   3.835  1.0641  0.0808 -0.8414
16708SOL    HW261779   0.712   4.176   3.840  0.5955  2.3241  0.3311
16709SOL     OW61780   1.543   7.955   5.424  0.4850 -0.0722 -0.3508
16709SOL    HW161781   1.527   8.026   5.355 -1.3951  0.3997  0.5588
16709SOL    HW261782   1.571   7.997   5.510  0.9435 -0.5466 -0.2642
16710SOL     OW61783   8.911   2.308   2.096  0.6301 -0.1533 -0.2899
16710SOL    HW161784   8.929   2.236   2.029 -0.6569 -0.2526 -0.5398
16710SOL    HW261785   8.958   2.392   2.069 -0.1654 -0.0994 -1.4913
16711SOL     OW61786   8.235   2.147   5.902  0.0867 -0.3269  0.4361
16711SOL    HW161787   8.211   2.163   5.806  1.0851  2.7733  0.6658
16711SOL    HW261788   8.320   2.095   5.907 -0.0965 -0.7083 -0.3472
16712SOL     OW61789   3.155   8.581   5.231  0.2659  0.6159 -0.4160
16712SOL    HW161790   3.208   8.631   5.162 -1.0035  0.2277 -1.6884
16712SOL    HW261791   3.201   8.495   5.253  0.0861  0.1804 -1.6775
16713SOL     OW61792   5.038   9.391   5.146  0.2697 -0.2190  0.1496
16713SOL    HW161793   5.066   9.471   5.201 -2.4954  1.2206 -0.4493
16713SOL    HW261794   4.989   9.422   5.065  0.5090 -2.5179 -0.9097
16714SOL     OW61795   5.238   4.137   1.715 -0.3387  0.4352 -0.7793
16714SOL    HW161796   5.268   4.074   1.643  1.0972  0.8092 -0.5349
16714SOL    HW261797   5.296   4.219   1.714  0.9577 -0.3912  1.9981
16715SOL     OW61798   4.021   0.458   3.978  0.1204  0.0849  0.1409
16715SOL    HW161799   4.069   0.543   3.958  0.0353  0.2719  0.7451
16715SOL    HW261800   3.922   0.475   3.979  0.0659 -0.1761 -0.4997
16716SOL     OW61801   9.076   9.520   2.685 -0.2197  0.1289 -0.5853
16716SOL    HW161802   9.137   9.598   2.696 -0.6665  0.6087 -1.4894
16716SOL    HW261803   9.129   9.441   2.654 -0.0509  0.5579 -1.4231
16717SOL     OW61804   7.750   1.062   5.685 -0.2234  0.3901  0.0791
16717SOL    HW161805   7.806   1.014   5.752 -1.6344 -0.4833  0.6514
16717SOL    HW261806   7.783   1.039   5.593 -0.2098 -0.8454  0.3753
16718SOL     OW61807   1.348   1.607   3.948 -0.3048 -0.6387 -0.2311
16718SOL    HW161808   1.307   1.516   3.946 -0.0200 -0.7491 -1.1000
16718SOL    HW261809   1.276   1.676   3.936 -0.6946 -0.6890  1.7164
16719SOL     OW61810   6.461   7.528   3.404  0.4255 -0.4377  0.0951
16719SOL    HW161811   6.486   7.514   3.500 -1.2098 -0.0491  0.5850
16719SOL    HW261812   6.487   7.447   3.351 -0.1478 -1.3198  1.1532
16720SOL     OW61813   2.218   9.441   7.812 -0.6537 -0.6322 -0.2680
16720SOL    HW161814   2.195   9.538   7.800  1.9548  0.1085  0.4989
16720SOL    HW261815   2.200   9.414   7.906  0.4931 -0.3656  0.0289
16721SOL     OW61816   5.789   1.489   3.630  0.4797 -0.3013 -0.1172
16721SOL    HW161817   5.694   1.461   3.649  0.8335  0.5741  3.2014
16721SOL    HW261818   5.852   1.429   3.679  1.5406  1.2322  0.4167
16722SOL     OW61819   9.574   7.709   2.442  0.0128 -0.2919 -0.1583
16722SOL    HW161820   9.589   7.670   2.351 -0.4652 -0.6909 -0.0666
16722SOL    HW261821   9.624   7.655   2.509  1.2064  0.6228 -0.3108
16723SOL     OW61822   3.508   8.298   6.623  0.3239  0.2239 -0.1291
16723SOL    HW161823   3.515   8.327   6.719  0.9920 -0.4155  0.0244
16723SOL    HW261824   3.419   8.325   6.586 -1.5125 -2.8460  1.8069
16724SOL     OW61825   2.846   3.928   3.883  0.2236  0.3961 -0.1748
16724SOL    HW161826   2.793   3.914   3.800  1.2824 -0.6081 -0.7087
16724SOL    HW261827   2.888   4.019   3.881  1.1426 -0.0256 -1.2928
16725SOL     OW61828   1.781   6.182   5.677 -0.3631  0.0983  0.1633
16725SOL    HW161829   1.772   6.090   5.714  0.7576  0.4943  1.4253
16725SOL    HW261830   1.693   6.211   5.639 -1.3840 -0.5299  1.9877
16726SOL     OW61831   6.574   9.442   5.116  0.4461  0.2068  0.0235
16726SOL    HW161832   6.561   9.496   5.033  0.6696 -0.2914 -0.3400
16726SOL    HW261833   6.499   9.377   5.125  0.0273  0.7702  0.6131
16727SOL     OW61834   1.465   1.294   1.652  0.0997 -0.6876  0.0866
16727SOL    HW161835   1.538   1.301   1.720 -0.3593 -1.0282  0.6201
16727SOL    HW261836   1.502   1.259   1.566  1.1665  2.1210 -0.6196
16728SOL     OW61837   7.920   8.028   2.780  0.2098 -0.3250 -0.1495
16728SOL    HW161838   7.872   8.006   2.864  0.4269  0.4293  0.1759
16728SOL    HW261839   7.952   7.944   2.736 -0.3191 -0.7439  0.2684
16729SOL     OW61840   1.322   8.641   3.341 -0.4629 -0.4041  0.6662
16729SOL    HW161841   1.386   8.598   3.404 -0.0302 -1.2792 -0.3698
16729SOL    HW261842   1.369   8.713   3.289 -0.1968 -1.3422 -0.4078
16730SOL     OW61843   9.273   7.107   1.059  0.3102  0.0861 -0.4288
16730SOL    HW161844   9.178   7.134   1.074  0.0504 -0.4100 -1.1229
16730SOL    HW261845   9.301   7.044   1.130  0.6572  1.5266  0.7349
16731SOL     OW61846   9.644   3.593   0.748 -0.6606 -0.3974  0.3233
16731SOL    HW161847   9.652   3.676   0.693  0.2581  0.3475  1.5364
16731SOL    HW261848   9.687   3.517   0.700  0.3416  0.2916  0.1125
16732SOL     OW61849   9.607   6.291   7.343  0.0801 -0.0370 -0.0003
16732SOL    HW161850   9.540   6.282   7.417  0.8438 -0.8184  0.6036
16732SOL    HW261851   9.578   6.365   7.281 -0.7182  0.4234  0.9010
16733SOL     OW61852   1.098   2.895   7.622  0.3292  0.4163  0.0357
16733SOL    HW161853   1.084   2.887   7.524 -2.0445 -0.3157  0.4035
16733SOL    HW261854   1.188   2.858   7.646  0.5526 -0.2162 -1.7372
16734SOL     OW61855   6.057   2.594   3.742 -0.0988 -0.0713 -0.0360
16734SOL    HW161856   6.030   2.516   3.687 -3.0856  0.5158  0.5094
16734SOL    HW261857   6.145   2.629   3.710  1.2347 -3.5490 -0.3444
16735SOL     OW61858   8.033   3.188   7.983 -0.5347 -0.3824  0.2636
16735SOL    HW161859   8.117   3.134   7.983 -1.1320 -1.3175  0.8914
16735SOL    HW261860   8.049   3.274   7.935 -0.2801 -2.1901 -3.0661
16736SOL     OW61861   1.048   9.632   1.994  0.1717 -0.4883 -0.1127
16736SOL    HW161862   1.107   9.610   2.071 -0.5204 -2.2651 -0.0806
16736SOL    HW261863   1.054   9.730   1.974  0.4061 -0.0288  2.1465
16737SOL     OW61864   1.281   6.922   0.628 -0.0237  0.2620 -0.2623
16737SOL    HW161865   1.306   6.848   0.689  0.8943  1.2075  0.5263
16737SOL    HW261866   1.361   6.950   0.574 -0.6368 -0.0643 -1.3675
16738SOL     OW61867   5.614   8.930   6.289 -0.0671  0.1457  0.2035
16738SOL    HW161868   5.672   8.989   6.346  0.3524 -0.1703  0.1013
16738SOL    HW261869   5.626   8.955   6.193  0.6817 -0.6157  0.1010
16739SOL     OW61870   1.517   5.914   5.765 -0.4502 -0.4401 -0.2761
16739SOL    HW161871   1.440   5.853   5.785 -1.0149 -0.5371 -2.6694
16739SOL    HW261872   1.573   5.875   5.692  2.2573 -0.6540  1.8061
16740SOL     OW61873   2.858   1.801   6.723 -0.0049  0.2395 -0.2443
16740SOL    HW161874   2.879   1.806   6.821 -2.9476  0.7797  0.4087
16740SOL    HW261875   2.837   1.892   6.689 -1.3300 -0.2700 -0.8146
16741SOL     OW61876   4.876   9.803   2.293 -0.1590 -0.3988  0.1464
16741SOL    HW161877   4.785   9.818   2.254 -0.4493  1.2429  1.3966
16741SOL    HW261878   4.869   9.744   2.374 -0.1056 -0.3425  0.1927
16742SOL     OW61879   0.233   5.503   2.292 -0.2985 -0.9188 -0.2625
16742SOL    HW161880   0.156   5.567   2.301  1.7696  1.5080  0.6169
16742SOL    HW261881   0.295   5.536   2.221  1.9859 -0.6641  1.7818
16743SOL     OW61882   3.578   6.908   0.402 -0.2363  0.1701  0.3688
16743SOL    HW161883   3.496   6.920   0.346 -0.2462  1.8604  0.7089
16743SOL    HW261884   3.653   6.874   0.345 -0.7685  0.0564 -0.2632
16744SOL     OW61885   9.704   8.870   5.692 -0.3240 -0.8568  0.0910
16744SOL    HW161886   9.636   8.812   5.647 -0.7577 -1.1899  1.1533
16744SOL    HW261887   9.736   8.825   5.776 -0.4741  0.3135  0.7872
16745SOL     OW61888   8.808   7.020   7.909  0.1506 -0.3295  0.4579
16745SOL    HW161889   8.873   7.093   7.930  0.3179 -1.0004  2.4125
16745SOL    HW261890   8.716   7.051   7.933 -0.7794  1.7612 -5.1108
16746SOL     OW61891   9.187   2.701   4.470  0.2062  0.3608  0.5654
16746SOL    HW161892   9.162   2.616   4.424 -0.0427 -0.3961  2.0671
16746SOL    HW261893   9.271   2.686   4.522 -0.0406  0.9408  1.1226
16747SOL     OW61894   9.709   9.394   5.404 -0.0092 -0.0341  0.3052
16747SOL    HW161895   9.649   9.362   5.331 -2.5080  0.8513  1.9175
16747SOL    HW261896   9.737   9.488   5.384 -1.3164  0.4818  0.8422
16748SOL     OW61897   2.736   9.101   3.536 -0.1609  0.2246 -0.6605
16748SOL    HW161898   2.707   9.192   3.506 -0.4356  0.4589  0.3127
16748SOL    HW261899   2.668   9.033   3.507 -0.6712  0.5129 -0.1408
16749SOL     OW61900   4.151   8.995   2.569  0.3679 -0.4557  0.1514
16749SOL    HW161901   4.119   8.963   2.480  1.1895 -0.3921 -0.1693
16749SOL    HW261902   4.100   8.949   2.641  1.6602 -2.6370 -0.2823
16750SOL     OW61903   4.991   1.522   4.475  0.2786 -0.0927  0.5571
16750SOL    HW161904   5.025   1.470   4.553 -0.3015 -0.8559  0.3094
16750SOL    HW261905   4.903   1.485   4.446  0.2480  0.5131 -0.1389
16751SOL     OW61906   1.354   7.148   3.842 -0.3133 -0.5088  0.2836
16751SOL    HW161907   1.397   7.220   3.789 -0.8581 -0.9268 -0.7306
16751SOL    HW261908   1.372   7.059   3.799 -0.9883 -0.8241  0.6338
16752SOL     OW61909   7.911   3.450   1.730 -0.0270  0.2286 -0.1846
16752SOL    HW161910   7.935   3.370   1.676  2.7502  1.2828 -0.5632
16752SOL    HW261911   7.935   3.533   1.680  0.8771  1.2523  1.8913
16753SOL     OW61912   2.995   6.052   6.095  0.3638  0.0969  0.0693
16753SOL    HW161913   3.019   6.150   6.095  0.5300  0.0625  1.1721
16753SOL    HW261914   2.976   6.023   6.189 -1.1240 -0.5887 -0.4341
16754SOL     OW61915   3.068   1.544   6.378 -0.0194 -0.3753  0.1131
16754SOL    HW161916   2.974   1.520   6.402  0.4894 -2.0981  0.3811
16754SOL    HW261917   3.119   1.569   6.460  0.0953 -0.6241  0.1180
16755SOL     OW61918   6.055   1.952   8.010 -0.1992 -0.2107 -0.0360
16755SOL    HW161919   6.141   1.971   8.057  0.2803  1.4132 -1.4912
16755SOL    HW261920   5.978   1.981   8.067  0.2505 -0.8991  0.9238
16756SOL     OW61921   1.779   3.263   5.387 -0.2069  0.1160 -0.5379
16756SOL    HW161922   1.706   3.285   5.323 -0.1218 -1.7788 -1.3173
16756SOL    HW261923   1.741   3.213   5.465 -0.0684  1.0508  0.1376
16757SOL     OW61924   6.612   1.766   3.393 -0.1198  0.1024 -0.0448
16757SOL    HW161925   6.566   1.852   3.415  1.6351  1.6726 -2.3473
16757SOL    HW261926   6.570   1.725   3.312 -0.0458 -0.5372  0.2308
16758SOL     OW61927   1.166   7.161   7.942  0.3482  0.4316  0.8279
16758SOL    HW161928   1.102   7.099   7.987  1.0758 -1.5957 -0.8584
16758SOL    HW261929   1.120   7.210   7.868  1.0197 -2.0688 -1.3104
16759SOL     OW61930   3.597   1.236   1.686 -0.6870  0.0096  0.0089
16759SOL    HW161931   3.586   1.335   1.685  1.1505  0.2600  1.5285
16759SOL    HW261932   3.555   1.199   1.769 -2.9830 -0.7131 -1.4459
16760SOL     OW61933   9.475   8.521   6.600  0.2394 -0.0704  0.2440
16760SOL    HW161934   9.540   8.560   6.535  0.1811 -0.0670  0.1884
16760SOL    HW261935   9.459   8.587   6.674 -0.6666  0.4330 -0.4012
16761SOL     OW61936   9.862   3.395   2.148  0.4214 -0.2212 -0.0907
16761SOL    HW161937   9.832   3.489   2.133 -0.2453 -0.1718  1.4601
16761SOL    HW261938   9.946   3.378   2.097 -0.0402  0.8869 -1.2397
16762SOL     OW61939   9.699   4.087   5.344 -0.2738 -0.0213 -0.2137
16762SOL    HW161940   9.729   4.006   5.294  0.0570  0.1111 -0.2317
16762SOL    HW261941   9.715   4.072   5.442 -1.7934 -0.6572 -0.0547
16763SOL     OW61942   8.041   3.921   2.344  0.3579  0.2751  0.7773
16763SOL    HW161943   7.951   3.877   2.349  0.6432 -0.5314 -0.9488
16763SOL    HW261944   8.112   3.853   2.358  0.7642  0.4820 -0.2676
16764SOL     OW61945   2.980   2.527   5.948 -0.1574 -0.1220  0.2322
16764SOL    HW161946   3.062   2.475   5.974 -1.2418 -2.7511 -1.4095
16764SOL    HW261947   2.954   2.503   5.855 -1.7679  2.0751  0.0804
16765SOL     OW61948   4.348   8.995   7.183 -0.5233 -0.2169 -0.0328
16765SOL    HW161949   4.275   8.951   7.235  0.0410  0.3712  1.3034
16765SOL    HW261950   4.309   9.063   7.121 -1.2028 -0.8570 -0.3049
16766SOL     OW61951   3.186   3.084   2.993 -0.1659  0.5463 -0.3186
16766SOL    HW161952   3.195   3.140   3.075  1.8004 -0.0050 -0.1440
16766SOL    HW261953   3.093   3.046   2.990 -1.1575  2.8223  0.1606
16767SOL     OW61954   1.351   1.753   4.664 -0.0827  0.8650  0.3932
16767SOL    HW161955   1.439   1.714   4.690 -0.4280  0.5097  1.0519
16767SOL    HW261956   1.340   1.750   4.565 -0.5459 -1.6916  0.4908
16768SOL     OW61957   5.101   7.850   4.630  0.4744  0.0266  0.2311
16768SOL    HW161958   5.168   7.817   4.564  1.3924 -0.6589  1.5007
16768SOL    HW261959   5.027   7.784   4.640  0.8204 -0.3089  0.5893
16769SOL     OW61960   2.470   6.589   1.132 -0.1697  0.0616 -0.4909
16769SOL    HW161961   2.386   6.593   1.187 -1.3750  1.5331 -2.3508
16769SOL    HW261962   2.547   6.619   1.188 -1.0781 -0.0781  0.8840
16770SOL     OW61963   2.643   0.084   8.060  0.1229  0.5130 -0.8851
16770SOL    HW161964   2.586   0.042   7.990  0.0444 -0.8458 -0.0107
16770SOL    HW261965   2.612   0.178   8.077  1.4156  1.5981 -4.1406
16771SOL     OW61966   0.334   0.846   3.639 -0.0866 -0.2897  0.3215
16771SOL    HW161967   0.357   0.893   3.724  1.3414 -0.5832  0.1081
16771SOL    HW261968   0.349   0.747   3.651  3.0523 -0.0414 -1.1870
16772SOL     OW61969   2.395   4.041   4.266  0.0637 -0.2805  0.2065
16772SOL    HW161970   2.299   4.056   4.243  0.0490  1.4132  1.3051
16772SOL    HW261971   2.430   3.965   4.212 -2.0079 -1.2009  0.0836
16773SOL     OW61972   3.905   1.742   6.239 -0.8517 -0.0294 -0.0746
16773SOL    HW161973   3.980   1.688   6.201 -1.1566  0.1012 -0.8777
16773SOL    HW261974   3.848   1.776   6.164 -0.2761  1.9670  0.3798
16774SOL     OW61975   1.118   7.452   4.282  0.1485  0.0528 -0.5701
16774SOL    HW161976   1.192   7.469   4.347 -0.4787 -1.1159  0.4773
16774SOL    HW261977   1.082   7.539   4.248 -1.0911  0.7959  2.4744
16775SOL     OW61978   7.642   7.594   5.460  0.5667  0.0989 -0.3879
16775SOL    HW161979   7.706   7.524   5.493  0.2745 -0.1406 -0.3329
16775SOL    HW261980   7.551   7.575   5.494  0.5833  0.8118  0.0672
16776SOL     OW61981   3.116   7.948   3.274  0.0050 -0.3005  0.0847
16776SOL    HW161982   3.073   7.864   3.240 -1.9239  0.1121  1.4329
16776SOL    HW261983   3.075   8.027   3.227 -0.1364  0.0403  0.7748
16777SOL     OW61984   3.601   4.803   4.384  0.5047  0.9170 -0.0804
16777SOL    HW161985   3.688   4.754   4.372 -0.0749 -0.0548 -0.3626
16777SOL    HW261986   3.619   4.902   4.383  1.7461  0.7236  0.9611
16778SOL     OW61987   4.631   7.178   2.783 -0.1252  0.0805  0.0574
16778SOL    HW161988   4.632   7.275   2.760 -3.2515 -0.0799 -0.8940
16778SOL    HW261989   4.547   7.155   2.832  1.6943 -1.6918  2.5634
16779SOL     OW61990   0.447   9.108   3.629  0.2153  0.1509  0.1312
16779SOL    HW161991   0.457   9.185   3.567 -0.9090 -0.9412 -1.4447
16779SOL    HW261992   0.364   9.120   3.684  0.8753  0.8112  0.9963
16780SOL     OW61993   2.236   3.797   3.551 -0.2067  0.3783 -0.1781
16780SOL    HW161994   2.166   3.837   3.610 -1.2658  1.2817 -2.0200
16780SOL    HW261995   2.193   3.757   3.470  1.1454 -1.6319  0.0501
16781SOL     OW61996   9.544   8.408   1.995  0.0713 -0.3553 -0.0126
16781SOL    HW161997   9.462   8.465   1.982 -1.3147 -2.1388  0.6913
16781SOL    HW261998   9.517   8.312   1.997  2.2648 -0.9843 -0.1929
16782SOL     OW61999   4.867   9.551   4.981  0.1714  0.3601 -0.4607
16782SOL    HW162000   4.781   9.603   4.981  0.2014  0.4930  1.9146
16782SOL    HW262001   4.943   9.613   5.001  0.5811 -0.0885 -0.6219
16783SOL     OW62002   8.809   3.177   1.956 -0.1014  0.4173  0.9058
16783SOL    HW162003   8.779   3.193   2.050 -2.0728  0.5708  0.2574
16783SOL    HW262004   8.751   3.228   1.893  0.8190 -0.1792 -0.4470
16784SOL     OW62005   9.945   2.160   3.875  0.4290 -0.3656 -0.4682
16784SOL    HW162006   9.944   2.257   3.852  0.7471 -0.4100 -0.6685
16784SOL    HW262007   9.927   2.148   3.972  2.6307  0.0246  0.0063
16785SOL     OW62008   8.991   3.434   2.979  0.2288 -0.5727 -0.6512
16785SOL    HW162009   9.087   3.426   2.950 -0.0185  0.0114 -1.6344
16785SOL    HW262010   8.947   3.345   2.971  0.8243 -0.9700  0.3190
16786SOL     OW62011   2.454   3.969   5.693 -0.0179  0.1706  0.5626
16786SOL    HW162012   2.458   4.051   5.749 -1.6048 -0.0435  1.0177
16786SOL    HW262013   2.458   3.993   5.596 -2.2406  0.9344  0.6418
16787SOL     OW62014   3.495   8.411   1.365  0.4619  0.0144  0.1283
16787SOL    HW162015   3.525   8.437   1.457 -2.3410  0.2292  1.0313
16787SOL    HW262016   3.395   8.415   1.360  0.5739  0.0680 -2.9698
16788SOL     OW62017   2.136   3.994   7.933 -0.1758 -0.5155  0.0900
16788SOL    HW162018   2.210   4.051   7.896  0.2985 -0.8757  0.4793
16788SOL    HW262019   2.150   3.981   8.031  0.0157 -1.7408 -0.0866
16789SOL     OW62020  10.000   9.405   6.050  0.0973  0.6773 -0.3978
16789SOL    HW162021   9.975   9.325   5.996 -0.8095  0.9086 -0.3403
16789SOL    HW262022   9.936   9.480   6.030  0.3367  1.0682  0.2771
16790SOL     OW62023   2.243   7.892   2.273 -0.2509  0.0879  0.4915
16790SOL    HW162024   2.254   7.810   2.217 -1.1703  0.5510 -0.3720
16790SOL    HW262025   2.266   7.871   2.368  1.0304 -0.7752 -0.0026
16791SOL     OW62026   1.390   7.770   3.913  0.1457 -0.3013 -0.0333
16791SOL    HW162027   1.453   7.846   3.925 -0.2609  0.2222 -1.1096
16791SOL    HW262028   1.328   7.790   3.836 -1.0505 -0.9793  0.7331
16792SOL     OW62029   7.045   3.569   0.180 -0.0311 -0.0869  0.0487
16792SOL    HW162030   7.052   3.610   0.271  1.4636 -1.1432  0.4305
16792SOL    HW262031   6.960   3.597   0.137 -0.0991  1.5636  1.2183
16793SOL     OW62032   0.843   4.862   6.879 -0.0457 -0.3342  0.1650
16793SOL    HW162033   0.781   4.825   6.948  0.4720 -1.8172 -0.1398
16793SOL    HW262034   0.791   4.890   6.799 -0.3296 -1.5800 -0.0938
16794SOL     OW62035   0.323   9.472   3.910 -0.3419 -0.7147  0.1671
16794SOL    HW162036   0.269   9.510   3.835 -0.1911 -0.9926 -0.0848
16794SOL    HW262037   0.411   9.441   3.874  0.0267 -0.1712  0.5910
16795SOL     OW62038   3.061   4.407   4.171  0.2851  0.2985 -0.1103
16795SOL    HW162039   3.135   4.349   4.136  1.0171 -0.1355  2.1095
16795SOL    HW262040   3.100   4.489   4.212 -0.6096  1.0873 -0.8065
16796SOL     OW62041   5.169   6.794   1.825 -0.1661  0.1746 -0.4555
16796SOL    HW162042   5.090   6.754   1.871 -0.4598 -1.4671 -2.3276
16796SOL    HW262043   5.253   6.762   1.869 -0.5027  2.7577  2.2088
16797SOL     OW62044   3.739   7.201   0.814 -0.3209  0.7801  0.1811
16797SOL    HW162045   3.733   7.102   0.829 -0.2775  0.6052 -0.9655
16797SOL    HW262046   3.836   7.227   0.808 -0.3782  0.5574 -1.7572
16798SOL     OW62047   9.017   4.135   3.758 -0.2028 -0.1982 -0.1413
16798SOL    HW162048   9.115   4.120   3.741 -0.2513 -0.4786 -0.1681
16798SOL    HW262049   8.964   4.067   3.708 -0.4498  0.4738 -0.7980
16799SOL     OW62050   9.481   9.257   2.630  0.3708  0.2754  0.2741
16799SOL    HW162051   9.507   9.250   2.726  0.0454  0.8060  0.4008
16799SOL    HW262052   9.525   9.183   2.579 -0.7749 -1.0128  1.1149
16800SOL     OW62053   4.464   2.423   1.878 -0.3497 -0.0147 -0.0117
16800SOL    HW162054   4.527   2.365   1.930  0.1820  1.0465  0.5387
16800SOL    HW262055   4.515   2.498   1.836 -1.0761  0.2079 -0.5094
16801SOL     OW62056   9.834   6.859   5.156 -0.4980  0.3182 -0.0024
16801SOL    HW162057   9.821   6.763   5.180 -1.7076  0.2904 -0.6984
16801SOL    HW262058   9.869   6.864   5.062 -1.3274  0.5801 -0.2987
16802SOL     OW62059   0.637   4.625   4.591  0.3673  0.0755 -0.0218
16802SOL    HW162060   0.692   4.636   4.674  0.4934 -2.6069  0.2911
16802SOL    HW262061   0.696   4.597   4.515 -0.0426  0.6703 -0.5687
16803SOL     OW62062   6.655   8.928   2.668  0.0762 -0.9939  0.2925
16803SOL    HW162063   6.557   8.945   2.673  0.0674 -1.1353  0.6149
16803SOL    HW262064   6.690   8.956   2.579  0.2452  1.5984  1.1542
16804SOL     OW62065   9.852   6.036   1.845 -0.4454 -0.6430  0.0308
16804SOL    HW162066   9.943   6.060   1.878 -1.3206  1.0909  1.2737
16804SOL    HW262067   9.858   5.999   1.752  1.3908  0.5448 -0.3416
16805SOL     OW62068   2.150   1.245   5.502 -0.2773 -0.2249 -0.2120
16805SOL    HW162069   2.158   1.323   5.564 -3.1378  0.5841 -0.7584
16805SOL    HW262070   2.207   1.170   5.535  2.8199  2.1614  0.1478
16806SOL     OW62071   9.820   9.059   3.640 -0.6936 -1.1203 -0.4241
16806SOL    HW162072   9.910   9.025   3.613  0.2311  0.9111 -0.0043
16806SOL    HW262073   9.754   8.983   3.643  1.5649 -3.0692  1.7418
16807SOL     OW62074   0.578   9.251   4.891 -0.0247 -0.8324 -0.3304
16807SOL    HW162075   0.592   9.243   4.990 -0.6040 -3.3150 -0.4141
16807SOL    HW262076   0.589   9.346   4.863  1.2696 -0.2818  1.9507
16808SOL     OW62077   3.804   3.376   5.814 -0.3774 -0.3023  0.2787
16808SOL    HW162078   3.806   3.413   5.721 -1.3952 -0.6356  0.1099
16808SOL    HW262079   3.801   3.451   5.880 -1.4376 -0.0631 -0.0250
16809SOL     OW62080   3.765   9.233   4.174 -0.3274  0.2092 -0.0831
16809SOL    HW162081   3.852   9.246   4.126  1.2623  0.6589  2.7938
16809SOL    HW262082   3.735   9.139   4.162  0.3221  0.1515 -1.4320
16810SOL     OW62083   0.788   6.557   1.513 -0.2897  0.2414 -0.3996
16810SOL    HW162084   0.768   6.655   1.514 -2.2486 -0.1225  1.5321
16810SOL    HW262085   0.838   6.533   1.597  0.2708 -0.4084 -0.9116
16811SOL     OW62086   2.042   0.145   1.875 -0.4029 -0.3616  0.3775
16811SOL    HW162087   2.017   0.086   1.952 -0.3402  0.0324  0.6977
16811SOL    HW262088   2.055   0.088   1.793  0.8210 -0.9248  0.9630
16812SOL     OW62089   9.539   8.463   6.255  0.5090  0.0621 -0.6052
16812SOL    HW162090   9.447   8.430   6.278 -0.1761  2.1324 -0.2519
16812SOL    HW262091   9.607   8.403   6.297 -0.6844 -0.3448  0.8159
16813SOL     OW62092   6.285   5.995   1.473  0.0792 -0.1850  0.4498
16813SOL    HW162093   6.187   6.003   1.458 -0.0402 -1.9366  0.1819
16813SOL    HW262094   6.310   6.038   1.559 -0.8942  0.4002  0.4437
16814SOL     OW62095   0.383   0.928   8.101 -0.4375 -0.1923 -0.1366
16814SOL    HW162096   0.348   0.840   8.135 -1.5395  0.5454  0.7048
16814SOL    HW262097   0.482   0.931   8.112 -0.4826 -1.0317  0.5693
16815SOL     OW62098   1.433   7.274   0.784 -0.2295  0.1484  0.2562
16815SOL    HW162099   1.477   7.308   0.867 -0.3589 -0.2667  0.4965
16815SOL    HW262100   1.468   7.184   0.762  0.0896  0.4195 -0.3648
16816SOL     OW62101   8.766   8.139   7.802 -0.1488  0.0213  0.0252
16816SOL    HW162102   8.742   8.139   7.704 -0.2258 -0.8092  0.0424
16816SOL    HW262103   8.723   8.061   7.847  0.3080  0.1082  0.6220
16817SOL     OW62104   9.085   5.340   6.401  0.3191 -0.0338 -0.6323
16817SOL    HW162105   9.004   5.396   6.417  0.2357 -0.7018  1.4022
16817SOL    HW262106   9.166   5.399   6.396  0.2729  0.2784  1.7951
16818SOL     OW62107   8.385   0.198   0.335  0.0430  0.4673  0.5197
16818SOL    HW162108   8.352   0.126   0.274  1.4622  0.7356 -0.5860
16818SOL    HW262109   8.307   0.254   0.365 -0.8306 -0.4300 -0.0336
16819SOL     OW62110   2.270   2.121   3.646  0.0649 -0.0339  0.1778
16819SOL    HW162111   2.198   2.084   3.588  0.7384 -1.1964  0.0866
16819SOL    HW262112   2.293   2.213   3.616 -1.2598  0.2858  0.0980
16820SOL     OW62113   1.923   5.727   3.032 -0.5918  0.1790 -0.7588
16820SOL    HW162114   2.009   5.765   3.067 -1.2226 -1.1618  2.4810
16820SOL    HW262115   1.941   5.641   2.984 -0.0493  0.0783 -0.3796
16821SOL     OW62116   6.557   5.283   7.835 -0.4980 -0.0924  0.4051
16821SOL    HW162117   6.635   5.336   7.800 -1.7245  1.6099  0.1943
16821SOL    HW262118   6.489   5.272   7.762 -1.2551 -0.0271  1.1049
16822SOL     OW62119   9.558   9.793   1.731  0.0969 -0.5789  0.8948
16822SOL    HW162120   9.622   9.839   1.794  0.1549 -1.0286  1.1637
16822SOL    HW262121   9.527   9.707   1.772  0.6909 -1.2268 -0.0071
16823SOL     OW62122   3.323   9.491   4.039 -0.0474  0.1931  0.2015
16823SOL    HW162123   3.378   9.428   4.094 -1.0195 -0.9070 -0.0485
16823SOL    HW262124   3.230   9.495   4.076  0.1689  1.9705  0.5772
16824SOL     OW62125   3.005   1.259   7.875 -0.3820 -0.2838 -0.4385
16824SOL    HW162126   2.919   1.212   7.856 -1.5973  0.7318  2.3026
16824SOL    HW262127   3.082   1.195   7.867 -1.7749 -2.1554  0.9552
16825SOL     OW62128   9.361   7.045   7.370 -0.2258  0.1114 -1.0395
16825SOL    HW162129   9.389   7.123   7.426 -0.1978 -0.6120 -0.0433
16825SOL    HW262130   9.272   7.065   7.328 -2.0762 -0.7824  2.2351
16826SOL     OW62131   8.054   6.209   5.326  0.0566  0.3012 -0.4430
16826SOL    HW162132   8.146   6.232   5.356  0.1653 -2.1232  1.2093
16826SOL    HW262133   8.059   6.150   5.245 -0.0652  0.3566 -0.4914
16827SOL     OW62134   9.558   0.743   6.179 -0.3627 -0.3614  0.2425
16827SOL    HW162135   9.504   0.713   6.101 -0.0399  0.9426 -0.4852
16827SOL    HW262136   9.648   0.773   6.148  0.7414 -2.3057  1.4217
16828SOL     OW62137   1.269   8.610   6.121  0.3486  0.4765  0.1739
16828SOL    HW162138   1.309   8.697   6.090 -0.9711  1.2544  0.6013
16828SOL    HW262139   1.268   8.607   6.221  0.7938 -0.2296  0.1605
16829SOL     OW62140   9.863   3.967   3.879  0.0500  0.3779  0.6015
16829SOL    HW162141   9.880   4.064   3.864  2.5454  0.1003  1.3548
16829SOL    HW262142   9.872   3.918   3.792  0.0879  0.6528  0.4510
16830SOL     OW62143   2.002   5.468   2.943  0.0326 -0.0826 -0.3415
16830SOL    HW162144   2.095   5.430   2.942  0.6518  1.3255  1.5263
16830SOL    HW262145   1.950   5.427   3.019  0.3004  1.7888  0.8883
16831SOL     OW62146   9.849   5.162   1.604  0.3528 -0.8045 -0.0115
16831SOL    HW162147   9.947   5.155   1.590  0.3515  0.5521 -0.7467
16831SOL    HW262148   9.828   5.244   1.657 -0.2642 -1.9395  1.5353
16832SOL     OW62149   7.329   1.866   1.439 -0.5238 -0.1417  0.8646
16832SOL    HW162150   7.237   1.837   1.411 -1.4300  0.3881  3.1880
16832SOL    HW262151   7.350   1.955   1.399 -1.0697 -0.1924  0.4550
16833SOL     OW62152   9.007   2.215   5.179  0.0665  0.7441 -0.0601
16833SOL    HW162153   9.098   2.256   5.178  0.2659  0.2981 -1.5605
16833SOL    HW262154   8.958   2.240   5.095 -0.4109 -0.7057 -0.2392
16834SOL     OW62155   4.988   3.392   6.921 -0.0898  0.0651  0.1888
16834SOL    HW162156   5.047   3.464   6.885 -2.0976  0.9056 -1.5184
16834SOL    HW262157   4.948   3.421   7.008  0.0870  0.4931  0.1269
16835SOL     OW62158   9.601   9.747   3.200 -0.0474  0.1572 -0.0008
16835SOL    HW162159   9.677   9.702   3.246 -0.1918  1.9134  2.0163
16835SOL    HW262160   9.516   9.730   3.251 -0.4235  1.1046 -0.2995
16836SOL     OW62161   2.282   6.248   4.868  0.4985  0.0775  0.1407
16836SOL    HW162162   2.292   6.262   4.769  1.3404  0.1804  0.2394
16836SOL    HW262163   2.228   6.166   4.884 -1.1534  1.0100 -0.4174
16837SOL     OW62164   3.485   3.732   1.377  0.6479 -0.4598 -0.6199
16837SOL    HW162165   3.385   3.732   1.376  0.6469  0.4970 -2.1225
16837SOL    HW262166   3.519   3.638   1.385 -0.3612 -0.8063 -0.3553
16838SOL     OW62167   1.304   0.711   4.315  0.0518 -0.7712  0.5107
16838SOL    HW162168   1.231   0.644   4.304 -1.5763  1.1641 -0.9969
16838SOL    HW262169   1.265   0.801   4.332  1.9660  0.6107 -1.9060
16839SOL     OW62170   3.719   3.269   6.827  0.2345  0.1034  0.0822
16839SOL    HW162171   3.785   3.231   6.762 -0.0459 -3.8618  1.9838
16839SOL    HW262172   3.763   3.281   6.916 -1.0272 -0.5344  0.7982
16840SOL     OW62173   1.773   9.424   4.175 -0.1286  0.0752  0.3250
16840SOL    HW162174   1.861   9.465   4.198 -0.5792  0.4868  1.3525
16840SOL    HW262175   1.751   9.444   4.079  0.4759  0.7356  0.3172
16841SOL     OW62176   2.475   1.296   5.914  0.2197  0.4070 -0.2716
16841SOL    HW162177   2.531   1.368   5.873  0.8031  0.6995  1.0310
16841SOL    HW262178   2.498   1.287   6.011 -0.6036 -0.8091 -0.1856
16842SOL     OW62179   8.891   9.027   3.847  0.0218 -0.1065  0.1493
16842SOL    HW162180   8.885   9.095   3.920 -4.4156 -0.1343 -0.0955
16842SOL    HW262181   8.878   9.072   3.758  0.3629 -0.8406 -0.2805
16843SOL     OW62182   9.052   6.031   4.535 -0.2172  0.1175  0.2566
16843SOL    HW162183   9.088   5.993   4.620 -0.3508  4.1238  2.2003
16843SOL    HW262184   9.112   6.104   4.502 -2.0078  1.0315 -1.1229
16844SOL     OW62185   9.718   3.916   6.501 -0.1969  0.0828  0.5837
16844SOL    HW162186   9.679   3.933   6.592 -1.8338  2.4639 -0.4908
16844SOL    HW262187   9.662   3.963   6.432  1.4303 -1.0885 -1.5876
16845SOL     OW62188   2.130   4.470   3.977 -0.2841  0.6055 -0.4117
16845SOL    HW162189   2.098   4.504   3.888 -0.5664 -0.2006 -0.6204
16845SOL    HW262190   2.052   4.453   4.036 -0.0157  2.7076  0.5764
16846SOL     OW62191   2.770   8.940   5.117 -0.0974  0.4130 -0.2746
16846SOL    HW162192   2.708   8.965   5.192 -0.8166  0.2549 -0.8113
16846SOL    HW262193   2.809   8.850   5.135 -1.8509 -0.5218 -1.0787
16847SOL     OW62194   8.803   3.801   2.639  0.4113  0.0357 -0.1490
16847SOL    HW162195   8.831   3.800   2.735  1.7473  0.7965 -0.5091
16847SOL    HW262196   8.804   3.708   2.603  1.1068 -0.1135  0.2446
16848SOL     OW62197   1.011   3.447   4.223 -0.6815  0.3825 -0.1002
16848SOL    HW162198   0.967   3.500   4.150 -3.3777  0.0809  1.2501
16848SOL    HW262199   0.966   3.358   4.231  1.0642 -0.4818  0.4650
16849SOL     OW62200   4.184   7.653   3.629 -0.1113  0.1687 -0.1222
16849SOL    HW162201   4.237   7.568   3.631 -0.6694 -0.1532  1.2485
16849SOL    HW262202   4.246   7.731   3.631  0.3827 -0.2025 -0.7205
16850SOL     OW62203   4.098   7.261   0.560 -0.6451 -0.4001 -0.7044
16850SOL    HW162204   4.028   7.277   0.490 -0.8775  0.9442 -0.1941
16850SOL    HW262205   4.146   7.347   0.578 -0.5789 -0.7340  0.7747
16851SOL     OW62206   8.911   0.545   1.483  0.3381  0.3760 -0.9640
16851SOL    HW162207   8.989   0.574   1.429  0.6505  1.2460 -0.0576
16851SOL    HW262208   8.828   0.547   1.427  0.9069 -0.2511 -1.8381
16852SOL     OW62209   8.247   0.652   6.493 -0.6456  0.1282  0.2400
16852SOL    HW162210   8.318   0.644   6.422 -0.2566  1.0249  0.5244
16852SOL    HW262211   8.173   0.709   6.459 -0.3013  0.8377  0.6840
16853SOL     OW62212   0.348   2.309   0.651  0.1779 -0.5129 -0.3430
16853SOL    HW162213   0.305   2.276   0.567  0.0601  1.7278 -1.2008
16853SOL    HW262214   0.412   2.382   0.629 -2.3020  2.4547  1.7784
16854SOL     OW62215   3.556   2.683   4.016  0.2374  0.1283  0.3314
16854SOL    HW162216   3.497   2.757   4.048 -1.4497 -0.8222 -0.4994
16854SOL    HW262217   3.531   2.660   3.922  3.6019  1.3670 -0.9563
16855SOL     OW62218   9.211   5.594   3.942  0.1110 -0.5563 -0.2726
16855SOL    HW162219   9.277   5.651   3.990 -0.0672 -0.5946  0.0139
16855SOL    HW262220   9.222   5.498   3.971  0.7649 -0.7547 -1.1345
16856SOL     OW62221   8.519   8.231   2.772 -0.3033 -0.0854 -0.3595
16856SOL    HW162222   8.439   8.222   2.711  0.3942  1.3076 -1.5156
16856SOL    HW262223   8.600   8.198   2.724 -0.0714 -0.9546  0.6123
16857SOL     OW62224   0.993   4.787   0.448 -0.0500  0.0950 -0.1328
16857SOL    HW162225   0.915   4.798   0.510 -0.8149 -0.8914 -0.9037
16857SOL    HW262226   1.076   4.818   0.494 -0.5147 -1.1081  1.6016
16858SOL     OW62227   5.131   7.389   5.447 -0.1396  0.2291  0.4080
16858SOL    HW162228   5.094   7.464   5.393 -1.6941 -1.5594 -1.0708
16858SOL    HW262229   5.220   7.363   5.411  0.8680  2.0091  1.5622
16859SOL     OW62230   2.004   1.253   4.643 -0.2496 -0.4869  0.5253
16859SOL    HW162231   2.080   1.209   4.595 -1.4595 -1.7819 -0.2492
16859SOL    HW262232   2.038   1.334   4.692  1.6100 -1.0368  0.1976
16860SOL     OW62233   7.185   8.216   2.569  0.4922  0.3011  0.6330
16860SOL    HW162234   7.204   8.156   2.647 -0.6701 -1.8600 -0.6820
16860SOL    HW262235   7.270   8.260   2.540  1.6556 -1.7080  0.8638
16861SOL     OW62236   6.753   8.368   6.546 -0.0776 -0.0712  0.0592
16861SOL    HW162237   6.711   8.433   6.609  1.5767  0.2256  0.8710
16861SOL    HW262238   6.744   8.275   6.584  0.6155  0.0710  0.5907
16862SOL     OW62239   2.208   2.874   4.756  0.3808 -0.2482  0.1150
16862SOL    HW162240   2.166   2.939   4.819  2.5137  0.1527  1.1862
16862SOL    HW262241   2.210   2.912   4.664 -0.2514  0.3299  0.3383
16863SOL     OW62242   4.733   9.865   4.659 -0.7835  0.2782  0.5666
16863SOL    HW162243   4.713   9.812   4.577 -0.2065 -0.2233  0.7442
16863SOL    HW262244   4.648   9.897   4.700 -1.0727  0.5047 -0.2116
16864SOL     OW62245   1.817   0.029   6.808 -0.5083  0.0717  0.1676
16864SOL    HW162246   1.845  -0.067   6.813  1.4107  0.6812  1.9394
16864SOL    HW262247   1.723   0.038   6.839 -0.9213 -1.3089 -0.6483
16865SOL     OW62248   9.205   9.735   1.176 -0.1557 -0.4198 -0.5298
16865SOL    HW162249   9.231   9.830   1.194 -1.3629 -0.2912  0.5856
16865SOL    HW262250   9.106   9.727   1.176 -0.0956 -1.4503 -1.9223
16866SOL     OW62251   1.796   8.969   7.923  0.1141  0.3457 -0.2211
16866SOL    HW162252   1.713   8.914   7.911  1.0618 -0.7954 -1.7693
16866SOL    HW262253   1.791   9.049   7.863 -0.1821  0.6528  0.2132
16867SOL     OW62254   1.396   9.997   5.844 -0.0743  0.2842  0.3328
16867SOL    HW162255   1.467  10.041   5.899  0.5370  1.8991 -1.7253
16867SOL    HW262256   1.317  10.058   5.837 -0.5444 -0.3315  0.2022
16868SOL     OW62257   2.270   8.794   0.490 -0.5912  0.1909 -0.1599
16868SOL    HW162258   2.217   8.769   0.571 -1.1226  0.1351 -0.5256
16868SOL    HW262259   2.209   8.810   0.413 -0.0071 -0.7782 -0.8288
16869SOL     OW62260   2.548   1.616   3.772 -1.0009  0.3771  0.0213
16869SOL    HW162261   2.613   1.605   3.696 -1.1769 -0.9249  0.0414
16869SOL    HW262262   2.468   1.665   3.739 -1.9870 -1.9722 -1.2097
16870SOL     OW62263   9.402   1.847   3.692  0.4321 -0.0415 -0.6018
16870SOL    HW162264   9.491   1.812   3.664  0.0440 -0.9208 -0.7854
16870SOL    HW262265   9.413   1.908   3.771  1.3656  1.2302 -1.7015
16871SOL     OW62266   9.322   6.680   6.084  0.3786 -0.2207  0.1253
16871SOL    HW162267   9.261   6.745   6.040  0.5595  0.0030  0.2052
16871SOL    HW262268   9.351   6.612   6.017  0.4330 -0.0417 -0.0325
16872SOL     OW62269   3.367   0.232   4.660 -0.1249 -0.0965 -0.1302
16872SOL    HW162270   3.434   0.297   4.622 -0.7269  0.0588 -0.9371
16872SOL    HW262271   3.413   0.146   4.681  0.4380  0.1858 -0.1953
16873SOL     OW62272   7.490   9.319   2.500  0.7335  0.6791  0.5223
16873SOL    HW162273   7.405   9.368   2.484  1.2670  1.2752 -0.5637
16873SOL    HW262274   7.558   9.382   2.539  1.6161  0.9943 -1.4546
16874SOL     OW62275   8.780   4.055   5.319  0.3830 -0.3476  0.4807
16874SOL    HW162276   8.714   3.986   5.346 -0.3700  0.1182 -0.1398
16874SOL    HW262277   8.776   4.069   5.220 -0.4342  1.5257  0.7427
16875SOL     OW62278   3.684   2.944   4.949  0.5541  0.1000  0.3537
16875SOL    HW162279   3.730   2.903   4.870  2.4434 -2.1325  2.5068
16875SOL    HW262280   3.713   3.039   4.959  1.2708  0.0256 -0.9162
16876SOL     OW62281   8.560   0.320   7.590 -0.3162 -0.5408 -0.6231
16876SOL    HW162282   8.505   0.239   7.612 -0.7518 -0.1028 -0.0838
16876SOL    HW262283   8.526   0.360   7.505 -0.7682 -0.3451 -0.3586
16877SOL     OW62284   4.978   0.154   7.266 -0.6188 -0.2350  0.2199
16877SOL    HW162285   5.019   0.240   7.235 -1.4835 -0.1078 -0.5894
16877SOL    HW262286   5.032   0.077   7.233 -1.5006 -0.1016 -1.5860
16878SOL     OW62287   6.781   8.642   6.061  0.2819 -0.4861 -0.1132
16878SOL    HW162288   6.752   8.675   5.971 -1.0556 -3.3566 -0.7790
16878SOL    HW262289   6.712   8.666   6.129  0.7563  0.6864 -0.0240
16879SOL     OW62290   9.702   7.917   7.792 -0.4660  0.4353  0.2747
16879SOL    HW162291   9.670   7.943   7.701 -1.0076  2.0934  0.9211
16879SOL    HW262292   9.783   7.971   7.816 -1.9682  2.0291  1.8826
16880SOL     OW62293   3.120   7.468   3.239  0.1776 -0.0799  0.0702
16880SOL    HW162294   3.036   7.511   3.270  0.5374 -0.2855  1.3698
16880SOL    HW262295   3.138   7.493   3.143 -0.8050  0.7947  0.1148
16881SOL     OW62296   8.683   5.387   2.487  0.0434  0.4074 -0.4944
16881SOL    HW162297   8.738   5.467   2.464 -2.8024  2.0421 -1.9316
16881SOL    HW262298   8.595   5.417   2.524 -0.9199 -2.0531 -0.6898
16882SOL     OW62299   2.488   0.115   1.074  0.7589 -0.2816 -0.0529
16882SOL    HW162300   2.571   0.139   1.025 -0.3694 -0.2546 -2.0155
16882SOL    HW262301   2.465   0.019   1.054 -0.5403  0.1808 -0.8322
16883SOL     OW62302   0.171   0.828   4.759  0.2694 -1.0956 -0.2657
16883SOL    HW162303   0.243   0.817   4.828  1.3494  0.0694 -1.1659
16883SOL    HW262304   0.101   0.891   4.794  0.3377 -1.2240  0.1099
16884SOL     OW62305   0.543   0.386   2.571 -0.4110  0.2453 -0.0012
16884SOL    HW162306   0.566   0.440   2.490  2.2142 -0.3111  0.3541
16884SOL    HW262307   0.541   0.445   2.651  0.4224  0.1948  0.0618
16885SOL     OW62308   7.014   4.007   1.600  0.8896  0.3444  0.0285
16885SOL    HW162309   7.059   4.017   1.511  2.7943 -0.7136  0.8686
16885SOL    HW262310   7.023   4.092   1.651  0.9326  0.5144 -0.2565
16886SOL     OW62311   2.602   1.721   4.850 -0.5758  0.0214 -0.0008
16886SOL    HW162312   2.570   1.721   4.756  0.2178 -0.4053 -0.2681
16886SOL    HW262313   2.697   1.750   4.854 -0.6777  0.2833  0.6942
16887SOL     OW62314   3.797   7.311   5.773 -0.4915  0.5955  0.2859
16887SOL    HW162315   3.894   7.288   5.781 -1.1607 -1.8018  2.1328
16887SOL    HW262316   3.766   7.290   5.681  0.3118 -0.4117  0.2343
16888SOL     OW62317   7.228   2.235   5.990  0.0729  0.2839 -0.1845
16888SOL    HW162318   7.250   2.243   5.893 -0.6959  1.1005 -0.2943
16888SOL    HW262319   7.247   2.322   6.036  1.3194 -0.3718  0.5823
16889SOL     OW62320   3.728   3.806   7.839  0.8127  0.0274 -0.1419
16889SOL    HW162321   3.767   3.849   7.921  1.9721 -2.9664  0.9182
16889SOL    HW262322   3.776   3.721   7.820 -0.1362  0.1663 -3.3836
16890SOL     OW62323   8.250   8.626   0.643  0.4264 -0.6286  0.0435
16890SOL    HW162324   8.317   8.606   0.714 -0.1916 -2.0128  0.2420
16890SOL    HW262325   8.160   8.638   0.684  0.5556  1.4267 -0.2009
16891SOL     OW62326   1.045   6.021   1.277 -0.2160 -0.4971  0.2330
16891SOL    HW162327   0.997   5.971   1.348  0.5394  0.9814  1.8218
16891SOL    HW262328   1.140   5.990   1.272 -0.0953 -0.1396  0.3158
16892SOL     OW62329   4.411   7.048   3.851 -0.8141  0.3622 -0.1025
16892SOL    HW162330   4.317   7.023   3.874 -0.4593 -2.5995 -1.6779
16892SOL    HW262331   4.470   7.033   3.930 -1.2035 -0.4317  0.0424
16893SOL     OW62332   3.619   4.697   0.980 -0.3526 -0.4488  0.2069
16893SOL    HW162333   3.694   4.637   1.006  1.2847  1.3631 -0.1565
16893SOL    HW262334   3.583   4.670   0.891  1.2028 -0.1358 -0.5306
16894SOL     OW62335   8.657   7.582   6.931 -0.3019  0.3290 -0.6824
16894SOL    HW162336   8.741   7.547   6.972 -0.9104  1.7338  1.8969
16894SOL    HW262337   8.579   7.553   6.987 -1.2090  1.9648 -1.0867
16895SOL     OW62338   7.796   3.362   4.964 -0.3916  0.0584  0.0844
16895SOL    HW162339   7.828   3.312   4.884 -0.4540  0.5678 -0.2691
16895SOL    HW262340   7.819   3.312   5.047  1.5879  0.5775 -0.1442
16896SOL     OW62341   2.546   3.441   1.692  0.3191  0.0791 -0.5800
16896SOL    HW162342   2.451   3.421   1.669  0.0166  0.8450 -0.0046
16896SOL    HW262343   2.582   3.508   1.627 -0.0903  1.1521  0.3002
16897SOL     OW62344   7.039   1.933   1.642 -0.3231  0.8564 -0.5406
16897SOL    HW162345   7.119   1.887   1.682 -0.6362  1.1054  0.3851
16897SOL    HW262346   7.037   1.916   1.544 -0.5400 -1.2414 -0.1816
16898SOL     OW62347   7.554   4.112   0.213  0.3401 -0.0139  0.2309
16898SOL    HW162348   7.493   4.090   0.289 -0.7406  0.8238 -0.3807
16898SOL    HW262349   7.596   4.201   0.228  1.2744 -0.4956  0.5489
16899SOL     OW62350   7.638   6.715   4.956  0.7321 -0.2683 -0.2456
16899SOL    HW162351   7.622   6.620   4.983 -0.4183 -0.0582 -0.1477
16899SOL    HW262352   7.627   6.724   4.857  1.2166 -0.3046 -0.3052
16900SOL     OW62353   2.619   1.533   5.895 -0.6166  0.2703  0.2356
16900SOL    HW162354   2.546   1.599   5.881 -1.5109 -0.5380  1.0969
16900SOL    HW262355   2.662   1.548   5.984  2.5720  2.9534 -1.6167
16901SOL     OW62356   8.473   6.618   7.391  0.3970  0.1013  0.0388
16901SOL    HW162357   8.390   6.632   7.446  0.2557  1.9820 -0.6055
16901SOL    HW262358   8.536   6.694   7.407  1.6142 -0.8464 -0.1846
16902SOL     OW62359   9.622   2.689   7.221 -0.0442 -0.1816 -0.3102
16902SOL    HW162360   9.550   2.619   7.225  0.3279 -0.5684 -0.3864
16902SOL    HW262361   9.669   2.694   7.309 -0.9661  0.9236  0.1260
16903SOL     OW62362   1.195   4.413   4.244  0.2155 -0.6100  0.0668
16903SOL    HW162363   1.251   4.479   4.195 -0.4813 -1.1739 -1.5311
16903SOL    HW262364   1.246   4.377   4.322  1.4814  0.0509 -0.4483
16904SOL     OW62365   7.148   7.817   3.697  0.2255  0.4735  0.1232
16904SOL    HW162366   7.084   7.759   3.647  0.5136 -1.1202  1.5454
16904SOL    HW262367   7.240   7.780   3.687  0.5453  1.2164  0.3026
16905SOL     OW62368   1.042   6.563   3.962  0.4681  0.4077 -0.0867
16905SOL    HW162369   1.069   6.467   3.955  0.4700  0.4055 -0.0441
16905SOL    HW262370   1.059   6.596   4.054 -2.1883 -0.3421  0.7073
16906SOL     OW62371   3.579   0.083   3.470 -0.0245  0.1075 -0.7457
16906SOL    HW162372   3.632   0.007   3.435 -0.6431  0.5796 -2.7472
16906SOL    HW262373   3.490   0.050   3.502  0.7299 -0.3972  0.9087
16907SOL     OW62374   8.374   3.886   4.059  0.3662 -0.3402 -0.2432
16907SOL    HW162375   8.287   3.920   4.094  0.3562 -0.7128  0.1018
16907SOL    HW262376   8.442   3.959   4.060 -0.0710  0.0845 -0.9657
16908SOL     OW62377   8.820   5.520   1.899 -0.4922 -0.1922 -0.4231
16908SOL    HW162378   8.811   5.583   1.975  1.6604  0.4573 -0.6709
16908SOL    HW262379   8.858   5.433   1.932 -2.0365 -0.8637 -0.3394
16909SOL     OW62380   4.484   4.166   4.019  0.9400 -0.3946 -0.1857
16909SOL    HW162381   4.512   4.149   3.924  3.2852  0.0997  0.3937
16909SOL    HW262382   4.504   4.085   4.075 -0.8387 -0.8467 -0.1801
16910SOL     OW62383   7.821   2.435   6.828 -0.5283  0.1996  0.3547
16910SOL    HW162384   7.728   2.425   6.794 -0.7538  0.2951  0.9472
16910SOL    HW262385   7.884   2.443   6.750 -0.9085 -0.7662 -0.0608
16911SOL     OW62386   0.995   5.330   4.375  0.1712  0.5938 -0.7970
16911SOL    HW162387   0.930   5.392   4.420 -0.4683 -0.8110  0.2317
16911SOL    HW262388   1.074   5.315   4.434  0.6730  0.9926 -1.3565
16912SOL     OW62389   8.120   8.807   6.294 -0.3403 -0.0118 -0.8602
16912SOL    HW162390   8.201   8.795   6.237  0.5080 -0.5591  0.4573
16912SOL    HW262391   8.045   8.751   6.257  0.1408 -0.2037 -1.5472
16913SOL     OW62392   4.093   7.530   0.707  0.4375 -0.4816  0.3552
16913SOL    HW162393   4.153   7.583   0.767 -0.8096  0.0824  1.1042
16913SOL    HW262394   4.022   7.485   0.760 -0.8244  0.2171 -0.7013
16914SOL     OW62395   6.469   1.147   7.637 -0.1868  0.0369 -0.4345
16914SOL    HW162396   6.431   1.099   7.558  1.6279  0.6234 -1.6870
16914SOL    HW262397   6.411   1.226   7.660 -0.6956 -0.1128 -1.2025
16915SOL     OW62398   0.876   2.319   5.509  0.6722  0.1017 -0.6674
16915SOL    HW162399   0.826   2.406   5.508 -0.4410 -0.5322 -0.9621
16915SOL    HW262400   0.844   2.264   5.586  1.6092  0.0834 -0.2889
16916SOL     OW62401   8.637   7.922   6.180  0.5958 -0.0334 -0.1213
16916SOL    HW162402   8.670   7.828   6.194  0.1473 -0.0085  1.1822
16916SOL    HW262403   8.570   7.923   6.106  2.0053 -0.4238 -1.4128
16917SOL     OW62404   6.641   5.296   6.778 -0.1805  0.2101  0.7697
16917SOL    HW162405   6.658   5.205   6.817 -0.7437 -0.0924  0.3157
16917SOL    HW262406   6.632   5.289   6.679 -2.0309  0.4853  0.8998
16918SOL     OW62407   7.870   1.498   2.896  0.6774 -0.2501  0.4831
16918SOL    HW162408   7.946   1.557   2.924 -2.2779  2.6538  2.7793
16918SOL    HW262409   7.870   1.415   2.951  1.9667 -0.1395  0.6694
16919SOL     OW62410   2.895   2.622   4.499  0.1838  0.0766 -0.8109
16919SOL    HW162411   2.896   2.548   4.431 -0.8169 -2.3557  1.7019
16919SOL    HW262412   2.801   2.637   4.530  0.8748 -0.4832  1.6791
16920SOL     OW62413   3.729   3.276   8.148 -0.2878  0.3764 -0.1255
16920SOL    HW162414   3.689   3.290   8.238  0.1324  2.1826 -0.2039
16920SOL    HW262415   3.655   3.260   8.081 -0.6344 -0.2678  0.4038
16921SOL     OW62416   6.902   9.529   6.591 -0.2044 -0.2415  0.0184
16921SOL    HW162417   6.930   9.585   6.668 -0.8219  0.7831 -0.4858
16921SOL    HW262418   6.819   9.568   6.550  0.9578  0.1141 -2.0824
16922SOL     OW62419   2.738   2.257   1.362  0.1242  0.1474  0.1382
16922SOL    HW162420   2.756   2.312   1.281  3.6986 -0.9141  0.1131
16922SOL    HW262421   2.787   2.295   1.440  0.3550 -1.3513  0.7510
16923SOL     OW62422   3.866   1.999   3.056 -0.1877 -0.2078  0.0137
16923SOL    HW162423   3.855   1.912   3.103 -0.8344 -0.1793 -0.0862
16923SOL    HW262424   3.793   2.062   3.083  0.1660  0.2374 -0.0567
16924SOL     OW62425   0.411   9.328   7.108  0.1204 -0.4137  0.7227
16924SOL    HW162426   0.487   9.265   7.096 -1.0106 -1.5489 -0.5867
16924SOL    HW262427   0.325   9.283   7.085 -0.8721  1.1345  1.2610
16925SOL     OW62428   5.416   0.906   6.678  0.4704  0.0239  0.1864
16925SOL    HW162429   5.503   0.877   6.636  0.3162  0.9603 -0.8070
16925SOL    HW262430   5.350   0.832   6.672  0.8037 -0.2447 -0.2233
16926SOL     OW62431   9.462   2.462   7.237  0.2728 -0.0546  0.3148
16926SOL    HW162432   9.374   2.439   7.195 -0.0689 -1.0449  1.5596
16926SOL    HW262433   9.521   2.382   7.237  1.0400  0.4958 -0.1206
16927SOL     OW62434   3.501   5.622   2.943 -0.3426 -0.4693  0.0353
16927SOL    HW162435   3.578   5.655   2.889 -0.7775 -1.3201 -1.1123
16927SOL    HW262436   3.417   5.627   2.889 -1.0031 -0.0982  1.0764
16928SOL     OW62437   2.552   6.238   7.457  0.2571  0.7376 -0.5270
16928SOL    HW162438   2.522   6.276   7.369 -0.8519 -0.2628 -0.5961
16928SOL    HW262439   2.525   6.300   7.530  0.3605  1.1323 -0.8212
16929SOL     OW62440   0.590   9.857   1.217  0.2310 -0.3615  0.6736
16929SOL    HW162441   0.497   9.884   1.241 -0.5391 -1.5943 -0.8326
16929SOL    HW262442   0.603   9.761   1.241  0.9905 -0.3008  0.4955
16930SOL     OW62443   1.088   4.233   5.066 -0.2272  0.0876 -0.4216
16930SOL    HW162444   1.090   4.319   5.015  1.9883  0.3867  0.1107
16930SOL    HW262445   1.038   4.245   5.151 -0.7102  0.5906 -0.7739
16931SOL     OW62446   1.060   5.396   0.287 -0.1217  0.1497 -0.8468
16931SOL    HW162447   1.089   5.332   0.358 -0.7830 -0.7475 -1.3856
16931SOL    HW262448   1.122   5.389   0.209 -0.9269 -0.7475 -1.4184
16932SOL     OW62449   0.543   8.115   2.858 -0.3283 -0.2697  0.2159
16932SOL    HW162450   0.639   8.096   2.877 -0.2827  0.6549  0.9355
16932SOL    HW262451   0.485   8.057   2.916 -0.2072 -0.2314  0.3742
16933SOL     OW62452   1.331   7.541   3.478  0.1120  0.4780 -0.3274
16933SOL    HW162453   1.388   7.598   3.538  1.0684 -0.4483 -0.3373
16933SOL    HW262454   1.277   7.478   3.533  0.5315  0.0455 -0.4129
16934SOL     OW62455   6.521   0.666   6.088 -0.4821  0.1848  0.2780
16934SOL    HW162456   6.577   0.725   6.030  0.3673  0.5484  1.4393
16934SOL    HW262457   6.435   0.713   6.110 -1.5883 -0.6842 -2.1282
16935SOL     OW62458   0.467   1.427   1.333 -0.1287 -0.1483 -0.1907
16935SOL    HW162459   0.483   1.521   1.302 -1.8075  0.2237 -0.0233
16935SOL    HW262460   0.369   1.415   1.349 -0.3003 -2.7918 -2.9315
16936SOL     OW62461   1.952   8.730   4.878  0.6310  0.3034  0.0124
16936SOL    HW162462   1.951   8.796   4.953  0.6297  0.7262 -0.3542
16936SOL    HW262463   2.032   8.748   4.820  0.7196 -0.1213  0.0026
16937SOL     OW62464   7.706   2.125   1.882 -0.0796 -0.2807 -0.1303
16937SOL    HW162465   7.668   2.060   1.948 -0.3783  0.4297  0.4041
16937SOL    HW262466   7.662   2.111   1.793 -0.2715 -0.6935  0.0275
16938SOL     OW62467   9.299   7.496   2.366 -0.4719  0.0410 -0.1763
16938SOL    HW162468   9.362   7.563   2.408 -1.1579  1.3536 -1.1928
16938SOL    HW262469   9.352   7.428   2.316  0.2722 -0.5873  1.4519
16939SOL     OW62470   6.822   0.924   5.355  0.5843 -0.4336  0.2010
16939SOL    HW162471   6.757   0.857   5.320 -0.1564  0.1102  0.5147
16939SOL    HW262472   6.804   1.013   5.312  0.8431 -0.1805  0.6115
16940SOL     OW62473   1.899   6.017   7.649  0.1288 -0.0755 -0.0343
16940SOL    HW162474   1.951   6.011   7.734 -2.0131 -1.8220  1.2138
16940SOL    HW262475   1.832   6.091   7.656  0.5980  0.4001 -0.5679
16941SOL     OW62476   9.136   4.835   4.572 -0.3249  0.5638  0.0912
16941SOL    HW162477   9.213   4.893   4.596  0.5322 -1.1213  1.5572
16941SOL    HW262478   9.118   4.771   4.647 -2.2489 -0.0046 -0.8144
16942SOL     OW62479   1.828   7.255   4.949 -0.1089 -0.4968 -0.1412
16942SOL    HW162480   1.862   7.175   5.000  0.0008 -0.3685 -0.0121
16942SOL    HW262481   1.738   7.235   4.912 -0.3359 -0.4700  0.3985
16943SOL     OW62482   2.805   6.681   0.147 -0.8283 -0.1358  0.1359
16943SOL    HW162483   2.859   6.629   0.080  0.2933  0.4653  0.5493
16943SOL    HW262484   2.794   6.626   0.230  1.2260  0.6261  0.9601
16944SOL     OW62485   1.180   2.336   1.255 -0.2636 -0.4368  0.0411
16944SOL    HW162486   1.112   2.379   1.314 -0.8429 -1.3695  0.0677
16944SOL    HW262487   1.164   2.237   1.252  2.2560 -0.9423  1.6014
16945SOL     OW62488   9.681   3.193   3.225 -0.8524 -0.3869 -0.1132
16945SOL    HW162489   9.745   3.122   3.253 -1.4293 -1.0552 -0.4840
16945SOL    HW262490   9.663   3.254   3.303  0.3814 -0.0693 -0.0639
16946SOL     OW62491   3.334   4.086   6.330 -0.1618  0.1234 -0.2682
16946SOL    HW162492   3.305   4.022   6.401 -2.0968  1.1568 -0.0941
16946SOL    HW262493   3.359   4.036   6.248 -2.4448 -0.8540 -0.4064
16947SOL     OW62494   9.342   6.815   7.007 -0.4723  0.4854  0.0838
16947SOL    HW162495   9.380   6.798   7.098 -1.1705  1.0659  0.4959
16947SOL    HW262496   9.242   6.804   7.011 -0.2308 -2.7440 -1.3634
16948SOL     OW62497   9.903   7.758   5.934  0.2895 -0.2620 -0.5853
16948SOL    HW162498   9.817   7.789   5.894  0.5679 -0.4837 -1.3564
16948SOL    HW262499   9.913   7.797   6.026 -0.5416 -0.0880 -0.5671
16949SOL     OW62500   5.555   1.377   3.705 -0.4033 -0.2361 -0.7237
16949SOL    HW162501   5.515   1.348   3.618  0.8838 -0.5322 -1.2318
16949SOL    HW262502   5.566   1.297   3.765 -0.3707 -0.1915 -0.6701
16950SOL     OW62503   2.528   9.307   0.339 -0.1132  0.2263 -0.0912
16950SOL    HW162504   2.536   9.290   0.241 -0.6912  1.6279 -0.4037
16950SOL    HW262505   2.466   9.240   0.380  0.9236 -0.9916 -0.4926
16951SOL     OW62506   2.237   8.206   1.283 -0.2819 -0.0908 -0.2262
16951SOL    HW162507   2.238   8.201   1.183 -0.6745 -0.7354 -0.1983
16951SOL    HW262508   2.152   8.249   1.313  0.5190  1.5590 -0.2225
16952SOL     OW62509   7.879   9.286   7.112  0.2883  0.0132 -0.6280
16952SOL    HW162510   7.909   9.375   7.077 -0.0104 -0.7741 -2.9297
16952SOL    HW262511   7.785   9.268   7.083 -0.1243 -0.4776  0.9644
16953SOL     OW62512   4.824   0.722   7.769  0.1117  0.3335  0.2951
16953SOL    HW162513   4.807   0.627   7.745  0.7991  0.6872 -1.6358
16953SOL    HW262514   4.904   0.756   7.720  1.1251  1.3081  2.5467
16954SOL     OW62515   4.633   9.040   2.606  0.4909  0.0077  0.7810
16954SOL    HW162516   4.553   8.985   2.629  1.5668 -1.8588  0.1819
16954SOL    HW262517   4.637   9.053   2.507 -0.9304  3.0436  1.0696
16955SOL     OW62518   0.746   7.112   2.402 -0.3042  0.1141 -0.0454
16955SOL    HW162519   0.679   7.069   2.341  0.3511  0.2560 -0.8748
16955SOL    HW262520   0.823   7.049   2.416 -0.3449  0.1720  0.4599
16956SOL     OW62521   4.921   8.725   1.541  0.3523  0.0324  0.1191
16956SOL    HW162522   4.915   8.706   1.639  0.3546  0.5921  0.2276
16956SOL    HW262523   4.894   8.643   1.489  2.2238 -0.8909  0.5752
16957SOL     OW62524   5.614   9.626   2.038  0.3260 -0.1201  0.6278
16957SOL    HW162525   5.609   9.638   1.939 -0.5764 -0.2923  0.6548
16957SOL    HW262526   5.620   9.529   2.060 -2.9841 -0.3182  0.8834
16958SOL     OW62527   9.733   2.643   7.477 -0.3693 -0.1530 -0.3956
16958SOL    HW162528   9.655   2.669   7.535  0.5272  0.6654  0.4593
16958SOL    HW262529   9.813   2.698   7.502  0.4641 -0.9236 -1.3319
16959SOL     OW62530   9.253   0.728   4.900 -0.1893  0.4367  0.1911
16959SOL    HW162531   9.292   0.647   4.856 -1.0590  0.7443 -1.2139
16959SOL    HW262532   9.154   0.730   4.882  0.1353  2.9073 -1.6210
16960SOL     OW62533   1.744   4.156   0.579  0.3426  0.2384 -0.1089
16960SOL    HW162534   1.668   4.209   0.543 -0.3871 -1.4858 -1.2108
16960SOL    HW262535   1.790   4.109   0.503 -0.9369 -3.1367  1.0842
16961SOL     OW62536   4.658   8.353   1.822 -0.1431 -0.2669  0.3887
16961SOL    HW162537   4.741   8.301   1.806 -0.7915 -0.8624 -1.0676
16961SOL    HW262538   4.578   8.293   1.815 -0.7999  0.6213  0.1864
16962SOL     OW62539   0.157   8.377   8.065  0.0783  0.4264  0.3860
16962SOL    HW162540   0.127   8.454   8.122  0.3824  1.9108 -1.3876
16962SOL    HW262541   0.235   8.406   8.009  1.2300 -1.6849  0.8427
16963SOL     OW62542   4.152   3.590   0.139 -0.5853  0.2593  0.0409
16963SOL    HW162543   4.233   3.595   0.080  0.4951  1.0068  1.5631
16963SOL    HW262544   4.097   3.510   0.114  0.9914 -0.6648 -0.5391
16964SOL     OW62545   1.851   6.681   6.241 -0.6437  0.0020  0.3432
16964SOL    HW162546   1.789   6.759   6.241 -1.3204 -0.5078  1.2128
16964SOL    HW262547   1.909   6.683   6.160 -1.9104  0.4124 -0.5680
16965SOL     OW62548   0.211   0.492   7.851 -0.0917 -0.0189 -0.1519
16965SOL    HW162549   0.190   0.510   7.755 -0.9016  0.6660  0.1546
16965SOL    HW262550   0.126   0.483   7.903  0.3477 -0.2113  0.5375
16966SOL     OW62551   9.821   1.118   0.063 -0.7422 -0.6798 -0.3099
16966SOL    HW162552   9.807   1.082   0.155 -0.0942  0.1486  0.1169
16966SOL    HW262553   9.744   1.177   0.038 -0.9203 -0.9081 -0.3000
16967SOL     OW62554   2.439   6.662   6.064  0.2585  0.2612  0.4829
16967SOL    HW162555   2.398   6.595   6.002 -0.2762  1.2768 -0.2878
16967SOL    HW262556   2.388   6.664   6.150  2.0195 -2.3534  1.6437
16968SOL     OW62557   4.364   0.348   1.822  0.2340 -0.2976  0.4480
16968SOL    HW162558   4.278   0.370   1.776  0.7590  0.1773 -0.3236
16968SOL    HW262559   4.357   0.372   1.919  0.3659  2.2498 -0.1315
16969SOL     OW62560   3.269   5.980   3.513 -0.2484 -0.0282  0.2439
16969SOL    HW162561   3.274   6.045   3.589  0.8112  0.3616 -0.1565
16969SOL    HW262562   3.183   5.930   3.518 -0.1499 -0.0529  1.7371
16970SOL     OW62563   1.410   1.316   2.751 -0.2647 -0.6264 -1.0347
16970SOL    HW162564   1.430   1.223   2.781  2.7576  0.6038  0.8880
16970SOL    HW262565   1.332   1.351   2.802 -0.9646 -1.8024 -1.2625
16971SOL     OW62566   8.406   8.920   5.267  0.5026  0.0308  0.5388
16971SOL    HW162567   8.361   9.005   5.294  0.3551  0.2365 -0.3357
16971SOL    HW262568   8.351   8.842   5.297  0.3407  0.2570  0.8307
16972SOL     OW62569   7.123   8.033   6.091 -0.0933  0.2372  0.1497
16972SOL    HW162570   7.087   7.991   6.008 -2.0566 -0.5415  1.3707
16972SOL    HW262571   7.218   8.004   6.105  0.3041  0.5102 -1.8791
16973SOL     OW62572   4.064   9.327   1.084 -0.0027  0.1937 -0.6567
16973SOL    HW162573   4.157   9.291   1.071 -0.4760 -1.3843  0.1773
16973SOL    HW262574   4.023   9.284   1.164 -1.4782  0.8498 -1.0512
16974SOL     OW62575   0.071   5.387   5.352  0.1839  0.2095  0.1066
16974SOL    HW162576   0.137   5.400   5.426  0.2873 -1.7342  0.3783
16974SOL    HW262577   0.091   5.301   5.304 -0.7735  0.7277 -1.2466
16975SOL     OW62578   7.312   1.172   3.229  0.0384  0.0666 -0.1153
16975SOL    HW162579   7.246   1.246   3.216 -0.4364 -0.6424 -1.8284
16975SOL    HW262580   7.331   1.161   3.326 -1.0924  1.3842  0.2651
16976SOL     OW62581   2.145   6.956   1.161 -0.1577  0.0403 -0.1367
16976SOL    HW162582   2.157   6.905   1.076 -0.2814 -1.4123  0.6970
16976SOL    HW262583   2.053   6.995   1.163 -0.1831  0.0133 -0.6399
16977SOL     OW62584   3.392   8.590   7.342  0.7035 -0.7127  0.1349
16977SOL    HW162585   3.344   8.543   7.417  1.6785  0.2890  1.4005
16977SOL    HW262586   3.325   8.642   7.289  0.4142  1.0687  2.1857
16978SOL     OW62587   9.940   9.683   2.082  0.2258 -0.3430  0.0979
16978SOL    HW162588   9.964   9.773   2.047  0.2548  0.2074  1.4818
16978SOL    HW262589  10.014   9.649   2.140  0.0397 -1.0781 -0.0921
16979SOL     OW62590   1.773   4.982   2.387  0.6106  0.1988  0.0700
16979SOL    HW162591   1.750   4.920   2.313  0.7523 -0.7620  0.8243
16979SOL    HW262592   1.778   4.932   2.473 -0.0799  1.3946  0.8267
16980SOL     OW62593   3.837   6.874   3.916  0.1221  0.3814  0.4637
16980SOL    HW162594   3.919   6.834   3.957 -0.6286 -1.5544  0.1008
16980SOL    HW262595   3.841   6.974   3.925  1.1869  0.1487  2.9240
16981SOL     OW62596   5.708   1.141   4.964 -0.1061  0.3145 -0.5135
16981SOL    HW162597   5.719   1.228   4.915  3.7274 -0.2708 -0.7863
16981SOL    HW262598   5.773   1.074   4.929  0.2652 -1.2323  2.9760
16982SOL     OW62599   9.976   8.280   3.848  0.2657  0.2391  0.3163
16982SOL    HW162600   9.893   8.281   3.792  0.7169  0.0231 -0.3603
16982SOL    HW262601   9.963   8.339   3.928  0.0856  1.5945 -0.6945
16983SOL     OW62602   2.067   8.714   3.169 -0.7129  0.0097 -0.3071
16983SOL    HW162603   2.041   8.764   3.086 -1.6205 -0.3530 -0.2473
16983SOL    HW262604   2.028   8.622   3.166 -2.6314  0.7122  1.5362
16984SOL     OW62605   7.149   7.504   5.672 -0.2993  0.4938  0.1275
16984SOL    HW162606   7.083   7.555   5.728 -1.2394  0.5646 -1.0058
16984SOL    HW262607   7.100   7.439   5.614  0.7456 -0.3711  0.2085
16985SOL     OW62608   7.152   6.891   3.933 -0.1235 -0.4288 -0.6721
16985SOL    HW162609   7.196   6.958   3.993  0.5922 -0.5918 -1.0054
16985SOL    HW262610   7.059   6.921   3.913 -0.9851 -1.2415  1.8961
16986SOL     OW62611   9.887   6.191   6.109 -0.1756  0.7141  0.6393
16986SOL    HW162612   9.940   6.276   6.101  0.0685  0.5904  0.9439
16986SOL    HW262613   9.879   6.166   6.206  0.7673 -0.2488  0.4808
16987SOL     OW62614   2.731   5.376   7.427 -0.2287 -0.2906 -0.0865
16987SOL    HW162615   2.812   5.386   7.370 -0.7911 -1.2187 -1.0678
16987SOL    HW262616   2.650   5.370   7.369 -0.4699 -5.4398  0.4901
16988SOL     OW62617   0.443   5.798   2.785  0.4581 -0.2918  0.5429
16988SOL    HW162618   0.373   5.786   2.715  0.4401  0.1707  0.4782
16988SOL    HW262619   0.421   5.740   2.864  0.2212 -0.4515  0.3612
16989SOL     OW62620   3.804   8.284   2.461 -0.0029  0.2012  0.3823
16989SOL    HW162621   3.868   8.324   2.526 -0.7635  0.8871  0.7153
16989SOL    HW262622   3.790   8.346   2.384 -1.9148  1.0281  1.3657
16990SOL     OW62623   4.397   2.831   1.577 -0.1220  0.2030 -0.3825
16990SOL    HW162624   4.485   2.864   1.542  0.3674  1.1488  1.6531
16990SOL    HW262625   4.339   2.909   1.598 -0.1001 -0.2918  1.6253
16991SOL     OW62626   1.122   4.100   2.107 -0.6898  0.4309 -0.0434
16991SOL    HW162627   1.182   4.060   2.176 -0.7946  0.8563  0.2915
16991SOL    HW262628   1.081   4.027   2.052 -0.5276  0.1020  0.2761
16992SOL     OW62629   1.289   9.393   7.471 -0.7040  0.4733 -0.1210
16992SOL    HW162630   1.271   9.332   7.549 -0.8241  0.0375 -0.4873
16992SOL    HW262631   1.285   9.488   7.502 -0.7234  0.3009  0.4141
16993SOL     OW62632   6.051   4.716   7.553 -0.2322 -0.1975 -0.6607
16993SOL    HW162633   6.066   4.645   7.622 -1.2798 -0.6677 -0.9178
16993SOL    HW262634   6.075   4.681   7.463 -2.6519 -0.8946 -1.0522
16994SOL     OW62635   9.572   0.604   3.284  0.0901  0.0881 -0.4243
16994SOL    HW162636   9.618   0.689   3.310  0.5850 -0.1025 -0.6711
16994SOL    HW262637   9.480   0.625   3.252 -0.6696  0.3030  1.7990
16995SOL     OW62638   3.268   1.658   0.943  0.0872 -0.1428 -0.1764
16995SOL    HW162639   3.248   1.592   0.870 -0.8815 -2.0355  1.7688
16995SOL    HW262640   3.341   1.720   0.912 -1.5736  0.2781 -3.4464
16996SOL     OW62641   8.874   1.954   4.815 -0.2662 -0.4619  0.5664
16996SOL    HW162642   8.954   2.013   4.800 -1.8388  1.2586 -1.5215
16996SOL    HW262643   8.838   1.969   4.906  0.5631  0.3082  0.7779
16997SOL     OW62644   3.185   0.639   3.361  0.7229  0.1131  0.5416
16997SOL    HW162645   3.241   0.563   3.393  0.0757 -0.0822  1.2193
16997SOL    HW262646   3.197   0.717   3.423  1.4752  0.6079 -0.2155
16998SOL     OW62647   0.649   7.969   3.412 -0.0785 -0.5145 -0.1234
16998SOL    HW162648   0.555   7.934   3.410 -0.6573  0.9460  0.2612
16998SOL    HW262649   0.649   8.060   3.455  1.5331 -0.5630 -0.0118
16999SOL     OW62650   4.923   0.548   6.794 -0.2995  0.3130 -0.0408
16999SOL    HW162651   4.997   0.570   6.857 -1.0622  1.7449  0.3795
16999SOL    HW262652   4.902   0.628   6.737 -3.4327  0.9084  1.8216
17000SOL     OW62653   4.194   8.399   2.227 -0.1401 -0.3788  0.5565
17000SOL    HW162654   4.161   8.410   2.134  0.9265 -1.0982  0.0829
17000SOL    HW262655   4.174   8.482   2.280  3.1483  1.8623 -1.5173
17001SOL     OW62656   2.439   1.736   5.805 -0.4710 -0.1157  0.2830
17001SOL    HW162657   2.406   1.829   5.785  0.1511  0.1563  0.4910
17001SOL    HW262658   2.425   1.678   5.725  0.0628  0.4252 -0.2130
17002SOL     OW62659   0.521   4.120   5.085 -0.3364 -0.2002  0.0779
17002SOL    HW162660   0.472   4.125   4.998 -0.8811 -1.8165  0.2767
17002SOL    HW262661   0.620   4.129   5.069 -0.5803  1.6870 -0.4645
17003SOL     OW62662   5.925   2.736   4.500 -0.6240 -0.2636 -0.6884
17003SOL    HW162663   5.893   2.824   4.466 -1.1318  0.2284  1.0469
17003SOL    HW262664   5.852   2.668   4.491 -0.6685 -0.1975 -0.8229
17004SOL     OW62665   8.592   3.482   7.256 -0.2653  0.3072 -0.0034
17004SOL    HW162666   8.609   3.580   7.244 -0.5443  0.5250  1.2970
17004SOL    HW262667   8.608   3.457   7.352  2.1721 -1.3942 -0.7873
17005SOL     OW62668   2.684   5.200   1.966 -0.1574 -1.0227  1.0835
17005SOL    HW162669   2.684   5.102   1.948  3.2286 -0.4439 -2.4692
17005SOL    HW262670   2.607   5.243   1.918  0.9166 -1.3812 -1.0050
17006SOL     OW62671   1.825   2.456   5.017  0.1573  0.4694  0.1092
17006SOL    HW162672   1.754   2.397   5.057  0.3874 -0.7762 -1.2615
17006SOL    HW262673   1.784   2.542   4.987 -1.0315 -0.6777 -1.6854
17007SOL     OW62674   3.436   7.490   1.426  0.4193  0.6135 -0.1639
17007SOL    HW162675   3.415   7.532   1.338 -2.0480 -1.1862 -0.4988
17007SOL    HW262676   3.496   7.411   1.412  0.4060  0.6112 -0.2098
17008SOL     OW62677   0.542   5.811   3.178 -0.2781  0.2134 -0.2425
17008SOL    HW162678   0.526   5.731   3.119 -0.1518  0.8084 -1.0902
17008SOL    HW262679   0.563   5.890   3.121  1.1298  0.5098  0.6609
17009SOL     OW62680   9.645   0.951   7.894  0.1287  0.2773  0.0431
17009SOL    HW162681   9.624   0.974   7.989  2.2025  1.4394  0.2564
17009SOL    HW262682   9.628   1.030   7.836  1.0271  0.2874 -0.2098
17010SOL     OW62683   1.216   8.397   0.857  0.4670  0.4865 -0.3537
17010SOL    HW162684   1.223   8.322   0.791 -0.8883  0.8622 -0.9326
17010SOL    HW262685   1.201   8.359   0.949  1.7053 -0.0103 -0.3463
17011SOL     OW62686   0.757   7.697   0.018  0.0451 -0.2741 -0.4847
17011SOL    HW162687   0.852   7.667   0.003 -0.1727 -0.0801 -2.2783
17011SOL    HW262688   0.753   7.797   0.016  0.0521 -0.2227  1.2075
17012SOL     OW62689   1.997   8.580   7.143  0.4466  0.1635 -0.3653
17012SOL    HW162690   2.092   8.581   7.110  0.1388 -1.3958 -1.3322
17012SOL    HW262691   1.989   8.515   7.219 -0.2287 -1.0830 -1.4891
17013SOL     OW62692   3.040   4.724   0.220 -0.0655 -0.2896 -0.0345
17013SOL    HW162693   2.970   4.794   0.236  0.8536  0.6141  0.0675
17013SOL    HW262694   3.038   4.697   0.123 -1.5681 -1.3803  0.2800
17014SOL     OW62695   0.556   2.918   3.687  0.1023 -0.3875 -0.4455
17014SOL    HW162696   0.636   2.858   3.681  0.8753  0.2461  2.5752
17014SOL    HW262697   0.487   2.876   3.746 -0.7684  0.1835 -1.0483
17015SOL     OW62698   9.318   7.775   3.466  0.4216 -0.1444 -0.5920
17015SOL    HW162699   9.275   7.706   3.407 -0.5040  0.0784 -0.1820
17015SOL    HW262700   9.395   7.734   3.514  0.1783 -0.7649 -0.7247
17016SOL     OW62701   4.453   2.284   7.716  0.8030 -0.1114 -0.4874
17016SOL    HW162702   4.356   2.267   7.732  0.6280  1.9950  0.9906
17016SOL    HW262703   4.507   2.235   7.784  0.6150  0.7473  0.2938
17017SOL     OW62704   1.641   3.670   2.180  0.0859  0.5381 -0.3108
17017SOL    HW162705   1.584   3.703   2.255 -0.5801 -1.4625  0.0766
17017SOL    HW262706   1.731   3.712   2.186 -0.9175  2.7756 -0.2077
17018SOL     OW62707   1.103   1.616   6.587 -0.2196 -0.7090 -0.5236
17018SOL    HW162708   1.101   1.517   6.602 -1.0629 -0.8927 -1.7455
17018SOL    HW262709   1.020   1.656   6.626  0.5723 -0.3399  0.8191
17019SOL     OW62710   6.246   0.027   2.988 -0.0673  0.5901 -0.5431
17019SOL    HW162711   6.282  -0.011   2.903  0.2767 -2.6957  0.9853
17019SOL    HW262712   6.323   0.059   3.045 -0.0539  0.0593 -0.2531
17020SOL     OW62713   8.589   6.841   2.380  0.1771 -0.1777  0.4358
17020SOL    HW162714   8.656   6.770   2.363 -0.8479 -1.3421  1.1632
17020SOL    HW262715   8.569   6.889   2.294  1.5062 -0.1828  0.1150
17021SOL     OW62716   0.498   8.877   1.163 -0.9655 -0.2393  0.0404
17021SOL    HW162717   0.405   8.912   1.173 -0.8222  0.1500  0.0406
17021SOL    HW262718   0.545   8.880   1.251 -1.1340 -0.9644  0.1569
17022SOL     OW62719   7.760   1.636   1.062 -0.0569 -0.2029  0.3262
17022SOL    HW162720   7.704   1.718   1.075 -0.4704 -0.4228 -0.0532
17022SOL    HW262721   7.838   1.638   1.124  0.4499  0.9322 -0.3393
17023SOL     OW62722   8.483   0.296   2.614  0.2987  0.0025 -0.3187
17023SOL    HW162723   8.571   0.289   2.568  0.6376 -0.2548  0.3712
17023SOL    HW262724   8.419   0.346   2.555  1.4823  1.9604  0.0030
17024SOL     OW62725   7.250   1.866   3.542  0.0910 -0.3273 -0.0413
17024SOL    HW162726   7.264   1.774   3.578  2.3063  0.0155  0.0125
17024SOL    HW262727   7.159   1.899   3.569  0.1972 -1.5870  1.9011
17025SOL     OW62728   0.127   0.117   3.826 -0.1688  0.4995 -0.2045
17025SOL    HW162729   0.049   0.116   3.889 -0.3975 -3.2910 -0.4395
17025SOL    HW262730   0.199   0.059   3.863  0.9916  0.8274 -1.9173
17026SOL     OW62731   1.451   0.727   3.664  0.0916 -0.2388 -0.6354
17026SOL    HW162732   1.511   0.651   3.690  0.2680 -0.4414 -1.6166
17026SOL    HW262733   1.406   0.764   3.746 -1.5415 -2.7050 -0.3775
17027SOL     OW62734   8.068   4.474   5.154  0.0724 -0.0441 -0.1964
17027SOL    HW162735   7.968   4.482   5.158  0.1320  0.3675  0.5545
17027SOL    HW262736   8.099   4.406   5.220  0.1595 -1.4241 -1.6238
17028SOL     OW62737   6.210   1.136   5.146  0.4833 -0.0396 -0.1282
17028SOL    HW162738   6.182   1.197   5.072 -1.3981 -0.3247  0.3033
17028SOL    HW262739   6.196   1.041   5.119  2.7104 -0.2613 -0.5285
17029SOL     OW62740   3.362   8.776   6.854 -0.3506  0.0766  0.1733
17029SOL    HW162741   3.279   8.763   6.907  0.6489 -0.2400  1.7055
17029SOL    HW262742   3.346   8.748   6.760 -2.1299  0.5624  0.3143
17030SOL     OW62743   6.811   9.096   5.436 -0.4277  0.2328  0.2680
17030SOL    HW162744   6.721   9.089   5.480 -0.6383 -0.0435 -0.1902
17030SOL    HW262745   6.878   9.132   5.501 -1.0735  1.3449  0.3397
17031SOL     OW62746   3.847   2.059   2.711 -0.5091  0.2320 -0.1447
17031SOL    HW162747   3.793   1.987   2.754  0.0005 -0.6889 -1.0247
17031SOL    HW262748   3.829   2.146   2.756 -2.2522 -0.1763 -0.0318
17032SOL     OW62749   1.053   5.433   5.601 -0.7630 -0.2466  0.2981
17032SOL    HW162750   1.093   5.357   5.550  1.7003 -0.4609  2.4418
17032SOL    HW262751   1.067   5.518   5.551  0.6508 -0.5937  0.0911
17033SOL     OW62752   2.915   9.351   4.005 -0.1717  0.0089 -0.2546
17033SOL    HW162753   2.962   9.353   3.917 -1.1476 -0.7216 -0.8045
17033SOL    HW262754   2.816   9.360   3.990 -0.2347  1.3702  0.8687
17034SOL     OW62755   0.726   3.374   1.255 -0.3346  0.1046  0.2761
17034SOL    HW162756   0.664   3.306   1.216  0.2284 -0.8090  0.9431
17034SOL    HW262757   0.782   3.414   1.183  0.5927 -1.4594  0.0824
17035SOL     OW62758   3.841   1.605   6.469 -0.4712 -0.5270 -0.0437
17035SOL    HW162759   3.863   1.654   6.384  1.5089 -2.1191 -0.4788
17035SOL    HW262760   3.846   1.669   6.546 -0.5989  0.5555 -0.9156
17036SOL     OW62761   0.727   8.098   3.158  0.0987  0.2869 -0.0953
17036SOL    HW162762   0.772   8.181   3.191  0.8825 -0.4807  0.8156
17036SOL    HW262763   0.689   8.047   3.236 -0.9241  0.0947 -0.6996
17037SOL     OW62764   3.851   7.630   3.470 -0.3496 -0.2012 -0.3098
17037SOL    HW162765   3.817   7.537   3.484  0.3949 -0.1983  1.6909
17037SOL    HW262766   3.945   7.636   3.502 -0.5143  1.3331 -0.0817
17038SOL     OW62767   1.999   9.186   2.563  0.1336 -0.2325  0.5399
17038SOL    HW162768   2.066   9.180   2.637  1.7764 -1.5682 -1.0292
17038SOL    HW262769   1.921   9.126   2.584  0.7781 -0.9226  0.9922
17039SOL     OW62770   8.612   8.572   7.723  0.5528 -0.0552  0.1961
17039SOL    HW162771   8.561   8.529   7.648 -0.2056 -0.0258  0.6930
17039SOL    HW262772   8.677   8.506   7.762 -2.0203 -1.4272  2.2980
17040SOL     OW62773   0.844   8.581   1.672 -0.1648 -0.1134  0.3715
17040SOL    HW162774   0.881   8.664   1.631  0.3467 -0.3482  0.3481
17040SOL    HW262775   0.913   8.508   1.668 -0.5840 -0.5199  0.4489
17041SOL     OW62776   7.305   1.900   1.107 -0.8893 -0.2225 -0.0014
17041SOL    HW162777   7.223   1.896   1.050 -0.8337  0.8859 -0.1573
17041SOL    HW262778   7.295   1.973   1.174 -1.3079 -2.0178  1.9619
17042SOL     OW62779   0.063   1.705   7.351  0.3606 -0.2470 -0.4653
17042SOL    HW162780   0.020   1.691   7.441  0.3783 -0.2591 -0.4585
17042SOL    HW262781   0.112   1.792   7.351  1.4528 -0.8455 -0.0309
17043SOL     OW62782   8.599   4.348   7.714  0.2653 -0.0914 -0.5654
17043SOL    HW162783   8.552   4.408   7.649 -1.0200 -0.6914 -0.2161
17043SOL    HW262784   8.697   4.367   7.712  0.2287  0.0441 -2.5320
17044SOL     OW62785   0.071   7.301   3.064 -0.3424  0.0817  0.5331
17044SOL    HW162786   0.055   7.235   2.990  1.1282 -0.3582  0.6022
17044SOL    HW262787   0.095   7.390   3.024 -0.5375  0.1081  0.4731
17045SOL     OW62788   5.725   6.017   1.118 -0.2435  0.1667 -0.0933
17045SOL    HW162789   5.807   6.056   1.160  2.1600 -2.9152 -1.7111
17045SOL    HW262790   5.680   5.956   1.183  0.1009 -0.0122 -0.0239
17046SOL     OW62791   2.284   3.654   0.202  0.2368  0.6625  0.1591
17046SOL    HW162792   2.363   3.715   0.195  1.6654 -0.9350  1.7894
17046SOL    HW262793   2.309   3.563   0.170 -0.7158 -0.0427  1.3591
17047SOL     OW62794   2.425   2.025   0.174  0.6897 -0.0759 -0.0658
17047SOL    HW162795   2.335   1.987   0.193 -0.1528  2.4200  1.2427
17047SOL    HW262796   2.487   2.005   0.250  1.3502 -2.0398 -1.0957
17048SOL     OW62797   9.959   9.574   0.681  0.0699 -0.1282  0.1308
17048SOL    HW162798  10.057   9.590   0.668  0.7306 -2.1629  2.3860
17048SOL    HW262799   9.942   9.539   0.773 -2.8797  0.8423  0.0290
17049SOL     OW62800   0.226   7.393   7.886 -0.0500  0.4002  0.0467
17049SOL    HW162801   0.136   7.437   7.885  0.5864  1.7769  0.8238
17049SOL    HW262802   0.285   7.438   7.819 -0.8167 -2.4972 -2.6812
17050SOL     OW62803   8.362   0.850   4.144 -0.3027  0.2196  0.0386
17050SOL    HW162804   8.290   0.786   4.115 -1.1670  0.9215  0.6164
17050SOL    HW262805   8.451   0.813   4.119 -0.9479  0.1549 -2.2830
17051SOL     OW62806   4.670   8.637   4.610 -0.2493 -0.0535  0.1537
17051SOL    HW162807   4.738   8.640   4.684 -0.2440  0.2293  0.1389
17051SOL    HW262808   4.677   8.721   4.556  0.8722 -0.9924 -1.1925
17052SOL     OW62809   4.593   4.442   2.870 -0.1014 -0.0830 -0.0192
17052SOL    HW162810   4.665   4.387   2.912  1.0595  1.6436  0.3054
17052SOL    HW262811   4.595   4.428   2.771  1.3312  0.6742 -0.1131
17053SOL     OW62812   1.984   0.634   1.838  0.4408  0.1334 -0.1917
17053SOL    HW162813   2.011   0.712   1.896  0.5325  0.9874 -1.3596
17053SOL    HW262814   1.892   0.604   1.862  1.0917 -0.5756  1.4962
17054SOL     OW62815   0.143   1.453   0.665 -0.1676  0.3001 -0.1953
17054SOL    HW162816   0.204   1.522   0.704  1.1167 -0.3955 -0.9592
17054SOL    HW262817   0.166   1.363   0.702 -2.7215  0.4073  1.8607
17055SOL     OW62818   5.349   8.648   4.222  0.1820  0.5430 -0.7789
17055SOL    HW162819   5.433   8.702   4.236  0.9009 -0.0680 -2.5679
17055SOL    HW262820   5.365   8.554   4.252  0.2542  0.3383 -1.4588
17056SOL     OW62821   0.039   5.122   7.560  0.3594  0.7716  0.1406
17056SOL    HW162822   0.043   5.022   7.552  0.5835  0.8683 -1.0308
17056SOL    HW262823   0.025   5.147   7.656  1.0263 -0.3639  0.5474
17057SOL     OW62824   9.410   6.463   6.490  0.0329 -0.5280 -0.5062
17057SOL    HW162825   9.457   6.380   6.459 -2.0261 -0.8710 -2.8789
17057SOL    HW262826   9.453   6.543   6.447 -1.1863 -0.8085 -2.3334
17058SOL     OW62827   2.167   4.337   5.315 -0.1881  0.3815 -0.5404
17058SOL    HW162828   2.257   4.293   5.317 -0.9429 -1.1998 -0.0085
17058SOL    HW262829   2.178   4.436   5.318  1.4892  0.1762  3.2971
17059SOL     OW62830   0.951   8.538   1.191  0.6417  0.4239 -0.4438
17059SOL    HW162831   0.866   8.558   1.240 -1.4203 -0.0642 -3.6862
17059SOL    HW262832   1.013   8.617   1.198  2.2518 -1.0453  6.2561
17060SOL     OW62833   4.562   9.807   5.927 -0.3723  0.2319 -0.5446
17060SOL    HW162834   4.610   9.822   6.014 -1.1445 -0.9539  0.1018
17060SOL    HW262835   4.558   9.709   5.908 -1.4218  0.4000 -1.2356
17061SOL     OW62836   4.026   8.350   5.605  0.2122 -0.3411  0.3475
17061SOL    HW162837   4.036   8.307   5.516 -2.2375  1.0091 -0.6329
17061SOL    HW262838   4.072   8.295   5.674  1.0454 -2.0862 -1.5484
17062SOL     OW62839   8.431   8.011   0.701  0.1044 -0.0409 -0.0051
17062SOL    HW162840   8.471   7.968   0.620  0.0140  0.2707 -0.2165
17062SOL    HW262841   8.501   8.065   0.748 -0.4360  1.7433 -1.2215
17063SOL     OW62842   6.459   2.698   0.778 -0.2171  0.1026 -0.1724
17063SOL    HW162843   6.534   2.756   0.812 -0.6588  1.9423 -2.2067
17063SOL    HW262844   6.495   2.630   0.714  0.0105 -0.5041  0.5921
17064SOL     OW62845   7.262   5.482   6.656  0.1225  0.2502 -0.6533
17064SOL    HW162846   7.231   5.388   6.668 -1.2527  0.5242 -1.9720
17064SOL    HW262847   7.362   5.485   6.663  0.0869 -1.0662  0.8332
17065SOL     OW62848   9.065   5.883   3.820 -0.0807 -0.5809  0.0375
17065SOL    HW162849   9.116   5.826   3.756  0.7822 -0.5469  0.6840
17065SOL    HW262850   9.007   5.947   3.770  0.2684 -0.8419 -0.6961
17066SOL     OW62851   3.542   3.772   0.409  0.4023 -0.1543 -0.1402
17066SOL    HW162852   3.572   3.834   0.481 -0.8937 -0.2217  0.4484
17066SOL    HW262853   3.614   3.704   0.393  0.2794 -0.7405  1.7561
17067SOL     OW62854   8.392   5.525   3.184 -0.4465  0.2320  0.0711
17067SOL    HW162855   8.391   5.522   3.084 -3.5248  1.3832 -0.0092
17067SOL    HW262856   8.476   5.570   3.215 -0.5332  2.0458 -2.1169
17068SOL     OW62857   8.737   3.333   8.210 -0.4040 -0.2715 -0.1693
17068SOL    HW162858   8.811   3.331   8.142 -0.3870 -0.3310 -0.1504
17068SOL    HW262859   8.777   3.344   8.301 -0.3439 -1.3861 -0.0512
17069SOL     OW62860   2.454   3.639   1.159  0.1119 -0.4530 -0.0959
17069SOL    HW162861   2.364   3.608   1.129 -0.2488  0.4693  0.0203
17069SOL    HW262862   2.511   3.658   1.079  0.4791 -1.8330 -0.1619
17070SOL     OW62863   7.004   1.137   3.086 -0.0658 -0.2752 -0.0520
17070SOL    HW162864   7.092   1.100   3.055 -0.3904 -0.1903 -1.1169
17070SOL    HW262865   7.009   1.237   3.089 -0.0219 -0.2852  0.2149
17071SOL     OW62866   9.293   4.565   3.830  0.4269 -0.3870 -0.1105
17071SOL    HW162867   9.288   4.562   3.930  0.6334  0.4358 -0.0731
17071SOL    HW262868   9.222   4.507   3.791  0.1814 -0.5047  0.5185
17072SOL     OW62869   0.792   5.614   5.594  0.4921 -0.8649 -0.2988
17072SOL    HW162870   0.736   5.697   5.582  1.7127 -0.1007 -0.8726
17072SOL    HW262871   0.876   5.624   5.542  0.8261 -2.3280 -0.0525
17073SOL     OW62872   0.290   4.900   5.243  0.1927  0.0400 -0.8069
17073SOL    HW162873   0.306   4.921   5.340  0.7732  0.2532 -0.9456
17073SOL    HW262874   0.377   4.876   5.200 -0.1596 -0.6345 -1.1375
17074SOL     OW62875   1.077   2.774   1.058 -0.3899 -0.1064 -0.0179
17074SOL    HW162876   1.008   2.785   0.986 -0.3245 -0.4072 -0.1244
17074SOL    HW262877   1.138   2.698   1.035 -0.3717 -0.2043  0.3590
17075SOL     OW62878   0.822   5.152   6.615 -0.2823  0.3792  0.1006
17075SOL    HW162879   0.850   5.185   6.525  2.3275  1.2694  1.1981
17075SOL    HW262880   0.777   5.063   6.606  1.7598 -0.5003 -1.8956
17076SOL     OW62881   4.227   7.675   2.947  0.2668  0.2373  0.5401
17076SOL    HW162882   4.245   7.770   2.975 -0.5991  0.1158  1.5312
17076SOL    HW262883   4.233   7.615   3.027  2.2154 -0.7617 -0.3130
17077SOL     OW62884   0.962   6.689   2.084  0.1766 -0.1579 -0.3484
17077SOL    HW162885   1.009   6.669   1.998 -0.5179 -0.4170 -0.6748
17077SOL    HW262886   0.863   6.694   2.067 -0.4839 -5.2432  1.3655
17078SOL     OW62887   0.765   2.583   2.795  0.0582 -0.4429  0.0518
17078SOL    HW162888   0.675   2.554   2.762  0.9258 -1.5562 -1.3798
17078SOL    HW262889   0.785   2.538   2.882  0.3412 -2.2671 -0.9360
17079SOL     OW62890   9.449   6.389   4.452 -0.0383  0.1777  0.3411
17079SOL    HW162891   9.498   6.357   4.371 -0.1695  1.0630 -0.0919
17079SOL    HW262892   9.400   6.473   4.430 -1.9125 -0.7993  0.7201
17080SOL     OW62893   9.611   1.587   4.385 -0.6145  0.1678  0.0399
17080SOL    HW162894   9.583   1.637   4.467  0.9423 -1.9282  1.9103
17080SOL    HW262895   9.635   1.652   4.313 -0.7660  2.0675  1.6487
17081SOL     OW62896   5.075   8.104   1.352 -0.4067  0.0668  0.4917
17081SOL    HW162897   5.128   8.060   1.280  0.3033 -0.4924  1.3546
17081SOL    HW262898   4.980   8.072   1.348  0.3618 -2.4480  1.8621
17082SOL     OW62899   7.297   5.269   8.137  0.5917 -0.2361 -0.1219
17082SOL    HW162900   7.360   5.253   8.061  2.3290 -0.3281  1.3035
17082SOL    HW262901   7.320   5.356   8.181 -0.1951 -0.3424  0.5070
17083SOL     OW62902   3.022   5.382   2.747  0.2288 -0.8620  0.6285
17083SOL    HW162903   2.954   5.350   2.681  0.1868 -1.1529  0.8104
17083SOL    HW262904   3.038   5.311   2.815  0.9627 -0.9150  0.3961
17084SOL     OW62905   8.943   4.923   1.319  0.6168  0.0305  0.1861
17084SOL    HW162906   8.997   4.840   1.328 -0.3325 -0.5245  0.8984
17084SOL    HW262907   8.938   4.969   1.408 -0.3315 -0.0918  0.2035
17085SOL     OW62908   3.334   0.803   6.230 -0.2816  0.3903 -0.0739
17085SOL    HW162909   3.309   0.898   6.250 -0.4693  0.4005 -0.3640
17085SOL    HW262910   3.394   0.800   6.150 -0.5223  0.2391 -0.2502
17086SOL     OW62911   5.189   2.266   5.299 -0.2282 -0.3676  0.1050
17086SOL    HW162912   5.251   2.335   5.339  3.1972 -2.5747 -1.1382
17086SOL    HW262913   5.160   2.203   5.371 -0.5428  0.3212  0.5890
17087SOL     OW62914   4.835   5.580   1.041 -0.1378  0.1322 -0.4025
17087SOL    HW162915   4.865   5.648   1.108  0.7543 -1.1556  0.5487
17087SOL    HW262916   4.792   5.503   1.089  0.4029 -0.7557 -1.3140
17088SOL     OW62917   3.320   7.004   4.649  0.0731 -0.0189  0.9218
17088SOL    HW162918   3.395   6.994   4.583  0.2328 -0.2511  1.1368
17088SOL    HW262919   3.238   7.036   4.601 -0.0286 -0.9180  0.4664
17089SOL     OW62920   0.764   1.421   5.606  0.1486 -0.0250  0.2119
17089SOL    HW162921   0.710   1.338   5.605  2.8363 -1.8287 -0.4269
17089SOL    HW262922   0.837   1.415   5.538  1.1843  2.3076  1.0377
17090SOL     OW62923   9.903   3.772   0.778  0.7059  0.4441  0.2749
17090SOL    HW162924   9.917   3.717   0.860 -0.2109  2.4314  1.8162
17090SOL    HW262925   9.807   3.769   0.751  1.1779 -1.0286 -1.3818
17091SOL     OW62926   1.532   4.620   5.126  0.1860  0.1005  0.6250
17091SOL    HW162927   1.629   4.598   5.132  0.1478 -0.3742 -0.3775
17091SOL    HW262928   1.491   4.617   5.217  1.0341 -0.0441  1.0048
17092SOL     OW62929   9.719   3.423   4.173 -0.0760 -0.0337  0.2220
17092SOL    HW162930   9.798   3.461   4.221  0.3606 -1.2004  0.4462
17092SOL    HW262931   9.738   3.328   4.147 -1.1231 -0.0909 -0.3739
17093SOL     OW62932   1.784   4.568   7.543  0.4698 -0.1340 -0.4200
17093SOL    HW162933   1.723   4.498   7.580 -1.2512  1.0484 -0.9865
17093SOL    HW262934   1.879   4.538   7.555 -0.1557 -1.3771  1.6978
17094SOL     OW62935   4.939   2.334   6.383 -0.2855  0.3949  0.0551
17094SOL    HW162936   4.920   2.412   6.443 -0.6856 -0.0328  0.4977
17094SOL    HW262937   4.959   2.366   6.291  0.3255  1.0635  0.4141
17095SOL     OW62938   4.281   5.749   2.683  0.2079  0.0109  0.0134
17095SOL    HW162939   4.343   5.822   2.654 -0.2498  0.6314  0.5776
17095SOL    HW262940   4.329   5.689   2.747  1.3951 -1.6836 -2.3860
17096SOL     OW62941   1.660   1.961   1.467 -0.6089  0.3457  0.7561
17096SOL    HW162942   1.755   1.939   1.487 -0.7683 -1.5043 -0.4082
17096SOL    HW262943   1.645   1.961   1.368 -1.7372  0.9710  0.9185
17097SOL     OW62944   3.830   7.278   5.050 -0.0073  0.2495  0.2552
17097SOL    HW162945   3.772   7.331   4.988  1.3198  0.2087 -1.0440
17097SOL    HW262946   3.777   7.203   5.089 -0.7624  0.0569 -1.1168
17098SOL     OW62947   6.058   9.427   5.733 -0.2672 -0.5537 -0.0261
17098SOL    HW162948   5.996   9.382   5.797  0.2006  0.4506  1.1644
17098SOL    HW262949   6.151   9.425   5.769  0.1429 -0.6972 -1.0653
17099SOL     OW62950   3.066   0.808   5.202  0.1247 -0.0435 -0.1503
17099SOL    HW162951   3.019   0.895   5.189 -0.0222  0.1045  1.3493
17099SOL    HW262952   3.058   0.753   5.118 -1.0793  0.7601 -0.5710
17100SOL     OW62953   6.944   6.699   3.856  0.4129 -0.5566  0.1544
17100SOL    HW162954   6.906   6.712   3.764  0.0252  1.4186  0.5597
17100SOL    HW262955   7.044   6.700   3.851  0.4206 -2.6861 -0.5159
17101SOL     OW62956   9.673   5.163   7.769 -0.1451  0.2606 -0.3227
17101SOL    HW162957   9.694   5.112   7.685  0.2831  1.6067 -1.0367
17101SOL    HW262958   9.655   5.098   7.843 -0.4897 -0.9417 -1.4402
17102SOL     OW62959   8.306   3.950   4.890  0.6135  0.3396 -0.0135
17102SOL    HW162960   8.371   3.880   4.861  0.0666  0.2655 -1.0979
17102SOL    HW262961   8.213   3.914   4.884  0.4885  0.2716  2.0401
17103SOL     OW62962   3.736   2.774   2.919  0.0901 -0.7649 -0.5317
17103SOL    HW162963   3.742   2.874   2.914 -0.1875 -0.7556 -0.6585
17103SOL    HW262964   3.653   2.748   2.968 -0.2800 -0.9430 -1.2447
17104SOL     OW62965   3.502   1.163   1.929 -0.3200  0.5481  0.5183
17104SOL    HW162966   3.502   1.066   1.907  1.1018  0.5953  0.2564
17104SOL    HW262967   3.410   1.191   1.955 -1.0853 -0.4993 -0.9773
17105SOL     OW62968   4.117   3.823   4.632 -0.1610 -0.0617  0.1065
17105SOL    HW162969   4.142   3.786   4.721  0.6927  1.0913  0.3456
17105SOL    HW262970   4.184   3.794   4.564 -0.2557 -0.0974  0.0278
17106SOL     OW62971   0.818   2.887   7.536  0.2133  0.1515  0.4732
17106SOL    HW162972   0.787   2.793   7.522  1.6265 -0.1397 -0.7608
17106SOL    HW262973   0.891   2.888   7.604 -0.3403  0.4652  1.0731
17107SOL     OW62974   1.282   0.537   6.643  0.1150  0.3722 -0.9288
17107SOL    HW162975   1.193   0.510   6.605  1.0000 -1.8285 -1.5234
17107SOL    HW262976   1.281   0.524   6.742  0.0876 -0.5856 -1.0511
17108SOL     OW62977   9.333   8.083   5.863  0.6204 -0.0564 -0.1066
17108SOL    HW162978   9.398   8.158   5.879  0.4057  0.1005  0.0347
17108SOL    HW262979   9.346   8.014   5.934  2.9016 -1.6102 -1.9707
17109SOL     OW62980   8.291   2.011   5.644 -0.1003 -0.0909  0.1533
17109SOL    HW162981   8.273   1.930   5.588  2.0257  2.1776 -4.0389
17109SOL    HW262982   8.388   2.035   5.638 -0.5574  2.3859  1.8260
17110SOL     OW62983   6.180   8.743   5.279  0.3686 -0.5851  0.1415
17110SOL    HW162984   6.216   8.830   5.245 -1.3010 -0.3350 -1.0416
17110SOL    HW262985   6.148   8.755   5.374 -0.4107  0.2630 -0.2158
17111SOL     OW62986   0.304   6.968   2.938 -0.4041  0.4948 -0.7397
17111SOL    HW162987   0.350   7.054   2.960 -1.2480  0.7742 -0.0095
17111SOL    HW262988   0.231   6.952   3.005 -1.2744  0.0026 -1.7957
17112SOL     OW62989   8.030   1.613   4.686 -0.2714  0.2817 -0.2190
17112SOL    HW162990   8.126   1.637   4.673 -0.1370 -0.1055  0.0467
17112SOL    HW262991   7.998   1.648   4.774 -0.5512  0.9485 -0.5812
17113SOL     OW62992   0.075   1.411   8.000  0.0787 -0.2748 -0.1389
17113SOL    HW162993  -0.012   1.453   7.975 -0.0829 -0.8255 -0.5051
17113SOL    HW262994   0.058   1.329   8.054  0.4040  0.4807  1.1353
17114SOL     OW62995   0.688   7.964   1.167 -0.3487  0.1130 -0.5468
17114SOL    HW162996   0.734   7.957   1.256 -1.4756  0.0917  0.0445
17114SOL    HW262997   0.752   7.938   1.094  0.0902 -1.5077  0.3873
17115SOL     OW62998   5.430   8.846   3.865 -0.1166 -0.0489  0.5535
17115SOL    HW162999   5.359   8.784   3.897 -0.5154  0.2934  0.3396
17115SOL    HW263000   5.447   8.829   3.767  1.0665 -1.0643  0.9071
17116SOL     OW63001   4.533   0.655   1.738 -0.3766  0.0852 -0.4599
17116SOL    HW163002   4.439   0.642   1.770 -0.2334  0.3779  0.0860
17116SOL    HW263003   4.541   0.622   1.644 -1.4646  1.7051 -1.1387
17117SOL     OW63004   8.464   3.691   7.951 -0.2038  0.2553  0.7116
17117SOL    HW163005   8.455   3.682   7.852 -0.0574  0.8211  0.6442
17117SOL    HW263006   8.557   3.669   7.979  0.6347  3.1420  0.3430
17118SOL     OW63007   7.150   4.077   1.377  0.1131  0.1292 -0.0421
17118SOL    HW163008   7.231   4.120   1.416  0.0837  1.5245 -1.4555
17118SOL    HW263009   7.177   4.003   1.316  0.2796 -0.0176  0.2098
17119SOL     OW63010   4.418   4.045   7.312 -0.3146  0.0150  0.0441
17119SOL    HW163011   4.433   4.034   7.214  2.3407 -0.7911  0.5091
17119SOL    HW263012   4.346   3.983   7.343  0.2290 -1.1716 -1.0485
17120SOL     OW63013   3.320   1.001   3.980 -0.3374  0.0976  0.4821
17120SOL    HW163014   3.321   1.047   4.069 -0.1361 -0.4359  0.7616
17120SOL    HW263015   3.389   1.042   3.921  1.0452 -0.9515  1.3162
17121SOL     OW63016   8.364   7.199   2.544 -0.2622  0.0242  0.2198
17121SOL    HW163017   8.296   7.144   2.591  1.2713 -2.2819 -0.1987
17121SOL    HW263018   8.456   7.167   2.568  0.5911 -0.1672 -3.0605
17122SOL     OW63019   8.915   8.227   4.100 -0.1796 -0.3799 -0.2000
17122SOL    HW163020   8.876   8.153   4.045 -0.9273 -0.2890  0.1914
17122SOL    HW263021   8.905   8.314   4.051 -0.3265 -0.3794 -0.1702
17123SOL     OW63022   0.366   1.288   3.446 -0.0458  0.6372  0.2216
17123SOL    HW163023   0.319   1.205   3.475  0.6307  0.4158  0.7031
17123SOL    HW263024   0.320   1.327   3.367 -1.2100  0.5777  0.8595
17124SOL     OW63025   1.613   8.510   1.951 -0.4889  0.3616 -0.7038
17124SOL    HW163026   1.517   8.487   1.966 -0.5359 -0.5482 -2.2579
17124SOL    HW263027   1.653   8.542   2.036 -2.1941  0.8505 -0.0615
17125SOL     OW63028   0.928   7.668   4.255 -0.5331  0.2820 -0.4322
17125SOL    HW163029   0.955   7.728   4.180 -1.0931  0.3624 -0.5665
17125SOL    HW263030   0.872   7.719   4.321 -1.7972 -0.3374 -1.0217
17126SOL     OW63031   5.169   9.709   7.255 -0.1950  0.3237 -0.2045
17126SOL    HW163032   5.251   9.659   7.228 -0.7604 -0.2830 -0.8214
17126SOL    HW263033   5.129   9.665   7.336  1.6425  2.2941  1.8144
17127SOL     OW63034   2.788   3.513   4.274  0.1145  0.2896 -0.0746
17127SOL    HW163035   2.840   3.582   4.223 -1.3833  0.2034 -1.7651
17127SOL    HW263036   2.830   3.423   4.259  1.3614  0.6542  1.1675
17128SOL     OW63037   7.716   3.893   0.209  0.1191  0.0175 -0.7386
17128SOL    HW163038   7.753   3.870   0.119  1.6479  1.3717 -0.4753
17128SOL    HW263039   7.656   3.973   0.201  0.1553  0.0604 -0.5868
17129SOL     OW63040   0.012   2.453   3.961  0.0970 -0.0212 -0.1522
17129SOL    HW163041  -0.048   2.411   4.029 -0.7432  0.4755 -0.5809
17129SOL    HW263042   0.104   2.414   3.969  0.3689  1.0655  2.2216
17130SOL     OW63043   3.627   3.217   3.026  0.0292 -0.2650 -0.1513
17130SOL    HW163044   3.691   3.245   3.098 -0.9274 -0.0618  0.6226
17130SOL    HW263045   3.556   3.286   3.017 -1.4226 -1.6314  0.6275
17131SOL     OW63046   1.203   6.402   6.723  0.2422  0.0854 -0.0856
17131SOL    HW163047   1.191   6.425   6.820 -0.9770  0.9295 -0.4314
17131SOL    HW263048   1.124   6.433   6.671  0.5839 -0.9688 -1.2645
17132SOL     OW63049   3.753   4.552   6.229  0.1359  0.6908 -0.5019
17132SOL    HW163050   3.723   4.639   6.192  0.3197  1.0792  0.2468
17132SOL    HW263051   3.844   4.563   6.270  0.7390 -0.1631 -1.5902
17133SOL     OW63052   0.894   8.289   0.606 -0.1047 -0.2263  0.0706
17133SOL    HW163053   0.840   8.336   0.677  0.7866  1.0559 -0.0730
17133SOL    HW263054   0.991   8.292   0.632  0.0289 -1.4437 -0.2717
17134SOL     OW63055   0.705   3.412   7.433 -0.1246  0.5074  0.0094
17134SOL    HW163056   0.740   3.327   7.474 -1.8779 -0.0091  0.4665
17134SOL    HW263057   0.718   3.487   7.498 -2.8210 -0.2956  1.5794
17135SOL     OW63058   0.947   9.526   4.641 -0.5137  0.5337  0.1595
17135SOL    HW163059   0.870   9.543   4.702 -1.0593  0.3774 -0.4853
17135SOL    HW263060   0.914   9.509   4.549  0.2723  0.1367 -0.0560
17136SOL     OW63061   4.024   8.183   6.012 -0.3220 -0.3096  0.4977
17136SOL    HW163062   4.097   8.179   6.080 -0.3314  0.0241  0.5301
17136SOL    HW263063   4.048   8.128   5.932  0.5367  0.8439 -0.0407
17137SOL     OW63064   0.710   7.190   1.937  0.1594  0.0180  0.4424
17137SOL    HW163065   0.742   7.147   1.853  0.5819 -0.7660  1.0046
17137SOL    HW263066   0.619   7.156   1.959 -1.0261  2.0556 -1.0155
17138SOL     OW63067   8.138   9.037   5.432 -0.4761  0.3920  0.7889
17138SOL    HW163068   8.126   8.957   5.491 -0.1378 -0.1510  0.1233
17138SOL    HW263069   8.050   9.082   5.418 -0.9251 -0.7730 -0.1201
17139SOL     OW63070   1.996   8.273   1.346  0.1258 -0.0639 -0.1262
17139SOL    HW163071   1.984   8.371   1.366  2.3129  0.8414 -2.8503
17139SOL    HW263072   1.911   8.236   1.311 -1.0000  0.6162  1.8035
17140SOL     OW63073   8.897   8.496   3.926  0.6270  0.4985 -0.2902
17140SOL    HW163074   8.834   8.559   3.971 -0.7385  0.9609 -2.7614
17140SOL    HW263075   8.856   8.463   3.840  2.9347 -0.7298 -0.9715
17141SOL     OW63076   7.211   6.446   3.047 -0.1192 -0.3769  0.3559
17141SOL    HW163077   7.148   6.423   3.121 -0.4074 -0.8734 -0.0396
17141SOL    HW263078   7.292   6.387   3.053  0.0227 -0.1681  0.4926
17142SOL     OW63079   6.729   4.775   0.664 -0.1112  0.3462 -0.1145
17142SOL    HW163080   6.643   4.789   0.615  0.6418  0.1142 -1.5168
17142SOL    HW263081   6.783   4.859   0.660  0.1908  0.1507 -0.1576
17143SOL     OW63082   4.657   3.835   6.126 -0.0179  0.5582  0.1150
17143SOL    HW163083   4.661   3.935   6.129 -0.3691  0.5424  1.4043
17143SOL    HW263084   4.562   3.805   6.122  0.1046  0.2837 -0.8625
17144SOL     OW63085   2.405   0.876   6.662  0.0967  0.0358  0.0149
17144SOL    HW163086   2.407   0.875   6.762  0.5621  0.5421  0.0113
17144SOL    HW263087   2.489   0.917   6.627 -1.1971  2.2493 -0.5546
17145SOL     OW63088   3.816   5.421   1.928 -0.8313  0.6592 -0.1202
17145SOL    HW163089   3.744   5.353   1.940  1.1295 -1.2327  1.4163
17145SOL    HW263090   3.838   5.429   1.831 -0.3252 -1.7660 -0.2448
17146SOL     OW63091   7.897   7.723   4.013 -0.1728 -0.2946  0.5051
17146SOL    HW163092   7.946   7.768   4.088  0.3796 -1.8011  1.0796
17146SOL    HW263093   7.918   7.768   3.927 -0.7701  1.4259  1.2405
17147SOL     OW63094   2.968   6.373   3.484 -0.2051  0.4998  0.4085
17147SOL    HW163095   2.989   6.465   3.449 -0.6042  0.2293 -0.5592
17147SOL    HW263096   3.050   6.332   3.523  0.2146  0.8607 -0.0960
17148SOL     OW63097   9.717   0.948   5.449 -0.4264  0.0026 -0.4008
17148SOL    HW163098   9.664   0.968   5.365 -0.0772 -1.1883 -0.9082
17148SOL    HW263099   9.811   0.927   5.424  0.0896  1.2576  0.4432
17149SOL     OW63100   7.707   3.688   1.485 -0.0909 -0.1707 -0.4356
17149SOL    HW163101   7.692   3.727   1.394 -0.9631 -0.6189 -0.4932
17149SOL    HW263102   7.802   3.657   1.493  0.3456  1.0657 -0.7290
17150SOL     OW63103   8.220   3.277   6.243 -0.1296  0.2135 -0.0463
17150SOL    HW163104   8.136   3.297   6.193 -0.3709 -0.3811  0.1271
17150SOL    HW263105   8.243   3.354   6.302  0.7052  1.3694 -1.8229
17151SOL     OW63106   2.113   4.814   4.199 -0.0993  0.0072  0.3413
17151SOL    HW163107   2.091   4.904   4.236  0.4037  0.1414  0.3176
17151SOL    HW263108   2.051   4.746   4.238 -0.6054  0.3891  0.2132
17152SOL     OW63109   7.286   0.619   4.390 -0.0839 -0.4322  0.3132
17152SOL    HW163110   7.209   0.556   4.392 -0.5360  0.1166  0.5426
17152SOL    HW263111   7.363   0.579   4.440 -0.5901 -0.5250  1.0351
17153SOL     OW63112   8.543   4.714   2.873 -0.2803 -0.1592 -0.0174
17153SOL    HW163113   8.519   4.771   2.952 -0.5836  0.6278 -0.6622
17153SOL    HW263114   8.536   4.769   2.790  0.6232 -0.8126 -0.5346
17154SOL     OW63115   6.290   1.534   4.834 -0.2177  0.1211 -0.1262
17154SOL    HW163116   6.269   1.557   4.739 -2.0986  0.1876  0.2888
17154SOL    HW263117   6.299   1.618   4.888 -0.2150  0.0566 -0.0259
17155SOL     OW63118   8.407   4.069   6.341 -0.2948 -0.6178 -0.5738
17155SOL    HW163119   8.385   4.161   6.376 -0.1902 -1.8428  2.9510
17155SOL    HW263120   8.498   4.070   6.301 -0.0492  0.6765 -0.0250
17156SOL     OW63121   9.041   4.244   4.520  0.6076  0.1539 -0.1535
17156SOL    HW163122   9.005   4.333   4.491  1.4799  0.6143  0.1485
17156SOL    HW263123   8.976   4.172   4.496 -1.6432  1.2123  2.5226
17157SOL     OW63124   3.121   8.018   2.267  0.0428  0.6487 -0.2435
17157SOL    HW163125   3.033   7.991   2.228 -0.0472 -0.4031  0.6490
17157SOL    HW263126   3.127   7.986   2.362  1.8571 -0.3689 -0.6661
17158SOL     OW63127   2.011   2.995   7.755  0.0307  0.0425  0.1479
17158SOL    HW163128   2.097   2.967   7.797 -1.8126 -3.0649  2.0482
17158SOL    HW263129   2.018   2.985   7.655  1.6759 -0.7610  0.3211
17159SOL     OW63130   6.481   8.652   2.517 -0.2484  0.1358 -0.3600
17159SOL    HW163131   6.471   8.569   2.571  5.0984 -0.4838 -0.0300
17159SOL    HW263132   6.463   8.732   2.575  1.2389 -0.6427  1.2198
17160SOL     OW63133   0.149   4.096   2.987  0.7474  0.0064 -0.2501
17160SOL    HW163134   0.071   4.148   3.024  0.7523  0.2513 -0.5833
17160SOL    HW263135   0.199   4.153   2.922  1.0938 -0.2191 -0.1815
17161SOL     OW63136   6.487   0.499   0.909 -0.0485  0.1807 -0.4433
17161SOL    HW163137   6.575   0.459   0.937  1.3729  1.7546 -2.5223
17161SOL    HW263138   6.473   0.482   0.812 -1.5784  0.8485 -0.3457
17162SOL     OW63139   2.764   5.803   7.408  0.3305  0.3148  0.1505
17162SOL    HW163140   2.835   5.871   7.426  1.5213 -0.9641  0.3115
17162SOL    HW263141   2.794   5.743   7.333  0.0006 -1.0607  1.1105
17163SOL     OW63142   3.832   2.391   2.159 -0.3411  0.6618  0.4033
17163SOL    HW163143   3.858   2.337   2.079 -0.9889  0.6519  0.2006
17163SOL    HW263144   3.733   2.385   2.173 -0.3008  1.1027  0.8841
17164SOL     OW63145   0.973   8.102   4.571 -0.1804  0.0569  0.3473
17164SOL    HW163146   0.937   8.078   4.481 -0.7439  1.6565  0.1400
17164SOL    HW263147   0.897   8.104   4.637  0.3311 -1.8567  1.0362
17165SOL     OW63148   2.089   6.491   8.179 -0.3938 -0.8722  0.3848
17165SOL    HW163149   2.001   6.476   8.225  0.0045 -1.0017  1.1092
17165SOL    HW263150   2.150   6.541   8.240  0.1520 -1.0817  0.0069
17166SOL     OW63151   9.939   9.141   6.493 -0.2407  0.1981  0.1192
17166SOL    HW163152   9.969   9.054   6.533  0.5847 -0.1992 -1.3570
17166SOL    HW263153   9.979   9.217   6.545  0.2823 -0.3072  0.4640
17167SOL     OW63154   4.627   7.751   1.226 -0.2658  0.1164  0.2796
17167SOL    HW163155   4.677   7.715   1.147 -1.0026  0.9023 -0.5499
17167SOL    HW263156   4.530   7.734   1.214 -0.5520  1.6999  0.2314
17168SOL     OW63157   2.669   5.814   1.012  0.4415  0.2384  0.5909
17168SOL    HW163158   2.633   5.890   1.067 -0.1677 -0.6152  1.3794
17168SOL    HW263159   2.627   5.729   1.041  0.7573 -0.3474 -0.6330
17169SOL     OW63160   4.948   8.202   5.062 -0.0891 -0.1371  0.6441
17169SOL    HW163161   4.877   8.146   5.104 -0.0688 -1.2604 -0.7968
17169SOL    HW263162   4.990   8.153   4.986  0.9659  1.2405  0.2996
17170SOL     OW63163   8.735   8.538   1.022 -0.2942  0.2015  1.0381
17170SOL    HW163164   8.731   8.552   1.121  1.8942  2.6341  0.8308
17170SOL    HW263165   8.678   8.607   0.977 -1.4175 -1.0008  0.5581
17171SOL     OW63166   1.940   6.395   1.763  0.8597  0.6905 -0.3983
17171SOL    HW163167   1.866   6.351   1.712  2.5236 -0.2247 -2.1001
17171SOL    HW263168   1.904   6.471   1.817 -1.1320  0.9626 -2.0774
17172SOL     OW63169   9.528   2.918   4.773 -0.2236  0.5156  0.6734
17172SOL    HW163170   9.618   2.889   4.805 -0.2272  1.0705  1.1990
17172SOL    HW263171   9.534   3.009   4.732 -0.7334  1.0627  1.7636
17173SOL     OW63172   2.730   6.321   7.797 -0.2988  0.5239  0.2385
17173SOL    HW163173   2.694   6.411   7.775 -2.2200 -0.6753 -1.6757
17173SOL    HW263174   2.670   6.275   7.863  1.1563  0.9448  1.9223
17174SOL     OW63175   4.142   8.088   4.720  0.4996 -0.1707  0.1158
17174SOL    HW163176   4.094   8.074   4.634  0.8723 -0.1543 -0.0940
17174SOL    HW263177   4.235   8.052   4.713  0.7651  0.4797  0.2704
17175SOL     OW63178   1.079   0.779   1.830 -0.3008  0.1343 -0.2834
17175SOL    HW163179   1.091   0.837   1.749 -3.0495 -1.1615 -1.7012
17175SOL    HW263180   1.168   0.763   1.873  0.8913  2.8333 -1.6364
17176SOL     OW63181   2.478   5.983   4.136  0.1605  0.2824 -0.0807
17176SOL    HW163182   2.399   6.043   4.121 -0.5741 -0.8800 -0.9832
17176SOL    HW263183   2.449   5.902   4.187  0.6743 -0.3647 -0.8077
17177SOL     OW63184   6.178   8.463   5.380  0.7394  0.1574  0.2154
17177SOL    HW163185   6.162   8.554   5.341  0.0577 -0.0407  0.0293
17177SOL    HW263186   6.091   8.425   5.412  1.1357 -0.1067  1.0029
17178SOL     OW63187   0.974   2.682   3.212 -0.1200  0.4204  0.2387
17178SOL    HW163188   1.065   2.648   3.237 -0.6149 -1.1472 -0.0039
17178SOL    HW263189   0.978   2.781   3.198  1.7906  0.2331 -0.8075
17179SOL     OW63190   8.030   8.513   3.764 -0.0056  0.2863  0.1301
17179SOL    HW163191   8.103   8.460   3.721  0.2522  0.6655  0.0932
17179SOL    HW263192   8.059   8.541   3.856  0.4318  1.5690 -0.3890
17180SOL     OW63193   2.225   1.044   6.522 -0.2345  0.4853  0.9248
17180SOL    HW163194   2.139   1.004   6.556 -0.2505 -0.2258  0.0664
17180SOL    HW263195   2.302   1.000   6.568 -0.3071  0.8692  1.4290
17181SOL     OW63196   9.443   1.466   3.292  0.0995  0.0641 -0.3467
17181SOL    HW163197   9.523   1.518   3.321 -0.2037 -0.3141  1.2508
17181SOL    HW263198   9.436   1.382   3.347 -1.1717 -0.0907 -0.7284
17182SOL     OW63199   7.006   6.204   7.593  0.1760 -0.1176  0.0947
17182SOL    HW163200   6.909   6.188   7.612 -0.4964  1.5360 -1.7006
17182SOL    HW263201   7.051   6.118   7.573 -0.4143 -1.1714  3.0145
17183SOL     OW63202   6.745   4.291   0.869  0.1172 -0.6105  0.8182
17183SOL    HW163203   6.779   4.368   0.816 -0.5261 -0.3657  0.7669
17183SOL    HW263204   6.670   4.320   0.928 -0.1029 -1.1846  0.8296
17184SOL     OW63205   2.488   7.783   7.473  0.1473 -0.4078  0.2744
17184SOL    HW163206   2.552   7.750   7.404  0.6582 -2.8666  1.8465
17184SOL    HW263207   2.532   7.853   7.529  0.6318 -0.3402 -0.1923
17185SOL     OW63208   8.502   3.791   4.800 -0.3488 -0.6586 -0.0503
17185SOL    HW163209   8.575   3.854   4.774 -0.5519 -0.4742 -0.1742
17185SOL    HW263210   8.510   3.707   4.745  1.3441 -1.7170  1.7651
17186SOL     OW63211   1.483   2.855   0.374  0.5358  0.3888  0.0948
17186SOL    HW163212   1.426   2.928   0.412 -1.2591 -1.7754  1.6526
17186SOL    HW263213   1.563   2.842   0.432 -0.4050 -0.5159  1.2251
17187SOL     OW63214   7.761   3.063   2.662  0.6042 -0.1019 -0.3100
17187SOL    HW163215   7.796   2.970   2.678  2.3665  0.6905  0.5305
17187SOL    HW263216   7.737   3.106   2.749 -1.8043 -0.3472 -0.8214
17188SOL     OW63217   5.736   2.536   0.085 -0.0915  0.1633  0.0841
17188SOL    HW163218   5.707   2.571   0.174  0.7455  1.0942  0.0130
17188SOL    HW263219   5.802   2.600   0.045  0.8973 -1.1305 -0.4081
17189SOL     OW63220   8.886   2.048   4.403 -0.1132  0.2905 -0.5771
17189SOL    HW163221   8.981   2.033   4.430 -0.4632 -0.1376  0.4629
17189SOL    HW263222   8.875   2.140   4.366  0.6704  0.3969 -0.5453
17190SOL     OW63223   7.921   1.102   0.762 -0.5319 -0.0698  0.0399
17190SOL    HW163224   7.973   1.188   0.768  0.4818 -0.7094  0.5266
17190SOL    HW263225   7.839   1.117   0.707 -0.4531  1.2589  0.2541
17191SOL     OW63226   9.386   0.621   5.319  0.5051 -0.0163 -0.1148
17191SOL    HW163227   9.457   0.624   5.249 -0.1096  0.8490 -0.7110
17191SOL    HW263228   9.427   0.635   5.409  1.2722 -0.9356 -0.3087
17192SOL     OW63229   2.945   2.333   6.412  0.3791  0.2597 -0.0564
17192SOL    HW163230   2.983   2.242   6.428 -0.8033 -0.4875 -1.4422
17192SOL    HW263231   3.003   2.401   6.457  2.1409 -1.0400 -0.2997
17193SOL     OW63232   9.498   2.243   3.449 -0.6496 -0.0779  0.2375
17193SOL    HW163233   9.593   2.259   3.476 -0.6723 -0.5972  0.6379
17193SOL    HW263234   9.484   2.144   3.437 -1.6661 -0.1709  2.0942
17194SOL     OW63235   0.169   9.246   1.992  0.6968  0.1432  0.0780
17194SOL    HW163236   0.175   9.146   1.994 -0.2954  0.0573 -0.7739
17194SOL    HW263237   0.087   9.276   2.041 -0.6347  0.3497 -2.1809
17195SOL     OW63238   1.753   5.555   5.202  0.0419  0.1581 -0.0318
17195SOL    HW163239   1.771   5.485   5.271 -1.3173  0.3622  0.5613
17195SOL    HW263240   1.655   5.575   5.200  0.0351  0.0874 -2.0899
17196SOL     OW63241   9.264   5.040   7.030 -0.8974 -0.1810 -0.3359
17196SOL    HW163242   9.249   5.133   7.065  0.1796 -0.1413  0.0353
17196SOL    HW263243   9.254   5.041   6.930 -0.2167  0.4813 -0.4040
17197SOL     OW63244   2.335   0.942   0.643  0.3436  0.0452 -0.1629
17197SOL    HW163245   2.247   0.955   0.690  0.8945 -1.3229  1.3021
17197SOL    HW263246   2.325   0.869   0.575 -0.1154  1.1462 -1.2998
17198SOL     OW63247   7.612   9.003   6.280  0.0415  0.7612  0.0929
17198SOL    HW163248   7.620   9.096   6.317 -0.5032  0.4641  0.9699
17198SOL    HW263249   7.702   8.972   6.248  0.2111  1.6143 -0.2780
17199SOL     OW63250   9.275   8.191   6.830 -0.3819  0.3800  0.1689
17199SOL    HW163251   9.367   8.181   6.792 -1.1651 -1.3395 -1.3102
17199SOL    HW263252   9.274   8.269   6.892  2.1660  0.2294  0.4786
17200SOL     OW63253   0.595   7.166   3.544  0.2289 -0.0255  0.0226
17200SOL    HW163254   0.666   7.219   3.592  1.5344 -1.2953 -0.4780
17200SOL    HW263255   0.625   7.147   3.451 -1.0563 -0.0374 -0.3929
17201SOL     OW63256   7.169   6.298   4.945 -0.1477  0.2542 -0.1230
17201SOL    HW163257   7.145   6.302   4.848  0.4637  1.1722 -0.2445
17201SOL    HW263258   7.254   6.247   4.958 -1.2227 -1.5035  0.1320
17202SOL     OW63259   6.325   9.859   3.781  0.3550 -0.3971  0.0705
17202SOL    HW163260   6.377   9.865   3.696  0.0203  0.7620 -0.0706
17202SOL    HW263261   6.379   9.897   3.856 -0.8750  2.3987 -0.3769
17203SOL     OW63262   3.386   1.137   2.888  0.1468 -0.0727 -0.6586
17203SOL    HW163263   3.476   1.148   2.929 -0.0101  1.9706 -0.8425
17203SOL    HW263264   3.391   1.152   2.790 -0.3101 -0.4597 -0.7464
17204SOL     OW63265   5.769   0.150   4.209  0.3368  0.0973 -0.1165
17204SOL    HW163266   5.717   0.076   4.167  0.0585  1.0988 -1.6009
17204SOL    HW263267   5.710   0.229   4.224  0.9313  0.4943  0.1803
17205SOL     OW63268   6.199   2.480   1.221  0.0514 -0.1830  0.3874
17205SOL    HW163269   6.110   2.497   1.265  0.4662  0.9218  0.8294
17205SOL    HW263270   6.184   2.434   1.134 -1.0668  1.0756 -0.1121
17206SOL     OW63271   0.387   3.463   2.815  1.0989 -0.4530  0.0049
17206SOL    HW163272   0.405   3.514   2.731 -0.5927 -0.6488 -0.5057
17206SOL    HW263273   0.288   3.464   2.834  1.4980 -0.2070  2.1226
17207SOL     OW63274   9.432   8.381   3.646  0.2786 -0.0307  0.2592
17207SOL    HW163275   9.399   8.337   3.729 -0.3524  0.1495  0.1088
17207SOL    HW263276   9.411   8.324   3.567 -1.7747  1.1527 -0.0842
17208SOL     OW63277   6.381   9.141   1.843 -0.1296 -0.0720 -0.2455
17208SOL    HW163278   6.354   9.218   1.901 -0.1131 -0.9102  0.8960
17208SOL    HW263279   6.319   9.064   1.860  0.3159 -0.5605 -0.8262
17209SOL     OW63280   7.027   8.783   4.847  0.1619  0.2414 -0.1704
17209SOL    HW163281   7.026   8.799   4.748  0.9677 -0.7376 -0.3466
17209SOL    HW263282   7.019   8.870   4.895 -0.7127  0.6865 -1.0959
17210SOL     OW63283   1.353   0.198   6.554 -0.5653  0.5051 -0.2242
17210SOL    HW163284   1.428   0.195   6.489  0.0295  0.8187  0.4423
17210SOL    HW263285   1.388   0.219   6.645 -1.6632  2.3494 -0.2076
17211SOL     OW63286   0.394   0.714   0.176 -0.5316  0.3484  0.7187
17211SOL    HW163287   0.467   0.783   0.182  1.7709 -1.9713  0.0802
17211SOL    HW263288   0.353   0.717   0.085  1.6033 -1.0671 -0.3400
17212SOL     OW63289   0.028   2.643   2.173  0.3298 -0.1761  0.2500
17212SOL    HW163290  -0.015   2.576   2.113  0.3848  0.1700 -0.1729
17212SOL    HW263291   0.091   2.596   2.235 -2.4780 -1.0358  2.5673
17213SOL     OW63292   0.828   0.696   2.654  0.0318  0.0671  0.3655
17213SOL    HW163293   0.881   0.754   2.593 -0.4773 -0.6752 -0.8009
17213SOL    HW263294   0.889   0.637   2.706  0.3320 -1.2017 -1.3987
17214SOL     OW63295   8.392   7.309   7.292  0.2092  0.1374  0.0895
17214SOL    HW163296   8.357   7.372   7.222 -1.3383 -0.3680  0.3983
17214SOL    HW263297   8.393   7.216   7.255 -0.1793 -0.0632  0.5832
17215SOL     OW63298   1.991   7.794   0.283 -0.0148  0.0381 -0.0558
17215SOL    HW163299   1.977   7.846   0.368  1.7966  0.5058 -0.0217
17215SOL    HW263300   2.038   7.708   0.305  0.5674  0.2164 -0.5882
17216SOL     OW63301   4.597   6.185   2.835 -0.0433 -0.1834  0.5662
17216SOL    HW163302   4.640   6.234   2.910 -0.7249 -0.4164  1.1103
17216SOL    HW263303   4.545   6.107   2.871 -0.8780  0.0613 -0.0821
17217SOL     OW63304   1.508   1.641   3.456 -0.1742 -0.2534 -0.9085
17217SOL    HW163305   1.533   1.610   3.364 -2.4959 -0.9630 -1.3385
17217SOL    HW263306   1.417   1.607   3.479  0.9263 -1.2770  2.2390
17218SOL     OW63307   1.797   8.055   5.959 -0.1746 -0.5309  0.4081
17218SOL    HW163308   1.806   8.143   6.005 -1.0605 -0.4544  0.4431
17218SOL    HW263309   1.856   7.988   6.004  2.4530  0.6189 -1.1561
17219SOL     OW63310   2.844   5.869   5.209 -0.2004  0.0033 -0.0455
17219SOL    HW163311   2.858   5.920   5.294 -0.9087 -1.7426  1.1490
17219SOL    HW263312   2.766   5.906   5.160  0.6141  1.4455 -0.2820
17220SOL     OW63313   4.404   9.164   3.656 -0.0678 -0.1254  0.3419
17220SOL    HW163314   4.493   9.131   3.686  1.2233  1.6277 -1.4063
17220SOL    HW263315   4.401   9.263   3.664 -0.8408  0.0822 -2.1888
17221SOL     OW63316   2.336   0.898   8.192 -0.0025  0.5143 -0.2627
17221SOL    HW163317   2.278   0.975   8.219  0.1661  0.7373 -0.5444
17221SOL    HW263318   2.348   0.837   8.271  0.8787  1.4106  0.2998
17222SOL     OW63319   1.007   8.588   3.975  0.0619  0.2114  0.1119
17222SOL    HW163320   0.985   8.609   4.070 -0.4397 -0.0715  0.0598
17222SOL    HW263321   0.976   8.662   3.916  1.4125  0.9300  0.2801
17223SOL     OW63322   4.512   3.728   4.001  0.1058 -0.6810  0.0613
17223SOL    HW163323   4.419   3.696   4.020 -0.1058 -0.9761 -1.4157
17223SOL    HW263324   4.529   3.724   3.903  0.8629  1.6352  0.0769
17224SOL     OW63325   2.342   3.898   3.218  0.3640  0.3009 -0.5244
17224SOL    HW163326   2.311   3.803   3.218 -0.3600  0.5272  0.3149
17224SOL    HW263327   2.264   3.959   3.232  0.8629  1.0079 -0.7623
17225SOL     OW63328   4.982   6.198   0.942  0.1308 -0.0632 -0.3132
17225SOL    HW163329   4.918   6.157   1.007 -1.7719 -0.4757 -2.3801
17225SOL    HW263330   5.044   6.127   0.907 -0.6227 -0.4073 -0.9693
17226SOL     OW63331   8.856   9.532   1.353 -0.7575  0.5103 -0.5758
17226SOL    HW163332   8.867   9.612   1.294  0.3078 -0.5564 -1.8384
17226SOL    HW263333   8.831   9.453   1.298  0.0493 -0.4613  0.4372
17227SOL     OW63334   3.537   2.039   5.845 -0.1090  0.5960 -0.1687
17227SOL    HW163335   3.532   1.991   5.757  0.7527  1.0012 -0.4412
17227SOL    HW263336   3.632   2.058   5.867 -0.4670  2.7303 -0.3519
17228SOL     OW63337   8.273   7.099   1.769  0.7453 -0.1817  0.5104
17228SOL    HW163338   8.249   7.079   1.674 -0.8523 -1.8447  1.2380
17228SOL    HW263339   8.235   7.188   1.795 -0.9364 -0.8389  0.3345
17229SOL     OW63340   9.211   3.823   6.349  0.7175 -0.3075 -0.1784
17229SOL    HW163341   9.141   3.836   6.279  0.0434  0.0137  0.5518
17229SOL    HW263342   9.228   3.910   6.396  1.6585 -0.3641 -0.3938
17230SOL     OW63343   5.740   0.477   2.139 -0.6533  0.4555  0.5932
17230SOL    HW163344   5.800   0.523   2.204  0.5807 -1.7312  1.0766
17230SOL    HW263345   5.765   0.380   2.135 -1.8389  0.2329 -1.8787
17231SOL     OW63346   3.406   4.926   4.662 -0.0352  0.3292 -0.3700
17231SOL    HW163347   3.505   4.925   4.680 -0.3971 -0.3793  1.7726
17231SOL    HW263348   3.359   4.963   4.742 -1.6040 -0.6585 -0.8308
17232SOL     OW63349   8.236   9.975   8.154 -0.4973  0.0299  0.3504
17232SOL    HW163350   8.321   9.982   8.102 -0.0461 -1.0891  0.9326
17232SOL    HW263351   8.181   9.899   8.120 -0.3527 -0.4950  1.2806
17233SOL     OW63352   9.648   0.549   7.097 -0.3609 -0.2301 -0.3888
17233SOL    HW163353   9.583   0.475   7.080  1.4982 -1.7451 -1.1505
17233SOL    HW263354   9.740   0.520   7.068  0.2938  2.6525 -1.4451
17234SOL     OW63355   4.516   1.415   7.522 -0.1390  0.3842 -0.4120
17234SOL    HW163356   4.588   1.382   7.583 -2.7368 -3.2864  0.7671
17234SOL    HW263357   4.516   1.361   7.438  0.2066  2.2063 -1.6307
17235SOL     OW63358   5.571   1.187   3.914  0.0303  0.0717 -0.9274
17235SOL    HW163359   5.569   1.100   3.863  0.5323 -0.8241  0.5465
17235SOL    HW263360   5.546   1.170   4.009 -0.3398  1.6391 -0.7395
17236SOL     OW63361   7.607   5.435   4.508  0.5988 -0.1545  0.0196
17236SOL    HW163362   7.514   5.448   4.542  1.0853  1.0185  0.9177
17236SOL    HW263363   7.636   5.516   4.457  1.3070 -0.3180  0.1574
17237SOL     OW63364   3.636   8.783   3.575  0.0893  0.0285  0.9794
17237SOL    HW163365   3.685   8.813   3.657  0.6104  0.5419  0.4816
17237SOL    HW263366   3.656   8.686   3.559  0.0993 -0.0382  1.3733
17238SOL     OW63367   8.739   9.490   0.378  0.1920  0.0255 -0.3021
17238SOL    HW163368   8.686   9.558   0.428 -1.9822 -2.0648  0.3536
17238SOL    HW263369   8.803   9.536   0.315  0.9297  2.6477  2.2568
17239SOL     OW63370   0.407   5.004   5.932 -0.2288 -0.3184  0.6691
17239SOL    HW163371   0.396   5.064   6.011  0.2569 -1.9844  2.0371
17239SOL    HW263372   0.317   4.970   5.903 -0.4631  0.7287  0.1417
17240SOL     OW63373   8.551   7.594   4.117 -0.1863 -0.1899 -0.0857
17240SOL    HW163374   8.467   7.595   4.172 -0.9451 -1.7466 -1.1815
17240SOL    HW263375   8.529   7.563   4.025  1.3300  0.9903 -0.8612
17241SOL     OW63376   7.131   5.124   1.796 -0.2297 -0.5807 -0.6833
17241SOL    HW163377   7.043   5.128   1.844  0.5814 -0.7860  0.8476
17241SOL    HW263378   7.191   5.196   1.832  0.8032 -1.5084 -0.5325
17242SOL     OW63379   5.818   0.802   6.827  0.0600  0.2389 -0.0856
17242SOL    HW163380   5.770   0.882   6.864 -1.6914 -0.3523 -1.0327
17242SOL    HW263381   5.855   0.748   6.902 -0.1298  1.0795  0.6248
17243SOL     OW63382   3.295   3.040   5.143  0.7724  0.0482  0.1909
17243SOL    HW163383   3.355   2.974   5.095  0.3319 -0.3162  0.1400
17243SOL    HW263384   3.218   2.991   5.183  0.5723  0.5083  0.3637
17244SOL     OW63385   8.435   6.368   6.583 -0.3188  0.1196  0.0806
17244SOL    HW163386   8.358   6.356   6.647  0.5585  1.9079  1.4987
17244SOL    HW263387   8.405   6.421   6.504 -0.6678  0.3693  0.3794
17245SOL     OW63388   4.170   2.590   6.363 -0.3634 -0.0178 -0.2682
17245SOL    HW163389   4.193   2.533   6.284  2.6285  1.4719 -0.5419
17245SOL    HW263390   4.200   2.684   6.347  0.9069  0.1858  2.8762
17246SOL     OW63391   8.378   2.441   2.561  0.0677 -0.3869 -0.5275
17246SOL    HW163392   8.295   2.386   2.563 -0.9991  1.2212  1.7369
17246SOL    HW263393   8.372   2.510   2.490  0.0636 -1.1558 -1.2736
17247SOL     OW63394   3.249   5.166   0.989 -0.8769  0.3063 -0.1528
17247SOL    HW163395   3.175   5.190   1.052  0.8070  0.1733  1.9400
17247SOL    HW263396   3.277   5.071   1.005  1.9672  1.3367  1.4627
17248SOL     OW63397   1.579   9.470   3.920 -0.3335  0.1799 -0.0295
17248SOL    HW163398   1.518   9.448   3.845 -0.8364 -1.6489  0.9045
17248SOL    HW263399   1.536   9.446   4.007 -0.6257  4.1617  1.0486
17249SOL     OW63400   2.863   8.903   7.258  0.5090 -0.3163  0.4361
17249SOL    HW163401   2.948   8.936   7.215  1.1864 -0.0896  1.9192
17249SOL    HW263402   2.843   8.958   7.339 -0.2968 -1.2871  0.9103
17250SOL     OW63403   7.443   6.158   7.454 -0.3972  0.2998  0.1394
17250SOL    HW163404   7.436   6.257   7.447  0.9421  0.4603  0.9251
17250SOL    HW263405   7.399   6.127   7.539  0.4575  0.3848  0.6223
17251SOL     OW63406   0.459   1.536   4.634  0.6152  0.4726 -0.5640
17251SOL    HW163407   0.372   1.560   4.677  0.6892 -1.8050  0.9221
17251SOL    HW263408   0.518   1.617   4.632 -0.4454  1.3238  1.0703
17252SOL     OW63409   8.130   5.461   1.087  0.3419  0.1670  0.0847
17252SOL    HW163410   8.035   5.459   1.055 -0.3232  1.1014  1.9535
17252SOL    HW263411   8.184   5.523   1.029  0.0521 -1.0869 -1.5618
17253SOL     OW63412   7.839   6.882   4.722  0.6736  0.3083 -0.2934
17253SOL    HW163413   7.880   6.865   4.632  0.3582  1.5548 -0.6761
17253SOL    HW263414   7.829   6.980   4.736 -2.7944  0.0573 -0.4792
17254SOL     OW63415   3.880   5.034   7.931 -0.1681 -0.6236 -0.3724
17254SOL    HW163416   3.845   5.127   7.941 -2.8919 -1.5430 -0.9295
17254SOL    HW263417   3.860   5.001   7.838  1.4645 -1.5091 -0.4316
17255SOL     OW63418   4.526   3.550   5.750  0.5750 -1.2389 -0.6111
17255SOL    HW163419   4.577   3.494   5.814 -0.4779 -1.7281 -0.1890
17255SOL    HW263420   4.532   3.646   5.777 -0.7531 -1.5499  0.8575
17256SOL     OW63421   8.804   9.152   5.301  0.6352  0.3349  0.1936
17256SOL    HW163422   8.734   9.206   5.254  0.7360 -0.6015 -1.0680
17256SOL    HW263423   8.785   9.055   5.289  1.5784  0.0756  0.7229
17257SOL     OW63424   7.626   1.563   4.672 -0.6077  0.2150 -0.4521
17257SOL    HW163425   7.638   1.651   4.625 -0.3729  0.9363  0.9386
17257SOL    HW263426   7.616   1.579   4.770  1.2066 -1.4411  0.0284
17258SOL     OW63427   7.675   2.210   2.503 -0.1302  0.3580 -0.1142
17258SOL    HW163428   7.647   2.127   2.549 -1.0282  0.8260  0.1936
17258SOL    HW263429   7.680   2.285   2.569 -0.3578  0.7852 -0.5814
17259SOL     OW63430   6.979   2.214   0.417 -0.7065  0.2426  0.0801
17259SOL    HW163431   6.984   2.191   0.320 -0.7339 -0.2211  0.1914
17259SOL    HW263432   7.009   2.309   0.430  1.0945 -0.2828 -0.1478
17260SOL     OW63433   1.292   1.070   1.915 -0.1471 -0.5113 -0.6368
17260SOL    HW163434   1.362   1.083   1.845 -0.5570  0.7355 -0.8297
17260SOL    HW263435   1.202   1.063   1.872 -0.0007 -3.7953 -0.5176
17261SOL     OW63436   9.968   5.037   2.420 -0.0029 -0.0813 -1.1929
17261SOL    HW163437   9.949   5.135   2.418  0.2105 -0.0592 -2.0536
17261SOL    HW263438  10.020   5.011   2.339  2.2793 -0.4215  0.3449
17262SOL     OW63439   7.743   7.024   2.216 -0.3219  0.1436 -0.1992
17262SOL    HW163440   7.793   6.937   2.222 -1.4175 -0.5311 -0.7568
17262SOL    HW263441   7.675   7.018   2.144 -0.8131  1.2665  0.1680
17263SOL     OW63442   6.947   6.734   3.582 -0.1553 -0.2867  0.4504
17263SOL    HW163443   7.011   6.678   3.528 -1.4028 -1.2760 -0.0293
17263SOL    HW263444   6.978   6.829   3.581  0.6804 -0.5497 -0.7632
17264SOL     OW63445   9.009   0.567   2.929  0.4138 -0.5496  0.3259
17264SOL    HW163446   9.053   0.657   2.933  1.8367 -1.1599 -0.9226
17264SOL    HW263447   8.922   0.570   2.978  0.5343  1.4485  0.4581
17265SOL     OW63448   4.653   3.733   4.728 -0.4920  0.0596 -0.2263
17265SOL    HW163449   4.746   3.704   4.752 -0.9292 -1.1987 -0.0059
17265SOL    HW263450   4.637   3.715   4.631 -0.9015 -0.8313  0.0013
17266SOL     OW63451   8.547   6.276   3.685 -0.4131 -0.0274  0.5397
17266SOL    HW163452   8.573   6.349   3.748  0.0023  0.3364 -0.0491
17266SOL    HW263453   8.593   6.192   3.711  0.4754  0.3447  0.1743
17267SOL     OW63454   8.165   6.877   6.750 -0.4251  0.6225  0.0236
17267SOL    HW163455   8.206   6.804   6.805 -2.4507 -1.1142 -0.7287
17267SOL    HW263456   8.187   6.863   6.654 -0.6446  1.1367 -0.1036
17268SOL     OW63457   3.911   0.498   1.558 -0.7548 -0.0860 -0.5565
17268SOL    HW163458   3.879   0.519   1.466 -3.3365 -0.1079  0.2965
17268SOL    HW263459   3.840   0.448   1.608  1.4314 -1.9606  0.7605
17269SOL     OW63460   5.838   9.640   4.558 -0.5458 -0.6608 -0.2228
17269SOL    HW163461   5.793   9.607   4.641  0.7407 -0.6610  0.4911
17269SOL    HW263462   5.868   9.734   4.571 -0.0152 -0.7804 -0.5537
17270SOL     OW63463   9.101   6.744   7.633 -0.1977 -0.0997  0.0909
17270SOL    HW163464   9.184   6.738   7.688 -1.0184 -1.9111  1.2126
17270SOL    HW263465   9.125   6.760   7.537  1.3557  0.9577  0.6425
17271SOL     OW63466   1.509   1.938   4.478 -0.1698 -0.5286  0.6311
17271SOL    HW163467   1.432   1.878   4.455  0.6799 -1.3052 -0.2309
17271SOL    HW263468   1.532   1.926   4.575 -0.3132 -1.2471  0.5804
17272SOL     OW63469   5.251   7.388   3.023 -0.3248  0.1861  0.1573
17272SOL    HW163470   5.273   7.399   3.120 -3.4302 -0.1165  0.9467
17272SOL    HW263471   5.293   7.461   2.971 -1.6782  2.5595  2.2660
17273SOL     OW63472   3.073   3.434   1.027 -0.0274  0.3856 -0.0640
17273SOL    HW163473   3.147   3.436   1.094  0.7401  2.6013 -0.9119
17273SOL    HW263474   3.043   3.340   1.013  1.8272 -0.4263  1.1557
17274SOL     OW63475   3.624   6.701   8.202  0.1826  0.3308 -0.0824
17274SOL    HW163476   3.677   6.672   8.122  1.0239  1.2050  0.1463
17274SOL    HW263477   3.681   6.759   8.260 -1.1194  1.5073  0.0274
17275SOL     OW63478   3.411   1.710   2.253 -0.2855  0.2910  0.2378
17275SOL    HW163479   3.336   1.776   2.263 -0.2350  0.2635  0.8163
17275SOL    HW263480   3.375   1.618   2.267 -0.0239  0.3233  1.1821
17276SOL     OW63481   4.803   5.459   0.517 -0.4741  0.6342  0.9347
17276SOL    HW163482   4.787   5.445   0.419  2.0296  0.7813  0.4828
17276SOL    HW263483   4.740   5.530   0.550 -0.5215  1.4619 -0.8292
17277SOL     OW63484   4.598   8.563   2.052 -0.1041 -0.1234 -0.3732
17277SOL    HW163485   4.664   8.533   2.121 -0.1984  0.0626 -0.1993
17277SOL    HW263486   4.600   8.501   1.974  0.6327  0.1589 -0.5820
17278SOL     OW63487   4.134   9.708   0.119  0.1532 -0.7986  0.0708
17278SOL    HW163488   4.109   9.665   0.031 -0.8182  1.0504 -0.5751
17278SOL    HW263489   4.205   9.653   0.163 -2.4234 -4.2293  0.2389
17279SOL     OW63490   4.498   1.052   4.395  0.5834  0.1873 -0.0604
17279SOL    HW163491   4.464   1.136   4.353  0.4264  0.0348 -0.2388
17279SOL    HW263492   4.581   1.022   4.350 -0.8627 -1.2674 -1.8222
17280SOL     OW63493   6.245   0.673   2.594  0.7652  0.1727 -0.0879
17280SOL    HW163494   6.196   0.734   2.531  0.8203  0.6035  0.2769
17280SOL    HW263495   6.326   0.635   2.548  0.4446 -0.0298 -0.4837
17281SOL     OW63496   8.807   3.053   7.057 -0.3984  0.6031  0.2828
17281SOL    HW163497   8.831   3.088   7.147 -0.6175  0.8716  0.2401
17281SOL    HW263498   8.739   3.114   7.015 -1.9572 -0.7054  0.8425
17282SOL     OW63499   4.039   4.609   6.279 -0.4512  0.2306 -0.5391
17282SOL    HW163500   4.125   4.567   6.308 -0.7341 -0.1762 -0.2742
17282SOL    HW263501   4.037   4.705   6.306 -0.5243 -0.0334  0.4070
17283SOL     OW63502   7.166   3.558   2.077 -0.0171  0.0711  0.0036
17283SOL    HW163503   7.076   3.532   2.040  0.5153 -0.2162 -1.1249
17283SOL    HW263504   7.214   3.477   2.110  0.1542  0.1144 -0.1373
17284SOL     OW63505   9.465   3.967   0.222 -0.5890  0.1797  0.6853
17284SOL    HW163506   9.463   4.043   0.286  1.3078  1.4106 -0.6629
17284SOL    HW263507   9.495   3.884   0.269 -0.7655  0.7058  1.7326
17285SOL     OW63508   9.273   3.248   0.840 -0.1672 -0.3525  0.3719
17285SOL    HW163509   9.301   3.152   0.838  1.5088  0.0283  2.8125
17285SOL    HW263510   9.354   3.306   0.847 -1.2838  1.1043  1.5103
17286SOL     OW63511   7.609   6.871   5.686  0.3136  0.1344  0.0235
17286SOL    HW163512   7.525   6.834   5.648 -0.1536 -0.2569  1.3871
17286SOL    HW263513   7.680   6.800   5.687 -0.2822 -0.4745  1.7095
17287SOL     OW63514   2.647   0.581   1.197  0.1572  0.2519  0.1195
17287SOL    HW163515   2.674   0.512   1.264  1.8843  0.4650 -0.3227
17287SOL    HW263516   2.551   0.604   1.209 -1.3963 -4.5840 -1.7936
17288SOL     OW63517   3.235   5.345   6.584 -0.1918  0.2620  0.0646
17288SOL    HW163518   3.301   5.345   6.509  2.4324  0.1018  2.2878
17288SOL    HW263519   3.145   5.371   6.549  0.9124  0.0897 -3.1299
17289SOL     OW63520   3.861   1.580   0.758  0.4829 -0.2399 -0.1484
17289SOL    HW163521   3.939   1.589   0.820  0.2441  0.9770 -0.0088
17289SOL    HW263522   3.892   1.542   0.671  0.7651 -2.3047  0.8151
17290SOL     OW63523   6.312   1.087   6.011  0.1215 -0.4989  0.4230
17290SOL    HW163524   6.329   0.989   6.006 -0.6400 -0.5291 -3.8623
17290SOL    HW263525   6.214   1.103   6.022  0.0219 -0.2452 -0.7536
17291SOL     OW63526   1.339   5.979   2.431 -0.5051  0.0218 -0.1776
17291SOL    HW163527   1.300   6.000   2.342  0.4274  1.0050 -0.3705
17291SOL    HW263528   1.437   6.003   2.431 -0.1853 -1.2287  0.6796
17292SOL     OW63529   3.615   2.414   1.076 -0.1655  0.3854  0.0041
17292SOL    HW163530   3.708   2.424   1.040 -0.8809 -0.3495 -2.1367
17292SOL    HW263531   3.574   2.505   1.087  0.2391  0.6503 -0.6203
17293SOL     OW63532   4.231   7.955   4.130 -0.2138  0.0148 -0.5442
17293SOL    HW163533   4.282   7.903   4.198 -2.1673  0.3620  1.2470
17293SOL    HW263534   4.274   8.045   4.117 -2.5348  1.9528  4.0020
17294SOL     OW63535   1.168   1.427   1.465  0.0532  0.1430  0.0041
17294SOL    HW163536   1.251   1.460   1.511  0.0351  0.2134 -0.0133
17294SOL    HW263537   1.122   1.504   1.421  0.3821 -0.0213 -0.6351
17295SOL     OW63538   2.059   5.395   7.570 -0.0392  0.1780  0.5007
17295SOL    HW163539   2.044   5.301   7.539  0.7151 -0.0004  0.6657
17295SOL    HW263540   1.972   5.444   7.569 -0.7437 -0.9994  2.0285
17296SOL     OW63541   1.669   9.393   1.360  0.0763  0.6448 -0.2698
17296SOL    HW163542   1.764   9.399   1.327  1.3402 -0.5169  2.9817
17296SOL    HW263543   1.611   9.449   1.301  2.7123  1.1650 -2.5205
17297SOL     OW63544   1.939   8.433   4.642 -0.2654  0.4892 -0.0723
17297SOL    HW163545   1.857   8.395   4.686 -0.9122  1.6241 -0.2889
17297SOL    HW263546   1.964   8.375   4.564 -1.1974  0.4541 -0.3510
17298SOL     OW63547   5.067   3.647   7.330  0.3086  0.4868  0.8086
17298SOL    HW163548   5.089   3.652   7.233  1.8373  1.0638  1.1722
17298SOL    HW263549   4.987   3.703   7.349  0.8936  1.5597  0.1273
17299SOL     OW63550   3.955   9.564   4.406  0.1142 -0.2102  0.0885
17299SOL    HW163551   4.031   9.572   4.341  1.1925 -0.7467  1.2756
17299SOL    HW263552   3.991   9.547   4.498 -1.4205  0.1023  0.7624
17300SOL     OW63553   7.834   7.271   5.174 -0.2120 -0.3192  0.1981
17300SOL    HW163554   7.808   7.367   5.173  0.0170 -0.2616 -0.4855
17300SOL    HW263555   7.825   7.235   5.267 -0.0535  0.4274  0.5096
17301SOL     OW63556   2.031   2.602   6.122  0.5282 -0.0037 -0.1735
17301SOL    HW163557   1.970   2.534   6.082 -0.4041  0.1944  0.8845
17301SOL    HW263558   2.126   2.573   6.112  0.1148 -1.7625  0.7947
17302SOL     OW63559   9.424   1.622   5.359  0.6267  0.0674  0.6074
17302SOL    HW163560   9.374   1.703   5.388 -0.8569 -0.3766 -0.6511
17302SOL    HW263561   9.409   1.548   5.425  0.4594  0.2420  0.7648
17303SOL     OW63562   9.710   5.646   3.859  0.2587 -0.5487 -0.2760
17303SOL    HW163563   9.682   5.619   3.767 -1.4227  0.1847  0.0023
17303SOL    HW263564   9.697   5.570   3.922 -2.1779  0.1028  0.0502
17304SOL     OW63565   2.638   4.632   4.156  0.0092 -0.4444 -0.0640
17304SOL    HW163566   2.674   4.616   4.248  1.4452  1.0606 -0.3456
17304SOL    HW263567   2.616   4.729   4.145 -1.2477 -0.8154 -0.9325
17305SOL     OW63568   3.686   1.788   0.147  0.4629 -0.0058  0.4457
17305SOL    HW163569   3.609   1.725   0.156 -0.3620  0.8313 -0.5819
17305SOL    HW263570   3.772   1.738   0.155 -0.1544 -0.6678  3.6171
17306SOL     OW63571   7.575   2.176   5.793 -0.1506  0.6249 -0.0761
17306SOL    HW163572   7.640   2.203   5.722  0.7863 -1.4553 -0.0345
17306SOL    HW263573   7.561   2.253   5.856  1.5701  1.3938 -0.5970
17307SOL     OW63574   8.802   0.163   2.909 -0.2520 -0.1593 -0.4591
17307SOL    HW163575   8.754   0.078   2.891  1.3460 -1.6292  1.9369
17307SOL    HW263576   8.746   0.221   2.968  0.3449 -1.3676  1.3534
17308SOL     OW63577   1.142   8.535   5.363 -0.3727 -0.3571  0.0974
17308SOL    HW163578   1.167   8.501   5.453  0.5631  2.0946  0.7724
17308SOL    HW263579   1.055   8.493   5.334 -1.1935 -0.3868  2.5479
17309SOL     OW63580   8.200   8.492   7.275 -0.1655 -0.5590  0.0816
17309SOL    HW163581   8.293   8.522   7.256 -0.0855 -1.3323 -0.8086
17309SOL    HW263582   8.201   8.423   7.347 -0.0875 -0.3480  0.2847
17310SOL     OW63583   4.381   1.471   5.762 -0.6759  0.1840 -0.0811
17310SOL    HW163584   4.399   1.421   5.677  0.2339 -0.7902  0.6688
17310SOL    HW263585   4.285   1.501   5.763 -0.8275 -0.2177 -1.2267
17311SOL     OW63586   8.262   7.058   3.288 -0.0371 -0.0705 -0.4719
17311SOL    HW163587   8.230   7.008   3.368  0.3690 -1.0176 -0.8957
17311SOL    HW263588   8.343   7.013   3.250  1.0424  1.5718 -0.1798
17312SOL     OW63589   0.904   8.834   8.123 -0.4709 -0.1952 -0.4281
17312SOL    HW163590   0.966   8.800   8.194 -1.8459  0.5405  1.1603
17312SOL    HW263591   0.926   8.790   8.036  0.6120 -1.8553  0.6498
17313SOL     OW63592   1.252   2.632   6.282 -0.3114 -0.8214 -0.1175
17313SOL    HW163593   1.231   2.535   6.282  0.1382 -0.9376 -1.9877
17313SOL    HW263594   1.196   2.678   6.213 -1.9299  0.5755  2.0835
17314SOL     OW63595   1.812   7.507   4.844 -0.3261 -0.0153  0.1861
17314SOL    HW163596   1.821   7.408   4.855 -1.6127 -0.2044 -0.3302
17314SOL    HW263597   1.725   7.537   4.883 -2.1959  0.1882 -3.7972
17315SOL     OW63598   2.888   3.315   7.893 -0.6002  0.6032  0.7221
17315SOL    HW163599   2.832   3.232   7.896  0.2505  0.0196  0.4906
17315SOL    HW263600   2.829   3.394   7.874 -1.2298 -0.1166 -0.3526
17316SOL     OW63601   7.607   7.909   6.952  0.0745  0.4203 -0.0613
17316SOL    HW163602   7.514   7.935   6.927  0.5716  1.1649 -1.2141
17316SOL    HW263603   7.623   7.814   6.928 -0.9673 -0.2597  1.8606
17317SOL     OW63604   0.896   8.100   4.127 -0.3431 -0.0997  0.3812
17317SOL    HW163605   0.923   8.162   4.053 -0.8088 -1.3624 -0.8700
17317SOL    HW263606   0.920   8.006   4.102  0.0725 -0.4833  2.1229
17318SOL     OW63607   9.576   5.714   6.427 -0.8754  0.0293 -0.1601
17318SOL    HW163608   9.500   5.776   6.408 -0.9001 -0.2734 -1.0636
17318SOL    HW263609   9.553   5.657   6.506 -0.9567  0.9784  0.5197
17319SOL     OW63610   8.490   1.228   4.369  0.9475  0.0366  0.1116
17319SOL    HW163611   8.452   1.315   4.400 -0.2388 -0.1519 -0.7441
17319SOL    HW263612   8.506   1.233   4.270  0.3514 -0.8940 -0.0377
17320SOL     OW63613   6.969   6.329   5.866 -0.2017  0.2069 -1.1010
17320SOL    HW163614   7.067   6.309   5.864  0.0810  1.2675  0.6848
17320SOL    HW263615   6.950   6.390   5.943 -2.2554  0.0874 -1.5042
17321SOL     OW63616   9.997   1.086   6.960 -0.2518 -0.4595  0.5516
17321SOL    HW163617  10.010   1.044   7.050  0.6637  0.4291  0.8461
17321SOL    HW263618   9.909   1.134   6.959  0.4247  0.8427  1.5173
17322SOL     OW63619   3.998   1.870   2.221 -0.3725  0.0001  0.0714
17322SOL    HW163620   4.074   1.843   2.279 -0.6694 -0.8074  0.0874
17322SOL    HW263621   3.968   1.792   2.166 -1.3130  0.2560  0.2044
17323SOL     OW63622   1.524   7.446   5.891  0.0254  1.0029 -0.0641
17323SOL    HW163623   1.623   7.432   5.892  0.1163  1.6439  0.7592
17323SOL    HW263624   1.505   7.544   5.887 -0.5508  1.0994  3.4799
17324SOL     OW63625   2.921   8.119   6.533  0.3339  0.2829 -0.1083
17324SOL    HW163626   2.823   8.137   6.530  0.3801  0.6120  0.3611
17324SOL    HW263627   2.936   8.020   6.541  0.0236  0.2943  0.6548
17325SOL     OW63628   3.292   1.838   8.180  0.4991  0.2471 -0.1236
17325SOL    HW163629   3.383   1.880   8.181  1.2838 -1.3907 -0.8008
17325SOL    HW263630   3.273   1.799   8.270 -0.1314  1.8268  0.4347
17326SOL     OW63631   4.325   1.046   3.092 -0.0141  0.5182 -0.0164
17326SOL    HW163632   4.267   1.072   3.015 -0.3797 -1.8974 -0.5778
17326SOL    HW263633   4.387   0.973   3.064  2.1818  1.8896  1.0531
17327SOL     OW63634   2.590   6.409   1.702  0.5496 -0.5294 -0.2114
17327SOL    HW163635   2.550   6.332   1.652  0.6685  1.1331 -2.9892
17327SOL    HW263636   2.682   6.385   1.733  0.2311 -1.8057 -0.2316
17328SOL     OW63637   7.898   0.736   0.508 -0.4814 -0.0833 -0.1141
17328SOL    HW163638   7.862   0.658   0.457  1.1545  0.6013 -2.3673
17328SOL    HW263639   7.823   0.798   0.532 -1.2176 -0.1534 -2.1455
17329SOL     OW63640   5.614   2.631   0.316  0.1912 -0.0033 -0.2852
17329SOL    HW163641   5.563   2.563   0.367  0.5977 -0.1681 -0.0972
17329SOL    HW263642   5.695   2.658   0.368 -0.9293  1.9749  0.4762
17330SOL     OW63643   0.950   4.423   2.877 -0.1065 -0.7811  0.2906
17330SOL    HW163644   1.004   4.383   2.802 -1.6438 -0.3553 -1.0666
17330SOL    HW263645   0.998   4.408   2.963  1.7989 -1.1158 -0.7894
17331SOL     OW63646   1.746   2.119   4.096 -0.8157 -0.0439  0.2749
17331SOL    HW163647   1.677   2.155   4.158 -1.0956  0.7823 -0.5076
17331SOL    HW263648   1.703   2.057   4.030 -0.7704  0.3176 -0.0899
17332SOL     OW63649   5.507   7.655   3.076 -0.2097 -0.2175 -0.2412
17332SOL    HW163650   5.604   7.640   3.095 -0.1442 -0.3176 -0.6586
17332SOL    HW263651   5.454   7.632   3.158  0.1838  0.6697  0.2713
17333SOL     OW63652   0.898   3.992   0.628 -0.8444  0.3306 -0.7807
17333SOL    HW163653   0.848   4.006   0.543 -0.8873 -0.9948 -0.9816
17333SOL    HW263654   0.891   3.897   0.656  0.4834  0.4107 -0.1196
17334SOL     OW63655   7.807   6.396   4.281  0.3284  0.2811 -0.1641
17334SOL    HW163656   7.789   6.304   4.246  1.7118 -0.1760  0.2729
17334SOL    HW263657   7.906   6.411   4.284  0.1391  1.3523  0.8489
17335SOL     OW63658   3.432   6.693   2.773 -0.4723 -0.9476  0.4930
17335SOL    HW163659   3.365   6.764   2.794  0.6791  0.3765 -0.3016
17335SOL    HW263660   3.473   6.660   2.858  1.6802  1.9736  0.6359
17336SOL     OW63661   1.360   0.449   0.078 -0.4467 -0.0213  0.0246
17336SOL    HW163662   1.372   0.453  -0.021 -1.4281 -0.9402 -0.1452
17336SOL    HW263663   1.449   0.455   0.123  0.4435 -3.8110 -1.0553
17337SOL     OW63664   1.698   8.265   2.668 -0.0251 -0.3320 -0.2153
17337SOL    HW163665   1.603   8.297   2.677  0.2118  0.4324 -0.3705
17337SOL    HW263666   1.748   8.285   2.752 -0.2555 -1.6355  0.2445
17338SOL     OW63667   3.559   4.005   0.613  0.1663 -0.3609  0.0687
17338SOL    HW163668   3.529   4.096   0.584 -0.0817 -0.5250 -0.1812
17338SOL    HW263669   3.486   3.960   0.664  0.4580 -0.2302  0.6178
17339SOL     OW63670   0.085   2.253   8.178 -0.9840  0.4744 -0.0638
17339SOL    HW163671   0.170   2.214   8.215 -1.3763 -1.6888 -1.3304
17339SOL    HW263672   0.083   2.351   8.195  0.1478  0.0202  3.1082
17340SOL     OW63673   4.430   8.952   5.403  0.2175 -0.8376  0.0526
17340SOL    HW163674   4.455   9.048   5.408  0.9661 -1.0313  0.1543
17340SOL    HW263675   4.389   8.923   5.490 -0.0165 -0.6111  0.0175
17341SOL     OW63676   3.325   5.486   0.867 -0.0287 -0.2429  0.0802
17341SOL    HW163677   3.411   5.456   0.827  0.6633 -0.7952  1.9318
17341SOL    HW263678   3.254   5.418   0.850 -0.4882  0.8830 -2.7040
17342SOL     OW63679   7.617   0.816   0.085 -0.4185 -0.3136  0.2234
17342SOL    HW163680   7.530   0.818   0.035 -0.6927 -2.1205  0.5971
17342SOL    HW263681   7.672   0.896   0.059 -2.2707  0.9650  0.1529
17343SOL     OW63682   3.623   9.683   5.079 -0.0090  0.0027  0.0872
17343SOL    HW163683   3.692   9.742   5.121  1.6068 -1.7398 -0.0129
17343SOL    HW263684   3.667   9.598   5.047 -2.1728 -1.0621 -0.1611
17344SOL     OW63685   9.025   4.981   4.377 -0.2701 -0.6272  0.2316
17344SOL    HW163686   9.082   4.938   4.446 -0.3388 -0.5323  0.3464
17344SOL    HW263687   9.011   5.078   4.399 -0.1741 -0.5601  0.0108
17345SOL     OW63688   6.262   4.422   0.462  0.4807  0.2800  0.1829
17345SOL    HW163689   6.218   4.339   0.429 -1.1102  0.5796  1.4838
17345SOL    HW263690   6.360   4.419   0.440  0.2634 -1.4733 -0.6333
17346SOL     OW63691   4.605   0.057   5.925  0.3436 -0.0303 -0.3634
17346SOL    HW163692   4.593  -0.042   5.928 -0.2081  0.0800  1.7300
17346SOL    HW263693   4.695   0.079   5.888  0.3183 -1.2847 -1.1957
17347SOL     OW63694   8.790   2.409   4.656 -0.9112 -0.2891 -0.3584
17347SOL    HW163695   8.730   2.330   4.671 -0.2577 -0.7886 -0.3686
17347SOL    HW263696   8.745   2.492   4.689 -0.8846 -0.9109  1.2469
17348SOL     OW63697   8.423   9.092   6.153 -0.2197 -0.1616 -0.1609
17348SOL    HW163698   8.394   9.045   6.235  0.2040  0.2764  0.2438
17348SOL    HW263699   8.357   9.075   6.079 -1.8941  1.4062  0.9434
17349SOL     OW63700   2.832   9.644   7.599 -0.0181  0.4083  0.2632
17349SOL    HW163701   2.871   9.683   7.515  0.2172  0.1611  0.2602
17349SOL    HW263702   2.842   9.545   7.598 -2.1414  0.1587 -0.5187
17350SOL     OW63703   9.076   9.464   2.356 -0.0524 -0.0782  0.4205
17350SOL    HW163704   9.096   9.395   2.426 -2.2344 -1.8901 -0.6798
17350SOL    HW263705   9.155   9.524   2.345  1.6930 -2.0349  1.8211
17351SOL     OW63706   9.025   8.956   3.542 -0.1044  0.1728  0.2755
17351SOL    HW163707   9.005   8.866   3.581 -0.8093  0.1283 -0.1682
17351SOL    HW263708   9.019   8.951   3.442  0.6353  0.5286  0.2166
17352SOL     OW63709   1.736   3.361   1.215 -0.0999  0.4852  0.7616
17352SOL    HW163710   1.681   3.325   1.291 -0.2807 -0.6906  0.0906
17352SOL    HW263711   1.826   3.317   1.215  0.5425  1.7619  1.3284
17353SOL     OW63712   3.488   9.267   7.689 -0.3282 -0.0798  0.1660
17353SOL    HW163713   3.449   9.190   7.641 -1.1329  0.2171  0.3377
17353SOL    HW263714   3.469   9.352   7.639 -0.6473  0.1621  0.6860
17354SOL     OW63715   4.642   7.153   2.166  0.3459 -0.4585 -0.4778
17354SOL    HW163716   4.592   7.239   2.152  1.1456  0.1481  0.3032
17354SOL    HW263717   4.731   7.173   2.208  1.1047 -1.5456 -1.5284
17355SOL     OW63718   3.697   7.976   2.267  0.0907 -0.1092  0.4263
17355SOL    HW163719   3.657   8.067   2.275 -0.1624 -0.1577 -0.2347
17355SOL    HW263720   3.789   7.976   2.307 -0.1639  0.2674  1.0173
17356SOL     OW63721   5.138   0.428   3.659 -0.4670 -0.4320 -0.5026
17356SOL    HW163722   5.158   0.364   3.733 -0.3803 -1.9610 -1.8252
17356SOL    HW263723   5.049   0.470   3.674 -0.0294 -0.0081  0.9652
17357SOL     OW63724   8.959   2.609   7.017 -0.6590  0.4863 -0.2731
17357SOL    HW163725   8.879   2.603   6.957 -1.3349  1.4256  0.5350
17357SOL    HW263726   8.931   2.600   7.112  0.3615 -0.4570 -0.0454
17358SOL     OW63727   8.102   6.832   6.493  0.3589 -0.1470 -0.4507
17358SOL    HW163728   8.041   6.911   6.482  1.5740  1.0453  1.0536
17358SOL    HW263729   8.049   6.752   6.520 -0.6893  0.6064 -0.2438
17359SOL     OW63730   5.537   5.386   0.940  0.7669  0.3564  0.2111
17359SOL    HW163731   5.577   5.386   0.849 -0.3579  1.1622 -0.3027
17359SOL    HW263732   5.583   5.318   0.998  0.6334 -1.0847 -1.3430
17360SOL     OW63733   8.861   4.165   6.595  0.0936 -0.3570 -0.3888
17360SOL    HW163734   8.872   4.066   6.594 -3.1812 -0.7670  0.1081
17360SOL    HW263735   8.803   4.192   6.671 -0.7626  1.7445 -1.7179
17361SOL     OW63736   2.309   9.348   2.519 -0.1083  0.1374  0.1321
17361SOL    HW163737   2.248   9.290   2.465 -0.6661  1.4742 -0.7228
17361SOL    HW263738   2.381   9.384   2.460 -0.4250  1.2029  0.3804
17362SOL     OW63739   4.060   0.485   0.376 -0.4448 -0.3486  0.0797
17362SOL    HW163740   3.984   0.508   0.316 -1.0411 -0.7373  0.6785
17362SOL    HW263741   4.055   0.540   0.459  0.1536 -0.0904 -0.0547
17363SOL     OW63742   1.074   0.963   5.432  0.5267  0.2816 -0.5174
17363SOL    HW163743   1.008   0.975   5.507  0.1094  0.6212 -0.9357
17363SOL    HW263744   1.127   1.048   5.421  2.1441 -0.5045  0.8591
17364SOL     OW63745   3.414   2.484   0.253  0.0357  0.4186  0.4946
17364SOL    HW163746   3.385   2.429   0.175 -1.3951 -0.4677  1.6249
17364SOL    HW263747   3.342   2.483   0.323  1.6126  0.5937  2.1392
17365SOL     OW63748   1.576   8.037   3.922 -0.3093  0.2848  0.3377
17365SOL    HW163749   1.621   8.065   3.837 -0.9932  0.8666  0.1622
17365SOL    HW263750   1.565   8.116   3.982  1.2426 -0.3438  1.4834
17366SOL     OW63751   9.724   0.408   2.563 -0.2763 -0.3917 -1.2220
17366SOL    HW163752   9.802   0.423   2.623 -1.6997 -0.8336  0.8076
17366SOL    HW263753   9.678   0.495   2.545 -1.3558 -0.5762  0.4972
17367SOL     OW63754   9.896   9.693   5.987 -0.5856  0.2514 -0.1415
17367SOL    HW163755   9.876   9.715   6.082 -2.7781 -1.7411 -0.0879
17367SOL    HW263756   9.836   9.745   5.927 -0.0799  0.5580 -0.3893
17368SOL     OW63757   8.205   6.568   4.052  0.2196  0.3028 -0.0244
17368SOL    HW163758   8.201   6.544   3.955  1.7876  0.5707 -0.1563
17368SOL    HW263759   8.134   6.518   4.101  0.0384 -0.5654 -1.1476
17369SOL     OW63760   8.182   7.076   5.154  0.2723  0.3144 -0.3202
17369SOL    HW163761   8.169   7.115   5.245  0.2331 -1.6553  0.5213
17369SOL    HW263762   8.265   7.115   5.113  0.4601  0.9674  0.6693
17370SOL     OW63763   4.591   8.201   3.790  0.0832 -0.2889  0.0351
17370SOL    HW163764   4.638   8.243   3.712 -2.1203 -1.1783 -1.8473
17370SOL    HW263765   4.556   8.273   3.850 -1.9502  0.6407 -2.1336
17371SOL     OW63766   8.659   5.526   7.255  0.4711  0.0888 -0.1742
17371SOL    HW163767   8.607   5.517   7.169  0.3036  0.5593 -0.1257
17371SOL    HW263768   8.739   5.584   7.239  0.5326  0.0363 -0.0518
17372SOL     OW63769   3.339   0.394   0.946 -0.4622  0.0151  0.3982
17372SOL    HW163770   3.293   0.472   0.903  1.3132  1.6803  1.4836
17372SOL    HW263771   3.278   0.354   1.015 -1.6517 -0.0160 -0.6509
17373SOL     OW63772   4.273   2.742   5.480 -0.0767  0.1178  0.1101
17373SOL    HW163773   4.199   2.678   5.460  1.4710 -1.9229  0.8101
17373SOL    HW263774   4.319   2.768   5.395 -0.0016 -0.5775 -0.0666
17374SOL     OW63775   4.119   1.762   4.076 -0.1628  0.3866 -0.0289
17374SOL    HW163776   4.177   1.843   4.071  0.5490 -0.1171  0.0005
17374SOL    HW263777   4.174   1.684   4.104 -0.9427 -0.0153  0.3748
17375SOL     OW63778   5.182   2.097   0.038  0.4976 -0.0050  0.0902
17375SOL    HW163779   5.185   2.063   0.133  0.2099  2.1400  0.8912
17375SOL    HW263780   5.215   2.026  -0.023 -2.4872 -2.6949  1.4486
17376SOL     OW63781   5.980   5.702   7.938 -0.2907 -0.0695 -0.1388
17376SOL    HW163782   6.028   5.674   8.021  0.2673  1.3274  0.0301
17376SOL    HW263783   5.958   5.799   7.944  0.0068  0.1116 -1.7517
17377SOL     OW63784   3.446   3.302   1.018  0.1555  0.5788 -0.5172
17377SOL    HW163785   3.365   3.340   1.062  0.3479  0.1505  0.2066
17377SOL    HW263786   3.522   3.366   1.028 -0.8774  2.5183 -4.0183
17378SOL     OW63787   9.447   3.363   4.243  0.3476  0.1695  0.7584
17378SOL    HW163788   9.544   3.354   4.221  0.0076 -0.7148 -0.4460
17378SOL    HW263789   9.402   3.275   4.231 -0.2700  0.1400  3.0939
17379SOL     OW63790   4.852   2.352   7.114 -0.2789 -0.2249 -1.0730
17379SOL    HW163791   4.819   2.388   7.202  2.2788 -3.2119  1.2238
17379SOL    HW263792   4.917   2.416   7.074  0.0741  0.2436  0.2309
17380SOL     OW63793   9.899   7.061   5.308  0.4832 -0.1522  0.2569
17380SOL    HW163794   9.899   6.987   5.242 -0.2390  0.6125 -0.6247
17380SOL    HW263795   9.824   7.048   5.373  1.1263 -0.8450  0.8611
17381SOL     OW63796   8.594   6.281   5.383  0.0404 -0.1579 -0.1564
17381SOL    HW163797   8.644   6.209   5.335 -0.6563  0.1607 -1.3860
17381SOL    HW263798   8.611   6.274   5.481  1.5855 -0.7484 -0.4542
17382SOL     OW63799   8.050   6.184   0.091  0.3096 -0.4846  0.3185
17382SOL    HW163800   7.951   6.183   0.103  0.2106 -1.4713 -0.4854
17382SOL    HW263801   8.071   6.198  -0.006  0.9571 -0.0810  0.5174
17383SOL     OW63802   9.600   3.785   0.357 -0.4823 -0.0765  0.1617
17383SOL    HW163803   9.544   3.707   0.327 -0.9496  0.6680 -0.9334
17383SOL    HW263804   9.606   3.785   0.456 -2.4149 -0.1892  0.2973
17384SOL     OW63805   0.608   1.216   1.468 -0.1441  0.1905  1.2593
17384SOL    HW163806   0.568   1.294   1.419 -1.6589  1.3703  4.2587
17384SOL    HW263807   0.687   1.246   1.521 -1.1215 -0.1189  2.9456
17385SOL     OW63808   4.979   0.971   4.879  0.1498  0.3170 -0.1474
17385SOL    HW163809   5.024   1.057   4.856 -0.1119  0.6071  0.4376
17385SOL    HW263810   4.997   0.904   4.806  1.7133  0.3640  0.1787
17386SOL     OW63811   2.623   0.324   0.213 -0.4114  0.0754  0.0254
17386SOL    HW163812   2.686   0.345   0.138 -1.2971 -0.6368 -0.9430
17386SOL    HW263813   2.641   0.232   0.246 -0.1186  0.3362  0.5858
17387SOL     OW63814   0.269   5.341   1.025 -0.1488  0.0904  0.4055
17387SOL    HW163815   0.343   5.279   0.999 -0.4062  0.1007 -0.3856
17387SOL    HW263816   0.211   5.297   1.094  0.2702 -0.1401  0.6110
17388SOL     OW63817   8.649   6.288   0.983 -0.4699 -0.1137  0.6693
17388SOL    HW163818   8.698   6.374   0.973 -0.7548 -0.1650 -1.4245
17388SOL    HW263819   8.560   6.296   0.938 -1.3473 -0.8584  2.2147
17389SOL     OW63820   7.229   1.089   0.478  0.1104 -0.2223 -0.0117
17389SOL    HW163821   7.291   1.063   0.552  0.2544 -1.1699 -0.4650
17389SOL    HW263822   7.143   1.123   0.517  0.4996  0.0630  0.5996
17390SOL     OW63823   9.092   9.249   4.291 -0.0042 -0.1917  0.0534
17390SOL    HW163824   9.095   9.325   4.226  1.5789  0.6710  1.0822
17390SOL    HW263825   9.154   9.177   4.261  1.6252  0.7113  1.1754
17391SOL     OW63826   8.093   7.388   4.244  0.2797 -0.0087 -0.1324
17391SOL    HW163827   8.020   7.417   4.182 -1.4910 -2.9200  0.4769
17391SOL    HW263828   8.056   7.381   4.337  1.6534 -0.3931  0.3896
17392SOL     OW63829   1.511   9.862   2.786  0.3330 -0.8811 -0.2859
17392SOL    HW163830   1.474   9.948   2.750  2.3483  0.0989 -0.0873
17392SOL    HW263831   1.571   9.821   2.719  2.4092 -0.1508  1.0827
17393SOL     OW63832   8.258   5.623   7.391  0.1606  0.1092  0.0976
17393SOL    HW163833   8.288   5.528   7.391  0.9595  0.3554 -0.5943
17393SOL    HW263834   8.190   5.637   7.319 -2.0380 -0.5628  1.9828
17394SOL     OW63835   7.386   3.497   3.704  0.2429 -0.0285 -0.3179
17394SOL    HW163836   7.372   3.402   3.675 -0.2388  0.3128 -1.2355
17394SOL    HW263837   7.473   3.531   3.669  0.1733  0.0295 -0.4363
17395SOL     OW63838   5.530   2.645   1.505 -0.4446  0.2807 -0.0194
17395SOL    HW163839   5.557   2.551   1.488  0.6903  0.2418  1.8401
17395SOL    HW263840   5.430   2.653   1.499 -0.4894 -0.9101 -0.7793
17396SOL     OW63841   6.366   0.234   4.413  0.2971  0.3209  0.4992
17396SOL    HW163842   6.412   0.247   4.501  0.9606  1.2646  0.0279
17396SOL    HW263843   6.418   0.281   4.342 -0.1418 -0.5764 -0.4286
17397SOL     OW63844   2.157   6.896   0.712  0.0280 -0.1579 -0.3246
17397SOL    HW163845   2.150   6.914   0.614 -1.6504  0.5448 -0.0950
17397SOL    HW263846   2.252   6.876   0.736  0.5983  0.5665 -1.9394
17398SOL     OW63847   7.401   4.117   3.309 -0.1483 -0.0202 -0.2477
17398SOL    HW163848   7.453   4.140   3.227 -0.4900 -1.0440 -0.7594
17398SOL    HW263849   7.398   4.018   3.320 -1.0213  0.0702  0.4044
17399SOL     OW63850   1.320   1.321   2.465 -0.0090  0.0421 -0.3005
17399SOL    HW163851   1.304   1.414   2.431 -0.2551  0.8283  1.9241
17399SOL    HW263852   1.351   1.325   2.560 -1.5341 -2.2169  0.3271
17400SOL     OW63853   7.545   2.351   6.005 -0.1176 -0.2127 -0.3123
17400SOL    HW163854   7.621   2.416   6.009 -0.2789 -0.1075  1.8733
17400SOL    HW263855   7.555   2.284   6.078 -1.3266 -1.1147 -0.9527
17401SOL     OW63856   5.986   1.836   5.357 -0.3985  0.7633  0.0322
17401SOL    HW163857   6.018   1.744   5.332 -1.2419  0.3655  0.3846
17401SOL    HW263858   5.895   1.851   5.317 -1.1340  0.6658  1.6407
17402SOL     OW63859   1.894   7.081   1.242  0.0314  0.2954 -0.8219
17402SOL    HW163860   1.856   7.058   1.152  0.0928 -0.0068 -0.7694
17402SOL    HW263861   1.836   7.045   1.314  0.6436 -0.5407 -0.7430
17403SOL     OW63862   8.897   6.308   2.618 -0.0413  0.2911  0.6627
17403SOL    HW163863   8.848   6.221   2.630  1.1437 -0.6092 -0.9138
17403SOL    HW263864   8.982   6.306   2.671  1.8011 -0.9811 -2.2667
17404SOL     OW63865   3.229   2.477   1.054  0.6323  0.0835 -0.3064
17404SOL    HW163866   3.319   2.469   1.097 -0.3271 -0.0660  1.7427
17404SOL    HW263867   3.182   2.389   1.058 -0.3082  0.5959  0.2958
17405SOL     OW63868   0.645   5.490   2.127 -0.0629  0.6860 -0.2753
17405SOL    HW163869   0.643   5.584   2.160 -0.2254  0.5481  0.1098
17405SOL    HW263870   0.698   5.433   2.190 -0.1636  0.4731 -0.3810
17406SOL     OW63871   1.698   4.704   3.882 -0.2765 -0.5095  0.2737
17406SOL    HW163872   1.688   4.605   3.869  1.5125 -0.5588 -0.9408
17406SOL    HW263873   1.634   4.735   3.952 -2.4258 -2.1429 -0.9108
17407SOL     OW63874   1.898   5.905   4.799 -0.8544 -0.5179 -0.0059
17407SOL    HW163875   1.840   5.980   4.830 -0.5140  0.0641 -0.7683
17407SOL    HW263876   1.844   5.845   4.739 -1.3329 -1.2949  1.1902
17408SOL     OW63877   9.200   2.839   2.610  0.7135 -0.4658 -0.4456
17408SOL    HW163878   9.277   2.784   2.644  0.2552 -0.3388  0.7979
17408SOL    HW263879   9.174   2.906   2.679 -0.3745 -0.3605 -0.9594
17409SOL     OW63880   0.390   6.693   5.397 -0.4798 -0.2299  0.2439
17409SOL    HW163881   0.396   6.754   5.476  0.0248  2.7859 -2.0546
17409SOL    HW263882   0.473   6.638   5.390  0.5388  1.2820  0.3850
17410SOL     OW63883   2.567   3.765   1.905  0.5270  0.1634  0.3274
17410SOL    HW163884   2.598   3.803   1.992 -0.4242  0.9442  0.3404
17410SOL    HW263885   2.546   3.840   1.842  0.2414 -0.3746 -0.2213
17411SOL     OW63886   3.304   9.699   2.151 -0.1404 -0.2326  0.4856
17411SOL    HW163887   3.223   9.691   2.093 -0.3473  1.4844  0.5331
17411SOL    HW263888   3.363   9.772   2.116  0.9260 -0.8305  1.0085
17412SOL     OW63889   5.865   2.661   1.103 -0.2373  0.3735 -0.0053
17412SOL    HW163890   5.881   2.568   1.070 -1.7072  0.0144  0.2536
17412SOL    HW263891   5.905   2.672   1.194 -3.1935 -1.1776  1.5617
17413SOL     OW63892   0.086   2.259   6.745 -0.2462 -0.4664 -0.0886
17413SOL    HW163893   0.091   2.329   6.816 -1.1531 -2.2967  1.8411
17413SOL    HW263894  -0.009   2.247   6.716 -0.0436 -0.6151 -0.6991
17414SOL     OW63895   8.599   4.779   5.476  0.0122  0.2378  0.0037
17414SOL    HW163896   8.536   4.772   5.399 -0.5869 -4.2189  0.7659
17414SOL    HW263897   8.592   4.870   5.516 -1.7993  1.6903 -3.3645
17415SOL     OW63898   8.323   2.678   0.378 -0.6333 -0.1906 -0.0516
17415SOL    HW163899   8.262   2.602   0.357  0.9737 -1.5219 -0.0197
17415SOL    HW263900   8.405   2.672   0.321 -0.4621  1.4801 -0.0004
17416SOL     OW63901   9.313   1.122   5.852  0.4563 -0.1217  0.5019
17416SOL    HW163902   9.257   1.193   5.809  0.4943 -1.4452 -1.8682
17416SOL    HW263903   9.399   1.162   5.885 -0.5817  1.3670  1.4501
17417SOL     OW63904   8.212   6.261   1.396  0.5199  0.2057  0.7090
17417SOL    HW163905   8.172   6.211   1.318 -0.5974  0.1932  1.2783
17417SOL    HW263906   8.310   6.243   1.400  0.7612  0.9605 -1.2701
17418SOL     OW63907   4.479   0.054   1.861 -0.0070 -0.0326  0.6725
17418SOL    HW163908   4.498   0.067   1.959  0.5417 -0.0951  0.5745
17418SOL    HW263909   4.493   0.140   1.812 -2.1140  0.4915  0.9278
17419SOL     OW63910   3.768   1.638   7.562  0.1896  0.3085 -0.3811
17419SOL    HW163911   3.801   1.691   7.640  1.6984 -0.8381 -0.2160
17419SOL    HW263912   3.764   1.696   7.481  3.0651  0.4126 -0.5009
17420SOL     OW63913   8.199   8.189   1.996 -0.2796 -0.3323  0.3912
17420SOL    HW163914   8.192   8.267   2.060  0.1701  0.0223  0.0087
17420SOL    HW263915   8.225   8.107   2.047 -2.1585 -0.5711  1.0427
17421SOL     OW63916   3.137   1.042   6.598 -0.4302 -0.4226  0.1256
17421SOL    HW163917   3.147   0.942   6.599 -0.8786 -0.4698 -0.0563
17421SOL    HW263918   3.047   1.066   6.563 -1.1475 -0.0229  2.1631
17422SOL     OW63919   8.258   7.529   4.711 -0.3568 -0.3157  0.0718
17422SOL    HW163920   8.163   7.535   4.741 -0.6786  3.7415 -1.5496
17422SOL    HW263921   8.261   7.492   4.618 -0.3330 -0.2069  0.0304
17423SOL     OW63922   9.471   1.067   3.814 -0.0895 -0.5448 -0.2149
17423SOL    HW163923   9.528   1.137   3.771  0.1613 -1.1307 -0.8499
17423SOL    HW263924   9.500   0.976   3.782 -0.4129 -0.9392  0.5959
17424SOL     OW63925   0.077   8.091   6.033 -0.5664 -0.3392 -1.0416
17424SOL    HW163926   0.020   8.022   6.076  0.6324 -0.7034 -0.0104
17424SOL    HW263927   0.171   8.057   6.024  0.1455  1.2644 -0.1288
17425SOL     OW63928   0.844   0.407   1.567  0.0084  0.1668 -0.3239
17425SOL    HW163929   0.837   0.501   1.600 -0.0785  0.1404 -0.2673
17425SOL    HW263930   0.795   0.346   1.629 -0.6642  0.1934 -0.8135
17426SOL     OW63931   8.949   6.878   5.775  0.0872  0.2664  0.1774
17426SOL    HW163932   8.959   6.871   5.875  1.3985  1.1568  0.1331
17426SOL    HW263933   8.855   6.859   5.749  0.3048 -2.6181  1.3335
17427SOL     OW63934   9.575   1.656   3.090  0.0620  0.4798  0.8019
17427SOL    HW163935   9.478   1.634   3.078 -0.0821  1.4353  0.1877
17427SOL    HW263936   9.627   1.571   3.106 -0.5633 -0.2747 -1.0309
17428SOL     OW63937   7.031   2.177   1.766  0.3787 -0.6857 -0.5409
17428SOL    HW163938   6.934   2.198   1.764  0.5909  0.3430 -0.0306
17428SOL    HW263939   7.048   2.094   1.711 -0.8410 -1.1752 -0.1934
17429SOL     OW63940   9.865   3.595   3.658  0.3574  0.5823  0.0653
17429SOL    HW163941   9.850   3.508   3.612  1.2876  1.1594 -1.3797
17429SOL    HW263942   9.778   3.632   3.690 -0.5725  1.0102 -2.8239
17430SOL     OW63943   0.823   1.981   6.994 -0.0727  0.5859  0.0176
17430SOL    HW163944   0.852   2.029   7.078 -0.5247  1.3405 -0.2500
17430SOL    HW263945   0.790   1.890   7.018  0.0553  0.6968  0.6384
17431SOL     OW63946   5.904   4.265   1.666  0.3706  0.1211 -0.0204
17431SOL    HW163947   5.829   4.303   1.612 -1.2756 -0.5206  1.7462
17431SOL    HW263948   5.983   4.326   1.663  0.0819  0.4006 -2.5880
17432SOL     OW63949   8.233   9.592   5.287  0.1936 -0.5302  0.6237
17432SOL    HW163950   8.332   9.606   5.287 -0.2794  3.3341  0.4835
17432SOL    HW263951   8.206   9.550   5.373  2.0618 -2.7208  0.1921
17433SOL     OW63952   5.092   4.367   0.994  0.0433  1.0459  0.0759
17433SOL    HW163953   5.010   4.315   1.018  1.4142 -1.3548 -0.3218
17433SOL    HW263954   5.089   4.390   0.896  0.0900  0.5430 -0.0412
17434SOL     OW63955   9.114   6.741   7.361  0.4004  0.2631  0.3159
17434SOL    HW163956   9.146   6.815   7.302 -1.6587 -0.3766 -1.6535
17434SOL    HW263957   9.109   6.656   7.308  1.3413 -0.9932  2.1801
17435SOL     OW63958   1.110   4.056   8.015  0.3258 -0.0008 -0.0672
17435SOL    HW163959   1.052   3.999   8.073 -0.0951  0.0584 -0.4289
17435SOL    HW263960   1.052   4.115   7.958  0.7275 -0.2222 -0.7151
17436SOL     OW63961   0.655   0.054   4.878  0.5977 -0.3366 -0.4982
17436SOL    HW163962   0.694   0.025   4.791 -0.3186  0.8389 -1.3280
17436SOL    HW263963   0.576   0.113   4.860  0.0962 -0.4998  1.1345
17437SOL     OW63964   4.388   7.868   4.333  0.4864 -0.7258  0.2262
17437SOL    HW163965   4.484   7.896   4.327 -0.0069  1.2539  1.3713
17437SOL    HW263966   4.362   7.859   4.429 -0.2770 -2.0253 -0.0924
17438SOL     OW63967   3.273   1.486   4.178  0.2546 -0.6278  0.1861
17438SOL    HW163968   3.233   1.406   4.133 -0.3808 -1.4178  2.0910
17438SOL    HW263969   3.202   1.534   4.229  0.6518  1.1555 -0.9053
17439SOL     OW63970   7.942   9.555   7.048  0.3370  0.0687 -0.4453
17439SOL    HW163971   8.031   9.595   7.027  0.3475 -0.0834 -0.6947
17439SOL    HW263972   7.872   9.597   6.990  0.2847  0.0177 -0.4205
17440SOL     OW63973   6.106   7.487   5.746 -0.3207  0.1841 -0.2291
17440SOL    HW163974   6.103   7.389   5.769 -1.3311  0.1458 -0.4942
17440SOL    HW263975   6.119   7.540   5.830 -0.0803 -0.1618 -0.0463
17441SOL     OW63976   3.415   7.435   0.531 -0.2838 -0.2285 -0.0220
17441SOL    HW163977   3.455   7.414   0.620 -0.0780 -2.2592 -0.5687
17441SOL    HW263978   3.406   7.351   0.477  0.0680  1.0229 -2.1111
17442SOL     OW63979   1.107   7.528   2.184 -0.2627 -0.0329  0.1416
17442SOL    HW163980   1.094   7.431   2.161 -0.3458  0.0224 -0.0408
17442SOL    HW263981   1.204   7.547   2.193 -0.2269 -0.0254 -0.2791
17443SOL     OW63982   1.687   9.696   1.429 -0.3687 -0.5608  0.4258
17443SOL    HW163983   1.590   9.684   1.451 -0.6131  0.2043 -0.2142
17443SOL    HW263984   1.743   9.660   1.503 -1.1642  0.1917  1.3994
17444SOL     OW63985   0.876   0.289   2.729 -0.1514 -0.0141  0.1470
17444SOL    HW163986   0.825   0.204   2.723  1.1368 -0.7289 -0.7759
17444SOL    HW263987   0.918   0.311   2.641  1.6845  0.2035  1.0311
17445SOL     OW63988   7.565   7.312   7.221  0.7236 -0.1847  0.2378
17445SOL    HW163989   7.548   7.225   7.174  0.2626  0.0841 -0.0970
17445SOL    HW263990   7.535   7.305   7.316 -2.0337  0.5264 -0.5384
17446SOL     OW63991   9.958   9.685   3.965 -0.0105  0.1680  0.0680
17446SOL    HW163992  10.016   9.696   3.884 -1.4225 -0.7368 -1.0836
17446SOL    HW263993   9.924   9.591   3.969 -0.7044  0.4584  1.2105
17447SOL     OW63994   3.130   2.221   1.100  0.1603 -0.0392  0.5925
17447SOL    HW163995   3.046   2.209   1.046  1.1749  0.1437 -1.0494
17447SOL    HW263996   3.187   2.139   1.093  0.6184  0.2537  0.8380
17448SOL     OW63997   6.869   2.472   5.104  0.0098 -0.0958 -0.2822
17448SOL    HW163998   6.840   2.500   5.013  1.3291 -0.6022 -0.8610
17448SOL    HW263999   6.947   2.410   5.097 -0.7301 -1.2229  1.1278
17449SOL     OW64000   4.979   7.902   1.683  0.2343  0.0969 -0.5564
17449SOL    HW164001   4.997   7.977   1.621 -1.4675  0.3417 -0.7952
17449SOL    HW264002   5.057   7.889   1.744  0.2545  2.5631  0.0052
17450SOL     OW64003   0.648   8.788   0.983  0.2701  0.2471  0.9344
17450SOL    HW164004   0.583   8.821   1.052 -0.6441 -0.3509  0.3674
17450SOL    HW264005   0.732   8.841   0.988  0.2186  0.1922  2.5393
17451SOL     OW64006   8.941   6.883   3.053  0.3993  0.1928  0.3058
17451SOL    HW164007   8.966   6.914   3.145  1.9231  0.4069 -0.1597
17451SOL    HW264008   9.017   6.903   2.990 -0.2731 -0.7652 -0.8177
17452SOL     OW64009   2.680   1.147   2.622 -0.5765 -0.1340 -0.0335
17452SOL    HW164010   2.776   1.119   2.629 -0.7380 -0.3706  1.2344
17452SOL    HW264011   2.670   1.242   2.652 -0.3896  0.6211 -2.2657
17453SOL     OW64012   5.680   9.677   3.119  0.2702 -0.6187  0.4854
17453SOL    HW164013   5.642   9.684   3.211 -0.0020 -0.0231  0.3305
17453SOL    HW264014   5.770   9.633   3.124  0.6191  0.1326  1.1398
17454SOL     OW64015   0.314   4.963   0.829  0.5382  0.9530 -0.0410
17454SOL    HW164016   0.231   4.976   0.776  0.2601  0.2576  0.2249
17454SOL    HW264017   0.377   4.904   0.778 -0.5025 -1.3088  1.1994
17455SOL     OW64018   5.144   9.391   6.449 -0.4185  0.2353 -0.0231
17455SOL    HW164019   5.121   9.299   6.419  1.8094 -0.6927  1.0464
17455SOL    HW264020   5.238   9.413   6.422  0.2008  0.9334  2.5622
17456SOL     OW64021   2.495   9.611   7.571  0.1386 -0.2787  0.1025
17456SOL    HW164022   2.491   9.710   7.580  0.1691 -0.2728  0.0578
17456SOL    HW264023   2.561   9.586   7.500  0.1417 -0.3306  0.1230
17457SOL     OW64024   8.276   2.763   3.351  0.3734 -0.4665 -0.2031
17457SOL    HW164025   8.341   2.711   3.296  0.4663 -1.4273  0.7873
17457SOL    HW264026   8.219   2.819   3.291  1.1068 -0.7543 -1.1938
17458SOL     OW64027   3.146   5.916   2.865  0.1884  0.4570  0.0731
17458SOL    HW164028   3.052   5.949   2.865  0.8410  2.3685 -0.4870
17458SOL    HW264029   3.167   5.874   2.953 -1.1774  0.0095  0.1934
17459SOL     OW64030   4.160   2.173   5.453 -0.1214 -0.2150  0.0027
17459SOL    HW164031   4.090   2.225   5.404  0.2795 -0.5836 -0.9697
17459SOL    HW264032   4.221   2.236   5.501 -1.4924  0.0898  1.3948
17460SOL     OW64033   9.622   1.383   6.704  0.5374 -0.3153 -0.1145
17460SOL    HW164034   9.590   1.380   6.799  1.1465 -0.0402  0.1025
17460SOL    HW264035   9.688   1.456   6.693  1.7256 -1.4040 -0.3608
17461SOL     OW64036   2.966   0.789   2.359  0.3391  0.2664  0.2708
17461SOL    HW164037   3.016   0.827   2.282 -1.5621  0.3965 -0.9281
17461SOL    HW264038   3.006   0.701   2.385  1.2923  0.4568 -0.5331
17462SOL     OW64039   4.293   8.164   6.161 -0.7232  0.0130 -0.0897
17462SOL    HW164040   4.361   8.235   6.140 -1.2771  0.7885  0.6850
17462SOL    HW264041   4.316   8.081   6.111 -0.6942  1.0878 -1.9296
17463SOL     OW64042   3.376   9.021   0.230 -0.4284  0.1800 -0.3594
17463SOL    HW164043   3.393   9.082   0.307  1.9111 -0.7083 -0.1347
17463SOL    HW264044   3.320   8.944   0.261  0.0862  0.0821  0.3493
17464SOL     OW64045   4.097   1.598   5.428 -0.3181  0.1381 -0.4171
17464SOL    HW164046   4.076   1.637   5.518  0.2335  1.4552 -0.8385
17464SOL    HW264047   4.086   1.669   5.358  4.0126  0.5525 -0.8272
17465SOL     OW64048   9.155   6.528   4.846 -0.7241 -0.3614 -0.7374
17465SOL    HW164049   9.056   6.527   4.855 -0.6697 -0.0359 -0.1124
17465SOL    HW264050   9.185   6.443   4.801 -1.0751 -1.5989  1.3029
17466SOL     OW64051   6.915   5.031   6.654  0.1709  0.4159  0.0225
17466SOL    HW164052   6.829   5.035   6.703  0.9531  0.8227  1.3813
17466SOL    HW264053   6.977   4.966   6.699  0.2579 -0.5676 -1.4650
17467SOL     OW64054   0.254   6.656   7.155  0.8580  0.1592  0.3843
17467SOL    HW164055   0.155   6.667   7.168  0.9334  1.3184  0.0216
17467SOL    HW264056   0.294   6.617   7.238  0.1375 -0.0620  0.6347
17468SOL     OW64057   2.002   8.799   3.923  0.6198  0.5059 -0.3300
17468SOL    HW164058   2.083   8.850   3.893  0.8807 -0.1656 -0.7782
17468SOL    HW264059   2.031   8.723   3.982  0.2435  0.7798  0.2128
17469SOL     OW64060   1.301   1.248   2.122  0.2442  0.4275 -0.5462
17469SOL    HW164061   1.301   1.170   2.059  0.8738  0.7078 -0.9036
17469SOL    HW264062   1.216   1.250   2.173  0.9058 -1.4616  0.6626
17470SOL     OW64063   9.241   2.672   8.085 -0.0495  0.1608 -0.1618
17470SOL    HW164064   9.286   2.741   8.028  0.0368 -0.5339 -0.9506
17470SOL    HW264065   9.309   2.614   8.128 -0.1747 -1.2139 -1.7643
17471SOL     OW64066   9.629   6.469   7.635 -0.5439  0.4819 -0.5840
17471SOL    HW164067   9.560   6.447   7.705  0.2804  0.3685  0.1980
17471SOL    HW264068   9.689   6.391   7.622 -1.8140 -0.1599 -2.7642
17472SOL     OW64069   0.322   5.261   4.546  0.1452 -0.3336  0.5557
17472SOL    HW164070   0.244   5.200   4.533 -0.5303  0.2957  1.5882
17472SOL    HW264071   0.401   5.224   4.497 -0.8977 -0.7691 -0.8585
17473SOL     OW64072   2.106   4.278   4.627 -0.4863 -0.5465 -0.0820
17473SOL    HW164073   2.154   4.305   4.543 -0.1008  0.2002  0.3722
17473SOL    HW264074   2.172   4.242   4.693 -0.5704  0.3138  0.4777
17474SOL     OW64075   5.383   2.511   3.881 -0.2460  0.0830 -0.0279
17474SOL    HW164076   5.418   2.530   3.973 -2.8155  0.0968  0.9874
17474SOL    HW264077   5.284   2.523   3.880 -0.5773 -2.3167 -2.1627
17475SOL     OW64078   3.531   5.761   7.185  0.2844 -0.3999  0.4256
17475SOL    HW164079   3.608   5.822   7.202  0.3111 -0.7676  1.6472
17475SOL    HW264080   3.563   5.667   7.179  0.1286 -0.3979 -0.6301
17476SOL     OW64081   9.206   2.703   5.635  0.7314 -0.1128 -0.5545
17476SOL    HW164082   9.244   2.795   5.645  2.0819 -0.7187  0.0335
17476SOL    HW264083   9.216   2.673   5.540 -0.9444  0.8548 -1.0655
17477SOL     OW64084   7.923   9.074   4.793 -0.0565  0.4775 -1.0494
17477SOL    HW164085   7.986   9.085   4.869  1.5940  1.6611 -2.5421
17477SOL    HW264086   7.882   8.982   4.796  1.0105  0.0371  0.4826
17478SOL     OW64087   7.802   3.007   5.327  0.5694  0.8966 -0.8210
17478SOL    HW164088   7.757   3.013   5.416 -0.0212  0.1825 -1.0670
17478SOL    HW264089   7.876   2.940   5.332  0.1330  0.3941 -1.0318
17479SOL     OW64090   5.203   8.610   6.436  0.0559 -0.0194 -0.7974
17479SOL    HW164091   5.195   8.532   6.374 -0.6090 -0.1763 -0.5272
17479SOL    HW264092   5.252   8.684   6.391 -0.3547 -0.1620 -1.4896
17480SOL     OW64093   9.030   5.604   7.497 -0.1917 -0.1638 -0.8634
17480SOL    HW164094   9.000   5.527   7.441  0.2054 -0.6202 -0.4456
17480SOL    HW264095   9.127   5.622   7.481 -0.0445 -0.3823 -0.2174
17481SOL     OW64096   0.820   6.079   6.336  0.2552 -0.0286  0.0789
17481SOL    HW164097   0.918   6.077   6.353  0.3653  1.6088 -0.3329
17481SOL    HW264098   0.778   6.153   6.388 -0.4958  0.4011 -1.1133
17482SOL     OW64099   3.288   2.685   3.382 -0.5970 -0.5257  0.1279
17482SOL    HW164100   3.312   2.688   3.479 -1.6019 -0.0880  0.3730
17482SOL    HW264101   3.223   2.610   3.366 -0.4042 -0.6219 -0.2183
17483SOL     OW64102   8.135   9.797   2.527 -0.0638  0.5840  0.5326
17483SOL    HW164103   8.176   9.883   2.558 -0.8615  1.3208 -0.4268
17483SOL    HW264104   8.037   9.799   2.544 -0.6752  1.3775 -2.8243
17484SOL     OW64105   8.073   6.179   7.007 -0.0016 -0.1482 -0.4899
17484SOL    HW164106   8.015   6.186   7.088 -0.1069  2.1483 -0.7231
17484SOL    HW264107   8.016   6.155   6.928 -0.5554  1.4556 -0.5962
17485SOL     OW64108   4.514   1.549   1.005  0.0708  0.4036  0.0606
17485SOL    HW164109   4.585   1.619   1.008  0.5109 -0.0495  0.2452
17485SOL    HW264110   4.516   1.502   0.917  1.6252 -1.2734  0.9422
17486SOL     OW64111   0.489   9.837   6.013 -0.0551 -0.7241  0.0222
17486SOL    HW164112   0.575   9.867   5.971 -0.0222 -1.0336 -0.1273
17486SOL    HW264113   0.494   9.739   6.032 -0.4869 -0.7963 -0.2446
17487SOL     OW64114   4.827   0.227   2.463  0.0850 -0.1040 -0.0876
17487SOL    HW164115   4.754   0.160   2.468 -3.1224  3.3264  1.5343
17487SOL    HW264116   4.867   0.240   2.554  0.3829  0.4744 -0.2953
17488SOL     OW64117   1.129   8.517   2.031  0.0058 -0.2506  0.0368
17488SOL    HW164118   1.141   8.436   1.973  0.3839 -0.8085  0.8792
17488SOL    HW264119   1.154   8.599   1.979 -1.5566 -0.5343 -1.2286
17489SOL     OW64120   1.236   5.571   8.121  0.8799  0.0518 -0.4220
17489SOL    HW164121   1.327   5.579   8.161  1.7018  1.3947 -2.4859
17489SOL    HW264122   1.219   5.649   8.060 -1.3869 -0.5206 -0.5637
17490SOL     OW64123   3.976   7.274   3.524  0.2289  0.0175 -0.0541
17490SOL    HW164124   3.997   7.304   3.431  1.0012 -0.8810 -0.1769
17490SOL    HW264125   3.993   7.176   3.533 -0.1550  0.0267  0.9493
17491SOL     OW64126   2.900   7.762   7.580 -0.0104 -0.0963 -0.4155
17491SOL    HW164127   2.983   7.769   7.635  0.2814 -1.0227 -0.7195
17491SOL    HW264128   2.906   7.824   7.502  0.1141  0.3055 -0.0903
17492SOL     OW64129   2.694   2.411   2.249 -0.6687  0.2669 -0.1443
17492SOL    HW164130   2.750   2.414   2.166 -0.6331 -0.0957 -0.1366
17492SOL    HW264131   2.600   2.387   2.225 -0.6896  0.3029 -0.0974
17493SOL     OW64132   7.405   8.798   4.968  0.2453 -1.0972  0.1030
17493SOL    HW164133   7.369   8.721   5.021  0.9820 -1.3486  0.2474
17493SOL    HW264134   7.434   8.870   5.031 -0.2915 -0.7641 -0.0267
17494SOL     OW64135   7.438   9.598   3.946 -0.0716  0.5742  0.4166
17494SOL    HW164136   7.446   9.586   3.846 -0.3056 -0.1998  0.4843
17494SOL    HW264137   7.513   9.549   3.991 -0.1742  0.6201  0.6379
17495SOL     OW64138   7.692   8.571   6.243 -0.9649  0.2974 -0.1156
17495SOL    HW164139   7.654   8.537   6.328  0.4242  1.6142  1.0620
17495SOL    HW264140   7.715   8.494   6.183 -2.2669 -0.6163  0.5372
17496SOL     OW64141   3.721   7.553   4.951 -0.7450  0.2247 -0.3850
17496SOL    HW164142   3.629   7.536   4.915 -1.8345  0.8175  1.9999
17496SOL    HW264143   3.755   7.640   4.915 -0.8549 -0.3055 -1.7752
17497SOL     OW64144   8.530   2.085   4.312 -0.1212 -0.5547 -0.4806
17497SOL    HW164145   8.583   2.064   4.229  0.9222  2.2687 -0.5686
17497SOL    HW264146   8.477   2.168   4.297  0.5217  0.3206  1.8588
17498SOL     OW64147   3.968   4.555   6.856  0.4219  0.3333  0.2616
17498SOL    HW164148   3.969   4.621   6.931 -0.0993 -0.0731  0.6298
17498SOL    HW264149   4.004   4.468   6.888  0.8401  0.3511 -0.1489
17499SOL     OW64150   7.969   0.874   2.825  0.2413 -0.0035 -0.5878
17499SOL    HW164151   7.904   0.949   2.841  0.4257  0.2063 -0.8078
17499SOL    HW264152   8.016   0.889   2.738  0.0883 -0.5209 -0.7603
17500SOL     OW64153   8.103   2.753   7.629 -0.0932 -0.4432  0.6030
17500SOL    HW164154   8.105   2.676   7.565 -3.0870 -0.1703  0.1363
17500SOL    HW264155   8.138   2.722   7.718  3.5760 -0.9637 -0.9107
17501SOL     OW64156   0.048   9.725   8.151 -0.6285  0.1943  0.7890
17501SOL    HW164157   0.015   9.638   8.187 -1.0704  0.6691  1.5433
17501SOL    HW264158   0.140   9.743   8.185 -0.7289  0.2555  1.0287
17502SOL     OW64159   1.354   0.839   5.407 -0.1381 -0.1502 -0.0612
17502SOL    HW164160   1.342   0.746   5.442  0.1661  0.1651  0.9048
17502SOL    HW264161   1.271   0.891   5.426 -1.2036 -0.8402 -2.6296
17503SOL     OW64162   7.409   0.354   2.161 -0.3919 -0.0236 -0.1805
17503SOL    HW164163   7.458   0.330   2.077 -0.7625 -2.1459  0.1802
17503SOL    HW264164   7.336   0.419   2.139  1.1675  1.4911 -1.0579
17504SOL     OW64165   9.396   1.274   1.036  0.2859 -0.3541 -0.5442
17504SOL    HW164166   9.385   1.373   1.032  0.3519 -0.2939  0.6197
17504SOL    HW264167   9.490   1.252   1.064  0.5574 -0.7650 -1.7243
17505SOL     OW64168   9.325   1.902   1.466 -0.0138 -0.7230  0.4943
17505SOL    HW164169   9.402   1.912   1.530  0.7771 -0.0227 -0.5389
17505SOL    HW264170   9.349   1.945   1.379 -0.9769 -1.9015 -0.3679
17506SOL     OW64171   4.834   4.375   6.310  0.0332  0.0297 -0.4284
17506SOL    HW164172   4.804   4.402   6.401 -0.5318  1.3912 -0.9954
17506SOL    HW264173   4.921   4.420   6.289  0.9979 -1.5944  0.0791
17507SOL     OW64174   4.559   0.357   7.914  0.0429  0.4410 -0.1165
17507SOL    HW164175   4.540   0.396   7.824 -0.7607  1.6656  0.5781
17507SOL    HW264176   4.604   0.425   7.971  0.5081 -0.3197  0.4351
17508SOL     OW64177   4.403   2.030   5.165 -1.0262  0.0220 -0.3469
17508SOL    HW164178   4.469   2.102   5.185 -1.3801  0.3472 -0.3332
17508SOL    HW264179   4.367   1.993   5.251 -0.6130 -0.3859 -0.3510
17509SOL     OW64180   2.828   0.851   6.288  0.5264 -0.0044  0.0103
17509SOL    HW164181   2.754   0.909   6.321  0.0937 -0.8198  0.4990
17509SOL    HW264182   2.908   0.907   6.266  0.3434  0.6913  1.1256
17510SOL     OW64183   3.443   3.335   4.347  0.8005 -0.4407 -0.4145
17510SOL    HW164184   3.494   3.355   4.431 -0.3683  3.4569 -0.5563
17510SOL    HW264185   3.347   3.317   4.370  0.6033  0.0294 -0.8777
17511SOL     OW64186   0.559   2.503   1.923 -0.5031  0.0427  0.3412
17511SOL    HW164187   0.557   2.492   1.823  0.2277 -0.3374  0.3666
17511SOL    HW264188   0.630   2.445   1.961 -0.3279  0.7059  1.0258
17512SOL     OW64189   8.490   9.479   3.716 -0.2854  0.2556 -0.0535
17512SOL    HW164190   8.416   9.518   3.770  0.1737  0.0567  0.7212
17512SOL    HW264191   8.471   9.383   3.698 -0.5354  0.3749 -0.4129
17513SOL     OW64192   3.136   9.878   8.087 -0.2776 -0.2247  0.2551
17513SOL    HW164193   3.049   9.925   8.103 -0.3915 -0.8449  1.5334
17513SOL    HW264194   3.122   9.779   8.094  0.1659 -0.4228 -1.3959
17514SOL     OW64195   7.615   6.256   6.433  0.3146  0.6036 -0.1259
17514SOL    HW164196   7.648   6.196   6.506  0.9116 -0.2011 -1.0371
17514SOL    HW264197   7.517   6.272   6.445 -0.1427 -1.6017 -0.5508
17515SOL     OW64198   3.931   4.080   1.943 -0.2937 -0.0266 -0.2604
17515SOL    HW164199   4.007   4.106   2.003  0.3535  0.1385 -1.1457
17515SOL    HW264200   3.881   4.004   1.984  0.0333  0.2072  0.5840
17516SOL     OW64201   2.226   0.447   3.177 -0.3132 -0.1576 -0.4442
17516SOL    HW164202   2.205   0.384   3.103 -0.2370 -0.3199 -0.3270
17516SOL    HW264203   2.161   0.433   3.252 -1.3989  1.0963 -1.1282
17517SOL     OW64204   4.015   3.204   5.675 -0.2398  0.3361  0.0854
17517SOL    HW164205   4.036   3.111   5.702  0.5258  0.3094 -0.5793
17517SOL    HW264206   3.925   3.207   5.630 -2.0867  0.5835  3.6580
17518SOL     OW64207   0.451   0.167   0.051 -0.0020 -1.2556  0.2284
17518SOL    HW164208   0.467   0.074   0.085  0.4017 -0.4197  2.3772
17518SOL    HW264209   0.517   0.229   0.093 -1.5676  0.3518  0.3549
17519SOL     OW64210   9.796   1.839   5.839 -0.2833  0.0108  0.3332
17519SOL    HW164211   9.748   1.927   5.841 -0.7643 -0.1852 -1.3367
17519SOL    HW264212   9.815   1.809   5.932 -3.6777 -0.0542  1.0642
17520SOL     OW64213   4.539   9.150   2.969  0.2123  0.1317 -0.0445
17520SOL    HW164214   4.591   9.166   2.885 -0.8882  0.0072 -0.7587
17520SOL    HW264215   4.484   9.067   2.959  0.6838 -0.3375  1.1035
17521SOL     OW64216   2.595   9.461   7.000  0.0496  0.0583  0.7305
17521SOL    HW164217   2.691   9.447   6.977 -0.0968 -0.8935  0.7097
17521SOL    HW264218   2.537   9.428   6.926 -0.3945 -2.0995  2.0001
17522SOL     OW64219   9.535   7.561   5.824  0.5826  0.0631  0.7266
17522SOL    HW164220   9.527   7.485   5.760  1.9363  1.0085 -0.6139
17522SOL    HW264221   9.444   7.592   5.852 -0.0294 -0.0784 -1.0798
17523SOL     OW64222   3.217   6.903   2.902  0.5388  0.1806  0.4573
17523SOL    HW164223   3.121   6.874   2.901  0.3108  0.9141 -0.2919
17523SOL    HW264224   3.239   6.947   2.815  1.5857 -0.0650  0.5890
17524SOL     OW64225   9.474   4.580   7.082 -0.2537  0.0661  0.3228
17524SOL    HW164226   9.458   4.609   6.988 -0.6475 -0.0374  0.3582
17524SOL    HW264227   9.392   4.537   7.118 -0.3521  0.7798  0.9635
17525SOL     OW64228   4.005   2.592   3.352  0.1149  0.3126 -0.1918
17525SOL    HW164229   4.008   2.515   3.288  1.9120  1.0928 -1.0749
17525SOL    HW264230   3.956   2.668   3.309 -0.2976  0.2035  0.0823
17526SOL     OW64231   1.825   3.027   6.630  0.4443 -0.4631 -0.5602
17526SOL    HW164232   1.852   3.062   6.541  0.9784  0.8716  0.1008
17526SOL    HW264233   1.864   3.085   6.702 -0.0398 -1.4650  0.5384
17527SOL     OW64234   3.426   4.350   0.252  0.3532  0.0011 -0.2699
17527SOL    HW164235   3.440   4.260   0.210  0.6050  0.1081 -0.4172
17527SOL    HW264236   3.401   4.417   0.182 -1.2540 -0.2592  0.0431
17528SOL     OW64237   8.582   9.896   6.027 -0.1724  0.5475 -0.6617
17528SOL    HW164238   8.647   9.824   6.003  0.8646  0.4673  2.2657
17528SOL    HW264239   8.493   9.854   6.049  0.1178  0.2446 -0.0500
17529SOL     OW64240   0.263   3.630   3.916  0.1625 -0.3803  0.2611
17529SOL    HW164241   0.296   3.550   3.867 -1.9256  0.0096 -1.8583
17529SOL    HW264242   0.312   3.711   3.883  0.8399 -0.5008  0.9552
17530SOL     OW64243   9.152   0.122   5.213  0.2500 -0.2101  0.4221
17530SOL    HW164244   9.130   0.045   5.274 -0.7537  0.1217  0.4867
17530SOL    HW264245   9.079   0.190   5.218  0.1271 -0.2140 -1.2047
17531SOL     OW64246   6.826   3.013   3.086  0.4279  0.3157 -0.0598
17531SOL    HW164247   6.820   2.919   3.053 -0.9354 -0.2883  1.7871
17531SOL    HW264248   6.769   3.023   3.168  0.5057  2.7684 -0.2611
17532SOL     OW64249   8.899   7.959   6.172 -0.0756 -0.0424 -0.3612
17532SOL    HW164250   8.800   7.962   6.182 -0.0251  0.0924  0.0835
17532SOL    HW264251   8.922   7.960   6.074 -0.5061  0.0186 -0.4637
17533SOL     OW64252   4.908   0.146   7.536  0.5416  0.0464  0.2596
17533SOL    HW164253   4.932   0.183   7.446  0.9404  1.4004  0.9104
17533SOL    HW264254   4.928   0.048   7.538  0.4671 -0.0044 -1.1479
17534SOL     OW64255   1.458   7.998   2.975  0.4527  0.3034  0.1084
17534SOL    HW164256   1.382   8.062   2.980 -0.1272 -0.2800 -0.9325
17534SOL    HW264257   1.485   7.971   3.067 -1.6123 -0.6540  0.4633
17535SOL     OW64258   8.861   1.465   5.634  0.0200 -0.6478  0.3756
17535SOL    HW164259   8.804   1.482   5.554 -1.2049  1.8468  1.6901
17535SOL    HW264260   8.821   1.391   5.688 -0.6577 -0.5428  0.0252
17536SOL     OW64261   7.011   2.592   0.019 -1.0012  0.4510  0.3943
17536SOL    HW164262   7.081   2.562  -0.046 -1.0613 -1.1180  1.0569
17536SOL    HW264263   7.041   2.677   0.062 -0.6267  1.1215 -1.1291
17537SOL     OW64264   0.041   1.883   4.856  0.1853  0.2888  0.4179
17537SOL    HW164265  -0.025   1.816   4.889 -0.1518  1.0823  1.3555
17537SOL    HW264266   0.039   1.885   4.756  0.3077 -1.2061  0.3714
17538SOL     OW64267   7.927   1.912   5.755 -0.0151 -0.0975  0.0540
17538SOL    HW164268   7.958   1.912   5.660  0.5399  1.0826  0.2294
17538SOL    HW264269   7.849   1.850   5.765  1.4114 -2.0527 -0.6757
17539SOL     OW64270   3.154   8.584   2.804  0.5837 -0.4686 -0.6148
17539SOL    HW164271   3.163   8.568   2.902  1.7240 -0.7789 -0.7628
17539SOL    HW264272   3.240   8.619   2.767  0.9350 -2.6030 -1.9231
17540SOL     OW64273   0.301   3.964   2.130 -0.8102 -0.1788 -0.1508
17540SOL    HW164274   0.206   3.992   2.114 -2.0230 -2.3026  2.7653
17540SOL    HW264275   0.329   3.994   2.222  0.6321 -1.3656 -0.1821
17541SOL     OW64276   2.089   1.931   2.423  0.6641  0.3796  0.0185
17541SOL    HW164277   2.057   2.004   2.363 -0.2738 -0.4222 -0.4721
17541SOL    HW264278   2.024   1.920   2.499 -0.5670 -1.6345 -1.2887
17542SOL     OW64279   0.086   7.347   5.021 -0.1516 -0.0949  0.5756
17542SOL    HW164280  -0.005   7.384   4.998  0.9175  2.8083  0.7980
17542SOL    HW264281   0.093   7.335   5.120 -0.4661 -0.7688  0.5139
17543SOL     OW64282   2.575   7.940   3.377  0.1021 -0.2104  0.0759
17543SOL    HW164283   2.570   8.028   3.425  0.9217 -1.1411  1.8805
17543SOL    HW264284   2.586   7.957   3.279 -0.3822  1.7024  0.3303
17544SOL     OW64285   1.253   5.677   0.747 -0.8318  0.1688  0.3969
17544SOL    HW164286   1.325   5.609   0.735 -0.8607 -0.2457  2.3931
17544SOL    HW264287   1.166   5.630   0.765 -1.1614  0.7010  0.2052
17545SOL     OW64288   0.776   3.084   6.391 -0.0108  0.0476  0.5464
17545SOL    HW164289   0.804   3.099   6.486 -0.6612  1.2295  0.5550
17545SOL    HW264290   0.691   3.133   6.373 -0.0676 -0.4356 -0.5642
17546SOL     OW64291   4.171   0.725   7.262 -0.1167 -0.0536  0.6528
17546SOL    HW164292   4.246   0.663   7.240  0.3216  1.5478 -2.5620
17546SOL    HW264293   4.088   0.695   7.215 -0.5808  0.3236  1.2119
17547SOL     OW64294   7.008   7.963   3.107 -0.6518 -0.4727  0.2891
17547SOL    HW164295   6.967   8.033   3.049 -1.6468 -1.0021  0.3362
17547SOL    HW264296   6.950   7.947   3.187 -0.7737 -1.8092 -0.0519
17548SOL     OW64297   0.254   1.447   7.746 -0.3268 -0.2624  0.2919
17548SOL    HW164298   0.262   1.543   7.723  0.5899 -0.3100  0.4219
17548SOL    HW264299   0.224   1.438   7.841 -1.6266 -0.1006 -0.0891
17549SOL     OW64300   8.939   8.586   6.295 -0.0587 -0.5290  0.0056
17549SOL    HW164301   9.038   8.580   6.284  0.0791  0.0849  0.8771
17549SOL    HW264302   8.906   8.670   6.251 -0.0758 -0.2947  0.4598
17550SOL     OW64303   4.859   9.831   1.506 -0.0038 -0.7050 -0.0951
17550SOL    HW164304   4.913   9.844   1.423  1.6132 -0.5602  0.9681
17550SOL    HW264305   4.792   9.758   1.491  1.4546 -1.8902 -0.9661
17551SOL     OW64306   7.399   1.384   1.319  0.8555 -0.3909 -0.0208
17551SOL    HW164307   7.352   1.462   1.359 -0.2998 -0.1849 -1.7567
17551SOL    HW264308   7.443   1.331   1.392 -2.0042 -0.5516  1.6460
17552SOL     OW64309   2.812   4.608   6.947  0.4474  0.5446  0.0843
17552SOL    HW164310   2.713   4.604   6.959  0.4963 -1.8756 -0.1932
17552SOL    HW264311   2.853   4.656   7.025 -0.6572 -1.2737  1.8315
17553SOL     OW64312   9.015   6.321   1.585 -0.0307 -0.0877 -0.0381
17553SOL    HW164313   8.933   6.283   1.627  0.4704 -1.3929 -0.1960
17553SOL    HW264314   9.088   6.253   1.588  0.0430 -0.2075 -2.9049
17554SOL     OW64315   8.055   3.065   1.895  0.4593 -0.3373  0.2558
17554SOL    HW164316   8.110   3.080   1.813  1.5965  0.3761  1.1364
17554SOL    HW264317   8.021   3.152   1.929 -1.8374 -0.8453 -0.6910
17555SOL     OW64318   8.420   7.053   0.648 -0.0147  0.4640  0.2261
17555SOL    HW164319   8.374   6.972   0.684  0.5197 -0.6071 -1.4352
17555SOL    HW264320   8.494   7.024   0.587  1.6371  2.1821  1.3626
17556SOL     OW64321   1.267   2.820   2.140 -0.1934 -0.7278 -0.2803
17556SOL    HW164322   1.342   2.859   2.193 -1.0498 -0.0390  0.4397
17556SOL    HW264323   1.295   2.811   2.044  0.5259  0.2892 -0.1728
17557SOL     OW64324   7.195   0.402   3.968 -0.3416 -0.5248  0.2471
17557SOL    HW164325   7.231   0.314   3.938  0.4205 -0.2271  0.2530
17557SOL    HW264326   7.271   0.467   3.975 -0.8873  0.1055  0.3137
17558SOL     OW64327   7.769   8.506   4.048 -0.3190  0.0993  0.5177
17558SOL    HW164328   7.743   8.533   4.140  0.1216 -0.7637  0.8969
17558SOL    HW264329   7.823   8.580   4.006 -0.8757  0.6682  0.7871
17559SOL     OW64330   3.767   1.112   4.785 -0.3026 -0.0578 -0.3787
17559SOL    HW164331   3.788   1.138   4.691 -1.4189  0.3334 -0.5248
17559SOL    HW264332   3.829   1.039   4.814  0.8275  0.6418 -1.0062
17560SOL     OW64333   9.781   8.922   3.989 -0.4220  0.1036 -0.6123
17560SOL    HW164334   9.718   8.949   3.916 -0.2944 -1.5344 -1.3559
17560SOL    HW264335   9.842   8.851   3.955  1.1879  0.9765  0.4091
17561SOL     OW64336   8.006   6.860   1.638 -0.1889 -0.6633  0.2231
17561SOL    HW164337   7.963   6.776   1.606 -1.0447 -0.2936  0.3752
17561SOL    HW264338   8.089   6.878   1.585  0.3990 -1.9774  0.6801
17562SOL     OW64339   6.741   7.736   5.056 -0.1631 -0.3597 -0.0243
17562SOL    HW164340   6.724   7.811   5.121  0.8037  0.8130 -1.0897
17562SOL    HW264341   6.654   7.695   5.029 -0.6768  0.1247  0.8681
17563SOL     OW64342   4.207   9.522   7.599 -0.0019  0.7154 -0.1167
17563SOL    HW164343   4.231   9.516   7.502 -0.9530 -0.0236 -0.3120
17563SOL    HW264344   4.288   9.504   7.655  0.0686 -1.0560 -0.7635
17564SOL     OW64345   8.462   2.012   1.655 -0.2700  0.3502 -0.3619
17564SOL    HW164346   8.509   1.927   1.630  0.3083  0.9678 -1.4083
17564SOL    HW264347   8.528   2.076   1.695 -0.8001  0.1254  0.8643
17565SOL     OW64348   5.764   8.257   2.748  0.1255 -0.2312 -0.2438
17565SOL    HW164349   5.748   8.351   2.720  0.2345 -0.2238 -0.2854
17565SOL    HW264350   5.694   8.229   2.813 -0.8014 -0.6270 -1.4100
17566SOL     OW64351   2.563   7.241   3.852  0.2964  0.1695  0.0544
17566SOL    HW164352   2.469   7.229   3.819  0.0506  0.7839  0.5114
17566SOL    HW264353   2.573   7.333   3.889  1.1429  0.1748 -0.1769
17567SOL     OW64354   0.077   5.621   1.047 -0.1554  0.2723 -0.3021
17567SOL    HW164355   0.106   5.593   0.956 -1.1942  0.4274 -0.6844
17567SOL    HW264356   0.054   5.540   1.102 -0.1275  0.2095 -0.3839
17568SOL     OW64357   7.502   0.566   3.050 -0.1587 -0.2307  0.2928
17568SOL    HW164358   7.548   0.480   3.028  0.2588 -0.4360  1.8710
17568SOL    HW264359   7.450   0.597   2.971 -1.1580 -2.4843  0.0149
17569SOL     OW64360   2.903   7.916   1.838 -0.4378 -0.1891  0.2290
17569SOL    HW164361   2.855   7.862   1.908 -1.0925 -1.1099 -0.9104
17569SOL    HW264362   2.836   7.949   1.772  0.4335 -1.0397 -1.0863
17570SOL     OW64363   0.109   5.900   0.506  0.6976  0.2252 -0.1532
17570SOL    HW164364   0.206   5.889   0.529  1.2362 -0.4964 -2.5716
17570SOL    HW264365   0.098   5.981   0.448 -0.0396 -0.0977 -0.4665
17571SOL     OW64366   3.630   7.298   4.793 -0.1351 -0.3822  0.1249
17571SOL    HW164367   3.617   7.312   4.695 -0.5334 -1.1764  0.0544
17571SOL    HW264368   3.671   7.208   4.808 -0.9760 -0.6743  0.7276
17572SOL     OW64369   3.921   7.291   1.781  0.6373 -0.0016 -0.0515
17572SOL    HW164370   3.850   7.274   1.849  1.5017 -0.1129  0.8431
17572SOL    HW264371   3.979   7.210   1.773  0.5468  0.0163 -0.9156
17573SOL     OW64372   8.936   0.512   4.255  0.3259 -0.2328 -0.1508
17573SOL    HW164373   8.862   0.571   4.289  1.2970  0.9313  0.0021
17573SOL    HW264374   8.968   0.453   4.329  0.1395 -0.1209  0.0188
17574SOL     OW64375   4.752   0.392   5.812  0.0694  0.5699  0.3457
17574SOL    HW164376   4.665   0.344   5.818  0.6407 -0.3057  2.3170
17574SOL    HW264377   4.823   0.329   5.781  0.1245  1.1150 -0.6521
17575SOL     OW64378   8.435   9.939   4.067 -0.2401 -0.4029 -0.0305
17575SOL    HW164379   8.340   9.946   4.097 -1.4512 -0.7783 -3.5181
17575SOL    HW264380   8.479  10.029   4.073 -1.8482  0.4965 -1.5546
17576SOL     OW64381   9.359   6.335   3.417  0.7181  0.1090 -0.1175
17576SOL    HW164382   9.356   6.309   3.513 -0.9448 -0.4384 -0.3009
17576SOL    HW264383   9.299   6.413   3.401  1.3522  0.5045 -0.6421
17577SOL     OW64384   3.064   7.039   1.146  0.1908 -0.0542 -0.6700
17577SOL    HW164385   2.987   6.984   1.177 -2.6317  3.4565 -1.1207
17577SOL    HW264386   3.046   7.073   1.054  1.6680  1.9060 -0.2764
17578SOL     OW64387   2.519   7.043   5.025 -0.2595 -0.2287  0.2431
17578SOL    HW164388   2.552   7.138   5.024 -0.0556 -0.2540 -3.9041
17578SOL    HW264389   2.439   7.037   5.085 -0.5537  2.6665  0.2422
17579SOL     OW64390   9.102   4.035   7.184 -0.0054  0.0105  0.1441
17579SOL    HW164391   9.133   4.014   7.277 -0.9131  1.2592  0.7297
17579SOL    HW264392   9.003   4.047   7.183 -0.0016  0.0323 -0.9883
17580SOL     OW64393   1.128   0.004   3.608 -0.2820  0.6054 -0.1461
17580SOL    HW164394   1.068   0.082   3.622 -0.4169  0.4401  0.2042
17580SOL    HW264395   1.184  -0.011   3.690 -1.4462 -0.6773  0.4292
17581SOL     OW64396   9.367   4.895   5.501 -0.2205 -0.0577 -0.1967
17581SOL    HW164397   9.467   4.887   5.501 -0.1417  0.8016  0.3880
17581SOL    HW264398   9.327   4.818   5.452  0.8072  0.5038 -1.9516
17582SOL     OW64399   4.424   1.538   4.608 -0.3262 -0.0579  0.4076
17582SOL    HW164400   4.510   1.521   4.656  1.7560  0.1601 -3.0944
17582SOL    HW264401   4.386   1.451   4.577  0.4415  0.0856 -0.9882
17583SOL     OW64402   3.561   1.475   7.607 -0.3912 -0.3098 -1.1967
17583SOL    HW164403   3.641   1.534   7.594 -0.8586  0.3384 -1.1168
17583SOL    HW264404   3.591   1.389   7.650  0.1426  0.3027 -0.3063
17584SOL     OW64405   4.512   9.352   6.769 -0.1394 -0.2246 -0.1517
17584SOL    HW164406   4.473   9.263   6.746  0.2621 -0.6705  0.8576
17584SOL    HW264407   4.524   9.407   6.686 -2.6432 -0.1827 -0.5213
17585SOL     OW64408   3.095   6.327   6.191 -0.6387 -0.3868 -0.1404
17585SOL    HW164409   3.142   6.306   6.277 -1.0153 -1.8051 -0.2727
17585SOL    HW264410   3.162   6.356   6.123 -0.1389 -0.8333  0.1529
17586SOL     OW64411   8.909   8.605   0.267  0.4121  0.1041  0.2877
17586SOL    HW164412   8.906   8.576   0.172  0.5574  1.1981 -0.0580
17586SOL    HW264413   8.861   8.538   0.324 -0.7254  0.0426 -0.7170
17587SOL     OW64414   5.430   8.787   3.576  0.1311 -0.6665 -0.3450
17587SOL    HW164415   5.496   8.713   3.562 -1.7278 -2.3565 -0.5235
17587SOL    HW264416   5.442   8.856   3.505  3.2250  0.2376  1.0008
17588SOL     OW64417   9.170   4.425   2.634 -0.2097 -0.2711  0.1774
17588SOL    HW164418   9.199   4.445   2.727  1.4714 -1.9341  0.0411
17588SOL    HW264419   9.240   4.371   2.588 -0.4617  1.5355 -2.4634
17589SOL     OW64420   3.402   1.208   3.217  0.2373  0.2485  0.2970
17589SOL    HW164421   3.384   1.241   3.309 -3.4716 -1.1375  0.1837
17589SOL    HW264422   3.326   1.235   3.157  1.2102 -1.2712 -1.6793
17590SOL     OW64423   1.837   1.294   3.177 -0.0134 -0.3872 -0.8576
17590SOL    HW164424   1.854   1.352   3.256  0.3634  1.7824 -2.4780
17590SOL    HW264425   1.844   1.197   3.204 -1.0506  0.2722  1.9695
17591SOL     OW64426   1.149   3.534   5.951 -0.0354 -0.1876 -0.5212
17591SOL    HW164427   1.109   3.579   5.872 -0.8312  0.2105  0.0975
17591SOL    HW264428   1.199   3.600   6.007 -0.6279 -0.1867  0.0242
17592SOL     OW64429   4.204   2.810   6.630 -0.5917  0.4885  0.3339
17592SOL    HW164430   4.223   2.902   6.598 -0.0495  0.3597  0.2733
17592SOL    HW264431   4.111   2.783   6.603 -0.2250  0.4650 -0.9212
17593SOL     OW64432   9.189   6.519   6.315  0.0052  0.3491  0.3365
17593SOL    HW164433   9.217   6.555   6.226  2.5830 -3.1731 -0.3779
17593SOL    HW264434   9.269   6.510   6.374 -1.4362  1.0755  2.4587
17594SOL     OW64435   1.587   3.818   2.930  0.0415  0.5022  0.3567
17594SOL    HW164436   1.672   3.771   2.908  0.5476  0.6388  1.9703
17594SOL    HW264437   1.608   3.909   2.967 -0.7641  0.0628  1.8962
17595SOL     OW64438   0.328   7.302   0.378  0.1493  0.4141  0.2871
17595SOL    HW164439   0.353   7.304   0.281 -0.3530  2.3795  0.1843
17595SOL    HW264440   0.407   7.272   0.431  1.1290  1.4783 -0.5339
17596SOL     OW64441   1.005   7.121   5.228 -0.1278 -0.1515  0.0866
17596SOL    HW164442   0.984   7.179   5.149  1.2581  1.5305  0.9214
17596SOL    HW264443   1.088   7.069   5.211  0.1834  0.2282  0.4445
17597SOL     OW64444   3.785   6.635   2.851 -0.0470  0.4483 -0.6391
17597SOL    HW164445   3.716   6.659   2.918  1.4399  0.4815  0.9328
17597SOL    HW264446   3.752   6.655   2.759 -2.6145 -0.7872 -0.0120
17598SOL     OW64447   3.305   8.817   2.026  0.3206 -0.6365  0.6394
17598SOL    HW164448   3.320   8.718   2.030 -2.2032 -1.0559  0.4733
17598SOL    HW264449   3.235   8.844   2.092  0.5004  0.9498  0.2184
17599SOL     OW64450   8.943   8.789   1.743  0.4416  0.3955  0.4648
17599SOL    HW164451   8.883   8.720   1.702 -0.6304  2.2245 -1.1748
17599SOL    HW264452   9.020   8.807   1.681  0.9367  0.3803  1.0714
17600SOL     OW64453   9.241   9.517   6.036  0.1689 -0.3008 -0.1718
17600SOL    HW164454   9.148   9.498   6.004  0.8131 -1.2537 -1.5023
17600SOL    HW264455   9.307   9.478   5.972  1.5021 -1.5235  1.9051
17601SOL     OW64456   9.743   2.201   7.413  0.2439  0.2164 -0.5058
17601SOL    HW164457   9.710   2.251   7.493  1.1101 -1.4900  0.9523
17601SOL    HW264458   9.832   2.238   7.385  0.2801  0.3509 -0.2177
17602SOL     OW64459   2.601   8.943   1.996  0.3453 -0.3283  0.3459
17602SOL    HW164460   2.662   8.886   1.940  0.5408 -0.5307  0.7618
17602SOL    HW264461   2.650   9.024   2.026 -0.0053  0.1805 -0.4419
17603SOL     OW64462   2.823   2.390   1.123 -0.0930 -0.1731  0.3229
17603SOL    HW164463   2.880   2.469   1.145 -0.6013  0.1151  0.5954
17603SOL    HW264464   2.840   2.362   1.028  0.4037 -0.0060  0.3654
17604SOL     OW64465   8.534   9.823   2.659  0.7806 -0.0686 -0.3637
17604SOL    HW164466   8.557   9.731   2.626 -0.4889 -0.1425 -1.0681
17604SOL    HW264467   8.504   9.880   2.583 -5.0714 -1.1194  0.8900
17605SOL     OW64468   6.510   5.461   0.348  0.3796 -0.1995  0.0221
17605SOL    HW164469   6.428   5.468   0.405  1.0210  0.9635  0.8300
17605SOL    HW264470   6.488   5.413   0.263 -0.9620 -0.5433  0.5548
17606SOL     OW64471   0.187   1.090   2.969 -0.0083 -0.6780 -0.3083
17606SOL    HW164472   0.273   1.092   3.020 -0.7863  1.4204  1.0040
17606SOL    HW264473   0.115   1.054   3.028 -0.9893  2.1163  0.2670
17607SOL     OW64474   4.005   2.743   0.729 -0.9214 -0.4096  0.6673
17607SOL    HW164475   4.047   2.833   0.720 -1.2160 -0.2831  0.5317
17607SOL    HW264476   3.905   2.752   0.719 -0.9618 -0.7300  0.7903
17608SOL     OW64477   7.537   2.032   4.205  0.5978  0.4485  0.6468
17608SOL    HW164478   7.437   2.029   4.200  0.6782  0.0016 -1.5971
17608SOL    HW264479   7.566   2.124   4.231 -0.3585  1.4497 -1.6754
17609SOL     OW64480   8.334   8.963   6.438 -0.0487 -0.1798 -0.9577
17609SOL    HW164481   8.404   8.915   6.492 -0.6554 -0.1562 -0.1433
17609SOL    HW264482   8.282   8.896   6.384 -1.0758 -0.4901  0.3867
17610SOL     OW64483   5.116   3.470   0.441  0.0395  0.2755  0.0851
17610SOL    HW164484   5.105   3.528   0.521  0.5933  1.5428 -0.7255
17610SOL    HW264485   5.211   3.475   0.410 -0.0853 -0.4902 -0.4357
17611SOL     OW64486   9.434   4.752   5.976 -0.0973  0.3535 -0.0526
17611SOL    HW164487   9.418   4.816   6.051  0.1298 -0.7759  0.9655
17611SOL    HW264488   9.513   4.783   5.922 -0.8015  1.6415 -0.3628
17612SOL     OW64489   2.528   4.249   5.798  0.3372 -0.2220 -0.0221
17612SOL    HW164490   2.601   4.309   5.763  0.6783 -0.6542 -0.0555
17612SOL    HW264491   2.455   4.244   5.731 -0.0911  0.8493  0.3453
17613SOL     OW64492   1.995   8.202   5.761  0.0117  0.0150  0.2547
17613SOL    HW164493   2.091   8.177   5.745  0.2315  0.4122  0.9154
17613SOL    HW264494   1.948   8.126   5.804  0.2385  0.1086  0.6729
17614SOL     OW64495   2.490   7.259   1.694 -0.3482  0.1838  0.6411
17614SOL    HW164496   2.466   7.269   1.597 -2.1503  0.2259  1.0752
17614SOL    HW264497   2.551   7.181   1.705 -1.8335 -1.1405 -0.2720
17615SOL     OW64498   4.284   1.897   7.843 -0.1640 -0.2592  0.3568
17615SOL    HW164499   4.308   1.932   7.752  0.5737 -0.7697  0.3500
17615SOL    HW264500   4.266   1.799   7.836  1.7539 -0.6963  1.0797
17616SOL     OW64501   2.062   5.688   2.495 -0.7978  0.1823 -0.1732
17616SOL    HW164502   2.091   5.765   2.437  0.4933  0.0330  0.2526
17616SOL    HW264503   2.086   5.603   2.449  1.3593  0.0676  1.1177
17617SOL     OW64504   6.399   9.597   1.779 -0.0217 -0.0798  0.1184
17617SOL    HW164505   6.427   9.668   1.714  3.4946 -1.5167 -0.0374
17617SOL    HW264506   6.395   9.509   1.733  2.0080 -1.0318  1.6472
17618SOL     OW64507   2.625   8.875   4.888  0.9519  0.1037 -0.2136
17618SOL    HW164508   2.674   8.886   4.974  1.8657 -0.1276 -0.7009
17618SOL    HW264509   2.663   8.798   4.837 -0.2644 -0.4173 -0.3635
17619SOL     OW64510   5.959   5.327   1.549  0.1635  0.0882  0.3004
17619SOL    HW164511   6.002   5.310   1.460 -0.5271 -3.2215  0.5291
17619SOL    HW264512   5.860   5.328   1.538 -0.0948 -3.7781  1.4508
17620SOL     OW64513   6.650   1.209   8.077  0.2117  0.3855 -0.2448
17620SOL    HW164514   6.700   1.289   8.110  0.7156  0.3983 -1.0257
17620SOL    HW264515   6.652   1.138   8.147  0.8781  0.5789 -0.0596
17621SOL     OW64516   9.575   0.694   6.488 -0.0037  0.1362  0.9454
17621SOL    HW164517   9.601   0.694   6.391  1.9042  0.6982  1.4565
17621SOL    HW264518   9.651   0.661   6.543 -1.2192 -0.5592  2.2477
17622SOL     OW64519   4.130   3.524   0.425  0.3787 -0.0213 -0.7747
17622SOL    HW164520   4.138   3.613   0.470 -1.9803 -0.0727 -0.2216
17622SOL    HW264521   4.115   3.537   0.327 -2.6255  0.2767 -0.3048
17623SOL     OW64522   1.561   9.615   0.801 -0.0726  0.0739  0.3160
17623SOL    HW164523   1.547   9.714   0.794  0.7338  0.2533  1.2614
17623SOL    HW264524   1.637   9.588   0.741  1.3309  0.3960  1.9180
17624SOL     OW64525   9.553   7.679   2.895 -0.1872 -0.2336 -0.5297
17624SOL    HW164526   9.625   7.721   2.950  0.2593 -1.1588 -0.3983
17624SOL    HW264527   9.484   7.748   2.872  0.4986  0.5534 -0.2671
17625SOL     OW64528   5.200   9.375   1.096 -0.1828 -0.3828 -0.0214
17625SOL    HW164529   5.171   9.317   1.019  1.3282 -1.4120  0.1587
17625SOL    HW264530   5.169   9.333   1.182 -0.2166 -0.2394  0.0356
17626SOL     OW64531   2.289   7.237   1.891  0.6364 -0.2002 -0.2180
17626SOL    HW164532   2.327   7.263   1.980  1.4642 -1.1747 -0.2854
17626SOL    HW264533   2.340   7.282   1.818 -0.1419  0.7241 -0.2071
17627SOL     OW64534   1.477   4.552   4.874 -0.0752 -0.3085 -0.0501
17627SOL    HW164535   1.475   4.627   4.807  0.9261 -0.8695 -0.7242
17627SOL    HW264536   1.502   4.589   4.964 -0.9246  0.3694 -0.0841
17628SOL     OW64537   3.174   4.286   2.388  0.3576 -0.6225 -1.0050
17628SOL    HW164538   3.184   4.339   2.303  1.7247 -0.3111 -0.6690
17628SOL    HW264539   3.077   4.277   2.411  0.0326  0.2750 -1.9845
17629SOL     OW64540   4.503   2.709   5.149 -0.1084  0.4423  0.0753
17629SOL    HW164541   4.538   2.632   5.202 -0.7591 -0.4467 -0.7503
17629SOL    HW264542   4.412   2.686   5.114 -0.8582  2.1049  0.9041
17630SOL     OW64543   3.456   6.428   3.904 -0.8240 -0.0039 -0.6605
17630SOL    HW164544   3.498   6.455   3.991 -0.5304 -0.6865 -0.5847
17630SOL    HW264545   3.480   6.494   3.833  0.5260 -0.4782 -0.6522
17631SOL     OW64546   5.948   8.812   6.109 -0.0784 -0.2064  0.2600
17631SOL    HW164547   5.995   8.730   6.076  2.5357  0.9631  0.9336
17631SOL    HW264548   5.856   8.788   6.140 -0.2763 -2.4174 -1.9129
17632SOL     OW64549   1.691   7.942   7.623 -0.4698  0.7652 -0.2396
17632SOL    HW164550   1.788   7.925   7.643 -0.9410 -0.6952  0.8937
17632SOL    HW264551   1.671   7.912   7.530  0.0349  0.4851 -0.2633
17633SOL     OW64552   1.518   4.693   4.656 -0.3556 -0.0366  0.1852
17633SOL    HW164553   1.533   4.788   4.630  0.4869  0.6932  3.2141
17633SOL    HW264554   1.599   4.639   4.632  0.1437  0.4948  0.6540
17634SOL     OW64555   1.237   7.685   6.019 -0.1502  0.2516  0.1815
17634SOL    HW164556   1.276   7.603   5.978 -3.4030 -0.3290 -1.8587
17634SOL    HW264557   1.216   7.752   5.948 -1.5648  1.1097  1.3729
17635SOL     OW64558   5.534   8.383   2.243 -0.3792 -0.0019  0.9407
17635SOL    HW164559   5.551   8.480   2.256  0.2800 -0.0783  0.6755
17635SOL    HW264560   5.505   8.367   2.148  1.4686 -0.3193  0.4225
17636SOL     OW64561   0.798   9.081   2.258  0.5164  0.4917 -0.0081
17636SOL    HW164562   0.865   9.105   2.188  0.0320  1.1548 -0.2540
17636SOL    HW264563   0.708   9.118   2.232  0.0749 -0.3249  0.3533
17637SOL     OW64564   2.772   2.510   0.575  0.6256 -0.7085  0.7401
17637SOL    HW164565   2.852   2.513   0.636  0.6268 -2.6256  0.8942
17637SOL    HW264566   2.700   2.454   0.618 -0.0744 -0.5561 -0.2121
17638SOL     OW64567   9.639   4.233   6.457 -0.3805 -0.5154  0.2148
17638SOL    HW164568   9.696   4.285   6.393 -0.5124  0.0138  0.5189
17638SOL    HW264569   9.597   4.156   6.410 -1.2012  0.3951 -0.5661
17639SOL     OW64570   0.683   1.696   0.897 -0.0257  0.4141  0.3617
17639SOL    HW164571   0.668   1.790   0.925  0.3384  0.6155 -0.1128
17639SOL    HW264572   0.683   1.690   0.797  1.6706  0.2171  0.3532
17640SOL     OW64573   7.873   6.764   7.048 -0.0339  0.1765 -0.8114
17640SOL    HW164574   7.895   6.858   7.023  0.2141 -0.1949 -2.0500
17640SOL    HW264575   7.858   6.710   6.964 -1.0467 -0.6704 -0.0967
17641SOL     OW64576   2.719   9.608   2.633 -0.0305  0.2375  0.3639
17641SOL    HW164577   2.735   9.669   2.710 -0.9105  1.9560 -0.7909
17641SOL    HW264578   2.648   9.542   2.657  0.5643 -0.0255  1.4441
17642SOL     OW64579   3.131   5.513   1.555  0.4739 -0.1049 -0.3578
17642SOL    HW164580   3.223   5.548   1.566  0.8180 -0.7358 -1.1713
17642SOL    HW264581   3.069   5.587   1.529  0.4143  0.6432  1.8230
17643SOL     OW64582   7.085   8.101   6.669  0.0114  0.2623 -0.3901
17643SOL    HW164583   6.992   8.135   6.682 -0.6924 -2.0128  0.8008
17643SOL    HW264584   7.086   8.002   6.680  2.4258  0.1458 -1.3615
17644SOL     OW64585   1.201   8.599   8.158 -0.0269 -0.7394  0.0372
17644SOL    HW164586   1.207   8.695   8.134  0.7239 -0.9439 -0.6176
17644SOL    HW264587   1.113   8.580   8.200 -0.0318  0.3064  0.5020
17645SOL     OW64588   8.158   6.440   1.938 -0.0095  0.9965  0.3787
17645SOL    HW164589   8.104   6.395   2.009 -1.4022  1.7854 -0.1488
17645SOL    HW264590   8.118   6.420   1.848  1.6836  0.0714 -0.1963
17646SOL     OW64591   2.611   4.270   5.482  0.8101 -0.3526 -0.3710
17646SOL    HW164592   2.675   4.195   5.501  0.4415 -0.5625  0.0667
17646SOL    HW264593   2.646   4.354   5.523  0.4127 -0.6398  0.5946
17647SOL     OW64594   3.738   9.516   1.203  0.4008  0.2597 -0.4158
17647SOL    HW164595   3.766   9.490   1.296 -1.6571  1.3758  0.5606
17647SOL    HW264596   3.817   9.515   1.143  1.8672 -0.0295  1.4604
17648SOL     OW64597   1.980   8.821   5.789  0.8247  0.2679 -0.0466
17648SOL    HW164598   1.956   8.723   5.792  0.6312  0.3503  1.0881
17648SOL    HW264599   1.997   8.847   5.694 -0.8422 -0.4567 -0.5613
17649SOL     OW64600   0.385   3.784   7.017 -0.0021  0.3584  0.5719
17649SOL    HW164601   0.309   3.841   6.985 -1.5278 -1.4640  0.8584
17649SOL    HW264602   0.376   3.769   7.115  0.0772 -0.7946  0.4125
17650SOL     OW64603   2.880   0.304   2.011  0.2445 -0.3745 -0.3163
17650SOL    HW164604   2.959   0.248   1.986 -0.6506 -1.3357 -1.0199
17650SOL    HW264605   2.870   0.305   2.111 -0.6771 -2.8166 -0.3483
17651SOL     OW64606   4.442   9.302   7.304 -0.4131  0.2600  0.4264
17651SOL    HW164607   4.452   9.269   7.210  0.5328  0.7057  0.3638
17651SOL    HW264608   4.381   9.241   7.355  0.2226 -0.7920 -0.0667
17652SOL     OW64609   9.201   9.294   2.578  0.2894 -0.3948  0.4347
17652SOL    HW164610   9.168   9.200   2.585  1.2526 -0.6874  1.2558
17652SOL    HW264611   9.297   9.297   2.606  1.0525  0.3836 -2.1219
17653SOL     OW64612   4.027   1.629   4.673 -0.8478  0.4419  0.2832
17653SOL    HW164613   3.961   1.558   4.699 -2.7518  1.5922 -1.2878
17653SOL    HW264614   4.018   1.707   4.734 -0.7526  0.5161  0.2019
17654SOL     OW64615   8.598   5.926   3.918  0.3075  0.0484  0.2039
17654SOL    HW164616   8.514   5.977   3.900 -1.8176 -2.6225  2.2289
17654SOL    HW264617   8.621   5.870   3.838 -0.8566 -0.5730  0.2930
17655SOL     OW64618   7.758   3.873   5.418 -0.4096 -0.3786  0.1450
17655SOL    HW164619   7.715   3.945   5.363  0.7618  0.2583  0.0483
17655SOL    HW264620   7.839   3.838   5.369 -0.7245 -1.4636  0.3894
17656SOL     OW64621   4.038   4.431   5.579  0.1235 -0.3181  0.4690
17656SOL    HW164622   3.972   4.503   5.603  0.7329  0.4786 -0.2308
17656SOL    HW264623   4.072   4.388   5.662  1.9194  2.1475  1.0787
17657SOL     OW64624   3.878   0.558   4.441  0.3055  0.2401 -0.4175
17657SOL    HW164625   3.801   0.604   4.484 -0.1194 -0.3641 -0.5254
17657SOL    HW264626   3.930   0.508   4.510  0.0413 -0.1383 -0.4895
17658SOL     OW64627   8.495   7.691   3.550  0.3136  0.3569 -0.1705
17658SOL    HW164628   8.466   7.599   3.526  0.6568 -0.2365  1.6583
17658SOL    HW264629   8.566   7.721   3.486  2.2616 -1.7620  0.9143
17659SOL     OW64630   9.832   8.520   5.144  0.5138 -0.1326 -0.4714
17659SOL    HW164631   9.750   8.501   5.198 -0.3258 -0.8924 -1.9551
17659SOL    HW264632   9.872   8.607   5.172 -0.2895 -0.1916  0.8828
17660SOL     OW64633   9.189   0.513   7.799 -0.1109 -0.1388 -0.2196
17660SOL    HW164634   9.200   0.526   7.700 -1.3153 -0.5871 -0.4120
17660SOL    HW264635   9.161   0.419   7.818 -0.7848  0.2034  0.4821
17661SOL     OW64636   9.327   5.943   2.348 -0.1641 -0.1080 -0.1191
17661SOL    HW164637   9.339   5.916   2.253  0.4233 -0.6074  0.0953
17661SOL    HW264638   9.254   6.011   2.354 -0.8647 -0.7873 -0.8078
17662SOL     OW64639   3.283   0.157   7.348 -0.1064  0.0960 -0.0357
17662SOL    HW164640   3.370   0.206   7.344  0.2851 -0.6775 -1.2295
17662SOL    HW264641   3.217   0.201   7.288 -0.4952  0.5816  0.7401
17663SOL     OW64642   5.891   8.993   4.019  0.3003  0.3108  0.1666
17663SOL    HW164643   5.842   8.959   3.939 -0.7245  1.5773  0.2434
17663SOL    HW264644   5.882   9.092   4.024 -1.2333  0.0912  2.8673
17664SOL     OW64645   1.792   8.081   5.509  0.1359  0.2076  0.0915
17664SOL    HW164646   1.863   8.151   5.500 -0.1553  0.3176 -1.3743
17664SOL    HW264647   1.797   8.017   5.432  0.0339 -1.0632  1.1178
17665SOL     OW64648   1.188   5.893   5.618  0.0519 -0.9394  0.2982
17665SOL    HW164649   1.204   5.912   5.521 -1.0115  0.3071  0.3564
17665SOL    HW264650   1.140   5.970   5.660 -1.6418 -2.4954  1.2676
17666SOL     OW64651   3.588   2.641   7.162 -0.1983 -0.0417  0.2782
17666SOL    HW164652   3.682   2.675   7.156 -1.0065  2.2100  0.1449
17666SOL    HW264653   3.524   2.717   7.156 -2.0496 -1.5351  0.5731
17667SOL     OW64654   6.232   8.956   3.223 -0.4342 -0.0036 -0.5068
17667SOL    HW164655   6.204   8.972   3.128 -0.5225  1.7154 -0.1885
17667SOL    HW264656   6.200   9.030   3.281  0.7837 -0.3604  0.6504
17668SOL     OW64657   2.498   9.929   7.903 -0.2781  0.5742  0.4155
17668SOL    HW164658   2.480   9.910   7.806 -2.0705  1.0608  0.6471
17668SOL    HW264659   2.551   9.854   7.942 -3.1004 -1.6796  0.0843
17669SOL     OW64660   9.899   2.963   7.328 -0.2751  0.4070 -0.2406
17669SOL    HW164661   9.801   2.963   7.349 -0.2655 -0.6008 -0.1845
17669SOL    HW264662   9.915   3.010   7.241 -1.0732 -1.5835 -1.4842
17670SOL     OW64663   6.133   8.670   4.788  0.1924 -0.3705  0.4143
17670SOL    HW164664   6.106   8.691   4.882 -0.9359  1.3803 -0.2755
17670SOL    HW264665   6.061   8.616   4.744  0.4954 -0.7676  0.4018
17671SOL     OW64666   6.140   0.292   3.727 -0.1483  0.4438  0.6243
17671SOL    HW164667   6.122   0.325   3.635  1.4317  1.7987  0.7791
17671SOL    HW264668   6.207   0.218   3.724  0.9667  1.4271  0.7761
17672SOL     OW64669   2.044   0.292   5.829 -0.0982  0.1692 -0.6556
17672SOL    HW164670   1.993   0.372   5.799  1.7478  0.8941 -1.9746
17672SOL    HW264671   2.104   0.317   5.905 -0.6222 -0.3489 -0.0546
17673SOL     OW64672   0.663   6.737   7.218  0.3271  0.0065  0.3506
17673SOL    HW164673   0.762   6.747   7.208  0.1866  0.6298 -0.4808
17673SOL    HW264674   0.625   6.693   7.136 -0.3270  1.5575 -0.2151
17674SOL     OW64675   1.441   6.787   2.129 -0.2632  0.2513  0.1457
17674SOL    HW164676   1.525   6.777   2.182  0.9673  0.2674 -1.7617
17674SOL    HW264677   1.408   6.697   2.102 -0.0040  0.3236 -0.4129
17675SOL     OW64678   7.092   3.340   0.547  0.4600 -0.0014  0.0366
17675SOL    HW164679   7.095   3.299   0.638 -0.3363 -1.1083 -0.4296
17675SOL    HW264680   7.138   3.281   0.481 -0.3922 -0.0048 -0.5712
17676SOL     OW64681   8.793   7.448   0.995 -0.3242  0.1076 -0.1538
17676SOL    HW164682   8.703   7.425   1.032 -0.5714 -0.6207 -1.1890
17676SOL    HW264683   8.864   7.412   1.055 -0.7106 -2.1086 -1.0042
17677SOL     OW64684   1.668   6.420   0.421  0.0866  0.2077  0.0092
17677SOL    HW164685   1.668   6.328   0.462 -1.3517  0.9210  1.6837
17677SOL    HW264686   1.679   6.412   0.322  0.2758 -1.7518  0.1586
17678SOL     OW64687   5.322   4.645   1.563 -0.2463  0.3364 -0.1267
17678SOL    HW164688   5.412   4.687   1.568 -0.5855  1.4253 -2.4892
17678SOL    HW264689   5.295   4.613   1.654  3.1126 -1.3198  0.3827
17679SOL     OW64690   8.937   3.449   1.722  0.1723  0.0462  0.7158
17679SOL    HW164691   9.005   3.481   1.788  0.2553  0.5651  0.3847
17679SOL    HW264692   8.981   3.429   1.635  0.0876 -0.8083  0.8710
17680SOL     OW64693   1.926   1.761   4.683 -0.8860  0.6440  0.3046
17680SOL    HW164694   1.982   1.842   4.701  2.3993 -1.3013 -0.5649
17680SOL    HW264695   1.870   1.776   4.601  1.1830  1.3913 -1.0164
17681SOL     OW64696   4.062   6.079   0.111  0.2151 -0.4157  0.1796
17681SOL    HW164697   4.065   6.139   0.190  0.5797 -0.3853  0.1418
17681SOL    HW264698   4.051   5.984   0.141 -2.5934 -0.1205  0.1649
17682SOL     OW64699   1.206   2.571   6.599  0.1456 -0.0713  0.0381
17682SOL    HW164700   1.122   2.612   6.565  1.1988  0.7889 -1.6199
17682SOL    HW264701   1.267   2.642   6.633  1.8713 -0.2009 -2.5960
17683SOL     OW64702   3.926   8.949   1.468  0.2836 -0.0772 -0.7501
17683SOL    HW164703   3.955   8.881   1.536  1.2481  1.3274  0.2751
17683SOL    HW264704   3.839   8.920   1.428 -0.3932 -0.8677  1.2135
17684SOL     OW64705   1.319   6.711   4.599 -0.8511  0.2513  0.2382
17684SOL    HW164706   1.271   6.623   4.604  0.2730 -0.2667  2.7646
17684SOL    HW264707   1.350   6.737   4.691  4.1103  0.3176 -1.3237
17685SOL     OW64708   0.598   3.071   2.507 -0.0175  0.0743  0.1383
17685SOL    HW164709   0.676   3.010   2.493  0.7797  1.0470  0.2276
17685SOL    HW264710   0.519   3.018   2.536  1.1986 -0.7241  2.1870
17686SOL     OW64711   5.652   0.871   6.515  0.3040 -0.3419 -0.0565
17686SOL    HW164712   5.747   0.905   6.518  0.1780  0.0900 -0.6909
17686SOL    HW264713   5.649   0.785   6.464  0.1647  0.3329 -1.2007
17687SOL     OW64714   1.317   0.692   5.151  0.0729 -0.0381 -0.5503
17687SOL    HW164715   1.354   0.754   5.221 -1.4265 -0.7947  0.9723
17687SOL    HW264716   1.262   0.745   5.087 -0.2136  0.3971  0.0432
17688SOL     OW64717   6.449   1.072   2.389 -0.2882 -0.0629  0.5555
17688SOL    HW164718   6.376   1.015   2.350  0.1040 -0.4502  0.3886
17688SOL    HW264719   6.535   1.052   2.344 -0.1465  0.6788  0.4847
17689SOL     OW64720   8.228   4.092   3.760  0.3663 -0.0809  0.4831
17689SOL    HW164721   8.143   4.077   3.709  2.0727 -1.1528 -2.1568
17689SOL    HW264722   8.210   4.150   3.838 -2.6396  0.4571 -0.5474
17690SOL     OW64723   4.990   3.870   7.722 -0.1376 -1.0200 -0.0653
17690SOL    HW164724   5.085   3.881   7.753  1.2422  0.4672 -4.4872
17690SOL    HW264725   4.938   3.953   7.741  0.5136 -0.3774 -1.0403
17691SOL     OW64726   2.373   8.700   4.877 -0.8907  0.0953 -0.1626
17691SOL    HW164727   2.395   8.791   4.912  0.3129 -0.1522 -0.2547
17691SOL    HW264728   2.310   8.708   4.801 -2.5670  0.7205  1.2595
17692SOL     OW64729   3.032   3.355   6.185 -0.7227 -0.3281 -0.1624
17692SOL    HW164730   3.121   3.343   6.142 -1.0985 -0.3096 -0.9524
17692SOL    HW264731   2.979   3.271   6.175 -1.9833  0.7076 -2.4791
17693SOL     OW64732   0.637   5.282   3.906 -0.1933  0.0240 -0.3085
17693SOL    HW164733   0.538   5.286   3.888 -0.7336 -1.5287  1.9852
17693SOL    HW264734   0.659   5.193   3.946  1.8901  0.9360  0.6244
17694SOL     OW64735   9.241   1.656   3.806 -0.0340  0.3006 -0.1414
17694SOL    HW164736   9.283   1.721   3.743 -0.6230  1.6957  0.8906
17694SOL    HW264737   9.147   1.636   3.777 -0.2877  0.9033  0.2543
17695SOL     OW64738   1.765   3.195   2.954  0.3736 -0.0459  0.4945
17695SOL    HW164739   1.771   3.168   3.050 -1.9024  1.0912  0.9964
17695SOL    HW264740   1.705   3.274   2.945  3.3067  2.0694 -1.4791
17696SOL     OW64741   9.482   8.957   0.210  0.5802 -0.4752  0.2528
17696SOL    HW164742   9.389   8.928   0.189  0.5781 -1.5657  1.6385
17696SOL    HW264743   9.500   9.046   0.169 -1.5566  0.4088  1.1533
17697SOL     OW64744   2.939   6.027   6.358 -0.0454  0.7435 -0.3993
17697SOL    HW164745   2.887   6.065   6.434  1.7595  0.8184  0.8377
17697SOL    HW264746   3.034   6.058   6.363  0.7021 -1.3054 -1.2243
17698SOL     OW64747   2.951   7.751   1.201 -0.3523 -0.8366 -0.5366
17698SOL    HW164748   2.997   7.801   1.274  2.2600 -2.3203 -1.0754
17698SOL    HW264749   2.912   7.816   1.136  2.6864  0.5734 -1.0569
17699SOL     OW64750   0.303   5.126   3.632  0.1704 -0.1474 -0.3384
17699SOL    HW164751   0.393   5.093   3.601  0.4218  0.0099  0.2120
17699SOL    HW264752   0.231   5.083   3.578  0.5172 -1.2909  0.1029
17700SOL     OW64753   4.412   8.975   1.640 -0.3218 -0.0109 -0.0641
17700SOL    HW164754   4.508   8.966   1.615 -0.2618  0.3207  0.0460
17700SOL    HW264755   4.386   9.071   1.638 -0.0328  0.1313  2.2201
17701SOL     OW64756   1.365   9.506   0.950  0.1192  0.2620 -0.2073
17701SOL    HW164757   1.270   9.515   0.919 -0.4217 -0.9251  1.0531
17701SOL    HW264758   1.426   9.547   0.882 -1.1437 -0.7637 -2.0104
17702SOL     OW64759   6.248   8.043   2.815 -0.5433  0.2828 -0.5790
17702SOL    HW164760   6.342   8.022   2.786 -0.6449 -0.0781 -0.6518
17702SOL    HW264761   6.236   8.017   2.911 -0.2240  1.4281 -0.2249
17703SOL     OW64762   0.681   6.948   3.840 -0.4404 -0.0323 -0.7696
17703SOL    HW164763   0.757   7.010   3.860  1.4149 -2.4116 -0.2334
17703SOL    HW264764   0.678   6.931   3.741 -1.6674  1.7594 -1.0627
17704SOL     OW64765   6.008   7.556   3.676  0.4127 -0.4562  0.0419
17704SOL    HW164766   5.937   7.626   3.666  0.9728  0.0826 -0.2264
17704SOL    HW264767   6.095   7.600   3.699  0.4082 -1.2151  1.5174
17705SOL     OW64768   9.985   6.802   0.545  0.0181  0.1949 -0.3283
17705SOL    HW164769  10.067   6.806   0.603 -0.5700 -0.5580  0.5749
17705SOL    HW264770  10.004   6.745   0.465  0.8689  1.3227 -0.9358
17706SOL     OW64771   7.492   5.481   0.221 -0.4427  0.6044 -0.0371
17706SOL    HW164772   7.448   5.459   0.134 -1.0797 -0.0475  0.4521
17706SOL    HW264773   7.562   5.412   0.241  0.2780  1.2103 -0.4312
17707SOL     OW64774   5.302   8.394   5.928 -0.4066  0.0436 -0.1375
17707SOL    HW164775   5.225   8.368   5.869 -0.8549  1.3194 -0.1416
17707SOL    HW264776   5.273   8.390   6.024 -1.3524  3.0981 -0.2295
17708SOL     OW64777   3.726   1.170   0.271 -0.1518 -0.6065  0.1589
17708SOL    HW164778   3.757   1.121   0.352 -1.2031  0.6671  1.3485
17708SOL    HW264779   3.766   1.262   0.269  1.1027 -1.1734 -1.5846
17709SOL     OW64780   7.988   0.354   3.440  0.0152  0.6739 -0.1395
17709SOL    HW164781   8.069   0.411   3.455 -0.5189  1.3342  0.2747
17709SOL    HW264782   8.016   0.261   3.418  0.8867  0.7964  0.4272
17710SOL     OW64783   7.883   5.827   4.052  0.0007  0.0923  0.9930
17710SOL    HW164784   7.924   5.783   4.133  0.1935  1.2922  1.5529
17710SOL    HW264785   7.785   5.838   4.067 -0.2106 -1.0261  0.4499
17711SOL     OW64786   3.122   7.247   6.052  0.1240  0.5312  0.5445
17711SOL    HW164787   3.176   7.286   6.126  0.3655 -0.5046  0.9208
17711SOL    HW264788   3.025   7.267   6.066  0.2657  1.1675  0.6204
17712SOL     OW64789   3.438   6.601   5.629 -0.6203 -0.3306 -0.7275
17712SOL    HW164790   3.426   6.507   5.661  0.9071 -0.1964  0.3017
17712SOL    HW264791   3.529   6.634   5.655 -1.5347  1.8240 -0.0627
17713SOL     OW64792   1.005   0.370   6.294 -0.5887  0.9842  0.0560
17713SOL    HW164793   1.036   0.330   6.380  0.1062  2.0171  0.2984
17713SOL    HW264794   0.917   0.330   6.268 -0.3112 -0.0738  0.7138
17714SOL     OW64795   2.135   7.494   6.607  0.3019  0.4564  0.3027
17714SOL    HW164796   2.134   7.395   6.615  0.4460  0.5179  1.1096
17714SOL    HW264797   2.228   7.525   6.586  0.1267  0.3775 -0.6468
17715SOL     OW64798   7.861   5.939   7.866  0.2722 -0.3228  0.0354
17715SOL    HW164799   7.890   5.843   7.865  1.2379 -0.0384  0.3105
17715SOL    HW264800   7.867   5.976   7.773  1.3748 -0.0925  0.2001
17716SOL     OW64801   7.984   8.874   2.256 -0.5536 -0.5435  0.5735
17716SOL    HW164802   8.036   8.828   2.329 -1.0309 -1.5149  0.3084
17716SOL    HW264803   7.900   8.913   2.295  0.2346  0.7837  0.9474
17717SOL     OW64804   4.623   2.602   0.427  0.1832  0.0406 -0.4063
17717SOL    HW164805   4.581   2.692   0.439  0.9534  0.6208 -1.9377
17717SOL    HW264806   4.719   2.613   0.400  0.3743 -1.2439 -0.2984
17718SOL     OW64807   6.229   5.420   1.226  0.0539 -0.3705  0.3022
17718SOL    HW164808   6.147   5.364   1.224 -1.1207  1.3138  0.4276
17718SOL    HW264809   6.267   5.420   1.319 -0.7454  0.1950  0.6277
17719SOL     OW64810   5.044   0.664   1.532  0.5388  0.2187  0.0109
17719SOL    HW164811   4.975   0.684   1.602 -1.0581 -1.7461 -0.9554
17719SOL    HW264812   5.128   0.633   1.577 -1.0079 -2.6413  1.0681
17720SOL     OW64813   4.470   5.850   0.949 -0.4418 -0.9350  0.0406
17720SOL    HW164814   4.383   5.881   0.911  0.3853  0.2117 -0.9315
17720SOL    HW264815   4.471   5.750   0.954 -0.9573 -1.0633 -2.0215
17721SOL     OW64816   8.706   8.314   6.445 -0.0629  1.0622  0.1494
17721SOL    HW164817   8.755   8.320   6.533 -0.4450 -1.0244  0.5427
17721SOL    HW264818   8.761   8.357   6.374  2.3610 -1.1494  0.5962
17722SOL     OW64819   8.165   8.069   3.338 -0.0913 -0.3920  0.1909
17722SOL    HW164820   8.263   8.054   3.323 -0.0190 -0.9310  1.1935
17722SOL    HW264821   8.120   8.084   3.250  0.9874  0.4647 -0.2330
17723SOL     OW64822   7.682   9.364   1.822  0.3129  0.2669  0.5972
17723SOL    HW164823   7.761   9.425   1.822  0.4182  0.1346  1.2015
17723SOL    HW264824   7.686   9.304   1.742  0.7710  0.3298  0.5698
17724SOL     OW64825   2.599   1.011   2.939  0.0468 -0.1531 -0.0883
17724SOL    HW164826   2.693   0.992   2.913 -0.1728 -0.8751 -0.3515
17724SOL    HW264827   2.541   0.932   2.918 -0.4245 -0.1264  1.0608
17725SOL     OW64828   0.484   7.025   1.989  0.2066  0.3314  0.3818
17725SOL    HW164829   0.498   6.949   1.926  0.0772 -0.0501  0.8088
17725SOL    HW264830   0.386   7.035   2.008  0.1327  1.2975 -0.5253
17726SOL     OW64831   7.702   1.741   5.720 -0.0339 -0.0840  0.6687
17726SOL    HW164832   7.612   1.784   5.712  0.0078 -0.1398 -0.2293
17726SOL    HW264833   7.698   1.667   5.788 -0.6266  0.0151  0.7440
17727SOL     OW64834   4.890   8.659   4.764  0.0934  0.1662 -0.3254
17727SOL    HW164835   4.969   8.672   4.704 -0.5351  0.7645 -1.0340
17727SOL    HW264836   4.921   8.627   4.853  1.1583  0.6379 -0.5203
17728SOL     OW64837   7.577   1.152   6.142 -0.3070  0.1510 -0.1405
17728SOL    HW164838   7.501   1.143   6.078 -0.3981  0.5110 -0.0862
17728SOL    HW264839   7.565   1.236   6.197 -0.5120 -0.4294  0.7159
17729SOL     OW64840   1.853   4.366   4.053 -0.1446 -0.6015  0.4097
17729SOL    HW164841   1.843   4.381   4.151  1.7076 -0.9791  0.6800
17729SOL    HW264842   1.868   4.269   4.035 -0.0175 -0.4730 -0.1990
17730SOL     OW64843   1.488   1.406   6.306 -0.1092 -0.0521  0.0224
17730SOL    HW164844   1.581   1.429   6.337  0.6873 -2.7528 -0.1919
17730SOL    HW264845   1.492   1.322   6.253 -2.9101 -1.0112  1.2697
17731SOL     OW64846   8.054   8.209   2.497  0.6731  0.3693 -0.5943
17731SOL    HW164847   7.973   8.234   2.549  2.2769  2.0606  1.1924
17731SOL    HW264848   8.036   8.125   2.445 -1.3606 -0.7323  1.7788
17732SOL     OW64849   6.314   2.531   4.729 -0.7760 -0.0119  0.6970
17732SOL    HW164850   6.250   2.604   4.705  0.4166  0.7683 -0.1030
17732SOL    HW264851   6.391   2.569   4.781 -0.1505 -0.6931  0.2721
17733SOL     OW64852   9.479   2.465   0.987  0.1879 -0.2121 -1.0724
17733SOL    HW164853   9.490   2.497   1.081  0.9300 -2.1622 -0.4786
17733SOL    HW264854   9.470   2.366   0.987  0.3100 -0.2304 -3.0813
17734SOL     OW64855   1.714   0.658   1.219 -0.5686 -0.5039  0.4773
17734SOL    HW164856   1.618   0.675   1.198 -0.7107  0.4655  1.8637
17734SOL    HW264857   1.744   0.576   1.170 -1.7295 -0.0910 -0.9787
17735SOL     OW64858   8.596   0.692   4.099  0.3701 -0.9503  0.7641
17735SOL    HW164859   8.604   0.624   4.172  2.0912 -2.2189 -0.5818
17735SOL    HW264860   8.588   0.646   4.011 -0.7080  0.5832  0.0356
17736SOL     OW64861   9.084   5.529   5.322 -0.6321  0.3772  0.2426
17736SOL    HW164862   9.147   5.548   5.398 -0.2649  1.3905 -0.3172
17736SOL    HW264863   9.042   5.439   5.336  2.3099 -1.1422 -0.2999
17737SOL     OW64864   1.312   9.182   1.340 -0.2626  0.1124  0.3132
17737SOL    HW164865   1.319   9.211   1.244 -0.3014  1.0237  0.5814
17737SOL    HW264866   1.261   9.251   1.392 -1.1501 -0.8799  0.7751
17738SOL     OW64867   7.801   6.029   3.698  0.5901 -0.4991 -0.4141
17738SOL    HW164868   7.869   6.101   3.689  0.4604 -0.4726 -1.2276
17738SOL    HW264869   7.844   5.947   3.736  0.9655 -0.3298 -0.4730
17739SOL     OW64870   7.184   6.094   2.102  0.8706  0.1860  0.3478
17739SOL    HW164871   7.118   6.076   2.029  1.4373  0.8161 -0.3224
17739SOL    HW264872   7.207   6.008   2.148 -0.9092  0.0517  1.0129
17740SOL     OW64873   6.018   8.342   4.050 -0.5017 -0.0511  0.5930
17740SOL    HW164874   6.042   8.385   4.137  0.2392  0.9786 -0.1107
17740SOL    HW264875   6.063   8.391   3.975  0.1127 -1.8611 -0.2501
17741SOL     OW64876   8.132   2.324   1.628  0.2788  0.0070 -0.2935
17741SOL    HW164877   8.185   2.327   1.713  1.1120  0.5880 -0.8211
17741SOL    HW264878   8.154   2.240   1.578 -1.0178 -0.8633  0.5597
17742SOL     OW64879   0.671   6.198   6.733 -0.2276 -0.3333 -0.0683
17742SOL    HW164880   0.698   6.225   6.641 -0.7840 -2.4497 -0.8815
17742SOL    HW264881   0.752   6.173   6.786 -0.1194 -1.7242 -0.8637
17743SOL     OW64882   9.562   2.834   1.077  0.4277  0.0116 -0.2700
17743SOL    HW164883   9.552   2.757   1.014  1.3730  1.9011 -2.8280
17743SOL    HW264884   9.659   2.844   1.102  0.2208 -0.0200  0.5382
17744SOL     OW64885   5.969   1.308   3.699 -0.1628 -0.1772  0.3344
17744SOL    HW164886   5.930   1.324   3.790 -0.8675  1.0712 -0.1670
17744SOL    HW264887   5.988   1.210   3.687 -1.8611 -0.6248  1.1145
17745SOL     OW64888   7.376   4.846   0.753 -0.0311 -0.4850  0.0876
17745SOL    HW164889   7.365   4.909   0.830 -1.8711  0.0147 -0.5491
17745SOL    HW264890   7.286   4.829   0.711  1.1238  0.4293 -2.8836
17746SOL     OW64891   8.840   2.112   1.052 -0.0572  0.5706  0.2294
17746SOL    HW164892   8.828   2.088   1.149 -1.8688  1.3546  0.2097
17746SOL    HW264893   8.820   2.031   0.996  1.9934 -0.1818  0.5251
17747SOL     OW64894   0.491   4.591   4.936  0.4532 -0.0813 -0.2930
17747SOL    HW164895   0.484   4.544   5.023 -0.3924  0.1710 -0.2262
17747SOL    HW264896   0.582   4.575   4.897  0.2911 -1.4540 -0.1073
17748SOL     OW64897   1.667   7.141   6.555  0.1914 -0.0798  0.4838
17748SOL    HW164898   1.651   7.168   6.650  0.4395 -0.5711  0.6709
17748SOL    HW264899   1.581   7.146   6.504  0.2274  0.9733  0.5319
17749SOL     OW64900   7.674   8.613   2.415 -0.0142  0.4014  0.2134
17749SOL    HW164901   7.632   8.697   2.379  0.1475 -0.5284 -2.2822
17749SOL    HW264902   7.717   8.563   2.340 -0.8977 -2.3850  1.4709
17750SOL     OW64903   5.083   9.414   4.102 -0.0202  0.0955  0.3547
17750SOL    HW164904   5.139   9.453   4.174  0.7486  1.2295 -0.8400
17750SOL    HW264905   5.136   9.347   4.050 -0.5267 -0.6107  0.7269
17751SOL     OW64906   8.132   9.923   5.467  0.1052 -0.2060 -0.4243
17751SOL    HW164907   8.087   9.842   5.505  1.7730 -0.5279  0.8988
17751SOL    HW264908   8.150   9.908   5.370 -0.9318 -0.8109 -0.5419
17752SOL     OW64909   1.922   2.355   1.152  0.3702  0.0856 -0.1507
17752SOL    HW164910   1.927   2.305   1.239  0.5476  1.3571  0.5828
17752SOL    HW264911   1.844   2.417   1.153  0.7042  0.5267 -0.6655
17753SOL     OW64912   4.644   2.659   4.113 -0.0556 -0.6898 -0.4281
17753SOL    HW164913   4.639   2.574   4.166 -1.1099  0.5518  1.5370
17753SOL    HW264914   4.689   2.729   4.168 -0.2104  0.3339 -1.5996
17754SOL     OW64915   9.523   4.025   6.344 -0.2557  0.0822 -0.4004
17754SOL    HW164916   9.430   4.022   6.380 -0.1204 -0.1299 -0.0621
17754SOL    HW264917   9.524   4.077   6.259 -0.4466  1.2433  0.3017
17755SOL     OW64918   2.347   7.308   6.768 -0.3168  0.0218 -0.1329
17755SOL    HW164919   2.301   7.343   6.850 -0.8435  0.7249 -0.7261
17755SOL    HW264920   2.296   7.230   6.731  0.0940 -0.4977  0.3841
17756SOL     OW64921   0.054   0.070   6.677  0.0881  0.3888  0.0990
17756SOL    HW164922   0.074   0.136   6.605  2.3085  0.4918  0.7725
17756SOL    HW264923   0.128   0.070   6.744 -0.6407 -1.6361  0.9607
17757SOL     OW64924   4.968   7.809   6.137  0.3870 -0.0722 -0.3676
17757SOL    HW164925   4.980   7.722   6.183  0.9037  0.5219  0.6269
17757SOL    HW264926   5.041   7.822   6.069  1.8297  0.7358  1.2962
17758SOL     OW64927   1.793   7.614   4.080 -0.1083  0.2317  0.7325
17758SOL    HW164928   1.707   7.563   4.086  0.5238 -0.9283  0.2099
17758SOL    HW264929   1.837   7.594   3.993  0.4715  1.1938  0.7943
17759SOL     OW64930   3.743   3.477   1.025 -0.4203 -0.2229 -0.1678
17759SOL    HW164931   3.766   3.443   1.116  0.2353  0.3835 -0.1047
17759SOL    HW264932   3.689   3.561   1.034  1.6099  1.1183 -0.3442
17760SOL     OW64933   1.304   4.603   7.322 -0.5774 -0.2196  0.1081
17760SOL    HW164934   1.401   4.583   7.308 -0.2752  1.9340 -1.0038
17760SOL    HW264935   1.264   4.635   7.236 -2.2194 -0.8007  0.6325
17761SOL     OW64936   1.936   4.475   4.745 -0.5311 -0.1135 -0.2374
17761SOL    HW164937   1.887   4.427   4.818  0.8613  0.0708  0.8540
17761SOL    HW264938   2.010   4.416   4.711  1.0697  1.1418  0.9737
17762SOL     OW64939   8.002   0.198   0.647 -0.6209  0.0687 -0.5257
17762SOL    HW164940   8.045   0.137   0.713 -0.8817  0.4792  0.0330
17762SOL    HW264941   7.933   0.254   0.694 -0.8451  0.3256 -1.1566
17763SOL     OW64942   8.925   0.976   3.269 -0.4212  0.2847  0.4450
17763SOL    HW164943   8.914   0.981   3.368 -0.5455  1.0046  0.3941
17763SOL    HW264944   8.989   1.046   3.238  0.9585 -1.0381  0.2072
17764SOL     OW64945   8.851   8.452   5.442 -0.3625 -0.5624  0.0658
17764SOL    HW164946   8.935   8.424   5.488  1.4385  3.5601 -0.4276
17764SOL    HW264947   8.775   8.454   5.507  0.9352 -0.0571  1.5821
17765SOL     OW64948   4.230   1.613   1.917  0.3161 -0.1191 -0.5061
17765SOL    HW164949   4.221   1.521   1.955  0.9624  0.2179  0.4768
17765SOL    HW264950   4.247   1.607   1.818  0.0803 -1.0429 -0.4935
17766SOL     OW64951   7.189   8.996   5.111 -0.5222  0.5971  0.4662
17766SOL    HW164952   7.106   9.024   5.064 -0.4517  0.5682  0.3247
17766SOL    HW264953   7.174   8.907   5.155 -0.6373  0.6975  0.6277
17767SOL     OW64954   4.780   7.902   5.953  0.1651  0.1676 -0.1607
17767SOL    HW164955   4.839   7.882   6.032  1.8839  0.9171 -1.2253
17767SOL    HW264956   4.739   7.992   5.963 -1.2888 -0.5815  0.8520
17768SOL     OW64957   6.227   9.675   5.221 -0.5687  0.2824  0.0051
17768SOL    HW164958   6.277   9.683   5.135 -0.2583  1.3138  0.2748
17768SOL    HW264959   6.273   9.609   5.280 -0.2837  0.2241 -0.2821
17769SOL     OW64960   4.257   2.051   0.084 -0.3692 -0.0995  0.2856
17769SOL    HW164961   4.219   2.033   0.175  1.5359 -1.0240  0.9372
17769SOL    HW264962   4.183   2.063   0.018 -1.7670 -1.5654  1.5584
17770SOL     OW64963   6.383   0.577   1.459  0.0789 -0.0860 -0.5871
17770SOL    HW164964   6.329   0.549   1.380 -1.0110 -0.1977  0.1714
17770SOL    HW264965   6.352   0.527   1.540  0.5512  0.6827  0.0881
17771SOL     OW64966   4.446   8.781   1.854  0.0414 -0.0564  0.0614
17771SOL    HW164967   4.415   8.857   1.797 -0.6482  0.7076  1.4253
17771SOL    HW264968   4.524   8.736   1.810  0.3393  1.3148 -0.8544
17772SOL     OW64969   2.577   1.931   6.506 -0.1619 -0.3841 -0.4724
17772SOL    HW164970   2.661   1.982   6.486 -0.0487 -0.2948  0.2205
17772SOL    HW264971   2.566   1.858   6.439 -1.3101  1.7066 -2.6708
17773SOL     OW64972   8.059   2.548   8.060  0.7138  0.7421 -0.4020
17773SOL    HW164973   7.960   2.557   8.050  0.7485 -0.2011 -1.6837
17773SOL    HW264974   8.079   2.474   8.125  0.5892 -0.9791 -2.2847
17774SOL     OW64975   9.393   7.291   3.656  0.0852 -0.3235  0.2558
17774SOL    HW164976   9.468   7.228   3.634 -0.4291 -1.0213  0.4933
17774SOL    HW264977   9.406   7.324   3.750 -0.1253 -0.7693  0.4457
17775SOL     OW64978   0.134   4.676   6.560 -0.0570  0.0681  0.2173
17775SOL    HW164979   0.105   4.637   6.647 -0.2187  0.4669  0.3433
17775SOL    HW264980   0.068   4.745   6.531  1.1518  1.4958  0.8564
17776SOL     OW64981   4.847   1.020   0.286  0.1899 -0.5392 -0.0175
17776SOL    HW164982   4.839   1.119   0.301 -1.6715 -0.4508 -1.3595
17776SOL    HW264983   4.920   0.983   0.344 -1.3516  1.0607  3.0743
17777SOL     OW64984   1.402   3.602   3.670 -0.8847 -0.2473  0.1452
17777SOL    HW164985   1.424   3.698   3.688  1.9023 -1.2279  2.3962
17777SOL    HW264986   1.322   3.575   3.724 -2.8711  1.2667 -1.9687
17778SOL     OW64987   7.965   2.922   0.594  0.3082  0.2654  0.5915
17778SOL    HW164988   8.053   2.947   0.635 -0.1757  1.0861  1.1394
17778SOL    HW264989   7.891   2.954   0.653 -0.3872  0.7947 -0.5675
17779SOL     OW64990   8.554   8.572   6.517  0.4577  0.1027 -0.7822
17779SOL    HW164991   8.533   8.501   6.450  1.6800 -1.4833  0.4630
17779SOL    HW264992   8.652   8.574   6.534  0.3797  1.7750 -0.4286
17780SOL     OW64993   3.327   8.344   3.883  0.1843  0.1148 -0.0500
17780SOL    HW164994   3.325   8.389   3.972  0.3154 -2.8190  1.5126
17780SOL    HW264995   3.410   8.289   3.875 -1.7327 -2.8945 -0.2501
17781SOL     OW64996   2.757   8.523   7.197  0.6836 -0.1399 -0.1502
17781SOL    HW164997   2.823   8.472   7.142  0.8010  1.1230 -1.1954
17781SOL    HW264998   2.703   8.459   7.252 -0.6711 -1.5577 -3.0619
17782SOL     OW64999   5.729   2.286   5.239  0.3501  0.2866 -0.0273
17782SOL    HW165000   5.688   2.377   5.233 -0.9732 -0.3410 -0.7830
17782SOL    HW265001   5.697   2.230   5.163 -2.9982 -2.4533  3.2209
17783SOL     OW65002   9.204   3.517   4.280 -0.2531  0.0193  0.7986
17783SOL    HW165003   9.287   3.462   4.290 -0.0602 -0.2735 -1.9299
17783SOL    HW265004   9.224   3.611   4.305  1.4079  0.2954 -1.3500
17784SOL     OW65005   8.425   5.606   4.974 -0.5576  0.2062  0.0363
17784SOL    HW165006   8.412   5.537   4.903  0.5653  0.6509 -0.6235
17784SOL    HW265007   8.515   5.648   4.963 -1.3645  2.0320  0.2008
17785SOL     OW65008   5.826   5.410   8.132  0.3345 -0.6623 -0.3085
17785SOL    HW165009   5.755   5.387   8.066  1.7472 -1.7933 -1.4691
17785SOL    HW265010   5.916   5.398   8.089  1.2232  2.2623  0.6137
17786SOL     OW65011   9.278   6.574   7.853 -0.5777 -0.7350 -0.0053
17786SOL    HW165012   9.350   6.505   7.860 -0.0697 -0.3444 -1.4010
17786SOL    HW265013   9.310   6.651   7.799 -1.1424  0.6292  1.5426
17787SOL     OW65014   8.915   4.107   5.817  0.1622  0.4005 -0.1615
17787SOL    HW165015   8.942   4.077   5.908  0.9576  1.5678 -0.0117
17787SOL    HW265016   8.955   4.047   5.748 -1.9196 -1.6107  0.2964
17788SOL     OW65017   0.306   3.696   4.584  0.2872 -0.3643  0.3292
17788SOL    HW165018   0.266   3.755   4.654  1.5504  1.8128 -0.7030
17788SOL    HW265019   0.404   3.684   4.602  0.8547  1.0745 -1.5700
17789SOL     OW65020   6.952   1.512   0.062 -0.1096 -0.0162 -0.6843
17789SOL    HW165021   6.963   1.586   0.129 -2.8481 -1.1112  1.0353
17789SOL    HW265022   6.998   1.430   0.095  0.2856  0.0212 -1.1340
17790SOL     OW65023   7.825   3.868   7.917  0.1733  0.1654 -0.4714
17790SOL    HW165024   7.764   3.804   7.871  1.2588  0.8381 -2.8884
17790SOL    HW265025   7.818   3.958   7.876  2.5664  0.3239 -0.6312
17791SOL     OW65026   0.530   7.105   5.585  0.2747  0.7536  0.2074
17791SOL    HW165027   0.556   7.110   5.489  1.6692  0.7034  0.5734
17791SOL    HW265028   0.612   7.101   5.642 -0.5394  0.1162  1.3628
17792SOL     OW65029   1.247   5.943   6.939 -0.6032 -0.3921  0.1575
17792SOL    HW165030   1.346   5.935   6.950 -0.4807  0.6066 -0.1944
17792SOL    HW265031   1.218   6.035   6.965 -1.8615 -1.6061  3.3350
17793SOL     OW65032   2.895   0.989   3.214  0.4143  0.2495  0.0120
17793SOL    HW165033   2.952   1.024   3.288 -0.0848  1.5913 -0.2291
17793SOL    HW265034   2.940   0.909   3.172  1.2327  0.1796  1.0068
17794SOL     OW65035   0.020   1.993   8.022 -0.1173  0.3443 -0.4353
17794SOL    HW165036   0.023   2.081   8.070  0.5486  0.0243  0.1186
17794SOL    HW265037  -0.010   1.922   8.085 -0.0376  0.0636 -0.7113
17795SOL     OW65038   1.010   9.922   3.950  0.2578  0.3029 -0.2788
17795SOL    HW165039   0.974   9.937   4.042 -0.5094  1.1607 -0.7121
17795SOL    HW265040   0.975   9.993   3.888  0.0689 -0.7489 -1.4122
17796SOL     OW65041   8.902   1.890   1.540  0.1488  0.0035  0.2188
17796SOL    HW165042   8.880   1.801   1.578  0.4230  1.2064  3.3385
17796SOL    HW265043   8.974   1.933   1.595 -1.9712  3.3168  0.5769
17797SOL     OW65044   9.632   1.000   1.945 -0.5488  0.0918  0.1663
17797SOL    HW165045   9.557   0.938   1.920  0.2933  0.0743 -2.4283
17797SOL    HW265046   9.595   1.089   1.970 -1.4927 -0.1636 -0.2995
17798SOL     OW65047   7.179   9.685   5.708 -0.2129  0.1457 -0.0157
17798SOL    HW165048   7.188   9.780   5.737  0.0860 -0.1808  0.9573
17798SOL    HW265049   7.191   9.680   5.609 -0.1925  1.1118 -0.0719
17799SOL     OW65050   1.416   6.699   0.362 -0.1827 -0.4155  0.1976
17799SOL    HW165051   1.454   6.662   0.447  0.6424  2.9269  1.3692
17799SOL    HW265052   1.317   6.711   0.372 -0.3335 -1.4908  0.0870
17800SOL     OW65053   5.064   1.361   8.008  0.2222 -0.1358  0.4284
17800SOL    HW165054   5.004   1.282   8.017  0.9152 -0.6088  0.8934
17800SOL    HW265055   5.014   1.444   8.033 -0.4751 -0.4319  0.0267
17801SOL     OW65056   4.930   6.502   1.305 -0.1077 -0.5388  0.2758
17801SOL    HW165057   4.871   6.540   1.375 -0.3459 -0.1226 -0.1522
17801SOL    HW265058   4.986   6.575   1.265  0.7450 -0.9350  0.7228
17802SOL     OW65059   0.846   5.939   7.287 -0.2234  0.1545 -0.3516
17802SOL    HW165060   0.765   5.885   7.308  0.7587 -1.1267  0.2133
17802SOL    HW265061   0.866   5.933   7.189 -1.1664  0.9883 -0.5978
17803SOL     OW65062   8.120   6.102   8.008  0.5039 -0.0253 -0.0205
17803SOL    HW165063   8.023   6.126   8.005  1.1329  2.4845 -3.4765
17803SOL    HW265064   8.133   6.012   7.966 -0.3588 -0.4630  0.6385
17804SOL     OW65065   7.683   5.183   2.331 -0.3720  0.1055  0.3977
17804SOL    HW165066   7.633   5.147   2.410 -1.6566  0.4310 -0.2607
17804SOL    HW265067   7.721   5.273   2.354 -4.0746  2.0080 -0.5922
17805SOL     OW65068   7.878   9.178   2.869  0.5605 -0.2432  0.1018
17805SOL    HW165069   7.794   9.164   2.816  1.3186 -2.0448 -0.6704
17805SOL    HW265070   7.946   9.225   2.812  1.2166 -1.7701 -0.4015
17806SOL     OW65071   7.746   6.786   6.659  0.6496 -0.7685  0.5031
17806SOL    HW165072   7.796   6.856   6.709  0.1836  0.3405 -0.5381
17806SOL    HW265073   7.778   6.696   6.686  3.3010 -0.0844 -0.2458
17807SOL     OW65074   1.718   2.092   5.354 -0.0354 -0.2331 -0.2767
17807SOL    HW165075   1.730   2.185   5.389  1.4823 -0.2797 -0.6696
17807SOL    HW265076   1.623   2.064   5.369 -0.3335  1.1091  0.4807
17808SOL     OW65077   7.511   8.278   5.966 -0.0900 -1.0390 -0.0171
17808SOL    HW165078   7.546   8.249   5.876  0.1116  0.6586 -0.5017
17808SOL    HW265079   7.577   8.340   6.008 -1.2433 -0.0125  0.2874
17809SOL     OW65080   0.273   8.128   1.601  0.3966  0.0429 -0.2912
17809SOL    HW165081   0.203   8.082   1.546  1.6926 -2.9345  0.4370
17809SOL    HW265082   0.308   8.208   1.552 -3.3031  1.4547 -0.7731
17810SOL     OW65083   2.033   0.112   8.139  0.2547  0.1431 -0.2865
17810SOL    HW165084   1.954   0.117   8.078 -0.0443 -1.7739 -0.0727
17810SOL    HW265085   2.117   0.124   8.086  0.1626 -4.2251 -1.5710
17811SOL     OW65086   0.474   4.981   1.726 -0.7217 -0.1236  0.0846
17811SOL    HW165087   0.520   4.926   1.796 -2.5132 -1.9375 -0.1339
17811SOL    HW265088   0.540   5.047   1.688  1.7289 -2.6130 -0.1951
17812SOL     OW65089   2.474   0.081   3.291  0.3776 -0.2164  0.2917
17812SOL    HW165090   2.424   0.039   3.367  1.0869  0.3166  1.0658
17812SOL    HW265091   2.410   0.104   3.218 -0.5195  0.4646  1.2742
17813SOL     OW65092   2.368   6.932   1.957 -0.7836  0.0076 -0.3548
17813SOL    HW165093   2.345   7.001   1.888  1.7113  0.9746 -0.2927
17813SOL    HW265094   2.431   6.865   1.917  2.7163  1.9734  1.5436
17814SOL     OW65095   5.806   1.732   7.676 -0.2653  0.1060 -0.2942
17814SOL    HW165096   5.814   1.689   7.766  0.8625  0.2454 -0.3262
17814SOL    HW265097   5.876   1.803   7.667 -1.1401  0.9187 -0.8236
17815SOL     OW65098   4.021   3.392   6.801  0.3509 -0.4061  0.0905
17815SOL    HW165099   4.016   3.306   6.851 -1.2646 -0.5072 -0.2263
17815SOL    HW265100   3.998   3.375   6.705  0.6627  0.2651 -0.1000
17816SOL     OW65101   1.004   2.514   6.003 -0.0513  0.3584 -0.4355
17816SOL    HW165102   1.033   2.497   5.909 -0.1634  0.3946 -0.4759
17816SOL    HW265103   0.947   2.438   6.035  0.3826  0.1171 -0.2345
17817SOL     OW65104   9.049   0.998   1.417  0.6929 -0.1129  0.1400
17817SOL    HW165105   8.965   0.990   1.471  1.3709 -0.6284  1.1492
17817SOL    HW265106   9.128   0.984   1.477  1.4081 -3.3354 -1.4734
17818SOL     OW65107   5.436   4.500   1.281 -0.1031 -0.2021 -0.1371
17818SOL    HW165108   5.364   4.557   1.321 -1.6379 -1.9257 -0.4050
17818SOL    HW265109   5.425   4.497   1.182  1.1954  0.6784 -0.3097
17819SOL     OW65110   2.640   6.741   6.815 -0.2011  0.1993 -0.0428
17819SOL    HW165111   2.613   6.786   6.900  0.0470 -0.8446  0.5957
17819SOL    HW265112   2.564   6.744   6.750 -0.2204  1.4418  0.0235
17820SOL     OW65113   8.543   1.348   0.025  0.2834 -0.1177  0.5027
17820SOL    HW165114   8.576   1.334  -0.068  0.4448  0.3493  0.4900
17820SOL    HW265115   8.620   1.376   0.083  0.0326  0.3425  0.6113
17821SOL     OW65116   9.804   8.791   0.450 -0.1314 -0.6511 -0.3326
17821SOL    HW165117   9.706   8.811   0.437 -0.3002 -0.3710  1.2146
17821SOL    HW265118   9.857   8.873   0.430 -0.4333 -0.0423  1.2619
17822SOL     OW65119   6.126   7.169   4.611 -0.2649  0.4665 -0.1953
17822SOL    HW165120   6.092   7.261   4.627 -0.8155  0.3322 -0.5829
17822SOL    HW265121   6.202   7.150   4.673 -0.7240  0.8621  0.4900
17823SOL     OW65122   1.126   8.597   2.816  0.3333  0.1446  0.0046
17823SOL    HW165123   1.197   8.651   2.861  2.1535 -1.8996 -0.3246
17823SOL    HW265124   1.139   8.602   2.717 -0.2629  0.1259 -0.0746
17824SOL     OW65125   3.694   3.835   8.185  0.1705 -0.3939 -0.2477
17824SOL    HW165126   3.771   3.886   8.147  0.6580 -0.2178  0.9463
17824SOL    HW265127   3.722   3.741   8.203  0.0828 -0.3572  0.0899
17825SOL     OW65128   5.036   0.823   3.779  0.1771 -0.0959 -0.2322
17825SOL    HW165129   5.067   0.807   3.685  0.1214 -0.2032 -0.2325
17825SOL    HW265130   5.094   0.893   3.822  0.8196 -0.7538 -0.0240
17826SOL     OW65131   3.561   1.339   7.357  0.2089  0.2877 -0.3850
17826SOL    HW165132   3.660   1.341   7.345 -0.0612 -1.2918 -3.3588
17826SOL    HW265133   3.536   1.394   7.437  3.6404 -0.9840  1.6836
17827SOL     OW65134   9.988   8.920   7.022  0.5182 -0.0823 -0.4258
17827SOL    HW165135   9.943   9.009   7.021  0.9485  0.1565  0.3958
17827SOL    HW265136  10.067   8.922   6.961  1.0659  0.3978  0.2899
17828SOL     OW65137   3.040   2.103   2.052 -0.3958  0.1621 -0.2166
17828SOL    HW165138   3.097   2.048   2.112 -1.9992 -0.9891  0.3008
17828SOL    HW265139   3.093   2.130   1.971  1.5260  1.0433  1.3142
17829SOL     OW65140   8.782   1.002   2.536  0.0021  0.0240  0.2758
17829SOL    HW165141   8.733   0.924   2.497  1.2926 -1.0571  0.7764
17829SOL    HW265142   8.734   1.034   2.617 -0.9648  0.2590 -0.3839
17830SOL     OW65143   4.289   0.633   4.285  0.1255  0.6612 -0.0942
17830SOL    HW165144   4.320   0.653   4.192  0.3391  0.5122 -0.0549
17830SOL    HW265145   4.283   0.534   4.298  0.9793  0.6665  0.3428
17831SOL     OW65146   7.796   1.851   2.776  0.3209 -0.2662 -0.1833
17831SOL    HW165147   7.880   1.846   2.829  0.5107 -0.4784 -0.5048
17831SOL    HW265148   7.728   1.789   2.814  0.0197  0.5397  0.5986
17832SOL     OW65149   3.732   0.107   5.929 -0.3103  0.5093 -0.0555
17832SOL    HW165150   3.801   0.131   5.997  1.2145  2.1216 -2.1123
17832SOL    HW265151   3.776   0.087   5.842 -2.2229 -1.5777 -0.6175
17833SOL     OW65152   6.905   4.556   7.290  0.9663  0.0988 -0.2394
17833SOL    HW165153   6.975   4.597   7.348  1.4138 -2.4066  1.0059
17833SOL    HW265154   6.926   4.577   7.194  2.8532  0.2046  0.1790
17834SOL     OW65155   2.005   6.621   4.447  0.4287 -0.0382 -0.0170
17834SOL    HW165156   1.951   6.605   4.365 -0.3710  0.6039  0.3815
17834SOL    HW265157   1.956   6.683   4.508  0.1518 -2.0233  1.8249
17835SOL     OW65158   2.026   1.332   0.728 -0.2810  0.0519  0.1107
17835SOL    HW165159   1.949   1.345   0.666 -0.7965 -0.2489  0.6866
17835SOL    HW265160   2.097   1.279   0.682 -1.0603 -0.9940  0.1111
17836SOL     OW65161   0.973   7.164   6.621 -0.6886 -0.1250 -0.5186
17836SOL    HW165162   1.053   7.165   6.561 -0.2133 -0.0772  0.1042
17836SOL    HW265163   0.955   7.256   6.655  0.7310 -0.5801  1.5889
17837SOL     OW65164   2.921   6.053   0.305 -0.4792  0.1628 -0.0293
17837SOL    HW165165   2.947   6.077   0.212  3.0048 -2.5751  0.1662
17837SOL    HW265166   2.890   5.958   0.308  0.0803  0.0160  1.6834
17838SOL     OW65167   6.478   1.787   0.760 -0.3678  0.2175 -0.2075
17838SOL    HW165168   6.555   1.841   0.725 -0.8129  0.2951 -1.0645
17838SOL    HW265169   6.462   1.811   0.856 -0.2142  1.2118 -0.4284
17839SOL     OW65170   4.954   7.665   5.578 -0.2262  0.1502 -0.0919
17839SOL    HW165171   4.884   7.694   5.512 -0.5518 -0.8746 -0.1953
17839SOL    HW265172   5.037   7.639   5.528 -0.5432 -0.8284 -0.1181
17840SOL     OW65173   1.099   7.313   4.724  0.7699 -0.2096  0.2112
17840SOL    HW165174   1.179   7.281   4.674 -0.2246 -0.1660 -1.4372
17840SOL    HW265175   1.024   7.248   4.714 -0.7909  1.8529 -1.9358
17841SOL     OW65176   7.371   5.732   1.867 -0.1664  0.5973  0.2537
17841SOL    HW165177   7.292   5.761   1.921  1.3073  1.4340  2.0273
17841SOL    HW265178   7.446   5.797   1.881  1.7732 -1.6940  0.8442
17842SOL     OW65179   7.505   7.279   6.008 -0.5442  0.0225 -0.1092
17842SOL    HW165180   7.540   7.217   6.078  0.3586  1.1157  0.4241
17842SOL    HW265181   7.429   7.236   5.960 -1.0239 -0.8227  1.3902
17843SOL     OW65182   5.247   6.820   2.293 -0.3210 -0.6731  0.6669
17843SOL    HW165183   5.189   6.818   2.375 -0.8544  1.2715  0.3488
17843SOL    HW265184   5.194   6.855   2.215  0.8279 -0.3668  0.0176
17844SOL     OW65185   0.499   3.900   0.030  0.8689  0.4601  0.0032
17844SOL    HW165186   0.441   3.819   0.040  3.8329 -1.7516 -0.0864
17844SOL    HW265187   0.561   3.907   0.108  1.5020  1.9513 -0.6096
17845SOL     OW65188   0.702   6.852   6.864  0.2086  0.5741 -0.0068
17845SOL    HW165189   0.668   6.766   6.904 -0.2927  1.2398  1.0076
17845SOL    HW265190   0.629   6.895   6.811  0.1919  0.8132  0.2113
17846SOL     OW65191   9.947   4.786   4.231 -0.0768  0.0541  0.1386
17846SOL    HW165192   9.931   4.710   4.293  1.5378  0.5709  1.2232
17846SOL    HW265193   9.990   4.861   4.280  0.6271  0.7267 -1.4605
17847SOL     OW65194   3.282   9.141   2.745  0.7619  0.2359  0.2777
17847SOL    HW165195   3.198   9.095   2.776  0.0659  1.1507 -0.2273
17847SOL    HW265196   3.302   9.113   2.651  2.0702 -1.4180  1.0286
17848SOL     OW65197   3.300   5.652   7.388 -0.2250 -0.2293 -0.0686
17848SOL    HW165198   3.380   5.674   7.333 -0.9972  1.2076 -0.6458
17848SOL    HW265199   3.255   5.736   7.418 -2.6114 -0.9909 -1.3788
17849SOL     OW65200   4.680   7.172   4.386 -0.0942  0.4160 -0.4299
17849SOL    HW165201   4.740   7.112   4.439 -0.4138 -1.1172 -1.7595
17849SOL    HW265202   4.605   7.118   4.347  0.0087  1.5484 -2.2610
17850SOL     OW65203   0.370   3.523   3.591 -0.1034 -0.1034  0.0088
17850SOL    HW165204   0.377   3.499   3.688  1.7939  0.6130  0.0807
17850SOL    HW265205   0.296   3.589   3.578 -2.1253 -2.2007  0.5405
17851SOL     OW65206   7.583   1.803   4.526  0.0902  0.2938  0.0548
17851SOL    HW165207   7.491   1.765   4.534  0.5949 -0.6026  1.9039
17851SOL    HW265208   7.601   1.826   4.430 -2.9398  2.7737  0.0047
17852SOL     OW65209   7.667   3.305   4.643  0.2104 -0.3657  0.7115
17852SOL    HW165210   7.618   3.248   4.577 -2.8225  0.5677  2.0511
17852SOL    HW265211   7.708   3.383   4.595 -0.2806 -0.7482 -0.3537
17853SOL     OW65212   1.910   4.644   5.614  0.8448  0.4371  0.4519
17853SOL    HW165213   1.999   4.615   5.648  0.7469 -0.4173  0.0135
17853SOL    HW265214   1.921   4.688   5.524  0.9385  1.3029  0.8853
17854SOL     OW65215   1.548   9.909   0.813  0.0471 -0.1603 -0.0096
17854SOL    HW165216   1.457   9.933   0.778  0.5181 -0.0536 -1.1820
17854SOL    HW265217   1.547   9.911   0.913 -0.8643  1.2434 -0.0357
17855SOL     OW65218   0.612   3.243   4.155 -0.1035  0.1065 -0.7178
17855SOL    HW165219   0.563   3.165   4.115 -0.4801 -0.7064  1.2617
17855SOL    HW265220   0.551   3.322   4.158 -0.8136 -0.4473  0.2165
17856SOL     OW65221   0.671   5.703   3.932 -0.0081  0.0518  0.0020
17856SOL    HW165222   0.643   5.631   3.995  2.1504 -0.1601  0.7570
17856SOL    HW265223   0.688   5.664   3.842 -0.9048 -0.0293 -0.1310
17857SOL     OW65224   1.140   3.057   8.015  0.1227  0.3758 -0.7111
17857SOL    HW165225   1.131   3.075   7.917 -1.0000  0.4336 -0.6035
17857SOL    HW265226   1.061   3.004   8.046  2.7954 -3.7877 -0.7805
17858SOL     OW65227   1.158   9.296   0.822  0.4293 -0.5413 -0.2299
17858SOL    HW165228   1.108   9.382   0.828  0.9889 -0.2683  0.5228
17858SOL    HW265229   1.098   9.225   0.783 -1.3404 -0.8570  2.9334
17859SOL     OW65230   8.870   8.019   2.837 -0.1330  0.2008  0.5095
17859SOL    HW165231   8.793   8.050   2.893 -0.4487 -0.5045  0.4665
17859SOL    HW265232   8.868   7.919   2.829 -0.1110  0.2894 -0.7736
17860SOL     OW65233   5.380   5.550   1.411  0.0243  0.2028  0.3616
17860SOL    HW165234   5.315   5.608   1.361 -0.2515  0.5941  1.1669
17860SOL    HW265235   5.440   5.504   1.346 -1.3592 -0.5338 -0.4391
17861SOL     OW65236   4.268   8.939   3.700  0.9603 -0.4494 -0.0771
17861SOL    HW165237   4.336   8.888   3.753  0.3352  1.3263  2.5409
17861SOL    HW265238   4.305   9.029   3.679  0.5245 -0.5340 -1.1958
17862SOL     OW65239   4.914   8.413   3.784 -0.6827 -0.0963 -0.6032
17862SOL    HW165240   4.962   8.496   3.811  1.5610 -1.6034  0.2660
17862SOL    HW265241   4.896   8.414   3.686 -0.1757  1.1676 -0.6857
17863SOL     OW65242   8.411   9.919   7.244 -0.2795  0.8643 -0.3607
17863SOL    HW165243   8.363   9.832   7.241 -0.5418  1.0291 -1.0189
17863SOL    HW265244   8.359   9.988   7.193 -1.6027  2.1853  2.6188
17864SOL     OW65245   8.091   2.524   2.973 -0.0184 -0.1926 -0.6000
17864SOL    HW165246   8.150   2.451   3.007  1.1239  0.6802 -0.6608
17864SOL    HW265247   8.136   2.571   2.898  0.0943  1.7924  0.6681
17865SOL     OW65248   8.217   8.523   6.427 -0.4507 -0.5311  0.0410
17865SOL    HW165249   8.289   8.576   6.382 -0.8171  0.8629  1.0636
17865SOL    HW265250   8.158   8.482   6.358  0.1900 -0.1080 -0.7755
17866SOL     OW65251   7.777   7.062   2.476  0.4777 -0.4951  0.2792
17866SOL    HW165252   7.758   7.056   2.378  0.9904 -1.1046  0.2158
17866SOL    HW265253   7.697   7.100   2.523  0.1455 -0.4207 -0.3398
17867SOL     OW65254   0.808   0.975   1.664  0.0370  0.6155 -0.1965
17867SOL    HW165255   0.776   1.069   1.678  0.7031  1.1123 -1.9096
17867SOL    HW265256   0.783   0.946   1.572 -0.7705 -1.1488  0.5627
17868SOL     OW65257   9.752   3.886   1.676 -0.1342 -0.1102 -0.1085
17868SOL    HW165258   9.736   3.806   1.734 -0.7585 -0.3852 -0.6573
17868SOL    HW265259   9.825   3.865   1.611 -1.5164 -0.8597 -1.4376
17869SOL     OW65260   1.784   0.846   6.276  1.2093 -0.1034  0.2012
17869SOL    HW165261   1.865   0.903   6.273  1.2785 -0.2560 -0.8852
17869SOL    HW265262   1.737   0.848   6.188  1.4227 -2.0138  0.0174
17870SOL     OW65263   7.400   3.151   5.183  0.6821 -0.1690  0.0143
17870SOL    HW165264   7.475   3.086   5.174  0.4895 -0.5342  0.9404
17870SOL    HW265265   7.328   3.111   5.241  2.3628  2.4161  4.0868
17871SOL     OW65266   4.755   1.866   0.564  0.6365  0.3355 -0.1756
17871SOL    HW165267   4.715   1.796   0.624  0.3385  0.1330 -0.6089
17871SOL    HW265268   4.682   1.919   0.521  0.8123 -0.3349 -1.3306
17872SOL     OW65269   4.668   2.489   4.633 -0.0465  0.6690 -0.0098
17872SOL    HW165270   4.635   2.395   4.636  1.2436  0.1821 -0.4324
17872SOL    HW265271   4.674   2.519   4.538 -1.7824  1.6715  0.1877
17873SOL     OW65272   0.516   5.003   2.618 -0.7941  0.1840  0.1781
17873SOL    HW165273   0.594   5.040   2.669 -0.5390 -0.9403  0.6114
17873SOL    HW265274   0.438   5.065   2.626 -0.2631  0.7987  0.6120
17874SOL     OW65275   6.053   8.112   6.018  0.0145 -0.3314  0.0824
17874SOL    HW165276   5.984   8.144   6.084 -0.0271  2.8680 -1.4187
17874SOL    HW265277   6.008   8.065   5.943 -0.4954  1.0229 -0.4792
17875SOL     OW65278   9.656   8.045   7.530  0.2885  0.3606 -0.1568
17875SOL    HW165279   9.601   8.115   7.575  0.2511 -0.6156  1.3694
17875SOL    HW265280   9.744   8.084   7.503 -0.8807  1.7483 -2.0212
17876SOL     OW65281   4.248   2.535   2.966 -0.3521 -0.0509  0.2697
17876SOL    HW165282   4.339   2.539   3.006 -0.3347 -0.0714  0.2330
17876SOL    HW265283   4.184   2.498   3.033 -0.0619 -1.4106 -0.1826
17877SOL     OW65284   0.217   4.144   0.309  0.6774 -0.7030 -0.4635
17877SOL    HW165285   0.257   4.178   0.224 -0.0194 -0.7949 -0.8281
17877SOL    HW265286   0.267   4.062   0.339  1.0724 -0.5329 -0.6563
17878SOL     OW65287   0.846   9.210   0.109  0.7327  0.2351 -0.5867
17878SOL    HW165288   0.939   9.177   0.126  0.1222 -1.6168 -0.6920
17878SOL    HW265289   0.796   9.214   0.195  0.3949 -0.4039 -0.7539
17879SOL     OW65290   4.466   1.880   0.124 -0.7410  0.0184 -0.7575
17879SOL    HW165291   4.533   1.892   0.051 -0.0828  1.0437  0.0089
17879SOL    HW265292   4.387   1.938   0.107 -0.6776  0.1059 -0.7507
17880SOL     OW65293   2.862   5.907   4.352 -0.3186 -0.1780  0.1732
17880SOL    HW165294   2.779   5.963   4.344 -0.1821  0.0521  0.4024
17880SOL    HW265295   2.925   5.949   4.417  0.2427 -0.0342 -0.4669
17881SOL     OW65296   1.308   1.300   6.018  0.3370 -0.0241 -0.4368
17881SOL    HW165297   1.317   1.394   5.987  1.3832 -0.2796 -0.9444
17881SOL    HW265298   1.229   1.292   6.080 -0.5203  0.9149 -1.3855
17882SOL     OW65299   6.569   7.279   3.991  0.3588 -0.5247 -0.4008
17882SOL    HW165300   6.565   7.299   3.893  0.0742 -1.3314 -0.5544
17882SOL    HW265301   6.505   7.205   4.013 -0.3647  0.3747  0.5728
17883SOL     OW65302   1.582   3.706   6.961 -0.1621 -0.7680 -0.2830
17883SOL    HW165303   1.494   3.658   6.959 -1.0103  0.7517 -1.1390
17883SOL    HW265304   1.569   3.799   6.924  1.9840 -0.8311 -1.2280
17884SOL     OW65305   6.781   2.080   4.620 -0.2053 -0.2842 -0.1635
17884SOL    HW165306   6.694   2.049   4.659 -0.6314  0.4422 -0.5344
17884SOL    HW265307   6.811   2.014   4.551 -0.5104 -0.4910 -0.1028
17885SOL     OW65308   4.238   7.334   4.631 -0.4179  0.1292 -0.3530
17885SOL    HW165309   4.225   7.263   4.700  3.3755  0.2953  0.6378
17885SOL    HW265310   4.228   7.424   4.673 -0.7682  0.2073 -0.6042
17886SOL     OW65311   4.358   2.798   7.919 -0.4681 -0.1761 -0.3704
17886SOL    HW165312   4.443   2.766   7.876 -0.9618 -1.9367 -0.0658
17886SOL    HW265313   4.302   2.844   7.851  0.0308 -0.4237 -0.9589
17887SOL     OW65314   8.055   6.631   7.225 -0.4957 -0.1668  0.0412
17887SOL    HW165315   7.983   6.673   7.171 -0.9196 -1.4843 -0.4361
17887SOL    HW265316   8.022   6.615   7.318 -1.2969 -2.0146 -0.5445
17888SOL     OW65317   8.632   8.048   2.974  0.1084 -0.1440 -0.3468
17888SOL    HW165318   8.647   8.084   3.066  2.1547  1.0907 -1.1270
17888SOL    HW265319   8.579   8.115   2.921  1.3750  0.4345 -0.9048
17889SOL     OW65320   1.925   1.984   5.516 -0.0030 -0.1918 -0.2672
17889SOL    HW165321   1.853   1.996   5.448  1.6252 -0.3164 -2.0607
17889SOL    HW265322   2.003   1.939   5.474  1.2726  0.2706  1.5496
17890SOL     OW65323   3.682   9.756   5.988  0.8066  0.2605  0.2224
17890SOL    HW165324   3.629   9.815   5.927 -3.0604 -0.5087  2.7047
17890SOL    HW265325   3.661   9.778   6.083  3.3884 -1.5236  1.2679
17891SOL     OW65326   0.311   1.023   5.904  0.6674 -1.0599  0.2111
17891SOL    HW165327   0.345   0.988   5.991 -1.9986 -1.6359  1.0410
17891SOL    HW265328   0.296   1.122   5.911  1.3670 -0.9347  0.0698
17892SOL     OW65329   9.863   7.366   8.062 -0.0901 -0.2320 -0.0065
17892SOL    HW165330   9.880   7.269   8.081 -0.8613 -0.3070  0.3161
17892SOL    HW265331   9.786   7.398   8.117 -0.2273  0.4106 -0.5674
17893SOL     OW65332   8.706   2.964   1.790 -0.2575 -0.1787  0.1445
17893SOL    HW165333   8.733   3.035   1.855  0.6017 -1.4335  1.1823
17893SOL    HW265334   8.633   2.908   1.831 -0.4348 -0.3376 -0.3903
17894SOL     OW65335   1.353   8.701   5.298  0.0374 -0.1006  0.4475
17894SOL    HW165336   1.257   8.674   5.309  0.5152 -1.3546  1.6801
17894SOL    HW265337   1.410   8.645   5.359  1.5866  0.3760 -0.5569
17895SOL     OW65338   2.986   6.089   2.579  0.0256 -0.0496 -0.0062
17895SOL    HW165339   3.005   5.991   2.588 -0.9087 -0.2269  0.1116
17895SOL    HW265340   3.059   6.141   2.623  0.5332 -0.6889 -0.0734
17896SOL     OW65341   0.115   7.379   0.959 -0.2200  0.2666  0.2098
17896SOL    HW165342   0.076   7.450   0.901  0.3761 -0.2204 -0.8010
17896SOL    HW265343   0.072   7.291   0.939  1.0393 -0.1836 -0.5778
17897SOL     OW65344   9.366   2.958   5.618  0.4392  0.1334  0.3838
17897SOL    HW165345   9.400   2.987   5.528 -0.3900  0.9301  0.3238
17897SOL    HW265346   9.443   2.925   5.673  0.6186 -2.5534 -1.4170
17898SOL     OW65347   1.930   9.355   1.301  0.1726  0.0862 -0.4649
17898SOL    HW165348   2.004   9.321   1.359  0.5239  0.7507 -0.5187
17898SOL    HW265349   1.969   9.409   1.226 -0.3831  0.6720 -0.3337
17899SOL     OW65350   2.548   0.716   4.979 -0.6591 -0.3146 -0.2527
17899SOL    HW165351   2.550   0.637   5.040 -3.2598  0.6102  1.0965
17899SOL    HW265352   2.525   0.686   4.886  0.4257 -1.3798 -0.1844
17900SOL     OW65353   8.315   6.107   1.768  0.5274  0.1481  0.4119
17900SOL    HW165354   8.365   6.056   1.698  0.2140 -1.2718  1.2155
17900SOL    HW265355   8.227   6.137   1.730  0.9022  0.4874 -0.1969
17901SOL     OW65356   3.318   0.322   5.727  0.2269 -0.1705 -0.1718
17901SOL    HW165357   3.263   0.389   5.677  1.2102 -0.4196 -1.6448
17901SOL    HW265358   3.399   0.299   5.672  0.1693 -2.1706  0.5570
17902SOL     OW65359   3.127   5.585   6.222  0.7382  0.4429  0.3960
17902SOL    HW165360   3.163   5.575   6.129  2.7173  3.0461  0.8113
17902SOL    HW265361   3.028   5.599   6.218  0.3250 -2.5321 -1.0726
17903SOL     OW65362   1.505   7.063   4.905  0.1982  0.0684  0.4834
17903SOL    HW165363   1.427   7.120   4.932  0.6732  1.0889 -0.2562
17903SOL    HW265364   1.524   7.077   4.808  0.4401 -1.2228  0.3464
17904SOL     OW65365   7.706   9.693   2.921 -0.0903  0.3746 -0.3147
17904SOL    HW165366   7.716   9.753   2.842  1.0165  0.7217  0.0873
17904SOL    HW265367   7.794   9.651   2.944 -0.8789 -1.5736 -0.7062
17905SOL     OW65368   1.620   7.005   2.706  0.3997 -0.2667  0.1669
17905SOL    HW165369   1.636   6.935   2.775  1.0831  0.1302  0.4125
17905SOL    HW265370   1.619   7.095   2.749  0.1596 -0.0695 -0.2427
17906SOL     OW65371   3.191   0.091   6.914  0.2140  0.0217  0.0276
17906SOL    HW165372   3.242   0.096   6.828  0.2656  0.2781  0.0717
17906SOL    HW265373   3.181  -0.004   6.942  1.4466  0.0167  0.4812
17907SOL     OW65374   5.907   8.441   2.418 -0.1252 -0.1134 -0.7457
17907SOL    HW165375   5.892   8.539   2.408  0.6724 -0.1388 -2.2936
17907SOL    HW265376   5.890   8.396   2.331  2.2064 -0.9955 -0.7712
17908SOL     OW65377   3.116   3.427   1.860 -0.2612  0.4164 -0.2922
17908SOL    HW165378   3.204   3.445   1.904 -1.0743  0.5797  1.3168
17908SOL    HW265379   3.061   3.367   1.919 -1.5749  1.0545 -0.8463
17909SOL     OW65380   7.374   6.762   5.571  0.5599  0.3535  0.4612
17909SOL    HW165381   7.418   6.755   5.482  1.2543  1.9413  0.6700
17909SOL    HW265382   7.285   6.715   5.568  1.5243 -1.4863 -0.4234
17910SOL     OW65383   9.243   6.770   1.036  0.2563 -0.5015 -0.1836
17910SOL    HW165384   9.150   6.736   1.051  0.5427 -1.3257 -0.2708
17910SOL    HW265385   9.275   6.815   1.120  0.2737 -1.3878  0.2903
17911SOL     OW65386   9.649   2.495   0.515  0.7264  0.1394 -0.0388
17911SOL    HW165387   9.690   2.532   0.599  1.1674  0.6158 -0.4608
17911SOL    HW265388   9.556   2.464   0.535  0.0996  2.0740  0.1885
17912SOL     OW65389   2.094   2.513   7.660 -0.0312  0.6483 -0.3574
17912SOL    HW165390   2.057   2.601   7.631 -0.3066  0.3456 -0.9285
17912SOL    HW265391   2.020   2.447   7.670  0.4537 -0.3582 -2.8939
17913SOL     OW65392   7.537   8.236   3.883 -0.1736 -0.4007  0.4673
17913SOL    HW165393   7.491   8.313   3.925 -0.4793 -0.5930  0.4829
17913SOL    HW265394   7.616   8.269   3.830 -0.8327  0.0125 -0.2713
17914SOL     OW65395   5.288   7.868   2.656  0.1489 -0.6761 -0.3673
17914SOL    HW165396   5.221   7.811   2.704  0.6450 -2.4948 -1.7788
17914SOL    HW265397   5.379   7.853   2.696 -0.0330  0.6336  0.5495
17915SOL     OW65398   7.307   1.268   6.387 -0.4161 -0.1655 -0.3095
17915SOL    HW165399   7.260   1.204   6.326 -0.3445  0.8077 -1.4004
17915SOL    HW265400   7.243   1.303   6.455 -0.7972 -0.2779 -0.6119
17916SOL     OW65401   1.741   9.106   2.611  0.4427 -0.5011 -0.0464
17916SOL    HW165402   1.702   9.179   2.667  1.8026  0.6678 -0.6017
17916SOL    HW265403   1.682   9.088   2.533 -1.3117 -1.9293  1.5479
17917SOL     OW65404   1.775   0.503   8.109  0.0940  0.1846 -0.0308
17917SOL    HW165405   1.720   0.444   8.167 -0.5979  0.3390 -0.5128
17917SOL    HW265406   1.747   0.598   8.122  2.8391  0.6787  2.5158
17918SOL     OW65407   0.015   8.045   1.505  0.5028  0.4183  0.6865
17918SOL    HW165408  -0.072   8.014   1.544  0.5526 -0.5273  0.0496
17918SOL    HW265409   0.003   8.136   1.465 -0.3329  0.0600  0.1121
17919SOL     OW65410   7.416   7.731   3.676  0.1465 -0.1624 -0.0924
17919SOL    HW165411   7.514   7.711   3.677  0.4098  0.9652 -1.6405
17919SOL    HW265412   7.367   7.653   3.638  0.5216 -0.4188 -0.0559
17920SOL     OW65413   2.693   3.653   5.744  0.0957  0.1892  0.0819
17920SOL    HW165414   2.676   3.666   5.841 -0.4770  1.0479 -0.1263
17920SOL    HW265415   2.611   3.679   5.692  1.3587  2.5459 -0.8102
17921SOL     OW65416   0.102   8.036   3.083  0.0117  0.4270 -0.0590
17921SOL    HW165417   0.070   8.031   3.178 -0.5315 -0.4932 -0.2848
17921SOL    HW265418   0.066   8.120   3.041 -0.5336  0.3659  0.2684
17922SOL     OW65419   2.570   0.949   1.179 -0.6391 -0.4308 -0.3648
17922SOL    HW165420   2.516   1.029   1.151 -1.9639 -1.0973  0.2192
17922SOL    HW265421   2.661   0.954   1.139 -1.2834  0.5079 -1.7530
17923SOL     OW65422   0.291   5.515   7.048  0.1617 -0.2869  0.0620
17923SOL    HW165423   0.277   5.519   7.147 -2.5723 -1.7249 -0.2152
17923SOL    HW265424   0.214   5.468   7.006  1.2168  0.4623 -2.7908
17924SOL     OW65425   0.536   2.320   7.365  0.0076 -0.8213  0.0721
17924SOL    HW165426   0.518   2.264   7.284 -1.4133  0.5055 -0.5556
17924SOL    HW265427   0.628   2.357   7.360  0.0765 -1.0953 -0.7122
17925SOL     OW65428   9.151   8.033   4.285 -0.3661  0.4526 -0.1521
17925SOL    HW165429   9.200   8.082   4.357  1.9793  0.0205 -1.4040
17925SOL    HW265430   9.179   8.068   4.195 -2.0751 -0.0687 -0.9064
17926SOL     OW65431   3.147   5.582   8.045 -0.0100 -0.1251 -0.5101
17926SOL    HW165432   3.084   5.511   8.013  0.2041  0.3301 -2.0197
17926SOL    HW265433   3.216   5.598   7.974  1.8205 -0.6381  1.1367
17927SOL     OW65434   3.722   9.310   0.495 -0.2498  0.0609  0.3458
17927SOL    HW165435   3.645   9.258   0.530 -0.3836  0.2812  0.3769
17927SOL    HW265436   3.714   9.406   0.524 -0.8386  0.4394 -1.0280
17928SOL     OW65437   8.336   1.192   0.045  0.5403 -0.1486  0.4454
17928SOL    HW165438   8.327   1.189   0.144  0.6709 -0.5644  0.4483
17928SOL    HW265439   8.417   1.246   0.020  0.4788 -0.0040  0.5641
17929SOL     OW65440   0.819   8.248   1.384  0.1280  0.2318 -0.5173
17929SOL    HW165441   0.757   8.170   1.396 -0.7007  0.9489 -0.1138
17929SOL    HW265442   0.767   8.333   1.387  1.2704  0.9046  0.9758
17930SOL     OW65443   2.440   3.135   4.750 -0.3496  0.5545 -0.0104
17930SOL    HW165444   2.441   3.215   4.690 -1.5375 -0.1606 -1.0175
17930SOL    HW265445   2.459   3.163   4.844  1.7373  1.6597 -0.7471
17931SOL     OW65446   8.917   4.140   7.687  0.3619 -0.1802 -0.4836
17931SOL    HW165447   8.837   4.086   7.661 -0.4344  0.6974  0.1084
17931SOL    HW265448   8.900   4.237   7.667  1.4106 -0.0286 -0.6687
17932SOL     OW65449   7.932   2.159   4.660  0.0037 -0.0778  0.0099
17932SOL    HW165450   8.005   2.119   4.605  0.2167  1.4633 -0.8344
17932SOL    HW265451   7.843   2.124   4.629  0.2684 -0.8583  0.1150
17933SOL     OW65452   0.299   7.360   1.684  0.0182 -0.1263  0.2525
17933SOL    HW165453   0.299   7.397   1.591 -0.5808 -5.2301 -1.9531
17933SOL    HW265454   0.351   7.421   1.744 -0.4931  3.8563 -3.1385
17934SOL     OW65455   2.996   7.120   4.007  0.0276 -0.0452  0.2345
17934SOL    HW165456   3.070   7.120   3.940 -0.4564  0.6718 -0.3116
17934SOL    HW265457   3.025   7.073   4.090  0.6812 -0.8326 -0.4355
17935SOL     OW65458   0.303   4.739   7.588 -0.2637 -0.2428 -0.5555
17935SOL    HW165459   0.320   4.799   7.510  0.5540 -1.3862 -1.2707
17935SOL    HW265460   0.362   4.765   7.664 -0.5005  0.3718 -0.5776
17936SOL     OW65461   2.161   1.637   6.801 -0.0114 -0.3892 -0.3354
17936SOL    HW165462   2.136   1.729   6.770 -0.0973 -0.2108  0.2616
17936SOL    HW265463   2.239   1.605   6.747  1.8047  1.1528  1.2964
17937SOL     OW65464   9.478   0.238   1.319  0.1006  0.4609 -0.1353
17937SOL    HW165465   9.466   0.290   1.234 -1.8625 -0.2899 -0.3433
17937SOL    HW265466   9.569   0.256   1.356  0.9905  0.7958 -2.3958
17938SOL     OW65467   3.278   3.660   2.616  0.1450  0.2472  0.0190
17938SOL    HW165468   3.308   3.564   2.610  1.8116  0.7373  0.3270
17938SOL    HW265469   3.221   3.672   2.696  1.8975  0.0110  1.3348
17939SOL     OW65470   9.061   8.839   0.928  0.6342  0.2334  0.0132
17939SOL    HW165471   9.153   8.815   0.958 -0.3152 -1.6541  1.4365
17939SOL    HW265472   9.017   8.896   0.997  0.4141  0.4323 -0.2882
17940SOL     OW65473   8.391   3.999   0.604  0.1882 -0.4210  0.3351
17940SOL    HW165474   8.362   3.909   0.637 -2.0533  0.5635  1.1368
17940SOL    HW265475   8.386   4.065   0.679  0.6706  0.6359 -0.5514
17941SOL     OW65476   2.434   2.753   7.026 -0.0693  0.6548 -0.4744
17941SOL    HW165477   2.444   2.661   7.064 -1.2383  0.8912  0.4319
17941SOL    HW265478   2.456   2.820   7.097 -1.2201  1.0910 -0.5245
17942SOL     OW65479   7.029   5.861   1.415 -0.5402  0.1105  0.4738
17942SOL    HW165480   7.026   5.933   1.346  2.6895 -1.8432 -1.8194
17942SOL    HW265481   7.079   5.893   1.496 -1.8994  1.4612  0.7941
17943SOL     OW65482   6.861   0.796   3.993  0.5959 -0.0146 -0.2829
17943SOL    HW165483   6.959   0.811   3.990  0.4215  1.0017 -1.3191
17943SOL    HW265484   6.835   0.758   4.081  2.0268 -1.1010 -0.3247
17944SOL     OW65485   9.897   8.104   7.855 -0.3570  0.2832 -0.0581
17944SOL    HW165486   9.838   8.185   7.852 -0.5333  0.2415  1.7680
17944SOL    HW265487   9.993   8.132   7.843 -0.5758  0.5571 -1.2036
17945SOL     OW65488   8.820   6.166   5.252  0.1046  0.1612  0.3190
17945SOL    HW165489   8.890   6.234   5.271  0.8277 -0.5465  0.1860
17945SOL    HW265490   8.787   6.178   5.158  0.5468  0.0541  0.1472
17946SOL     OW65491   2.204   8.883   5.935  0.3421 -0.3074  0.2443
17946SOL    HW165492   2.126   8.888   5.873  1.3818 -1.6753 -1.2258
17946SOL    HW265493   2.287   8.911   5.886  0.9092  0.3108  1.5399
17947SOL     OW65494   3.361   8.382   5.255 -0.2793 -0.6367 -0.6553
17947SOL    HW165495   3.409   8.464   5.225 -0.2225 -0.8836 -1.2343
17947SOL    HW265496   3.423   8.325   5.309 -0.3843 -0.1945 -0.0582
17948SOL     OW65497   1.395   1.365   5.211  0.5650  0.2029  0.2250
17948SOL    HW165498   1.487   1.340   5.179  1.3045 -0.3462  2.6520
17948SOL    HW265499   1.372   1.456   5.178  2.2045  0.5583  0.0082
17949SOL     OW65500   1.675   2.394   4.140 -0.1367  0.1263 -0.0459
17949SOL    HW165501   1.728   2.476   4.119  0.5890 -0.2332  0.3662
17949SOL    HW265502   1.719   2.315   4.097 -0.8646 -0.0402 -0.4871
17950SOL     OW65503   9.421   1.439   4.205 -0.3929 -0.0192 -0.3149
17950SOL    HW165504   9.484   1.502   4.250 -0.6858 -0.6076  0.9359
17950SOL    HW265505   9.473   1.376   4.147 -0.0862  1.2461 -1.4457
17951SOL     OW65506   1.740   9.677   7.161  0.1974 -0.5623  0.2425
17951SOL    HW165507   1.668   9.610   7.141  1.4251 -2.0743  0.7035
17951SOL    HW265508   1.784   9.706   7.076 -0.5438 -0.1172  0.0148
17952SOL     OW65509   4.780   8.116   1.167  0.2383  0.0017 -0.1623
17952SOL    HW165510   4.720   8.104   1.088  0.1566 -0.3907 -0.0438
17952SOL    HW265511   4.874   8.095   1.142  0.1568 -0.5028 -0.0621
17953SOL     OW65512   3.280   2.138   3.261  0.5915 -0.2170 -0.6976
17953SOL    HW165513   3.310   2.074   3.331 -1.0841 -1.4878 -1.1239
17953SOL    HW265514   3.319   2.113   3.173 -0.7346 -1.1719 -1.0258
17954SOL     OW65515   4.593   6.063   2.247  0.4976 -0.0527 -0.2704
17954SOL    HW165516   4.557   6.033   2.159  0.3695 -0.5990 -0.0341
17954SOL    HW265517   4.517   6.082   2.309  0.5358  2.2027 -0.8798
17955SOL     OW65518   8.695   7.752   3.367  0.2334 -0.0926  0.0594
17955SOL    HW165519   8.633   7.725   3.294 -0.2979  1.1183  0.0479
17955SOL    HW265520   8.787   7.720   3.347  0.2243  0.8260 -1.4676
17956SOL     OW65521   4.390   6.670   1.817  0.2934  0.2090  0.1338
17956SOL    HW165522   4.392   6.750   1.758 -0.5221  0.8689  0.9952
17956SOL    HW265523   4.413   6.589   1.763 -1.7825  0.6079 -1.4034
17957SOL     OW65524   3.173   8.053   6.144 -0.4422 -0.0693  0.7734
17957SOL    HW165525   3.087   8.026   6.100 -0.2314 -1.5153  1.1995
17957SOL    HW265526   3.205   8.139   6.105 -1.0788 -0.5121 -0.7854
17958SOL     OW65527   7.634   1.976   5.958 -0.1357  0.7509  0.0360
17958SOL    HW165528   7.599   2.057   5.910 -0.2030  1.3885  1.1397
17958SOL    HW265529   7.723   1.998   6.000 -0.6933  0.6054  1.3056
17959SOL     OW65530   8.878   5.593   2.400  0.0126  0.3244  0.4186
17959SOL    HW165531   8.868   5.692   2.409  2.1742  0.4865  1.3781
17959SOL    HW265532   8.945   5.573   2.329  1.2473 -0.3778  1.7569
17960SOL     OW65533   1.552   6.338   0.129  0.0806 -0.3508 -0.4508
17960SOL    HW165534   1.564   6.243   0.101  0.6700 -0.3515 -0.1988
17960SOL    HW265535   1.500   6.387   0.059  0.5053 -0.6491 -0.9795
17961SOL     OW65536   2.564   8.889   6.084 -0.3122  0.6878 -0.1132
17961SOL    HW165537   2.513   8.950   6.144 -1.4070  2.6298 -2.8753
17961SOL    HW265538   2.510   8.806   6.068  0.5010 -0.3845  2.4120
17962SOL     OW65539   8.194   7.160   1.476 -0.2703  0.2991  0.0264
17962SOL    HW165540   8.110   7.170   1.422 -1.2288 -2.0034  1.0322
17962SOL    HW265541   8.259   7.231   1.450 -2.0667  1.3699 -1.6441
17963SOL     OW65542   9.880   9.342   1.987 -0.5103 -0.2396  0.2020
17963SOL    HW165543   9.922   9.367   2.074 -0.0188  0.0113 -0.1071
17963SOL    HW265544   9.781   9.335   1.999 -0.5073  0.4401  0.6253
17964SOL     OW65545   4.306   3.303   0.494 -0.2055 -0.2833 -0.2096
17964SOL    HW165546   4.357   3.313   0.579 -0.4633  1.2051 -0.2284
17964SOL    HW265547   4.232   3.370   0.491 -1.0555 -1.2455 -0.9894
17965SOL     OW65548   4.155   4.314   2.834 -0.4055  0.4756  0.9122
17965SOL    HW165549   4.114   4.236   2.787 -0.7680  1.6280 -0.7396
17965SOL    HW265550   4.225   4.282   2.898  0.9150 -1.1123 -1.2444
17966SOL     OW65551   9.922   1.539   0.140  0.3623  0.0757 -0.7983
17966SOL    HW165552   9.841   1.514   0.192 -0.6556  1.2629 -1.7629
17966SOL    HW265553   9.972   1.457   0.114 -0.2775 -0.6387  0.2064
17967SOL     OW65554   3.755   2.305   0.149 -0.0648  0.4019  0.2378
17967SOL    HW165555   3.772   2.212   0.184 -0.3949 -0.1548 -1.0322
17967SOL    HW265556   3.723   2.363   0.223  0.6195 -0.3733  1.1612
17968SOL     OW65557   2.764   3.111   1.457  0.2900 -0.1648 -0.3965
17968SOL    HW165558   2.788   3.060   1.540  0.3078  0.3241 -0.0999
17968SOL    HW265559   2.668   3.093   1.435  0.3492 -0.4801 -0.4025
17969SOL     OW65560   8.001   0.163   2.664 -1.1241 -0.0837 -0.0261
17969SOL    HW165561   7.958   0.246   2.700  1.6769  1.9945 -1.2745
17969SOL    HW265562   7.976   0.152   2.567  0.4365  0.6907 -0.5337
17970SOL     OW65563   8.591   2.545   7.721 -0.0373  0.0763  0.8000
17970SOL    HW165564   8.650   2.465   7.714 -2.3837 -1.6230 -0.2379
17970SOL    HW265565   8.549   2.563   7.631 -0.9344  1.3685  1.4581
17971SOL     OW65566   8.269   7.671   4.146 -0.4147 -0.2918 -0.3336
17971SOL    HW165567   8.326   7.684   4.227 -1.1968 -1.5558  0.4580
17971SOL    HW265568   8.185   7.725   4.155  0.6496  1.6023 -1.5169
17972SOL     OW65569   5.103   9.340   1.738 -0.0701 -0.5172 -0.2888
17972SOL    HW165570   5.119   9.253   1.783  2.3105  0.7296  1.4323
17972SOL    HW265571   5.169   9.407   1.772 -1.0492  1.6291 -2.4708
17973SOL     OW65572   1.985   2.420   6.365  0.0774  0.5348 -0.2224
17973SOL    HW165573   2.016   2.467   6.282 -0.3671 -0.0081 -0.7013
17973SOL    HW265574   1.915   2.353   6.341  0.2694  0.0547  0.5401
17974SOL     OW65575   6.735   2.841   0.252  0.0555  0.7044 -0.2226
17974SOL    HW165576   6.697   2.926   0.216 -0.6347  0.8337  0.7938
17974SOL    HW265577   6.708   2.765   0.192 -2.9835  0.5886  1.1989
17975SOL     OW65578   4.356   6.941   3.120 -0.1880 -0.1497 -0.0124
17975SOL    HW165579   4.415   7.008   3.076 -1.0974  2.3568  2.4512
17975SOL    HW265580   4.274   6.927   3.065  1.2964 -1.4678 -1.9744
17976SOL     OW65581   2.299   2.483   0.813  0.3373 -0.1385 -0.3268
17976SOL    HW165582   2.310   2.392   0.852  1.1961  0.5314  1.0199
17976SOL    HW265583   2.383   2.536   0.825 -0.0062  0.7071 -1.4709
17977SOL     OW65584   4.029   0.322   7.718 -0.3688 -0.0324  0.0250
17977SOL    HW165585   3.968   0.289   7.645 -1.4711  0.9127  0.5085
17977SOL    HW265586   3.976   0.339   7.801  0.7111 -0.0606  0.7333
17978SOL     OW65587   8.851   1.108   0.756 -0.1086  0.2231 -0.5141
17978SOL    HW165588   8.762   1.065   0.745  0.5914 -1.4817  0.2623
17978SOL    HW265589   8.894   1.120   0.666  0.2210 -1.9154 -0.6660
17979SOL     OW65590   4.053   4.821   2.720  0.4048 -0.3025  0.0290
17979SOL    HW165591   4.101   4.877   2.653  0.1145  1.5607  1.3183
17979SOL    HW265592   4.107   4.739   2.740  0.3072 -1.0873 -2.7217
17980SOL     OW65593   6.399   4.006   7.641  0.1822  0.1373 -0.1427
17980SOL    HW165594   6.301   4.023   7.636  0.4786  1.3499 -3.1981
17980SOL    HW265595   6.416   3.909   7.657 -1.5304 -0.7443 -3.2453
17981SOL     OW65596   0.935   1.406   5.373  0.2158 -0.1234 -0.0603
17981SOL    HW165597   0.860   1.442   5.319 -0.4867  0.2663  1.1643
17981SOL    HW265598   1.011   1.471   5.373  0.0805  0.0346 -0.2735
17982SOL     OW65599   4.141   7.315   1.269  0.1307 -1.0898  0.6313
17982SOL    HW165600   4.056   7.332   1.319 -0.5501 -1.3000 -0.4431
17982SOL    HW265601   4.138   7.224   1.228 -0.1539 -0.1640 -1.4505
17983SOL     OW65602   8.950   7.867   6.527 -0.1992 -0.7403 -0.1719
17983SOL    HW165603   9.042   7.844   6.559 -0.3284  0.2226  0.9057
17983SOL    HW265604   8.936   7.828   6.436  0.2555 -3.3611  0.8369
17984SOL     OW65605   3.252   3.877   7.201  0.1413  0.2246 -0.3142
17984SOL    HW165606   3.201   3.962   7.188 -1.4258 -0.3331  1.8071
17984SOL    HW265607   3.258   3.857   7.299  0.9188 -1.8524 -0.7594
17985SOL     OW65608   9.632   7.397   6.626  0.2750 -0.6036  0.2744
17985SOL    HW165609   9.696   7.416   6.552 -0.5685  2.2333  0.2321
17985SOL    HW265610   9.542   7.377   6.588  0.0748 -0.1223  0.4942
17986SOL     OW65611   0.753   5.260   4.255 -0.1799 -0.4409  0.1617
17986SOL    HW165612   0.846   5.256   4.292  0.3950 -0.3806 -1.2516
17986SOL    HW265613   0.716   5.168   4.245  1.1858 -0.7398 -2.8237
17987SOL     OW65614   6.981   5.830   1.926 -0.2743 -0.0240 -0.4536
17987SOL    HW165615   6.999   5.873   1.838 -1.2078  0.7604 -0.2587
17987SOL    HW265616   6.910   5.880   1.975  0.3056 -0.3933  0.7949
17988SOL     OW65617   4.022   8.178   2.714 -0.4080 -0.1137  0.6287
17988SOL    HW165618   4.021   8.184   2.814 -1.7878 -0.6811  0.6611
17988SOL    HW265619   3.991   8.265   2.675  1.6081  0.6306  0.6574
17989SOL     OW65620   9.813   6.881   6.318 -0.0612  0.0144 -0.8328
17989SOL    HW165621   9.778   6.942   6.390 -0.3173  1.6851 -2.3270
17989SOL    HW265622   9.740   6.861   6.253  0.9749  1.1709 -2.3929
17990SOL     OW65623   5.511   0.843   2.880 -0.0794  0.2778  0.2010
17990SOL    HW165624   5.462   0.908   2.822 -0.2113 -2.6706 -3.1761
17990SOL    HW265625   5.609   0.849   2.861 -0.0605 -0.2319  0.1297
17991SOL     OW65626   1.319   3.357   1.507 -0.4020 -0.4850 -0.2525
17991SOL    HW165627   1.290   3.313   1.591 -2.1650 -0.7632 -0.9961
17991SOL    HW265628   1.267   3.442   1.494  1.1818  0.5325 -0.1224
17992SOL     OW65629   0.154   7.401   5.554 -0.7149  0.2401 -0.3700
17992SOL    HW165630   0.104   7.487   5.566 -2.5106 -0.8576  0.3005
17992SOL    HW265631   0.102   7.327   5.596 -0.1959 -1.5001 -2.6956
17993SOL     OW65632   4.693   6.917   0.389 -0.7329  0.4396  0.4471
17993SOL    HW165633   4.767   6.917   0.323 -1.4435  1.6314 -0.3819
17993SOL    HW265634   4.650   6.827   0.393  0.8669 -0.3087  1.0790
17994SOL     OW65635   9.332   0.623   6.599 -0.3687 -0.1701  0.1275
17994SOL    HW165636   9.413   0.614   6.541 -0.4367  0.4921 -0.0810
17994SOL    HW265637   9.357   0.670   6.684 -0.8923  1.8130 -0.7675
17995SOL     OW65638   3.187   1.602   6.615 -0.0617 -0.2495 -0.1016
17995SOL    HW165639   3.286   1.607   6.602 -0.1524  0.3098 -0.5970
17995SOL    HW265640   3.160   1.670   6.684  0.0987 -1.4825  1.1854
17996SOL     OW65641   2.065   2.518   2.273  0.9828 -0.3325 -0.2389
17996SOL    HW165642   2.015   2.455   2.214  1.0220 -0.7606  0.1843
17996SOL    HW265643   2.036   2.505   2.368  2.2948 -0.9526  0.0791
17997SOL     OW65644   3.327   2.799   0.609  0.3162  0.0056  0.2580
17997SOL    HW165645   3.307   2.749   0.693 -0.8041  0.5358  0.3182
17997SOL    HW265646   3.271   2.882   0.605  2.3353  1.4242  0.3044
17998SOL     OW65647   6.690   1.628   1.426 -0.2193 -0.0405  0.0405
17998SOL    HW165648   6.761   1.574   1.472 -0.3658  2.2087  3.0108
17998SOL    HW265649   6.619   1.653   1.492 -0.1827  3.7469 -1.2434
17999SOL     OW65650   4.727   8.879   1.633  0.0267  0.0353 -0.4884
17999SOL    HW165651   4.692   8.786   1.620 -2.1228  0.9715 -1.7094
17999SOL    HW265652   4.814   8.889   1.586  1.3613 -1.9684  1.4912
18000SOL     OW65653   7.540   0.352   0.955  0.1430  0.1355 -0.6584
18000SOL    HW165654   7.466   0.405   0.912 -0.1840  0.2112 -0.0051
18000SOL    HW265655   7.503   0.266   0.990  0.0679  0.7830  0.9069
18001SOL     OW65656   9.951   2.995   8.001 -0.2881  0.1589 -0.1669
18001SOL    HW165657   9.945   2.939   8.084  0.8127 -0.3635 -0.4284
18001SOL    HW265658   9.887   3.071   8.008 -0.7046 -0.2729  0.8640
18002SOL     OW65659   6.276   9.495   6.549  0.0090 -0.1666 -0.1332
18002SOL    HW165660   6.308   9.588   6.534 -0.4811  0.4355  2.4336
18002SOL    HW265661   6.177   9.494   6.554 -0.1343 -1.1912 -2.3289
18003SOL     OW65662   5.747   4.526   7.207  0.1035 -0.2412 -0.4895
18003SOL    HW165663   5.829   4.479   7.240  0.5481  0.4036 -0.6753
18003SOL    HW265664   5.773   4.606   7.153 -0.6558  0.6896  0.5024
18004SOL     OW65665   4.620   0.784   1.004 -0.6654  0.0004  0.2726
18004SOL    HW165666   4.562   0.857   0.967  0.4653  1.3582  1.1397
18004SOL    HW265667   4.710   0.787   0.962  0.2950  0.8906  2.3152
18005SOL     OW65668   9.163   8.553   3.923  0.0919 -0.5274  0.1040
18005SOL    HW165669   9.170   8.652   3.914  1.1815 -0.8615 -4.1291
18005SOL    HW265670   9.067   8.526   3.916 -0.0610  0.1306 -0.3773
18006SOL     OW65671   0.038   5.980   4.823  0.2698 -0.0693 -0.2770
18006SOL    HW165672   0.050   6.056   4.887  1.4192  0.0868 -0.6638
18006SOL    HW265673   0.111   5.913   4.837 -1.1432 -1.4883  0.5682
18007SOL     OW65674   9.816   9.577   7.488  0.1756  0.1247  0.4478
18007SOL    HW165675   9.738   9.530   7.530 -0.5381  2.0539  1.3527
18007SOL    HW265676   9.813   9.564   7.389 -2.4405  1.7810  0.2572
18008SOL     OW65677   0.894   4.451   2.434  0.2872 -0.3657  0.3624
18008SOL    HW165678   0.805   4.463   2.478  0.6049 -0.1869  0.9580
18008SOL    HW265679   0.889   4.375   2.369 -0.1061 -0.8381  0.9341
18009SOL     OW65680   4.451   0.966   2.219  0.1280 -0.2101 -0.4628
18009SOL    HW165681   4.486   1.054   2.250 -0.9490 -0.5169  1.7372
18009SOL    HW265682   4.357   0.954   2.250 -0.0409 -1.7793 -1.4830
18010SOL     OW65683   9.383   1.274   2.314 -0.0960 -0.5300 -0.0292
18010SOL    HW165684   9.367   1.351   2.375  0.0533 -0.8208  0.3830
18010SOL    HW265685   9.321   1.280   2.235  0.4748  0.4384 -0.4118
18011SOL     OW65686   2.773   7.281   0.948  0.3692  0.0378  0.1659
18011SOL    HW165687   2.823   7.206   0.906  1.8247  0.9684  0.1883
18011SOL    HW265688   2.679   7.282   0.913  0.4765 -1.4801 -0.1983
18012SOL     OW65689   7.745   2.139   6.517 -0.2647 -0.2535 -0.0067
18012SOL    HW165690   7.829   2.146   6.464 -0.2019 -1.9083 -0.1693
18012SOL    HW265691   7.721   2.228   6.554  1.7808  0.1774  0.3653
18013SOL     OW65692   5.231   5.599   1.074  0.6647 -0.2324 -0.2129
18013SOL    HW165693   5.261   5.504   1.066  0.6703 -0.1730 -1.0183
18013SOL    HW265694   5.213   5.635   0.982  0.6904  0.5526  0.0886
18014SOL     OW65695   1.291   3.643   4.691  0.0700 -0.6001  0.3817
18014SOL    HW165696   1.320   3.733   4.724  1.7944 -1.3013  0.8039
18014SOL    HW265697   1.296   3.641   4.591 -2.7411  0.6987  0.1773
18015SOL     OW65698   6.895   1.455   1.573  0.1746 -0.1506  0.0043
18015SOL    HW165699   6.865   1.373   1.523 -0.7729  0.3241 -0.2199
18015SOL    HW265700   6.897   1.435   1.671 -0.6051 -0.2877  0.0011
18016SOL     OW65701   3.458   2.268   5.147 -0.3133  0.0412 -0.3069
18016SOL    HW165702   3.440   2.204   5.222 -1.3404  0.9784  0.2609
18016SOL    HW265703   3.421   2.232   5.062  1.0452 -1.1278 -0.4166
18017SOL     OW65704   2.374   2.396   3.297  0.1512 -0.4774  0.1868
18017SOL    HW165705   2.339   2.490   3.298 -0.3936 -0.6860  0.5523
18017SOL    HW265706   2.447   2.389   3.228 -0.0034  0.1380 -0.0453
18018SOL     OW65707   1.964   6.059   3.323 -0.1729 -0.7004 -0.4971
18018SOL    HW165708   2.028   6.100   3.259  1.5383  0.2788  1.7886
18018SOL    HW265709   1.909   6.130   3.367 -3.1491 -1.5413 -2.6632
18019SOL     OW65710   5.489   5.884   8.168 -0.2788  0.0051 -0.3993
18019SOL    HW165711   5.510   5.981   8.179  1.2976 -0.2793 -0.8846
18019SOL    HW265712   5.557   5.842   8.108 -1.9876 -1.0079 -1.6773
18020SOL     OW65713   0.749   2.014   0.261  0.2616  0.0847  0.1491
18020SOL    HW165714   0.781   2.044   0.351  2.8160  0.3380 -0.7949
18020SOL    HW265715   0.758   1.915   0.253 -1.5033 -0.1373  0.7342
18021SOL     OW65716   3.954   2.895   5.598 -0.3269 -0.0854  0.4259
18021SOL    HW165717   3.876   2.955   5.582  0.4521  0.6388 -0.7093
18021SOL    HW265718   3.964   2.832   5.521  0.8428  0.5494  0.0412
18022SOL     OW65719   4.631   7.746   5.684 -0.5085  0.2239  0.1300
18022SOL    HW165720   4.560   7.726   5.617  0.9708  0.7726 -1.6304
18022SOL    HW265721   4.676   7.832   5.661  1.4199 -0.6211  0.5914
18023SOL     OW65722   9.666   9.836   0.301 -0.0313  0.1159 -0.3085
18023SOL    HW165723   9.617   9.749   0.298 -1.2126  0.6406  2.2471
18023SOL    HW265724   9.761   9.819   0.329 -0.1852 -0.4016 -0.0728
18024SOL     OW65725   8.676   6.638   8.157  0.0366 -0.0946 -0.3680
18024SOL    HW165726   8.592   6.690   8.144  0.0998  0.3843  0.9847
18024SOL    HW265727   8.746   6.669   8.093 -0.6249 -0.0795 -1.0865
18025SOL     OW65728   3.319   0.770   0.053  0.0873 -0.2170  0.1369
18025SOL    HW165729   3.238   0.829   0.055  0.1155 -0.0760 -2.1418
18025SOL    HW265730   3.360   0.767   0.144 -1.5765  0.9538  0.9517
18026SOL     OW65731   2.488   7.249   1.426 -0.1716 -0.2687 -0.1484
18026SOL    HW165732   2.584   7.240   1.397  0.7364  1.1470  2.2208
18026SOL    HW265733   2.455   7.340   1.401 -0.9929 -0.8605 -1.2094
18027SOL     OW65734   4.192   7.825   6.480  0.5773  0.4836 -0.6350
18027SOL    HW165735   4.184   7.784   6.390  0.2730 -0.4481 -0.1898
18027SOL    HW265736   4.231   7.758   6.544 -0.8583  0.5348  0.3295
18028SOL     OW65737   7.837   3.556   2.774 -0.1553  0.0376 -0.7360
18028SOL    HW165738   7.841   3.650   2.808  0.3264 -0.2410 -0.0096
18028SOL    HW265739   7.865   3.493   2.847  0.2262 -0.6152 -1.4376
18029SOL     OW65740   9.216   4.288   3.164 -0.6488 -0.0557 -0.1527
18029SOL    HW165741   9.200   4.377   3.204  1.0839  0.8376 -1.3686
18029SOL    HW265742   9.227   4.297   3.065 -0.6111 -1.6353 -0.3174
18030SOL     OW65743   8.289   8.273   4.415 -0.5109  0.3144  0.0548
18030SOL    HW165744   8.311   8.183   4.378 -2.0412 -0.0971  0.1291
18030SOL    HW265745   8.191   8.289   4.408 -0.3749  1.5965  0.8969
18031SOL     OW65746   0.317   2.049   2.905 -0.6870  0.2985  0.3116
18031SOL    HW165747   0.258   1.979   2.867  1.2065 -1.2962  0.2475
18031SOL    HW265748   0.394   2.066   2.844  0.7173 -0.0605  1.9364
18032SOL     OW65749   8.340   8.247   5.620  0.3404 -0.2278  0.0734
18032SOL    HW165750   8.319   8.158   5.660  0.4294 -1.3251 -2.2900
18032SOL    HW265751   8.257   8.288   5.583  0.4142  0.4155  0.5998
18033SOL     OW65752   7.990   6.677   4.839 -0.3373  0.0021 -0.0793
18033SOL    HW165753   7.936   6.749   4.797  0.9057  0.1093 -1.5284
18033SOL    HW265754   7.991   6.689   4.939 -2.5504  0.2627 -0.0614
18034SOL     OW65755   2.636   8.889   0.955 -0.2143  0.0051  0.0301
18034SOL    HW165756   2.726   8.872   0.916  1.0601  0.4476  2.6984
18034SOL    HW265757   2.566   8.873   0.885  1.8325 -1.4739 -1.7445
18035SOL     OW65758   2.280   8.076   0.484 -0.5335  0.2880  0.3741
18035SOL    HW165759   2.336   8.082   0.402 -0.6944  0.1867  0.2577
18035SOL    HW265760   2.232   8.163   0.498 -0.2603  0.4131  0.5360
18036SOL     OW65761   2.096   2.535   1.779 -0.3891  0.2112 -0.3948
18036SOL    HW165762   2.058   2.617   1.821  0.3513 -0.4621  1.6673
18036SOL    HW265763   2.163   2.561   1.710 -1.8312  1.3477 -1.3972
18037SOL     OW65764   8.465   2.437   2.102 -0.2489 -0.2132 -0.0797
18037SOL    HW165765   8.438   2.514   2.160  1.6019  1.0212 -0.8132
18037SOL    HW265766   8.528   2.378   2.152 -0.2798 -0.2702 -0.1091
18038SOL     OW65767   8.497   6.207   1.392 -0.5191 -0.2222 -0.1118
18038SOL    HW165768   8.503   6.147   1.472  1.3998 -1.3058 -1.0458
18038SOL    HW265769   8.564   6.281   1.401 -0.8742  0.1281 -0.3456
18039SOL     OW65770   6.554   8.146   2.965  0.2471 -0.0545 -0.0055
18039SOL    HW165771   6.517   8.062   2.925 -0.6359  0.5886 -0.5426
18039SOL    HW265772   6.572   8.130   3.063 -2.2578 -0.1377  0.4833
18040SOL     OW65773   4.130   3.618   7.424 -0.3962  0.3768  0.2446
18040SOL    HW165774   4.086   3.547   7.479  0.9835  0.0630  0.9371
18040SOL    HW265775   4.153   3.580   7.334  2.1764 -0.6871  1.3011
18041SOL     OW65776   1.571   5.224   4.795  0.4170  0.0519  0.2136
18041SOL    HW165777   1.665   5.227   4.761  0.1679  0.3381 -0.4511
18041SOL    HW265778   1.521   5.305   4.764 -0.2120 -0.3786  0.0873
18042SOL     OW65779   1.663   3.865   7.972  0.5102  0.0309  0.0999
18042SOL    HW165780   1.704   3.879   8.062 -0.1386  1.4432  0.1954
18042SOL    HW265781   1.579   3.919   7.965  0.3283 -0.4051 -1.1935
18043SOL     OW65782   6.524   1.288   0.813  0.0237 -0.2611 -0.0433
18043SOL    HW165783   6.521   1.244   0.903 -0.5946 -1.8470 -0.8140
18043SOL    HW265784   6.548   1.384   0.824  2.1854 -0.9282  1.6481
18044SOL     OW65785   0.625   9.486   4.229  0.1892  0.4178 -0.5292
18044SOL    HW165786   0.590   9.396   4.253 -0.6770  0.1692 -2.6523
18044SOL    HW265787   0.563   9.557   4.262  0.8927  0.2553  1.1771
18045SOL     OW65788   2.095   6.842   8.060 -0.6099  0.0399  0.1633
18045SOL    HW165789   2.024   6.871   8.125  1.5982 -0.4229  2.8756
18045SOL    HW265790   2.169   6.909   8.060 -0.7012  0.1950 -2.1852
18046SOL     OW65791   4.195   8.094   1.999  0.4176  0.3181  0.0263
18046SOL    HW165792   4.176   8.045   1.914  0.6737  0.5527 -0.1672
18046SOL    HW265793   4.230   8.030   2.067  2.2009  0.4779 -0.7025
18047SOL     OW65794   9.668   5.153   3.092 -0.3882  0.7484  0.2822
18047SOL    HW165795   9.602   5.087   3.129  0.2433  0.8904  1.7155
18047SOL    HW265796   9.734   5.176   3.164  0.9094  0.9903 -0.9807
18048SOL     OW65797   0.176   0.693   6.881  0.8974  0.3670  0.6181
18048SOL    HW165798   0.153   0.781   6.839 -0.4067 -0.6844 -0.9443
18048SOL    HW265799   0.218   0.634   6.813  0.2270 -0.8024  1.2045
18049SOL     OW65800   4.155   5.156   3.155  0.7007  0.2022  0.3001
18049SOL    HW165801   4.139   5.143   3.057 -0.4604 -0.1550  0.5316
18049SOL    HW265802   4.068   5.150   3.204  1.5207 -1.5632  1.5809
18050SOL     OW65803   4.681   7.509   4.055 -0.3950 -0.0325 -0.0243
18050SOL    HW165804   4.745   7.555   3.992 -0.6628  1.3608  0.7115
18050SOL    HW265805   4.676   7.412   4.031 -0.3268  0.4310 -2.0270
18051SOL     OW65806   4.326   3.531   4.318 -0.0265  0.2922  0.1968
18051SOL    HW165807   4.303   3.497   4.227 -1.2567  1.0340  0.2135
18051SOL    HW265808   4.318   3.457   4.384 -1.2310  0.2310  0.0096
18052SOL     OW65809   4.434   9.605   1.913  0.5127 -0.0369 -0.1980
18052SOL    HW165810   4.396   9.564   1.996  1.2667  1.4557  0.9067
18052SOL    HW265811   4.420   9.543   1.836  0.0064 -1.5500  1.0852
18053SOL     OW65812   2.403   3.969   1.770 -0.2271  0.0356  0.9301
18053SOL    HW165813   2.418   4.047   1.832 -0.2873 -0.1481  1.1779
18053SOL    HW265814   2.375   4.003   1.680 -1.4454  0.2604  1.3861
18054SOL     OW65815   4.151   8.770   4.854 -0.2383  0.1760 -0.3251
18054SOL    HW165816   4.092   8.816   4.920 -1.1058  0.2200 -1.1275
18054SOL    HW265817   4.230   8.829   4.833 -0.4188  0.5331  0.0048
18055SOL     OW65818   2.386   2.918   3.415  0.0887  0.0829  0.6021
18055SOL    HW165819   2.321   2.847   3.388 -0.1428  0.2982  0.5854
18055SOL    HW265820   2.457   2.879   3.473 -0.8754  0.1414  1.8263
18056SOL     OW65821   7.522   5.511   1.028  0.3275  0.6367 -0.3879
18056SOL    HW165822   7.590   5.557   0.970  2.5161 -0.5105  1.2087
18056SOL    HW265823   7.549   5.416   1.040 -1.2533  0.3351  0.7936
18057SOL     OW65824   0.644   1.682   4.372 -0.4439 -0.1823  0.2560
18057SOL    HW165825   0.693   1.599   4.399 -1.2335 -0.6491  0.2660
18057SOL    HW265826   0.616   1.732   4.455  0.3536  0.2807  0.2424
18058SOL     OW65827   4.812   1.340   5.709  0.3159  0.2435 -0.1321
18058SOL    HW165828   4.738   1.279   5.682  0.0243  0.2289  0.7020
18058SOL    HW265829   4.862   1.300   5.786  0.4429  0.8176  0.0848
18059SOL     OW65830   4.744   4.859   2.803  0.1896 -0.0265 -0.1832
18059SOL    HW165831   4.682   4.937   2.810 -0.2178 -0.3058 -0.6228
18059SOL    HW265832   4.727   4.796   2.878  0.3920  0.2159  0.0679
18060SOL     OW65833   0.860   7.537   5.545  0.0872  0.4345  0.0575
18060SOL    HW165834   0.897   7.630   5.543  0.6516  0.2119  0.0467
18060SOL    HW265835   0.902   7.483   5.472 -0.4865  0.2637 -0.1496
18061SOL     OW65836   8.036   0.083   3.872 -0.7539 -0.0682 -0.1012
18061SOL    HW165837   8.058  -0.008   3.839 -0.3032 -0.1991  0.5661
18061SOL    HW265838   8.118   0.140   3.872 -0.3782 -0.5597  2.4046
18062SOL     OW65839   9.779   7.973   1.718 -0.0410 -0.1418  0.2488
18062SOL    HW165840   9.683   7.954   1.739  0.3069 -2.1965  0.1415
18062SOL    HW265841   9.806   8.060   1.757 -1.1662 -0.9003  2.7859
18063SOL     OW65842   0.686   4.905   6.621  0.1105 -0.3875 -0.5440
18063SOL    HW165843   0.714   4.873   6.531 -1.8834  0.2295 -1.4115
18063SOL    HW265844   0.619   4.842   6.660 -1.0581  0.7384 -0.6736
18064SOL     OW65845   2.698   8.218   4.288  0.0561  0.2935  0.0061
18064SOL    HW165846   2.727   8.192   4.380 -0.4551  1.4557  0.4974
18064SOL    HW265847   2.641   8.299   4.292 -1.1269 -0.4462 -1.2073
18065SOL     OW65848   0.074   0.921   6.748  0.2882 -0.1476 -0.2593
18065SOL    HW165849   0.084   0.933   6.649  1.0518  0.5700 -0.0968
18065SOL    HW265850   0.020   0.997   6.785  0.8421  0.1103  0.0217
18066SOL     OW65851   0.602   5.165   5.346 -0.1468  0.1892  0.4074
18066SOL    HW165852   0.525   5.115   5.387 -0.1308  1.0385  1.4818
18066SOL    HW265853   0.644   5.109   5.275  2.5833 -3.1388  4.4486
18067SOL     OW65854   9.232   7.529   4.721  0.1734  0.2018 -0.4862
18067SOL    HW165855   9.291   7.606   4.746 -0.7208  0.7868 -0.1660
18067SOL    HW265856   9.153   7.527   4.781  0.4275 -1.2640 -0.1864
18068SOL     OW65857   2.524   2.342   4.326 -0.0128  0.3740  0.4463
18068SOL    HW165858   2.426   2.325   4.330  0.2276 -1.0807  0.3821
18068SOL    HW265859   2.561   2.311   4.239  0.6367  0.1764  0.7817
18069SOL     OW65860   2.196   7.764   1.312  0.3863  0.1620  0.2544
18069SOL    HW165861   2.196   7.676   1.360  0.9745  0.0521  0.0630
18069SOL    HW265862   2.107   7.807   1.322 -0.6823 -1.5276 -1.6317
18070SOL     OW65863   1.277   7.362   5.318 -0.3706 -0.3969 -0.1801
18070SOL    HW165864   1.283   7.383   5.220 -1.2132  0.2323 -0.1071
18070SOL    HW265865   1.268   7.447   5.369  0.9222 -0.6745  0.5257
18071SOL     OW65866   9.279   0.430   5.069 -0.1870 -0.5602 -0.3189
18071SOL    HW165867   9.257   0.409   5.165  0.8712 -1.7701 -0.3268
18071SOL    HW265868   9.358   0.490   5.065 -1.3482  0.9927 -0.3954
18072SOL     OW65869   5.430   2.749   5.182  0.5860 -0.4004  0.5071
18072SOL    HW165870   5.347   2.714   5.138 -0.4173  1.4657  0.8966
18072SOL    HW265871   5.413   2.763   5.279  1.2140  0.4548  0.4926
18073SOL     OW65872   0.603   8.368   2.973  0.0999 -0.0384  0.6768
18073SOL    HW165873   0.700   8.364   2.998  0.1218  0.3370  0.6481
18073SOL    HW265874   0.575   8.280   2.936 -0.0366 -0.7391  2.3916
18074SOL     OW65875   4.149   3.210   3.450 -0.4349  0.5837  0.1213
18074SOL    HW165876   4.050   3.206   3.465 -0.2398 -0.9316  1.1401
18074SOL    HW265877   4.186   3.293   3.490 -1.1604  0.6688  0.6182
18075SOL     OW65878   3.008   2.054   6.532 -0.6883 -0.2466 -0.6526
18075SOL    HW165879   3.091   2.004   6.556  0.0013  0.3329 -1.7511
18075SOL    HW265880   2.951   1.998   6.473 -0.6422 -0.3173 -0.6304
18076SOL     OW65881   1.642   9.971   1.352  0.0526  0.0305  0.1167
18076SOL    HW165882   1.684   9.977   1.261  2.3375  1.6816  1.2330
18076SOL    HW265883   1.668   9.885   1.396  0.7066  0.1949  0.0538
18077SOL     OW65884   0.238   2.222   1.137  0.2126 -0.2106 -0.0326
18077SOL    HW165885   0.320   2.242   1.190  1.1765 -2.7341 -0.4963
18077SOL    HW265886   0.242   2.271   1.049 -0.6491  2.7227  1.5026
18078SOL     OW65887   4.529   2.626   3.011 -0.1864 -0.1440  0.1204
18078SOL    HW165888   4.510   2.657   2.918  0.4207  2.6570  0.8724
18078SOL    HW265889   4.608   2.565   3.011 -1.5063 -1.9148 -1.4366
18079SOL     OW65890   6.792   1.167   5.243 -0.1181  0.0628 -0.1527
18079SOL    HW165891   6.725   1.193   5.174 -1.5080  0.9368  1.4768
18079SOL    HW265892   6.811   1.245   5.302  1.4637 -0.5156  0.1393
18080SOL     OW65893   8.005   6.450   2.564 -0.2868  0.4561  0.2349
18080SOL    HW165894   8.075   6.394   2.519  0.1664 -0.9329  2.5617
18080SOL    HW265895   8.043   6.540   2.585 -0.0097  0.5735 -0.7565
18081SOL     OW65896   5.246   9.398   0.735 -0.3071  0.2219  0.6333
18081SOL    HW165897   5.148   9.378   0.731 -0.2650 -0.1649  1.3120
18081SOL    HW265898   5.297   9.318   0.706 -0.2089  1.0545 -1.5932
18082SOL     OW65899   6.033   5.648   0.699 -0.2549  0.0187 -0.1067
18082SOL    HW165900   6.060   5.626   0.605  1.3201 -1.9289  0.7608
18082SOL    HW265901   6.083   5.589   0.762  0.8292  3.2260  2.1427
18083SOL     OW65902   8.375   0.628   7.269  0.3636  0.0456 -0.2920
18083SOL    HW165903   8.341   0.554   7.328  0.3060  0.5208  0.2730
18083SOL    HW265904   8.345   0.612   7.175 -0.5625 -0.0795  0.0224
18084SOL     OW65905   1.069   0.184   1.316  0.0061  0.0713 -0.2266
18084SOL    HW165906   1.039   0.196   1.221 -0.0453  0.0864 -0.2084
18084SOL    HW265907   1.113   0.267   1.348  0.6393 -0.1747 -0.4640
18085SOL     OW65908   3.774   7.175   1.584  0.0209  0.4235  0.1057
18085SOL    HW165909   3.688   7.150   1.627  0.5684 -1.1259  0.3256
18085SOL    HW265910   3.823   7.240   1.642 -0.5817  0.6291  0.3919
18086SOL     OW65911   9.300   4.428   2.883 -0.1447  0.2565 -0.1245
18086SOL    HW165912   9.383   4.383   2.852 -0.6932  0.2092 -1.5857
18086SOL    HW265913   9.314   4.527   2.886 -0.1758  0.2851 -0.8342
18087SOL     OW65914   2.855   9.440   6.977 -0.5990 -0.0937 -0.3667
18087SOL    HW165915   2.885   9.379   6.904 -0.0265 -1.5220  1.0187
18087SOL    HW265916   2.891   9.532   6.961 -1.7842 -0.0097 -2.6803
18088SOL     OW65917   8.888   6.011   3.067 -0.2004 -0.7031 -0.0738
18088SOL    HW165918   8.984   5.987   3.081 -0.1652 -0.5140  0.0084
18088SOL    HW265919   8.844   6.024   3.156 -0.4615 -1.4004 -0.0951
18089SOL     OW65920   4.579   0.987   4.771  0.0610 -0.4792  0.0820
18089SOL    HW165921   4.505   0.921   4.756 -0.4315  0.2517 -0.7544
18089SOL    HW265922   4.660   0.959   4.720 -0.4036 -0.0128 -0.9194
18090SOL     OW65923   9.264   4.192   1.885  0.7063  0.1232  0.2689
18090SOL    HW165924   9.187   4.129   1.876  1.1967 -0.3614 -0.6382
18090SOL    HW265925   9.349   4.141   1.876  1.1078  0.9414 -0.6579
18091SOL     OW65926   9.777   9.846   4.636  0.4587  0.0868 -0.6256
18091SOL    HW165927   9.801   9.942   4.651 -0.2409 -0.0232  1.3960
18091SOL    HW265928   9.681   9.832   4.659  0.7382 -1.2328 -0.2289
18092SOL     OW65929   2.689   7.758   7.877 -0.2575  0.1088 -0.0381
18092SOL    HW165930   2.782   7.724   7.893 -0.1508  0.4117 -0.0139
18092SOL    HW265931   2.632   7.684   7.840  0.0458 -0.0224 -0.2441
18093SOL     OW65932   8.984   2.241   7.115  0.2524  0.2474 -0.6714
18093SOL    HW165933   8.907   2.300   7.091 -0.4959 -0.5594 -0.2770
18093SOL    HW265934   9.065   2.297   7.133  0.0856  1.0301 -2.2794
18094SOL     OW65935   4.247   1.145   7.303  0.5525  0.2410 -0.2394
18094SOL    HW165936   4.220   1.092   7.222  0.2543  0.5646 -0.3524
18094SOL    HW265937   4.277   1.082   7.375  0.2653 -0.0800 -0.3957
18095SOL     OW65938   0.660   8.702   3.097 -0.1485 -0.2466  0.3873
18095SOL    HW165939   0.728   8.716   3.169 -1.7534 -1.2282  2.1458
18095SOL    HW265940   0.704   8.710   3.008  1.9969  0.4504  1.4613
18096SOL     OW65941   4.847   1.037   2.380  0.3474  0.1352  0.0322
18096SOL    HW165942   4.905   1.109   2.418  1.6086  0.0472 -1.6719
18096SOL    HW265943   4.772   1.079   2.329 -0.6346  0.2414  1.5325
18097SOL     OW65944   0.480   0.250   6.439 -0.3867  0.0930 -0.4536
18097SOL    HW165945   0.477   0.151   6.431 -1.4008  0.1723 -1.1465
18097SOL    HW265946   0.558   0.277   6.496 -0.0376 -1.0869 -0.3673
18098SOL     OW65947   2.333   5.220   4.255  0.0853 -0.3666 -0.3332
18098SOL    HW165948   2.393   5.180   4.325  0.1555 -1.9885 -1.2832
18098SOL    HW265949   2.240   5.185   4.266  0.2359 -1.1433 -1.4254
18099SOL     OW65950   7.028   1.189   7.060  0.3554 -0.4129 -0.3015
18099SOL    HW165951   6.935   1.180   7.025  0.3462 -2.8074  0.2516
18099SOL    HW265952   7.069   1.099   7.068  1.7990  0.4116  1.9737
18100SOL     OW65953   8.117   0.419   7.615  0.3094  0.4295  0.3328
18100SOL    HW165954   8.191   0.409   7.683  0.9994  1.1836 -0.2863
18100SOL    HW265955   8.066   0.503   7.635  1.7192  1.7043 -1.1708
18101SOL     OW65956   8.241   6.199   2.789  0.1372 -0.0955  0.1142
18101SOL    HW165957   8.210   6.292   2.805  0.5388 -0.3712  2.6844
18101SOL    HW265958   8.208   6.140   2.863  1.6446 -1.5915 -0.3830
18102SOL     OW65959   3.369   5.795   4.610  0.3381 -0.2346 -0.6199
18102SOL    HW165960   3.427   5.781   4.529  0.2777 -0.1573 -0.6764
18102SOL    HW265961   3.427   5.803   4.691  0.4396  0.3891 -0.7511
18103SOL     OW65962   2.386   6.477   2.548  0.7681  0.2169  0.8175
18103SOL    HW165963   2.352   6.474   2.643  0.7728 -0.6052  0.7961
18103SOL    HW265964   2.313   6.447   2.486  0.2839  2.1479  0.4198
18104SOL     OW65965   1.507   0.574   4.480  0.4014  0.1226 -0.1788
18104SOL    HW165966   1.451   0.563   4.398  1.7363  1.4898 -1.3014
18104SOL    HW265967   1.580   0.640   4.462  0.2461  1.0260  2.3604
18105SOL     OW65968   0.402   1.198   7.467  0.4436 -0.3666  0.3996
18105SOL    HW165969   0.352   1.279   7.499  1.3015  0.3237  0.0035
18105SOL    HW265970   0.455   1.160   7.543  0.7720 -0.0113  0.3474
18106SOL     OW65971   8.913   3.945   4.904 -0.5993  0.2301  0.5526
18106SOL    HW165972   9.003   3.980   4.878 -0.2966 -0.2095  0.9987
18106SOL    HW265973   8.924   3.875   4.974 -1.2311 -0.4188  0.0150
18107SOL     OW65974   2.389   3.567   7.295 -0.3588 -0.0049 -0.0819
18107SOL    HW165975   2.487   3.587   7.293 -0.7207  1.8529  0.2408
18107SOL    HW265976   2.362   3.543   7.388 -0.5709  1.4230  0.2385
18108SOL     OW65977   8.761   5.826   2.831 -0.1274  0.5384 -0.0150
18108SOL    HW165978   8.802   5.852   2.919 -0.6788 -0.0987  0.4318
18108SOL    HW265979   8.752   5.727   2.826 -1.6213  0.6755 -0.1101
18109SOL     OW65980   3.791   0.436   0.223 -0.1156 -0.5603  0.2217
18109SOL    HW165981   3.820   0.340   0.223  0.4326 -0.4012  1.2646
18109SOL    HW265982   3.763   0.462   0.130  3.1913 -0.7185 -0.9165
18110SOL     OW65983   9.272   2.632   3.721  0.0961 -0.2958  0.2788
18110SOL    HW165984   9.187   2.612   3.673  0.7367 -1.1838 -0.5108
18110SOL    HW265985   9.329   2.550   3.723  0.3716 -0.0834  1.9665
18111SOL     OW65986   3.429   4.517   5.623  0.2625  0.1128 -0.1184
18111SOL    HW165987   3.451   4.593   5.562 -3.0758 -0.7182 -2.4968
18111SOL    HW265988   3.352   4.543   5.682 -0.2337 -1.0479 -0.2367
18112SOL     OW65989   4.081   9.996   2.654  0.3851  0.3141 -0.0058
18112SOL    HW165990   4.016  10.071   2.666  0.7979  0.9777 -1.6778
18112SOL    HW265991   4.049   9.915   2.703 -2.9080 -0.0696 -2.6219
18113SOL     OW65992   0.280   4.851   0.478 -0.0361 -0.8679  0.1659
18113SOL    HW165993   0.251   4.858   0.382  1.1368 -0.7549 -0.1807
18113SOL    HW265994   0.250   4.763   0.515  0.2739 -1.2839 -0.5614
18114SOL     OW65995   1.721   7.667   0.085  0.3310 -0.2329 -0.4979
18114SOL    HW165996   1.660   7.703   0.014 -0.6537 -1.4064 -0.2657
18114SOL    HW265997   1.707   7.718   0.170  0.6217  0.3522 -0.7921
18115SOL     OW65998   9.466   4.125   4.877 -0.1123 -0.0358 -0.2601
18115SOL    HW165999   9.461   4.116   4.778  2.4786  1.3066 -0.5511
18115SOL    HW266000   9.465   4.222   4.902 -1.8339 -0.3787  1.1172
18116SOL     OW66001   1.564   4.241   1.028  0.2087  0.4559 -0.0220
18116SOL    HW166002   1.615   4.155   1.030  0.3710  0.5441 -0.4324
18116SOL    HW266003   1.553   4.272   0.933  1.3351  1.5893  0.2041
18117SOL     OW66004   1.959   8.993   6.976  0.1360 -0.0534 -0.2427
18117SOL    HW166005   1.873   9.007   7.025  0.3808  1.0949 -0.1172
18117SOL    HW266006   2.030   8.963   7.040 -0.0530 -0.5345 -0.2601
18118SOL     OW66007   4.298   1.944   6.689  0.3129 -0.7084  0.2665
18118SOL    HW166008   4.327   1.897   6.605 -1.1906  1.2250 -1.4002
18118SOL    HW266009   4.371   2.007   6.718 -0.1291  0.4595 -1.0616
18119SOL     OW66010   4.744   4.458   6.554  0.5741  0.0140  0.1994
18119SOL    HW166011   4.798   4.458   6.638 -0.9864  0.2290  1.2143
18119SOL    HW266012   4.647   4.449   6.576  0.1019  0.5566 -1.5517
18120SOL     OW66013   4.155   0.765   6.949 -0.3483 -0.0806 -0.1414
18120SOL    HW166014   4.229   0.749   6.884 -1.8322 -0.5556 -1.7357
18120SOL    HW266015   4.137   0.682   7.002 -1.1144 -0.5812 -1.1873
18121SOL     OW66016   7.864   0.862   6.578  0.2014 -0.2505  0.2399
18121SOL    HW166017   7.781   0.820   6.541  1.3241 -1.8796 -0.4548
18121SOL    HW266018   7.879   0.950   6.534  0.3548 -1.2050 -1.6644
18122SOL     OW66019   3.542   4.308   4.383  0.0825 -0.3378 -0.3062
18122SOL    HW166020   3.553   4.403   4.415  0.8348 -0.2905 -0.6976
18122SOL    HW266021   3.632   4.264   4.379 -0.5499 -2.1525  3.1679
18123SOL     OW66022   3.479   0.808   0.328  0.1665 -0.5507  0.2291
18123SOL    HW166023   3.459   0.846   0.419 -0.0083 -0.9732  0.3687
18123SOL    HW266024   3.522   0.718   0.338 -0.9327 -1.1250 -0.1135
18124SOL     OW66025   0.511   5.370   0.021  0.4102 -0.7065  0.1581
18124SOL    HW166026   0.533   5.437   0.092 -0.9081 -0.0699  0.0024
18124SOL    HW266027   0.542   5.404  -0.068  0.7516 -0.8224  0.2350
18125SOL     OW66028   5.610   9.592   1.006 -0.3944  0.8455 -0.4326
18125SOL    HW166029   5.602   9.646   1.090  2.2232 -0.3674  0.6648
18125SOL    HW266030   5.673   9.638   0.943 -1.2558  1.0398 -1.1656
18126SOL     OW66031   3.202   3.876   6.534  0.7217  0.9098 -0.0186
18126SOL    HW166032   3.159   3.801   6.484 -1.0464  1.5108  0.5616
18126SOL    HW266033   3.138   3.953   6.538  2.3114  2.2434 -0.1379
18127SOL     OW66034   7.638   3.641   5.551  0.2369  0.1277  0.3798
18127SOL    HW166035   7.550   3.638   5.504  0.9615 -0.0267 -1.0056
18127SOL    HW266036   7.688   3.723   5.523  1.6063 -1.0871 -0.8738
18128SOL     OW66037   4.238   5.377   7.180  0.7993  0.6100  0.0860
18128SOL    HW166038   4.262   5.438   7.255  1.0881 -0.0081  0.4980
18128SOL    HW266039   4.139   5.377   7.166  0.9371  2.6853 -1.2023
18129SOL     OW66040   7.321   8.194   4.165 -0.3707  0.5077  0.5613
18129SOL    HW166041   7.241   8.186   4.106 -0.6689 -1.2444  1.1780
18129SOL    HW266042   7.303   8.147   4.252  1.9155 -1.2939  0.0893
18130SOL     OW66043   0.362   8.411   4.038 -0.6140 -0.1428  0.3805
18130SOL    HW166044   0.442   8.454   3.996 -1.8151  2.1131  0.3204
18130SOL    HW266045   0.335   8.331   3.984  0.7335 -0.0920 -0.3968
18131SOL     OW66046   0.355   9.007   3.319  0.5545  0.1055 -0.1173
18131SOL    HW166047   0.385   8.947   3.393 -0.1055 -0.4665 -0.3047
18131SOL    HW266048   0.377   8.965   3.231 -0.9818 -0.4227 -0.2579
18132SOL     OW66049   9.948   8.743   1.980 -0.3664  0.0695 -0.2570
18132SOL    HW166050   9.876   8.680   2.010 -0.4140  0.1909 -0.1170
18132SOL    HW266051   9.958   8.737   1.881 -0.2801 -0.2574 -0.2286
18133SOL     OW66052   1.356   4.428   2.999 -0.2581  0.2108 -0.6374
18133SOL    HW166053   1.354   4.392   2.905 -1.8329 -0.6980 -0.2687
18133SOL    HW266054   1.287   4.499   3.009  0.6574  1.0841 -0.4593
18134SOL     OW66055   8.365   5.849   6.229 -0.1006  0.0166  0.0020
18134SOL    HW166056   8.357   5.815   6.323  2.2990 -1.6151 -0.3474
18134SOL    HW266057   8.401   5.942   6.231  1.6347 -0.6492  0.6574
18135SOL     OW66058   6.148   9.158   3.695 -0.4577 -0.3426  0.1710
18135SOL    HW166059   6.144   9.076   3.752  1.0370  0.0732  0.8907
18135SOL    HW266060   6.220   9.219   3.729 -0.4080  0.4863 -1.3812
18136SOL     OW66061   0.659   3.455   3.332  0.3164 -0.0236 -0.9789
18136SOL    HW166062   0.606   3.430   3.250  0.5678 -0.2917 -1.0632
18136SOL    HW266063   0.637   3.548   3.359  1.5382  0.7102 -2.4105
18137SOL     OW66064   9.132   1.336   1.006 -0.0241  0.3469 -0.2688
18137SOL    HW166065   9.066   1.273   1.045 -1.4704  1.7625 -0.3509
18137SOL    HW266066   9.221   1.292   0.999 -0.1840 -0.5646  2.8121
18138SOL     OW66067   1.138   6.242   7.025  0.2532  0.2769 -0.0986
18138SOL    HW166068   1.043   6.250   7.055 -0.3705 -0.5042 -1.8158
18138SOL    HW266069   1.173   6.332   7.000 -0.9715  0.2078 -2.1921
18139SOL     OW66070   5.890   4.287   7.990 -0.6900 -0.0341 -0.0103
18139SOL    HW166071   5.874   4.221   7.917  1.3955 -1.9845  1.2505
18139SOL    HW266072   5.856   4.377   7.961 -1.8301 -1.2093 -2.5000
18140SOL     OW66073   7.471   6.665   6.819  0.2674  0.1104  0.1588
18140SOL    HW166074   7.520   6.747   6.848 -1.5607  0.8731  1.1989
18140SOL    HW266075   7.420   6.627   6.897 -0.8472 -0.5940 -0.8892
18141SOL     OW66076   7.858   7.362   2.572 -0.0338 -0.2835  0.0985
18141SOL    HW166077   7.829   7.266   2.565  0.4224 -0.4693  0.6752
18141SOL    HW266078   7.914   7.385   2.493 -1.1949 -0.1161 -0.6828
18142SOL     OW66079   0.193   2.996   4.238  0.1809  0.6570  0.5050
18142SOL    HW166080   0.210   3.014   4.141  0.1012 -0.9843  0.1751
18142SOL    HW266081   0.231   3.071   4.292 -0.2295  1.8482 -0.8097
18143SOL     OW66082   9.318   2.043   5.940 -0.0709 -0.4315 -0.1473
18143SOL    HW166083   9.303   2.141   5.927 -1.7533 -0.6789 -0.1668
18143SOL    HW266084   9.353   2.027   6.033  0.9321  0.2520 -0.4031
18144SOL     OW66085   7.447   1.073   2.986 -0.3187 -0.3610  0.3211
18144SOL    HW166086   7.497   0.987   2.994  0.6869  0.1883 -0.0600
18144SOL    HW266087   7.414   1.101   3.077  1.3369  0.0343  0.8138
18145SOL     OW66088   2.381   0.485   5.834 -0.0775 -0.2852  0.3783
18145SOL    HW166089   2.454   0.424   5.863 -1.2170 -1.5384  0.6411
18145SOL    HW266090   2.373   0.484   5.734  1.0151  0.7494  0.2673
18146SOL     OW66091   1.371   5.440   2.181 -0.5716 -0.1284  1.6060
18146SOL    HW166092   1.280   5.399   2.175 -0.0292 -0.9750 -1.4642
18146SOL    HW266093   1.377   5.494   2.265 -4.3196  0.9466  1.2725
18147SOL     OW66094   2.738   7.027   3.954 -0.1456  0.3468 -0.3576
18147SOL    HW166095   2.831   7.063   3.950 -0.1061  0.2340 -0.4538
18147SOL    HW266096   2.676   7.088   3.904  0.4744 -1.4602 -3.5029
18148SOL     OW66097   1.169   3.876   5.332 -0.4132  0.7568 -0.0659
18148SOL    HW166098   1.124   3.803   5.384 -0.3664  0.7714 -0.0051
18148SOL    HW266099   1.171   3.960   5.386 -0.2485  0.7371 -0.0394
18149SOL     OW66100   7.514   0.554   3.771  0.5761 -0.4120 -0.1307
18149SOL    HW166101   7.578   0.623   3.738  1.4789 -0.7359  0.8756
18149SOL    HW266102   7.441   0.598   3.824  1.8147 -0.2917  1.5412
18150SOL     OW66103   5.814   9.108   6.389  0.0942 -0.1980 -0.6683
18150SOL    HW166104   5.808   9.208   6.391 -0.5725 -0.2332 -0.8240
18150SOL    HW266105   5.891   9.081   6.333 -0.7894  0.1976 -2.0943
18151SOL     OW66106   1.222   8.082   1.932 -0.1985  0.0140 -0.3729
18151SOL    HW166107   1.209   7.991   1.893  0.9761 -0.5746  0.5691
18151SOL    HW266108   1.240   8.074   2.030  0.7044  1.2060 -0.4318
18152SOL     OW66109   9.298   6.830   6.572 -0.2381  0.0846  0.1668
18152SOL    HW166110   9.228   6.793   6.511  0.8413 -1.4584 -0.1679
18152SOL    HW266111   9.326   6.759   6.637  0.3282  0.9824  0.9042
18153SOL     OW66112   2.419   7.997   4.477  0.1467  0.4768  0.2084
18153SOL    HW166113   2.369   8.052   4.411  1.8780  4.1812  1.8406
18153SOL    HW266114   2.357   7.964   4.548 -1.0471 -0.4579 -1.2396
18154SOL     OW66115   4.758   3.214   6.508 -0.5004  0.0731 -0.5870
18154SOL    HW166116   4.795   3.126   6.537  1.9724  1.1576 -0.3433
18154SOL    HW266117   4.769   3.281   6.581 -1.8577  0.7538 -0.9767
18155SOL     OW66118   6.008   6.275   0.065  0.0096  0.2219  0.3046
18155SOL    HW166119   6.086   6.266   0.003  1.1731 -1.0741  1.8970
18155SOL    HW266120   6.030   6.342   0.137  1.2422 -2.9058  2.9804
18156SOL     OW66121   8.618   9.810   4.556 -0.2178 -0.0656 -0.4834
18156SOL    HW166122   8.527   9.786   4.590  0.4351  3.3045  4.0516
18156SOL    HW266123   8.682   9.735   4.577 -1.6463 -2.0206 -2.8090
18157SOL     OW66124   8.526   4.360   2.738  0.3273  0.1110  0.0154
18157SOL    HW166125   8.578   4.439   2.705 -1.5160  1.7563  0.9363
18157SOL    HW266126   8.472   4.322   2.663 -1.1837  1.7034  0.2461
18158SOL     OW66127   6.130   5.737   1.127 -0.7416 -0.1730 -0.1628
18158SOL    HW166128   6.215   5.761   1.081 -0.0669 -0.7516  0.7801
18158SOL    HW266129   6.056   5.732   1.060 -0.2446  1.3096 -0.8483
18159SOL     OW66130   6.312   9.353   1.640 -0.5333  0.2861 -0.7344
18159SOL    HW166131   6.345   9.352   1.545  1.9107 -0.0314  0.0916
18159SOL    HW266132   6.346   9.272   1.688  0.2353  1.6493  1.0764
18160SOL     OW66133   5.843   7.361   3.490  0.2408 -0.1662 -0.6040
18160SOL    HW166134   5.895   7.408   3.562 -2.8580  1.1076  0.9169
18160SOL    HW266135   5.847   7.262   3.505 -0.5069  0.0887  1.4452
18161SOL     OW66136   6.469   0.081   5.329  0.0872  0.2542 -0.4186
18161SOL    HW166137   6.371   0.100   5.337  0.2628  1.0099 -0.0976
18161SOL    HW266138   6.513   0.150   5.271  0.3839 -0.2434 -0.7942
18162SOL     OW66139   7.390   0.297   7.039  0.7225 -0.1564 -0.3282
18162SOL    HW166140   7.442   0.218   7.007 -1.5601 -1.7759 -0.1816
18162SOL    HW266141   7.323   0.323   6.970 -0.2322  0.0521  0.6619
18163SOL     OW66142   9.958   4.399   5.237  0.2496 -0.1698 -0.1471
18163SOL    HW166143  10.050   4.424   5.210  0.0495 -1.5668 -2.2043
18163SOL    HW266144   9.959   4.362   5.330  1.5239  1.0769  0.3497
18164SOL     OW66145   0.084   6.623   3.006 -0.0030 -0.3651  0.5344
18164SOL    HW166146  -0.006   6.654   3.036 -1.0494 -0.7240 -2.1027
18164SOL    HW266147   0.144   6.702   2.992 -1.1417  0.1838 -1.4361
18165SOL     OW66148   4.994   8.908   5.948 -0.1499 -0.3485 -0.0752
18165SOL    HW166149   4.941   8.953   5.875 -0.2777 -1.5535 -0.7346
18165SOL    HW266150   5.062   8.973   5.983 -1.1209  0.7580 -0.1836
18166SOL     OW66151   7.923   4.357   2.411 -0.6779  0.0645  0.1368
18166SOL    HW166152   7.999   4.396   2.358  0.1508 -3.1168 -1.1508
18166SOL    HW266153   7.843   4.345   2.352 -0.7837 -0.5560  0.3958
18167SOL     OW66154   4.370   4.838   1.776  0.0517  0.3366  0.0049
18167SOL    HW166155   4.386   4.792   1.863 -0.1924  0.0396 -0.1079
18167SOL    HW266156   4.435   4.804   1.708 -1.5516 -1.4459 -0.6661
18168SOL     OW66157   0.869   2.323   6.138 -0.4202 -0.4350 -0.4430
18168SOL    HW166158   0.888   2.225   6.136  0.2936 -0.3349  0.9077
18168SOL    HW266159   0.792   2.341   6.199  0.3018 -0.0312  0.3576
18169SOL     OW66160   3.736   1.152   0.692 -0.4351  0.2051 -0.4681
18169SOL    HW166161   3.755   1.154   0.790  2.1048 -0.9909 -0.8919
18169SOL    HW266162   3.703   1.241   0.662  2.1806  1.6779  0.8441
18170SOL     OW66163   8.710   0.488   7.377 -0.1023  0.4337  0.2081
18170SOL    HW166164   8.763   0.409   7.345  1.2664  1.3819  0.1103
18170SOL    HW266165   8.645   0.515   7.306 -0.5931 -0.6013  0.2469
18171SOL     OW66166   9.549   7.333   6.037  0.1109  0.4118  0.2978
18171SOL    HW166167   9.562   7.432   6.041 -0.9182  0.5780 -0.2664
18171SOL    HW266168   9.469   7.312   5.981 -0.1319 -0.7050  1.0397
18172SOL     OW66169   9.156   1.396   0.591  0.1745 -0.5869 -0.0627
18172SOL    HW166170   9.227   1.457   0.626 -0.5168  0.6912 -0.8476
18172SOL    HW266171   9.091   1.376   0.665 -0.6087  1.1278 -0.2435
18173SOL     OW66172   4.270   0.074   0.705 -0.1147 -0.0799 -0.3212
18173SOL    HW166173   4.287  -0.017   0.666 -1.3446 -1.0900  1.4239
18173SOL    HW266174   4.318   0.083   0.792 -0.6396  0.6453 -0.0980
18174SOL     OW66175   7.661   6.101   5.916 -0.5020 -0.3052 -0.9080
18174SOL    HW166176   7.638   6.125   6.010  3.1103 -0.2886  0.0470
18174SOL    HW266177   7.636   6.006   5.899 -1.0870 -0.3399  0.0736
18175SOL     OW66178   7.905   6.830   6.054 -0.1490  0.7227  0.4976
18175SOL    HW166179   7.903   6.741   6.099  0.3942 -0.4552 -1.7112
18175SOL    HW266180   7.813   6.854   6.024  0.1839 -0.6530 -1.7573
18176SOL     OW66181   6.669   9.894   5.385  0.6899  0.7924  0.2867
18176SOL    HW166182   6.744   9.938   5.334 -0.0579 -1.3899 -2.8406
18176SOL    HW266183   6.583   9.940   5.363  0.4977  0.4657  0.3610
18177SOL     OW66184   8.883   3.383   7.034 -0.2895  0.4206 -0.6252
18177SOL    HW166185   8.896   3.395   6.935 -0.9480 -2.2770 -1.0873
18177SOL    HW266186   8.788   3.359   7.052 -0.0162  0.2443  0.6132
18178SOL     OW66187   5.437   6.602   1.105 -0.3310 -0.1008 -0.3231
18178SOL    HW166188   5.347   6.562   1.086 -0.5466  0.2185  0.0058
18178SOL    HW266189   5.495   6.534   1.150 -0.7846  0.0312  0.4685
18179SOL     OW66190   0.399   7.942   2.647 -0.0286  0.1214 -0.1847
18179SOL    HW166191   0.486   7.909   2.610 -0.0414  1.1048 -1.1355
18179SOL    HW266192   0.408   8.038   2.673 -1.2714  0.7105 -1.8236
18180SOL     OW66193   2.926   5.967   1.004 -0.6124  0.1183  0.1473
18180SOL    HW166194   2.842   5.913   1.009 -0.2921 -0.3122  1.2439
18180SOL    HW266195   3.004   5.907   1.020 -0.1933  0.7662  0.5535
18181SOL     OW66196   5.913   4.530   1.907  0.1502 -0.5473  0.1132
18181SOL    HW166197   5.937   4.606   1.968 -1.2704 -0.0577  0.0860
18181SOL    HW266198   5.863   4.461   1.959  1.5366 -1.5304  0.1627
18182SOL     OW66199   7.874   8.039   3.341  0.5752  0.6350 -0.4602
18182SOL    HW166200   7.970   8.034   3.315  1.0571  2.2804  0.8946
18182SOL    HW266201   7.865   8.095   3.423 -1.4445 -0.2842 -0.0234
18183SOL     OW66202   0.548   8.781   2.126 -0.0305  0.5341 -0.1257
18183SOL    HW166203   0.563   8.811   2.220 -0.9570  0.4469  0.0556
18183SOL    HW266204   0.636   8.764   2.082  0.4058 -2.5839  1.7520
18184SOL     OW66205   4.072   8.440   1.999  0.1295 -0.0374  0.4153
18184SOL    HW166206   4.140   8.469   1.931  1.1175 -2.5361  0.2914
18184SOL    HW266207   3.986   8.418   1.953 -0.0995  0.9779  0.3281
18185SOL     OW66208   9.228   1.306   4.315  0.3252 -0.1117  0.4176
18185SOL    HW166209   9.299   1.376   4.314  0.8849 -0.6720  0.6779
18185SOL    HW266210   9.160   1.328   4.385 -1.6924  2.3044 -2.1514
18186SOL     OW66211   9.045   6.116   2.855  0.0644  0.1709 -0.0086
18186SOL    HW166212   9.059   6.214   2.842 -1.4467  0.3659 -0.2355
18186SOL    HW266213   8.971   6.101   2.919  0.6000 -0.8340  0.3867
18187SOL     OW66214   7.885   3.535   8.174 -0.6406 -0.7865 -0.1103
18187SOL    HW166215   7.841   3.498   8.092 -2.2463 -0.2255  0.4663
18187SOL    HW266216   7.953   3.469   8.208 -2.0902 -2.3821 -0.1901
18188SOL     OW66217   3.377   8.818   4.349  0.1192  0.3179  0.2603
18188SOL    HW166218   3.324   8.750   4.401 -0.9925  1.3877  0.5385
18188SOL    HW266219   3.364   8.802   4.251  0.6191 -0.4470  0.3091
18189SOL     OW66220   5.578   3.947   1.310 -0.0006 -0.3950  0.2297
18189SOL    HW166221   5.610   4.036   1.279 -1.1799  0.3740  1.1758
18189SOL    HW266222   5.656   3.891   1.337  0.7209  0.4971  0.0126
18190SOL     OW66223   3.522   0.833   6.824  0.2816  0.1985  0.6507
18190SOL    HW166224   3.469   0.912   6.794  0.6429  0.2552  0.1633
18190SOL    HW266225   3.546   0.844   6.921 -1.2512 -0.1930  1.0896
18191SOL     OW66226   7.301   1.161   1.951 -0.2368  0.2599 -0.1906
18191SOL    HW166227   7.256   1.140   1.865  0.6112  3.0930 -1.3838
18191SOL    HW266228   7.367   1.089   1.973 -1.1501 -0.9613 -1.4019
18192SOL     OW66229   0.633   4.570   6.825 -0.2240 -0.3191  0.3018
18192SOL    HW166230   0.647   4.650   6.884 -0.0417  0.3171 -0.5858
18192SOL    HW266231   0.616   4.489   6.881  0.7678  0.1194  1.2384
18193SOL     OW66232   1.126   1.879   6.308  0.0505 -0.3041 -0.2855
18193SOL    HW166233   1.169   1.852   6.221  0.7985 -0.6035  0.1741
18193SOL    HW266234   1.070   1.804   6.342  0.3858 -0.4770 -0.1136
18194SOL     OW66235   9.843   8.992   3.301  0.9633  0.4573 -0.3602
18194SOL    HW166236   9.782   8.918   3.270  0.2612  1.0268 -0.3579
18194SOL    HW266237   9.928   8.953   3.336 -1.2718 -0.6955  4.1732
18195SOL     OW66238   6.036   8.992   4.962 -0.0403 -0.3314 -0.5747
18195SOL    HW166239   6.070   8.940   4.883  1.3405 -1.6143  0.8327
18195SOL    HW266240   6.114   9.026   5.015 -0.9398  2.5182 -1.0273
18196SOL     OW66241   6.711   3.745   8.039  0.0661 -0.3367  0.2087
18196SOL    HW166242   6.745   3.809   8.108  0.1666  0.1770 -0.3152
18196SOL    HW266243   6.612   3.750   8.034 -0.0154 -1.1056  1.0297
18197SOL     OW66244   9.970   9.431   1.587  0.4224 -0.5307 -0.0137
18197SOL    HW166245   9.955   9.337   1.616 -1.9048  0.0689  0.8922
18197SOL    HW266246   9.934   9.444   1.494  1.0558 -0.6059 -0.2743
18198SOL     OW66247   6.769   9.721   2.013  0.4544  0.3424 -0.0276
18198SOL    HW166248   6.711   9.643   2.038  0.0764  1.0831  1.4525
18198SOL    HW266249   6.858   9.687   1.983  0.4169 -0.6535  0.9363
18199SOL     OW66250   1.197   0.874   5.738 -0.5360  0.2059 -0.2937
18199SOL    HW166251   1.102   0.872   5.705 -0.5854 -0.0969 -0.1348
18199SOL    HW266252   1.201   0.927   5.823 -0.2441  1.8204 -1.2989
18200SOL     OW66253   2.525   1.858   5.230  0.0431  0.5833 -0.1521
18200SOL    HW166254   2.565   1.768   5.250 -0.6768  0.1368 -0.6876
18200SOL    HW266255   2.429   1.847   5.207 -0.2237  1.5799  0.4601
18201SOL     OW66256   8.503   9.616   5.317 -0.2507 -0.4153  0.6593
18201SOL    HW166257   8.485   9.534   5.370 -0.8064 -0.3275  0.6020
18201SOL    HW266258   8.601   9.620   5.295 -0.1623 -0.8785  0.9594
18202SOL     OW66259   1.183   4.983   0.878  0.5939  0.3663  0.7228
18202SOL    HW166260   1.197   4.887   0.904 -0.9628  0.4802  2.0981
18202SOL    HW266261   1.193   5.041   0.959  0.4559  1.2472  0.1166
18203SOL     OW66262   9.997   8.800   2.703 -0.2198  0.1859 -0.6354
18203SOL    HW166263   9.956   8.891   2.703 -0.5917  0.0417 -3.3083
18203SOL    HW266264   9.934   8.734   2.661  1.3403 -0.6864 -1.6699
18204SOL     OW66265   3.370   4.442   3.445 -0.0429 -0.6715  0.5768
18204SOL    HW166266   3.463   4.424   3.413  0.4287  1.8824  0.3614
18204SOL    HW266267   3.370   4.444   3.545  0.2690 -0.0967  0.5695
18205SOL     OW66268   8.442   4.618   3.549  0.4149 -0.0628 -0.2929
18205SOL    HW166269   8.538   4.645   3.543  0.5373 -0.6124 -1.0191
18205SOL    HW266270   8.427   4.538   3.491 -0.2447 -0.6580  0.6916
18206SOL     OW66271   9.939   4.017   6.182  0.1151 -0.2835  0.9152
18206SOL    HW166272   9.868   3.947   6.178  0.0354 -0.2540  1.8528
18206SOL    HW266273   9.955   4.044   6.277 -0.5113  1.6259  0.4981
18207SOL     OW66274   5.494   0.542   4.302 -0.3937  0.7896 -0.8931
18207SOL    HW166275   5.590   0.532   4.273 -0.4851  0.7999 -1.2029
18207SOL    HW266276   5.491   0.557   4.401 -0.1684 -0.6165 -0.6610
18208SOL     OW66277   5.209   0.026   2.610  0.5819 -0.7654 -0.6337
18208SOL    HW166278   5.290   0.080   2.588 -0.0091 -0.4384 -1.9945
18208SOL    HW266279   5.151   0.016   2.529 -1.6807  0.5841  0.7452
18209SOL     OW66280   3.851   5.472   7.661 -0.2821 -0.1284 -0.2452
18209SOL    HW166281   3.785   5.447   7.590 -0.7493 -0.9461  0.4630
18209SOL    HW266282   3.802   5.499   7.744  0.2643 -1.3922  0.5026
18210SOL     OW66283   6.784   5.984   2.010  0.6226  0.1721 -0.0654
18210SOL    HW166284   6.786   6.054   1.939  1.0140  1.1340  0.8708
18210SOL    HW266285   6.690   5.951   2.022  0.3965  0.7081 -0.3417
18211SOL     OW66286   9.924   1.718   6.075  0.4179  0.4578  0.1637
18211SOL    HW166287  10.009   1.689   6.030 -0.4333  0.2899 -1.3612
18211SOL    HW266288   9.873   1.637   6.104 -0.0001  0.5298 -0.3811
18212SOL     OW66289   5.715   7.473   1.708  0.0590  0.3102  0.4399
18212SOL    HW166290   5.653   7.414   1.657  1.8472 -0.9814 -0.3048
18212SOL    HW266291   5.665   7.552   1.745 -1.7129  0.0132 -1.2937
18213SOL     OW66292   7.452   8.216   6.252  0.3397 -0.3078 -0.2867
18213SOL    HW166293   7.370   8.271   6.260  0.2559 -0.4016 -0.4990
18213SOL    HW266294   7.490   8.225   6.160 -0.5301 -1.7973 -0.8019
18214SOL     OW66295   3.437   6.546   0.515  0.8150  0.6149 -0.3032
18214SOL    HW166296   3.347   6.589   0.511  0.5631  0.0037 -1.0942
18214SOL    HW266297   3.485   6.580   0.596 -0.7878 -0.3554  1.0871
18215SOL     OW66298   9.298   5.595   4.778  0.1705 -0.3823  0.2806
18215SOL    HW166299   9.292   5.547   4.866 -0.0290  0.5806  0.7919
18215SOL    HW266300   9.308   5.693   4.794  0.4252 -0.2335 -0.7719
18216SOL     OW66301   5.444   5.594   0.335  0.0311 -0.3771 -0.0213
18216SOL    HW166302   5.352   5.587   0.375 -0.3786 -1.2287 -1.0552
18216SOL    HW266303   5.471   5.690   0.330  0.6559 -0.3113  3.4420
18217SOL     OW66304   1.749   2.800   4.604  0.4644 -0.0934  0.1428
18217SOL    HW166305   1.792   2.796   4.694  1.7727  1.3429 -0.4196
18217SOL    HW266306   1.791   2.732   4.544 -0.0188 -0.6510  0.4180
18218SOL     OW66307   1.725   2.077   2.668 -0.0918 -0.2365 -0.1282
18218SOL    HW166308   1.785   2.157   2.672  0.9649 -0.9037 -2.1755
18218SOL    HW266309   1.736   2.022   2.751  1.3642  0.1844 -0.0343
18219SOL     OW66310   5.392   6.845   1.189 -0.1838 -0.1304 -0.4486
18219SOL    HW166311   5.478   6.892   1.206  0.6466 -1.8943  0.2655
18219SOL    HW266312   5.405   6.774   1.120 -0.4080 -2.1857  1.5384
18220SOL     OW66313   0.591   7.575   4.862  0.5201 -0.2605  0.6153
18220SOL    HW166314   0.495   7.568   4.889  0.3552  0.2878  0.1630
18220SOL    HW266315   0.649   7.543   4.938  0.0027 -0.1686  1.0520
18221SOL     OW66316   7.887   5.672   4.898 -0.3079  0.4412 -0.0591
18221SOL    HW166317   7.805   5.665   4.954 -1.0285 -1.4431 -1.3052
18221SOL    HW266318   7.938   5.586   4.902  1.6075  1.5656  0.6546
18222SOL     OW66319   1.634   3.934   4.785  0.0709 -0.3875  0.4546
18222SOL    HW166320   1.729   3.905   4.794  0.3973  0.7959  0.9921
18222SOL    HW266321   1.622   4.023   4.829 -0.6038  0.8834 -2.1859
18223SOL     OW66322   2.187   7.284   5.464 -0.3532 -0.0840  0.2662
18223SOL    HW166323   2.251   7.361   5.459  0.5409 -0.7976  0.4272
18223SOL    HW266324   2.106   7.304   5.409  0.9170 -0.0104 -1.6203
18224SOL     OW66325   2.683   4.283   2.148 -0.0488  0.0540  0.3954
18224SOL    HW166326   2.683   4.234   2.236 -1.3964 -0.8057 -0.0783
18224SOL    HW266327   2.766   4.259   2.098  0.1702 -0.3565  0.9372
18225SOL     OW66328   8.789   0.985   4.539 -0.2602 -0.2782 -0.5168
18225SOL    HW166329   8.739   1.068   4.562  1.0730 -0.0652  1.6598
18225SOL    HW266330   8.785   0.970   4.440  0.2117  2.8229 -1.0358
18226SOL     OW66331   9.948   3.550   3.018 -0.5713 -0.0521  0.2008
18226SOL    HW166332  10.035   3.576   3.059 -0.0980 -1.1561 -0.0748
18226SOL    HW266333   9.899   3.631   2.989  1.0768  0.5134 -1.0643
18227SOL     OW66334   4.725   7.207   1.844  0.2163  0.3459 -1.0724
18227SOL    HW166335   4.648   7.164   1.797 -0.6719  0.1389  0.5176
18227SOL    HW266336   4.712   7.199   1.943  1.5046  1.7085 -0.7755
18228SOL     OW66337   0.248   0.106   3.312  0.1576 -0.1076 -0.0633
18228SOL    HW166338   0.242   0.023   3.257  0.5584 -0.1058 -0.1083
18228SOL    HW266339   0.174   0.107   3.379 -0.7773  0.2273 -1.0639
18229SOL     OW66340   7.595   6.810   1.773  0.3648 -0.0784 -0.1201
18229SOL    HW166341   7.590   6.773   1.680 -0.9424  1.1573 -0.5698
18229SOL    HW266342   7.597   6.910   1.768  1.0509 -0.0309  1.1611
18230SOL     OW66343   2.482   3.452   4.860  0.0563 -0.8111  0.8753
18230SOL    HW166344   2.385   3.477   4.868 -0.0795 -1.1538  0.2685
18230SOL    HW266345   2.513   3.412   4.946 -0.5475 -1.4264  0.8113
18231SOL     OW66346   5.507   7.379   5.116  0.2990 -0.1409  0.1392
18231SOL    HW166347   5.430   7.443   5.115 -0.2489 -0.7445  1.7683
18231SOL    HW266348   5.475   7.289   5.146  0.9307 -1.3875 -2.7777
18232SOL     OW66349   1.399   2.019   2.564 -0.6453  0.3903 -0.3546
18232SOL    HW166350   1.436   2.108   2.593 -3.3515  1.2750  0.6042
18232SOL    HW266351   1.371   1.967   2.645 -1.6273 -0.1670 -1.0468
18233SOL     OW66352   6.447   2.118   4.004 -0.0580 -0.4114 -0.2570
18233SOL    HW166353   6.359   2.127   3.958 -0.7153 -2.4868  0.5753
18233SOL    HW266354   6.454   2.186   4.077 -0.7509  0.1001 -0.6627
18234SOL     OW66355   5.758   4.728   1.199  0.4747  0.1924 -0.0350
18234SOL    HW166356   5.829   4.672   1.241  0.7996  0.7305  0.1441
18234SOL    HW266357   5.717   4.678   1.122  0.4341 -0.4683  0.4165
18235SOL     OW66358   4.282   2.131   2.928 -0.0249  0.4786  0.4188
18235SOL    HW166359   4.338   2.211   2.909  0.8168 -0.1359  0.2889
18235SOL    HW266360   4.185   2.155   2.920  0.2183  1.5773  0.8000
18236SOL     OW66361   8.235   7.464   3.448  0.5578 -0.2476 -0.1621
18236SOL    HW166362   8.262   7.398   3.518  0.1868  1.3420  1.5226
18236SOL    HW266363   8.164   7.425   3.390  1.7629 -2.0420 -0.4719
18237SOL     OW66364   3.853   0.168   2.749 -0.4005  0.4540  0.8099
18237SOL    HW166365   3.880   0.184   2.844  1.4211  0.8422  0.2368
18237SOL    HW266366   3.840   0.255   2.703  2.2803  0.3279 -0.2724
18238SOL     OW66367   8.476   3.965   7.172  1.0586  0.2600 -0.0898
18238SOL    HW166368   8.518   4.021   7.101  1.4497  0.8574  0.6047
18238SOL    HW266369   8.529   3.882   7.185  1.9205  0.9080  0.6248
18239SOL     OW66370   2.361   5.070   7.962 -0.4802  0.0995  0.1552
18239SOL    HW166371   2.334   4.979   7.930 -2.3264  0.5153  0.4817
18239SOL    HW266372   2.398   5.123   7.886  0.8941 -1.0365  0.0362
18240SOL     OW66373   5.496   1.779   5.367 -0.1926 -0.3158  0.2682
18240SOL    HW166374   5.433   1.741   5.434 -1.4795  1.4367  0.0887
18240SOL    HW266375   5.445   1.836   5.302  1.1106 -1.4975 -1.8408
18241SOL     OW66376   7.683   7.819   6.604  0.0941 -0.0022 -0.1767
18241SOL    HW166377   7.782   7.833   6.597  0.8371 -2.5771  3.8904
18241SOL    HW266378   7.652   7.767   6.524  2.6906 -2.2603  0.2090
18242SOL     OW66379   0.942   3.719   0.312  0.1635  0.1773 -0.5332
18242SOL    HW166380   0.914   3.805   0.354 -1.4588  0.0672 -1.3486
18242SOL    HW266381   1.029   3.690   0.351 -0.1705  1.2566  1.0766
18243SOL     OW66382   8.937   4.667   8.182  0.4240 -0.3041 -0.2770
18243SOL    HW166383   8.937   4.751   8.128 -2.4606  0.1543  0.3244
18243SOL    HW266384   8.853   4.616   8.163  0.8424 -1.6831  1.4233
18244SOL     OW66385   9.674   6.505   6.164 -0.5132 -0.1540 -0.4001
18244SOL    HW166386   9.604   6.561   6.208  2.5244  0.8936  3.4377
18244SOL    HW266387   9.721   6.559   6.093 -0.5259  0.7004  0.2375
18245SOL     OW66388   2.157   0.170   7.809 -0.0442 -0.4068  0.1569
18245SOL    HW166389   2.135   0.266   7.829 -1.1106 -0.6279  0.0946
18245SOL    HW266390   2.220   0.136   7.878  0.0320  0.2325  0.4084
18246SOL     OW66391   1.345   2.150   0.930  0.0405 -0.3417 -0.2449
18246SOL    HW166392   1.406   2.104   0.865  2.2585 -0.9726  2.1846
18246SOL    HW266393   1.388   2.235   0.960 -1.0518  0.0350  0.2581
18247SOL     OW66394   1.597   4.931   3.412  0.1252 -0.1864  0.0354
18247SOL    HW166395   1.511   4.929   3.361  0.0220 -1.8244  0.2374
18247SOL    HW266396   1.591   4.999   3.485 -0.7302  0.2126 -0.3950
18248SOL     OW66397   7.512   5.648   4.817  0.0037 -0.3342  0.3145
18248SOL    HW166398   7.567   5.567   4.834  0.9431 -0.0146 -1.0725
18248SOL    HW266399   7.430   5.646   4.874  0.9101 -1.3586  1.5987
18249SOL     OW66400   3.534   7.076   2.794 -0.3306  0.1550  0.1454
18249SOL    HW166401   3.625   7.096   2.757  0.4638 -0.1450  1.9037
18249SOL    HW266402   3.464   7.107   2.729  0.9760  2.4976 -0.1805
18250SOL     OW66403   0.971   6.652   2.376 -0.1293  0.2714 -0.0427
18250SOL    HW166404   1.005   6.738   2.414  0.0663 -0.1124  0.6560
18250SOL    HW266405   1.021   6.631   2.292 -0.2502  0.8910 -0.2763
18251SOL     OW66406   4.767   1.239   3.129  0.4420 -0.2290 -0.6133
18251SOL    HW166407   4.686   1.298   3.125  0.2806 -0.2865  1.5876
18251SOL    HW266408   4.793   1.223   3.224  0.2475 -4.0322 -1.0966
18252SOL     OW66409   3.272   6.635   3.322  0.1459 -0.0680  0.3071
18252SOL    HW166410   3.203   6.644   3.394  0.4258 -2.8677  0.9844
18252SOL    HW266411   3.228   6.639   3.233 -0.7291 -0.4455  0.7185
18253SOL     OW66412   4.575   7.143   0.828  0.0719  0.0509  0.2348
18253SOL    HW166413   4.619   7.077   0.766  1.2798  0.8032  0.2651
18253SOL    HW266414   4.477   7.146   0.810  0.5178  0.9417 -2.3046
18254SOL     OW66415   3.551   8.703   2.869  0.6194  0.1404 -0.4983
18254SOL    HW166416   3.627   8.651   2.829 -0.5175 -1.4746 -0.5939
18254SOL    HW266417   3.530   8.668   2.960  1.1635  1.7751  0.2623
18255SOL     OW66418   9.203   5.882   0.635  0.2336 -0.2566  0.2266
18255SOL    HW166419   9.215   5.876   0.536 -2.3730  0.6227 -0.1952
18255SOL    HW266420   9.150   5.803   0.667 -1.5712  0.9892  0.4128
18256SOL     OW66421   0.489   5.261   2.910  0.2349 -0.0533 -0.0954
18256SOL    HW166422   0.402   5.218   2.887 -0.9193  2.8410 -1.3850
18256SOL    HW266423   0.496   5.271   3.010 -1.5914  0.9715 -0.0468
18257SOL     OW66424   7.119   7.766   4.380  0.0462 -0.0915  0.4322
18257SOL    HW166425   7.122   7.801   4.473  1.5680 -1.1159  0.7989
18257SOL    HW266426   7.207   7.723   4.358 -0.6135 -0.6796 -1.1452
18258SOL     OW66427   4.477   6.113   3.178  0.2102  0.1591 -0.2495
18258SOL    HW166428   4.531   6.191   3.145 -0.7584  0.7073 -0.5650
18258SOL    HW266429   4.424   6.141   3.257  1.1766 -0.6727  0.7053
18259SOL     OW66430   9.547   4.002   3.458  0.0489 -0.1044 -0.2122
18259SOL    HW166431   9.616   4.074   3.468  0.1074  0.0168 -1.4697
18259SOL    HW266432   9.474   4.033   3.398  0.5647 -1.4290 -1.5602
18260SOL     OW66433   5.374   3.195   0.678  0.1104  0.2312 -0.3484
18260SOL    HW166434   5.431   3.275   0.693 -1.9575  1.8532 -0.8647
18260SOL    HW266435   5.421   3.130   0.618  2.1147  0.6752  0.6991
18261SOL     OW66436   9.152   6.370   2.802  0.0131 -0.0032 -0.0857
18261SOL    HW166437   9.156   6.470   2.805  1.3851  0.0046 -1.6532
18261SOL    HW266438   9.245   6.333   2.796 -0.5241 -1.3506 -0.3135
18262SOL     OW66439   1.049   7.258   1.787  0.0153  1.0707 -0.5367
18262SOL    HW166440   0.998   7.299   1.862  0.4737  0.3092  0.2061
18262SOL    HW266441   0.986   7.212   1.725 -0.1151 -1.2681  1.2463
18263SOL     OW66442   4.382   1.249   5.487  0.1042 -0.3602  0.1926
18263SOL    HW166443   4.445   1.234   5.564 -0.5546  0.3311  0.8699
18263SOL    HW266444   4.372   1.347   5.471 -0.9351 -0.4697  0.1914
18264SOL     OW66445   7.314   5.115   1.136  0.1352 -0.5340  0.4642
18264SOL    HW166446   7.399   5.066   1.154  0.5143  0.5275  1.6328
18264SOL    HW266447   7.272   5.142   1.223  0.0366  1.3852 -0.1558
18265SOL     OW66448   1.094   3.359   2.736 -0.2608 -0.1096  0.2646
18265SOL    HW166449   1.176   3.321   2.779 -0.4486 -0.3948  0.3743
18265SOL    HW266450   1.013   3.322   2.781 -0.4436  0.4934  0.4313
18266SOL     OW66451   1.713   8.928   5.272  0.2011 -0.1019  0.1719
18266SOL    HW166452   1.680   8.992   5.342 -0.1138  0.6356 -0.6405
18266SOL    HW266453   1.727   8.838   5.314 -0.3761  0.2229  1.0934
18267SOL     OW66454   2.682   1.787   2.578  0.1009  0.6596 -0.3624
18267SOL    HW166455   2.637   1.839   2.651 -0.6264  1.1214 -1.1355
18267SOL    HW266456   2.779   1.777   2.599  0.2059  2.1341 -0.0968
18268SOL     OW66457   0.954   4.655   6.712 -0.1598  0.4623  0.2176
18268SOL    HW166458   0.905   4.575   6.747 -0.8904  1.6730  2.0744
18268SOL    HW266459   0.934   4.734   6.771  2.4793  1.4497 -0.1511
18269SOL     OW66460   1.871   7.873   4.670 -0.2380 -0.0852 -0.2890
18269SOL    HW166461   1.883   7.963   4.629 -0.2413  0.6274  1.2392
18269SOL    HW266462   1.889   7.878   4.768 -0.4536 -1.7077 -0.1429
18270SOL     OW66463   5.640   9.994   5.709  0.4139 -0.2191 -0.1746
18270SOL    HW166464   5.596  10.065   5.654  0.0828  0.1296  0.5330
18270SOL    HW266465   5.574   9.960   5.777  1.0228 -0.1933  0.4271
18271SOL     OW66466   8.830   3.667   2.141  0.4194 -0.4488  0.0053
18271SOL    HW166467   8.826   3.686   2.043  0.9704 -1.7381 -0.2864
18271SOL    HW266468   8.746   3.700   2.185  0.9711  1.8096 -0.5669
18272SOL     OW66469   7.788   3.861   1.031 -0.3571 -0.1308  0.2213
18272SOL    HW166470   7.876   3.909   1.023 -0.1235 -0.7153 -0.7706
18272SOL    HW266471   7.726   3.915   1.088  0.5545  0.4179  0.7115
18273SOL     OW66472   0.444   3.292   6.000  0.0293  0.2085 -0.9987
18273SOL    HW166473   0.537   3.270   6.029  0.5051  1.2872 -1.6672
18273SOL    HW266474   0.379   3.233   6.048  1.0168 -0.1620 -0.1026
18274SOL     OW66475   4.216   4.693   7.408 -0.6476 -0.2252 -0.1010
18274SOL    HW166476   4.118   4.712   7.403 -0.6611 -0.5636 -1.3226
18274SOL    HW266477   4.235   4.605   7.364  0.2794  0.0987 -0.3594
18275SOL     OW66478   5.383   9.905   4.570 -0.1801 -0.7289 -0.0946
18275SOL    HW166479   5.465   9.890   4.514 -0.4685 -3.8339  0.2171
18275SOL    HW266480   5.304   9.866   4.523 -1.6387  2.6541 -0.6187
18276SOL     OW66481   6.154   7.601   2.888  0.8663 -0.3261 -0.0304
18276SOL    HW166482   6.159   7.659   2.806 -1.3818  0.9968  0.7160
18276SOL    HW266483   6.065   7.558   2.893  1.1185 -0.7152  1.5109
18277SOL     OW66484   5.335   0.815   4.496 -0.2606  0.1268  0.1904
18277SOL    HW166485   5.326   0.912   4.473  0.1970 -0.0466 -0.7502
18277SOL    HW266486   5.248   0.769   4.477 -0.1932  0.1772 -0.2502
18278SOL     OW66487   1.686   9.457   4.854  0.1825 -0.3775  0.7221
18278SOL    HW166488   1.602   9.446   4.906 -0.3006  0.1917  0.0639
18278SOL    HW266489   1.748   9.519   4.903  0.6865 -1.6786  1.7557
18279SOL     OW66490   8.532   0.899   6.402 -0.4277  0.3468  0.1148
18279SOL    HW166491   8.554   0.857   6.314  1.9546  1.3240  0.2203
18279SOL    HW266492   8.476   0.980   6.387 -0.4934  0.1961 -0.4722
18280SOL     OW66493   7.152   1.832   4.977  0.8244  0.2356 -0.1392
18280SOL    HW166494   7.062   1.860   4.943  0.0402  0.9588  2.3523
18280SOL    HW266495   7.190   1.760   4.919 -1.1509  0.2799 -1.5129
18281SOL     OW66496   6.636   9.525   4.533 -0.0579 -0.2340 -0.5120
18281SOL    HW166497   6.626   9.519   4.434 -2.4713  1.9269 -0.4556
18281SOL    HW266498   6.579   9.456   4.577  1.7508 -1.8311 -0.6079
18282SOL     OW66499   9.465   3.730   3.532 -0.4737 -0.1312  0.1598
18282SOL    HW166500   9.372   3.720   3.496  0.0978 -2.0113 -0.8706
18282SOL    HW266501   9.498   3.823   3.516 -1.9153  0.3339 -0.0969
18283SOL     OW66502   8.691   5.500   3.497  0.0990 -0.4768  0.1664
18283SOL    HW166503   8.607   5.453   3.522  0.0286 -0.9906 -1.0034
18283SOL    HW266504   8.756   5.434   3.458 -0.1845  0.4526 -1.9580
18284SOL     OW66505   3.463   9.326   3.101  0.2016 -0.5758  0.0719
18284SOL    HW166506   3.504   9.236   3.088  1.8522  0.3711 -1.5614
18284SOL    HW266507   3.470   9.379   3.016  1.1292  1.8150  1.5780
18285SOL     OW66508   3.673   0.413   2.362  0.0976  0.0112 -0.1111
18285SOL    HW166509   3.592   0.355   2.350  0.1443 -0.1334  0.2724
18285SOL    HW266510   3.656   0.501   2.318 -0.2815 -0.0077 -0.0120
18286SOL     OW66511   9.427   3.993   4.610  0.2089 -0.2444 -0.0401
18286SOL    HW166512   9.376   3.925   4.662 -0.1366  0.8855  1.1402
18286SOL    HW266513   9.500   3.948   4.558  1.4595 -1.2424  2.5269
18287SOL     OW66514   4.083   2.181   1.520 -0.0725  0.3868  0.6949
18287SOL    HW166515   4.014   2.254   1.520 -0.0700  0.3940 -0.0086
18287SOL    HW266516   4.104   2.155   1.426 -0.0099 -0.4719  0.9436
18288SOL     OW66517   9.484   9.270   7.978  0.0829  0.1834  0.1452
18288SOL    HW166518   9.523   9.182   8.006 -0.6434  0.3513  1.7671
18288SOL    HW266519   9.541   9.345   8.011  0.6318  0.3372 -1.1231
18289SOL     OW66520   7.086   8.450   3.241  0.3205  0.0126 -0.4444
18289SOL    HW166521   7.042   8.466   3.152 -0.4030 -1.4312 -0.3754
18289SOL    HW266522   7.155   8.378   3.231  0.7589  0.3705  0.0087
18290SOL     OW66523   0.678   6.654   7.701 -0.2589 -0.4917 -0.0734
18290SOL    HW166524   0.719   6.564   7.682  0.7741  0.0250 -0.3082
18290SOL    HW266525   0.649   6.697   7.616  0.0766 -0.2044 -0.0410
18291SOL     OW66526   8.922   7.345   5.018  0.2363  0.0501  0.0080
18291SOL    HW166527   8.827   7.357   5.045  0.8925  2.3834  1.4518
18291SOL    HW266528   8.952   7.253   5.041 -1.2550 -0.2399  0.8629
18292SOL     OW66529   8.078   1.574   5.135 -0.0494  0.1382  0.1028
18292SOL    HW166530   8.110   1.479   5.133 -1.1379 -0.2421  0.2867
18292SOL    HW266531   8.019   1.590   5.057 -1.2718  0.1532  1.0213
18293SOL     OW66532   7.027   8.491   3.811  0.5855 -0.5986 -0.4723
18293SOL    HW166533   7.103   8.436   3.777  2.4387  1.4312  0.3216
18293SOL    HW266534   7.048   8.588   3.802 -1.4687 -0.0056  0.7141
18294SOL     OW66535   6.320   8.528   2.311 -0.3488  0.0861  0.0842
18294SOL    HW166536   6.368   8.610   2.342 -0.2523 -0.0604  0.3245
18294SOL    HW266537   6.370   8.447   2.340 -2.0500 -0.1445  2.6102
18295SOL     OW66538   8.798   3.529   4.663 -0.0650  0.3786  0.0261
18295SOL    HW166539   8.783   3.436   4.628 -1.1474  0.8350 -0.7279
18295SOL    HW266540   8.892   3.556   4.644  0.0087 -0.2355 -0.5031
18296SOL     OW66541   1.749   5.007   7.426  0.2129  0.6011 -0.5953
18296SOL    HW166542   1.712   5.020   7.334 -1.5856  0.7917  0.1272
18296SOL    HW266543   1.717   4.919   7.463 -0.8265  1.4557  0.6191
18297SOL     OW66544   8.700   3.021   6.350  0.1537 -0.0163  1.0235
18297SOL    HW166545   8.727   2.951   6.416 -1.4492 -1.1494  0.5316
18297SOL    HW266546   8.672   3.104   6.398  1.4820  0.0753  1.6451
18298SOL     OW66547   0.530   4.218   0.804 -0.2961  0.3043 -0.1901
18298SOL    HW166548   0.625   4.240   0.825 -0.2176  0.4758 -0.7091
18298SOL    HW266549   0.481   4.302   0.779  0.3627 -0.2398 -3.5763
18299SOL     OW66550   9.134   5.294   2.740 -0.3190  0.0487  0.3095
18299SOL    HW166551   9.148   5.195   2.747  0.2433  0.0844 -0.2876
18299SOL    HW266552   9.049   5.311   2.689  1.0223 -0.1240 -2.0861
18300SOL     OW66553   0.918   7.890   1.591  0.6837 -0.2238  0.0013
18300SOL    HW166554   1.004   7.921   1.631  0.4027  0.9184 -0.2588
18300SOL    HW266555   0.913   7.790   1.595  1.5062 -0.2240  1.0509
18301SOL     OW66556   8.577   9.771   1.290  0.0500  0.2086 -0.1813
18301SOL    HW166557   8.483   9.737   1.283 -0.8620  2.4329  0.6301
18301SOL    HW266558   8.626   9.751   1.205 -0.5126 -2.8015  0.1704
18302SOL     OW66559   6.821   1.726   7.870 -0.2381 -0.2745  0.1414
18302SOL    HW166560   6.784   1.819   7.877 -0.6687 -0.5373  1.3581
18302SOL    HW266561   6.753   1.667   7.827 -0.6248 -0.4111  0.9455
18303SOL     OW66562   2.757   9.155   2.041  0.1859 -0.2812 -0.0331
18303SOL    HW166563   2.848   9.148   2.000 -0.0435  1.0581 -0.7889
18303SOL    HW266564   2.754   9.231   2.105 -0.9789  1.0137 -1.5743
18304SOL     OW66565   9.277   7.001   6.814 -0.2227 -0.2705 -0.1633
18304SOL    HW166566   9.297   6.966   6.723 -1.3882  0.4853 -0.7258
18304SOL    HW266567   9.324   6.946   6.883  0.0136 -1.3426 -1.1787
18305SOL     OW66568   6.904   9.422   4.553 -0.6450 -0.0535 -0.2027
18305SOL    HW166569   6.947   9.332   4.553 -0.1492  0.1871  0.0571
18305SOL    HW266570   6.805   9.411   4.564 -0.4730 -0.5107  0.9675
18306SOL     OW66571   3.639   5.971   2.170 -0.5904 -0.0100 -0.4880
18306SOL    HW166572   3.576   5.894   2.181 -0.4393 -0.1390 -0.5159
18306SOL    HW266573   3.647   5.994   2.073 -0.5915  0.0028 -0.4853
18307SOL     OW66574   7.776   1.040   4.116  0.0912 -0.3984  0.6529
18307SOL    HW166575   7.784   1.120   4.176 -1.4931 -0.1599  0.5777
18307SOL    HW266576   7.680   1.011   4.113  0.4656 -1.5560 -0.2933
18308SOL     OW66577   9.265   7.292   3.412  0.2704  0.3765 -0.3844
18308SOL    HW166578   9.322   7.233   3.355 -0.3285  1.3724 -2.0668
18308SOL    HW266579   9.308   7.304   3.501  1.4185 -0.9234 -0.7459
18309SOL     OW66580   8.281   5.627   0.950 -0.0069  0.0249 -0.0797
18309SOL    HW166581   8.212   5.696   0.970  2.1081  1.9998  0.6492
18309SOL    HW266582   8.297   5.623   0.852 -0.8046 -0.1056 -0.2071
18310SOL     OW66583   8.334   6.155   0.972 -0.2826 -0.2150 -0.6397
18310SOL    HW166584   8.255   6.128   1.028  0.6863 -0.5028  0.6058
18310SOL    HW266585   8.371   6.074   0.926  0.4522 -0.3982  0.2792
18311SOL     OW66586   3.950   2.288   7.659 -0.1359  0.1716  0.0477
18311SOL    HW166587   3.972   2.192   7.674  1.4841  0.5822  0.2977
18311SOL    HW266588   3.978   2.342   7.738  0.6733  1.1251 -0.8837
18312SOL     OW66589   2.971   7.784   3.822  0.4487 -0.1082 -0.1857
18312SOL    HW166590   2.996   7.827   3.735  3.2489  0.4637  0.8377
18312SOL    HW266591   3.044   7.721   3.850 -0.7576 -0.8329  1.3932
18313SOL     OW66592   9.764   5.536   6.256  0.9632  0.6998 -0.0338
18313SOL    HW166593   9.755   5.555   6.158 -0.9247 -1.0752 -0.2390
18313SOL    HW266594   9.686   5.575   6.305  0.7603 -0.2968  0.4519
18314SOL     OW66595   7.968   9.889   3.234  0.1013 -0.6398  0.6349
18314SOL    HW166596   7.876   9.886   3.193  0.9264  0.7250 -1.4411
18314SOL    HW266597   7.984   9.805   3.285 -1.7181 -1.6066 -0.2899
18315SOL     OW66598   3.878   5.786   0.827 -0.6185 -0.8347 -0.5428
18315SOL    HW166599   3.896   5.757   0.921 -0.2722  0.0852 -0.3148
18315SOL    HW266600   3.795   5.841   0.825 -1.1865 -1.7103 -0.9437
18316SOL     OW66601   2.684   2.289   1.912 -0.1122 -0.2213 -0.3373
18316SOL    HW166602   2.722   2.290   1.820  1.1973  2.2271  0.1997
18316SOL    HW266603   2.727   2.216   1.965  0.2985 -0.5906 -1.1707
18317SOL     OW66604   6.566   1.564   2.879  0.1519  0.4811  0.0789
18317SOL    HW166605   6.596   1.502   2.807  1.1204 -0.5293  1.3323
18317SOL    HW266606   6.489   1.619   2.846 -0.6403 -1.2944 -1.0901
18318SOL     OW66607   6.871   7.271   6.073  0.0192 -0.0313 -0.1001
18318SOL    HW166608   6.786   7.222   6.052 -0.8805  1.0746  0.8900
18318SOL    HW266609   6.868   7.305   6.167  1.5133  0.1468 -0.0971
18319SOL     OW66610   2.078   0.291   3.006  0.1423 -0.1704 -0.5524
18319SOL    HW166611   2.108   0.249   2.920 -0.3109 -0.1236 -0.7381
18319SOL    HW266612   2.002   0.237   3.044 -0.1414  0.2196 -0.5621
18320SOL     OW66613   5.495   0.098   5.476  0.3928 -0.4837 -0.0037
18320SOL    HW166614   5.585   0.139   5.460 -0.3385  0.5632 -1.6025
18320SOL    HW266615   5.426   0.148   5.424 -1.5438  0.3763  3.2293
18321SOL     OW66616   8.663   4.341   0.097  0.1581 -0.0124  0.5207
18321SOL    HW166617   8.750   4.303   0.128  0.9925  1.5189  0.0965
18321SOL    HW266618   8.588   4.281   0.126  1.4940 -2.4833 -0.9587
18322SOL     OW66619   4.540   2.018   7.136 -0.5104  0.0406 -0.7448
18322SOL    HW166620   4.614   1.956   7.164 -2.2410 -1.1663  1.2386
18322SOL    HW266621   4.576   2.082   7.068  1.7787 -2.0037 -1.5889
18323SOL     OW66622   1.380   6.789   6.842  0.7603 -0.3162  0.3265
18323SOL    HW166623   1.385   6.734   6.759 -0.1368 -1.4421  1.0144
18323SOL    HW266624   1.399   6.732   6.922 -2.2255 -0.1444  1.2328
18324SOL     OW66625   1.255   2.598   0.441 -0.0521  0.2719 -0.0171
18324SOL    HW166626   1.194   2.676   0.454 -1.8055 -0.9858 -0.3676
18324SOL    HW266627   1.350   2.627   0.446 -0.6857  2.0297  2.2077
18325SOL     OW66628   8.073   6.031   3.290  0.1554 -0.2076  0.2622
18325SOL    HW166629   8.096   6.121   3.329  1.6121 -0.5060  0.1289
18325SOL    HW266630   8.041   5.970   3.362  0.9380 -0.1438  0.6700
18326SOL     OW66631   3.316   7.627   6.902 -0.5796  0.2510  0.2148
18326SOL    HW166632   3.407   7.609   6.863 -1.3338  0.5107 -1.7488
18326SOL    HW266633   3.287   7.549   6.958  0.8836  0.2029  0.9203
18327SOL     OW66634   3.903   3.358   0.434 -0.3603 -0.0856  0.0080
18327SOL    HW166635   3.989   3.408   0.429  0.0380 -0.7245  0.5851
18327SOL    HW266636   3.848   3.393   0.509  0.0408 -0.7071  0.5929
18328SOL     OW66637   2.297   8.405   1.825  0.2025 -0.3328  0.5405
18328SOL    HW166638   2.303   8.363   1.734  1.1664  0.9539 -0.0108
18328SOL    HW266639   2.207   8.385   1.865 -0.0471 -1.3303 -0.4854
18329SOL     OW66640   4.505   4.933   1.324 -0.1044  0.0184  0.3162
18329SOL    HW166641   4.537   4.986   1.402 -0.9151 -2.2530  2.2336
18329SOL    HW266642   4.427   4.876   1.351  0.5379 -1.9390 -1.7580
18330SOL     OW66643   6.970   4.868   1.845  0.2040  0.4438 -0.1615
18330SOL    HW166644   7.062   4.876   1.809  0.6467 -0.3714  0.7732
18330SOL    HW266645   6.911   4.823   1.777  1.1655 -1.6042  0.3223
18331SOL     OW66646   1.199   2.042   4.443  0.2164  0.2204 -0.3300
18331SOL    HW166647   1.200   1.979   4.366  0.2117  0.3963 -0.4741
18331SOL    HW266648   1.189   1.990   4.528 -1.7222  0.1728 -0.5828
18332SOL     OW66649   0.727   4.692   7.722  0.8053  0.1869 -0.3604
18332SOL    HW166650   0.817   4.734   7.709  0.4968  0.1190 -3.0758
18332SOL    HW266651   0.656   4.760   7.705  0.2904  0.7917  3.8255
18333SOL     OW66652   1.738   9.458   0.965  0.0783  0.9406  0.0427
18333SOL    HW166653   1.751   9.521   1.042 -0.0660  0.5697  0.3755
18333SOL    HW266654   1.660   9.488   0.911  0.2309  1.2509 -0.0039
18334SOL     OW66655   8.955   0.787   2.608  0.2163  0.1632 -0.1237
18334SOL    HW166656   8.916   0.879   2.602  0.3577  0.1966 -0.5698
18334SOL    HW266657   8.990   0.772   2.701  0.6146  0.7346 -0.1736
18335SOL     OW66658   9.329   9.273   3.341  0.1241 -0.2849 -0.3223
18335SOL    HW166659   9.411   9.276   3.284  0.2556 -0.7562 -0.1548
18335SOL    HW266660   9.278   9.189   3.321  0.3977 -0.6663  0.5794
18336SOL     OW66661   2.995   8.970   1.135 -0.4674  0.0285 -0.1754
18336SOL    HW166662   2.938   8.929   1.206  1.3286 -1.2393  0.5779
18336SOL    HW266663   2.980   8.923   1.048  0.4803 -1.2753  0.3503
18337SOL     OW66664   0.717   5.020   3.900  0.5542  0.1515  0.0118
18337SOL    HW166665   0.629   4.982   3.872  0.4791  0.1150  0.3009
18337SOL    HW266666   0.790   4.953   3.880  0.3727 -0.3185  0.9194
18338SOL     OW66667   9.788   1.173   7.650  0.0644  0.3416 -0.0366
18338SOL    HW166668   9.866   1.192   7.709 -0.3986  0.4107  0.5577
18338SOL    HW266669   9.703   1.186   7.702 -0.3112 -1.0168 -0.2989
18339SOL     OW66670   1.098   7.247   7.689 -0.4020 -0.1001  0.2650
18339SOL    HW166671   1.013   7.270   7.642  0.0427  1.6087  0.2909
18339SOL    HW266672   1.164   7.210   7.623 -0.4668  0.4437 -0.1010
18340SOL     OW66673   7.502   5.043   0.075 -0.0067 -0.1328  0.3294
18340SOL    HW166674   7.561   4.967   0.100  0.6112  0.1842 -0.1610
18340SOL    HW266675   7.520   5.070  -0.020  0.3110  1.1097  0.7359
18341SOL     OW66676   4.341   6.423   3.589 -0.1443  0.0765  0.0922
18341SOL    HW166677   4.402   6.502   3.583  0.0179 -0.1192 -1.0692
18341SOL    HW266678   4.260   6.439   3.532  1.3764 -1.8574 -2.7575
18342SOL     OW66679   2.960   6.989   2.217 -0.5532  0.3574 -0.0541
18342SOL    HW166680   2.955   6.945   2.307 -0.6213  1.1707  0.3468
18342SOL    HW266681   3.052   7.023   2.201 -0.3340 -0.5102 -0.6440
18343SOL     OW66682   9.785   6.065   2.658 -0.4673  0.0545 -0.4068
18343SOL    HW166683   9.778   6.140   2.725  1.4285 -1.3022  1.3967
18343SOL    HW266684   9.804   6.103   2.568  0.5789  1.7710  0.4972
18344SOL     OW66685   5.607   8.735   3.328 -0.2308 -0.9981 -0.2054
18344SOL    HW166686   5.570   8.643   3.342 -0.6840 -0.9107 -0.7931
18344SOL    HW266687   5.611   8.754   3.230  1.3639 -0.9989 -0.1539
18345SOL     OW66688   3.795   3.134   5.489  0.0112  0.2025 -0.1719
18345SOL    HW166689   3.816   3.201   5.418  2.0778  0.6525  0.8423
18345SOL    HW266690   3.699   3.106   5.480 -0.4563  2.1219 -1.5635
18346SOL     OW66691   1.299   2.082   2.235  0.3569  0.1091 -0.8810
18346SOL    HW166692   1.322   2.170   2.193  0.5281  0.7435  0.5059
18346SOL    HW266693   1.318   2.086   2.333  0.3021 -1.4632 -0.7969
18347SOL     OW66694   1.962   7.400   6.258  0.0533 -0.3794  0.2871
18347SOL    HW166695   2.038   7.451   6.216  0.2052 -0.8979 -0.0677
18347SOL    HW266696   1.996   7.347   6.336  0.2074 -1.2099 -0.3353
18348SOL     OW66697   8.580   7.624   8.025 -0.4310 -0.0097 -0.1955
18348SOL    HW166698   8.675   7.622   8.056 -0.3884 -1.2364 -0.3777
18348SOL    HW266699   8.568   7.560   7.950 -1.4847 -0.1304  0.0715
18349SOL     OW66700   2.825   7.341   5.522  0.1100  0.1122 -0.1255
18349SOL    HW166701   2.922   7.323   5.509  0.0834  0.4944 -0.8423
18349SOL    HW266702   2.776   7.328   5.436 -0.5092 -0.3106  0.2873
18350SOL     OW66703   8.942   9.693   1.092  0.2496  0.1524 -0.4155
18350SOL    HW166704   8.930   9.609   1.039 -0.6721 -0.8320  1.3242
18350SOL    HW266705   8.892   9.767   1.048 -0.6971 -0.7027 -0.8146
18351SOL     OW66706   9.450   4.994   6.749  0.2756  0.5389 -1.0566
18351SOL    HW166707   9.387   4.917   6.759  0.3977  0.4483 -0.9843
18351SOL    HW266708   9.531   4.978   6.807  0.3137  0.7059 -1.0648
18352SOL     OW66709   9.788   7.944   7.217  0.1958  0.5646 -0.3514
18352SOL    HW166710   9.755   8.029   7.177 -1.1120  0.4042  0.3855
18352SOL    HW266711   9.879   7.959   7.257  0.4814  1.3102 -1.2711
18353SOL     OW66712   2.936   6.790   0.950 -0.4314  0.1351  0.3763
18353SOL    HW166713   2.888   6.721   0.896  1.2177 -0.7815  0.0720
18353SOL    HW266714   2.934   6.764   1.047  1.8582 -1.3465  0.0383
18354SOL     OW66715   1.617   0.516   0.198  0.1489  0.9000 -1.0317
18354SOL    HW166716   1.608   0.545   0.293 -1.5444 -3.3021  0.1787
18354SOL    HW266717   1.707   0.476   0.184 -0.8801 -1.7946 -0.1826
18355SOL     OW66718   0.960   8.471   0.001  0.0858 -0.3465 -0.7034
18355SOL    HW166719   0.997   8.381  -0.021 -0.4328 -0.3128 -1.7442
18355SOL    HW266720   0.874   8.485  -0.048 -0.5435  0.1693  0.5187
18356SOL     OW66721   8.975   7.543   5.854  0.6271  0.1604  0.5208
18356SOL    HW166722   9.049   7.558   5.789  1.1855 -0.4150  1.0134
18356SOL    HW266723   8.960   7.444   5.865 -1.0447  0.2705 -0.5055
18357SOL     OW66724   0.815   2.498   5.228 -0.3381 -0.1000  0.2654
18357SOL    HW166725   0.796   2.555   5.307  0.9289  1.3306 -0.4160
18357SOL    HW266726   0.900   2.447   5.243 -0.6070 -0.5510  0.2337
18358SOL     OW66727   9.952   0.549   2.298  0.5377  0.6387  0.5279
18358SOL    HW166728  10.024   0.570   2.364  0.7207  0.9677  0.2209
18358SOL    HW266729   9.865   0.586   2.332  0.5119  0.2349  0.9003
18359SOL     OW66730   9.859   3.652   1.032  0.3994  0.4672 -0.0256
18359SOL    HW166731   9.924   3.651   1.108 -1.3005  0.1812  1.4486
18359SOL    HW266732   9.859   3.563   0.986 -1.6404 -0.7893  2.3219
18360SOL     OW66733   4.481   5.137   2.225 -0.3464  0.0920 -0.0213
18360SOL    HW166734   4.426   5.138   2.142 -2.0633 -2.6363  1.0292
18360SOL    HW266735   4.429   5.176   2.300  0.4555  0.6471  0.2621
18361SOL     OW66736   7.366   7.026   6.331  0.3564 -0.3969 -0.1944
18361SOL    HW166737   7.320   6.955   6.278 -0.6072 -0.5435  0.7955
18361SOL    HW266738   7.422   6.983   6.402  1.9111 -0.2111 -1.3041
18362SOL     OW66739   1.541   2.421   8.183  0.1123  0.3465  0.8969
18362SOL    HW166740   1.617   2.440   8.245 -0.2268 -0.1087  1.4574
18362SOL    HW266741   1.518   2.324   8.187  0.1587  0.2916 -0.0254
18363SOL     OW66742   8.740   4.260   5.507 -0.4102 -0.2696  0.0920
18363SOL    HW166743   8.781   4.348   5.483  1.5380 -1.0020  0.6156
18363SOL    HW266744   8.784   4.187   5.454 -0.0156 -1.2313  1.7076
18364SOL     OW66745   2.324   8.059   3.718 -0.8353  0.4373  0.1369
18364SOL    HW166746   2.282   8.050   3.808 -0.5104  1.2472  0.3769
18364SOL    HW266747   2.414   8.102   3.728 -1.5520  2.1871 -0.7344
18365SOL     OW66748   5.393   8.299   2.518 -0.5320 -0.1975 -0.5120
18365SOL    HW166749   5.483   8.260   2.502  0.5778  1.0688  2.3386
18365SOL    HW266750   5.385   8.387   2.471  0.3277  0.4428  0.5182
18366SOL     OW66751   6.699   8.585   5.395 -0.3598 -0.4086 -0.1363
18366SOL    HW166752   6.711   8.622   5.487 -0.3054 -0.6097 -0.0630
18366SOL    HW266753   6.631   8.640   5.346  0.1764  0.1689 -0.2397
18367SOL     OW66754   3.031   9.862   0.500 -0.3464  0.2596  0.2249
18367SOL    HW166755   3.061   9.768   0.518  0.0003  0.3308  0.0383
18367SOL    HW266756   3.099   9.907   0.442 -1.8518 -0.2583 -2.0220
18368SOL     OW66757   2.838   6.398   6.225  0.2423  0.2615  0.5353
18368SOL    HW166758   2.930   6.358   6.223  1.2909  2.5404  2.0832
18368SOL    HW266759   2.834   6.476   6.163 -1.7630 -2.0293 -2.3671
18369SOL     OW66760   9.868   9.622   6.816  0.3749 -0.2563 -1.1476
18369SOL    HW166761   9.850   9.714   6.780  0.2793 -0.1350 -0.8011
18369SOL    HW266762   9.877   9.557   6.741 -0.6007 -0.1486 -1.3573
18370SOL     OW66763   5.314   9.411   2.065 -0.1270  0.2565 -0.8224
18370SOL    HW166764   5.383   9.346   2.098 -1.0611 -0.5705 -0.4930
18370SOL    HW266765   5.290   9.474   2.138 -1.9118 -1.3341 -0.0129
18371SOL     OW66766   1.955   2.172   7.924  0.7063 -0.8796  0.3766
18371SOL    HW166767   2.026   2.104   7.941 -1.4670 -3.0468  0.9982
18371SOL    HW266768   1.866   2.128   7.925 -0.5693  1.4845 -2.1229
18372SOL     OW66769   4.365   7.702   1.150  0.4792  0.5764  0.3582
18372SOL    HW166770   4.279   7.749   1.169  0.5407  0.6219  0.5229
18372SOL    HW266771   4.348   7.622   1.092  0.2773  0.3594  0.7178
18373SOL     OW66772   8.782   8.828   4.800 -0.2674 -0.2219 -0.3411
18373SOL    HW166773   8.717   8.810   4.726 -1.4768 -1.1445  0.9111
18373SOL    HW266774   8.843   8.749   4.811 -1.6313 -1.1125  1.1650
18374SOL     OW66775   6.882   2.545   0.719 -0.0011 -0.5812  0.0226
18374SOL    HW166776   6.947   2.578   0.787 -0.1603  2.4768 -1.2617
18374SOL    HW266777   6.929   2.530   0.632 -0.6292 -0.4064 -0.3464
18375SOL     OW66778   7.336   2.321   3.344  0.3753  0.1182  0.3781
18375SOL    HW166779   7.420   2.375   3.339 -1.1271  2.5009 -0.0038
18375SOL    HW266780   7.328   2.265   3.261 -0.0465  2.4019 -1.1617
18376SOL     OW66781   4.815   0.939   5.776  0.3116 -0.1650  0.2969
18376SOL    HW166782   4.800   0.871   5.704 -0.2755 -0.2888  0.5334
18376SOL    HW266783   4.727   0.965   5.817  0.4321  1.4357 -0.4304
18377SOL     OW66784   3.399   7.677   2.783  0.2652 -0.1242 -0.4654
18377SOL    HW166785   3.481   7.717   2.824 -0.1856  0.0543  0.2473
18377SOL    HW266786   3.330   7.748   2.769  0.3018 -0.2363 -1.2588
18378SOL     OW66787   3.529   2.372   2.199 -0.4150  0.2216 -0.0315
18378SOL    HW166788   3.503   2.406   2.289 -1.4193  0.2004 -0.3158
18378SOL    HW266789   3.529   2.272   2.201 -1.1783  0.2171 -0.2694
18379SOL     OW66790   9.769   7.032   6.538 -0.1692  0.1451 -0.1001
18379SOL    HW166791   9.816   7.093   6.602  0.1134 -0.5809  0.3919
18379SOL    HW266792   9.759   6.942   6.580 -1.2815  0.0615 -0.5145
18380SOL     OW66793   5.470   1.825   3.496  0.3185 -0.5645  0.4822
18380SOL    HW166794   5.527   1.871   3.563 -0.2321  0.3832  0.3149
18380SOL    HW266795   5.385   1.795   3.539 -0.2465  0.4790  0.1007
18381SOL     OW66796   2.811   6.245   7.289  0.4756 -0.2719 -0.2206
18381SOL    HW166797   2.787   6.270   7.195 -0.8702  0.7135  0.3708
18381SOL    HW266798   2.735   6.267   7.349  2.0234  0.8074  1.3841
18382SOL     OW66799   3.083   8.438   4.262 -0.2339 -0.2122  0.2454
18382SOL    HW166800   3.032   8.518   4.228  0.1889 -1.6367 -4.0724
18382SOL    HW266801   3.022   8.359   4.265 -0.0099 -0.3417  2.0609
18383SOL     OW66802   8.856   0.631   0.751 -0.4043  0.1798 -0.3424
18383SOL    HW166803   8.913   0.638   0.669  1.3937 -1.1889  0.7423
18383SOL    HW266804   8.890   0.556   0.808 -2.1310  0.5956  1.2641
18384SOL     OW66805   6.664   8.809   4.813 -0.1478 -0.5779  0.0383
18384SOL    HW166806   6.588   8.760   4.769  0.1286  0.1600 -1.2891
18384SOL    HW266807   6.671   8.780   4.908 -1.2517 -1.6449 -0.1843
18385SOL     OW66808   1.272   5.095   6.033  0.2079  0.2788 -0.1313
18385SOL    HW166809   1.327   5.176   6.053 -0.1700  0.4099  0.3767
18385SOL    HW266810   1.281   5.029   6.107 -1.4125  0.8866  0.6189
18386SOL     OW66811   7.333   8.610   3.536 -0.3123 -0.2048 -0.0407
18386SOL    HW166812   7.260   8.640   3.475 -1.1839 -0.2081  0.9828
18386SOL    HW266813   7.306   8.525   3.581  1.1154 -1.2140 -1.0629
18387SOL     OW66814   3.404   6.470   6.549 -0.6285 -0.2604 -0.0742
18387SOL    HW166815   3.408   6.518   6.636 -0.8633  0.8287 -0.6532
18387SOL    HW266816   3.313   6.479   6.509  0.0408  1.0202 -1.3946
18388SOL     OW66817   2.426   6.055   6.792  0.0118  0.1026 -1.0217
18388SOL    HW166818   2.457   6.028   6.884  1.4480  1.8159 -0.9694
18388SOL    HW266819   2.505   6.085   6.738 -1.0450  0.6449 -2.2824
18389SOL     OW66820   4.072   9.282   3.784  0.2333  0.3542 -0.6165
18389SOL    HW166821   3.974   9.296   3.768  0.2526  2.7804  1.0972
18389SOL    HW266822   4.100   9.194   3.747 -2.3475  0.1701 -2.2053
18390SOL     OW66823   1.958   3.505   1.664 -0.5467 -0.0490  0.0509
18390SOL    HW166824   1.868   3.547   1.676 -0.1103  0.7944  0.3654
18390SOL    HW266825   2.000   3.489   1.753 -0.2672 -0.2041 -0.1059
18391SOL     OW66826   8.031   5.035   1.178 -0.3062  0.0968 -0.2992
18391SOL    HW166827   8.079   4.950   1.154  0.4984  0.1197  1.1672
18391SOL    HW266828   7.983   5.023   1.264 -1.8276  0.5245 -1.0735
18392SOL     OW66829   2.682   5.381   6.121  0.6792 -0.2266  0.1263
18392SOL    HW166830   2.749   5.308   6.110 -1.5778 -2.2820 -0.1479
18392SOL    HW266831   2.597   5.357   6.074 -0.2977  2.3377  0.4806
18393SOL     OW66832   3.970   1.960   1.648  0.0336  0.2296 -0.1793
18393SOL    HW166833   3.996   1.936   1.742  1.4843  0.1469 -0.5895
18393SOL    HW266834   3.993   2.056   1.631 -0.0685  0.1967 -0.5035
18394SOL     OW66835   1.514   1.732   2.216 -0.2734  0.8656  0.5182
18394SOL    HW166836   1.467   1.795   2.154  0.2427  0.6019 -0.1531
18394SOL    HW266837   1.611   1.758   2.223 -0.3273  0.8965  1.2252
18395SOL     OW66838   2.342   1.931   7.287 -0.0438 -0.2127 -0.0264
18395SOL    HW166839   2.371   1.856   7.228  0.0455 -0.5477  0.4431
18395SOL    HW266840   2.419   1.992   7.304  0.0059 -0.2799 -0.0108
18396SOL     OW66841   4.236   3.897   1.843 -0.4829  0.3389  0.3889
18396SOL    HW166842   4.293   3.975   1.813  0.9754  0.3990  3.1808
18396SOL    HW266843   4.141   3.916   1.820  0.2595  1.3961 -2.0740
18397SOL     OW66844   3.682   6.541   1.151  0.1110  0.0634 -0.3960
18397SOL    HW166845   3.589   6.575   1.165 -0.1111 -0.6475 -0.1507
18397SOL    HW266846   3.747   6.607   1.189 -0.3004  0.4137 -0.2972
18398SOL     OW66847   8.133   6.386   5.894  0.1622 -0.2698  0.6738
18398SOL    HW166848   8.155   6.479   5.864 -3.1208  0.1186 -0.7539
18398SOL    HW266849   8.125   6.384   5.993 -2.0235  1.5721  0.5817
18399SOL     OW66850   3.534   8.786   7.440  0.4820 -0.1736  0.0441
18399SOL    HW166851   3.573   8.835   7.361  2.4009 -2.4654 -0.4701
18399SOL    HW266852   3.480   8.708   7.407  0.6310 -0.6720  0.9861
18400SOL     OW66853   7.129   2.144   1.002  0.2151 -0.1125  0.5471
18400SOL    HW166854   7.097   2.061   1.047  0.1035 -1.2630 -1.5929
18400SOL    HW266855   7.215   2.126   0.954  0.8508  1.3421  1.1193
18401SOL     OW66856   1.343   5.182   3.829 -0.9602 -0.1382  0.1169
18401SOL    HW166857   1.404   5.262   3.830  0.9517 -1.4531 -2.7761
18401SOL    HW266858   1.248   5.212   3.832 -0.2367  2.1459  1.0665
18402SOL     OW66859   4.309   6.470   2.965  0.3159  0.3588 -0.1008
18402SOL    HW166860   4.352   6.516   3.043  0.1044  1.0119 -0.3704
18402SOL    HW266861   4.360   6.489   2.882 -0.3674  0.9604 -0.3861
18403SOL     OW66862   1.827   4.251   3.703 -0.3086 -0.3399 -0.5052
18403SOL    HW166863   1.792   4.331   3.655  0.1682 -0.4258 -1.0031
18403SOL    HW266864   1.926   4.246   3.691 -0.1876 -0.3568  0.5044
18404SOL     OW66865   7.739   4.355   2.208 -0.3585  0.2797  0.4909
18404SOL    HW166866   7.713   4.432   2.150 -1.1052 -0.9509 -0.8525
18404SOL    HW266867   7.777   4.282   2.151  0.2634 -0.3696  1.7333
18405SOL     OW66868   4.022   2.401   0.113  0.1547 -0.3589 -0.6554
18405SOL    HW166869   3.925   2.376   0.117 -0.0562  0.2714 -1.6400
18405SOL    HW266870   4.073   2.346   0.179 -0.7942 -1.0628 -0.4913
18406SOL     OW66871   8.108   7.013   6.116  0.1642  0.1174 -0.0485
18406SOL    HW166872   8.037   6.943   6.123  0.0279  0.2151 -0.4439
18406SOL    HW266873   8.192   6.980   6.160 -0.1130 -0.0079  0.3962
18407SOL     OW66874   5.995   7.012   4.912 -0.1240 -0.3624  0.5177
18407SOL    HW166875   6.043   7.100   4.909 -0.4949 -0.2385 -2.2874
18407SOL    HW266876   5.896   7.028   4.913 -0.2234 -0.7553 -1.5970
18408SOL     OW66877   0.179   8.867   4.934  0.1059  0.4668  0.0104
18408SOL    HW166878   0.177   8.830   4.841 -0.1932  1.1159 -0.2460
18408SOL    HW266879   0.260   8.925   4.944  0.5019 -0.1491  0.3676
18409SOL     OW66880   9.641   6.108   0.521 -0.1150 -0.0083  0.6185
18409SOL    HW166881   9.631   6.027   0.464 -1.1079 -1.0020  2.1707
18409SOL    HW266882   9.601   6.187   0.475 -0.8083 -0.7765 -0.0951
18410SOL     OW66883   9.101   8.264   5.965  0.6375 -0.0051  0.4722
18410SOL    HW166884   9.021   8.305   5.921  0.7531  0.3415  0.5814
18410SOL    HW266885   9.120   8.175   5.923 -0.4567 -0.5841  1.1752
18411SOL     OW66886   0.495   3.607   3.068  0.0982  0.2914 -0.4419
18411SOL    HW166887   0.589   3.594   3.101 -0.2860 -0.3151  0.4320
18411SOL    HW266888   0.475   3.540   2.997 -0.0882 -0.3968  0.2575
18412SOL     OW66889   9.622   9.540   6.176 -0.4739  0.2494 -0.6943
18412SOL    HW166890   9.560   9.469   6.206  0.7671 -0.2957  0.6172
18412SOL    HW266891   9.668   9.511   6.092 -0.1436 -0.4024 -0.2920
18413SOL     OW66892   3.897   7.295   0.375 -0.2366  0.4202  0.5335
18413SOL    HW166893   3.843   7.377   0.390  1.4327  1.5691  0.4169
18413SOL    HW266894   3.854   7.217   0.421 -1.7575  1.3821  0.7505
18414SOL     OW66895   2.495   9.458   2.712  0.1254 -0.2826 -0.1848
18414SOL    HW166896   2.485   9.446   2.811  2.0434 -0.7764 -0.0137
18414SOL    HW266897   2.418   9.415   2.665  0.8645 -2.9973  0.9827
18415SOL     OW66898   9.731   5.609   5.618 -0.1570  0.3830  0.0001
18415SOL    HW166899   9.804   5.593   5.684  0.5361  3.5979  0.1130
18415SOL    HW266900   9.760   5.577   5.527  0.3475 -0.6970  0.5325
18416SOL     OW66901   8.745   8.974   6.423  0.3513 -0.3760  0.0433
18416SOL    HW166902   8.802   9.048   6.459  2.9951 -1.3934 -1.8689
18416SOL    HW266903   8.706   8.922   6.499  1.2705  0.8943  1.4077
18417SOL     OW66904   8.609   2.026   7.745 -0.1214 -0.2679 -0.4240
18417SOL    HW166905   8.578   1.943   7.791 -1.3889  1.6206  2.3302
18417SOL    HW266906   8.702   2.048   7.775 -0.0937 -0.2665 -0.5142
18418SOL     OW66907   8.191   9.909   4.166  0.0436  0.1541 -0.4037
18418SOL    HW166908   8.123   9.838   4.151  0.6756 -0.3866 -0.7447
18418SOL    HW266909   8.150   9.985   4.218 -0.2687 -1.0583  1.1662
18419SOL     OW66910   4.471   2.001   7.607 -0.2005  0.0158 -0.0507
18419SOL    HW166911   4.571   2.007   7.605 -0.3164  1.8983 -0.7485
18419SOL    HW266912   4.431   2.081   7.563 -2.0331 -0.8526 -0.0428
18420SOL     OW66913   9.360   9.046   4.484  0.2122  0.0121  0.2750
18420SOL    HW166914   9.362   9.063   4.583  0.4687 -0.1365  0.2968
18420SOL    HW266915   9.407   8.960   4.465 -0.7795 -0.5041  0.1349
18421SOL     OW66916   7.539   2.174   5.190  0.0869  0.6251 -0.2960
18421SOL    HW166917   7.479   2.128   5.124  0.9002  2.1586 -2.1837
18421SOL    HW266918   7.599   2.107   5.234  0.5079 -0.2733 -2.1806
18422SOL     OW66919   7.580   3.239   4.171 -0.0618 -0.4354 -0.6052
18422SOL    HW166920   7.557   3.265   4.077 -0.6567  1.2458 -0.0120
18422SOL    HW266921   7.499   3.202   4.216  0.5842 -2.6081 -1.1925
18423SOL     OW66922   9.482   7.359   7.922  0.0218 -0.1979  0.4764
18423SOL    HW166923   9.527   7.439   7.960  0.1815  0.7541 -1.6657
18423SOL    HW266924   9.529   7.330   7.839 -2.3929 -0.0880 -0.9786
18424SOL     OW66925   2.216   1.412   5.700 -0.0613  0.3544 -0.4546
18424SOL    HW166926   2.271   1.477   5.648 -0.9511  2.5588  1.2829
18424SOL    HW266927   2.130   1.456   5.729 -1.0434 -1.8383  0.0670
18425SOL     OW66928   1.706   5.375   7.106 -0.3938  0.4553 -0.7477
18425SOL    HW166929   1.669   5.457   7.062  1.3459  1.2212 -0.8323
18425SOL    HW266930   1.725   5.394   7.202  2.4177  0.9665 -1.3729
18426SOL     OW66931   0.020   5.668   2.340 -0.2217  0.1052 -0.3823
18426SOL    HW166932  -0.018   5.715   2.420  0.2335 -0.1085 -0.0361
18426SOL    HW266933  -0.039   5.683   2.261 -0.7227  0.2432  0.0167
18427SOL     OW66934   9.470   0.081   0.276  0.2526 -0.0125 -0.3028
18427SOL    HW166935   9.372   0.062   0.284  0.3962 -0.5105  0.2594
18427SOL    HW266936   9.522   0.012   0.326  0.8194  1.2425  0.8832
18428SOL     OW66937   0.412   4.737   2.180 -0.4616  0.1429  0.4155
18428SOL    HW166938   0.459   4.649   2.171 -0.0122  0.3043  1.1828
18428SOL    HW266939   0.376   4.764   2.090  2.8314  1.1089 -0.6914
18429SOL     OW66940   2.848   6.018   3.683  0.1340 -0.4867 -0.0656
18429SOL    HW166941   2.762   5.995   3.728 -1.1361 -0.4449 -2.3588
18429SOL    HW266942   2.886   6.101   3.724 -1.8438  0.5046 -0.1376
18430SOL     OW66943   7.541   2.809   5.326  0.1129 -0.3481  0.2600
18430SOL    HW166944   7.463   2.824   5.386  1.0032 -1.5906  1.7852
18430SOL    HW266945   7.613   2.875   5.347 -0.2796  0.4151 -0.7394
18431SOL     OW66946   2.050   7.962   0.516  0.2010 -0.0027  0.1701
18431SOL    HW166947   2.016   7.990   0.606  1.6028  0.7822  0.4618
18431SOL    HW266948   2.138   8.006   0.498  0.1012 -0.4285 -1.4418
18432SOL     OW66949   3.905   0.503   5.130 -0.2966 -0.6404 -0.0797
18432SOL    HW166950   3.982   0.501   5.194  0.4652 -0.4531 -0.9759
18432SOL    HW266951   3.939   0.494   5.037 -1.1038  1.9898 -0.6838
18433SOL     OW66952   9.309   9.483   8.098  0.0704  0.7083  0.7652
18433SOL    HW166953   9.321   9.428   8.015 -0.9067 -0.0771  1.1226
18433SOL    HW266954   9.354   9.571   8.087  0.9494  0.1585 -0.1500
18434SOL     OW66955   0.283   5.719   4.130  0.6414 -0.6858 -0.3803
18434SOL    HW166956   0.254   5.637   4.180  1.5856  0.7162  2.6287
18434SOL    HW266957   0.203   5.764   4.090  0.0962 -2.9098 -1.8628
18435SOL     OW66958   8.422   0.954   7.844  0.2928 -0.3742 -0.0092
18435SOL    HW166959   8.372   1.021   7.790  1.2519  0.9703  0.7667
18435SOL    HW266960   8.357   0.893   7.891 -0.5633 -0.2152 -0.9745
18436SOL     OW66961   2.950   1.220   4.581 -0.1621 -0.5602  0.2046
18436SOL    HW166962   2.856   1.234   4.549 -0.5707 -0.5749  1.4046
18436SOL    HW266963   2.953   1.143   4.644  0.1887  1.0624  2.2049
18437SOL     OW66964   8.277   3.801   1.114 -0.5991 -0.2571 -0.1460
18437SOL    HW166965   8.248   3.720   1.063  1.9618 -0.6312 -1.0320
18437SOL    HW266966   8.211   3.875   1.099 -1.4405 -1.2843 -1.5805
18438SOL     OW66967   6.438   9.554   5.600 -0.0941 -0.3732 -0.5552
18438SOL    HW166968   6.503   9.578   5.672 -1.7639  2.2910  0.1278
18438SOL    HW266969   6.458   9.607   5.518  0.2553 -1.5779 -1.2663
18439SOL     OW66970   3.249   3.231   3.229  0.4458  0.6971 -0.2676
18439SOL    HW166971   3.226   3.151   3.284  2.2556 -0.4540 -1.1225
18439SOL    HW266972   3.288   3.302   3.287 -1.1484  0.9462  0.4957
18440SOL     OW66973   8.209   5.570   6.491 -0.4265 -0.3293  0.6009
18440SOL    HW166974   8.293   5.545   6.444  0.5608 -0.2597  2.2747
18440SOL    HW266975   8.201   5.669   6.496 -0.0846 -0.3371  1.3448
18441SOL     OW66976   0.070   6.949   2.381  0.1116  0.3506 -0.4374
18441SOL    HW166977  -0.010   6.903   2.341 -1.3707  2.8175 -0.4359
18441SOL    HW266978   0.144   6.883   2.393 -2.7059 -2.5539  1.7974
18442SOL     OW66979   7.153   9.829   5.255 -0.3481 -0.4205  0.2646
18442SOL    HW166980   7.067   9.779   5.253 -0.6487  0.1065 -0.7783
18442SOL    HW266981   7.207   9.800   5.334 -1.0346 -1.4999  0.3522
18443SOL     OW66982   2.389   8.888   5.093 -0.4179 -0.2158 -0.1964
18443SOL    HW166983   2.464   8.922   5.150 -3.1216  1.7812  2.3315
18443SOL    HW266984   2.381   8.789   5.103  0.6213 -0.1803  1.0962
18444SOL     OW66985   2.854   1.937   6.345 -0.1658  0.1442 -0.5532
18444SOL    HW166986   2.815   1.974   6.261 -0.6473 -0.3314 -0.5401
18444SOL    HW266987   2.890   1.845   6.327 -1.2704 -0.4047  0.0331
18445SOL     OW66988   7.382   0.866   4.319 -0.6759  0.4075 -0.1837
18445SOL    HW166989   7.397   0.942   4.382  0.0206  0.1174  0.0019
18445SOL    HW266990   7.325   0.796   4.363  1.2354 -0.5854  0.7444
18446SOL     OW66991   3.842   4.402   7.899 -0.2606 -0.0204 -0.1714
18446SOL    HW166992   3.802   4.311   7.885 -0.7892  0.0181  1.0101
18446SOL    HW266993   3.920   4.415   7.838  0.5349 -1.7101  0.4688
18447SOL     OW66994   4.184   3.023   1.690  0.1869 -0.1378  0.2905
18447SOL    HW166995   4.238   3.053   1.769 -0.9267  1.3317  0.5160
18447SOL    HW266996   4.154   3.103   1.637 -0.5604 -1.0083 -0.6298
18448SOL     OW66997   0.767   6.784   4.791  0.4244  0.4848 -0.0428
18448SOL    HW166998   0.792   6.715   4.858 -2.7587 -1.2873 -0.5748
18448SOL    HW266999   0.832   6.783   4.716  0.4661 -1.9006 -0.0121
18449SOL     OW67000   7.536   2.394   3.773  0.0615  0.0048 -0.2590
18449SOL    HW167001   7.476   2.323   3.811 -0.4218 -0.7148 -2.3233
18449SOL    HW267002   7.482   2.477   3.758 -0.6664 -0.9233 -2.9587
18450SOL     OW67003   8.392   5.042   0.375  0.1474  0.1060  0.0908
18450SOL    HW167004   8.468   5.047   0.440 -0.0813 -0.4767  0.4088
18450SOL    HW267005   8.415   4.978   0.301  0.4480  0.8489 -0.4653
18451SOL     OW67006   7.210   9.755   2.932  0.1054  0.4604 -0.1699
18451SOL    HW167007   7.284   9.748   2.999  1.4767 -0.0180 -1.6894
18451SOL    HW267008   7.183   9.851   2.922 -0.7793  0.4244  1.7539
18452SOL     OW67009   1.806   2.464   1.478  0.2483  0.2571  0.0870
18452SOL    HW167010   1.780   2.436   1.571 -1.1190 -1.2218 -0.7131
18452SOL    HW267011   1.872   2.400   1.441 -0.5249 -0.1529 -0.5960
18453SOL     OW67012   6.915   7.005   3.992 -0.2938  0.1403 -0.0271
18453SOL    HW167013   6.920   7.102   4.019 -0.0707  0.2524 -0.4669
18453SOL    HW267014   6.829   6.966   4.025 -0.2582  0.4154  0.3945
18454SOL     OW67015   0.316   9.938   1.652 -0.3278  0.0350  0.0760
18454SOL    HW167016   0.329   9.909   1.747  1.1613  4.3409  1.2887
18454SOL    HW267017   0.220   9.925   1.626 -0.8669 -0.7072  2.3257
18455SOL     OW67018   8.425   3.993   3.425 -0.3648  0.0691 -0.1231
18455SOL    HW167019   8.409   4.088   3.453  2.1691 -0.2075  2.3527
18455SOL    HW267020   8.358   3.934   3.469 -3.6362  0.8916 -3.6773
18456SOL     OW67021   6.455   0.120   3.127 -0.7179 -0.5818  0.0314
18456SOL    HW167022   6.452   0.131   3.227  0.8273  0.2776  0.0018
18456SOL    HW267023   6.511   0.192   3.087 -0.8709 -1.2411 -1.4196
18457SOL     OW67024   7.072   5.910   1.687  0.1397  0.5686  0.7314
18457SOL    HW167025   7.138   5.968   1.640  0.6017  0.2884  1.0230
18457SOL    HW267026   7.107   5.816   1.691 -0.3611  0.3795  0.7282
18458SOL     OW67027   2.364   1.958   5.703 -0.1186 -0.0863 -0.5264
18458SOL    HW167028   2.294   2.007   5.755 -0.3499 -0.8426 -0.1170
18458SOL    HW267029   2.355   1.981   5.606 -0.3762  0.4895 -0.3720
18459SOL     OW67030   4.167   8.954   6.440  0.2600 -0.1847  0.1719
18459SOL    HW167031   4.144   8.857   6.425 -2.6643  0.7990 -2.3254
18459SOL    HW267032   4.252   8.975   6.393 -0.5102 -0.9489 -1.6286
18460SOL     OW67033   1.250   5.934   5.364  0.6735  0.1227 -0.3382
18460SOL    HW167034   1.220   5.874   5.289  2.0957 -1.9578  0.6953
18460SOL    HW267035   1.343   5.966   5.346  1.0104 -0.3641  0.4998
18461SOL     OW67036   5.054   5.064   0.516  0.2199 -0.0267 -0.1475
18461SOL    HW167037   5.032   5.159   0.533 -0.5137  0.2237 -2.3256
18461SOL    HW267038   5.054   5.013   0.602 -1.4993  1.4896  0.7664
18462SOL     OW67039   2.045   7.262   8.107 -0.7090  0.1235 -0.1809
18462SOL    HW167040   1.991   7.227   8.184 -0.6781  0.3965 -0.0330
18462SOL    HW267041   1.997   7.338   8.064 -0.3562  0.4923  0.0720
18463SOL     OW67042   2.176   7.286   1.076  0.0003  0.3112 -0.5932
18463SOL    HW167043   2.166   7.292   1.175  1.6067 -1.2108 -0.3267
18463SOL    HW267044   2.272   7.285   1.051 -0.3863  1.1293 -2.2168
18464SOL     OW67045   8.480   2.161   5.444 -0.1486 -0.4312  0.8360
18464SOL    HW167046   8.475   2.088   5.376  0.9586  0.2010  0.0543
18464SOL    HW267047   8.573   2.165   5.481 -0.1920  0.6004  0.8356
18465SOL     OW67048   8.072   4.787   2.319  0.3423 -0.0143  0.0854
18465SOL    HW167049   7.993   4.845   2.296  0.7745  0.5716  0.0577
18465SOL    HW267050   8.078   4.779   2.418 -0.2321 -0.7369  0.0668
18466SOL     OW67051   0.047   6.719   7.642 -0.6943 -0.6527 -0.4171
18466SOL    HW167052  -0.032   6.682   7.692 -1.8240 -0.0648 -1.7374
18466SOL    HW267053   0.021   6.804   7.596  0.8633 -0.1797 -0.4528
18467SOL     OW67054   6.208   9.866   1.652  0.0535 -0.1070 -0.2389
18467SOL    HW167055   6.279   9.835   1.589 -1.5618 -1.9234 -1.2069
18467SOL    HW267056   6.118   9.838   1.618 -1.1091  1.7350  1.2083
18468SOL     OW67057   5.612   5.297   7.955 -0.1947  0.6652 -0.1183
18468SOL    HW167058   5.550   5.244   8.012 -1.5380  0.1435 -2.0388
18468SOL    HW267059   5.620   5.254   7.865  1.1239  2.0223 -0.6692
18469SOL     OW67060   7.240   4.345   3.313 -0.0847  0.1962  0.4241
18469SOL    HW167061   7.295   4.262   3.305 -1.1953 -0.5289  0.1753
18469SOL    HW267062   7.197   4.366   3.225  1.7086  2.1373 -0.0486
18470SOL     OW67063   2.848   6.593   7.531 -0.0283 -0.1369 -0.0495
18470SOL    HW167064   2.843   6.691   7.514 -0.4868 -0.1837 -0.1874
18470SOL    HW267065   2.777   6.566   7.596  0.9472 -0.1617  1.0036
18471SOL     OW67066   1.359   1.603   2.397  0.3664 -0.2136 -0.3558
18471SOL    HW167067   1.269   1.632   2.365  0.0712 -0.3790  0.2964
18471SOL    HW267068   1.430   1.657   2.352 -0.1737  1.5582  0.8669
18472SOL     OW67069   3.830   4.240   5.022 -0.2104  0.6577  0.1352
18472SOL    HW167070   3.866   4.289   5.100 -0.8188  1.7334 -0.2523
18472SOL    HW267071   3.738   4.208   5.042  0.3830 -0.8098  0.5853
18473SOL     OW67072   2.386   8.724   2.934 -0.1821  0.0268  0.3703
18473SOL    HW167073   2.306   8.663   2.943 -1.3021  1.2238 -1.2553
18473SOL    HW267074   2.395   8.752   2.839  1.8871  0.3462  0.6547
18474SOL     OW67075   8.705   8.400   3.688 -0.4350 -0.1133 -0.0502
18474SOL    HW167076   8.644   8.385   3.610 -0.9131  0.7315  0.1635
18474SOL    HW267077   8.783   8.336   3.681 -2.0401 -2.1671  0.4309
18475SOL     OW67078   4.373   3.224   6.106 -0.6351 -0.3518 -0.4800
18475SOL    HW167079   4.376   3.323   6.117 -2.3192 -0.1601 -1.5186
18475SOL    HW267080   4.429   3.197   6.028  0.5536 -0.3331  0.3465
18476SOL     OW67081   3.204   9.964   1.010  0.0916  0.1056 -0.1157
18476SOL    HW167082   3.290   9.958   1.061  1.0884  2.2263 -1.4792
18476SOL    HW267083   3.137   9.902   1.051  1.4118  0.3984  2.6161
18477SOL     OW67084   3.179   2.945   4.232 -0.5908  0.2585 -0.1466
18477SOL    HW167085   3.125   2.861   4.244 -0.4936  0.6314  3.4002
18477SOL    HW267086   3.120   3.025   4.245 -0.2895  0.7517 -1.6874
18478SOL     OW67087   4.521   0.230   0.057 -0.0451 -0.4501 -0.5470
18478SOL    HW167088   4.490   0.186   0.141 -0.3712 -1.2098 -1.0595
18478SOL    HW267089   4.619   0.214   0.045  0.0908  0.0233 -0.0976
18479SOL     OW67090   2.188   6.584   2.162 -0.0524  0.2742  0.2443
18479SOL    HW167091   2.284   6.605   2.179 -0.0718  0.6533 -0.0924
18479SOL    HW267092   2.151   6.650   2.096 -0.1455 -0.7503 -0.7631
18480SOL     OW67093   8.652   0.250   1.641 -0.2403  0.3518  0.7424
18480SOL    HW167094   8.671   0.198   1.724 -1.0204 -0.3779  0.4757
18480SOL    HW267095   8.662   0.191   1.561 -0.7236  0.7171  0.4091
18481SOL     OW67096   7.589   2.089   3.275  0.8536 -0.8762  0.8333
18481SOL    HW167097   7.660   2.101   3.206 -0.9099  1.1025 -0.7188
18481SOL    HW267098   7.619   2.129   3.362  0.9578  1.6196 -0.3067
18482SOL     OW67099   2.056   4.727   4.877  0.3644 -0.5044 -0.0233
18482SOL    HW167100   2.081   4.655   4.812 -1.2753 -1.3579  0.2699
18482SOL    HW267101   2.139   4.764   4.919  1.3362 -1.0695 -1.3811
18483SOL     OW67102   3.433   0.288   6.276 -0.2474  0.5353 -0.0687
18483SOL    HW167103   3.357   0.309   6.338  0.2054 -0.5996  0.8734
18483SOL    HW267104   3.405   0.309   6.182 -1.3264  1.2081  0.3879
18484SOL     OW67105   9.020   9.516   5.848 -0.3784 -0.0327 -0.6493
18484SOL    HW167106   8.955   9.490   5.919 -0.1433  2.5148  0.5907
18484SOL    HW267107   8.972   9.562   5.774 -0.5278 -2.0465 -1.8266
18485SOL     OW67108   3.670   7.229   3.310  0.1857 -0.1428  0.0781
18485SOL    HW167109   3.614   7.306   3.280  1.0109  1.1311  1.7059
18485SOL    HW267110   3.767   7.255   3.305  0.4542 -0.9879  0.8779
18486SOL     OW67111   0.049   1.884   3.143 -0.2814 -0.4014  0.1183
18486SOL    HW167112  -0.044   1.864   3.113 -0.3971  1.6279 -1.0100
18486SOL    HW267113   0.065   1.983   3.137  2.1230 -0.7789 -0.2235
18487SOL     OW67114   4.475   4.908   6.322  0.3621  0.1176 -0.2208
18487SOL    HW167115   4.385   4.950   6.332  0.7254  0.5703  1.2870
18487SOL    HW267116   4.541   4.958   6.378  1.1229 -1.4836  0.3507
18488SOL     OW67117   6.477   1.660   2.499 -0.2225  0.1222  0.0270
18488SOL    HW167118   6.575   1.639   2.493 -0.5632 -1.5340  0.0844
18488SOL    HW267119   6.461   1.719   2.577  0.4383 -1.5605  1.4773
18489SOL     OW67120   5.921   4.018   2.036  0.7705 -0.0411  0.3910
18489SOL    HW167121   5.956   3.960   2.110  0.8727  0.8365  1.0411
18489SOL    HW267122   5.971   4.104   2.036 -1.1249  1.0729  1.0861
18490SOL     OW67123   8.811   3.534   2.519  0.0849 -0.1362  0.3688
18490SOL    HW167124   8.724   3.515   2.563 -0.2246  0.6352  0.0957
18490SOL    HW267125   8.824   3.473   2.441 -0.7497  0.5371 -0.3024
18491SOL     OW67126   8.743   9.626   1.965 -0.1684 -1.0816  0.2758
18491SOL    HW167127   8.728   9.562   2.040  1.4026 -0.4485  1.1508
18491SOL    HW267128   8.836   9.662   1.969 -0.7913  0.7233 -0.6231
18492SOL     OW67129   9.412   1.722   2.822 -0.4199  0.1137  0.0485
18492SOL    HW167130   9.387   1.739   2.917 -1.6902  0.9238 -0.4047
18492SOL    HW267131   9.333   1.683   2.774  0.0872  0.0818 -0.7604
18493SOL     OW67132   3.652   9.680   4.667  0.0285 -0.2104  0.0603
18493SOL    HW167133   3.643   9.636   4.578  0.5266  0.0306 -0.1046
18493SOL    HW267134   3.748   9.685   4.693 -0.0481  0.5800  0.1888
18494SOL     OW67135   7.768   3.091   3.823 -0.1254  0.2571  0.0690
18494SOL    HW167136   7.745   3.068   3.918  0.7271 -1.8740 -0.1980
18494SOL    HW267137   7.868   3.096   3.813 -0.1902 -0.0687 -0.8125
18495SOL     OW67138   0.806   8.888   4.167 -0.2815 -0.4487  0.0313
18495SOL    HW167139   0.834   8.791   4.171 -1.7825 -0.8473  1.2362
18495SOL    HW267140   0.779   8.918   4.258  1.6805  1.5943 -0.0115
18496SOL     OW67141   6.920   2.048   0.641 -0.2715 -0.0131 -0.1180
18496SOL    HW167142   6.891   2.094   0.724  0.7288 -0.6695  0.6136
18496SOL    HW267143   6.934   2.115   0.568 -3.4526  0.3164 -0.4627
18497SOL     OW67144   0.953   2.739   6.830 -0.2036 -0.1645  1.0581
18497SOL    HW167145   1.005   2.654   6.820  0.9031  0.5735  0.4535
18497SOL    HW267146   0.859   2.717   6.854 -0.1989 -1.6161 -0.1363
18498SOL     OW67147   4.434   8.683   5.564 -0.0996 -1.0272  0.0877
18498SOL    HW167148   4.492   8.602   5.551  0.8077 -0.3782 -0.0174
18498SOL    HW267149   4.338   8.658   5.554  0.2054 -1.9725 -0.5376
18499SOL     OW67150   4.339   1.466   0.067 -0.7384 -0.1740 -0.2936
18499SOL    HW167151   4.293   1.433  -0.016  0.5969 -1.4057 -0.5463
18499SOL    HW267152   4.416   1.407   0.089 -0.6517  0.5543  1.4465
18500SOL     OW67153   2.190   3.144   3.097 -0.0502  0.3174  0.2594
18500SOL    HW167154   2.250   3.122   3.020 -0.8097 -0.8351 -0.0086
18500SOL    HW267155   2.235   3.213   3.155  0.8933  0.5552 -0.7307
18501SOL     OW67156   8.643   9.908   8.125 -0.3115 -0.3632  0.3771
18501SOL    HW167157   8.742   9.917   8.130 -0.3322  1.3859 -1.8770
18501SOL    HW267158   8.620   9.817   8.091  0.5920  0.0167 -1.2949
18502SOL     OW67159   5.083   8.348   2.517 -0.4291  0.0039  0.3983
18502SOL    HW167160   5.119   8.255   2.523 -0.3699 -0.1360 -1.6676
18502SOL    HW267161   4.994   8.347   2.471 -1.1327  0.8228  1.6930
18503SOL     OW67162   4.134   3.093   6.559 -0.0398 -0.5388 -0.4636
18503SOL    HW167163   4.213   3.152   6.545  1.1253 -2.0274 -0.1747
18503SOL    HW267164   4.095   3.067   6.471  0.1493 -0.2900 -0.6206
18504SOL     OW67165   0.323   6.934   7.052 -0.4368 -0.6488  0.1663
18504SOL    HW167166   0.324   6.837   7.079  3.2523 -0.9063 -0.5603
18504SOL    HW267167   0.284   6.943   6.960 -2.5404 -1.1694  0.9792
18505SOL     OW67168   9.038   1.985   2.072  0.5420 -0.4761  0.0462
18505SOL    HW167169   9.066   1.892   2.095  2.5133 -0.0879 -0.6689
18505SOL    HW267170   9.002   2.030   2.154 -0.4529 -1.8648  0.3907
18506SOL     OW67171   0.726   0.496   6.246  0.5561  0.5470  0.1629
18506SOL    HW167172   0.716   0.397   6.235  0.5688  0.5040  0.5469
18506SOL    HW267173   0.635   0.539   6.245  0.5948  0.6185 -0.8190
18507SOL     OW67174   9.692   7.333   0.067 -0.4267  0.0816 -0.0759
18507SOL    HW167175   9.609   7.298   0.111  0.2718 -0.3467  0.9383
18507SOL    HW267176   9.772   7.284   0.104  0.4061  1.5009  0.0336
18508SOL     OW67177   6.917   1.462   2.104  0.2859 -0.0959  0.0082
18508SOL    HW167178   6.852   1.490   2.175  1.2601  2.1354  0.0898
18508SOL    HW267179   6.870   1.459   2.015 -0.1611  0.5557  0.2163
18509SOL     OW67180   1.178   4.147   5.374  0.8363 -0.1200 -0.1923
18509SOL    HW167181   1.090   4.180   5.407  1.6550  0.5644  1.3246
18509SOL    HW267182   1.234   4.224   5.342  1.5339 -0.3580  0.4301
18510SOL     OW67183   2.504   5.585   6.201  0.3587  0.2770 -0.4699
18510SOL    HW167184   2.410   5.564   6.177  0.5567  0.6470 -1.5775
18510SOL    HW267185   2.566   5.520   6.158  0.5423 -0.7498  1.2874
18511SOL     OW67186   6.272   1.031   2.638 -1.0659 -0.1532  0.8236
18511SOL    HW167187   6.270   0.975   2.556 -0.1893 -0.0957  0.7645
18511SOL    HW267188   6.249   1.126   2.614 -0.5645 -0.0859  0.6018
18512SOL     OW67189   3.802   5.374   6.912  0.0333  0.0356 -0.1324
18512SOL    HW167190   3.890   5.336   6.939 -0.1041  0.0639  0.3581
18512SOL    HW267191   3.815   5.468   6.879 -0.2023  1.1889  2.8794
18513SOL     OW67192   1.746   1.211   5.509  0.0264  0.9948  0.4613
18513SOL    HW167193   1.798   1.176   5.431 -0.6150  1.2488 -0.0869
18513SOL    HW267194   1.656   1.169   5.511 -0.3499  1.7975  0.4403
18514SOL     OW67195   9.986   4.544   3.232 -0.4506 -0.5724  0.0933
18514SOL    HW167196  10.075   4.581   3.259 -0.5706 -1.4918  1.7846
18514SOL    HW267197   9.985   4.531   3.132  0.2786  2.0781 -0.3001
18515SOL     OW67198   7.318   3.381   0.839 -0.2089  0.0677  0.1035
18515SOL    HW167199   7.254   3.306   0.821 -0.4881  0.4506 -0.4951
18515SOL    HW267200   7.279   3.467   0.807  0.4473  0.3613  0.0836
18516SOL     OW67201   3.834   4.904   7.687 -0.3432 -0.7364 -0.5837
18516SOL    HW167202   3.788   4.824   7.726  1.1503 -1.1112  0.4316
18516SOL    HW267203   3.845   4.892   7.589  0.0674 -1.8637 -0.3995
18517SOL     OW67204   3.910   8.029   0.063 -0.5526  0.2062 -0.4209
18517SOL    HW167205   3.969   8.108   0.047  1.7403 -1.2367  0.5937
18517SOL    HW267206   3.935   7.955   0.001 -1.9212 -0.1319 -0.5935
18518SOL     OW67207   1.513   6.010   7.020 -0.2288  0.5337  0.4298
18518SOL    HW167208   1.606   6.001   7.055 -0.2655 -0.6751  0.2375
18518SOL    HW267209   1.500   6.102   6.982  1.1524  0.4280 -0.3307
18519SOL     OW67210   7.827   4.238   3.001  0.0801  0.1100  0.7187
18519SOL    HW167211   7.801   4.171   2.932  0.1843 -0.2095  0.9872
18519SOL    HW267212   7.899   4.200   3.060  1.2227  1.0134 -0.0698
18520SOL     OW67213   9.295   1.973   1.174 -0.2136 -0.1425  0.2127
18520SOL    HW167214   9.248   1.917   1.106 -0.4917  0.0833  0.2198
18520SOL    HW267215   9.242   2.057   1.191  0.0160 -0.0508  0.4729
18521SOL     OW67216   8.627   3.212   4.258 -0.0383 -0.0892  0.3004
18521SOL    HW167217   8.553   3.145   4.256  1.0868 -1.3693  0.3581
18521SOL    HW267218   8.640   3.250   4.167 -1.1870  0.6226  0.4276
18522SOL     OW67219   1.083   1.981   6.880  0.0701 -0.0296  0.4935
18522SOL    HW167220   0.992   2.006   6.912  1.2097  2.3280  2.0578
18522SOL    HW267221   1.086   1.883   6.862 -3.4194  0.2211 -1.9089
18523SOL     OW67222   6.869   0.742   5.636  0.1193  0.0704 -0.3310
18523SOL    HW167223   6.848   0.839   5.639 -1.4849 -0.2732  0.2330
18523SOL    HW267224   6.783   0.689   5.633  0.9245 -1.3711  1.3147
18524SOL     OW67225   4.106   6.297   1.898  0.0338  0.0286  0.1426
18524SOL    HW167226   4.134   6.203   1.916  0.7912  0.4072  1.0191
18524SOL    HW267227   4.065   6.304   1.807  0.7537 -0.9736 -0.2561
18525SOL     OW67228   5.976   3.166   0.288 -0.2850  0.0209  0.2457
18525SOL    HW167229   5.974   3.150   0.387 -1.2035  0.6156  0.3190
18525SOL    HW267230   5.988   3.078   0.241  0.5283 -0.2264  0.8881
18526SOL     OW67231   9.464   5.609   3.019 -0.4608  0.0005 -0.0353
18526SOL    HW167232   9.382   5.568   2.978  0.6967 -0.3978 -2.0107
18526SOL    HW267233   9.461   5.708   3.006 -0.2427 -0.0939 -0.8546
18527SOL     OW67234   1.983   0.740   7.558 -0.6822  0.3867  0.6511
18527SOL    HW167235   1.989   0.656   7.504  0.2089  1.3491 -0.7880
18527SOL    HW267236   2.062   0.747   7.618  0.2265  1.1379 -0.6295
18528SOL     OW67237   9.761   6.166   0.056  0.3543 -0.2213 -0.7425
18528SOL    HW167238   9.671   6.132   0.085  0.2834 -0.2934 -1.0448
18528SOL    HW267239   9.785   6.247   0.110  0.8674 -1.1808  0.5030
18529SOL     OW67240   1.904   6.537   4.194  0.1705 -0.0288 -0.1445
18529SOL    HW167241   1.958   6.502   4.117 -1.0202 -2.2058 -0.0065
18529SOL    HW267242   1.835   6.601   4.159 -0.2882 -0.9139 -0.8783
18530SOL     OW67243   3.074   8.304   3.529  0.0423 -0.0666  0.2470
18530SOL    HW167244   3.118   8.223   3.569  0.0795 -1.2284 -2.0997
18530SOL    HW267245   3.026   8.354   3.601  2.2375 -0.6979  2.2231
18531SOL     OW67246   2.841   5.580   7.640  0.3234  0.0126  0.5464
18531SOL    HW167247   2.781   5.633   7.580  1.0424 -0.1543 -0.3155
18531SOL    HW267248   2.812   5.594   7.735 -1.1023 -0.1023  0.1374
18532SOL     OW67249   4.548   0.038   3.863 -0.2012  0.6595 -0.4414
18532SOL    HW167250   4.535   0.106   3.790 -1.3769 -0.3262 -1.1629
18532SOL    HW267251   4.462  -0.010   3.880 -0.3227  1.8461  2.6071
18533SOL     OW67252   1.398   4.272   5.759  0.0913 -0.0840  0.1855
18533SOL    HW167253   1.471   4.280   5.827 -0.0067  0.3256  0.2459
18533SOL    HW267254   1.312   4.304   5.799 -0.4480 -2.0337  0.6265
18534SOL     OW67255   3.070   0.494   2.196 -0.2988 -0.0836  0.2821
18534SOL    HW167256   3.107   0.550   2.121  1.3343 -1.3777  0.0891
18534SOL    HW267257   3.095   0.536   2.283  1.1608 -0.6484  0.1436
18535SOL     OW67258   0.547   0.550   3.493  0.2802  0.1153 -0.2957
18535SOL    HW167259   0.632   0.562   3.442  0.7889 -0.9933  0.2607
18535SOL    HW267260   0.499   0.469   3.460 -0.2995  0.4309 -0.2422
18536SOL     OW67261   8.713   0.849   1.784 -0.2090 -0.2731 -0.3820
18536SOL    HW167262   8.634   0.790   1.795  0.0438 -0.5450 -0.0298
18536SOL    HW267263   8.791   0.795   1.752 -0.2338  0.0379 -0.9732
18537SOL     OW67264   9.545   8.134   2.040  0.0699  0.5509  0.0529
18537SOL    HW167265   9.495   8.104   2.122  0.4133  0.3089  0.1697
18537SOL    HW267266   9.641   8.146   2.062  0.2814 -0.1412 -0.4811
18538SOL     OW67267   7.821   0.264   6.109  0.1833  0.0965 -0.9206
18538SOL    HW167268   7.829   0.179   6.161  0.0429 -0.3590 -1.6401
18538SOL    HW267269   7.894   0.327   6.137  2.5661 -1.6504 -2.9907
18539SOL     OW67270   0.788   2.369   4.047  0.9662  0.2070 -0.2021
18539SOL    HW167271   0.842   2.453   4.041  0.8368  0.3114  0.0948
18539SOL    HW267272   0.695   2.387   4.014  1.4051 -0.2375 -1.7385
18540SOL     OW67273   7.134   0.898   3.954  0.2794 -0.7539 -0.0318
18540SOL    HW167274   7.145   0.981   3.900 -2.6745  0.2120  0.7390
18540SOL    HW267275   7.125   0.922   4.050 -0.9050 -1.8996  0.1592
18541SOL     OW67276   7.931   2.732   1.311  0.0060  0.8780 -0.8231
18541SOL    HW167277   7.870   2.699   1.239  0.6731  0.4031 -1.1822
18541SOL    HW267278   7.937   2.663   1.384  0.3074  0.8064 -0.9120
18542SOL     OW67279   7.435   4.572   3.360  0.1121  0.6189  0.0838
18542SOL    HW167280   7.428   4.656   3.306 -1.0947 -0.0782 -0.8857
18542SOL    HW267281   7.356   4.514   3.341  1.4459 -1.2044 -0.0447
18543SOL     OW67282   3.093   1.508   3.752  0.1485 -0.1129  0.4547
18543SOL    HW167283   3.119   1.443   3.682  0.5456 -0.6692  1.1177
18543SOL    HW267284   3.123   1.600   3.725 -1.6908  0.0515 -1.1623
18544SOL     OW67285   7.133   8.606   2.237  0.2974  0.1139 -0.0330
18544SOL    HW167286   7.083   8.521   2.253 -0.6096  0.7908  0.9181
18544SOL    HW267287   7.229   8.587   2.218 -0.4467 -1.2821 -2.6665
18545SOL     OW67288   7.693   0.587   0.979  0.0210  0.0297  0.1037
18545SOL    HW167289   7.715   0.605   0.883 -2.2623  0.3244 -0.3751
18545SOL    HW267290   7.634   0.507   0.986 -0.6806  0.6362  1.1769
18546SOL     OW67291   3.093   9.006   7.130 -0.3467  0.0589 -0.0417
18546SOL    HW167292   3.079   9.081   7.065  1.1287 -0.8314 -1.4220
18546SOL    HW267293   3.173   8.953   7.103 -0.6123 -1.2482  1.6565
18547SOL     OW67294   0.136   7.803   1.417  0.1810  0.0191 -0.3601
18547SOL    HW167295   0.093   7.731   1.363  1.3154 -1.4696  0.7079
18547SOL    HW267296   0.065   7.862   1.456 -0.6632  1.3251 -3.6913
18548SOL     OW67297   1.651   5.064   8.055 -0.3722 -0.0679  0.7765
18548SOL    HW167298   1.586   5.105   8.120  0.3015  1.2211  0.6482
18548SOL    HW267299   1.670   5.129   7.981 -0.8771 -1.4047 -0.5446
18549SOL     OW67300   2.182   3.815   4.953 -0.0255 -0.3888 -0.1364
18549SOL    HW167301   2.113   3.778   4.891 -2.6863 -0.4033  2.7579
18549SOL    HW267302   2.167   3.913   4.964 -0.2327 -0.5850  1.3288
18550SOL     OW67303   2.848   9.893   3.482  0.8547 -0.2627  0.0914
18550SOL    HW167304   2.917   9.836   3.527  1.4586 -0.1094 -0.6227
18550SOL    HW267305   2.826   9.853   3.393  1.7108  0.9085 -0.6716
18551SOL     OW67306   4.300   9.221   1.463  0.1724  0.0271 -0.5500
18551SOL    HW167307   4.371   9.291   1.464  0.3974 -0.2026 -0.6113
18551SOL    HW267308   4.333   9.140   1.416 -0.3891  0.1908 -1.2377
18552SOL     OW67309   7.359   2.575   4.277  0.0140 -0.2382 -0.3936
18552SOL    HW167310   7.280   2.515   4.291  2.0224 -2.4687  1.7342
18552SOL    HW267311   7.350   2.656   4.334  0.3557 -1.6282  1.6996
18553SOL     OW67312   6.450   2.099   8.123 -0.2599 -0.3438  0.4274
18553SOL    HW167313   6.509   2.113   8.203  0.1666 -0.4479  0.1311
18553SOL    HW267314   6.374   2.040   8.149  0.9043 -1.9499  0.2889
18554SOL     OW67315   7.388   3.282   2.386 -0.3180 -0.6657 -0.0438
18554SOL    HW167316   7.387   3.345   2.308 -0.8263 -0.4715  0.1154
18554SOL    HW267317   7.460   3.309   2.450 -2.4521  1.6115  1.5173
18555SOL     OW67318   6.487   3.525   0.778  0.2359 -0.4416  0.1953
18555SOL    HW167319   6.438   3.493   0.697 -0.5200 -0.4193  0.6372
18555SOL    HW267320   6.574   3.477   0.786  0.5160 -0.1266 -0.8769
18556SOL     OW67321   4.733   4.665   1.112 -0.0934 -0.2168  0.0551
18556SOL    HW167322   4.758   4.661   1.016 -0.0790  1.6676 -0.0528
18556SOL    HW267323   4.767   4.751   1.151 -0.1027 -0.9594  1.7332
18557SOL     OW67324   8.087   1.986   4.529  0.5893  0.0769 -0.0182
18557SOL    HW167325   8.181   1.972   4.499  1.2334  0.9699  1.5231
18557SOL    HW267326   8.024   1.954   4.458  2.0503 -0.0306 -1.2840
18558SOL     OW67327   2.958   8.664   7.389 -0.4471  0.5459 -0.7627
18558SOL    HW167328   2.946   8.762   7.372 -1.3995  0.4696 -0.5597
18558SOL    HW267329   2.902   8.612   7.325 -0.0552  0.1392 -0.7725
18559SOL     OW67330   9.043   4.478   4.247 -0.1835  0.0188 -0.1344
18559SOL    HW167331   8.979   4.541   4.293  0.4577  0.0355  0.7492
18559SOL    HW267332   9.134   4.518   4.248  0.3852 -1.2660  1.1352
18560SOL     OW67333   2.677   0.937   1.450  0.3527 -0.0518  0.1289
18560SOL    HW167334   2.623   1.017   1.474 -0.0807 -0.1586 -0.4902
18560SOL    HW267335   2.643   0.898   1.365  0.2093 -1.2079  0.7067
18561SOL     OW67336   7.588   2.186   6.207  0.1949  0.3979  0.3424
18561SOL    HW167337   7.604   2.215   6.301  2.5004  0.2457  0.0289
18561SOL    HW267338   7.555   2.091   6.206  0.9694  0.1166  0.9605
18562SOL     OW67339   1.006   6.649   8.126 -0.3818  0.0391 -0.3345
18562SOL    HW167340   0.954   6.568   8.156  0.2816 -0.1099  0.4525
18562SOL    HW267341   1.094   6.620   8.090 -0.1581  0.4101 -0.0901
18563SOL     OW67342   6.106   3.821   7.756 -0.1272 -0.0618  0.7111
18563SOL    HW167343   6.167   3.751   7.722  0.2561  0.0113  1.2471
18563SOL    HW267344   6.136   3.911   7.723 -0.6471 -0.1550 -0.0168
18564SOL     OW67345   1.016   1.869   5.657 -0.4262 -0.2790  0.1050
18564SOL    HW167346   0.983   1.918   5.737 -2.4675 -2.0624  0.3968
18564SOL    HW267347   0.942   1.861   5.590  0.1255 -2.1422 -0.3139
18565SOL     OW67348   8.763   7.015   5.477 -0.3061  0.5560  0.1821
18565SOL    HW167349   8.732   7.047   5.388 -0.1289 -0.2981 -0.1907
18565SOL    HW267350   8.691   7.031   5.545 -0.5533  0.9416 -0.1663
18566SOL     OW67351   0.053   7.987   7.292 -0.0065  0.5453  0.6082
18566SOL    HW167352   0.127   7.920   7.278  2.4045  3.4784 -1.1517
18566SOL    HW267353   0.073   8.040   7.375 -1.1435  0.1521  1.1494
18567SOL     OW67354   8.175   3.535   3.028 -0.1156 -0.9176 -0.0027
18567SOL    HW167355   8.089   3.502   3.066 -0.2158 -0.1024  0.4768
18567SOL    HW267356   8.224   3.458   2.986 -1.9345 -1.0483 -1.9672
18568SOL     OW67357   7.337   7.754   6.805 -0.2871  0.6621 -0.4115
18568SOL    HW167358   7.276   7.689   6.850  3.1709 -2.0909  0.5231
18568SOL    HW267359   7.356   7.723   6.712 -1.2418  2.1764 -1.1339
18569SOL     OW67360   1.531   4.666   2.424  0.2268  0.1787  0.0641
18569SOL    HW167361   1.532   4.610   2.341  0.4452  1.0402 -0.5170
18569SOL    HW267362   1.512   4.608   2.503  0.2269 -0.6806 -0.5637
18570SOL     OW67363   9.851   2.370   0.423  0.7763  0.4684 -1.0393
18570SOL    HW167364   9.770   2.416   0.457  0.4032 -0.7081 -0.2968
18570SOL    HW267365   9.931   2.401   0.475  0.5166  0.2325 -0.4915
18571SOL     OW67366   1.534   7.254   5.399  0.5362 -0.0896  0.0662
18571SOL    HW167367   1.450   7.299   5.368 -0.2189 -1.0204  0.7079
18571SOL    HW267368   1.548   7.170   5.347  1.8715  0.8038 -1.0419
18572SOL     OW67369   9.939   9.711   7.872  0.0203  0.1550 -0.0750
18572SOL    HW167370   9.998   9.755   7.940  0.3173 -0.2219 -0.0869
18572SOL    HW267371   9.924   9.615   7.898 -0.2785  0.1474 -0.2717
18573SOL     OW67372   3.702   7.646   5.210  0.2360 -0.2732 -0.2843
18573SOL    HW167373   3.614   7.634   5.256 -1.2665  2.5371 -2.2598
18573SOL    HW267374   3.708   7.585   5.132 -1.5070  1.9117 -2.2011
18574SOL     OW67375   5.475   0.274   3.984 -0.0477 -0.4718 -0.7694
18574SOL    HW167376   5.424   0.318   4.057 -0.8854  0.7779 -2.0871
18574SOL    HW267377   5.526   0.342   3.932  0.4203 -1.3215 -1.4444
18575SOL     OW67378   1.099   5.436   0.838  0.2707 -0.2922 -0.4559
18575SOL    HW167379   1.054   5.347   0.829  0.1204 -0.2076 -0.5480
18575SOL    HW267380   1.091   5.468   0.932 -0.0803 -0.1615 -0.5311
18576SOL     OW67381   7.901   1.718   4.905 -0.1653  0.0654 -0.2830
18576SOL    HW167382   7.946   1.794   4.858  0.4676  0.4784  0.9749
18576SOL    HW267383   7.872   1.747   4.996  0.4154 -1.2954  0.3613
18577SOL     OW67384   7.984   8.827   2.819 -0.1635 -0.4495 -0.0385
18577SOL    HW167385   7.962   8.866   2.730  0.4801  0.6472  0.2737
18577SOL    HW267386   7.930   8.744   2.833 -0.4590 -0.4915 -1.3357
18578SOL     OW67387   6.302   4.179   0.133 -0.1891 -0.3103 -0.0604
18578SOL    HW167388   6.224   4.209   0.187 -0.3983 -1.4026  0.2541
18578SOL    HW267389   6.274   4.167   0.038 -0.2495 -0.0912 -0.0700
18579SOL     OW67390   8.145   2.399   1.239  0.6709 -0.1407  0.5036
18579SOL    HW167391   8.123   2.471   1.173  0.4049 -1.0006 -0.3665
18579SOL    HW267392   8.220   2.344   1.203  0.7337 -0.4226  1.0674
18580SOL     OW67393   8.446   5.282   7.705 -0.0290  0.4317  0.4187
18580SOL    HW167394   8.494   5.195   7.707  1.6249  1.3566  1.2894
18580SOL    HW267395   8.446   5.324   7.796 -0.1872  1.6832 -0.1384
18581SOL     OW67396   9.566   5.538   1.612 -0.0486  0.2704  0.0567
18581SOL    HW167397   9.541   5.631   1.640  0.2785  0.3351  0.1409
18581SOL    HW267398   9.528   5.519   1.522  1.4536  1.1585 -0.7825
18582SOL     OW67399   2.039   0.479   6.649  0.0061  0.0016  0.3767
18582SOL    HW167400   2.104   0.448   6.580  0.3496  0.4961  0.4766
18582SOL    HW267401   1.979   0.548   6.610 -1.8632 -1.9670 -0.3380
18583SOL     OW67402   8.672   2.074   7.237  0.5898  0.3941  0.2938
18583SOL    HW167403   8.588   2.127   7.231 -0.2100 -0.8701  0.1307
18583SOL    HW267404   8.735   2.118   7.300 -0.3680  1.1059  0.7652
18584SOL     OW67405   8.648   3.363   0.894  0.6291  0.4594  0.3109
18584SOL    HW167406   8.606   3.453   0.877  2.5455  1.3142 -0.0270
18584SOL    HW267407   8.664   3.317   0.806  2.0517  0.9284  0.3101
18585SOL     OW67408   8.813   2.524   3.839 -0.2853  0.2487 -0.2813
18585SOL    HW167409   8.840   2.522   3.742  0.6020 -1.6398 -0.0127
18585SOL    HW267410   8.849   2.607   3.881  1.2519 -0.0105 -1.0382
18586SOL     OW67411   4.674   6.553   0.135  0.2884  0.1881  0.1882
18586SOL    HW167412   4.669   6.491   0.057  1.8933 -0.9765  1.0018
18586SOL    HW267413   4.744   6.522   0.199 -0.4600  1.5627  1.7284
18587SOL     OW67414   0.194   3.222   7.034  0.1371 -0.1832 -0.1728
18587SOL    HW167415   0.215   3.186   7.126  1.9998 -0.4171 -0.6626
18587SOL    HW267416   0.197   3.322   7.036 -0.6300 -0.1646  0.1991
18588SOL     OW67417   5.066   9.906   6.310 -0.2943 -0.4479  0.2451
18588SOL    HW167418   5.054   9.907   6.211  1.5296  2.2049  0.0121
18588SOL    HW267419   5.035   9.992   6.349  1.6130 -0.3595  1.6281
18589SOL     OW67420   8.816   6.817   1.328  0.3232 -0.7369  0.0831
18589SOL    HW167421   8.717   6.815   1.344  0.4199 -0.4345  0.7293
18589SOL    HW267422   8.834   6.863   1.241 -0.0320  0.6192  0.7089
18590SOL     OW67423   2.036   3.420   0.171 -0.6175  0.1367 -0.0060
18590SOL    HW167424   2.136   3.426   0.169 -0.5591 -0.9625 -0.7380
18590SOL    HW267425   2.006   3.340   0.118 -1.7751 -0.7831  1.9565
18591SOL     OW67426   6.247   2.675   8.162  0.2623 -0.0758 -0.4234
18591SOL    HW167427   6.210   2.673   8.070 -3.5360 -2.9140  1.0539
18591SOL    HW267428   6.315   2.602   8.172  1.8076  1.2034 -1.3575
18592SOL     OW67429   9.788   2.280   3.159 -0.5164 -0.1945 -0.4649
18592SOL    HW167430   9.752   2.206   3.216 -4.3775  1.0257 -1.1487
18592SOL    HW267431   9.726   2.296   3.082  1.5468  2.1098 -1.7160
18593SOL     OW67432   9.898   8.210   5.562  0.0326  0.6139 -0.0635
18593SOL    HW167433   9.800   8.213   5.542 -0.1510 -0.0737  0.6892
18593SOL    HW267434   9.930   8.302   5.584 -0.8765  0.5536  1.6229
18594SOL     OW67435   1.809   8.574   2.691  0.7437 -0.4050  0.2947
18594SOL    HW167436   1.711   8.567   2.709  0.1043  1.8534 -2.1053
18594SOL    HW267437   1.851   8.634   2.759  0.0873  0.3594  0.0217
18595SOL     OW67438   9.447   1.514   2.492  0.0219  0.3450  0.3892
18595SOL    HW167439   9.405   1.588   2.439  1.7314  0.5494 -0.7024
18595SOL    HW267440   9.529   1.549   2.538 -0.1458 -0.4366  1.2934
18596SOL     OW67441   7.802   2.800   1.618  0.1525  0.4704  0.0853
18596SOL    HW167442   7.779   2.836   1.527 -0.7457  1.3324  0.6494
18596SOL    HW267443   7.719   2.794   1.674  0.9139  1.2796  1.3193
18597SOL     OW67444   9.373   4.893   7.764 -0.6118 -0.5208  0.3204
18597SOL    HW167445   9.442   4.947   7.812  0.7286 -2.2680  0.4169
18597SOL    HW267446   9.287   4.895   7.814 -0.6442  1.6860  0.2051
18598SOL     OW67447   3.438   6.331   4.847 -0.0427  0.6558 -0.7376
18598SOL    HW167448   3.365   6.390   4.880  0.0504  0.0211  0.6457
18598SOL    HW267449   3.524   6.381   4.846 -0.4737  1.4030 -2.3629
18599SOL     OW67450   8.564   5.790   0.999 -0.3662 -0.4794  0.0707
18599SOL    HW167451   8.480   5.769   1.049 -1.1299  3.0850  0.4516
18599SOL    HW267452   8.541   5.845   0.918  1.5380  0.0517 -0.1335
18600SOL     OW67453   8.059   2.796   1.928  0.0672  0.3418  0.5025
18600SOL    HW167454   8.000   2.741   1.869  1.6402 -0.3830 -0.4390
18600SOL    HW267455   8.044   2.893   1.909 -0.7028  0.1638  0.1681
18601SOL     OW67456   4.565   4.013   7.803  0.3749  0.4756  0.4526
18601SOL    HW167457   4.519   4.054   7.725  0.2867  0.4439  0.4877
18601SOL    HW267458   4.544   3.915   7.806 -0.0848  0.5864  0.8448
18602SOL     OW67459   7.431   9.719   1.063 -0.2077  0.3906  0.4780
18602SOL    HW167460   7.496   9.743   0.990 -1.3559 -1.2392 -1.1166
18602SOL    HW267461   7.343   9.762   1.045 -1.0350 -1.4818 -0.1397
18603SOL     OW67462   3.662   8.481   7.008  0.3142 -0.0663 -0.5742
18603SOL    HW167463   3.646   8.523   7.098 -0.2983  0.7724 -1.0699
18603SOL    HW267464   3.574   8.468   6.962  0.4295 -2.5202 -0.1605
18604SOL     OW67465   0.195   3.942   6.963  0.3931 -0.2809  0.3347
18604SOL    HW167466   0.234   3.955   6.872 -0.4783  0.2207  0.0256
18604SOL    HW267467   0.096   3.956   6.959  0.2162 -1.2327  1.1685
18605SOL     OW67468   9.507   7.840   7.949  0.0220  0.2988  0.1510
18605SOL    HW167469   9.594   7.877   7.917 -0.0943  0.8100  0.4233
18605SOL    HW267470   9.454   7.805   7.871 -0.7036  2.4677 -0.3541
18606SOL     OW67471   1.178   0.252   0.145 -0.3711  0.2983  0.6624
18606SOL    HW167472   1.136   0.261   0.235 -1.1793  1.1102  0.2215
18606SOL    HW267473   1.244   0.325   0.131 -1.0444  0.8303  0.1881
18607SOL     OW67474   8.670   7.495   4.802  0.3889  0.3576 -0.2677
18607SOL    HW167475   8.695   7.475   4.896  0.0474  0.6561 -0.1131
18607SOL    HW267476   8.753   7.512   4.748  0.6204 -0.3764 -0.1578
18608SOL     OW67477   7.371   3.775   3.139 -0.5879 -0.3175 -0.6216
18608SOL    HW167478   7.366   3.838   3.217 -1.5200 -1.5771  0.3485
18608SOL    HW267479   7.428   3.816   3.068  1.0729  0.4515  1.0867
18609SOL     OW67480   8.554   9.504   6.177  0.0268  0.1969 -0.1817
18609SOL    HW167481   8.482   9.466   6.235  0.8805 -0.7393  0.2687
18609SOL    HW267482   8.590   9.588   6.219 -0.7737  0.6556 -0.3969
18610SOL     OW67483   7.749   1.087   3.577  0.0114 -0.1155  0.4119
18610SOL    HW167484   7.757   1.124   3.669  1.6671  0.7043 -0.0426
18610SOL    HW267485   7.673   1.131   3.530 -0.2545  0.1322  1.0759
18611SOL     OW67486   3.601   7.911   5.988 -0.1202  0.7654  0.0722
18611SOL    HW167487   3.617   7.837   5.923  0.1050  0.3299  0.6247
18611SOL    HW267488   3.629   7.998   5.947  1.0887  0.3515  0.0117
18612SOL     OW67489   1.418   8.552   6.824 -0.1357  0.4484 -0.1578
18612SOL    HW167490   1.347   8.594   6.881 -0.8027 -0.7349 -0.0958
18612SOL    HW267491   1.376   8.509   6.745  0.3583 -1.3724  0.5389
18613SOL     OW67492   9.376   8.252   8.134 -0.5905  0.0690 -0.2327
18613SOL    HW167493   9.466   8.238   8.176 -0.4601 -3.3088 -1.5025
18613SOL    HW267494   9.308   8.270   8.206  0.4085 -1.2371  1.0490
18614SOL     OW67495   8.478   1.769   1.074  0.1045 -0.1700  0.3842
18614SOL    HW167496   8.382   1.788   1.091  0.1286  0.9977 -0.7363
18614SOL    HW267497   8.531   1.790   1.156 -0.5112 -0.2906  0.8194
18615SOL     OW67498   2.527   5.579   0.974  0.3469  0.0422  0.0485
18615SOL    HW167499   2.537   5.480   0.969  1.5294  0.2331 -2.1431
18615SOL    HW267500   2.484   5.613   0.890  0.1850  1.4287  0.6627
18616SOL     OW67501   8.067   3.723   2.588  0.1140 -0.6699  0.1386
18616SOL    HW167502   8.088   3.723   2.686 -0.2830 -0.7825  0.2243
18616SOL    HW267503   7.983   3.776   2.571  0.5916 -0.0187 -0.2321
18617SOL     OW67504   5.491   7.794   4.596 -0.2551  0.4572 -0.1248
18617SOL    HW167505   5.516   7.888   4.571  1.0849  0.3738  0.7955
18617SOL    HW267506   5.541   7.730   4.538  1.2180  0.2907  1.2950
18618SOL     OW67507   8.629   9.738   1.003 -0.3883  0.2473  0.4039
18618SOL    HW167508   8.616   9.831   0.969 -2.1108 -0.3103 -0.5351
18618SOL    HW267509   8.651   9.677   0.927 -3.3295 -0.8446  0.3700
18619SOL     OW67510   3.284   2.558   4.638 -0.0413 -0.3828 -0.3224
18619SOL    HW167511   3.345   2.622   4.687 -1.5929 -0.0009  1.1787
18619SOL    HW267512   3.298   2.568   4.540  0.5401  1.4947 -0.0833
18620SOL     OW67513   2.957   1.802   0.703  0.1237  0.2848 -0.2322
18620SOL    HW167514   3.048   1.808   0.662 -0.7784 -2.5475 -2.8513
18620SOL    HW267515   2.945   1.710   0.742 -1.2154  1.0297  1.1320
18621SOL     OW67516   8.170   6.910   4.002 -0.3821 -0.8542 -0.3179
18621SOL    HW167517   8.180   6.849   4.080 -1.0328  1.2456  1.4449
18621SOL    HW267518   8.133   6.859   3.924 -1.5250 -2.5552  1.3016
18622SOL     OW67519   6.344   8.384   5.167 -0.0944 -0.2399  0.1651
18622SOL    HW167520   6.392   8.471   5.165  0.5063 -0.5452  1.0555
18622SOL    HW267521   6.290   8.378   5.251  0.5555 -1.0857  0.5319
18623SOL     OW67522   6.460   3.461   0.261  0.7370 -0.0773  0.0709
18623SOL    HW167523   6.429   3.552   0.232  0.1746  0.3398  1.9167
18623SOL    HW267524   6.532   3.429   0.199 -1.4579  0.1196 -2.6874
18624SOL     OW67525   6.514   4.489   0.392 -0.5023  0.2942  0.0978
18624SOL    HW167526   6.595   4.489   0.450 -1.3274  0.0402  1.2794
18624SOL    HW267527   6.490   4.583   0.368  0.5250  0.3312 -0.8270
18625SOL     OW67528   5.823   4.758   7.128  0.1776 -0.1202  0.2103
18625SOL    HW167529   5.811   4.774   7.030  0.6102  1.4123  0.3962
18625SOL    HW267530   5.868   4.837   7.169  0.6891 -1.0735  1.5128
18626SOL     OW67531   6.598   7.107   5.292 -1.0827 -0.1166  0.0521
18626SOL    HW167532   6.688   7.114   5.249  0.6510 -0.8213  3.4107
18626SOL    HW267533   6.553   7.023   5.261  0.0980 -0.5903 -0.4083
18627SOL     OW67534   0.316   2.420   1.508  0.2984  0.1499 -0.7398
18627SOL    HW167535   0.249   2.471   1.453  0.9592 -0.4011 -2.0903
18627SOL    HW267536   0.340   2.335   1.460  0.7814 -0.4096  0.4877
18628SOL     OW67537   2.684   7.024   6.317 -0.1644 -0.6057  0.1274
18628SOL    HW167538   2.692   6.952   6.249 -1.9600 -0.5931 -0.1181
18628SOL    HW267539   2.601   7.077   6.301  0.7640  1.1053  0.7124
18629SOL     OW67540   0.470   5.805   6.140 -0.2640 -0.3860 -0.2011
18629SOL    HW167541   0.494   5.878   6.077 -0.5966 -1.1756 -1.2669
18629SOL    HW267542   0.486   5.835   6.234  0.7565  0.6115 -0.6817
18630SOL     OW67543   8.008   6.737   1.089  0.3152  0.2385  0.7043
18630SOL    HW167544   7.947   6.727   1.011 -0.1987  0.3430  1.0921
18630SOL    HW267545   7.986   6.668   1.158  1.9013 -0.9852  0.0323
18631SOL     OW67546   4.964   9.893   1.745 -0.0385  0.2843 -0.0350
18631SOL    HW167547   5.056   9.906   1.707 -0.2693 -2.8575 -1.9145
18631SOL    HW267548   4.897   9.899   1.672 -1.0556 -0.0940  0.8564
18632SOL     OW67549   8.801   0.037   2.516 -0.2102 -0.0804  0.2452
18632SOL    HW167550   8.828  -0.028   2.587 -4.0003 -1.8683  0.2067
18632SOL    HW267551   8.783   0.127   2.557  1.4111 -0.0550  0.9084
18633SOL     OW67552   2.940   0.275   2.304  0.0131 -0.2389 -0.1064
18633SOL    HW167553   2.856   0.314   2.342 -0.6610 -0.1775 -1.6358
18633SOL    HW267554   3.002   0.349   2.279 -0.4331 -0.2103 -1.1301
18634SOL     OW67555   2.015   6.950   5.913  0.0042 -0.2472 -0.6571
18634SOL    HW167556   1.995   6.880   5.845 -0.7705 -0.6091 -0.0632
18634SOL    HW267557   1.930   6.994   5.942  0.5388  1.4036 -1.4945
18635SOL     OW67558   9.533   6.884   3.425 -0.1511  0.1877 -0.2037
18635SOL    HW167559   9.619   6.902   3.377 -1.2395 -0.6953 -2.5533
18635SOL    HW267560   9.513   6.786   3.423 -2.1153  0.5792 -1.3276
18636SOL     OW67561   7.655   9.010   1.876 -0.4784  0.4134 -0.5731
18636SOL    HW167562   7.624   9.048   1.963 -0.1107  1.7152 -1.0038
18636SOL    HW267563   7.745   9.048   1.853 -1.3721  1.5036 -2.4036
18637SOL     OW67564   3.374   3.235   1.671 -0.0231 -0.2732 -1.1009
18637SOL    HW167565   3.403   3.140   1.660 -0.1536 -0.3720 -0.6079
18637SOL    HW267566   3.416   3.273   1.754 -2.0567 -0.7114  0.1502
18638SOL     OW67567   0.826   7.725   5.225  0.1434  0.0838 -0.0741
18638SOL    HW167568   0.842   7.751   5.321 -1.0358  1.4847 -0.2474
18638SOL    HW267569   0.752   7.659   5.220  0.1799  0.0394 -0.0295
18639SOL     OW67570   4.252   3.064   6.954 -0.1693 -0.0253  0.2380
18639SOL    HW167571   4.315   3.094   6.882 -1.0384  0.7243 -0.2079
18639SOL    HW267572   4.298   3.069   7.043  1.2362 -1.8690 -0.3494
18640SOL     OW67573   1.031   8.900   1.917  0.2299  0.0053  0.4705
18640SOL    HW167574   1.097   8.826   1.900  1.3894  1.1469 -0.0275
18640SOL    HW267575   1.025   8.958   1.836 -3.9446 -2.0172 -0.8251
18641SOL     OW67576   9.795   6.344   4.010 -0.2031 -0.2009 -0.8684
18641SOL    HW167577   9.890   6.369   4.028 -0.2678  0.3339 -1.2661
18641SOL    HW267578   9.775   6.257   4.054  0.2007  0.1468  0.0261
18642SOL     OW67579   7.536   4.958   1.157 -0.2129 -0.3637 -0.0292
18642SOL    HW167580   7.615   4.953   1.219 -1.0176  0.6721  1.1086
18642SOL    HW267581   7.544   4.887   1.087  2.8824  1.1398 -1.3076
18643SOL     OW67582   3.832   2.812   1.633 -0.0075 -0.0748  0.0151
18643SOL    HW167583   3.922   2.824   1.592  0.1257 -0.6038  0.1414
18643SOL    HW267584   3.764   2.796   1.561  0.3770 -1.9155  0.0354
18644SOL     OW67585   3.791   5.717   2.793 -0.1751  0.1720  0.1415
18644SOL    HW167586   3.735   5.771   2.731  0.2919  1.3627  0.7557
18644SOL    HW267587   3.887   5.746   2.785  0.1373 -0.8160  0.2029
18645SOL     OW67588   3.170   8.099   5.812 -0.1807 -0.6290 -0.1603
18645SOL    HW167589   3.207   8.170   5.873 -1.3439  0.5041 -0.7629
18645SOL    HW267590   3.227   8.017   5.819 -0.7884 -0.8653  3.1788
18646SOL     OW67591   1.896   2.371   7.756  0.0069 -0.8396  0.2377
18646SOL    HW167592   1.868   2.457   7.799 -0.3572 -0.7921 -0.0915
18646SOL    HW267593   1.924   2.306   7.827  0.4172 -0.3993  0.4772
18647SOL     OW67594   8.408   4.666   0.503  0.1641  0.5986  0.2179
18647SOL    HW167595   8.391   4.647   0.599  1.5355  0.2174  0.3908
18647SOL    HW267596   8.504   4.690   0.490 -0.5199  2.9846 -0.6918
18648SOL     OW67597   0.829   4.283   3.267 -0.2473  0.3359  0.0902
18648SOL    HW167598   0.860   4.322   3.354  0.2068 -0.9358  0.5148
18648SOL    HW267599   0.730   4.273   3.268 -0.2101 -0.0087  0.6123
18649SOL     OW67600   2.537   0.371   3.102  0.0754 -0.2690  0.4691
18649SOL    HW167601   2.476   0.329   3.170 -1.5806 -0.2883 -0.9970
18649SOL    HW267602   2.592   0.442   3.146 -0.0697 -1.1261  2.0849
18650SOL     OW67603   0.072   6.373   0.389 -0.2004  0.1228  0.4124
18650SOL    HW167604   0.155   6.323   0.364 -0.9672 -0.0860 -1.8249
18650SOL    HW267605   0.083   6.470   0.367 -1.5135 -0.3341 -2.5587
18651SOL     OW67606   2.981   6.302   0.440  0.1829  0.2955 -0.0481
18651SOL    HW167607   3.074   6.322   0.410 -0.1103  0.3502 -0.9290
18651SOL    HW267608   2.950   6.217   0.398 -0.2549  0.4001  0.0612
18652SOL     OW67609   2.692   9.569   2.991 -0.0118  0.3905  0.1274
18652SOL    HW167610   2.685   9.658   2.947 -1.4519 -0.7715 -2.1135
18652SOL    HW267611   2.767   9.517   2.949 -1.0131 -0.5076 -0.5718
18653SOL     OW67612   2.464   3.197   6.303  0.4177  0.1494  0.4068
18653SOL    HW167613   2.382   3.215   6.250 -0.3934  1.7197  2.1600
18653SOL    HW267614   2.533   3.266   6.283  0.0452  0.8547  1.4876
18654SOL     OW67615   1.412   4.633   0.061 -0.1910  0.2494 -0.0190
18654SOL    HW167616   1.377   4.722   0.091 -0.8866 -0.3948  1.1141
18654SOL    HW267617   1.354   4.597  -0.011 -1.3574 -0.4165  1.2485
18655SOL     OW67618   3.635   5.693   1.600  0.6749  0.2441  0.0973
18655SOL    HW167619   3.618   5.786   1.634 -1.3144  0.5644 -1.6895
18655SOL    HW267620   3.632   5.629   1.677  2.1571  1.6361  1.3589
18656SOL     OW67621   1.215   7.751   4.119  0.2869  0.4902 -0.0701
18656SOL    HW167622   1.256   7.810   4.188  1.1097  2.4473 -2.1786
18656SOL    HW267623   1.272   7.751   4.037 -1.2270 -0.9431 -1.1491
18657SOL     OW67624   7.913   0.730   4.702  0.5934  0.1213 -0.1116
18657SOL    HW167625   7.989   0.679   4.661  0.1241 -1.2839  0.7465
18657SOL    HW267626   7.842   0.667   4.732 -0.0540  1.2921  0.8691
18658SOL     OW67627   2.844   5.613   6.213  0.0029 -0.0085  0.6291
18658SOL    HW167628   2.819   5.521   6.183 -1.3788  0.1093  1.3804
18658SOL    HW267629   2.778   5.679   6.177  1.7179  0.8669 -0.9871
18659SOL     OW67630   0.532   5.427   0.723 -0.0495  0.0783  0.1159
18659SOL    HW167631   0.487   5.358   0.779 -1.0564  0.4320 -0.2546
18659SOL    HW267632   0.477   5.446   0.642  0.7586  0.5241 -0.3409
18660SOL     OW67633   0.553   8.155   4.096  0.9247  0.5348  0.0448
18660SOL    HW167634   0.501   8.115   4.172  0.7671  0.3131 -0.1763
18660SOL    HW267635   0.612   8.086   4.056 -0.9374 -0.1084 -1.7273
18661SOL     OW67636   0.251   7.980   1.235 -0.0759 -0.2623 -0.4636
18661SOL    HW167637   0.254   7.906   1.301  1.4015  0.6016  0.4396
18661SOL    HW267638   0.155   7.998   1.210 -0.6104 -0.8399  1.1320
18662SOL     OW67639   1.948   6.844   2.181 -0.3081  0.1456 -0.1125
18662SOL    HW167640   1.910   6.933   2.155 -2.7087 -0.7043  0.3355
18662SOL    HW267641   2.024   6.821   2.120 -0.5428  1.8767 -1.0927
18663SOL     OW67642   1.813   5.278   4.698 -0.1118 -0.4477  0.3960
18663SOL    HW167643   1.867   5.208   4.653  0.1456 -0.6905  1.0702
18663SOL    HW267644   1.811   5.360   4.641  1.1377 -0.3647  0.4508
18664SOL     OW67645   3.011   7.071   7.454  0.2265 -0.4275 -0.3496
18664SOL    HW167646   2.963   7.059   7.368  0.4817  0.4164 -0.6168
18664SOL    HW267647   2.952   7.119   7.519  0.3946 -0.1667 -0.3895
18665SOL     OW67648   1.794   3.961   6.626 -0.3315 -0.2344 -0.0737
18665SOL    HW167649   1.700   3.988   6.607 -0.7213 -1.3438  0.2317
18665SOL    HW267650   1.853   3.994   6.553 -0.8963  0.7944 -0.0748
18666SOL     OW67651   7.405   3.791   0.166  0.2560 -0.4243  0.0564
18666SOL    HW167652   7.467   3.861   0.131 -1.2479  1.7578  1.6112
18666SOL    HW267653   7.456   3.727   0.225  1.5318 -0.3628 -0.9539
18667SOL     OW67654   0.659   1.057   7.902 -0.2711 -0.4938  0.3216
18667SOL    HW167655   0.660   1.149   7.942 -0.4740  0.1358 -1.0723
18667SOL    HW267656   0.665   0.989   7.975 -1.4861  0.5937  1.4761
18668SOL     OW67657   2.605   2.760   6.815  0.6636  0.8097  0.6741
18668SOL    HW167658   2.604   2.663   6.789 -1.2037  0.3331  2.4011
18668SOL    HW267659   2.559   2.771   6.903 -1.0977  3.5533 -0.5413
18669SOL     OW67660   8.980   2.847   0.258 -0.5053  0.4750 -0.3064
18669SOL    HW167661   9.048   2.846   0.184  0.6314  1.2122  0.7177
18669SOL    HW267662   8.933   2.935   0.258  0.4988  1.0083  0.7593
18670SOL     OW67663   3.960   7.893   3.791  0.2703 -0.3223 -0.1933
18670SOL    HW167664   3.990   7.978   3.747 -1.0312 -0.9304 -2.3313
18670SOL    HW267665   3.991   7.815   3.737  1.3647 -1.2138  1.7049
18671SOL     OW67666   9.349   7.818   0.243  0.3101  0.3662 -0.8870
18671SOL    HW167667   9.361   7.876   0.162  0.1698  0.7070 -0.6653
18671SOL    HW267668   9.385   7.727   0.225  1.2997  0.7711 -0.9511
18672SOL     OW67669   5.220   8.141   2.636  0.3968 -0.7815 -0.2273
18672SOL    HW167670   5.234   8.042   2.638  0.4995 -0.7727 -0.4201
18672SOL    HW267671   5.288   8.182   2.574  0.3577 -0.5910 -0.1424
18673SOL     OW67672   7.434   7.275   2.386 -0.3217 -0.1438 -0.1346
18673SOL    HW167673   7.483   7.344   2.332  0.4777 -0.6948 -0.1195
18673SOL    HW267674   7.493   7.242   2.459 -0.7092 -0.8392 -0.1339
18674SOL     OW67675   3.682   2.414   3.952  0.4974 -0.0800 -0.8822
18674SOL    HW167676   3.610   2.473   3.989 -0.3661 -1.5857 -0.1307
18674SOL    HW267677   3.770   2.461   3.959 -0.0959  0.9065  0.1957
18675SOL     OW67678   8.963   6.161   7.941 -0.1236  0.3076 -0.0970
18675SOL    HW167679   9.042   6.098   7.940  0.2254  0.7453 -0.3144
18675SOL    HW267680   8.989   6.246   7.988 -0.6714  0.1935  0.4140
18676SOL     OW67681   7.382   4.545   5.699  0.1264 -0.8675  0.3222
18676SOL    HW167682   7.391   4.553   5.599  2.4140 -1.4713  0.4396
18676SOL    HW267683   7.348   4.453   5.721  0.4008 -1.0211  0.1213
18677SOL     OW67684   9.992   9.043   7.981  0.4026 -0.5615  0.8307
18677SOL    HW167685  10.012   9.102   8.059  2.0359  1.2735 -0.9283
18677SOL    HW267686  10.071   9.041   7.919 -0.8054 -2.0941 -0.7258
18678SOL     OW67687   7.732   3.256   1.334 -0.0052 -0.4147 -0.3702
18678SOL    HW167688   7.688   3.335   1.375  1.2505  0.0391  0.1319
18678SOL    HW267689   7.714   3.255   1.236  0.8782  1.1032 -0.5609
18679SOL     OW67690   3.066   2.895   5.236 -0.6401  0.0978 -0.1395
18679SOL    HW167691   3.049   2.933   5.327  2.2433 -0.0537  0.4962
18679SOL    HW267692   3.119   2.811   5.245  1.6881  1.3166 -2.0742
18680SOL     OW67693   1.162   6.069   4.390 -0.5474 -0.2333  0.4845
18680SOL    HW167694   1.090   6.059   4.459 -0.6851 -0.3608  0.3223
18680SOL    HW267695   1.128   6.125   4.314 -0.6977 -0.8548  0.0941
18681SOL     OW67696   8.332   3.961   2.039  0.0725 -0.0824  0.2767
18681SOL    HW167697   8.382   3.937   1.957 -1.1160  0.4622 -0.6201
18681SOL    HW267698   8.376   4.039   2.084  1.1488 -0.8486  0.5844
18682SOL     OW67699   2.475   5.476   4.531  0.6965 -0.5513 -0.1840
18682SOL    HW167700   2.439   5.556   4.579  1.6051 -0.2711  0.0411
18682SOL    HW267701   2.546   5.433   4.586  0.0433 -1.6672 -0.1927
18683SOL     OW67702   0.916   3.924   5.510  0.1114 -0.0122  0.4722
18683SOL    HW167703   0.864   3.984   5.450  1.5150 -0.7854 -1.6173
18683SOL    HW267704   0.958   3.977   5.584  1.6732  1.6945 -1.5591
18684SOL     OW67705   3.579   6.592   4.098  0.7295 -0.1125  0.3372
18684SOL    HW167706   3.583   6.683   4.056  1.4818 -0.2648  0.0742
18684SOL    HW267707   3.652   6.584   4.166  0.7345 -0.5637  0.2781
18685SOL     OW67708   2.700   1.457   3.982  0.2549 -0.1618 -0.7698
18685SOL    HW167709   2.736   1.364   3.986 -0.0195 -0.3073 -1.5593
18685SOL    HW267710   2.663   1.474   3.891 -0.4182  0.4531 -0.3803
18686SOL     OW67711   3.943   4.874   6.373 -0.4511 -0.0668 -0.5446
18686SOL    HW167712   3.954   4.968   6.406  2.3098 -0.1700 -1.0007
18686SOL    HW267713   3.847   4.848   6.375 -1.3145  2.9443 -0.8659
18687SOL     OW67714   2.668   5.290   1.519 -0.2047 -0.0275 -0.2297
18687SOL    HW167715   2.581   5.255   1.552  0.1985 -0.2978  0.5497
18687SOL    HW267716   2.740   5.224   1.537  0.4497  0.9241  0.6807
18688SOL     OW67717   1.888   8.047   2.104  0.5032  0.1330 -0.0879
18688SOL    HW167718   1.919   8.048   2.009 -0.1057 -0.9948 -0.3115
18688SOL    HW267719   1.904   7.956   2.143 -0.1958  0.2829  0.5611
18689SOL     OW67720   3.198   7.386   1.488  0.4806  0.2823 -0.4818
18689SOL    HW167721   3.149   7.362   1.405  0.9129  2.1294 -1.2970
18689SOL    HW267722   3.287   7.425   1.465  1.0913 -0.2339  0.8933
18690SOL     OW67723   8.534   2.993   7.653 -0.6605 -0.3711 -0.0023
18690SOL    HW167724   8.518   2.921   7.721  0.2946 -0.9293 -0.3634
18690SOL    HW267725   8.592   3.064   7.693 -1.8467  0.3759  0.4532
18691SOL     OW67726   9.402   4.962   1.393 -0.5950 -0.0909  0.0455
18691SOL    HW167727   9.430   5.004   1.307 -0.4898  1.4472  0.8096
18691SOL    HW267728   9.470   4.894   1.421  1.0443  1.6832  0.5174
18692SOL     OW67729   7.536   4.423   0.973  1.0111 -0.4558  0.2415
18692SOL    HW167730   7.613   4.376   0.930  1.3141 -0.7410  1.0849
18692SOL    HW267731   7.530   4.397   1.069  0.6809  0.6016  0.5180
18693SOL     OW67732   0.605   4.914   4.830  0.1756  0.3674 -0.4895
18693SOL    HW167733   0.548   4.904   4.748 -2.0689 -0.2890  1.1007
18693SOL    HW267734   0.614   5.011   4.852 -2.5216  0.4054  0.6807
18694SOL     OW67735   6.064   9.929   3.680  0.5400  0.8772  0.0719
18694SOL    HW167736   5.991   9.956   3.743  0.7484  2.5056 -0.3648
18694SOL    HW267737   6.145   9.902   3.732 -0.3649 -0.9933  0.5621
18695SOL     OW67738   0.304   2.323   4.841  0.4179  0.0405  0.0372
18695SOL    HW167739   0.378   2.278   4.792  0.5412  1.4279 -1.0781
18695SOL    HW267740   0.248   2.254   4.888  1.3092 -1.1560 -0.6328
18696SOL     OW67741   2.073   9.455   7.292  0.1306  0.5178  0.0662
18696SOL    HW167742   2.019   9.393   7.234 -0.6387  1.7493 -0.5583
18696SOL    HW267743   2.170   9.435   7.280 -0.0205  0.6715 -1.5887
18697SOL     OW67744   4.799   2.645   6.955 -0.4727  0.2125  0.2608
18697SOL    HW167745   4.840   2.725   6.912  0.5288 -1.2351 -1.5183
18697SOL    HW267746   4.831   2.562   6.910 -0.6334 -1.2756  2.7858
18698SOL     OW67747   4.277   2.538   6.935 -0.2195  0.3100 -0.4775
18698SOL    HW167748   4.243   2.632   6.926 -1.0328 -0.0842 -1.5808
18698SOL    HW267749   4.222   2.477   6.878  2.1713 -0.3746 -2.1273
18699SOL     OW67750   9.135   6.907   7.148  0.4015  0.3152  0.0511
18699SOL    HW167751   9.164   7.003   7.147 -0.7368  0.6669  0.3609
18699SOL    HW267752   9.043   6.900   7.111 -1.4365 -0.0021  4.4429
18700SOL     OW67753   2.708   5.535   7.119  0.1251  0.0162  0.2239
18700SOL    HW167754   2.617   5.536   7.161  0.6008 -0.6622  1.2766
18700SOL    HW267755   2.713   5.607   7.050 -1.9320 -1.3295 -1.3953
18701SOL     OW67756   5.048   3.534   0.005  0.0101  0.5752 -0.3840
18701SOL    HW167757   5.050   3.530   0.105  3.6867  2.3447 -0.2941
18701SOL    HW267758   5.042   3.441  -0.032 -1.1048 -0.1104  1.4807
18702SOL     OW67759   1.425   5.577   5.170  0.1521 -0.6918  0.4237
18702SOL    HW167760   1.466   5.596   5.081 -0.5005  0.3648  0.3382
18702SOL    HW267761   1.336   5.533   5.158  0.5967 -1.6312  0.5777
18703SOL     OW67762   1.315   8.388   1.440  0.4693 -0.1714  0.0753
18703SOL    HW167763   1.330   8.483   1.413  0.8296 -0.3820 -0.4846
18703SOL    HW267764   1.218   8.366   1.433  0.4137  0.0931 -0.0012
18704SOL     OW67765   3.076   5.964   7.877 -0.0649 -0.1580 -0.5057
18704SOL    HW167766   3.118   5.935   7.791 -1.9029 -1.0114 -1.1680
18704SOL    HW267767   3.145   6.003   7.938  1.7288 -1.9640 -1.3329
18705SOL     OW67768   4.269   4.299   3.531  0.1619  0.1892 -0.1267
18705SOL    HW167769   4.289   4.207   3.565  0.7912 -0.5034 -2.3165
18705SOL    HW267770   4.232   4.293   3.438  0.6362  2.1659 -0.4589
18706SOL     OW67771   0.592   3.636   3.970 -0.0463 -0.2723 -0.0635
18706SOL    HW167772   0.566   3.654   3.875  0.4720 -1.1000 -0.3638
18706SOL    HW267773   0.684   3.597   3.973 -0.7575 -1.9548  0.6435
18707SOL     OW67774   7.306   4.210   0.983 -0.8999  0.2550 -0.5604
18707SOL    HW167775   7.268   4.263   0.907 -2.7643 -0.5736 -0.2309
18707SOL    HW267776   7.274   4.115   0.977 -3.3516  0.7931  2.7689
18708SOL     OW67777   7.869   1.431   6.022  0.5707 -0.1874 -0.3731
18708SOL    HW167778   7.778   1.471   6.010  1.0407  0.8233 -0.7108
18708SOL    HW267779   7.920   1.440   5.936  1.5703  0.8046  0.3057
18709SOL     OW67780   9.186   9.606   7.078  0.1354 -0.2926 -0.2625
18709SOL    HW167781   9.279   9.635   7.100  0.4223 -0.8338 -0.7374
18709SOL    HW267782   9.152   9.658   6.999 -0.3303  0.5865  0.5090
18710SOL     OW67783   9.964   7.415   1.550 -0.4323 -0.0509  0.6503
18710SOL    HW167784   9.962   7.318   1.527  0.8947 -0.4796  2.2299
18710SOL    HW267785  10.053   7.453   1.525 -0.7102  0.5934  0.6365
18711SOL     OW67786   7.727   6.486   7.121 -0.0421  0.4220 -0.0573
18711SOL    HW167787   7.711   6.490   7.219 -0.0289  0.1070 -0.0440
18711SOL    HW267788   7.768   6.573   7.091  1.3639 -0.0348  0.4746
18712SOL     OW67789   1.825   3.399   7.448  0.6970  0.3414  0.5899
18712SOL    HW167790   1.915   3.443   7.441  0.8484 -0.2721 -1.7615
18712SOL    HW267791   1.767   3.428   7.372 -0.1065 -1.4397  0.4800
18713SOL     OW67792   9.876   7.219   6.279 -0.5750  0.1762  0.0273
18713SOL    HW167793   9.940   7.240   6.352 -0.3721  0.3547 -0.2018
18713SOL    HW267794   9.783   7.242   6.308 -0.3579  1.3376 -0.2027
18714SOL     OW67795   7.269   7.350   2.855 -0.1324 -0.2915  0.3536
18714SOL    HW167796   7.175   7.336   2.887 -0.4360 -1.8680 -1.1414
18714SOL    HW267797   7.270   7.421   2.785 -0.3360 -0.7050 -0.0800
18715SOL     OW67798   5.017   9.780   5.719  0.2578  0.4933  0.0540
18715SOL    HW167799   5.006   9.758   5.622  0.0774 -0.6467  0.3191
18715SOL    HW267800   4.936   9.827   5.753 -1.0518 -1.9096  0.3918
18716SOL     OW67801   2.350   4.213   6.952  0.0572  0.0987  0.7260
18716SOL    HW167802   2.351   4.113   6.947 -0.1929  0.1517 -0.4201
18716SOL    HW267803   2.269   4.248   6.906  0.5924  0.8747  0.3708
18717SOL     OW67804   8.550   5.098   3.940 -0.1945  0.4978 -0.1350
18717SOL    HW167805   8.640   5.140   3.955  1.3247 -1.5846 -2.8836
18717SOL    HW267806   8.562   5.010   3.895 -3.6470  0.1608 -0.4930
18718SOL     OW67807   7.072   3.751   1.198 -0.2899 -0.0305  0.1107
18718SOL    HW167808   7.008   3.759   1.275 -1.2044 -0.1991 -0.6235
18718SOL    HW267809   7.069   3.658   1.162 -0.1775  0.1634 -0.3997
18719SOL     OW67810   5.885   4.700   0.687 -0.7685 -0.1061  0.1966
18719SOL    HW167811   5.830   4.733   0.611  1.0932 -1.0256 -1.6167
18719SOL    HW267812   5.859   4.606   0.709 -0.2956 -0.3657 -0.3280
18720SOL     OW67813   1.647   5.912   7.825  0.9947  0.1473  0.4563
18720SOL    HW167814   1.673   6.009   7.816  1.4505 -0.0882 -0.8299
18720SOL    HW267815   1.548   5.904   7.818  1.0912  0.3330 -1.2869
18721SOL     OW67816   9.626   4.188   3.831  0.5126  0.6778  0.2192
18721SOL    HW167817   9.594   4.093   3.834 -1.0649  1.1802 -0.0617
18721SOL    HW267818   9.690   4.204   3.906  0.3376 -0.4398  0.6284
18722SOL     OW67819   1.776   2.944   7.889  0.3221  1.1268 -0.6973
18722SOL    HW167820   1.711   3.019   7.879 -1.1131 -0.1708 -1.3531
18722SOL    HW267821   1.861   2.967   7.841 -0.6201  1.7463 -2.1073
18723SOL     OW67822   9.156   6.448   2.381  0.1779  0.2496  0.5534
18723SOL    HW167823   9.253   6.429   2.398  0.0310  0.1173  1.2204
18723SOL    HW267824   9.115   6.489   2.462 -0.1896  0.8475  0.0737
18724SOL     OW67825   8.108   5.223   1.752  0.1474  0.1237 -0.2982
18724SOL    HW167826   8.173   5.167   1.802  1.2737  1.0290 -0.7267
18724SOL    HW267827   8.091   5.308   1.803 -0.0478  0.2670 -0.6011
18725SOL     OW67828   5.682   4.223   1.317 -0.0517 -0.0478  0.3249
18725SOL    HW167829   5.606   4.224   1.382 -2.0890 -0.4406 -2.0121
18725SOL    HW267830   5.654   4.267   1.232  2.5955  0.4608 -0.3146
18726SOL     OW67831   5.598   0.166   1.824  0.5244 -0.1884 -0.2071
18726SOL    HW167832   5.576   0.202   1.914  1.3382 -3.3334  1.3329
18726SOL    HW267833   5.551   0.079   1.811  1.3665 -0.3511 -2.3571
18727SOL     OW67834   7.276   8.214   3.306  0.5183  0.2272  0.1369
18727SOL    HW167835   7.300   8.117   3.318  0.1346  0.1793  0.5018
18727SOL    HW267836   7.327   8.269   3.371  1.1309  0.3283 -0.4165
18728SOL     OW67837   3.299   8.712   0.560  0.5426 -0.8654  0.4304
18728SOL    HW167838   3.373   8.646   0.553  1.0013 -0.3517  0.4345
18728SOL    HW267839   3.211   8.665   0.550  0.9462 -0.9419 -4.1784
18729SOL     OW67840   8.515   9.186   3.687 -0.0011 -0.0574  0.7984
18729SOL    HW167841   8.595   9.182   3.628 -0.8332 -0.1677 -0.3366
18729SOL    HW267842   8.450   9.115   3.661 -0.6594  0.2920  1.4421
18730SOL     OW67843   7.363   1.908   5.915  0.2782  0.7303  0.2486
18730SOL    HW167844   7.460   1.909   5.939  0.5988  1.2978 -1.0387
18730SOL    HW267845   7.329   2.002   5.909  0.1817  0.6068 -1.3611
18731SOL     OW67846   9.408   3.967   1.394 -0.0286 -0.3687  0.0933
18731SOL    HW167847   9.476   3.930   1.330  0.0908 -0.1760  0.1070
18731SOL    HW267848   9.317   3.937   1.367  0.2639 -2.6084  1.4372
18732SOL     OW67849   2.571   2.402   5.701  0.4591  0.6382  0.1354
18732SOL    HW167850   2.502   2.333   5.680  2.1431 -1.8489  2.3711
18732SOL    HW267851   2.542   2.455   5.781  1.4153 -0.8774  1.5080
18733SOL     OW67852   5.899   0.950   0.631 -0.1096  0.7782 -0.5792
18733SOL    HW167853   5.959   0.999   0.694 -0.5724  2.7703 -1.6480
18733SOL    HW267854   5.924   0.974   0.537 -1.4931  0.3127 -1.0702
18734SOL     OW67855   5.231   8.665   6.103  0.4309  0.5435  0.1801
18734SOL    HW167856   5.245   8.740   6.168  2.3510  1.2477 -1.0180
18734SOL    HW267857   5.259   8.695   6.012 -0.9521 -0.8926 -0.7418
18735SOL     OW67858   3.822   7.064   5.320  0.1989 -0.0149 -0.9475
18735SOL    HW167859   3.843   6.972   5.352  0.5701  0.4708  0.2328
18735SOL    HW267860   3.743   7.061   5.259 -0.3483 -0.9849 -0.1995
18736SOL     OW67861   2.341   8.812   3.675  0.0592  0.3271 -0.1113
18736SOL    HW167862   2.323   8.768   3.763  1.2828  0.0310 -0.0094
18736SOL    HW267863   2.274   8.779   3.608  0.6154 -1.3067  0.1012
18737SOL     OW67864   8.308   4.565   1.087  0.3356 -0.5022 -0.5020
18737SOL    HW167865   8.365   4.517   1.154 -1.7664 -0.3866  1.4118
18737SOL    HW267866   8.262   4.499   1.029  0.2925 -0.6835 -0.2619
18738SOL     OW67867   0.684   0.928   0.822  0.6190  0.8804 -0.3007
18738SOL    HW167868   0.778   0.909   0.795  1.2976  4.4309 -0.7334
18738SOL    HW267869   0.677   0.928   0.921  1.2283  1.1389 -0.2529
18739SOL     OW67870   1.374   3.634   8.054  0.2644  0.5286 -0.2822
18739SOL    HW167871   1.392   3.725   8.017 -0.8942  0.5756 -0.7620
18739SOL    HW267872   1.347   3.572   7.980  1.4509 -0.3243 -0.0198
18740SOL     OW67873   5.651   9.613   3.395 -0.7301 -0.1208 -0.0381
18740SOL    HW167874   5.713   9.672   3.448 -1.7377  0.8672  0.0571
18740SOL    HW267875   5.590   9.565   3.458 -1.4006  0.4404 -0.2678
18741SOL     OW67876   1.696   3.365   5.038  0.4889  0.2393 -0.1256
18741SOL    HW167877   1.674   3.430   5.110  0.1751 -1.8710  1.7595
18741SOL    HW267878   1.791   3.378   5.008  1.0773  0.2608  1.6815
18742SOL     OW67879   0.256   0.664   8.162  0.4216 -0.0174 -0.1719
18742SOL    HW167880   0.255   0.573   8.204 -0.1430  0.8782  1.8346
18742SOL    HW267881   0.212   0.660   8.073  0.3541 -1.6943 -0.0834
18743SOL     OW67882   8.527   9.683   1.816 -0.0336  0.0032 -0.3239
18743SOL    HW167883   8.524   9.781   1.796 -0.1795 -0.0984 -0.8154
18743SOL    HW267884   8.601   9.664   1.880  1.4904  0.1186 -2.0314
18744SOL     OW67885   4.155   5.003   1.834 -0.2161 -0.6774  0.2625
18744SOL    HW167886   4.065   4.960   1.826 -0.4588 -0.5094  1.9193
18744SOL    HW267887   4.221   4.953   1.779 -1.5385 -0.1727 -1.8378
18745SOL     OW67888   7.275   1.507   4.197  0.3328 -0.1055 -0.1318
18745SOL    HW167889   7.327   1.580   4.152 -0.7730  0.2696 -0.8422
18745SOL    HW267890   7.311   1.492   4.288  0.3088  1.6555  0.1916
18746SOL     OW67891   0.566   9.338   2.904  0.4187  0.1420  0.6964
18746SOL    HW167892   0.567   9.425   2.855 -2.2642 -0.7529 -1.1068
18746SOL    HW267893   0.530   9.352   2.997 -1.7756  0.7349 -0.2011
18747SOL     OW67894   8.079   2.060   2.675 -0.0643 -0.1203 -0.0822
18747SOL    HW167895   8.020   1.983   2.699 -0.1487  0.0112  0.1391
18747SOL    HW267896   8.133   2.086   2.756 -0.1834  0.1815 -0.0992
18748SOL     OW67897   0.289   6.730   4.916  0.3686 -0.2955  0.3662
18748SOL    HW167898   0.272   6.772   5.005  1.6992 -0.4645  0.7119
18748SOL    HW267899   0.347   6.790   4.861  1.4556 -1.2161  0.4883
18749SOL     OW67900   4.207   1.407   7.277  0.1101 -0.6265 -0.0761
18749SOL    HW167901   4.227   1.311   7.297  1.7692  0.1570  2.2119
18749SOL    HW267902   4.131   1.438   7.333 -0.3944 -0.5648 -0.7802
18750SOL     OW67903   4.534   9.401   1.486 -0.4587  0.3821  0.1059
18750SOL    HW167904   4.489   9.417   1.573  0.2375  1.1139  0.3414
18750SOL    HW267905   4.488   9.453   1.414 -0.2532  0.7862  0.2667
18751SOL     OW67906   4.111   4.859   7.135  0.1508  0.2723 -0.6184
18751SOL    HW167907   4.186   4.904   7.184  0.7726 -0.5583 -0.7820
18751SOL    HW267908   4.149   4.799   7.064 -0.6871  0.2147 -1.0256
18752SOL     OW67909   1.311   8.226   3.019  0.1835 -0.1129 -0.4012
18752SOL    HW167910   1.272   8.284   3.091  0.5123 -2.5154  1.8004
18752SOL    HW267911   1.410   8.238   3.017  0.3984 -1.5121  0.9466
18753SOL     OW67912   4.111   0.577   0.951 -0.4404  0.6277  0.1534
18753SOL    HW167913   4.135   0.575   1.048 -2.5764 -0.3095  0.6839
18753SOL    HW267914   4.054   0.657   0.932 -1.2661  0.0026 -0.0176
18754SOL     OW67915   2.545   4.506   6.736  0.0091 -0.2365 -0.6486
18754SOL    HW167916   2.500   4.531   6.650  2.0981 -0.3392 -1.7955
18754SOL    HW267917   2.643   4.494   6.720  0.4126 -0.3178  1.7445
18755SOL     OW67918   2.041   3.818   1.934  0.0674  0.3064  0.1669
18755SOL    HW167919   2.129   3.783   1.904 -0.1250  0.0369 -0.0943
18755SOL    HW267920   2.043   3.917   1.939  0.9595  0.2099  1.9646
18756SOL     OW67921   5.655   7.812   2.539  0.0207  0.3822  0.3052
18756SOL    HW167922   5.643   7.910   2.522 -0.0969  0.1024 -1.3431
18756SOL    HW267923   5.597   7.761   2.476 -0.0338 -0.7567  1.2624
18757SOL     OW67924   0.845   9.397   4.948  0.0201 -0.3377 -0.4869
18757SOL    HW167925   0.778   9.448   4.894  1.1181  0.0829 -1.4642
18757SOL    HW267926   0.930   9.389   4.897  0.5051 -1.4553  0.4731
18758SOL     OW67927   0.992   5.675   7.950  0.0682  0.1744  0.7783
18758SOL    HW167928   1.005   5.675   7.850 -0.5168  0.3212  0.7033
18758SOL    HW267929   0.939   5.594   7.976  2.4000 -1.2538  1.2575
18759SOL     OW67930   2.649   6.437   6.717  0.2032  0.5239 -0.8078
18759SOL    HW167931   2.622   6.531   6.737  0.0191  0.5215 -1.0436
18759SOL    HW267932   2.747   6.425   6.736  0.0953  0.5956 -0.1832
18760SOL     OW67933   8.848   6.597   7.238 -0.5103 -0.1154  0.6319
18760SOL    HW167934   8.821   6.501   7.231  1.7252 -0.8956  2.3622
18760SOL    HW267935   8.886   6.615   7.329  0.5238  2.0416 -0.1859
18761SOL     OW67936   2.402   8.871   5.554 -0.3398 -0.2150  0.3210
18761SOL    HW167937   2.490   8.864   5.508 -0.4499  0.6222 -0.0231
18761SOL    HW267938   2.416   8.907   5.647 -0.3087 -0.2114  0.3144
18762SOL     OW67939   7.755   9.378   3.032 -0.1958  0.1389 -0.0866
18762SOL    HW167940   7.779   9.287   2.999  0.5741 -0.2729  1.5499
18762SOL    HW267941   7.656   9.389   3.029 -0.6244 -2.0753  2.8909
18763SOL     OW67942   4.864   9.418   4.357 -0.1300 -0.2977 -0.0029
18763SOL    HW167943   4.804   9.443   4.433  1.0786  3.1973 -0.1357
18763SOL    HW267944   4.848   9.480   4.281  2.3703 -0.5020 -0.7162
18764SOL     OW67945   6.674   8.031   2.547  0.1454  0.0433  0.1550
18764SOL    HW167946   6.679   8.122   2.588  1.0247  0.7449 -1.4633
18764SOL    HW267947   6.755   8.015   2.490 -1.3662 -0.5996 -1.8933
18765SOL     OW67948   3.176   6.770   8.188 -0.2836 -0.2204  0.3854
18765SOL    HW167949   3.271   6.765   8.156  0.2413  1.5975  1.5560
18765SOL    HW267950   3.117   6.794   8.111  0.4498  0.3680 -0.0049
18766SOL     OW67951   6.467   3.938   1.687  0.3989  0.5103  0.0735
18766SOL    HW167952   6.390   3.874   1.698  0.8189  0.1900  1.2170
18766SOL    HW267953   6.434   4.032   1.695  0.1565  0.3680  0.7935
18767SOL     OW67954   9.385   2.985   2.969  0.8509 -0.1810 -0.4721
18767SOL    HW167955   9.449   3.009   2.896  0.0853  0.0788 -1.0632
18767SOL    HW267956   9.413   2.898   3.011  0.4855 -1.0705 -2.0373
18768SOL     OW67957   4.764   7.982   0.694 -0.3389 -0.4055 -0.4470
18768SOL    HW167958   4.846   8.031   0.724 -0.0650  0.2205 -2.1517
18768SOL    HW267959   4.729   7.926   0.769  0.8491  0.3927  0.7254
18769SOL     OW67960   7.384   5.956   5.724 -0.0963 -0.3662 -0.1986
18769SOL    HW167961   7.408   6.010   5.644  0.4198  0.7107  0.6676
18769SOL    HW267962   7.290   5.975   5.751  0.4160  0.9039  0.7252
18770SOL     OW67963   1.045   2.391   3.801  0.0523 -0.2014 -0.2491
18770SOL    HW167964   1.009   2.472   3.848  0.7940 -0.7774  1.3563
18770SOL    HW267965   1.048   2.314   3.865  0.0954 -1.2958 -1.5489
18771SOL     OW67966   2.595   5.993   2.607  0.3703  0.1462  0.4739
18771SOL    HW167967   2.515   6.012   2.664  0.2928  1.3075 -0.0088
18771SOL    HW267968   2.571   5.926   2.537  0.0130 -0.0467  0.7802
18772SOL     OW67969   9.898   8.144   6.811  0.0450  0.1543  0.0024
18772SOL    HW167970   9.814   8.090   6.814  1.7380 -2.6436 -1.2645
18772SOL    HW267971   9.965   8.105   6.875  1.2460  0.8477 -0.8199
18773SOL     OW67972   9.971   0.965   4.873  0.1463  0.4543  0.1666
18773SOL    HW167973   9.915   0.937   4.952  0.5035 -0.3634  0.1421
18773SOL    HW267974   9.991   1.062   4.879 -1.9205  0.9283 -0.2274
18774SOL     OW67975   3.121   2.428   3.581 -0.0598  0.4254 -0.8402
18774SOL    HW167976   3.101   2.516   3.623  0.2137  0.3036 -0.4552
18774SOL    HW267977   3.042   2.367   3.593 -0.9383  1.1744 -2.6184
18775SOL     OW67978   0.074   6.065   2.057  0.0145 -0.5134 -0.1971
18775SOL    HW167979  -0.012   6.035   2.098  0.1922 -0.5800  0.1256
18775SOL    HW267980   0.148   6.003   2.085  0.0701 -0.7774 -0.9140
18776SOL     OW67981   3.755   5.295   4.217  0.1204 -0.2397 -0.4901
18776SOL    HW167982   3.854   5.298   4.211  0.1575 -1.3921 -0.5592
18776SOL    HW267983   3.724   5.351   4.295  0.7961  0.3215 -0.6251
18777SOL     OW67984   3.731   7.218   5.520 -0.1769 -0.6121  0.2080
18777SOL    HW167985   3.763   7.153   5.452 -0.0539 -0.1390 -0.1855
18777SOL    HW267986   3.642   7.255   5.491 -1.2683 -2.1720  1.4517
18778SOL     OW67987   8.624   7.558   1.442 -0.2106  0.4980  0.0121
18778SOL    HW167988   8.590   7.624   1.509  0.4722 -2.1667  3.1089
18778SOL    HW267989   8.724   7.553   1.448 -0.1057  0.6311 -1.5987
18779SOL     OW67990   2.771   1.210   0.166  0.1584  0.0768  0.1011
18779SOL    HW167991   2.779   1.283   0.098  2.2184  0.2680  0.4983
18779SOL    HW267992   2.733   1.247   0.251 -2.6089 -0.2066 -0.9716
18780SOL     OW67993   1.914   7.138   5.388 -0.0227 -0.0244 -0.3562
18780SOL    HW167994   1.871   7.203   5.452 -1.5694 -1.0955 -0.2740
18780SOL    HW267995   1.991   7.094   5.433  0.7534  1.4021 -0.2532
18781SOL     OW67996   8.332   5.319   0.333  0.2697 -0.2553  0.2067
18781SOL    HW167997   8.329   5.219   0.338  1.9138 -0.3641 -0.9345
18781SOL    HW267998   8.426   5.351   0.345  0.8251  0.7763 -5.4571
18782SOL     OW67999   4.770   8.391   5.000 -0.2506  0.3714  0.0979
18782SOL    HW168000   4.858   8.343   5.002  0.1129  0.5802 -4.4191
18782SOL    HW268001   4.787   8.490   4.995 -0.7465  0.4363 -0.3168
18783SOL     OW68002   4.312   2.813   6.238 -0.3412 -0.0235 -0.0229
18783SOL    HW168003   4.347   2.899   6.274 -1.1513 -0.6212  2.3338
18783SOL    HW268004   4.387   2.750   6.221  0.0961  0.4179  0.2745
18784SOL     OW68005   5.321   8.796   2.346 -0.4960 -0.3875  0.1687
18784SOL    HW168006   5.241   8.835   2.299  0.1146  0.4460 -0.1838
18784SOL    HW268007   5.310   8.697   2.355 -0.5235 -0.5750 -1.8960
18785SOL     OW68008   0.753   3.020   7.061 -0.3024  0.2078  0.7988
18785SOL    HW168009   0.697   2.960   7.004 -0.1050  1.9635 -1.2838
18785SOL    HW268010   0.843   2.977   7.075 -1.0082 -1.1106  1.4246
18786SOL     OW68011   9.766   5.530   7.392  0.2512 -0.0501  0.1500
18786SOL    HW168012   9.792   5.441   7.355 -2.0413 -0.5304 -0.3816
18786SOL    HW268013   9.716   5.582   7.323  0.1313  0.9825  1.0016
18787SOL     OW68014   0.441   8.115   2.349  0.1512  0.0566 -1.0562
18787SOL    HW168015   0.348   8.092   2.380  0.6428 -1.6974 -0.8526
18787SOL    HW268016   0.500   8.126   2.428  0.1394  1.1222 -1.1898
18788SOL     OW68017   1.404   8.333   2.395 -0.3701  0.0049 -0.6315
18788SOL    HW168018   1.499   8.305   2.411 -0.2762 -0.5054 -2.0828
18788SOL    HW268019   1.343   8.265   2.436 -0.1267  0.6671  0.8798
18789SOL     OW68020   4.348   8.117   3.702 -0.0522  0.5341  0.1585
18789SOL    HW168021   4.297   8.197   3.735 -1.2344 -0.0507 -0.2141
18789SOL    HW268022   4.444   8.127   3.726 -0.3334  1.6681  0.8728
18790SOL     OW68023   6.195   4.683   0.399 -0.1671  0.0398  0.0760
18790SOL    HW168024   6.215   4.683   0.301  2.1443  2.3052  0.4821
18790SOL    HW268025   6.201   4.590   0.434  2.7236 -0.3713 -1.2990
18791SOL     OW68026   2.236   6.673   7.673  0.0837 -0.1289  0.1195
18791SOL    HW168027   2.291   6.752   7.699  2.0124 -1.3253 -0.2461
18791SOL    HW268028   2.219   6.616   7.753 -0.5725  0.2218  0.2247
18792SOL     OW68029   8.792   8.985   7.509  0.0997  0.2156  0.7878
18792SOL    HW168030   8.773   8.887   7.515  1.5516 -0.2041 -0.8218
18792SOL    HW268031   8.884   9.003   7.543  0.7727  0.6262 -1.1428
18793SOL     OW68032   7.562   4.198   1.594  0.4919 -0.3221 -0.2847
18793SOL    HW168033   7.617   4.264   1.542  1.1370 -0.8600 -0.2824
18793SOL    HW268034   7.595   4.106   1.577  0.0674 -0.5850  0.3032
18794SOL     OW68035   2.487   6.199   5.301  0.4482  0.2574 -0.4953
18794SOL    HW168036   2.501   6.104   5.331 -3.2213 -0.6765 -1.4948
18794SOL    HW268037   2.517   6.208   5.206  1.9410  0.4276 -0.0172
18795SOL     OW68038   8.736   6.912   3.508 -0.1136 -0.3453 -0.5121
18795SOL    HW168039   8.782   6.967   3.578  1.1055 -1.2444 -0.5891
18795SOL    HW268040   8.734   6.817   3.538  0.0708 -0.6711 -1.5250
18796SOL     OW68041   9.333   1.118   2.979 -0.7110 -0.2167 -0.1070
18796SOL    HW168042   9.318   1.098   2.882  0.1724 -1.9337  0.0942
18796SOL    HW268043   9.337   1.032   3.030 -1.4352  0.6833  1.5051
18797SOL     OW68044   0.327   9.748   5.778 -0.5336  0.2139 -0.0505
18797SOL    HW168045   0.260   9.784   5.843  0.5204  0.4773  0.8975
18797SOL    HW268046   0.397   9.818   5.761  1.7391 -1.4652  2.0724
18798SOL     OW68047   9.543   2.882   6.182 -0.1878  0.3714 -0.0610
18798SOL    HW168048   9.493   2.915   6.102 -0.3236 -0.7407 -0.4457
18798SOL    HW268049   9.479   2.861   6.256 -0.2119 -0.1375 -0.2229
18799SOL     OW68050   7.632   8.782   2.114 -0.1127 -0.5903 -0.2418
18799SOL    HW168051   7.559   8.820   2.056 -1.6293 -1.7529  0.8790
18799SOL    HW268052   7.667   8.854   2.174  0.7904  0.3759 -1.8889
18800SOL     OW68053   5.155   3.309   7.636 -0.3613 -0.4266 -0.1423
18800SOL    HW168054   5.182   3.228   7.688 -2.0496 -2.4023 -2.2512
18800SOL    HW268055   5.235   3.349   7.591  0.6599 -0.2339  1.7819
18801SOL     OW68056   0.962   3.916   3.854 -0.3018  0.2728 -0.2449
18801SOL    HW168057   1.050   3.963   3.861  0.6379 -1.2735 -1.3247
18801SOL    HW268058   0.900   3.971   3.798  0.0054  1.3443  0.4683
18802SOL     OW68059   3.138   3.470   5.596  0.4854  0.9392  0.3987
18802SOL    HW168060   3.204   3.477   5.671  0.9880  2.2292 -0.1555
18802SOL    HW268061   3.053   3.516   5.623  0.0961  0.0029  0.7896
18803SOL     OW68062   3.632   9.041   8.027 -0.6998 -0.3501  0.3767
18803SOL    HW168063   3.720   9.002   8.054 -0.5411  0.7171  1.4093
18803SOL    HW268064   3.647   9.117   7.963 -0.9290 -0.7933 -0.2174
18804SOL     OW68065   5.587   9.874   5.394  0.3577  0.1150  0.3681
18804SOL    HW168066   5.563   9.959   5.441  0.0624  0.1478  0.1541
18804SOL    HW268067   5.686   9.871   5.382  0.3390  0.5842  0.0769
18805SOL     OW68068   2.965   0.918   7.126 -0.2043  0.1076 -0.8293
18805SOL    HW168069   3.011   0.862   7.196 -0.7463 -1.6849 -1.8539
18805SOL    HW268070   2.991   1.014   7.138  1.1987 -0.4149  0.6477
18806SOL     OW68071   1.093   6.722   4.202  0.1593  0.3476 -0.2830
18806SOL    HW168072   1.041   6.807   4.197  0.7305  0.5981 -2.1191
18806SOL    HW268073   1.190   6.743   4.212  0.2180 -0.1012  0.0958
18807SOL     OW68074   3.277   2.424   0.485 -0.0417 -0.4834  0.2316
18807SOL    HW168075   3.339   2.418   0.563 -1.6941 -0.6335  1.5680
18807SOL    HW268076   3.236   2.335   0.468  0.0738 -0.3786 -0.6136
18808SOL     OW68077   8.085   3.681   5.543  0.1089  0.4553  0.0381
18808SOL    HW168078   8.094   3.615   5.469  0.0058 -0.3025  0.6903
18808SOL    HW268079   8.065   3.772   5.506  2.4673  0.5757 -0.9948
18809SOL     OW68080   9.020   4.107   3.251 -0.1190 -0.1097 -0.3385
18809SOL    HW168081   9.082   4.182   3.228 -0.4182  0.3070  0.2214
18809SOL    HW268082   8.931   4.122   3.209 -0.3948  0.2111  0.3417
18810SOL     OW68083   6.976   5.687   7.984 -0.1273  0.3534 -0.7480
18810SOL    HW168084   7.025   5.774   7.989 -0.1108  0.3100 -0.1476
18810SOL    HW268085   7.020   5.628   7.916  1.2288 -0.0441  0.4573
18811SOL     OW68086   8.400   6.029   0.223  0.1747 -0.3617 -0.1425
18811SOL    HW168087   8.394   6.052   0.126  0.4877 -1.4249 -0.4182
18811SOL    HW268088   8.422   5.932   0.233 -2.3335 -0.8488  1.0024
18812SOL     OW68089   3.173   6.137   1.209 -0.2190  0.1331  0.2940
18812SOL    HW168090   3.191   6.075   1.133  0.6669  0.8701 -0.1005
18812SOL    HW268091   3.129   6.220   1.175  1.1695  0.9365  0.4228
18813SOL     OW68092   1.382   5.979   4.540 -0.2030  0.0850  0.1756
18813SOL    HW168093   1.309   6.013   4.481  0.3872 -0.4609 -0.8948
18813SOL    HW268094   1.384   6.031   4.625 -0.5222  1.4369 -0.6379
18814SOL     OW68095   1.768   4.372   5.507  0.4405 -0.2833 -0.3390
18814SOL    HW168096   1.846   4.316   5.534  0.6201  0.1863  0.1420
18814SOL    HW268097   1.792   4.469   5.518 -0.1652 -0.1334 -0.3210
18815SOL     OW68098   4.082   8.056   6.871 -0.1439  0.0073 -0.0851
18815SOL    HW168099   4.150   8.028   6.803  0.2194  1.3771 -0.2977
18815SOL    HW268100   4.000   8.090   6.824 -1.7609 -3.4123  0.1541
18816SOL     OW68101   1.961   3.839   0.682  0.3471  0.4150  0.5987
18816SOL    HW168102   1.980   3.901   0.606  1.4795  0.5022  0.9448
18816SOL    HW268103   1.932   3.750   0.646  2.8872 -0.2088 -0.0111
18817SOL     OW68104   1.530   1.035   2.067  0.2429  0.3746  0.0943
18817SOL    HW168105   1.523   0.962   2.135  0.2048  1.8221  1.6751
18817SOL    HW268106   1.438   1.059   2.035  0.3405 -1.0938 -1.3506
18818SOL     OW68107   9.443   9.263   4.839  0.3210 -0.2153  0.8654
18818SOL    HW168108   9.423   9.176   4.794  0.0099  0.1929  0.2182
18818SOL    HW268109   9.530   9.255   4.889 -0.8114 -1.5886  2.6576
18819SOL     OW68110   1.457   9.132   5.040 -0.2791  0.5007 -0.8860
18819SOL    HW168111   1.469   9.041   5.081  3.2469  1.8009  1.1852
18819SOL    HW268112   1.361   9.159   5.047 -0.5737 -1.1223  2.8104
18820SOL     OW68113   0.545   1.319   7.252 -0.0813 -0.3046  0.5026
18820SOL    HW168114   0.566   1.255   7.179 -0.4893  1.4855 -1.2202
18820SOL    HW268115   0.482   1.275   7.317  0.2049 -1.8805 -0.2489
18821SOL     OW68116   8.383   3.266   0.246 -0.3499  0.3236  0.4371
18821SOL    HW168117   8.286   3.249   0.228  0.1273 -0.3198 -1.6350
18821SOL    HW268118   8.436   3.249   0.163  1.5284  0.8308  1.5025
18822SOL     OW68119   3.791   9.605   0.565  0.6549  0.4199  0.4958
18822SOL    HW168120   3.860   9.591   0.494  1.7121  2.3298  1.1062
18822SOL    HW268121   3.709   9.644   0.525  0.9774  0.8084  0.2082
18823SOL     OW68122   1.522   6.334   2.532  0.0051  0.2369  0.2443
18823SOL    HW168123   1.610   6.297   2.503  0.4840  0.3094  1.6065
18823SOL    HW268124   1.513   6.325   2.631 -1.9726 -0.7533  0.0047
18824SOL     OW68125   8.816   1.881   4.072  0.6348 -0.0479  0.5638
18824SOL    HW168126   8.834   1.798   4.124 -2.1199 -1.1288 -0.1152
18824SOL    HW268127   8.892   1.899   4.009  1.3238 -1.9450  0.8420
18825SOL     OW68128   8.186   4.155   4.777  0.1784  0.2290  0.5436
18825SOL    HW168129   8.092   4.121   4.777  0.3540 -0.2991  2.5258
18825SOL    HW268130   8.245   4.091   4.827  1.5053  0.8044 -0.2583
18826SOL     OW68131   3.479   4.738   6.296  0.4067  0.4200  0.3880
18826SOL    HW168132   3.480   4.719   6.394 -0.2196  1.2894  0.5651
18826SOL    HW268133   3.386   4.760   6.267  0.1564 -2.0966 -0.8493
18827SOL     OW68134   7.401   5.259   3.102  0.8320 -0.5836 -0.1997
18827SOL    HW168135   7.340   5.319   3.153  0.2544  1.3745 -3.0719
18827SOL    HW268136   7.485   5.243   3.155 -0.3453  0.1652  1.9400
18828SOL     OW68137   6.448   5.728   0.447  0.3699 -0.2644 -0.1825
18828SOL    HW168138   6.458   5.692   0.355  0.6940  0.0361 -0.2664
18828SOL    HW268139   6.529   5.704   0.501  0.1027 -0.5899  0.0739
18829SOL     OW68140   2.483   5.713   0.258 -0.4194  0.9997 -0.1457
18829SOL    HW168141   2.442   5.744   0.344 -1.1795 -1.6304  0.4802
18829SOL    HW268142   2.570   5.668   0.278  0.0609  1.5808 -0.9107
18830SOL     OW68143   6.665   9.413   4.819 -0.4280 -0.1830  0.0516
18830SOL    HW168144   6.690   9.438   4.913  0.5944 -1.4468  0.1360
18830SOL    HW268145   6.652   9.314   4.813 -2.7031  0.1313 -0.6526
18831SOL     OW68146   2.123   3.800   4.138  0.4521 -0.0840  0.2059
18831SOL    HW168147   2.202   3.744   4.161  1.5890  1.4673  0.1790
18831SOL    HW268148   2.103   3.862   4.214 -0.7424 -0.4781  0.2159
18832SOL     OW68149   0.146   5.534   4.345  0.6677 -0.5345 -0.1663
18832SOL    HW168150   0.099   5.447   4.332 -2.5851  0.5570  3.5175
18832SOL    HW268151   0.215   5.524   4.417 -0.0809  0.0854  0.6310
18833SOL     OW68152   8.784   7.032   2.824 -0.1099  0.4464 -0.4447
18833SOL    HW168153   8.825   6.941   2.832 -0.5595  0.3383  0.7141
18833SOL    HW268154   8.843   7.090   2.768  0.4318 -0.4073 -0.7717
18834SOL     OW68155   8.107   5.326   2.775 -0.5727  0.1961  0.1682
18834SOL    HW168156   8.069   5.397   2.834  3.0902  0.7660  1.9826
18834SOL    HW268157   8.094   5.236   2.818  0.4906  0.4283  0.9797
18835SOL     OW68158   2.064   6.219   4.596 -0.0853 -0.1491  0.5061
18835SOL    HW168159   2.087   6.147   4.531  2.1098  0.5792  0.4451
18835SOL    HW268160   1.966   6.216   4.616 -0.3182 -2.0176 -0.8364
18836SOL     OW68161   9.375   7.799   4.757 -0.0581 -0.1359  0.1605
18836SOL    HW168162   9.352   7.859   4.833  1.1208  0.7654 -0.1869
18836SOL    HW268163   9.318   7.823   4.677  1.6783  1.7718 -0.5499
18837SOL     OW68164   0.385   7.641   1.891  0.0167 -0.0068 -0.0210
18837SOL    HW168165   0.318   7.715   1.905  1.8001  1.6365 -0.0303
18837SOL    HW268166   0.365   7.567   1.955 -2.7572 -0.2411 -1.0781
18838SOL     OW68167   9.356   2.963   0.923  0.4832 -0.2331 -0.0042
18838SOL    HW168168   9.413   2.941   1.002  0.7262  0.5566  0.0476
18838SOL    HW268169   9.259   2.948   0.946  0.5633 -0.1478  0.4006
18839SOL     OW68170   0.089   0.910   0.283 -0.1518 -0.3054 -0.0040
18839SOL    HW168171   0.058   0.956   0.367  0.9680  0.5564 -0.0599
18839SOL    HW268172   0.126   0.820   0.307  0.7700  0.2057  0.5155
18840SOL     OW68173   7.573   5.371   8.148  0.5693 -0.1026  0.2965
18840SOL    HW168174   7.577   5.279   8.109  0.2150  0.3141 -0.7561
18840SOL    HW268175   7.506   5.425   8.098  1.6464  1.1008  0.1261
18841SOL     OW68176   3.266   8.987   1.212  0.2054  0.3175 -0.4877
18841SOL    HW168177   3.168   9.000   1.198  0.1391 -0.2529 -0.5643
18841SOL    HW268178   3.290   8.893   1.191  0.6708  0.3050  0.1079
18842SOL     OW68179   9.679   9.401   3.255  0.3671 -0.1528  0.1890
18842SOL    HW168180   9.672   9.310   3.296  1.4464  0.8446  2.6620
18842SOL    HW268181   9.758   9.405   3.194  0.4190 -0.7903  0.2111
18843SOL     OW68182   4.139   4.183   4.060 -0.1448  0.5200  0.0758
18843SOL    HW168183   4.114   4.152   4.152 -0.0370  0.2128  0.0025
18843SOL    HW268184   4.213   4.250   4.066 -0.1290  0.4903  0.2147
18844SOL     OW68185   5.072   5.107   2.067 -0.4387 -0.3057  0.0845
18844SOL    HW168186   5.021   5.193   2.057 -1.4950 -0.8966  0.2952
18844SOL    HW268187   5.118   5.086   1.981  2.5080  2.1288  0.9764
18845SOL     OW68188   6.934   8.516   2.578 -0.4605  0.3207  0.2223
18845SOL    HW168189   6.864   8.578   2.611 -0.7914 -0.3129  0.7316
18845SOL    HW268190   7.017   8.567   2.555 -0.7142  0.9356  0.6840
18846SOL     OW68191   2.259   3.990   7.581 -0.5710 -0.2651  0.7115
18846SOL    HW168192   2.259   3.943   7.492  1.0155  1.1755 -0.0843
18846SOL    HW268193   2.199   4.070   7.575 -0.0051  0.1603  0.7601
18847SOL     OW68194   0.446   3.975   6.081 -0.4229 -0.1157 -0.3601
18847SOL    HW168195   0.481   4.045   6.018 -1.3250 -0.0845 -0.8379
18847SOL    HW268196   0.508   3.897   6.081  0.9378  0.9328  0.6643
18848SOL     OW68197   1.294   7.508   4.808  0.1583 -0.0731  0.0574
18848SOL    HW168198   1.370   7.452   4.842 -0.8230 -1.8541 -0.5939
18848SOL    HW268199   1.217   7.448   4.783 -1.3396  1.6581  0.3862
18849SOL     OW68200   7.629   2.547   4.162  0.3169  0.2987  0.2182
18849SOL    HW168201   7.549   2.566   4.218 -0.7086  0.0595 -1.1477
18849SOL    HW268202   7.649   2.626   4.103  0.2376 -0.1707 -0.4489
18850SOL     OW68203   8.080   3.697   3.314 -0.5485 -0.0616 -0.1538
18850SOL    HW168204   8.109   3.781   3.269  1.2007 -1.2808 -1.3875
18850SOL    HW268205   8.023   3.644   3.251 -0.8120 -0.2768  0.2602
18851SOL     OW68206   1.499   3.620   1.970 -0.4030 -0.2826 -0.4252
18851SOL    HW168207   1.481   3.700   1.913 -0.1818 -0.6500 -1.0114
18851SOL    HW268208   1.550   3.649   2.051 -0.4042  0.1842 -0.5855
18852SOL     OW68209   9.002   1.882   7.800 -0.2934  0.0270  0.0954
18852SOL    HW168210   9.023   1.789   7.772 -3.1295 -0.5568 -0.2550
18852SOL    HW268211   8.952   1.880   7.887 -0.7716  1.1880 -0.1444
18853SOL     OW68212   8.380   3.746   4.394 -0.2309 -0.1993 -0.6922
18853SOL    HW168213   8.287   3.736   4.357  0.4031  0.3670 -2.5064
18853SOL    HW268214   8.439   3.788   4.325  1.9335 -2.6092 -0.3679
18854SOL     OW68215   4.748   0.412   4.859  0.0577  0.0588  0.4317
18854SOL    HW168216   4.716   0.334   4.806  0.5797 -0.1211  0.3742
18854SOL    HW268217   4.671   0.470   4.883 -0.3697 -0.6301  0.7327
18855SOL     OW68218   0.020   0.582   1.252 -0.4789  0.0416 -0.6242
18855SOL    HW168219  -0.052   0.519   1.281 -0.3743  0.4476  0.5383
18855SOL    HW268220   0.104   0.531   1.234 -0.6200 -0.2475 -0.4616
18856SOL     OW68221   8.561   2.736   2.575 -0.5855 -0.4464  0.5376
18856SOL    HW168222   8.658   2.739   2.595 -0.2490 -0.1515 -1.0468
18856SOL    HW268223   8.545   2.766   2.480 -2.0791 -1.6345  0.3844
18857SOL     OW68224   1.136   0.132   5.868  0.7976  0.1099 -0.4671
18857SOL    HW168225   1.090   0.048   5.840 -1.3485  0.7026  1.0288
18857SOL    HW268226   1.091   0.210   5.824  0.8082  0.6551  0.4729
18858SOL     OW68227   8.299   8.365   6.667 -0.3342 -0.0628 -0.3800
18858SOL    HW168228   8.313   8.271   6.635  2.7761 -0.5241  2.0856
18858SOL    HW268229   8.274   8.423   6.590  0.9416 -2.2632 -2.5358
18859SOL     OW68230   0.823   0.867   1.123 -0.5362  0.2049  0.1243
18859SOL    HW168231   0.885   0.936   1.085 -0.3736  1.5224  2.6173
18859SOL    HW268232   0.871   0.780   1.132  0.0274  0.4232 -0.7335
18860SOL     OW68233   4.248   1.292   0.751 -0.3395 -0.0371  0.3017
18860SOL    HW168234   4.253   1.292   0.651 -1.7525  0.5583  0.2106
18860SOL    HW268235   4.273   1.202   0.786 -0.4482 -0.4382 -0.6359
18861SOL     OW68236   3.007   3.896   2.509 -0.0644 -0.6040 -0.1652
18861SOL    HW168237   3.059   3.843   2.442 -0.6623 -1.9528  0.3998
18861SOL    HW268238   3.066   3.964   2.552  0.8500 -1.1220 -0.5975
18862SOL     OW68239   6.603   3.013   2.216 -0.1021  0.2077 -0.1554
18862SOL    HW168240   6.612   2.914   2.226 -0.1170  0.1422 -0.7661
18862SOL    HW268241   6.680   3.058   2.262 -0.2142 -0.0783  0.3124
18863SOL     OW68242   3.809   0.317   4.237  0.4128  0.3303  0.1161
18863SOL    HW168243   3.880   0.273   4.292  1.3648  1.4090 -0.2491
18863SOL    HW268244   3.825   0.415   4.232 -0.2908  0.4018 -1.1633
18864SOL     OW68245   9.877   8.823   1.074  0.0386 -0.6377  0.0975
18864SOL    HW168246   9.889   8.882   0.994 -0.5660  0.0670  0.5261
18864SOL    HW268247   9.802   8.758   1.057  0.2880 -0.8732 -0.1253
18865SOL     OW68248   1.593   1.459   6.825  0.1086 -0.0833  0.3193
18865SOL    HW168249   1.594   1.541   6.882  0.1148 -0.1244  0.3781
18865SOL    HW268250   1.647   1.387   6.869 -0.4365 -0.3350  0.5879
18866SOL     OW68251   8.683   4.802   1.285 -0.2870  0.9650 -0.1539
18866SOL    HW168252   8.770   4.848   1.305 -0.7181  1.2534  1.1330
18866SOL    HW268253   8.608   4.853   1.327 -0.9731  0.1569 -0.3886
18867SOL     OW68254   7.955   1.505   7.273  0.4781 -0.2673 -0.4681
18867SOL    HW168255   8.047   1.532   7.246  0.2050 -0.8736 -2.0996
18867SOL    HW268256   7.930   1.421   7.224 -0.6190 -0.5687  0.5958
18868SOL     OW68257   3.819   1.781   0.463 -0.3602  0.1842  0.5995
18868SOL    HW168258   3.871   1.766   0.547 -0.1604  1.3422  0.6947
18868SOL    HW268259   3.880   1.770   0.384 -0.0177  1.2787  0.7011
18869SOL     OW68260   4.913   3.199   7.196  0.0354  0.4637 -0.1092
18869SOL    HW168261   4.917   3.138   7.116  0.8949 -0.6522  0.7654
18869SOL    HW268262   4.859   3.156   7.268 -0.2874  1.2372  0.1099
18870SOL     OW68263   2.662   0.479   7.903 -0.1017 -0.7293 -0.7853
18870SOL    HW168264   2.711   0.437   7.827 -0.4977 -0.4149 -1.2218
18870SOL    HW268265   2.587   0.535   7.867 -1.3397 -1.9113 -0.0886
18871SOL     OW68266   5.012   0.647   6.053 -0.0990  0.2465 -0.4441
18871SOL    HW168267   5.013   0.743   6.026 -1.2292  0.4132  0.0793
18871SOL    HW268268   4.950   0.635   6.130  2.1656 -0.4369  1.3219
18872SOL     OW68269   4.621   9.308   0.593  0.0245 -0.4115 -0.0554
18872SOL    HW168270   4.588   9.403   0.593  0.5755 -0.2129  0.6240
18872SOL    HW268271   4.637   9.279   0.688  3.2573  0.0064 -0.4048
18873SOL     OW68272   0.206   2.289   2.516 -0.1580  0.0876  0.2983
18873SOL    HW168273   0.238   2.318   2.607 -0.7404 -0.4485  0.6761
18873SOL    HW268274   0.272   2.225   2.477 -0.4101 -0.4783  0.7852
18874SOL     OW68275   5.068   8.016   4.869  0.8793  0.0428 -0.2077
18874SOL    HW168276   5.089   7.977   4.779 -0.3910 -0.7012 -0.1937
18874SOL    HW268277   5.022   7.947   4.925  0.9217  0.7687  0.7242
18875SOL     OW68278   2.096   5.227   5.797  0.1550  0.4037 -0.1301
18875SOL    HW168279   2.164   5.288   5.756 -2.6338  2.3446 -2.0507
18875SOL    HW268280   2.060   5.165   5.727  0.4801 -1.1301  1.0445
18876SOL     OW68281   1.587   9.089   4.367  0.1732  0.5952  0.2768
18876SOL    HW168282   1.582   9.011   4.429 -1.2895  1.9955  2.0063
18876SOL    HW268283   1.683   9.110   4.348  0.5875 -1.1696  0.3651
18877SOL     OW68284   7.548   2.478   6.434  0.3677 -0.0597 -0.0826
18877SOL    HW168285   7.519   2.547   6.368 -3.1887  1.4558  2.8586
18877SOL    HW268286   7.476   2.409   6.444  0.4768  0.1731  2.7336
18878SOL     OW68287   2.043   0.974   6.183 -0.2448 -0.1514 -0.6048
18878SOL    HW168288   2.121   0.953   6.242 -1.4590 -0.5887  0.8901
18878SOL    HW268289   2.044   0.912   6.104  0.6883 -0.4239 -0.3911
18879SOL     OW68290   5.040   6.068   8.201  0.0861  0.2087 -0.9307
18879SOL    HW168291   5.030   6.168   8.198 -1.7466  0.0605 -0.4023
18879SOL    HW268292   4.951   6.026   8.219  1.0014 -1.4918 -0.2526
18880SOL     OW68293   7.990   4.752   0.826 -0.1179 -0.0568 -0.5336
18880SOL    HW168294   8.018   4.658   0.845 -0.0464  0.4833  2.1403
18880SOL    HW268295   7.895   4.765   0.854 -0.5451  0.3246 -2.1220
18881SOL     OW68296   8.968   9.393   1.869  0.0813  0.4085 -0.9336
18881SOL    HW168297   9.045   9.457   1.876 -0.0094  0.4558 -0.3137
18881SOL    HW268298   8.906   9.423   1.797 -0.8873  2.0418  0.5233
18882SOL     OW68299   2.653   6.559   0.595  0.1654  0.2205 -0.1100
18882SOL    HW168300   2.642   6.547   0.694  1.7694 -0.0014  0.0598
18882SOL    HW268301   2.567   6.590   0.555 -0.8751 -0.9919  1.1495
18883SOL     OW68302   2.327   5.311   0.059  0.2339  0.2285  0.2100
18883SOL    HW168303   2.269   5.231   0.069  0.2938  0.2601  0.8426
18883SOL    HW268304   2.279   5.392   0.094  1.1606  0.0312  1.9962
18884SOL     OW68305   8.434   7.795   1.900 -0.0672 -0.2759  0.0884
18884SOL    HW168306   8.504   7.728   1.925 -0.1151 -1.3151 -2.4555
18884SOL    HW268307   8.390   7.767   1.815 -3.4306  0.5034  1.4983
18885SOL     OW68308   3.316   0.217   1.312 -0.2201 -0.3325  0.2037
18885SOL    HW168309   3.268   0.275   1.378 -1.5979  0.5753 -1.5559
18885SOL    HW268310   3.268   0.219   1.225  0.3309 -3.2966 -0.2140
18886SOL     OW68311   2.254   3.751   7.725  0.0074  0.0082  0.4165
18886SOL    HW168312   2.232   3.840   7.686  0.1999  1.1692  2.9154
18886SOL    HW268313   2.177   3.689   7.711 -0.2722  0.6605 -1.0089
18887SOL     OW68314   1.996   8.367   2.686  0.1875  0.8387  0.2957
18887SOL    HW168315   1.972   8.289   2.628  1.1850  0.6283  0.1458
18887SOL    HW268316   1.924   8.436   2.681  0.8341  1.4025 -2.2638
18888SOL     OW68317   3.293   0.628   5.927 -0.5137 -0.6644 -0.3720
18888SOL    HW168318   3.209   0.611   5.979  0.9151 -1.8801  1.6333
18888SOL    HW268319   3.371   0.588   5.976  1.7464  3.4062 -0.4284
18889SOL     OW68320   1.983   2.352   3.862 -0.2900  0.4526  0.5475
18889SOL    HW168321   1.963   2.380   3.956  1.6489 -1.6838  1.6276
18889SOL    HW268322   2.031   2.427   3.815  0.4115  0.8295  1.8378
18890SOL     OW68323   9.408   2.826   7.941  0.8365 -0.0736 -0.0804
18890SOL    HW168324   9.396   2.900   7.875  2.3335 -1.6393 -2.1941
18890SOL    HW268325   9.487   2.844   7.998  0.2521  0.7077  0.4904
18891SOL     OW68326   2.656   6.089   4.329  0.1672 -0.2605  0.3092
18891SOL    HW168327   2.609   6.166   4.373  1.0335  0.8001 -0.5692
18891SOL    HW268328   2.600   6.054   4.255 -0.6189 -1.0562  1.2662
18892SOL     OW68329   2.257   6.641   0.117  0.3200  0.0080  0.6286
18892SOL    HW168330   2.344   6.593   0.128  0.4178 -0.2317 -1.0552
18892SOL    HW268331   2.273   6.730   0.075 -0.1240  0.4818  1.4562
18893SOL     OW68332   9.929   3.047   2.597  0.2848  0.1545 -0.1082
18893SOL    HW168333  10.027   3.065   2.591  0.3214 -0.1595 -0.4988
18893SOL    HW268334   9.906   2.966   2.542  0.4199 -2.1817  3.1896
18894SOL     OW68335   3.119   5.258   7.326 -0.1802  0.2511 -0.0137
18894SOL    HW168336   3.121   5.290   7.421  1.1689 -0.5302  0.2410
18894SOL    HW268337   3.041   5.299   7.278 -0.0481  1.7602  1.0332
18895SOL     OW68338   1.851   7.461   3.847  0.0264 -0.1609 -0.3977
18895SOL    HW168339   1.814   7.368   3.845 -0.6241  0.1160 -2.5695
18895SOL    HW268340   1.927   7.469   3.782  0.0327  0.8444 -0.2853
18896SOL     OW68341   2.204   7.069   0.219 -0.6643  0.6117  0.1668
18896SOL    HW168342   2.275   7.140   0.215 -1.0241  1.0849  2.0032
18896SOL    HW268343   2.116   7.112   0.236 -1.5013  0.0632 -2.4487
18897SOL     OW68344   8.529   1.669   4.509 -0.0158 -0.4018 -0.3430
18897SOL    HW168345   8.572   1.725   4.580  0.3413 -0.8062 -0.2305
18897SOL    HW268346   8.598   1.643   4.441  0.2056 -2.1331  0.5268
18898SOL     OW68347   6.307   0.851   2.180 -0.4484  0.0928  0.0597
18898SOL    HW168348   6.332   0.760   2.148 -0.3841 -0.6187  2.0909
18898SOL    HW268349   6.358   0.920   2.127 -1.8817 -0.9238 -2.7613
18899SOL     OW68350   2.824   5.080   1.599 -0.0925 -0.1823  0.3910
18899SOL    HW168351   2.921   5.102   1.613 -0.3195  0.6073  0.7350
18899SOL    HW268352   2.816   5.005   1.533  0.7342  0.0725 -0.0041
18900SOL     OW68353   2.787   6.507   0.356 -0.1303 -0.0154  0.0549
18900SOL    HW168354   2.727   6.513   0.436 -1.1562  2.0301 -0.8425
18900SOL    HW268355   2.849   6.430   0.368 -2.6664 -1.9827  1.1826
18901SOL     OW68356   2.369   8.509   3.212 -0.3899 -0.1820 -0.3608
18901SOL    HW168357   2.450   8.547   3.258 -1.0189  0.1565  0.4894
18901SOL    HW268358   2.347   8.565   3.132  0.0516 -0.1176 -0.4429
18902SOL     OW68359   3.147   1.035   0.411 -0.4797  0.4220 -0.5526
18902SOL    HW168360   3.104   1.103   0.469 -1.4775 -0.4241 -0.2922
18902SOL    HW268361   3.164   1.074   0.320 -2.2494  0.6151 -0.8125
18903SOL     OW68362   1.977   2.966   4.234  0.1503  0.2750  0.3608
18903SOL    HW168363   1.992   2.912   4.151  0.1471  2.1593 -0.8808
18903SOL    HW268364   2.057   2.956   4.294  0.3271 -0.7760 -0.0328
18904SOL     OW68365   9.236   4.453   7.981  0.5901 -0.5100  0.1385
18904SOL    HW168366   9.154   4.406   7.949  0.3562 -0.4861  0.7032
18904SOL    HW268367   9.217   4.500   8.067  1.5918 -1.7107  1.0413
18905SOL     OW68368   4.614   8.579   3.443  0.4785 -0.1426 -0.1999
18905SOL    HW168369   4.615   8.679   3.445  0.9699 -0.1148 -1.4523
18905SOL    HW268370   4.537   8.547   3.388 -1.2769 -0.5236  2.3815
18906SOL     OW68371   1.470   1.160   3.096  0.4062  0.5819  0.1581
18906SOL    HW168372   1.535   1.091   3.063  0.3040  0.3338  0.4712
18906SOL    HW268373   1.508   1.251   3.080  0.3916  0.4613 -0.5685
18907SOL     OW68374   5.829   9.824   3.533  0.4043 -0.5149 -0.2012
18907SOL    HW168375   5.765   9.900   3.524  0.6417 -0.3440 -0.4700
18907SOL    HW268376   5.913   9.857   3.578  0.7093 -0.5007 -0.7786
18908SOL     OW68377   1.072   9.203   3.993 -0.6910  0.0924  0.0615
18908SOL    HW168378   0.978   9.173   4.009 -1.0832  1.9511  1.4223
18908SOL    HW268379   1.106   9.253   4.073  0.8462  0.9467 -1.0833
18909SOL     OW68380   8.992   9.062   2.948  0.0860 -0.1648  0.1740
18909SOL    HW168381   8.903   9.017   2.937  0.8926 -1.3310 -1.8181
18909SOL    HW268382   8.981   9.161   2.938 -0.6715 -0.4681 -2.1289
18910SOL     OW68383   0.325   6.311   0.352  0.2498 -0.3513 -0.2847
18910SOL    HW168384   0.330   6.269   0.442  0.3217  0.0595 -0.0975
18910SOL    HW268385   0.376   6.254   0.286  3.1703  1.1136  0.6015
18911SOL     OW68386   7.059   0.750   1.152  0.2279  0.1578 -0.4806
18911SOL    HW168387   6.978   0.694   1.167  1.5629 -1.1892  1.8769
18911SOL    HW268388   7.074   0.809   1.231 -0.2759  2.7892 -2.2847
18912SOL     OW68389   8.737   8.117   5.252 -0.2114  0.4680 -0.2924
18912SOL    HW168390   8.767   8.195   5.198  0.6119  1.6222  1.7709
18912SOL    HW268391   8.648   8.136   5.293 -1.4270 -0.9050 -2.2169
18913SOL     OW68392   2.018   2.805   3.800 -0.2571  0.4452  0.6656
18913SOL    HW168393   2.052   2.894   3.769  0.0131  0.2486  0.3852
18913SOL    HW268394   1.926   2.790   3.763 -0.9589  1.2913  2.0187
18914SOL     OW68395   0.905   9.521   6.049  0.1050  0.1208  0.0553
18914SOL    HW168396   0.964   9.538   6.129 -1.3838  0.8955  1.0011
18914SOL    HW268397   0.961   9.525   5.966  1.7689 -1.1153  1.0535
18915SOL     OW68398   0.055   9.871   1.592 -0.0454 -0.2798 -0.1430
18915SOL    HW168399   0.007   9.949   1.553  0.1677  0.8262  1.7457
18915SOL    HW268400  -0.010   9.796   1.608 -0.5579  0.1050 -0.4118
18916SOL     OW68401   7.679   4.384   5.706 -0.3312 -0.4122  0.1772
18916SOL    HW168402   7.620   4.307   5.728  1.4660 -1.8376  0.1047
18916SOL    HW268403   7.639   4.437   5.631 -0.8822 -2.0886 -0.7199
18917SOL     OW68404   5.547   7.513   4.886 -0.3996  0.0886 -0.3131
18917SOL    HW168405   5.546   7.454   4.967 -0.4343 -0.5940 -0.8045
18917SOL    HW268406   5.467   7.494   4.830 -0.0492  0.1093 -0.8257
18918SOL     OW68407   8.150   1.807   0.203  0.0521  0.0082  0.2012
18918SOL    HW168408   8.211   1.827   0.280 -1.5342  1.0927  1.2008
18918SOL    HW268409   8.104   1.720   0.218 -0.7497  0.5336  0.7988
18919SOL     OW68410   5.250   2.673   1.010  0.1205 -0.1458 -0.2882
18919SOL    HW168411   5.234   2.575   1.014  1.1047 -0.3823 -1.7925
18919SOL    HW268412   5.245   2.704   0.915  2.3565  0.8171 -0.1144
18920SOL     OW68413   8.134   2.048   6.815  0.1611  0.0121  0.0113
18920SOL    HW168414   8.049   2.093   6.843  0.1887 -0.3589  0.7022
18920SOL    HW268415   8.116   1.952   6.796  0.3340  0.0405 -0.2956
18921SOL     OW68416   3.139   9.416   5.165 -0.6194  0.2133  0.4595
18921SOL    HW168417   3.176   9.479   5.234  0.3437  0.0136  0.1344
18921SOL    HW268418   3.159   9.322   5.193 -0.8802  0.1033  0.2733
18922SOL     OW68419   2.092   1.760   3.280 -0.1751  0.1348  0.0837
18922SOL    HW168420   2.134   1.679   3.238 -0.0578 -0.3425  1.1110
18922SOL    HW268421   2.067   1.825   3.209  2.4093  0.4861 -0.5741
18923SOL     OW68422   4.383   1.605   7.931 -0.2138 -0.6923  0.3360
18923SOL    HW168423   4.351   1.532   7.871  1.7744 -0.7368 -0.7015
18923SOL    HW268424   4.411   1.566   8.019  0.7027 -1.1805 -0.1652
18924SOL     OW68425   8.270   9.237   6.453 -0.7056 -0.2477  0.2173
18924SOL    HW168426   8.240   9.261   6.545  3.2809  0.8259  1.3308
18924SOL    HW268427   8.290   9.139   6.449  1.6820  0.1723  1.3059
18925SOL     OW68428   8.850   0.552   6.444  0.0137 -0.3391 -0.5064
18925SOL    HW168429   8.847   0.632   6.383  0.3834  0.8505  1.0167
18925SOL    HW268430   8.936   0.553   6.496 -0.0060 -1.7115 -0.4327
18926SOL     OW68431   8.013   5.862   6.730  0.1399  0.4410  0.0394
18926SOL    HW168432   8.111   5.848   6.744  0.2516  0.6015 -0.5674
18926SOL    HW268433   7.983   5.809   6.651  0.0204  1.4703 -0.6141
18927SOL     OW68434   6.309   8.631   6.040  0.1005 -0.2709  0.0084
18927SOL    HW168435   6.318   8.718   6.090  0.7810 -0.7839  0.7859
18927SOL    HW268436   6.371   8.564   6.079 -0.3919 -1.1029 -0.6289
18928SOL     OW68437   5.498   7.823   1.675  0.2535 -0.8324  0.3969
18928SOL    HW168438   5.530   7.795   1.584 -3.1846 -2.9263 -0.2640
18928SOL    HW268439   5.548   7.773   1.745 -0.5692 -3.0625 -0.5674
18929SOL     OW68440   9.929   8.306   0.345 -0.0861 -0.1052 -0.2724
18929SOL    HW168441   9.931   8.282   0.442  0.2950  0.5399 -0.1125
18929SOL    HW268442   9.989   8.245   0.294 -1.2833 -1.2766 -0.3058
18930SOL     OW68443   4.278   4.889   1.001  0.3058  0.5993  0.3750
18930SOL    HW168444   4.296   4.902   1.098  1.8671  3.0865 -0.1968
18930SOL    HW268445   4.364   4.882   0.951 -0.4751 -2.0359 -0.7127
18931SOL     OW68446   6.598   6.942   5.618 -0.4013 -0.4979  0.1388
18931SOL    HW168447   6.550   7.030   5.616 -1.2085 -0.9180  0.7341
18931SOL    HW268448   6.580   6.892   5.534 -1.8760 -1.1069  0.8094
18932SOL     OW68449   3.667   2.477   0.630  0.3879  0.1185  0.3934
18932SOL    HW168450   3.654   2.512   0.537  0.5397  0.5354  0.5300
18932SOL    HW268451   3.577   2.468   0.674  0.3209 -0.0142  0.2320
18933SOL     OW68452   0.142   8.662   3.207 -0.1798 -0.1256  0.1270
18933SOL    HW168453   0.123   8.753   3.244 -1.0080 -0.3767  0.3210
18933SOL    HW268454   0.216   8.669   3.140  0.4797  0.5222  0.9091
18934SOL     OW68455   0.192   0.192   0.343  0.2411 -0.2766  0.4836
18934SOL    HW168456   0.141   0.132   0.404  0.6542 -1.4431 -0.3027
18934SOL    HW268457   0.151   0.190   0.252  0.0727  0.8804  0.5169
18935SOL     OW68458   6.060   1.012   2.959 -0.8458  0.1838  0.0847
18935SOL    HW168459   6.028   1.028   3.052 -0.3676 -1.0712  0.4862
18935SOL    HW268460   6.154   1.045   2.949 -1.1619  1.0113 -0.1798
18936SOL     OW68461   9.724   1.381   0.720  0.1803 -0.1895 -0.1152
18936SOL    HW168462   9.754   1.406   0.812  1.3861  1.2734 -0.8798
18936SOL    HW268463   9.788   1.314   0.682 -0.1297 -0.5379 -0.0306
18937SOL     OW68464   8.704   1.902   2.409  1.0454 -0.0627  0.5007
18937SOL    HW168465   8.686   1.808   2.382  0.0183  0.0444  0.7905
18937SOL    HW268466   8.728   1.956   2.329  2.3313 -0.7119  0.4220
18938SOL     OW68467   5.402   9.295   4.869  0.4495  0.1922 -0.0191
18938SOL    HW168468   5.480   9.308   4.930  0.3846  0.0094  0.1022
18938SOL    HW268469   5.412   9.210   4.818  0.7172  0.5542 -0.5823
18939SOL     OW68470   1.003   8.381   1.626  0.3693  0.1782  0.0224
18939SOL    HW168471   1.023   8.332   1.711 -0.5303 -0.8706 -0.3560
18939SOL    HW268472   1.017   8.320   1.548  0.7573  0.9980 -0.5568
18940SOL     OW68473   5.237   6.109   1.556 -0.7918 -0.1145 -0.2260
18940SOL    HW168474   5.336   6.121   1.548 -0.4902 -1.9262  0.4902
18940SOL    HW268475   5.217   6.012   1.571 -2.5100  0.5673  2.1910
18941SOL     OW68476   7.262   2.921   4.818 -0.1502  0.2074  0.6683
18941SOL    HW168477   7.356   2.892   4.833  0.4948  0.9845 -1.7010
18941SOL    HW268478   7.260   3.007   4.768 -2.1258  0.7681  1.6328
18942SOL     OW68479   4.007   0.997   4.313  0.4387  0.2871 -0.1299
18942SOL    HW168480   4.045   1.033   4.228  2.8279 -1.8150  0.0069
18942SOL    HW268481   4.020   0.898   4.316  0.5364  0.3562  2.7496
18943SOL     OW68482   1.531   4.318   1.435 -0.0717 -0.8742 -0.3843
18943SOL    HW168483   1.475   4.284   1.511 -0.3188  0.5908  0.1009
18943SOL    HW268484   1.472   4.365   1.369  0.9150  3.7581  1.8208
18944SOL     OW68485   2.593   9.725   4.597 -0.2715  0.0131 -0.6532
18944SOL    HW168486   2.674   9.734   4.538  0.0250 -0.8787 -0.3904
18944SOL    HW268487   2.616   9.670   4.677 -0.3671  2.2292  0.9067
18945SOL     OW68488   2.236   1.618   8.161  0.3119 -0.0619  0.2379
18945SOL    HW168489   2.328   1.636   8.197  1.2314 -2.1004 -1.0282
18945SOL    HW268490   2.242   1.587   8.067 -1.6249 -1.0410  0.4066
18946SOL     OW68491   9.211   3.827   0.214 -0.2977  0.1301  0.4157
18946SOL    HW168492   9.123   3.868   0.238  0.1997  1.6839 -0.3566
18946SOL    HW268493   9.279   3.899   0.200  0.7469 -0.9881 -0.4152
18947SOL     OW68494   7.552   1.248   5.482  0.1842 -0.7424  0.2533
18947SOL    HW168495   7.573   1.265   5.386  2.0114  0.3146  0.8304
18947SOL    HW268496   7.637   1.233   5.533 -0.7567 -1.1200  1.7466
18948SOL     OW68497   7.033   7.446   4.516  0.4321  0.1676 -0.5506
18948SOL    HW168498   7.031   7.509   4.594 -0.1669 -0.3789 -0.1189
18948SOL    HW268499   6.965   7.475   4.448  0.5319  0.2979 -0.5940
18949SOL     OW68500   4.217   6.627   2.618 -0.2411 -0.1745 -0.2135
18949SOL    HW168501   4.148   6.557   2.635 -0.1670 -0.6284 -1.7187
18949SOL    HW268502   4.274   6.600   2.541 -0.7560  1.9529 -1.3875
18950SOL     OW68503   5.792   0.951   2.841  0.2893  0.1492  0.0505
18950SOL    HW168504   5.759   0.993   2.925  1.3877 -2.1649  1.6968
18950SOL    HW268505   5.890   0.933   2.849  0.7470  1.3855 -2.3879
18951SOL     OW68506   8.339   6.206   7.144  0.1479 -0.3536  0.2828
18951SOL    HW168507   8.406   6.278   7.164  0.3985 -0.2795 -0.8095
18951SOL    HW268508   8.256   6.248   7.106  0.9279 -0.7627 -1.9559
18952SOL     OW68509   8.630   2.427   7.378  0.2135 -0.2224  0.4883
18952SOL    HW168510   8.646   2.329   7.366  0.9573 -0.1252  0.6644
18952SOL    HW268511   8.591   2.465   7.294  0.2221 -0.6063  0.3117
18953SOL     OW68512   8.078   7.282   3.289 -0.2747 -0.0642  0.6012
18953SOL    HW168513   8.050   7.195   3.330  1.4254  0.2462  2.4759
18953SOL    HW268514   8.169   7.271   3.248 -0.1400  0.7627  0.6715
18954SOL     OW68515   5.895   6.986   4.324 -0.5188  0.0514 -0.3890
18954SOL    HW168516   5.963   6.915   4.343 -1.0050 -0.2197  0.3784
18954SOL    HW268517   5.842   7.005   4.407 -1.1518  0.4983 -0.8840
18955SOL     OW68518   0.429   8.581   6.939  0.1726  0.2482  0.5394
18955SOL    HW168519   0.516   8.584   6.890  0.7668  1.8628  1.6120
18955SOL    HW268520   0.361   8.532   6.885  1.2777  0.4859 -1.0995
18956SOL     OW68521   7.360   9.796   2.101 -0.1320  0.4974 -0.5388
18956SOL    HW168522   7.343   9.770   2.196 -1.2708  1.3637 -0.4857
18956SOL    HW268523   7.446   9.846   2.095  0.2615 -0.1189 -0.0661
18957SOL     OW68524   1.755   0.899   6.733 -0.5125  0.3629  0.4207
18957SOL    HW168525   1.727   0.850   6.816 -1.2886  1.5994  0.9001
18957SOL    HW268526   1.752   0.997   6.750 -0.7663  0.6219 -1.1107
18958SOL     OW68527   1.802   2.874   5.078 -0.0299 -0.5720 -0.3903
18958SOL    HW168528   1.747   2.957   5.061  0.3105 -0.4984 -1.1598
18958SOL    HW268529   1.768   2.828   5.160 -2.9614 -1.9533 -2.2819
18959SOL     OW68530   3.999   6.067   7.834 -0.0706 -0.0936 -0.3341
18959SOL    HW168531   3.958   6.151   7.799 -1.8432 -0.8500 -0.1392
18959SOL    HW268532   3.951   6.039   7.918  0.1577 -1.5726 -0.6860
18960SOL     OW68533   4.403   1.143   6.597  0.3342 -0.0375 -0.8871
18960SOL    HW168534   4.305   1.164   6.596  0.0490 -1.3145 -1.7857
18960SOL    HW268535   4.446   1.187   6.676 -1.3454 -1.1416  0.6876
18961SOL     OW68536   3.422   4.332   0.548 -0.8301  0.5589  0.6629
18961SOL    HW168537   3.378   4.314   0.460 -1.4760 -1.2484  1.3242
18961SOL    HW268538   3.458   4.425   0.549 -3.1397  1.5138 -0.5439
18962SOL     OW68539   9.618   9.902   0.008  0.5077 -0.2887 -0.1513
18962SOL    HW168540   9.616   9.892   0.107 -0.4194 -1.0860 -0.2476
18962SOL    HW268541   9.710   9.928  -0.021  1.2780 -1.9341  0.7424
18963SOL     OW68542   0.594   5.410   5.639 -0.0762 -0.0456 -0.0927
18963SOL    HW168543   0.679   5.459   5.620 -0.2240 -0.3383 -1.5735
18963SOL    HW268544   0.540   5.462   5.705  0.4451  1.0409 -0.5047
18964SOL     OW68545   3.891   2.219   1.957  0.3437  0.4427 -0.6834
18964SOL    HW168546   3.855   2.277   1.883 -1.6878  0.8795  0.6247
18964SOL    HW268547   3.829   2.142   1.972  1.1032 -0.0191  0.1142
18965SOL     OW68548   8.950   4.591   4.579  0.0227  0.4072 -0.2738
18965SOL    HW168549   8.995   4.652   4.513  0.1979  0.0455 -0.4870
18965SOL    HW268550   8.980   4.615   4.672  0.3715  0.4082 -0.3864
18966SOL     OW68551   0.697   9.615   3.208 -0.1462 -0.2690 -0.2480
18966SOL    HW168552   0.602   9.616   3.177 -0.2462  1.1656  0.0562
18966SOL    HW268553   0.758   9.619   3.129 -0.3526 -0.4986 -0.4175
18967SOL     OW68554   0.485   6.902   4.033 -0.9986  0.2686 -0.0570
18967SOL    HW168555   0.557   6.929   3.968 -0.6702 -0.9546 -0.2088
18967SOL    HW268556   0.527   6.868   4.117 -1.4020 -0.5933 -0.2060
18968SOL     OW68557   3.612   1.926   7.857 -0.2390 -0.2136 -0.7138
18968SOL    HW168558   3.653   2.017   7.854  0.8657 -0.6756  0.0508
18968SOL    HW268559   3.516   1.931   7.830 -0.7384  1.5028  1.3072
18969SOL     OW68560   5.500   7.917   3.868  0.6494  0.2463 -0.1203
18969SOL    HW168561   5.535   7.947   3.779  0.1067 -1.1272 -0.8207
18969SOL    HW268562   5.409   7.954   3.883  0.6606  0.3182 -0.2343
18970SOL     OW68563   1.766   1.406   0.032  0.2774  0.4891  0.2918
18970SOL    HW168564   1.742   1.450  -0.054 -0.4750  1.2297  0.8715
18970SOL    HW268565   1.825   1.327   0.014  0.4479  0.8750 -0.8615
18971SOL     OW68566   9.533   2.026   2.794  0.6015  0.2797 -0.2270
18971SOL    HW168567   9.555   1.933   2.823  1.7616  0.4475 -0.5444
18971SOL    HW268568   9.611   2.066   2.746  0.5462  1.8347  0.9239
18972SOL     OW68569   1.109   9.597   1.323  0.1030 -0.5680  0.3182
18972SOL    HW168570   1.191   9.646   1.296 -0.7799  1.2691  0.8331
18972SOL    HW268571   1.034   9.618   1.260  0.0782 -2.4320 -0.3074
18973SOL     OW68572   7.569   1.505   3.852 -0.2243 -0.4988 -0.1117
18973SOL    HW168573   7.651   1.526   3.904  1.5291 -1.9964 -2.1859
18973SOL    HW268574   7.547   1.582   3.792 -0.5237  0.0239  0.6626
18974SOL     OW68575   8.875   5.003   5.620  0.6529  0.2783  0.8752
18974SOL    HW168576   8.875   4.905   5.641 -0.6242  0.2732  0.8902
18974SOL    HW268577   8.818   5.020   5.540  0.8359  1.0240  0.8966
18975SOL     OW68578   4.547   8.025   5.514  0.2273  0.1230 -0.1872
18975SOL    HW168579   4.448   8.022   5.529  0.4548 -0.6736  1.1286
18975SOL    HW268580   4.567   7.997   5.419 -0.6101 -2.3175  0.3220
18976SOL     OW68581   7.184   8.977   5.568 -0.0769 -0.1833 -0.4028
18976SOL    HW168582   7.274   8.984   5.611 -0.2951  0.9668 -0.1152
18976SOL    HW268583   7.183   8.899   5.505  1.7223  0.8909 -1.8170
18977SOL     OW68584   8.947   1.596   4.613 -0.1859  0.3578 -0.1074
18977SOL    HW168585   8.953   1.656   4.534 -0.0514  0.1732 -0.2396
18977SOL    HW268586   9.010   1.627   4.684 -0.9510  1.0360  0.2757
18978SOL     OW68587   2.535   1.431   2.236 -0.2880  0.3319 -0.0346
18978SOL    HW168588   2.451   1.420   2.289 -0.8825  0.2323 -0.9667
18978SOL    HW268589   2.573   1.522   2.252 -0.0401  0.0283  1.1364
18979SOL     OW68590   0.355   7.017   4.487  0.4769  0.0787 -0.0051
18979SOL    HW168591   0.287   7.029   4.560  0.2445 -0.1016 -0.1896
18979SOL    HW268592   0.318   6.955   4.417  1.7622 -2.0182  1.1091
18980SOL     OW68593   1.654   9.214   6.258 -0.4027  0.3001  0.0803
18980SOL    HW168594   1.624   9.251   6.170  0.4583  2.3297  0.6179
18980SOL    HW268595   1.575   9.205   6.318 -0.6824  0.8739 -0.1974
18981SOL     OW68596   7.520   8.408   4.510  0.0389  0.2015  0.6079
18981SOL    HW168597   7.481   8.491   4.550 -0.5933 -0.1202  0.6622
18981SOL    HW268598   7.502   8.406   4.412 -0.5093 -0.1829  0.7140
18982SOL     OW68599   3.501   3.757   0.135  0.4064 -0.6935 -0.4044
18982SOL    HW168600   3.505   3.762   0.235 -0.6233  0.7330 -0.4172
18982SOL    HW268601   3.571   3.815   0.096  1.6807 -2.2806 -0.5273
18983SOL     OW68602   6.089   6.816   5.162 -0.3859 -0.2215  0.3264
18983SOL    HW168603   6.125   6.728   5.191  1.1431  0.4457  0.4939
18983SOL    HW268604   6.083   6.819   5.062 -3.9429 -1.8519  0.4214
18984SOL     OW68605   7.716   0.900   5.178 -0.0158  0.0517 -0.1001
18984SOL    HW168606   7.696   0.920   5.274 -0.0310  0.1650 -0.1259
18984SOL    HW268607   7.646   0.942   5.120  1.0080  1.5841 -0.2621
18985SOL     OW68608   1.702   3.684   3.820 -0.1095  0.0598  0.1171
18985SOL    HW168609   1.740   3.652   3.733 -0.4744 -2.6363  0.8961
18985SOL    HW268610   1.611   3.723   3.804 -0.8636 -1.9004 -0.5104
18986SOL     OW68611   1.307   6.916   7.389  0.2052  0.4208  0.2564
18986SOL    HW168612   1.328   6.913   7.291  0.4941 -0.3750  0.3462
18986SOL    HW268613   1.210   6.898   7.403  0.4472 -0.9621  0.2218
18987SOL     OW68614   0.276   1.954   7.963 -0.1188  0.4703 -0.1580
18987SOL    HW168615   0.307   1.895   8.036  0.3441 -0.4543 -1.0951
18987SOL    HW268616   0.178   1.971   7.973  0.1050  1.0563  1.1534
18988SOL     OW68617   8.736   0.126   3.580 -0.3844  0.3988 -0.6967
18988SOL    HW168618   8.823   0.133   3.629 -0.5803  0.2626 -0.3242
18988SOL    HW268619   8.702   0.032   3.587 -1.4016  0.8431  0.6074
18989SOL     OW68620   1.167   7.378   4.025  0.0753 -0.6186 -0.3597
18989SOL    HW168621   1.141   7.387   4.121 -0.8130  0.5099 -0.7020
18989SOL    HW268622   1.156   7.282   3.997  1.1590 -1.1289  0.8774
18990SOL     OW68623   8.001   0.892   7.898 -0.1683 -0.6861  0.5325
18990SOL    HW168624   8.018   0.811   7.841 -0.6004 -0.2407 -0.2361
18990SOL    HW268625   8.044   0.879   7.988  3.9958  0.2882 -1.2343
18991SOL     OW68626   1.410   7.510   3.931 -0.1171  0.1193 -0.5281
18991SOL    HW168627   1.320   7.471   3.953 -0.5106  1.0782 -0.3953
18991SOL    HW268628   1.400   7.608   3.912  1.1118  0.5151  0.8277
18992SOL     OW68629   2.949   3.905   5.611 -0.1568  0.3109  0.4368
18992SOL    HW168630   2.878   3.970   5.583  0.3728  1.5788  1.9105
18992SOL    HW268631   2.967   3.917   5.709  2.0646 -0.0210  0.0864
18993SOL     OW68632   1.975   2.357   3.047  0.4160 -0.3188  0.0286
18993SOL    HW168633   1.926   2.273   3.069  0.2557  0.2853  2.0991
18993SOL    HW268634   2.023   2.346   2.960  0.5159 -2.5995  0.3447
18994SOL     OW68635   7.671   5.279   1.763  0.4651 -0.1752  0.4299
18994SOL    HW168636   7.633   5.187   1.767  1.8651 -0.7051  2.3013
18994SOL    HW268637   7.759   5.281   1.810  0.8365  1.9407 -0.2906
18995SOL     OW68638   0.978   6.206   4.225 -0.1249  0.0376 -0.5025
18995SOL    HW168639   0.978   6.170   4.132 -0.2363  1.1544 -0.9492
18995SOL    HW268640   0.986   6.306   4.222 -0.6637  0.1296  0.6710
18996SOL     OW68641   2.654   3.309   0.085  0.1530 -0.0387 -0.2458
18996SOL    HW168642   2.744   3.279   0.054  0.7212  1.4135 -0.0434
18996SOL    HW268643   2.587   3.235   0.070  0.9394 -0.3553 -2.3927
18997SOL     OW68644   6.785   0.983   3.471 -0.2289 -0.0878  0.6703
18997SOL    HW168645   6.867   0.945   3.427 -0.2012  0.3026  0.3900
18997SOL    HW268646   6.777   0.945   3.563  0.6277  0.3656  0.9347
18998SOL     OW68647   7.822   9.914   1.421  0.5173  0.3225  0.3207
18998SOL    HW168648   7.727   9.888   1.405  0.4208  0.7107  0.2455
18998SOL    HW268649   7.874   9.902   1.336  0.5245  0.1471  0.3513
18999SOL     OW68650   4.686   8.132   6.480  0.0114  0.2771  0.0567
18999SOL    HW168651   4.755   8.195   6.517  0.0145  0.1239  0.3092
18999SOL    HW268652   4.600   8.143   6.529 -0.2170  0.6373 -0.4215
19000SOL     OW68653   9.209   9.083   3.698  0.2029  0.3979  0.2909
19000SOL    HW168654   9.264   9.011   3.740  0.8747  0.2215 -0.8723
19000SOL    HW268655   9.142   9.042   3.637  0.5460  0.7624 -0.3300
19001SOL     OW68656   9.569   0.822   0.487 -0.2700 -0.6490 -0.1456
19001SOL    HW168657   9.570   0.726   0.458 -1.0667 -0.4258 -0.9298
19001SOL    HW268658   9.477   0.859   0.474 -0.4509 -0.3141  1.9207
19002SOL     OW68659   2.436   8.973   5.829 -0.1121  0.0957 -0.1094
19002SOL    HW168660   2.480   8.934   5.910 -2.5323  0.8835  1.6308
19002SOL    HW268661   2.433   9.073   5.838 -0.5093  0.1808 -1.1235
19003SOL     OW68662   1.305   2.779   5.752 -0.0787 -0.2094  0.0468
19003SOL    HW168663   1.388   2.742   5.793 -0.6965 -0.7327  0.8390
19003SOL    HW268664   1.282   2.866   5.796 -0.3680 -0.4388  0.3524
19004SOL     OW68665   0.276   5.502   3.330  0.3522  0.5705 -0.3423
19004SOL    HW168666   0.370   5.494   3.363  0.1621  2.4257  0.7206
19004SOL    HW268667   0.214   5.457   3.395  0.1980  2.2601  0.7067
19005SOL     OW68668   0.439   5.133   4.336 -0.8155 -0.1746  0.2687
19005SOL    HW168669   0.487   5.177   4.260  0.8272 -0.0652  1.3467
19005SOL    HW268670   0.387   5.055   4.302  2.1407 -1.8371 -0.5883
19006SOL     OW68671   2.804   2.449   4.789  0.4753  0.0695  0.3919
19006SOL    HW168672   2.882   2.440   4.728  0.3875  0.6331  0.1893
19006SOL    HW268673   2.836   2.460   4.883  0.7445  2.6929  0.0442
19007SOL     OW68674   7.868   4.777   1.167 -0.5749  0.1600 -0.3604
19007SOL    HW168675   7.965   4.752   1.164 -0.5270  0.3622 -0.4922
19007SOL    HW268676   7.831   4.778   1.075 -0.8470 -0.4798 -0.2627
19008SOL     OW68677   0.135   4.641   1.952  0.2792 -0.2249  0.1847
19008SOL    HW168678   0.190   4.725   1.947  0.0902 -0.1972 -1.9269
19008SOL    HW268679   0.076   4.635   1.871  0.5826 -2.6042  0.1082
19009SOL     OW68680   9.060   1.816   2.626 -0.6424  0.1323 -0.7391
19009SOL    HW168681   9.092   1.740   2.683  0.9937 -1.0062 -3.1218
19009SOL    HW268682   9.128   1.889   2.627 -0.5864  0.0855 -1.2739
19010SOL     OW68683   5.230   3.885   7.887 -0.2902 -0.0599  0.5644
19010SOL    HW168684   5.216   3.788   7.906 -0.7358 -0.5087 -1.9369
19010SOL    HW268685   5.327   3.903   7.870 -0.3826 -0.3115 -0.2454
19011SOL     OW68686   0.738   5.003   4.176  0.1989  0.1677  0.2396
19011SOL    HW168687   0.732   4.999   4.077  1.7687  2.2884  0.0051
19011SOL    HW268688   0.721   4.913   4.215 -1.1165 -0.5288 -1.9033
19012SOL     OW68689   7.011   2.752   3.623  0.3967 -0.0641  0.1792
19012SOL    HW168690   6.950   2.793   3.555  0.9649  1.2727  0.4513
19012SOL    HW268691   7.089   2.711   3.576  0.8263  0.9235  0.0103
19013SOL     OW68692   4.508   8.875   4.060 -0.1091  0.5968  0.1858
19013SOL    HW168693   4.606   8.863   4.074 -0.1653 -0.5508 -0.3869
19013SOL    HW268694   4.459   8.850   4.144 -0.0038 -0.1702  0.0203
19014SOL     OW68695   2.522   0.095   5.427  0.0961 -0.4692 -0.2996
19014SOL    HW168696   2.562   0.004   5.430  0.4001 -0.3930 -1.5589
19014SOL    HW268697   2.476   0.115   5.513  0.4573 -1.6169  0.1598
19015SOL     OW68698   1.675   9.847   5.108  0.0014  0.0963 -0.1711
19015SOL    HW168699   1.648   9.789   5.185 -0.8059 -0.1164 -0.6146
19015SOL    HW268700   1.775   9.859   5.109 -0.0610  0.4593  1.1534
19016SOL     OW68701   4.129   1.045   3.541 -0.7729  0.3908  0.5524
19016SOL    HW168702   4.183   1.129   3.547 -0.9377  0.4920  0.6187
19016SOL    HW268703   4.134   1.008   3.448 -0.6760  0.4591  0.5309
19017SOL     OW68704   6.095   6.151   0.829 -0.4320 -0.3397 -0.2466
19017SOL    HW168705   6.009   6.154   0.881 -0.5373 -1.0694 -0.3709
19017SOL    HW268706   6.164   6.102   0.882 -0.6472 -1.4102 -0.9399
19018SOL     OW68707   0.771   7.432   3.746 -0.0815 -0.3029  0.6083
19018SOL    HW168708   0.791   7.487   3.827  1.1833 -0.9909  0.7784
19018SOL    HW268709   0.673   7.414   3.741 -0.3478  0.9231  1.2161
19019SOL     OW68710   9.524   0.190   4.754  0.5938  0.4659 -0.4764
19019SOL    HW168711   9.426   0.205   4.742  0.4331 -1.1962 -1.3456
19019SOL    HW268712   9.542   0.161   4.848  0.0571 -0.6499 -0.7068
19020SOL     OW68713   0.156   3.135   1.941 -0.6409 -0.0465  0.0470
19020SOL    HW168714   0.224   3.125   1.868 -1.7918 -0.6745 -0.9404
19020SOL    HW268715   0.192   3.092   2.025 -0.1179 -1.0149 -0.6599
19021SOL     OW68716   2.662   7.998   2.069 -0.1865 -0.4269 -0.5061
19021SOL    HW168717   2.616   8.065   2.011  1.8808 -0.8873 -2.7651
19021SOL    HW268718   2.615   7.910   2.061 -2.3792  0.4934  1.7862
19022SOL     OW68719   5.597   0.097   2.748  0.0520  0.1065 -0.1094
19022SOL    HW168720   5.582   0.002   2.718  0.5545 -0.1542  0.4479
19022SOL    HW268721   5.535   0.158   2.698 -0.1516 -0.4949 -0.6014
19023SOL     OW68722   3.313   9.176   5.170 -0.4338 -0.6099  0.1062
19023SOL    HW168723   3.325   9.214   5.262 -1.7339  0.3213 -0.0973
19023SOL    HW268724   3.403   9.158   5.130  0.1397 -2.1598  2.0201
19024SOL     OW68725   6.939   0.041   4.058 -0.2563  0.3364  0.2719
19024SOL    HW168726   6.890   0.100   3.994 -0.8981  0.9334  1.2984
19024SOL    HW268727   6.972   0.096   4.135  2.4915  0.0517 -0.6382
19025SOL     OW68728   6.500   0.833   3.140 -0.3042 -0.7603 -0.2248
19025SOL    HW168729   6.500   0.930   3.165 -3.3941 -0.9722  0.7800
19025SOL    HW268730   6.474   0.824   3.044  1.4252 -0.5426 -0.7339
19026SOL     OW68731   3.157   8.532   3.109 -0.8433  0.0660 -0.1534
19026SOL    HW168732   3.191   8.613   3.156 -1.8283  0.0739  0.5482
19026SOL    HW268733   3.091   8.484   3.167 -1.9553 -0.0153 -1.4552
19027SOL     OW68734   8.418   5.429   4.766  1.0282 -0.0284 -0.2757
19027SOL    HW168735   8.408   5.474   4.678  0.1778  2.2929  0.9437
19027SOL    HW268736   8.360   5.347   4.769 -0.2707  0.8341 -1.2615
19028SOL     OW68737   8.995   4.184   4.143 -0.1132 -0.3705 -0.2280
19028SOL    HW168738   9.093   4.166   4.154 -0.4037 -0.8335  1.6974
19028SOL    HW268739   8.977   4.282   4.157 -0.0262 -0.4140  0.1956
19029SOL     OW68740   1.401   3.866   4.124  0.5563 -0.0586 -0.1445
19029SOL    HW168741   1.469   3.856   4.197 -1.6120  0.5460  2.0246
19029SOL    HW268742   1.340   3.786   4.125  0.1297  0.2544 -0.9030
19030SOL     OW68743   0.826   9.384   5.715 -0.1085 -0.2376 -0.1630
19030SOL    HW168744   0.828   9.293   5.755  0.2979 -0.7570 -1.3518
19030SOL    HW268745   0.801   9.378   5.618 -1.1763  1.0068  0.0208
19031SOL     OW68746   2.102   0.388   7.505 -0.1747  0.6143  0.4374
19031SOL    HW168747   2.143   0.409   7.594  0.9618 -0.6054  0.2211
19031SOL    HW268748   2.017   0.338   7.518 -1.6471  3.1634  0.8948
19032SOL     OW68749   9.049   0.242   4.303  0.2278  0.2351 -0.3883
19032SOL    HW168750   9.089   0.263   4.213  2.2397  0.3705  0.5238
19032SOL    HW268751   9.074   0.149   4.330 -0.8862 -0.0244 -0.2230
19033SOL     OW68752   4.117   7.552   4.224 -0.3607 -0.0441  0.8614
19033SOL    HW168753   4.113   7.455   4.244 -0.2268 -0.4010 -0.7513
19033SOL    HW268754   4.210   7.578   4.198 -0.8754  0.0175 -0.9978
19034SOL     OW68755   0.402   2.489   0.396  0.2783 -0.3344 -0.4295
19034SOL    HW168756   0.463   2.413   0.372  1.9888  0.8108  0.1698
19034SOL    HW268757   0.370   2.534   0.312 -0.3450 -1.3851 -0.7691
19035SOL     OW68758   7.522   4.690   1.044  0.5601  0.5028 -0.3883
19035SOL    HW168759   7.541   4.593   1.030  1.6969  0.3606  1.8771
19035SOL    HW268760   7.434   4.701   1.090  0.3326  0.5566 -0.8358
19036SOL     OW68761   6.470   1.130   5.300  0.0097  0.1162  1.0310
19036SOL    HW168762   6.385   1.150   5.250 -1.2011  0.3455  3.1354
19036SOL    HW268763   6.510   1.216   5.332  0.0613 -0.1201  1.6032
19037SOL     OW68764   9.377   4.055   3.128 -0.6817  0.2700  0.7968
19037SOL    HW168765   9.366   4.003   3.043 -0.4109  0.4574  0.6455
19037SOL    HW268766   9.320   4.137   3.124  1.8638  2.0633 -0.6539
19038SOL     OW68767   1.994   5.542   6.909 -0.1466 -0.2943 -0.5066
19038SOL    HW168768   1.967   5.451   6.877  0.4244  0.0122 -1.8760
19038SOL    HW268769   1.982   5.608   6.835 -0.8820  0.8134  0.5821
19039SOL     OW68770   2.950   5.289   1.911 -0.1051 -0.1014 -0.1040
19039SOL    HW168771   2.995   5.217   1.965 -0.6320 -0.4108 -0.0775
19039SOL    HW268772   2.851   5.282   1.922 -0.0802  1.9886  1.6361
19040SOL     OW68773   1.826   4.824   5.005 -0.1146  0.7254 -0.2532
19040SOL    HW168774   1.859   4.884   5.078  1.6126 -2.1982  1.4384
19040SOL    HW268775   1.904   4.780   4.960 -1.3567 -0.1885 -1.5570
19041SOL     OW68776   9.576   4.725   1.425  0.0930  0.2352  0.0531
19041SOL    HW168777   9.660   4.675   1.446 -1.5112 -2.4898  0.2285
19041SOL    HW268778   9.503   4.695   1.487 -1.3252  1.6281 -0.9077
19042SOL     OW68779   2.255   0.038   4.015  0.3486  0.0556 -0.8249
19042SOL    HW168780   2.255  -0.026   4.091  0.9485  0.1636 -0.7323
19042SOL    HW268781   2.348   0.072   3.999  0.1732  0.2859 -1.3893
19043SOL     OW68782   5.336   9.673   5.066  0.8372 -0.6436 -0.4312
19043SOL    HW168783   5.364   9.655   4.971  2.5205 -2.2000  0.3380
19043SOL    HW268784   5.413   9.655   5.127  0.2993  2.0410  1.0964
19044SOL     OW68785   2.669   4.461   4.763  0.1558 -0.0561  0.1656
19044SOL    HW168786   2.718   4.377   4.788 -0.0209 -0.7860 -1.9091
19044SOL    HW268787   2.590   4.438   4.706 -1.1316  1.3565  1.3345
19045SOL     OW68788   8.698   0.017   6.270  0.3280 -0.2850  0.0448
19045SOL    HW168789   8.723  -0.044   6.345  0.0087 -0.3223  0.1190
19045SOL    HW268790   8.671  -0.037   6.190  0.1799 -0.2397  0.0656
19046SOL     OW68791   3.832   2.535   5.866  0.3100 -0.0424 -0.0908
19046SOL    HW168792   3.854   2.625   5.829  0.1211  0.1527  0.2618
19046SOL    HW268793   3.757   2.495   5.814  1.9538 -1.0113 -1.7427
19047SOL     OW68794   5.439   8.802   1.845  0.0403  0.0999  0.1454
19047SOL    HW168795   5.402   8.864   1.775  2.1660  1.3442  0.0722
19047SOL    HW268796   5.393   8.713   1.839  0.4935  0.0441 -3.1326
19048SOL     OW68797   5.725   3.532   0.195 -0.0977 -0.2702 -0.4896
19048SOL    HW168798   5.700   3.629   0.187  0.6322 -0.0354  0.0142
19048SOL    HW268799   5.675   3.490   0.270 -0.4074 -0.2810 -0.7021
19049SOL     OW68800   8.123   1.103   2.110  0.0208  0.8801 -0.2113
19049SOL    HW168801   8.187   1.030   2.087  0.6617  0.7578  1.8340
19049SOL    HW268802   8.173   1.190   2.115 -0.0876  0.8905  0.7299
19050SOL     OW68803   2.674   9.631   4.149 -0.0057 -0.6115  0.1200
19050SOL    HW168804   2.600   9.692   4.178  1.4366  0.3296  1.9747
19050SOL    HW268805   2.701   9.654   4.056 -0.6184  0.4761  0.1940
19051SOL     OW68806   6.632   9.488   3.819 -0.1912 -0.2455  0.3814
19051SOL    HW168807   6.661   9.447   3.733  1.4372 -0.4640  1.0127
19051SOL    HW268808   6.618   9.416   3.887 -0.0696  0.0328  0.7031
19052SOL     OW68809   9.982   1.915   2.660 -0.0020 -0.2031 -0.4306
19052SOL    HW168810   9.946   1.844   2.720  0.3478  0.6670  0.8275
19052SOL    HW268811   9.964   1.890   2.564 -0.8236 -1.4530  0.0352
19053SOL     OW68812   0.397   6.381   7.567 -0.2311  0.2394  0.0939
19053SOL    HW168813   0.366   6.299   7.519 -0.9986  1.6523 -1.9378
19053SOL    HW268814   0.467   6.427   7.512  1.5743 -0.0392  2.1071
19054SOL     OW68815   7.484   9.983   3.726 -0.5789  0.1928  0.3900
19054SOL    HW168816   7.497  10.006   3.822 -1.7914  0.6607  0.4435
19054SOL    HW268817   7.435  10.056   3.679 -0.5624 -0.3122 -0.4432
19055SOL     OW68818   8.792   1.101   3.723 -0.2984  0.2006 -0.5266
19055SOL    HW168819   8.702   1.120   3.763 -1.7296 -0.6392 -3.2074
19055SOL    HW268820   8.804   1.002   3.712  1.0486  0.2932 -0.0626
19056SOL     OW68821   4.218   9.513   4.338  0.2547  0.1709  0.4810
19056SOL    HW168822   4.258   9.487   4.250  1.8206  0.0002  1.2250
19056SOL    HW268823   4.168   9.435   4.376 -0.6063  0.3149 -0.3560
19057SOL     OW68824   0.426   4.452   7.279 -0.8465 -0.0052  0.1386
19057SOL    HW168825   0.437   4.358   7.311  1.7460  0.2559  0.1046
19057SOL    HW268826   0.465   4.515   7.347  1.0731  0.7973 -1.6626
19058SOL     OW68827   5.412   0.006   3.968  0.2086 -0.4939  0.5976
19058SOL    HW168828   5.371  -0.006   4.058 -0.1254 -2.4807  0.2220
19058SOL    HW268829   5.454   0.096   3.961 -0.7185  0.0870  2.3455
19059SOL     OW68830   3.731   0.998   5.143 -0.0848  0.1146  0.5114
19059SOL    HW168831   3.765   0.962   5.057 -1.2970 -2.1597  0.9338
19059SOL    HW268832   3.791   0.970   5.218 -1.1249 -1.2582  0.8624
19060SOL     OW68833   7.302   4.739   7.743  0.0958 -0.6688  0.0796
19060SOL    HW168834   7.304   4.836   7.767 -1.2648 -0.7432  0.5343
19060SOL    HW268835   7.238   4.691   7.803 -0.6064 -1.5350 -1.3338
19061SOL     OW68836   3.466   8.499   4.711  0.2146  0.0088  0.2883
19061SOL    HW168837   3.370   8.478   4.694  0.5453 -0.9738 -0.4387
19061SOL    HW268838   3.501   8.556   4.636  0.2940  0.0818  0.3811
19062SOL     OW68839   5.080   0.726   4.432 -0.0720 -0.0209 -0.2136
19062SOL    HW168840   5.045   0.803   4.378  3.4376  0.7454 -1.5471
19062SOL    HW268841   5.069   0.642   4.380 -0.0185  0.2001 -0.5868
19063SOL     OW68842   2.673   0.824   3.341  0.0883  0.0516  0.2119
19063SOL    HW168843   2.608   0.847   3.413 -0.9765 -1.8265 -0.1146
19063SOL    HW268844   2.730   0.904   3.321 -1.0659  1.2575  1.5858
19064SOL     OW68845   7.921   2.383   5.857 -0.0178 -0.6377 -0.0381
19064SOL    HW168846   7.881   2.351   5.943  0.8692  0.4902  0.8261
19064SOL    HW268847   7.955   2.305   5.804  3.9844 -1.0964  2.9538
19065SOL     OW68848   6.438   9.710   6.367  0.0862 -0.0186 -0.3126
19065SOL    HW168849   6.449   9.804   6.334 -0.3248  0.1561  0.0378
19065SOL    HW268850   6.420   9.650   6.289  0.3372  0.1962 -0.5366
19066SOL     OW68851   0.389   5.438   7.752 -0.1154  0.1833 -0.1305
19066SOL    HW168852   0.372   5.453   7.655 -0.8068  0.8116  0.0759
19066SOL    HW268853   0.301   5.428   7.800 -0.0047  3.9315  1.0368
19067SOL     OW68854   8.790   7.607   2.121  0.4661  0.6985 -0.1931
19067SOL    HW168855   8.779   7.706   2.112  0.7700  0.7989  0.5770
19067SOL    HW268856   8.772   7.564   2.032 -1.2152  1.3028 -0.1565
19068SOL     OW68857   8.471   0.733   7.674  0.0305  0.6323 -0.0987
19068SOL    HW168858   8.508   0.646   7.707  2.4656  0.3299 -3.3768
19068SOL    HW268859   8.473   0.800   7.748  0.7767 -1.3010  1.6963
19069SOL     OW68860   8.319   0.718   7.968 -0.5079  0.2164  0.2794
19069SOL    HW168861   8.220   0.711   7.983 -0.9330  0.9479 -2.0845
19069SOL    HW268862   8.356   0.628   7.949 -0.8684  0.0749  0.2428
19070SOL     OW68863   6.717   1.052   7.556  0.2607  0.3112 -0.3600
19070SOL    HW168864   6.620   1.073   7.544  0.5565  1.7609 -0.2780
19070SOL    HW268865   6.732   1.010   7.645 -0.3529 -0.3686 -0.5727
19071SOL     OW68866   1.190   9.285   6.142  0.2360 -0.0308  0.0252
19071SOL    HW168867   1.141   9.287   6.229  2.2448 -0.3490  1.1857
19071SOL    HW268868   1.244   9.368   6.132 -1.8009  1.1255 -2.0479
19072SOL     OW68869   0.273   2.348   4.029 -0.2615 -0.0240  0.7235
19072SOL    HW168870   0.364   2.320   4.059 -0.6847 -2.2649  0.0487
19072SOL    HW268871   0.275   2.444   4.001  1.3408  0.6164  2.8614
19073SOL     OW68872   4.192   1.144   0.243 -0.5852 -0.1851  0.0683
19073SOL    HW168873   4.142   1.061   0.267  1.4924 -1.3180  0.6172
19073SOL    HW268874   4.193   1.155   0.144 -0.4823 -1.0891 -0.0382
19074SOL     OW68875   2.659   2.241   7.740  0.5155  0.6856  0.1193
19074SOL    HW168876   2.627   2.279   7.653 -0.9748 -1.3575 -0.2691
19074SOL    HW268877   2.644   2.142   7.740  2.4099  0.3715  1.8992
19075SOL     OW68878   8.396   2.651   0.923 -0.4275  0.4652  0.4285
19075SOL    HW168879   8.398   2.571   0.983  1.2620  1.4482  1.7346
19075SOL    HW268880   8.427   2.731   0.974 -1.4260  1.8239 -1.0586
19076SOL     OW68881   0.824   8.734   7.061 -0.1529 -0.8375 -0.4913
19076SOL    HW168882   0.755   8.681   7.011 -2.0206 -0.1114  1.2235
19076SOL    HW268883   0.825   8.706   7.157 -1.6794  2.6045  0.6293
19077SOL     OW68884   9.274   4.431   1.268 -0.4580 -0.5712  0.0797
19077SOL    HW168885   9.305   4.446   1.362  1.4026 -1.2879 -0.3846
19077SOL    HW268886   9.229   4.513   1.233  2.4572  1.1489  0.2270
19078SOL     OW68887   9.432   2.615   5.793  0.6471  0.1303 -0.2765
19078SOL    HW168888   9.444   2.516   5.784  1.1897  0.2959 -1.5309
19078SOL    HW268889   9.351   2.644   5.742  0.9360  0.4311 -0.5693
19079SOL     OW68890   5.544   0.186   1.502  0.5656  0.2362  0.9028
19079SOL    HW168891   5.491   0.270   1.499  0.0407 -0.1268 -1.2203
19079SOL    HW268892   5.584   0.174   1.592 -1.0976  1.6833  1.8557
19080SOL     OW68893   9.181   9.908   5.374 -0.1864  0.0943  0.1514
19080SOL    HW168894   9.232   9.850   5.311 -0.0372 -1.4631  1.6500
19080SOL    HW268895   9.131   9.850   5.439  0.0891  1.6522  1.7862
19081SOL     OW68896   0.444   0.761   6.946 -0.6914  0.0769 -0.3110
19081SOL    HW168897   0.372   0.694   6.931  0.8150 -1.2042 -2.1588
19081SOL    HW268898   0.422   0.845   6.895 -1.1301 -0.1095 -0.4343
19082SOL     OW68899   0.879   1.887   8.160 -0.1191 -0.0438  0.5617
19082SOL    HW168900   0.913   1.979   8.142 -0.2957 -0.1416 -0.3098
19082SOL    HW268901   0.782   1.892   8.187  0.5336  0.2258  2.9564
19083SOL     OW68902   1.912   3.253   6.029  0.2009  0.2146 -0.2376
19083SOL    HW168903   1.891   3.345   5.996  0.9291  0.4260 -0.1270
19083SOL    HW268904   1.941   3.258   6.125  0.8232 -0.0479 -0.4076
19084SOL     OW68905   4.484   8.579   3.150 -0.3126 -0.5349  0.8568
19084SOL    HW168906   4.422   8.546   3.221 -0.9381  0.8192  0.9598
19084SOL    HW268907   4.527   8.664   3.181 -2.4260  1.3803 -1.3517
19085SOL     OW68908   1.129   3.566   7.907 -0.1243 -0.2791  0.5010
19085SOL    HW168909   1.032   3.589   7.911 -0.1305 -0.0033 -0.8503
19085SOL    HW268910   1.183   3.646   7.933 -0.2465 -0.2207  0.5776
19086SOL     OW68911   5.119   0.589   4.203  0.4219  0.6201 -0.3366
19086SOL    HW168912   5.029   0.590   4.159 -0.5088  0.9704  1.5333
19086SOL    HW268913   5.173   0.667   4.170 -0.3834  1.0697 -0.6137
19087SOL     OW68914   3.437   0.741   5.417  0.4079 -0.1539 -0.6305
19087SOL    HW168915   3.524   0.739   5.368  0.2561  1.8352 -1.0073
19087SOL    HW268916   3.455   0.736   5.516  1.0040  1.1440 -0.6683
19088SOL     OW68917   4.547   0.951   5.849  0.3623  0.2343 -0.5145
19088SOL    HW168918   4.520   0.981   5.940  2.3432  0.2487  0.0948
19088SOL    HW268919   4.475   0.893   5.810  0.4553 -1.6634  2.0076
19089SOL     OW68920   3.004   8.356   0.112  0.3386 -0.0656 -0.0923
19089SOL    HW168921   2.943   8.301   0.055 -2.3180  2.1045  0.5257
19089SOL    HW268922   3.031   8.438   0.061  1.3447 -0.1499  0.2908
19090SOL     OW68923   0.503   7.851   6.164  0.2496  0.3225 -0.2315
19090SOL    HW168924   0.439   7.838   6.239  1.1445 -2.0710  0.1656
19090SOL    HW268925   0.510   7.766   6.111  0.4704  1.6353 -2.3629
19091SOL     OW68926   2.353   9.706   1.358 -0.3051 -0.6259  0.3060
19091SOL    HW168927   2.428   9.641   1.343 -0.3404 -0.5741 -0.1156
19091SOL    HW268928   2.374   9.763   1.437 -0.0090 -0.7711  0.3344
19092SOL     OW68929   7.936   5.825   3.430  0.0224 -0.2020  0.0011
19092SOL    HW168930   8.030   5.790   3.435  0.0715 -0.2940 -1.3284
19092SOL    HW268931   7.879   5.776   3.496  0.7849 -0.5410  0.4267
19093SOL     OW68932   5.498   7.176   3.357 -0.4676  0.2060  0.1209
19093SOL    HW168933   5.541   7.230   3.285  1.0213 -0.7260  0.2859
19093SOL    HW268934   5.479   7.084   3.323  2.1415 -0.8944  1.5009
19094SOL     OW68935   4.596   7.739   2.278  0.0360  0.6800 -0.0196
19094SOL    HW168936   4.497   7.729   2.272  0.2247 -0.4793 -1.5632
19094SOL    HW268937   4.634   7.667   2.336  0.1214  0.2001 -0.6680
19095SOL     OW68938   3.256   5.647   2.801 -0.3738  0.0426  0.4821
19095SOL    HW168939   3.191   5.680   2.870 -1.9546  0.9633 -1.3951
19095SOL    HW268940   3.210   5.585   2.738  0.6529  0.4196 -0.6710
19096SOL     OW68941   8.914   6.195   4.163  0.6768  0.2328 -0.1948
19096SOL    HW168942   8.914   6.117   4.100 -0.6432 -0.2964  0.4166
19096SOL    HW268943   8.876   6.166   4.251  0.1910  1.5542  0.0500
19097SOL     OW68944   0.536   7.610   5.995  0.3471 -0.0646 -0.0248
19097SOL    HW168945   0.630   7.584   6.014  0.1036  0.5301  2.1384
19097SOL    HW268946   0.479   7.528   5.984  0.5526 -0.4331  1.6201
19098SOL     OW68947   2.123   5.964   4.456 -0.2859 -0.6005  0.7203
19098SOL    HW168948   2.177   5.910   4.392 -1.1234  0.1333 -0.6045
19098SOL    HW268949   2.154   5.944   4.550  4.4415  2.0093 -0.0976
19099SOL     OW68950   5.561   0.235   1.168 -0.1004 -0.1997 -0.6046
19099SOL    HW168951   5.462   0.247   1.158 -0.0952  0.0461 -0.3759
19099SOL    HW268952   5.585   0.233   1.265 -0.2162 -3.1487 -0.6012
19100SOL     OW68953   5.521   3.023   1.003 -0.1838 -0.4193 -0.3578
19100SOL    HW168954   5.547   2.926   1.008 -1.3287 -0.7007  0.3429
19100SOL    HW268955   5.423   3.030   0.985  0.1062  0.6232 -1.5328
19101SOL     OW68956   4.044   6.062   2.412  0.5876 -0.2775  0.5178
19101SOL    HW168957   3.949   6.033   2.399  0.3850  0.6262 -0.0522
19101SOL    HW268958   4.062   6.076   2.510  0.1424 -0.4748  0.6269
19102SOL     OW68959   8.425   7.251   3.002 -0.5068 -0.2946 -0.6883
19102SOL    HW168960   8.427   7.278   3.098 -1.7216  1.1845 -1.0649
19102SOL    HW268961   8.483   7.170   2.989 -0.5641 -0.6843  1.3286
19103SOL     OW68962   0.384   5.290   3.831  0.2566  0.2644  0.0622
19103SOL    HW168963   0.358   5.214   3.772 -0.6895 -0.3545  1.2423
19103SOL    HW268964   0.403   5.371   3.776  0.1745 -0.5256 -1.1314
19104SOL     OW68965   8.590   4.297   0.421  0.4318  0.3526 -0.1055
19104SOL    HW168966   8.580   4.397   0.426 -0.8349  0.2185  0.3139
19104SOL    HW268967   8.613   4.261   0.511 -1.3229  0.0545  0.2406
19105SOL     OW68968   8.412   3.567   7.686 -0.6400 -0.5550 -0.3197
19105SOL    HW168969   8.350   3.628   7.636 -0.8306  0.0511  0.6422
19105SOL    HW268970   8.389   3.472   7.665 -1.6272 -0.3285 -0.2870
19106SOL     OW68971   0.209   7.770   5.924  0.4529  0.0696 -0.2834
19106SOL    HW168972   0.241   7.679   5.899 -0.1566 -0.5379  1.1096
19106SOL    HW268973   0.110   7.768   5.938  0.1053  1.4103 -2.2672
19107SOL     OW68974   6.820   6.272   4.517 -0.3494 -0.2654  0.0700
19107SOL    HW168975   6.871   6.333   4.457  1.2983 -0.4566  1.2179
19107SOL    HW268976   6.805   6.185   4.472 -0.1088 -0.0267 -0.4727
19108SOL     OW68977   1.180   5.244   4.809 -0.0662  0.0957  0.2629
19108SOL    HW168978   1.247   5.231   4.882 -1.2283 -3.7192  0.7564
19108SOL    HW268979   1.094   5.279   4.848  0.2298  0.8185  0.2740
19109SOL     OW68980   7.743   6.574   7.586 -0.3776  0.0664 -0.1880
19109SOL    HW168981   7.832   6.559   7.543 -0.2328  0.4159 -0.0121
19109SOL    HW268982   7.744   6.535   7.678 -0.4915 -0.1492 -0.2758
19110SOL     OW68983   1.363   8.543   3.655  0.3933  0.2439  0.1292
19110SOL    HW168984   1.343   8.464   3.712 -2.1181  0.1929 -0.7469
19110SOL    HW268985   1.313   8.623   3.690  1.1967  0.9323 -0.2656
19111SOL     OW68986   6.175   3.877   8.019  0.0838  0.3059 -0.1333
19111SOL    HW168987   6.151   3.845   7.927  1.7158 -1.0475 -0.1113
19111SOL    HW268988   6.165   3.977   8.023  0.9135  0.4967 -2.0705
19112SOL     OW68989   3.950   2.240   8.067  0.1544  0.5721  0.4839
19112SOL    HW168990   4.028   2.298   8.044  0.3831 -0.4938 -1.6045
19112SOL    HW268991   3.868   2.275   8.022  0.0918 -0.1449  0.0293
19113SOL     OW68992   8.939   7.986   1.579 -0.0738  0.1534 -0.4588
19113SOL    HW168993   8.863   8.035   1.622  1.1341  1.9827 -0.3576
19113SOL    HW268994   8.982   7.925   1.646 -2.4879 -2.2378 -0.9665
19114SOL     OW68995   9.936   4.943   0.898 -0.1054 -0.1807  0.2788
19114SOL    HW168996  10.016   4.946   0.839 -0.3405 -1.8523 -0.1572
19114SOL    HW268997   9.876   5.020   0.878  0.2921 -0.1993 -0.9818
19115SOL     OW68998   7.498   4.645   0.631  0.2917  0.5475 -0.1664
19115SOL    HW168999   7.440   4.712   0.676 -0.6103 -0.9284  0.8855
19115SOL    HW269000   7.516   4.569   0.692  3.8246  1.2086 -0.2574
19116SOL     OW69001   7.486   6.559   3.343  0.2154 -0.8690  0.0884
19116SOL    HW169002   7.510   6.612   3.424 -0.8851  1.4561 -1.0739
19116SOL    HW269003   7.526   6.467   3.351  0.8799 -0.4017  2.8200
19117SOL     OW69004   2.865   1.819   3.589 -0.2329  0.2441 -0.1990
19117SOL    HW169005   2.859   1.724   3.620 -2.8022  0.7336  0.9151
19117SOL    HW269006   2.931   1.825   3.515  0.8847 -2.1989  0.5267
19118SOL     OW69007   6.567   2.140   0.848 -0.3928 -0.1453  0.6432
19118SOL    HW169008   6.468   2.134   0.833 -0.3471  0.3064  0.1648
19118SOL    HW269009   6.590   2.232   0.877 -0.0988 -0.2253  0.6571
19119SOL     OW69010   4.232   8.107   7.605  0.0434  0.3560 -0.6542
19119SOL    HW169011   4.313   8.154   7.641 -0.2525  0.5464 -0.2375
19119SOL    HW269012   4.260   8.026   7.553  0.4427 -0.1157  0.3014
19120SOL     OW69013   9.294   9.047   6.653  0.0991 -0.1748  0.0096
19120SOL    HW169014   9.370   8.990   6.621  0.5917 -0.1713  1.1384
19120SOL    HW269015   9.216   9.036   6.592  0.8867 -0.4437 -0.9724
19121SOL     OW69016   3.181   1.242   4.409  0.5458 -0.0181 -0.0874
19121SOL    HW169017   3.201   1.338   4.392 -0.7773  0.1834 -0.5309
19121SOL    HW269018   3.100   1.234   4.467  0.8201 -0.8617  0.1863
19122SOL     OW69019   3.061   6.339   0.128 -0.8523 -0.1718  0.1995
19122SOL    HW169020   3.156   6.342   0.159 -0.5846  2.7218 -0.7332
19122SOL    HW269021   3.036   6.245   0.106  1.1904 -1.2319  2.2595
19123SOL     OW69022   8.714   3.999   7.029  0.5127  0.2119 -0.5149
19123SOL    HW169023   8.727   3.917   6.973  0.2437  0.5202 -1.0358
19123SOL    HW269024   8.763   3.989   7.115 -0.5526 -1.0377 -0.0283
19124SOL     OW69025   5.452   1.128   3.125 -0.0056  0.6328 -0.5229
19124SOL    HW169026   5.442   1.224   3.152  1.4739  1.0431 -1.3294
19124SOL    HW269027   5.536   1.118   3.071  0.7461 -1.4145  0.9609
19125SOL     OW69028   6.387   8.865   2.675 -0.2667 -0.2197  0.3242
19125SOL    HW169029   6.302   8.833   2.634  0.3650 -3.3605  1.3227
19125SOL    HW269030   6.382   8.857   2.775  0.7136  0.8742  0.4820
19126SOL     OW69031   1.608   6.704   4.490 -0.0350 -0.2651 -0.2800
19126SOL    HW169032   1.648   6.618   4.522  0.7926 -0.0575 -0.7379
19126SOL    HW269033   1.509   6.703   4.505  0.5223  0.5515  3.8912
19127SOL     OW69034   6.705   1.581   3.570  0.4470 -0.0977 -0.1880
19127SOL    HW169035   6.661   1.658   3.524  0.2567 -0.6386 -0.9106
19127SOL    HW269036   6.635   1.518   3.603  0.5659  0.4628  1.1558
19128SOL     OW69037   2.577   1.270   2.038 -0.4377  0.1474 -0.3724
19128SOL    HW169038   2.567   1.345   2.103 -0.8096  0.1318 -0.4089
19128SOL    HW269039   2.487   1.242   2.006 -0.2409  0.2934 -1.0505
19129SOL     OW69040   2.357   4.946   7.340  0.1097 -0.0156 -0.4607
19129SOL    HW169041   2.371   4.987   7.430  0.4303 -1.2709  0.0712
19129SOL    HW269042   2.421   4.986   7.274  0.4462  0.3046  0.0605
19130SOL     OW69043   7.994   2.495   7.532 -0.2113  0.1465  0.2903
19130SOL    HW169044   8.037   2.441   7.605 -0.5138  1.3267  1.3689
19130SOL    HW269045   8.039   2.476   7.445  1.2869  0.0201  1.0808
19131SOL     OW69046   1.588   8.051   1.173 -0.9726  0.0094  0.1115
19131SOL    HW169047   1.557   8.143   1.197  0.5383  0.1790  1.5666
19131SOL    HW269048   1.526   7.983   1.212 -1.7710  0.3848 -0.4832
19132SOL     OW69049   5.495   6.822   1.545 -0.2835  0.9282  0.5352
19132SOL    HW169050   5.510   6.880   1.465 -1.2296 -0.1081 -0.4165
19132SOL    HW269051   5.426   6.753   1.524 -0.3333  0.4524  2.1608
19133SOL     OW69052   3.418   2.424   0.739  0.0510  0.0305  0.5993
19133SOL    HW169053   3.432   2.357   0.812 -1.9324 -0.4650  0.5381
19133SOL    HW269054   3.381   2.509   0.778 -1.1888 -0.3000  0.1579
19134SOL     OW69055   8.991   1.217   7.293  0.5522  0.5940 -0.0887
19134SOL    HW169056   9.034   1.143   7.347  0.7381 -0.6842 -1.9552
19134SOL    HW269057   9.012   1.204   7.196 -1.0141  2.0503 -0.6411
19135SOL     OW69058   9.009   3.456   0.052 -0.3143  0.1936 -0.7039
19135SOL    HW169059   9.041   3.510  -0.025 -1.5728 -0.1492 -1.4868
19135SOL    HW269060   9.057   3.368   0.054  2.0104  1.4399  0.7957
19136SOL     OW69061   1.140   1.779   0.436  0.5539 -0.4131 -0.1399
19136SOL    HW169062   1.220   1.834   0.458  2.2905 -3.3972  1.4221
19136SOL    HW269063   1.102   1.807   0.348  2.7183  1.7007 -0.4354
19137SOL     OW69064   2.511   8.565   7.087  0.1366 -0.2537 -0.3135
19137SOL    HW169065   2.493   8.635   7.018  0.0603  0.2293  0.1922
19137SOL    HW269066   2.608   8.565   7.110 -0.2042  1.1086  1.1968
19138SOL     OW69067   0.132   2.669   5.675  0.3103  0.4701  0.3342
19138SOL    HW169068   0.159   2.575   5.696  0.8915  0.9613  1.8060
19138SOL    HW269069   0.035   2.682   5.697  0.0593  0.0462 -0.4858
19139SOL     OW69070   0.654   1.103   5.407  0.0919 -0.0443 -0.5989
19139SOL    HW169071   0.735   1.128   5.353  0.0200 -1.2655 -1.2961
19139SOL    HW269072   0.606   1.029   5.361 -0.6956 -0.2200  0.5015
19140SOL     OW69073   2.258   7.852   5.796  0.3045  0.0317 -0.7663
19140SOL    HW169074   2.276   7.944   5.760 -1.9872  0.5355 -0.6702
19140SOL    HW269075   2.218   7.859   5.887 -1.0306 -1.0278 -1.2633
19141SOL     OW69076   1.724   2.025   7.870 -0.0934 -0.4398  0.0556
19141SOL    HW169077   1.643   1.994   7.921 -0.5893  0.5293 -0.1290
19141SOL    HW269078   1.695   2.083   7.794  0.7532 -0.4249 -0.2584
19142SOL     OW69079   9.865   0.750   4.453  0.4005 -0.0035 -0.0280
19142SOL    HW169080   9.793   0.790   4.397  0.1299  0.1197  0.4055
19142SOL    HW269081   9.836   0.749   4.549 -0.5393 -3.2666 -0.2807
19143SOL     OW69082   2.617   7.090   4.623 -0.1190 -0.3325  0.3337
19143SOL    HW169083   2.610   7.167   4.559  0.5165 -0.0433  0.6083
19143SOL    HW269084   2.702   7.098   4.676  0.2948 -1.5860 -0.1142
19144SOL     OW69085   0.950   1.361   7.783  0.7513 -0.3910 -0.6694
19144SOL    HW169086   1.017   1.347   7.856 -0.9888 -1.4069  0.7655
19144SOL    HW269087   0.860   1.376   7.823  0.0202  0.4742 -2.5950
19145SOL     OW69088   3.207   1.629   4.895 -0.0670 -0.5865  0.4555
19145SOL    HW169089   3.165   1.547   4.856  1.8599 -3.3525  3.9244
19145SOL    HW269090   3.284   1.658   4.838  1.0337 -2.9542  0.6783
19146SOL     OW69091   1.333   7.729   6.981  0.2840  0.0138 -0.1353
19146SOL    HW169092   1.347   7.823   7.012 -0.5842 -0.2360  1.0432
19146SOL    HW269093   1.416   7.696   6.935  0.5003  1.4256 -0.7661
19147SOL     OW69094   0.307   9.067   7.369 -0.3776  0.2113 -0.0221
19147SOL    HW169095   0.385   9.091   7.312 -0.6065  0.7885 -0.0920
19147SOL    HW269096   0.228   9.047   7.312  0.1951 -2.1414 -0.0295
19148SOL     OW69097   1.860   9.236   1.036 -0.3604  0.5067 -0.1529
19148SOL    HW169098   1.820   9.327   1.035 -0.6061  0.4103  0.6804
19148SOL    HW269099   1.817   9.181   1.108 -1.1897 -0.7132 -1.5581
19149SOL     OW69100   1.865   1.194   4.081 -0.6321  0.3753  0.5569
19149SOL    HW169101   1.857   1.096   4.067  1.1036  0.2205  0.5525
19149SOL    HW269102   1.805   1.223   4.155 -0.7685 -0.7663  0.8854
19150SOL     OW69103   9.826   2.187   2.180  0.4326  0.4069 -0.1567
19150SOL    HW169104   9.803   2.105   2.128  0.7275  0.5795 -0.5717
19150SOL    HW269105   9.911   2.226   2.144 -1.2164  2.5107 -1.9322
19151SOL     OW69106   4.351   8.441   3.369 -0.1142 -0.1897  0.0062
19151SOL    HW169107   4.353   8.343   3.387  2.0300  0.4067  3.5150
19151SOL    HW269108   4.271   8.482   3.414 -0.0361 -0.0683  0.0349
19152SOL     OW69109   0.540   2.709   0.220  0.1351 -0.8609 -0.3004
19152SOL    HW169110   0.573   2.757   0.139  1.7227 -1.6611 -0.1528
19152SOL    HW269111   0.441   2.700   0.216  0.0201  0.6757 -1.2824
19153SOL     OW69112   4.381   8.296   5.432  0.3622 -0.1803  0.4084
19153SOL    HW169113   4.427   8.275   5.345  0.7889  2.7078 -0.1362
19153SOL    HW269114   4.283   8.301   5.417  0.5193  1.4697 -0.2111
19154SOL     OW69115   0.440   9.885   3.481 -0.5719  0.0429  0.3087
19154SOL    HW169116   0.521   9.830   3.459 -0.4339  1.1205 -2.0324
19154SOL    HW269117   0.469   9.971   3.523 -0.6248 -0.3004  1.0711
19155SOL     OW69118   8.013   6.183   1.750  0.0584 -0.2723  0.1412
19155SOL    HW169119   7.922   6.214   1.779  0.5953  0.1618  1.3621
19155SOL    HW269120   8.039   6.232   1.667 -0.4308  0.2710  0.3018
19156SOL     OW69121   9.611   1.304   0.007 -0.0600 -0.1647  0.2670
19156SOL    HW169122   9.574   1.317   0.099  0.8586  1.1474  0.4665
19156SOL    HW269123   9.577   1.218  -0.030 -1.2674 -0.2179  1.4270
19157SOL     OW69124   1.546   8.722   2.522  0.0957 -0.4036  0.1289
19157SOL    HW169125   1.491   8.776   2.586  1.9525  1.7945 -0.1004
19157SOL    HW269126   1.498   8.714   2.435  0.1785  1.6601 -0.1285
19158SOL     OW69127   0.561   8.548   3.888  0.2701 -0.5718  0.0062
19158SOL    HW169128   0.627   8.623   3.891  0.7466 -0.8968 -1.4923
19158SOL    HW269129   0.556   8.513   3.794 -0.7559 -1.6917  0.4716
19159SOL     OW69130   8.738   1.589   8.125 -0.0328  0.0222 -0.1755
19159SOL    HW169131   8.765   1.558   8.034  0.4228 -0.1273  0.0113
19159SOL    HW269132   8.759   1.518   8.192  0.3924  0.4639  0.1580
19160SOL     OW69133   5.060   2.215   4.777 -0.3784 -0.1668  0.0791
19160SOL    HW169134   5.095   2.309   4.778 -0.9303  0.0356  0.4545
19160SOL    HW269135   5.102   2.165   4.702  1.8058 -0.3317  1.3670
19161SOL     OW69136   0.513   2.231   0.345 -0.0152 -0.2539 -0.4287
19161SOL    HW169137   0.500   2.135   0.368 -1.4303 -0.0716 -0.4106
19161SOL    HW269138   0.586   2.270   0.402 -1.9923 -0.3519  2.2857
19162SOL     OW69139   9.242   2.410   5.389  0.1436 -0.2730 -0.3075
19162SOL    HW169140   9.172   2.353   5.432  0.7438 -0.3991  0.5170
19162SOL    HW269141   9.205   2.502   5.375 -0.6890 -0.7465 -1.2711
19163SOL     OW69142   2.794   3.934   6.793  0.6936 -0.4461  0.1070
19163SOL    HW169143   2.807   4.021   6.746  1.7130 -0.7930 -0.2597
19163SOL    HW269144   2.847   3.933   6.877  0.9933 -0.8556 -0.0827
19164SOL     OW69145   9.300   9.552   6.357  0.5176 -0.0537  0.2962
19164SOL    HW169146   9.284   9.634   6.413 -1.5240 -0.0624 -0.2156
19164SOL    HW269147   9.278   9.573   6.262  2.1685 -0.5783 -0.2110
19165SOL     OW69148   9.490   2.780   6.969  0.8169  0.1224  0.3826
19165SOL    HW169149   9.397   2.743   6.981  0.5818  0.0013 -1.7057
19165SOL    HW269150   9.542   2.767   7.054 -0.2595 -2.1356  0.7344
19166SOL     OW69151   4.763   2.296   4.962  0.0975  0.2002 -0.4837
19166SOL    HW169152   4.820   2.215   4.977  1.6855  1.1989 -1.0275
19166SOL    HW269153   4.699   2.278   4.888 -0.0947 -0.8163 -0.0889
19167SOL     OW69154   7.103   0.519   3.726 -0.0478 -0.1621 -0.5709
19167SOL    HW169155   7.134   0.523   3.821  3.0225 -3.0875 -1.3299
19167SOL    HW269156   7.057   0.431   3.710 -1.9981  0.9832 -1.4298
19168SOL     OW69157   9.871   3.397   0.958  0.1024  0.1118  0.3228
19168SOL    HW169158   9.802   3.327   0.977  0.3880  0.1047  1.3752
19168SOL    HW269159   9.962   3.357   0.970  0.2646  0.7305  1.1951
19169SOL     OW69160   1.499   1.324   4.627  0.5634  0.3141  0.0889
19169SOL    HW169161   1.467   1.335   4.721 -1.0332  1.7978 -0.5895
19169SOL    HW269162   1.586   1.276   4.627  0.1787 -0.4630  2.2721
19170SOL     OW69163   9.903   6.272   1.633 -0.0493  0.1605  0.4073
19170SOL    HW169164   9.970   6.197   1.628 -0.0185  0.0673  2.0712
19170SOL    HW269165   9.922   6.328   1.713 -0.5001  1.5700 -0.4500
19171SOL     OW69166   1.642   6.073   2.704  0.0113  0.3801  0.2288
19171SOL    HW169167   1.671   6.012   2.777 -3.5036 -1.4285  0.2111
19171SOL    HW269168   1.597   6.154   2.743  0.1438  0.5224  0.0915
19172SOL     OW69169   0.773   4.491   1.705 -0.3169  1.0012  0.4696
19172SOL    HW169170   0.814   4.465   1.617  1.8019  2.0396  1.1039
19172SOL    HW269171   0.687   4.539   1.689 -1.4222 -1.3774 -0.9127
19173SOL     OW69172   9.746   2.667   0.211  0.3180  0.2425  0.3536
19173SOL    HW169173   9.697   2.733   0.269 -1.8028 -0.9324 -0.0418
19173SOL    HW269174   9.843   2.666   0.236 -0.2563  0.9854  2.7140
19174SOL     OW69175   1.372   6.556   7.412 -0.4174  0.1645  0.2211
19174SOL    HW169176   1.293   6.538   7.470  0.5057 -1.9018  0.8954
19174SOL    HW269177   1.442   6.603   7.466 -0.2548 -0.1680  0.3038
19175SOL     OW69178   8.798   6.163   1.650  0.3707 -0.1891  0.5851
19175SOL    HW169179   8.781   6.064   1.655  1.3691 -0.2694  2.7328
19175SOL    HW269180   8.753   6.209   1.727 -1.6697  1.3013 -1.4169
19176SOL     OW69181   2.668   1.469   7.125 -0.2239 -0.2216 -0.4201
19176SOL    HW169182   2.731   1.533   7.168  1.3289 -1.7306 -0.3903
19176SOL    HW269183   2.712   1.379   7.118 -1.4209 -0.6628 -2.7244
19177SOL     OW69184   8.574   3.796   1.554 -0.3142  0.6086  0.2959
19177SOL    HW169185   8.597   3.890   1.579 -0.9897  0.7667  0.3480
19177SOL    HW269186   8.536   3.794   1.462 -0.2762  0.3849  0.2855
19178SOL     OW69187   9.016   7.548   7.218 -0.0229  0.3758  0.0671
19178SOL    HW169188   9.087   7.615   7.236  0.1838 -0.3814  2.1741
19178SOL    HW269189   8.927   7.587   7.240  0.1671 -0.2908  2.1497
19179SOL     OW69190   4.661   6.330   8.194 -0.2914  0.5329 -0.3524
19179SOL    HW169191   4.562   6.320   8.203 -0.1282  0.2642  1.2857
19179SOL    HW269192   4.687   6.319   8.098 -1.8094  0.3250 -0.7510
19180SOL     OW69193   2.529   4.545   0.024  0.3989  0.2664  0.0917
19180SOL    HW169194   2.454   4.481   0.010 -0.9072  1.4493  1.5331
19180SOL    HW269195   2.578   4.522   0.108  1.8181 -0.6518 -0.9744
19181SOL     OW69196   5.835   9.925   5.325  0.1148 -0.5720  0.1094
19181SOL    HW169197   5.919   9.948   5.375  0.4757 -1.7140  0.0464
19181SOL    HW269198   5.808  10.003   5.268  1.7854 -0.5844 -0.7520
19182SOL     OW69199   4.772   1.842   0.040 -0.3488 -0.0955 -0.1674
19182SOL    HW169200   4.801   1.937   0.036  1.1739 -0.5549 -0.2359
19182SOL    HW269201   4.807   1.793  -0.040  0.2038 -1.0769  0.6622
19183SOL     OW69202   7.812   0.277   1.559 -0.7806  0.1999  0.4405
19183SOL    HW169203   7.844   0.266   1.464 -1.1948  0.1455  0.3064
19183SOL    HW269204   7.837   0.196   1.612  0.3060  0.6455  0.6219
19184SOL     OW69205   9.386   6.484   4.993  0.3160 -0.0848  0.4208
19184SOL    HW169206   9.316   6.514   4.928 -0.5195 -2.6596  0.0939
19184SOL    HW269207   9.441   6.412   4.951  0.5742 -0.8997  2.1237
19185SOL     OW69208   9.870   0.504   5.768 -0.1711  1.0153  0.1982
19185SOL    HW169209   9.963   0.496   5.803 -0.4091 -0.2726  0.5442
19185SOL    HW269210   9.873   0.525   5.670  0.4789  0.9591  0.2037
19186SOL     OW69211   0.497   1.674   1.806  0.1467  0.2592 -0.5144
19186SOL    HW169212   0.420   1.637   1.754 -0.5360  1.3667 -0.3063
19186SOL    HW269213   0.571   1.607   1.808 -0.9270 -0.9404 -0.4492
19187SOL     OW69214   0.817   5.914   3.608  0.0415  0.0981 -0.0472
19187SOL    HW169215   0.737   5.854   3.599 -0.1937  0.3776  0.1454
19187SOL    HW269216   0.826   5.968   3.524 -0.1174  0.2418  0.0274
19188SOL     OW69217   9.383   0.773   2.818 -0.5511 -0.7603 -0.5936
19188SOL    HW169218   9.319   0.809   2.886 -0.2755 -0.1538 -0.6584
19188SOL    HW269219   9.470   0.751   2.863  0.2613  1.3726 -1.0721
19189SOL     OW69220   3.073   3.313   5.808 -0.3306  0.5679 -0.0342
19189SOL    HW169221   3.132   3.234   5.822 -1.3210 -0.5539 -2.0416
19189SOL    HW269222   3.080   3.345   5.714 -2.8237  0.4836 -0.2992
19190SOL     OW69223   2.477   6.155   7.863 -0.2212  0.7185 -0.4247
19190SOL    HW169224   2.418   6.207   7.925  0.0261  0.1630  0.2906
19190SOL    HW269225   2.514   6.076   7.912 -1.1075 -0.4835 -1.6961
19191SOL     OW69226   9.302   7.277   7.552 -0.4745  0.2173  0.1252
19191SOL    HW169227   9.217   7.224   7.561 -2.1538  2.3540 -2.4356
19191SOL    HW269228   9.297   7.357   7.612  0.0904 -0.0551  0.5427
19192SOL     OW69229   9.385   7.115   4.364 -0.8888  0.3409 -0.1692
19192SOL    HW169230   9.421   7.047   4.429 -1.2924 -0.8324 -1.1610
19192SOL    HW269231   9.326   7.179   4.413  0.9249  1.0754  1.1086
19193SOL     OW69232   9.814   6.918   2.644  0.2849 -0.8210  0.4511
19193SOL    HW169233   9.863   7.004   2.629 -0.6945 -0.5734 -1.4342
19193SOL    HW269234   9.878   6.842   2.640  0.6851 -0.4155 -0.9810
19194SOL     OW69235   7.686   5.079   2.679  0.4799  0.7980 -0.0366
19194SOL    HW169236   7.620   5.152   2.696  0.5648  1.1662 -1.2963
19194SOL    HW269237   7.688   5.017   2.758  0.4284  2.1652  1.0510
19195SOL     OW69238   5.308   8.111   3.919 -0.2814  0.0599 -0.0664
19195SOL    HW169239   5.303   8.160   4.006 -0.3321  0.2091 -0.1512
19195SOL    HW269240   5.344   8.173   3.849 -0.2971 -0.0417 -0.1645
19196SOL     OW69241   8.912   7.623   1.734 -0.2813  0.0783 -0.4405
19196SOL    HW169242   8.828   7.611   1.786  0.7530 -1.4678  0.9442
19196SOL    HW269243   8.965   7.699   1.773 -0.4173  0.1889 -0.4722
19197SOL     OW69244   2.018   2.518   5.230 -0.2280 -0.2399  0.2205
19197SOL    HW169245   2.100   2.567   5.200 -0.7123  1.0329  0.8841
19197SOL    HW269246   1.954   2.509   5.154  0.4652 -1.0892 -0.2567
19198SOL     OW69247   0.100   4.038   1.848  0.3143  0.1151  0.3607
19198SOL    HW169248   0.139   4.095   1.920  0.3698  1.3440 -0.6062
19198SOL    HW269249   0.170   4.016   1.781  0.3310 -1.2597  0.8152
19199SOL     OW69250   3.391   5.916   0.019  0.2735  0.6189  0.4514
19199SOL    HW169251   3.376   5.883  -0.074  1.6203 -1.2406  0.8732
19199SOL    HW269252   3.305   5.911   0.070 -0.1086  0.1536 -0.2271
19200SOL     OW69253   8.149   2.704   2.197  0.0851 -0.3038  0.0644
19200SOL    HW169254   8.131   2.769   2.124 -0.8797 -0.6669 -0.0184
19200SOL    HW269255   8.094   2.622   2.184  1.2806 -1.1464  0.1705
19201SOL     OW69256   8.599   8.117   3.597 -0.3000  0.3814 -0.4220
19201SOL    HW169257   8.549   8.133   3.682  0.0625  1.1067 -0.3426
19201SOL    HW269258   8.684   8.067   3.617 -2.0085 -2.7961 -0.8124
19202SOL     OW69259   9.673   7.039   5.465  0.3404  0.0852 -0.3986
19202SOL    HW169260   9.672   7.008   5.560 -0.0935 -1.1251 -0.7882
19202SOL    HW269261   9.591   7.007   5.418  0.4021  0.9379 -1.1028
19203SOL     OW69262   1.625   9.428   0.183  0.4659  0.2739 -0.4395
19203SOL    HW169263   1.586   9.345   0.144 -0.5973  0.4436  0.2591
19203SOL    HW269264   1.554   9.480   0.229  1.6714  0.1832  1.5716
19204SOL     OW69265   6.229   9.171   5.778  0.4919 -0.3899  0.7989
19204SOL    HW169266   6.200   9.198   5.686 -2.5247 -0.0471  1.7927
19204SOL    HW269267   6.296   9.237   5.812 -0.3370  1.0025 -0.1779
19205SOL     OW69268   7.279   1.348   1.612  0.2837  0.1132  0.4450
19205SOL    HW169269   7.258   1.438   1.574  0.9091  0.0363 -0.1013
19205SOL    HW269270   7.377   1.329   1.601 -0.0684 -1.1706 -0.5944
19206SOL     OW69271   4.252   6.390   0.703 -0.2476 -0.3157 -0.3435
19206SOL    HW169272   4.187   6.350   0.638 -0.6491 -0.0077 -0.1393
19206SOL    HW269273   4.202   6.420   0.785  0.1558 -0.0984 -0.1765
19207SOL     OW69274   7.939   1.112   1.749  0.5046 -0.6252 -0.4059
19207SOL    HW169275   8.014   1.177   1.762 -0.7376  0.8352 -0.3237
19207SOL    HW269276   7.918   1.067   1.836 -0.7334  1.2576  0.3159
19208SOL     OW69277   5.752   9.481   5.294 -0.1877 -0.2122  0.7762
19208SOL    HW169278   5.801   9.515   5.374  2.1786  0.3371 -0.8643
19208SOL    HW269279   5.759   9.381   5.290 -0.3646 -0.2461  1.2844
19209SOL     OW69280   7.303   9.253   5.971  0.2133  0.4199 -0.0099
19209SOL    HW169281   7.263   9.310   5.899  0.8680 -1.4489 -1.8933
19209SOL    HW269282   7.231   9.215   6.028 -0.6024 -1.0527 -1.9696
19210SOL     OW69283   3.720   5.128   0.212  0.5369  0.4724  0.3969
19210SOL    HW169284   3.779   5.047   0.213 -0.7473 -0.5426 -1.7999
19210SOL    HW269285   3.631   5.104   0.250  0.2698  0.9441  0.0705
19211SOL     OW69286   8.956   3.773   4.343 -0.1085  0.8564  0.0572
19211SOL    HW169287   8.922   3.792   4.251 -1.6491  0.7825  0.6030
19211SOL    HW269288   9.050   3.738   4.337 -0.6502 -0.3800 -1.5727
19212SOL     OW69289   7.915   2.019   6.010 -0.1974  0.2442  0.1470
19212SOL    HW169290   7.933   2.012   5.912 -1.2381 -1.2908  0.0490
19212SOL    HW269291   7.996   2.057   6.056  1.1878 -1.2420 -1.0003
19213SOL     OW69292   4.167   6.027   3.490  0.4704 -0.6197 -0.2141
19213SOL    HW169293   4.128   5.984   3.572  1.1383  1.0771  1.0316
19213SOL    HW269294   4.266   6.026   3.495  0.5056  0.2599 -0.5879
19214SOL     OW69295   4.575   7.646   2.602  0.1186 -0.5836  0.7119
19214SOL    HW169296   4.523   7.711   2.547 -0.9718 -0.5536  1.7675
19214SOL    HW269297   4.633   7.591   2.542 -3.5023 -2.8197 -0.8883
19215SOL     OW69298   5.555   1.229   7.870  0.5509  0.0130  0.4698
19215SOL    HW169299   5.522   1.141   7.837 -0.0788  0.1050  0.8558
19215SOL    HW269300   5.479   1.281   7.910  0.3734  1.7589 -1.9906
19216SOL     OW69301   5.324   3.751   0.501  0.8119  0.0707 -0.4564
19216SOL    HW169302   5.288   3.812   0.573  2.2635  0.7086 -0.2659
19216SOL    HW269303   5.418   3.726   0.522  1.2519  0.2534 -2.1495
19217SOL     OW69304   7.790   9.006   6.550 -0.0118  0.0341  0.2297
19217SOL    HW169305   7.875   8.954   6.545  0.8574  1.5035 -0.4123
19217SOL    HW269306   7.712   8.943   6.542  1.0165 -1.2171 -0.0943
19218SOL     OW69307   1.922   7.538   1.381 -0.4287  0.2831  0.2759
19218SOL    HW169308   1.990   7.572   1.445 -0.2057 -1.5570  1.0376
19218SOL    HW269309   1.868   7.465   1.424  1.5612 -2.9650 -2.4753
19219SOL     OW69310   9.582   7.333   2.543 -0.1557 -0.0614  0.0487
19219SOL    HW169311   9.582   7.418   2.595 -0.9252  0.8259 -1.3605
19219SOL    HW269312   9.628   7.348   2.455 -0.6377 -0.9922 -0.3678
19220SOL     OW69313   2.269   7.842   0.662  0.2226  0.1997 -0.0823
19220SOL    HW169314   2.290   7.920   0.603 -1.8806  0.9106  0.0411
19220SOL    HW269315   2.231   7.768   0.606 -0.3351  0.3021  0.1560
19221SOL     OW69316   8.516   1.992   5.213  0.4886  0.0797 -0.0103
19221SOL    HW169317   8.543   1.900   5.241  0.6001 -0.5722 -2.1721
19221SOL    HW269318   8.527   2.001   5.114  0.4957  2.4343  0.1865
19222SOL     OW69319   3.177   3.651   7.598  0.2759 -0.2033  0.1616
19222SOL    HW169320   3.201   3.726   7.660  0.5651  0.2157 -0.4536
19222SOL    HW269321   3.156   3.688   7.508 -1.2557 -0.7049  0.3062
19223SOL     OW69322   4.106   2.824   4.452 -0.4949 -0.2075  0.6278
19223SOL    HW169323   4.146   2.875   4.375 -1.4605 -1.1012 -0.4735
19223SOL    HW269324   4.129   2.727   4.443  1.0673 -0.0560  2.5483
19224SOL     OW69325   2.856   7.900   2.222 -0.0857 -0.4010 -0.1568
19224SOL    HW169326   2.826   7.805   2.227 -1.2672  0.0418  1.5542
19224SOL    HW269327   2.796   7.949   2.158  0.7960 -0.8837 -1.3782
19225SOL     OW69328   8.436   2.148   3.579  0.2057 -0.1141  0.3868
19225SOL    HW169329   8.338   2.162   3.565  0.2851 -0.3056 -0.3483
19225SOL    HW269330   8.486   2.171   3.496  0.6963 -0.9777  0.4314
19226SOL     OW69331   8.581   1.379   6.533 -0.1043  0.2202 -0.4321
19226SOL    HW169332   8.511   1.311   6.510 -1.6687  2.0585 -1.3230
19226SOL    HW269333   8.605   1.431   6.451  0.4419  1.2944  0.3941
19227SOL     OW69334   0.985   8.557   4.789  0.4027 -1.1870 -0.0774
19227SOL    HW169335   1.067   8.603   4.824  0.5043 -1.6193  0.2601
19227SOL    HW269336   1.010   8.465   4.756  0.4175 -0.5789 -1.8304
19228SOL     OW69337   9.048   0.257   7.462 -0.0646  0.3985  0.2537
19228SOL    HW169338   9.066   0.173   7.513  0.0197  0.6324  0.6076
19228SOL    HW269339   9.050   0.238   7.364 -0.7614 -0.1657  0.3439
19229SOL     OW69340   3.324   4.088   5.103 -0.3769  0.1878  0.0115
19229SOL    HW169341   3.249   4.026   5.126  0.2044 -0.8689 -0.8920
19229SOL    HW269342   3.330   4.161   5.172 -1.2193 -0.6186  0.9447
19230SOL     OW69343   7.928   9.225   1.515  0.2179 -0.0634  0.2306
19230SOL    HW169344   7.974   9.289   1.455  0.7283 -1.3693 -0.7821
19230SOL    HW269345   7.960   9.238   1.609  1.1643  0.3759 -0.1517
19231SOL     OW69346   9.988   3.789   5.290  0.2413  0.3457 -0.2684
19231SOL    HW169347   9.955   3.855   5.223 -0.7383 -0.9990 -1.1321
19231SOL    HW269348  10.086   3.773   5.277  0.0043 -0.1020 -1.5686
19232SOL     OW69349   9.879   6.365   7.362  0.0734 -0.2074 -0.1144
19232SOL    HW169350   9.786   6.342   7.336 -0.1198  1.3100 -0.8217
19232SOL    HW269351   9.885   6.374   7.462 -0.5390 -0.2716 -0.0742
19233SOL     OW69352   0.605   3.882   2.943 -0.1307 -0.0918  0.0100
19233SOL    HW169353   0.578   3.870   2.847 -1.0083 -0.2743  0.2751
19233SOL    HW269354   0.559   3.814   3.000 -0.0318  0.3490  0.6319
19234SOL     OW69355   8.805   9.409   4.201 -0.1657 -0.0317 -0.1043
19234SOL    HW169356   8.788   9.349   4.279  0.3008  1.8579  1.4943
19234SOL    HW269357   8.719   9.453   4.174 -0.3364 -0.7235 -0.7146
19235SOL     OW69358   0.137   1.752   0.345  0.2398 -0.0482 -0.6064
19235SOL    HW169359   0.212   1.765   0.281 -0.4968 -0.0871 -1.4961
19235SOL    HW269360   0.126   1.655   0.365  1.9992  0.1453  1.4679
19236SOL     OW69361   1.131   9.263   2.800  0.5574 -0.4574  0.2208
19236SOL    HW169362   1.139   9.259   2.899 -0.5538 -1.2399  0.2859
19236SOL    HW269363   1.039   9.236   2.772  0.1931  1.8762 -0.9048
19237SOL     OW69364   8.945   7.294   1.499  0.5026 -0.1056 -0.8073
19237SOL    HW169365   8.935   7.195   1.499 -1.0388  0.0356 -0.4125
19237SOL    HW269366   9.028   7.319   1.549  0.6261 -1.1722 -0.4691
19238SOL     OW69367   7.423   8.815   2.485  0.1207  0.2571 -0.4883
19238SOL    HW169368   7.415   8.733   2.429 -0.6871  0.5748 -0.8427
19238SOL    HW269369   7.428   8.789   2.582  1.1201 -0.2686 -0.6756
19239SOL     OW69370   9.170   3.051   2.159 -0.4818 -0.2305  0.1755
19239SOL    HW169371   9.101   3.023   2.093 -1.7101  0.8497  0.9733
19239SOL    HW269372   9.133   3.042   2.252  0.8458 -0.7218  0.6682
19240SOL     OW69373   0.649   6.561   3.651 -0.1271  0.6746 -0.1540
19240SOL    HW169374   0.633   6.659   3.668 -2.0361  0.5790 -1.2284
19240SOL    HW269375   0.590   6.531   3.576  1.9305 -0.8355 -1.2248
19241SOL     OW69376   2.295   3.085   5.036  0.5866  0.4406 -0.0959
19241SOL    HW169377   2.256   3.117   5.122  0.8867 -0.6847  0.4638
19241SOL    HW269378   2.222   3.073   4.969  0.4247  1.9328 -0.2157
19242SOL     OW69379   9.198   5.046   3.961 -0.1930 -0.0776  0.4479
19242SOL    HW169380   9.105   5.036   3.996  0.5849 -2.9249  1.8575
19242SOL    HW269381   9.219   4.971   3.899  1.0800  0.7010 -0.0860
19243SOL     OW69382   5.534   0.422   5.423 -0.3691  0.0446 -0.1709
19243SOL    HW169383   5.520   0.519   5.405 -0.1677  0.2142  0.5595
19243SOL    HW269384   5.512   0.369   5.341 -1.9157  0.5927 -0.1430
19244SOL     OW69385   2.418   3.218   1.160  0.3436 -0.4617 -0.2198
19244SOL    HW169386   2.381   3.277   1.233  2.1534  0.0693  0.2824
19244SOL    HW269387   2.495   3.263   1.116  0.6104 -1.7025 -1.0462
19245SOL     OW69388   8.414   8.982   4.150 -0.1712  0.1348  0.1941
19245SOL    HW169389   8.452   9.012   4.237 -1.2233  0.1424  0.6655
19245SOL    HW269390   8.428   9.053   4.081  1.7958 -0.4011  0.0241
19246SOL     OW69391   5.115   1.326   6.241  0.2975 -0.0939 -0.1052
19246SOL    HW169392   5.108   1.382   6.323  1.1401  0.6293 -0.5179
19246SOL    HW269393   5.199   1.350   6.192  0.6210 -1.6643 -0.3243
19247SOL     OW69394   5.185   1.482   4.255  0.8558  0.3705 -0.0033
19247SOL    HW169395   5.114   1.520   4.314  1.1825  0.4076  0.3715
19247SOL    HW269396   5.176   1.520   4.163 -1.3796 -1.7804 -0.7402
19248SOL     OW69397   6.742   0.351   4.209 -0.4069 -0.6976 -0.1782
19248SOL    HW169398   6.691   0.438   4.208 -0.4918 -0.7375  0.4920
19248SOL    HW269399   6.836   0.368   4.180 -0.3023 -0.2989  0.3783
19249SOL     OW69400   9.574   3.696   1.021 -0.4115  0.0866 -0.3877
19249SOL    HW169401   9.672   3.677   1.013 -0.3384 -0.0634  0.8541
19249SOL    HW269402   9.550   3.772   0.960  0.3143 -0.4272 -1.3226
19250SOL     OW69403   2.275   1.525   7.888 -0.3447  0.2917  0.1852
19250SOL    HW169404   2.304   1.603   7.833 -0.5496 -1.2266 -2.1373
19250SOL    HW269405   2.177   1.510   7.877  0.0202 -1.4573 -0.9743
19251SOL     OW69406   1.345   3.046   3.583 -0.2915  0.1098 -0.4083
19251SOL    HW169407   1.412   3.086   3.520 -0.8813  0.7662 -0.6340
19251SOL    HW269408   1.263   3.104   3.584 -0.2689  0.1268  0.9901
19252SOL     OW69409   3.049   7.506   1.086 -0.6765 -0.6919  0.3014
19252SOL    HW169410   2.999   7.503   0.999 -0.5821 -1.8946  0.2748
19252SOL    HW269411   3.031   7.592   1.132 -0.9868 -0.1701 -0.7652
19253SOL     OW69412   7.796   5.382   2.476  0.2755  0.0258 -0.0851
19253SOL    HW169413   7.892   5.392   2.503  0.1874  0.9884 -0.1284
19253SOL    HW269414   7.753   5.472   2.470 -0.2757 -0.3144 -1.3845
19254SOL     OW69415   8.837   7.345   4.059  1.1887 -0.3729 -0.0159
19254SOL    HW169416   8.744   7.357   4.094  0.6746 -0.1627 -1.4228
19254SOL    HW269417   8.835   7.339   3.960  2.4607 -2.3847  0.0392
19255SOL     OW69418   3.252   8.013   0.153 -0.3142 -0.0613  0.3073
19255SOL    HW169419   3.301   8.061   0.226  0.8181 -1.3494  0.4119
19255SOL    HW269420   3.301   7.929   0.130 -1.2180 -0.1815 -1.2293
19256SOL     OW69421   4.019   4.484   0.245  0.3083  0.3746 -0.1956
19256SOL    HW169422   4.051   4.443   0.330  1.1552 -0.5513 -0.9469
19256SOL    HW269423   3.919   4.490   0.246  0.3742  1.3220  1.2891
19257SOL     OW69424   8.418   0.535   4.952 -0.6441  0.1392 -0.1662
19257SOL    HW169425   8.504   0.483   4.953 -0.9795 -0.4008  1.6383
19257SOL    HW269426   8.341   0.471   4.959 -1.0352  0.8806  3.0641
19258SOL     OW69427   8.012   4.272   1.171  0.6896 -0.1971 -0.0613
19258SOL    HW169428   7.916   4.262   1.197  0.2376  0.8461 -1.2716
19258SOL    HW269429   8.064   4.310   1.247  0.1701 -0.8698  0.6376
19259SOL     OW69430   1.338   5.042   4.058  0.5096 -0.2747 -0.4495
19259SOL    HW169431   1.355   5.105   3.981 -1.9586  0.4114 -0.4706
19259SOL    HW269432   1.252   4.993   4.043 -1.1404  1.4314  2.8622
19260SOL     OW69433   0.731   8.652   7.821  0.2846  0.3134 -0.2794
19260SOL    HW169434   0.656   8.715   7.802 -0.3990 -0.5442 -0.4624
19260SOL    HW269435   0.796   8.654   7.745 -0.0393  0.3516 -0.5565
19261SOL     OW69436   4.434   0.456   6.929  0.2675 -0.3069  0.9871
19261SOL    HW169437   4.372   0.417   6.862 -0.3762 -0.9007  1.9089
19261SOL    HW269438   4.526   0.465   6.890 -0.4699  0.9650 -0.5296
19262SOL     OW69439   3.737   4.849   1.549 -0.0651  0.4557 -0.0779
19262SOL    HW169440   3.797   4.800   1.487  0.5243 -0.3336  1.0899
19262SOL    HW269441   3.645   4.808   1.546  0.0070  0.3136 -0.3000
19263SOL     OW69442   8.585   1.773   0.184 -0.3278  0.2596 -0.3412
19263SOL    HW169443   8.682   1.756   0.173 -0.0077  1.3291  0.7637
19263SOL    HW269444   8.556   1.842   0.118 -0.0290  0.9955  0.2910
19264SOL     OW69445   2.388   7.684   4.587  0.1190 -0.1481  0.0310
19264SOL    HW169446   2.363   7.724   4.675  0.2579 -0.3013  0.1378
19264SOL    HW269447   2.422   7.756   4.527 -1.3417  0.2232 -0.3934
19265SOL     OW69448   6.234   3.812   1.855 -0.3223 -0.3062 -0.0280
19265SOL    HW169449   6.281   3.802   1.943 -2.2176  1.8122  1.2928
19265SOL    HW269450   6.165   3.740   1.847 -1.4532  0.6279  1.1135
19266SOL     OW69451   4.935   7.643   1.476  0.1116  0.1131  0.5796
19266SOL    HW169452   4.937   7.589   1.392  1.1304 -0.5690  1.0283
19266SOL    HW269453   4.917   7.739   1.454 -1.8323 -0.4298 -0.2163
19267SOL     OW69454   1.792   9.924   1.094  0.2886 -0.1497 -0.0625
19267SOL    HW169455   1.693   9.914   1.078  0.3168 -0.1079 -0.2604
19267SOL    HW269456   1.837   9.950   1.009  0.6366 -1.3922 -0.2706
19268SOL     OW69457   5.379   3.701   0.111  0.1062  0.1375 -0.0076
19268SOL    HW169458   5.301   3.761   0.099  0.2405  0.4518  0.6868
19268SOL    HW269459   5.361   3.637   0.186  0.5043  0.1966  0.1399
19269SOL     OW69460   6.739   5.569   8.041  0.7671 -0.7167  0.2539
19269SOL    HW169461   6.813   5.634   8.059  0.1838 -0.0804  0.3952
19269SOL    HW269462   6.673   5.611   7.978 -0.5807 -0.4618  1.8295
19270SOL     OW69463   9.244   9.118   5.289  0.0003  0.2688 -0.0376
19270SOL    HW169464   9.155   9.120   5.243 -0.2975  1.6908  0.5432
19270SOL    HW269465   9.231   9.142   5.385  1.2106  2.2813 -0.3500
19271SOL     OW69466   0.919   7.473   0.289  0.2155  0.2980 -0.4158
19271SOL    HW169467   0.896   7.379   0.312  1.1690 -0.5137 -2.5617
19271SOL    HW269468   0.837   7.530   0.293 -0.1837 -0.3971  1.8485
19272SOL     OW69469   9.916   5.428   7.657  0.2355 -0.1204  1.0097
19272SOL    HW169470   9.901   5.385   7.568  0.8134  0.5621  0.5735
19272SOL    HW269471   9.858   5.509   7.665  1.7448  1.0542  0.3600
19273SOL     OW69472   0.380   2.621   1.651 -0.0526 -0.2073 -0.3529
19273SOL    HW169473   0.356   2.546   1.588 -1.6812  1.1246 -1.3576
19273SOL    HW269474   0.301   2.642   1.708  0.7651  0.0063  0.7011
19274SOL     OW69475   2.918   1.953   7.635 -0.0730 -0.4254  0.1280
19274SOL    HW169476   2.983   1.893   7.588  1.7851  1.6323 -0.0025
19274SOL    HW269477   2.921   2.044   7.594 -0.8271  0.5183  2.0963
19275SOL     OW69478   1.636   0.939   3.968  0.3621 -0.1147  0.2185
19275SOL    HW169479   1.583   0.859   3.994  0.1524  0.0447  0.2820
19275SOL    HW269480   1.575   1.011   3.935  0.7096 -0.7083 -1.7702
19276SOL     OW69481   8.612   1.253   3.008  0.2207 -0.3004  0.0360
19276SOL    HW169482   8.565   1.340   3.010 -1.2482 -1.1020  0.9935
19276SOL    HW269483   8.709   1.266   3.029  0.0128  1.0882  0.1231
19277SOL     OW69484   7.463   1.369   2.123 -0.0417 -0.0849  0.3661
19277SOL    HW169485   7.438   1.409   2.211  0.4442  0.1185  0.4130
19277SOL    HW269486   7.388   1.313   2.089  0.4486 -1.6181  1.7483
19278SOL     OW69487   7.715   5.459   7.079  0.0132  0.1936 -0.5603
19278SOL    HW169488   7.720   5.359   7.083  0.1331  0.1618 -1.3229
19278SOL    HW269489   7.716   5.496   7.171 -2.0665 -0.6179 -0.1719
19279SOL     OW69490   4.001   3.998   5.305  0.9517  0.5803 -0.2515
19279SOL    HW169491   3.988   4.090   5.343  0.0387  1.0259 -1.6144
19279SOL    HW269492   3.934   3.936   5.346  0.3228  0.9450 -0.7092
19280SOL     OW69493   1.698   8.270   7.195 -0.3077  0.5568  0.7320
19280SOL    HW169494   1.783   8.298   7.240  0.5195  0.3987 -0.7222
19280SOL    HW269495   1.678   8.332   7.119 -1.3110  0.3879  0.8598
19281SOL     OW69496   9.091   5.243   2.237  0.4239  0.0674 -0.1446
19281SOL    HW169497   9.130   5.321   2.286  0.6265  0.3824 -0.8058
19281SOL    HW269498   9.003   5.219   2.278 -0.3019  1.5231 -0.8013
19282SOL     OW69499   5.220   0.758   6.450  0.2847 -0.1939 -0.4478
19282SOL    HW169500   5.289   0.750   6.377  2.3449 -0.0472  1.4133
19282SOL    HW269501   5.167   0.674   6.454  1.8891 -1.2329 -0.4452
19283SOL     OW69502   6.414   6.384   0.681 -0.1080 -0.2149 -0.2746
19283SOL    HW169503   6.387   6.473   0.717  0.4888 -0.5521  1.0329
19283SOL    HW269504   6.342   6.349   0.622 -1.2203  0.2535  0.7801
19284SOL     OW69505   1.466   6.986   4.128  1.0919  0.5362 -0.5372
19284SOL    HW169506   1.390   7.003   4.066  0.2804  2.5400  0.9510
19284SOL    HW269507   1.437   6.919   4.197  1.1425  0.2309 -0.8126
19285SOL     OW69508   2.278   5.816   3.358  0.6892 -0.3167  0.0500
19285SOL    HW169509   2.244   5.878   3.287 -1.7592 -0.6840  0.8410
19285SOL    HW269510   2.344   5.865   3.416  0.3096  0.9386 -0.5526
19286SOL     OW69511   7.682   0.835   2.240  0.1354 -0.6051  0.0526
19286SOL    HW169512   7.680   0.882   2.328 -0.1879  0.6556 -0.6174
19286SOL    HW269513   7.655   0.740   2.253 -0.5445 -0.2689  1.2164
19287SOL     OW69514   9.029   8.894   3.259  0.0423  0.7578 -0.1486
19287SOL    HW169515   9.110   8.952   3.244  0.7448 -0.2635 -0.3222
19287SOL    HW269516   9.009   8.842   3.176  1.0827 -1.3269  0.8651
19288SOL     OW69517   7.726   4.413   6.116  0.0297 -0.4351  0.0483
19288SOL    HW169518   7.793   4.471   6.070  0.0403 -0.5715 -0.1074
19288SOL    HW269519   7.768   4.371   6.197  0.1838 -0.6533 -0.1429
19289SOL     OW69520   0.432   8.555   1.288 -0.0113  0.2583  0.2202
19289SOL    HW169521   0.395   8.634   1.338 -0.6159 -0.1442  0.4081
19289SOL    HW269522   0.357   8.496   1.258  0.4848 -0.6215  0.6984
19290SOL     OW69523   9.657   1.218   3.678 -0.2841 -0.6474  0.1645
19290SOL    HW169524   9.696   1.300   3.720 -0.6912 -0.7235  0.7004
19290SOL    HW269525   9.722   1.143   3.687  1.0232  0.1460 -2.2745
19291SOL     OW69526   8.881   6.554   1.746  0.6673  0.0811  0.3982
19291SOL    HW169527   8.961   6.614   1.746  0.6507  0.1041  1.1014
19291SOL    HW269528   8.845   6.547   1.652  2.4518 -1.2230 -0.2047
19292SOL     OW69529   8.637   7.076   6.692  0.0611 -0.3924  0.3275
19292SOL    HW169530   8.618   7.161   6.643 -1.4559 -1.0065 -0.2056
19292SOL    HW269531   8.703   7.093   6.765  0.4171  1.0607 -0.3159
19293SOL     OW69532   2.031   8.808   7.918  0.1502  0.0038 -0.4379
19293SOL    HW169533   1.974   8.889   7.935  1.0648  0.4540  0.5431
19293SOL    HW269534   2.009   8.771   7.827 -0.7939  0.9171 -0.6025
19294SOL     OW69535   7.094   1.875   0.930  0.4883 -1.0144 -0.6787
19294SOL    HW169536   7.093   1.945   0.858 -1.0181  1.1993  1.4439
19294SOL    HW269537   7.033   1.801   0.904 -1.5869  0.6926 -0.8417
19295SOL     OW69538   2.906   6.985   6.816  0.0558 -0.6322 -0.2589
19295SOL    HW169539   2.846   6.964   6.739 -0.5177  0.6000 -0.1706
19295SOL    HW269540   2.990   6.931   6.809 -0.4178 -1.2658 -1.1968
19296SOL     OW69541   2.973   7.880   5.362  0.2009 -0.1564  0.1225
19296SOL    HW169542   3.045   7.821   5.401 -0.5705 -0.7109  0.7199
19296SOL    HW269543   2.883   7.843   5.385 -0.2865  0.6106 -0.5126
19297SOL     OW69544   0.245   3.194   7.310 -0.5317  0.2677  0.3694
19297SOL    HW169545   0.187   3.264   7.352 -0.4464  0.7764 -0.3382
19297SOL    HW269546   0.341   3.224   7.313 -0.0609 -1.3330  3.0738
19298SOL     OW69547   2.547   9.143   7.258  0.4422  0.1058 -0.2467
19298SOL    HW169548   2.614   9.080   7.297 -0.7719 -0.4748  0.9718
19298SOL    HW269549   2.532   9.219   7.321 -0.0186  0.2413 -0.5156
19299SOL     OW69550   1.842   6.143   0.155 -0.4193 -0.2293  0.4148
19299SOL    HW169551   1.888   6.063   0.193 -0.7072 -0.2064  0.8204
19299SOL    HW269552   1.745   6.122   0.142  0.0187 -0.8393 -2.0147
19300SOL     OW69553   6.120   1.725   3.315 -0.5294  0.2512  0.2447
19300SOL    HW169554   6.144   1.698   3.409 -2.4227 -1.4766  0.2711
19300SOL    HW269555   6.145   1.820   3.301  0.6498  0.2693  2.2099
19301SOL     OW69556   9.959   8.370   1.972 -0.2033 -0.5009  0.2203
19301SOL    HW169557   9.873   8.420   1.977  0.4678  0.5093  2.1624
19301SOL    HW269558  10.033   8.428   2.006  0.9424 -2.0512  0.4066
19302SOL     OW69559   9.931   9.195   5.186 -0.6245 -0.1342  0.1088
19302SOL    HW169560  10.000   9.249   5.234  0.5093 -0.9461 -0.5778
19302SOL    HW269561   9.881   9.138   5.251 -0.0420 -0.1930  0.5018
19303SOL     OW69562   8.217   6.898   4.637  0.2389 -0.4152  0.0601
19303SOL    HW169563   8.248   6.856   4.722 -1.1201 -0.3512  0.6066
19303SOL    HW269564   8.292   6.903   4.572  1.1618 -0.9186  1.0868
19304SOL     OW69565   0.116   7.625   0.451  0.5485 -0.3117  0.2625
19304SOL    HW169566   0.129   7.711   0.401  1.8461 -0.0153  1.0753
19304SOL    HW269567   0.061   7.563   0.396 -1.1247  1.3457  0.0105
19305SOL     OW69568   9.133   0.785   7.007 -0.0216 -0.2539 -0.0985
19305SOL    HW169569   9.137   0.806   7.105 -4.2505  0.6521 -0.0230
19305SOL    HW269570   9.096   0.693   6.994 -3.4115  1.1572 -0.8587
19306SOL     OW69571   7.985   2.468   6.380  0.3394  0.0150  0.3405
19306SOL    HW169572   7.941   2.398   6.323  1.3206  1.2020 -1.9269
19306SOL    HW269573   8.079   2.482   6.348  0.7010  1.1775  1.8723
19307SOL     OW69574   0.021   9.815   6.511  0.3995  0.6150 -0.0427
19307SOL    HW169575   0.056   9.806   6.418  1.0860  0.3593  0.2332
19307SOL    HW269576   0.043   9.906   6.546  0.7584  0.4681  0.1166
19308SOL     OW69577   3.724   0.902   2.167  0.2733  0.0322 -0.1053
19308SOL    HW169578   3.774   0.962   2.105  0.7382  0.7079  0.9151
19308SOL    HW269579   3.680   0.957   2.238  0.4856 -0.8209  0.6835
19309SOL     OW69580   3.967   2.143   3.464 -0.0282 -0.1382  0.2494
19309SOL    HW169581   4.028   2.201   3.410 -0.5739  1.1274  0.9643
19309SOL    HW269582   4.020   2.070   3.507  0.6453 -0.2612 -0.7726
19310SOL     OW69583   8.769   6.681   3.026 -0.1791  0.0422 -0.5133
19310SOL    HW169584   8.803   6.646   2.939 -1.4274 -0.9496 -0.6260
19310SOL    HW269585   8.816   6.766   3.050  0.7791 -0.1517 -1.7253
19311SOL     OW69586   2.770   0.424   7.259 -0.0170  0.0705  0.2000
19311SOL    HW169587   2.686   0.473   7.280 -0.5434  0.5678 -2.8223
19311SOL    HW269588   2.748   0.334   7.220  0.8893 -0.8525  1.7670
19312SOL     OW69589   3.741   2.605   5.082 -0.3268  0.0115  0.3006
19312SOL    HW169590   3.771   2.698   5.102  0.5274 -0.4120  1.0321
19312SOL    HW269591   3.798   2.566   5.010  0.4471 -0.5361  1.1843
19313SOL     OW69592   1.011   4.224   1.346  0.3908  0.1713 -0.2651
19313SOL    HW169593   1.106   4.212   1.377  0.1348 -0.6635  0.2346
19313SOL    HW269594   0.954   4.152   1.386 -0.4544  0.6568 -0.5802
19314SOL     OW69595   9.183   3.784   1.905  0.3689 -0.0582  0.0647
19314SOL    HW169596   9.170   3.685   1.901  0.7386 -0.0394 -2.2306
19314SOL    HW269597   9.279   3.805   1.921  0.3485 -0.0629  0.1949
19315SOL     OW69598   1.318   4.007   2.279  0.0741 -0.3550 -1.1821
19315SOL    HW169599   1.357   4.099   2.276 -3.0882  1.1642  1.1450
19315SOL    HW269600   1.288   3.986   2.372 -1.2343 -2.8775 -2.1253
19316SOL     OW69601   9.090   6.153   2.396  0.0706 -0.3459 -0.3844
19316SOL    HW169602   9.061   6.248   2.385 -0.0120 -0.5636 -2.2419
19316SOL    HW269603   9.082   6.105   2.309  0.5394 -1.9485  0.4245
19317SOL     OW69604   4.660   7.828   2.829  0.1111 -0.6304  0.0003
19317SOL    HW169605   4.679   7.801   2.924 -2.0944 -0.9584  0.3704
19317SOL    HW269606   4.653   7.746   2.772  0.8662 -0.4584 -0.3508
19318SOL     OW69607   9.508   5.917   3.281 -0.2666  0.2458 -0.0642
19318SOL    HW169608   9.589   5.963   3.315  0.6978 -1.9716  0.7632
19318SOL    HW269609   9.519   5.897   3.183  0.3894 -0.4648  0.1539
19319SOL     OW69610   2.890   2.739   7.484  0.3644 -0.1828 -0.1925
19319SOL    HW169611   2.914   2.817   7.427  1.6439 -1.2031 -1.0931
19319SOL    HW269612   2.795   2.746   7.513  0.4552  1.6754 -0.2916
19320SOL     OW69613   2.930   4.092   7.175  0.4984  0.1063 -0.1079
19320SOL    HW169614   3.004   4.150   7.142  0.8253  0.5612  1.3664
19320SOL    HW269615   2.926   4.098   7.275  0.8397 -2.7603  0.1111
19321SOL     OW69616   0.496   1.051   4.232  0.0291 -0.5655  0.1257
19321SOL    HW169617   0.497   1.009   4.322  2.3794 -0.4207  0.2062
19321SOL    HW269618   0.513   0.981   4.162 -0.6407 -0.5003 -0.0990
19322SOL     OW69619   3.360   5.631   2.132 -0.1015 -0.4192 -0.0674
19322SOL    HW169620   3.267   5.634   2.167  0.2225  0.1790  0.7492
19322SOL    HW269621   3.413   5.706   2.171  0.2521  0.3144 -1.8943
19323SOL     OW69622   8.884   7.188   6.177 -0.6506  0.0807 -0.5390
19323SOL    HW169623   8.940   7.121   6.225 -0.4626  0.5328 -0.1217
19323SOL    HW269624   8.792   7.189   6.217 -0.8429 -0.3779 -0.9628
19324SOL     OW69625   9.051   6.037   0.848 -0.0834 -0.0086 -0.5826
19324SOL    HW169626   9.112   5.969   0.889 -0.1762  0.6898  0.7391
19324SOL    HW269627   8.985   6.068   0.917 -0.8907  0.4510 -1.5449
19325SOL     OW69628   7.124   7.844   4.629 -0.2865  0.2715 -0.4669
19325SOL    HW169629   7.210   7.890   4.651  0.0841 -0.5221 -0.2369
19325SOL    HW269630   7.081   7.810   4.714 -0.7842  0.5990 -0.5879
19326SOL     OW69631   3.080   6.912   5.906 -0.3205 -0.3479  0.1582
19326SOL    HW169632   2.983   6.924   5.926 -0.4910 -1.0199 -0.2585
19326SOL    HW269633   3.102   6.959   5.820 -0.7968 -2.2404 -1.0052
19327SOL     OW69634   7.057   0.404   4.418 -0.0908 -0.0903  0.1031
19327SOL    HW169635   7.069   0.372   4.512  0.9116  1.3237  0.4594
19327SOL    HW269636   6.987   0.475   4.415  2.1931  2.2273  0.3190
19328SOL     OW69637   8.036   0.810   3.079  0.2779  0.8989 -0.2387
19328SOL    HW169638   7.988   0.814   2.992 -0.2646  1.5762  0.0899
19328SOL    HW269639   8.135   0.814   3.063  0.1862  0.7416 -0.8382
19329SOL     OW69640   7.246   1.772   1.737 -0.0172  0.5906 -0.0830
19329SOL    HW169641   7.208   1.680   1.751 -0.5235  0.5089 -1.8030
19329SOL    HW269642   7.343   1.764   1.713 -0.2750  0.4206 -1.1211
19330SOL     OW69643   1.451   1.971   6.601  0.1924  0.2691 -0.1910
19330SOL    HW169644   1.397   1.890   6.626  2.0568 -1.7889 -2.5377
19330SOL    HW269645   1.390   2.041   6.564 -1.0506 -1.5774 -1.7270
19331SOL     OW69646   1.071   7.848   7.780 -0.0294 -0.2042 -0.0478
19331SOL    HW169647   1.000   7.808   7.723  0.4253 -1.4010  0.1998
19331SOL    HW269648   1.126   7.911   7.726 -1.5194  1.0414 -0.1335
19332SOL     OW69649   4.315   9.724   4.875 -0.3252  0.0925  0.3091
19332SOL    HW169650   4.312   9.624   4.882 -0.8449 -0.1844 -3.1062
19332SOL    HW269651   4.224   9.761   4.895 -0.2437 -0.1329  1.1322
19333SOL     OW69652   6.263   8.019   4.282  0.2655  0.5258 -0.1892
19333SOL    HW169653   6.192   8.030   4.213  0.3336  0.2345 -0.3052
19333SOL    HW269654   6.222   7.990   4.368  0.2960 -0.0859 -0.3803
19334SOL     OW69655   8.291   6.543   6.407  0.4126 -0.2594  0.6288
19334SOL    HW169656   8.282   6.625   6.352 -2.0301  0.4783  2.0840
19334SOL    HW269657   8.267   6.463   6.352  1.2499  0.1350 -0.3211
19335SOL     OW69658   3.765   1.399   8.068 -0.6680  0.3285  0.1294
19335SOL    HW169659   3.812   1.341   8.002 -1.7588 -1.6565  1.0440
19335SOL    HW269660   3.694   1.346   8.115 -0.5596  1.9501  2.2234
19336SOL     OW69661   5.113   0.836   3.514  0.0566 -0.0247  0.4038
19336SOL    HW169662   5.099   0.763   3.447  1.9437 -1.0322  1.0593
19336SOL    HW269663   5.159   0.914   3.470 -0.0493 -0.0904  0.1798
19337SOL     OW69664   0.509   9.980   6.384  0.8299  0.8523 -0.2906
19337SOL    HW169665   0.608   9.990   6.394  1.0804 -0.7481 -1.0688
19337SOL    HW269666   0.485   9.883   6.383 -0.9182  1.2293  1.4707
19338SOL     OW69667   9.415   5.935   0.168 -0.1182 -0.0667 -0.5184
19338SOL    HW169668   9.374   5.885   0.092  0.1869 -1.8848  0.4848
19338SOL    HW269669   9.487   5.879   0.209 -1.1050  0.3854  1.8817
19339SOL     OW69670   2.126   1.402   0.141  0.1367 -0.2945 -0.2173
19339SOL    HW169671   2.098   1.415   0.236 -1.5264 -0.8657 -0.6219
19339SOL    HW269672   2.121   1.489   0.092 -0.1227 -0.2374 -0.0837
19340SOL     OW69673   3.865   2.674   7.116 -0.2270 -0.3221  0.1631
19340SOL    HW169674   3.865   2.722   7.029 -1.1754  1.8182  1.2801
19340SOL    HW269675   3.953   2.686   7.162 -1.2341  2.4631  1.4919
19341SOL     OW69676   8.153   5.672   3.754 -0.1350  0.0960  0.1357
19341SOL    HW169677   8.118   5.587   3.715 -1.6233  1.1534 -0.8424
19341SOL    HW269678   8.253   5.671   3.750 -0.1435 -1.4334 -0.2113
19342SOL     OW69679   7.653   4.904   0.680 -0.0403 -0.1511  0.3756
19342SOL    HW169680   7.714   4.982   0.697  2.2224 -2.1613  1.6684
19342SOL    HW269681   7.561   4.928   0.711  0.2739  2.5434 -0.6226
19343SOL     OW69682   4.524   5.828   1.763 -0.4068  0.2969 -0.0856
19343SOL    HW169683   4.605   5.869   1.721 -2.2465  5.0591  0.6432
19343SOL    HW269684   4.460   5.800   1.692  0.7686 -1.1086 -0.6107
19344SOL     OW69685   2.689   4.729   2.928  0.0741  0.3266  0.1713
19344SOL    HW169686   2.710   4.826   2.914  1.6758 -0.2330 -1.4012
19344SOL    HW269687   2.681   4.711   3.026  1.3365  1.7335  0.5549
19345SOL     OW69688   1.771   8.219   4.725 -0.0036 -0.2039  0.2369
19345SOL    HW169689   1.864   8.188   4.705  0.4139 -0.2059  2.0472
19345SOL    HW269690   1.708   8.185   4.655  1.3179 -0.4169 -0.8605
19346SOL     OW69691   6.811   6.051   8.040  0.5593  0.5232 -0.1549
19346SOL    HW169692   6.801   6.079   7.944  1.5089  0.4663 -0.2758
19346SOL    HW269693   6.908   6.058   8.066  0.8083 -2.3762 -0.1246
19347SOL     OW69694   3.520   0.504   3.011  0.2856 -0.0216 -0.5789
19347SOL    HW169695   3.530   0.573   3.083  0.8204 -1.1204  0.4259
19347SOL    HW269696   3.423   0.480   3.001  0.2254  0.0151 -0.0995
19348SOL     OW69697   3.413   7.981   0.960  0.2464  0.3846  0.6205
19348SOL    HW169698   3.363   7.954   0.877 -1.5239  0.9694  1.4699
19348SOL    HW269699   3.507   7.946   0.955  0.0552  0.0883 -1.4497
19349SOL     OW69700   8.810   8.561   1.662  0.0990  0.1229 -0.6736
19349SOL    HW169701   8.844   8.515   1.744  0.8952  2.4018  0.3220
19349SOL    HW269702   8.724   8.518   1.633 -0.2980 -0.5955  1.4632
19350SOL     OW69703   0.751   2.809   2.220 -0.5530  0.2475  0.1099
19350SOL    HW169704   0.810   2.731   2.201  0.0426  0.8812 -0.6560
19350SOL    HW269705   0.690   2.825   2.143  0.9642  2.0032 -0.7678
19351SOL     OW69706   4.221   9.656   5.262 -1.0617 -0.0215  0.2391
19351SOL    HW169707   4.183   9.592   5.328  0.1122 -0.2821  0.6860
19351SOL    HW269708   4.211   9.618   5.170  1.3048 -1.7679  0.6469
19352SOL     OW69709   0.522   2.183   4.759  0.0901  0.2735 -0.3019
19352SOL    HW169710   0.598   2.184   4.825  0.8468 -1.3959 -1.1054
19352SOL    HW269711   0.559   2.183   4.666 -0.9567  1.6514 -0.7305
19353SOL     OW69712   4.026   1.002   4.868 -0.3356 -0.3959 -0.1658
19353SOL    HW169713   4.099   1.050   4.916 -1.8078  1.0895  0.6298
19353SOL    HW269714   4.061   0.966   4.781  1.1583  0.8878 -0.1174
19354SOL     OW69715   3.064   8.717   4.884  0.4827  0.4547  0.6843
19354SOL    HW169716   3.146   8.711   4.941  1.0899  1.2172 -0.0929
19354SOL    HW269717   3.068   8.801   4.830  0.2119 -0.5567 -0.9238
19355SOL     OW69718   6.320   5.857   7.717 -0.1449 -0.1712 -0.1750
19355SOL    HW169719   6.292   5.782   7.657  0.2483  0.1270 -0.7392
19355SOL    HW269720   6.420   5.857   7.726 -0.1214  0.4505 -0.4051
19356SOL     OW69721   4.657   3.135   7.054 -0.3421 -0.1294  0.8107
19356SOL    HW169722   4.664   3.234   7.068  1.4576 -0.0576 -0.5327
19356SOL    HW269723   4.577   3.101   7.103 -0.5028  1.8552  1.9955
19357SOL     OW69724   2.161   3.078   5.266 -0.1496 -0.1614 -0.3492
19357SOL    HW169725   2.244   3.090   5.320  0.5366 -2.5190 -0.8147
19357SOL    HW269726   2.102   3.012   5.310 -0.6332 -0.3852 -1.3095
19358SOL     OW69727   1.733   4.839   1.128  0.6762  0.4882 -0.1396
19358SOL    HW169728   1.647   4.891   1.123 -0.4165 -1.0418  2.0287
19358SOL    HW269729   1.738   4.775   1.051 -0.6475 -0.1513  0.2931
19359SOL     OW69730   0.645   9.476   6.727  0.0348  0.0925 -0.2139
19359SOL    HW169731   0.618   9.420   6.649  0.5910 -0.2251 -0.1857
19359SOL    HW269732   0.739   9.509   6.714 -0.9048  2.5393 -1.0755
19360SOL     OW69733   3.193   1.787   5.359 -0.7088  0.0128  0.0018
19360SOL    HW169734   3.145   1.702   5.379 -0.6278 -0.1712 -0.6009
19360SOL    HW269735   3.190   1.806   5.261  0.6423 -0.1243 -0.0830
19361SOL     OW69736   1.668   5.917   6.791  0.4586 -0.6560  0.3680
19361SOL    HW169737   1.747   5.871   6.831  0.3032  0.3147  1.8571
19361SOL    HW269738   1.611   5.954   6.865 -0.4109  0.2449 -0.7385
19362SOL     OW69739   4.582   0.668   8.185  0.3960 -0.0680 -0.6399
19362SOL    HW169740   4.525   0.738   8.228  0.4447 -0.7340  0.5073
19362SOL    HW269741   4.650   0.713   8.126  0.3972  0.8555  0.0533
19363SOL     OW69742   2.693   6.652   1.290 -0.1991  0.3122  0.1864
19363SOL    HW169743   2.727   6.745   1.274 -1.4320  0.7683  0.1630
19363SOL    HW269744   2.734   6.615   1.373  1.5911  0.2314 -0.7015
19364SOL     OW69745   3.298   9.197   4.390 -0.1880 -0.2427 -0.3109
19364SOL    HW169746   3.199   9.196   4.403 -0.1348  0.4732  0.1909
19364SOL    HW269747   3.337   9.109   4.416 -0.3099  0.5352  2.6926
19365SOL     OW69748   7.481   9.595   5.966  0.0603 -0.1823 -0.5144
19365SOL    HW169749   7.575   9.628   5.975 -0.0597  0.9707 -3.2007
19365SOL    HW269750   7.418   9.663   6.006  0.1358  0.7707 -1.9765
19366SOL     OW69751   2.173   9.050   2.116 -0.1305 -0.0143  0.1569
19366SOL    HW169752   2.156   9.147   2.098 -0.5730 -0.4880 -2.2297
19366SOL    HW269753   2.130   8.996   2.044  0.5598 -1.9604  1.1863
19367SOL     OW69754   8.286   0.199   2.316  0.1480 -0.0186  0.7645
19367SOL    HW169755   8.287   0.298   2.330 -2.7100  0.4457 -1.6218
19367SOL    HW269756   8.196   0.163   2.341  1.0552 -1.9768  1.3046
19368SOL     OW69757   4.502   0.914   2.920 -0.6834 -0.5572  0.4293
19368SOL    HW169758   4.491   0.815   2.913  1.0231 -0.7216 -0.3225
19368SOL    HW269759   4.576   0.934   2.984 -1.3706  0.2597  0.9810
19369SOL     OW69760   9.846   8.946   1.651 -0.6094 -0.2010  0.3922
19369SOL    HW169761   9.888   8.857   1.667  1.1750  0.9035  2.1788
19369SOL    HW269762   9.872   9.009   1.725 -3.8954  1.1130  0.5160
19370SOL     OW69763   4.023   8.085   7.128  0.1112 -0.6959 -0.4230
19370SOL    HW169764   3.944   8.146   7.130  0.7650  0.1341  1.2398
19370SOL    HW269765   4.063   8.085   7.037  0.0477  1.3198 -0.4654
19371SOL     OW69766   1.222   4.141   4.637  0.0796 -0.0729 -0.5305
19371SOL    HW169767   1.268   4.072   4.693 -1.3990 -0.9539 -0.3697
19371SOL    HW269768   1.234   4.231   4.678 -0.4738 -0.6368  0.8964
19372SOL     OW69769   4.104   7.708   5.397 -0.2012  0.2919 -0.0599
19372SOL    HW169770   4.085   7.791   5.450  1.1199  0.2611  0.4867
19372SOL    HW269771   4.154   7.643   5.455 -1.1693 -0.8620 -0.5074
19373SOL     OW69772   1.007   5.452   1.083 -0.0664  0.9457 -0.4313
19373SOL    HW169773   1.086   5.507   1.111 -0.7046  2.2445 -1.1484
19373SOL    HW269774   0.968   5.406   1.162  1.5826  0.0683 -0.1133
19374SOL     OW69775   7.245   6.609   3.939  0.3147  0.0824  0.2670
19374SOL    HW169776   7.205   6.700   3.935  1.4747  0.6208  0.7530
19374SOL    HW269777   7.321   6.608   4.003  1.8653 -0.6048 -1.5145
19375SOL     OW69778   9.764   9.248   1.359 -0.1682 -0.6797  0.1327
19375SOL    HW169779   9.687   9.229   1.420 -0.2085 -1.4153 -0.1377
19375SOL    HW269780   9.787   9.165   1.309 -0.8566  0.2117 -1.6790
19376SOL     OW69781   4.883   3.075   0.877  0.4242  0.2020  0.3820
19376SOL    HW169782   4.915   3.169   0.891  0.9439  0.2282 -0.8524
19376SOL    HW269783   4.840   3.068   0.786  1.1180 -0.9398  0.1307
19377SOL     OW69784   4.258   8.420   1.199 -0.2314 -0.2243 -0.1571
19377SOL    HW169785   4.195   8.489   1.232  1.4033  0.4736  1.5969
19377SOL    HW269786   4.218   8.373   1.121 -3.0965 -0.1082  1.1770
19378SOL     OW69787   3.827   1.549   5.460  0.2147 -0.0147  0.6459
19378SOL    HW169788   3.814   1.462   5.508 -2.2867  0.4709  0.9538
19378SOL    HW269789   3.879   1.533   5.376 -0.2447 -1.8244  0.6723
19379SOL     OW69790   1.615   4.836   4.338  0.0387  0.4720  0.1443
19379SOL    HW169791   1.539   4.901   4.347  0.1905  0.5629  0.8330
19379SOL    HW269792   1.677   4.848   4.415  1.1610  0.9249 -0.8185
19380SOL     OW69793   4.303   1.918   5.448 -0.4805 -0.1127  0.4959
19380SOL    HW169794   4.270   2.012   5.451 -0.3293  0.0076 -1.0148
19380SOL    HW269795   4.234   1.859   5.406 -0.5608 -0.6728  1.4011
19381SOL     OW69796   4.127   0.376   1.694  0.4014 -0.0375 -0.0968
19381SOL    HW169797   4.049   0.416   1.647  0.6131 -0.2287 -0.6113
19381SOL    HW269798   4.116   0.277   1.700  0.5332 -0.0495 -0.0463
19382SOL     OW69799   0.588   5.236   5.979  0.0445  0.5675  0.0326
19382SOL    HW169800   0.533   5.313   6.011 -0.3888  0.1765  0.2490
19382SOL    HW269801   0.670   5.269   5.933  1.0030  1.1481  2.1014
19383SOL     OW69802   9.947   4.563   4.432 -0.6796  0.0635 -0.6068
19383SOL    HW169803   9.858   4.519   4.437 -1.3979  1.4396 -1.0585
19383SOL    HW269804   9.969   4.606   4.519  0.0156 -1.1572 -0.1699
19384SOL     OW69805   8.407   1.916   3.218  0.1709 -0.2676 -0.6677
19384SOL    HW169806   8.318   1.958   3.239  0.7961 -0.3921  2.6061
19384SOL    HW269807   8.412   1.896   3.121 -2.7307  1.2627 -1.2160
19385SOL     OW69808   9.652   0.624   2.089  0.4117 -0.5907  0.0844
19385SOL    HW169809   9.585   0.560   2.127  1.5084 -0.7890  1.7614
19385SOL    HW269810   9.729   0.573   2.051  0.0709 -0.3315 -0.9786
19386SOL     OW69811   7.523   8.783   5.486 -0.1641  0.0309 -0.2334
19386SOL    HW169812   7.531   8.748   5.393  0.7027 -2.4584  0.7345
19386SOL    HW269813   7.438   8.751   5.527  0.4203 -0.6019  0.5078
19387SOL     OW69814   6.976   2.708   5.218 -0.7376  0.1617 -0.2667
19387SOL    HW169815   7.058   2.729   5.165  0.2789  0.1470  1.2471
19387SOL    HW269816   6.936   2.622   5.185  1.5294 -1.3578  0.8451
19388SOL     OW69817   0.445   0.679   7.889 -0.5126 -0.2036 -0.8558
19388SOL    HW169818   0.415   0.719   7.802  0.1022  0.4464 -0.7697
19388SOL    HW269819   0.381   0.608   7.916 -1.6882  0.8064 -0.9480
19389SOL     OW69820   9.049   9.931   6.428 -0.1876 -0.3889 -0.3209
19389SOL    HW169821   9.046   9.955   6.331  0.2979  1.2962  0.0659
19389SOL    HW269822   8.964   9.885   6.453 -1.4847  1.5569 -0.9560
19390SOL     OW69823   4.756   1.328   0.876 -0.1372  0.1465  0.4199
19390SOL    HW169824   4.846   1.367   0.856 -0.4152 -0.2753 -1.8530
19390SOL    HW269825   4.757   1.286   0.967  1.9550  0.1784  0.4439
19391SOL     OW69826   8.609   2.635   5.957  0.1938  0.2716 -0.4376
19391SOL    HW169827   8.538   2.639   6.027  1.0073 -0.2381  0.4370
19391SOL    HW269828   8.692   2.595   5.997  1.0445  1.0893 -1.3651
19392SOL     OW69829   3.014   1.778   8.163 -0.2079  0.8174  0.4816
19392SOL    HW169830   2.979   1.814   8.077 -0.2400 -0.4952 -0.0546
19392SOL    HW269831   3.113   1.794   8.168  0.6619 -3.2754 -1.9277
19393SOL     OW69832   2.031   5.974   0.235 -0.9731  0.3349  0.0430
19393SOL    HW169833   2.125   5.999   0.258 -0.9137  0.2620 -0.1219
19393SOL    HW269834   2.028   5.878   0.208 -1.4604 -0.3031  2.2782
19394SOL     OW69835   2.606   3.708   4.869 -0.1863 -0.5700  0.0590
19394SOL    HW169836   2.679   3.747   4.813 -1.2474  0.1441 -0.8508
19394SOL    HW269837   2.587   3.615   4.837 -0.7428 -0.1907 -0.7394
19395SOL     OW69838   4.514   9.781   3.063  0.4939  0.6597  0.2808
19395SOL    HW169839   4.564   9.839   2.999 -0.7198 -0.6120 -1.8834
19395SOL    HW269840   4.417   9.805   3.061  0.2985 -0.0649  0.9209
19396SOL     OW69841   0.468   3.735   7.317  0.4128 -0.4370  0.5385
19396SOL    HW169842   0.564   3.760   7.310 -0.2784  2.3559  0.6033
19396SOL    HW269843   0.456   3.639   7.289  3.0499 -0.5386 -0.3331
19397SOL     OW69844   5.489   4.363   7.606 -0.4573  0.1689  0.1022
19397SOL    HW169845   5.390   4.348   7.616 -0.3626 -1.8677 -1.6622
19397SOL    HW269846   5.508   4.397   7.514  0.4543  0.9926  0.5886
19398SOL     OW69847   2.349   9.067   4.029 -0.8244  0.1470 -0.1567
19398SOL    HW169848   2.334   9.132   4.103 -1.2016  0.2713 -0.3390
19398SOL    HW269849   2.346   9.115   3.941  2.3044  0.4699 -0.1566
19399SOL     OW69850   1.587   7.816   1.693  0.4454 -0.2702 -0.2303
19399SOL    HW169851   1.504   7.766   1.719 -1.4703  2.1855 -1.3931
19399SOL    HW269852   1.591   7.903   1.743  2.0314 -0.1175 -0.5987
19400SOL     OW69853   8.845   9.910   4.778 -0.3201 -0.3745 -0.2604
19400SOL    HW169854   8.874   9.921   4.683 -1.4772 -0.2331 -0.6162
19400SOL    HW269855   8.923   9.886   4.835  0.3603 -0.6013 -1.2768
19401SOL     OW69856   9.520   0.320   5.796 -0.2544 -0.0578 -0.1104
19401SOL    HW169857   9.559   0.412   5.786 -0.1929 -0.3457 -2.8603
19401SOL    HW269858   9.592   0.255   5.819  0.1523  0.1261 -0.8666
19402SOL     OW69859   8.491   4.924   1.523  0.0267 -0.5332  0.0027
19402SOL    HW169860   8.569   4.960   1.575 -0.3658  0.3322  0.0133
19402SOL    HW269861   8.474   4.984   1.445  0.2294 -1.4841 -0.7780
19403SOL     OW69862   4.773   7.543   4.962  0.0175 -0.1214 -0.7214
19403SOL    HW169863   4.682   7.503   4.953  0.3550 -0.8684 -0.7867
19403SOL    HW269864   4.808   7.566   4.871 -0.0809  0.1124 -0.7005
19404SOL     OW69865   9.018   9.988   2.969  0.0535 -0.3211  0.2401
19404SOL    HW169866   9.027   9.976   3.068 -0.5488 -0.5123  0.2694
19404SOL    HW269867   8.963  10.069   2.950  1.1344  0.3792  0.0545
19405SOL     OW69868   1.839   6.238   2.912 -0.4809 -0.4587  0.2786
19405SOL    HW169869   1.792   6.181   2.980  0.9201 -0.1891  1.4960
19405SOL    HW269870   1.788   6.323   2.898 -0.7963 -0.5333  0.9627
19406SOL     OW69871   0.623   8.897   3.694 -0.2069 -0.1963  0.4513
19406SOL    HW169872   0.573   8.980   3.673  0.6777  0.1258 -0.4233
19406SOL    HW269873   0.634   8.888   3.793  0.9085  1.4496  0.4907
19407SOL     OW69874   7.433   7.751   3.029  0.1230  0.3676 -0.2441
19407SOL    HW169875   7.440   7.662   3.074 -0.3342 -0.0647 -1.0104
19407SOL    HW269876   7.516   7.804   3.046  1.1960 -0.9286 -1.2812
19408SOL     OW69877   2.620   0.851   2.572  0.0673  0.3164  0.1773
19408SOL    HW169878   2.544   0.839   2.508  1.4441 -1.7366 -1.1192
19408SOL    HW269879   2.672   0.933   2.547 -0.7470  0.7951  0.0496
19409SOL     OW69880   5.907   1.902   4.552 -0.2620 -0.1040  0.1307
19409SOL    HW169881   5.991   1.914   4.606 -0.0684 -0.9689  0.0319
19409SOL    HW269882   5.913   1.957   4.468 -0.3573  0.8605  0.7499
19410SOL     OW69883   1.699   4.382   2.222 -0.1880 -0.3843 -0.3764
19410SOL    HW169884   1.772   4.390   2.153  2.3600  1.1364  2.3855
19410SOL    HW269885   1.711   4.296   2.272  0.1169  0.1805  0.5205
19411SOL     OW69886   3.350   4.786   6.559  0.1626 -0.1241 -0.6543
19411SOL    HW169887   3.413   4.830   6.623 -0.4712 -2.6626  1.7880
19411SOL    HW269888   3.274   4.745   6.610 -1.0140 -1.1479 -3.1598
19412SOL     OW69889   9.846   6.144   1.338 -0.4126  0.2518 -0.6951
19412SOL    HW169890   9.903   6.219   1.370  0.5588 -0.2084 -1.3001
19412SOL    HW269891   9.878   6.058   1.378 -1.6852  0.1856  0.2087
19413SOL     OW69892   8.921   2.668   1.854  0.1508 -0.4265  0.1714
19413SOL    HW169893   8.856   2.628   1.789  0.8430 -0.4332 -0.5196
19413SOL    HW269894   8.871   2.701   1.934 -0.8698  0.6157 -0.8546
19414SOL     OW69895   9.463   9.820   1.364  0.1993  0.0452  0.3073
19414SOL    HW169896   9.399   9.856   1.296 -0.1923 -3.3244 -1.1867
19414SOL    HW269897   9.413   9.789   1.444  0.1441 -0.8723 -0.0819
19415SOL     OW69898   9.873   2.778   1.056 -0.2645 -0.1730  0.0304
19415SOL    HW169899   9.905   2.686   1.036  0.1058 -0.1839  0.6524
19415SOL    HW269900   9.936   2.821   1.122 -2.0593 -0.5385  2.0327
19416SOL     OW69901   2.723   0.522   0.941  0.2253  0.6243  0.5224
19416SOL    HW169902   2.721   0.544   1.039  0.1166  2.0066  0.2186
19416SOL    HW269903   2.650   0.573   0.894 -1.1036 -1.6590  0.0492
19417SOL     OW69904   8.828   9.683   3.417  0.1096 -0.0603  0.0403
19417SOL    HW169905   8.875   9.672   3.505 -2.9650  0.0685  1.7493
19417SOL    HW269906   8.796   9.594   3.385  0.8527 -0.0433 -0.7779
19418SOL     OW69907   5.785   0.882   3.512  0.6479 -0.0391  0.2212
19418SOL    HW169908   5.704   0.923   3.469  1.1132 -0.6776 -1.2885
19418SOL    HW269909   5.775   0.783   3.514  1.0194 -0.0645  0.8061
19419SOL     OW69910   2.904   6.614   1.768  0.1323 -0.2847  0.1767
19419SOL    HW169911   2.999   6.584   1.755  0.2298  0.0953  0.0216
19419SOL    HW269912   2.867   6.572   1.851 -0.1708 -1.9461 -0.7588
19420SOL     OW69913   1.303   9.352   8.197  0.1133 -0.0528 -0.0339
19420SOL    HW169914   1.284   9.442   8.237 -0.5221 -0.4345  0.5500
19420SOL    HW269915   1.341   9.293   8.268  1.6492  0.0972 -0.7029
19421SOL     OW69916   3.405   8.173   5.535 -0.4511 -0.6331  0.0698
19421SOL    HW169917   3.475   8.227   5.488 -0.5525 -0.0565  0.5817
19421SOL    HW269918   3.362   8.111   5.469  1.8440 -2.3712  0.1390
19422SOL     OW69919   8.694   0.705   7.541  0.3008  0.4919 -0.1420
19422SOL    HW169920   8.616   0.717   7.601  1.1270 -0.3029  1.1115
19422SOL    HW269921   8.700   0.609   7.512 -0.3876  0.9638 -1.9212
19423SOL     OW69922   9.116   6.692   1.931 -0.5752  0.1046 -0.2108
19423SOL    HW169923   9.136   6.665   2.025  0.1434  1.1521 -0.0618
19423SOL    HW269924   9.072   6.781   1.930  1.3318  1.0669 -0.9822
19424SOL     OW69925   9.661   4.521   4.317  0.0315 -0.2934 -0.2009
19424SOL    HW169926   9.648   4.589   4.245  1.5796  0.4300  0.1717
19424SOL    HW269927   9.672   4.430   4.276 -2.8400 -0.4687 -0.6614
19425SOL     OW69928   1.624   1.707   1.674 -0.2832  0.0740 -0.0348
19425SOL    HW169929   1.648   1.672   1.764  0.1707 -2.5668 -1.1352
19425SOL    HW269930   1.707   1.732   1.624 -0.4412  0.2745 -0.1976
19426SOL     OW69931   0.893   3.893   5.222 -0.1279 -0.0863  0.4915
19426SOL    HW169932   0.858   3.817   5.277  1.2743 -1.6179 -0.6759
19426SOL    HW269933   0.993   3.897   5.232 -0.0294  0.5728 -0.7614
19427SOL     OW69934   1.647   9.925   0.562 -0.3751 -0.0997 -0.1833
19427SOL    HW169935   1.566   9.917   0.504 -0.8020 -0.5464  0.4622
19427SOL    HW269936   1.618   9.931   0.658  0.3674 -0.5078  0.0651
19428SOL     OW69937   0.155   7.085   8.208  0.4415 -0.2523 -0.1841
19428SOL    HW169938   0.196   7.018   8.270 -0.9311 -1.1296 -0.1894
19428SOL    HW269939   0.183   7.066   8.114 -0.0952 -0.9544 -0.2079
19429SOL     OW69940   4.051   9.983   5.670  0.1124  0.0578  0.0784
19429SOL    HW169941   4.084  10.061   5.722 -2.3194  2.6243 -2.0268
19429SOL    HW269942   4.122   9.953   5.606  1.5042 -0.2670  1.7504
19430SOL     OW69943   7.333   7.164   3.986 -0.1642  0.6413 -0.1847
19430SOL    HW169944   7.249   7.213   4.007 -0.3222  0.2143  0.2079
19430SOL    HW269945   7.391   7.219   3.927 -0.2365  1.3956  0.4453
19431SOL     OW69946   3.571   0.377   7.552 -0.5578  0.0589 -0.3496
19431SOL    HW169947   3.562   0.354   7.454  0.7777  2.1345 -0.9846
19431SOL    HW269948   3.618   0.464   7.561  0.1467 -0.5661  2.2196
19432SOL     OW69949   3.651   4.070   3.418  0.5083  0.1314  0.3150
19432SOL    HW169950   3.710   4.094   3.341 -0.1148  0.7634  0.0381
19432SOL    HW269951   3.702   4.011   3.481  0.6821 -1.2936 -1.1092
19433SOL     OW69952   8.403   2.525   7.521 -0.4348  0.1463 -0.1441
19433SOL    HW169953   8.479   2.481   7.472 -0.8429 -1.4659  0.6347
19433SOL    HW269954   8.353   2.584   7.457  0.7137  0.2472 -0.9750
19434SOL     OW69955   0.196   1.192   1.363 -0.5583  0.0539 -0.1421
19434SOL    HW169956   0.174   1.179   1.266  1.5465  1.6089 -0.8697
19434SOL    HW269957   0.272   1.133   1.388  0.1480  1.0437  0.0586
19435SOL     OW69958   1.015   7.860   0.575 -0.2508 -0.5298  0.3726
19435SOL    HW169959   0.997   7.763   0.591 -0.2686 -1.0404 -2.4470
19435SOL    HW269960   1.045   7.903   0.660 -0.7719 -2.8728  1.7898
19436SOL     OW69961   7.721   5.466   3.208 -0.6849 -0.2338  0.1164
19436SOL    HW169962   7.802   5.410   3.223 -1.1812 -0.8318  0.5993
19436SOL    HW269963   7.708   5.528   3.286  0.7036  1.6247 -1.0844
19437SOL     OW69964   1.447   2.200   1.547 -0.0141  0.3703  0.0786
19437SOL    HW169965   1.459   2.102   1.531 -0.2535  0.1376  1.2944
19437SOL    HW269966   1.401   2.215   1.634 -0.0410  1.5667 -0.1236
19438SOL     OW69967   8.695   4.140   4.333 -0.0571 -0.0689  0.3165
19438SOL    HW169968   8.722   4.236   4.342 -0.4046  0.0817 -0.2383
19438SOL    HW269969   8.597   4.131   4.352  0.3886 -0.6440  2.5577
19439SOL     OW69970   8.103   6.115   1.175  0.1314 -0.3702  0.1527
19439SOL    HW169971   8.062   6.034   1.217  0.7409  0.6446  2.7919
19439SOL    HW269972   8.033   6.186   1.166 -0.4482 -1.2118 -2.3339
19440SOL     OW69973   3.633   1.058   8.110  0.5959 -0.1997  0.1295
19440SOL    HW169974   3.669   1.001   8.036 -0.1175  0.9731 -1.1484
19440SOL    HW269975   3.584   1.000   8.176  3.0571 -1.5520  0.8561
19441SOL     OW69976   7.220   4.150   7.764 -0.0634  0.4181 -0.2472
19441SOL    HW169977   7.125   4.181   7.765 -0.1183  0.2455  0.0818
19441SOL    HW269978   7.232   4.076   7.832  0.0102 -0.4192 -1.1621
19442SOL     OW69979   1.825   4.369   4.959  0.5999  0.1131 -0.2478
19442SOL    HW169980   1.732   4.359   4.996  0.5268  0.1479 -0.4207
19442SOL    HW269981   1.889   4.319   5.017  0.6668  1.2357  0.6668
19443SOL     OW69982   1.255   6.820   5.424  0.1851  0.4128 -0.0306
19443SOL    HW169983   1.302   6.868   5.498 -2.2241  1.0345  1.1168
19443SOL    HW269984   1.218   6.886   5.358 -0.8766  0.0245  0.1686
19444SOL     OW69985   7.104   2.879   1.342 -0.0525  0.5865  0.0353
19444SOL    HW169986   7.038   2.840   1.406 -0.8759  1.5127 -0.2459
19444SOL    HW269987   7.089   2.978   1.335  1.3180  0.7958 -0.0768
19445SOL     OW69988   1.982   2.620   6.927  0.2430 -0.2721  0.1184
19445SOL    HW169989   1.975   2.604   6.829 -1.0472  0.3291  0.1016
19445SOL    HW269990   2.023   2.710   6.943 -1.3642  0.4899  0.0871
19446SOL     OW69991   5.272   4.265   7.288 -0.3332 -0.3436 -0.1020
19446SOL    HW169992   5.256   4.358   7.256  0.6212  1.1418  3.4849
19446SOL    HW269993   5.213   4.245   7.367  1.5265 -1.6892  1.0101
19447SOL     OW69994   9.440   0.415   6.226 -0.1331 -0.1557  0.1826
19447SOL    HW169995   9.443   0.489   6.158 -0.3215  1.4329  1.8604
19447SOL    HW269996   9.533   0.378   6.239 -0.0284 -0.1815 -0.6165
19448SOL     OW69997   7.015   8.401   4.213  0.2192  0.2112 -0.1468
19448SOL    HW169998   7.080   8.407   4.288 -0.6968 -0.6630  0.7338
19448SOL    HW269999   7.052   8.340   4.142  0.6710  0.2847  0.0218
19449SOL     OW70000   2.424   1.103   2.690 -0.3579 -0.6843  0.8782
19449SOL    HW170001   2.522   1.109   2.670 -0.4354 -0.4627  0.5669
19449SOL    HW270002   2.395   1.008   2.686 -0.0043 -0.8274  1.6741
19450SOL     OW70003   7.167   0.960   1.006 -0.8899  0.1517 -0.4791
19450SOL    HW170004   7.102   0.908   0.951 -0.1599 -0.4724 -0.7746
19450SOL    HW270005   7.216   0.897   1.067  1.0832  0.2403 -1.9069
19451SOL     OW70006   0.278   2.401   5.999 -0.2116 -0.4002 -0.2448
19451SOL    HW170007   0.313   2.469   6.063  0.2533  0.3348 -1.2711
19451SOL    HW270008   0.291   2.433   5.905 -1.4291 -1.2033 -0.6985
19452SOL     OW70009   7.088   6.214   4.691  0.4777 -0.4128 -0.0644
19452SOL    HW170010   7.116   6.118   4.692  0.0891 -0.5272 -0.0085
19452SOL    HW270011   7.008   6.224   4.632 -0.9297 -0.5380  1.7773
19453SOL     OW70012   3.809   2.089   5.668  0.0446 -0.2557  0.9349
19453SOL    HW170013   3.763   2.023   5.608 -2.6238  0.9602  1.5725
19453SOL    HW270014   3.821   2.175   5.619  1.8934 -0.6221  0.7091
19454SOL     OW70015   3.176   1.404   1.290 -0.5631  0.6777  0.7828
19454SOL    HW170016   3.250   1.353   1.334 -1.1466  0.7966  1.9427
19454SOL    HW270017   3.203   1.499   1.276 -0.2882  0.5823  0.6717
19455SOL     OW70018   9.915   1.056   2.040  0.1081  0.0806  0.0645
19455SOL    HW170019   9.979   0.995   1.993  0.0692 -0.3624  0.5684
19455SOL    HW270020   9.839   1.002   2.077 -1.0455  0.7292 -1.3270
19456SOL     OW70021   0.260   8.667   4.497 -0.7092  0.1820 -0.2870
19456SOL    HW170022   0.265   8.754   4.447  0.1991  0.3873  0.1372
19456SOL    HW270023   0.317   8.599   4.450  0.2313  0.4064  0.5267
19457SOL     OW70024   2.992   1.642   3.205 -0.2753  0.4753 -0.2209
19457SOL    HW170025   2.932   1.644   3.124 -0.0136  0.8949 -0.4053
19457SOL    HW270026   3.008   1.548   3.232 -1.0441  0.3570 -0.1572
19458SOL     OW70027   4.885   8.160   1.808 -0.0782 -0.1543 -0.0723
19458SOL    HW170028   4.906   8.073   1.852 -0.1913  0.1354  0.5520
19458SOL    HW270029   4.970   8.206   1.782  0.0585  0.6796  1.8066
19459SOL     OW70030   7.337   0.438   3.575 -0.1587  0.4426  0.1241
19459SOL    HW170031   7.247   0.452   3.617 -0.2649  0.4341 -0.0971
19459SOL    HW270032   7.408   0.468   3.638 -0.3016  0.1302  0.4431
19460SOL     OW70033   8.729   2.009   5.542  0.1286  0.3444  0.4130
19460SOL    HW170034   8.653   1.943   5.538 -0.3306  0.9547 -1.4096
19460SOL    HW270035   8.720   2.064   5.625 -0.3038 -0.8897  1.2192
19461SOL     OW70036   2.840   9.420   6.452  0.2909  0.2297 -0.3986
19461SOL    HW170037   2.923   9.367   6.433 -2.0637 -2.9319 -2.3564
19461SOL    HW270038   2.782   9.370   6.516 -1.2111  1.2767 -0.9165
19462SOL     OW70039   2.507   8.042   5.650 -0.0916 -0.6299 -0.3812
19462SOL    HW170040   2.482   7.997   5.564  1.2730 -0.9357 -0.6353
19462SOL    HW270041   2.585   8.103   5.634  0.9450 -1.6069  0.8731
19463SOL     OW70042   4.492   5.573   3.399  0.1925 -0.7190 -0.1227
19463SOL    HW170043   4.410   5.532   3.438 -0.3453  0.0653 -0.4368
19463SOL    HW270044   4.525   5.515   3.324 -1.6949  0.4197 -1.8651
19464SOL     OW70045   9.098   9.843   2.551  0.7019 -0.4939  0.1888
19464SOL    HW170046   9.028   9.883   2.610  0.6528 -0.9977  0.4816
19464SOL    HW270047   9.158   9.785   2.605  0.6365 -0.9910 -0.2551
19465SOL     OW70048   2.813   0.028   6.030  0.1688  0.4558 -0.0854
19465SOL    HW170049   2.759  -0.025   6.095 -0.4113  0.6247 -0.4263
19465SOL    HW270050   2.909   0.026   6.057 -0.1413  0.9595  1.0504
19466SOL     OW70051   9.488   5.065   0.376 -0.3832 -0.1273 -0.4313
19466SOL    HW170052   9.461   5.161   0.387  0.7086  0.0518  0.9388
19466SOL    HW270053   9.407   5.008   0.364 -1.0646  0.9175 -0.8287
19467SOL     OW70054   4.096   1.832   1.450 -0.1563  0.3852  0.6016
19467SOL    HW170055   4.065   1.873   1.535 -0.4401 -0.0208  0.6978
19467SOL    HW270056   4.066   1.887   1.372  0.5367  1.0303  0.7858
19468SOL     OW70057   4.217   8.843   3.454  0.0972 -0.1263  0.0560
19468SOL    HW170058   4.248   8.919   3.397 -0.3002  0.3277  0.4446
19468SOL    HW270059   4.239   8.862   3.550 -1.1672  0.0804  0.3031
19469SOL     OW70060   5.376   8.644   5.801 -0.1186 -0.2687  0.1699
19469SOL    HW170061   5.371   8.548   5.830 -1.7177 -0.3307 -0.2662
19469SOL    HW270062   5.283   8.679   5.785  0.5288  0.9549 -0.9761
19470SOL     OW70063   9.959   3.475   3.306  0.4984 -0.3118  0.3720
19470SOL    HW170064   9.921   3.496   3.216  1.2560 -0.0828  0.1046
19470SOL    HW270065  10.034   3.409   3.296  3.1625  2.6037  0.4045
19471SOL     OW70066   1.373   0.039   8.068  0.2254  0.4721 -0.1392
19471SOL    HW170067   1.379  -0.059   8.051  2.4006  0.6186 -0.3509
19471SOL    HW270068   1.391   0.057   8.165 -1.2487  0.5734  0.1209
19472SOL     OW70069   0.920   2.379   4.705 -0.3767  0.4892  0.2073
19472SOL    HW170070   0.951   2.333   4.788 -1.3926  0.7789  0.7497
19472SOL    HW270071   0.915   2.312   4.630 -0.6250 -0.0285  0.6809
19473SOL     OW70072   1.805   1.384   5.730  0.4720 -0.1107 -0.1898
19473SOL    HW170073   1.793   1.330   5.648 -0.7893  0.8827 -0.6750
19473SOL    HW270074   1.888   1.440   5.721  1.3280 -1.3249 -0.0170
19474SOL     OW70075   3.574   2.295   6.024 -0.2551  0.0712 -0.3224
19474SOL    HW170076   3.585   2.377   5.968  1.8177 -0.5575 -0.8770
19474SOL    HW270077   3.587   2.213   5.967  0.3995 -0.5926  0.7545
19475SOL     OW70078   7.274   4.786   1.152 -0.6519 -0.2181 -0.2127
19475SOL    HW170079   7.210   4.787   1.075 -1.6807 -0.9825  0.6294
19475SOL    HW270080   7.282   4.878   1.190 -0.9116 -0.0398 -0.5844
19476SOL     OW70081   3.268   2.521   7.442 -0.2783  0.0738 -0.3053
19476SOL    HW170082   3.352   2.500   7.392  0.4338  0.3301  0.7661
19476SOL    HW270083   3.287   2.519   7.540 -1.7798 -0.9450 -0.0273
19477SOL     OW70084   0.210   2.987   5.382 -0.1496 -0.2282  0.4524
19477SOL    HW170085   0.202   3.010   5.285 -1.3284  1.9525  1.0351
19477SOL    HW270086   0.296   2.940   5.398 -0.1199 -0.9910 -1.7110
19478SOL     OW70087   1.230   3.608   3.434 -0.6537 -0.2393 -0.6298
19478SOL    HW170088   1.291   3.595   3.511 -2.3179  0.2777  0.8000
19478SOL    HW270089   1.230   3.525   3.377  1.1119 -0.3497 -0.4820
19479SOL     OW70090   3.594   0.097   3.149 -0.1689  0.3023  0.5991
19479SOL    HW170091   3.572   0.025   3.214  0.4825 -0.5544 -0.1105
19479SOL    HW270092   3.583   0.062   3.056  0.5427  0.9907  0.2508
19480SOL     OW70093   6.848   1.021   5.605  0.1582 -0.0965  0.0548
19480SOL    HW170094   6.919   1.089   5.622  1.9308 -2.1038  0.9850
19480SOL    HW270095   6.853   0.990   5.510  0.3529 -0.0253  0.0424
19481SOL     OW70096   9.385   5.227   3.242  0.2134 -0.2680  0.2134
19481SOL    HW170097   9.411   5.131   3.254  0.4674 -0.6941 -3.3911
19481SOL    HW270098   9.462   5.279   3.207 -0.4876  0.8921  0.3529
19482SOL     OW70099   9.664   8.919   4.948  0.1352 -0.4761  0.3622
19482SOL    HW170100   9.754   8.934   4.988  0.8766 -1.4182 -0.9246
19482SOL    HW270101   9.664   8.951   4.854 -1.2357  0.5876  0.7037
19483SOL     OW70102   6.904   1.540   5.121  0.2457  0.2899  0.7599
19483SOL    HW170103   6.862   1.495   5.200  0.3508  0.9902  1.2165
19483SOL    HW270104   6.978   1.599   5.152  0.5347  0.2755  0.0997
19484SOL     OW70105   0.485   1.743   6.875 -0.3228  0.3364 -0.0611
19484SOL    HW170106   0.426   1.775   6.801 -2.1259  1.3681  1.7500
19484SOL    HW270107   0.429   1.694   6.943  0.5554  2.6839  2.4705
19485SOL     OW70108   2.142   5.967   3.852 -0.2039  0.4816  0.1832
19485SOL    HW170109   2.113   6.033   3.782  3.2466  1.8297 -0.0782
19485SOL    HW270110   2.162   5.880   3.808 -1.2342  0.3284 -0.0058
19486SOL     OW70111   6.992   1.547   1.293 -0.0982  0.2652 -0.5388
19486SOL    HW170112   6.959   1.509   1.206 -1.0442  0.8519 -0.4397
19486SOL    HW270113   6.946   1.500   1.369  1.8903 -1.3509 -0.3007
19487SOL     OW70114   7.663   4.560   1.266  0.1922 -0.0944  0.4206
19487SOL    HW170115   7.574   4.589   1.303  0.2180 -0.4415  0.7506
19487SOL    HW270116   7.718   4.641   1.246 -0.8484  0.1811 -1.3962
19488SOL     OW70117   9.621   6.696   3.001  0.3926  0.1283 -0.1114
19488SOL    HW170118   9.711   6.699   3.045 -0.1511 -0.8658  1.0633
19488SOL    HW270119   9.564   6.769   3.038  0.3860  0.1475 -0.1578
19489SOL     OW70120   2.306   2.186   2.327  0.0689 -0.1364  0.1780
19489SOL    HW170121   2.310   2.255   2.256  2.1640 -0.6599 -0.2288
19489SOL    HW270122   2.385   2.126   2.321 -1.1171 -1.8797  1.2394
19490SOL     OW70123   1.175   9.814   5.915  0.1068  0.3369  0.4448
19490SOL    HW170124   1.257   9.860   5.884  1.6421 -0.3950  3.2447
19490SOL    HW270125   1.171   9.722   5.876 -0.1841  0.8802 -0.8470
19491SOL     OW70126   9.461   1.976   3.404  0.1275 -0.0745 -0.2951
19491SOL    HW170127   9.446   1.918   3.484 -0.5874  1.5255  0.7461
19491SOL    HW270128   9.377   1.982   3.351  0.2568 -0.1483 -0.5103
19492SOL     OW70129   0.494   1.764   7.599  0.6511  0.0742  0.5003
19492SOL    HW170130   0.557   1.842   7.592  0.0267  0.4130 -1.5328
19492SOL    HW270131   0.542   1.680   7.574  0.1071  0.4525 -1.9726
19493SOL     OW70132   1.598   2.810   3.120  0.2048 -0.3728  0.2798
19493SOL    HW170133   1.536   2.820   3.043  0.1917  0.3393  0.3815
19493SOL    HW270134   1.586   2.719   3.161 -2.7773  0.7296  2.0136
19494SOL     OW70135   7.186   0.794   4.585  0.3594 -0.1399 -0.7781
19494SOL    HW170136   7.211   0.724   4.518 -0.8796 -0.2937 -1.0990
19494SOL    HW270137   7.267   0.819   4.638  1.6543  0.8950 -3.1539
19495SOL     OW70138   3.148   9.379   0.488  0.3220 -0.5270  0.1632
19495SOL    HW170139   3.081   9.340   0.551 -0.0622  2.4082  1.6601
19495SOL    HW270140   3.200   9.451   0.535  1.3291  0.4255 -2.3326
19496SOL     OW70141   2.298   1.458   2.372  0.4881  0.1573  0.6133
19496SOL    HW170142   2.320   1.435   2.467  1.0309  0.9855  0.6893
19496SOL    HW270143   2.249   1.545   2.369  1.3901  0.6533  0.0496
19497SOL     OW70144   9.512   9.045   5.250  0.3597 -0.6287 -0.0133
19497SOL    HW170145   9.517   8.971   5.183  1.2651  0.0328 -0.6967
19497SOL    HW270146   9.418   9.080   5.254  0.0468 -1.4551 -0.0701
19498SOL     OW70147   0.123   0.004   4.922  0.0391  0.2483 -0.5192
19498SOL    HW170148   0.218  -0.018   4.900  0.5248  0.5755  1.2223
19498SOL    HW270149   0.062  -0.060   4.874  1.1731 -0.6820 -0.7361
19499SOL     OW70150   6.164   1.253   6.293 -0.3661  0.0113  0.5011
19499SOL    HW170151   6.245   1.275   6.239 -0.8522 -0.7619 -0.5679
19499SOL    HW270152   6.096   1.208   6.235 -1.2352 -0.0914  1.5704
19500SOL     OW70153   3.183   9.671   2.700 -0.4804  0.3727 -0.2464
19500SOL    HW170154   3.257   9.709   2.645  0.5108  2.1765  2.2546
19500SOL    HW270155   3.186   9.571   2.694  1.5217  0.4465 -0.9822
19501SOL     OW70156   7.977   2.084   1.329 -0.3899 -0.2005  0.3981
19501SOL    HW170157   8.064   2.124   1.356 -0.1624  0.3906 -1.1282
19501SOL    HW270158   7.902   2.139   1.364 -0.1076  0.5039 -0.0925
19502SOL     OW70159   0.221   6.967   0.486 -0.1930  0.2710 -0.0357
19502SOL    HW170160   0.189   7.048   0.535 -2.5661 -1.1369  0.8335
19502SOL    HW270161   0.247   6.993   0.393  0.9444  2.3559  0.8363
19503SOL     OW70162   2.426   6.020   3.464  0.6580  0.1368 -0.8309
19503SOL    HW170163   2.515   6.019   3.420  0.4217  1.2246 -1.3499
19503SOL    HW270164   2.380   6.107   3.445 -0.0474  0.0390  0.3528
19504SOL     OW70165   8.758   8.805   3.810  0.4950  0.4660 -0.6716
19504SOL    HW170166   8.692   8.766   3.874 -1.0922  1.6571 -1.5346
19504SOL    HW270167   8.777   8.900   3.835  2.1079  0.0402 -0.2610
19505SOL     OW70168   1.352   9.976   7.080  0.2041  0.2172 -0.0437
19505SOL    HW170169   1.329   9.889   7.037  1.1420 -0.9942  1.8218
19505SOL    HW270170   1.293  10.048   7.045 -1.2905 -1.3762 -0.8444
19506SOL     OW70171   9.026   7.084   5.140 -0.5863  0.3323  0.0583
19506SOL    HW170172   9.001   6.989   5.156 -1.7085  0.7128  0.5853
19506SOL    HW270173   9.072   7.121   5.221  0.7852 -0.0530 -0.5232
19507SOL     OW70174   6.988   6.488   5.066  0.0938 -0.4012  0.2310
19507SOL    HW170175   6.975   6.569   5.008  0.8416 -0.4915 -0.0697
19507SOL    HW270176   7.056   6.428   5.024 -0.2861 -1.0756  0.5731
19508SOL     OW70177   9.149   3.370   7.095  0.2292  0.2294 -0.1659
19508SOL    HW170178   9.058   3.350   7.059  0.4730 -0.6730 -0.2813
19508SOL    HW270179   9.161   3.470   7.100 -0.0689  0.3774 -1.9221
19509SOL     OW70180   3.164   1.242   3.039 -0.1852  0.6970 -0.0338
19509SOL    HW170181   3.227   1.201   2.973  0.2503 -0.0776  0.8527
19509SOL    HW270182   3.162   1.341   3.025  0.9400  0.6920 -0.3269
19510SOL     OW70183   0.193   0.371   2.392 -0.7658 -0.7320 -0.0036
19510SOL    HW170184   0.248   0.293   2.423 -0.9809 -0.9861 -0.2578
19510SOL    HW270185   0.180   0.365   2.293  1.4497  1.0541 -0.4465
19511SOL     OW70186   0.501   3.558   5.909  0.7358 -0.3945 -0.8427
19511SOL    HW170187   0.566   3.504   5.856  0.5362 -1.1969 -0.2872
19511SOL    HW270188   0.437   3.496   5.956  1.7758  0.2162  1.4502
19512SOL     OW70189   0.404   5.588   2.070  0.4609  0.1344  0.2665
19512SOL    HW170190   0.479   5.521   2.073  0.3381 -0.0804 -1.2802
19512SOL    HW270191   0.430   5.664   2.011  0.0112  0.7629  0.8670
19513SOL     OW70192   3.893   4.380   2.973 -0.1187  0.1273  0.2051
19513SOL    HW170193   3.849   4.423   2.895  0.0828  0.6079  0.3497
19513SOL    HW270194   3.985   4.350   2.947  0.8536  2.4220  0.8852
19514SOL     OW70195   3.165   7.586   4.960  0.0195  0.3857  0.0610
19514SOL    HW170196   3.103   7.609   5.035 -0.9112  2.8519 -1.3865
19514SOL    HW270197   3.210   7.668   4.927  2.2607 -1.0313 -0.5074
19515SOL     OW70198   2.092   6.045   5.240  0.3857  0.4994 -0.0085
19515SOL    HW170199   2.160   5.973   5.253 -0.1852 -0.0194  0.1402
19515SOL    HW270200   2.041   6.058   5.325 -0.9653 -0.4360 -0.6542
19516SOL     OW70201   0.789   4.836   6.375 -0.8108 -0.4831 -0.0412
19516SOL    HW170202   0.719   4.771   6.345  1.0567 -2.9443  0.7697
19516SOL    HW270203   0.825   4.885   6.295  0.0148 -2.7618 -1.0989
19517SOL     OW70204   8.668   4.316   1.840  0.3119  0.1350  0.3406
19517SOL    HW170205   8.569   4.307   1.830  0.5077 -0.6037 -0.9976
19517SOL    HW270206   8.690   4.342   1.934 -1.1010 -0.4621  0.8443
19518SOL     OW70207   1.915   4.862   4.019 -0.2509  0.2390  0.2368
19518SOL    HW170208   1.884   4.778   3.976 -0.1384 -0.2405  1.0872
19518SOL    HW270209   1.994   4.843   4.077  1.2259  1.3358 -1.3661
19519SOL     OW70210   2.961   4.847   0.631  0.2543  0.0377  0.0967
19519SOL    HW170211   2.985   4.897   0.548 -1.4915 -0.2484 -0.5865
19519SOL    HW270212   2.959   4.911   0.708  1.0256  0.4585 -0.2183
19520SOL     OW70213   7.752   8.395   3.273 -0.0852  0.3775 -0.2724
19520SOL    HW170214   7.721   8.404   3.368  0.0163  1.1352 -0.3071
19520SOL    HW270215   7.846   8.361   3.272 -0.5081 -0.8304 -0.1386
19521SOL     OW70216   0.884   3.011   0.436 -0.1702 -0.2630 -0.8297
19521SOL    HW170217   0.822   3.087   0.458 -0.0179 -0.0820 -1.0249
19521SOL    HW270218   0.917   2.969   0.521 -0.5006 -0.3108 -0.7238
19522SOL     OW70219   4.326   7.215   2.375 -0.8305  0.2996  0.2618
19522SOL    HW170220   4.343   7.123   2.410  0.6291  0.1872 -0.6499
19522SOL    HW270221   4.312   7.278   2.451 -0.2816 -0.3979  0.9481
19523SOL     OW70222   3.233   2.656   5.242  0.3050 -0.3693  0.6611
19523SOL    HW170223   3.212   2.583   5.307  0.5866 -1.8646 -0.8920
19523SOL    HW270224   3.329   2.650   5.214  0.3373  0.6200  0.5269
19524SOL     OW70225   2.294   8.986   7.702 -0.1191 -0.0303 -0.2229
19524SOL    HW170226   2.371   9.049   7.690  1.0160 -0.8532  2.3548
19524SOL    HW270227   2.326   8.892   7.692 -0.9431 -0.3572  0.1476
19525SOL     OW70228   2.258   3.416   6.532  0.1038  0.3202 -0.1150
19525SOL    HW170229   2.166   3.438   6.564 -0.7386 -0.6829 -1.8232
19525SOL    HW270230   2.315   3.389   6.610 -1.4881 -0.6038  0.7395
19526SOL     OW70231   0.882   9.285   6.933  0.0083 -0.3127  0.1635
19526SOL    HW170232   0.869   9.381   6.956 -0.0137 -0.2809  0.0101
19526SOL    HW270233   0.859   9.269   6.837 -2.9830 -1.0519  0.9536
19527SOL     OW70234   9.739   5.352   0.484  0.4606  0.3553 -0.0353
19527SOL    HW170235   9.817   5.292   0.499 -1.8856 -2.5961  0.8412
19527SOL    HW270236   9.714   5.397   0.570  0.4329  0.3467 -0.0393
19528SOL     OW70237   6.953   4.612   1.066  0.1782  0.0205 -0.0746
19528SOL    HW170238   6.859   4.643   1.057  0.2188  0.2035  0.1094
19528SOL    HW270239   7.014   4.675   1.018  0.4056  1.0550  1.5262
19529SOL     OW70240   9.935   5.471   5.847  0.2428  0.0749  0.3882
19529SOL    HW170241  10.031   5.447   5.842 -0.0365 -0.7760 -1.6247
19529SOL    HW270242   9.880   5.398   5.807 -1.1189  1.1544  0.2297
19530SOL     OW70243   9.210   9.585   4.955 -0.1026 -0.1458 -0.0997
19530SOL    HW170244   9.207   9.661   5.019 -3.4922 -1.0954  0.9930
19530SOL    HW270245   9.236   9.501   5.004  1.9255 -0.0177 -0.9400
19531SOL     OW70246   5.855   0.463   5.417 -0.1289  0.5373  0.7140
19531SOL    HW170247   5.801   0.539   5.381 -1.0936 -0.3750  0.1900
19531SOL    HW270248   5.912   0.425   5.345 -1.3359 -0.6652  0.3605
19532SOL     OW70249   6.795   9.255   3.683 -0.2177 -0.1041 -0.3022
19532SOL    HW170250   6.789   9.181   3.750 -2.3080  0.5637  0.2999
19532SOL    HW270251   6.751   9.225   3.598 -0.9628  0.3911 -0.0956
19533SOL     OW70252   7.701   9.386   3.761 -0.0949 -0.6245 -0.7526
19533SOL    HW170253   7.704   9.485   3.771 -0.5209 -0.6467 -0.4002
19533SOL    HW270254   7.679   9.344   3.849  1.9141 -1.1405 -0.4919
19534SOL     OW70255   9.765   7.660   3.369 -0.5042  0.1723  0.0142
19534SOL    HW170256   9.856   7.659   3.326 -1.3827 -0.5345 -1.8980
19534SOL    HW270257   9.735   7.754   3.382  0.2866  0.4038  0.2023
19535SOL     OW70258   5.955   2.886   0.799  0.4373 -0.3381 -0.3443
19535SOL    HW170259   5.859   2.861   0.781 -0.1274  1.8162 -0.3787
19535SOL    HW270260   5.998   2.813   0.853 -1.8091 -0.3951  1.4651
19536SOL     OW70261   2.125   9.599   5.233 -0.0036  0.0520  0.0523
19536SOL    HW170262   2.125   9.500   5.221 -0.2337  0.1695 -0.9434
19536SOL    HW270263   2.151   9.621   5.327 -1.2738 -1.0081  0.6672
19537SOL     OW70264   0.675   7.527   5.116  0.0500  0.1408 -0.2399
19537SOL    HW170265   0.588   7.563   5.148 -0.1180 -0.0064 -0.5317
19537SOL    HW270266   0.676   7.428   5.124  0.4151  0.1866  0.3170
19538SOL     OW70267   6.993   1.925   3.628 -0.2593 -0.5301 -0.6405
19538SOL    HW170268   6.964   1.874   3.709 -0.9707 -1.1895 -1.3038
19538SOL    HW270269   6.945   1.890   3.547  0.6912 -0.1004 -1.3996
19539SOL     OW70270   9.013   6.344   5.285  0.1041 -0.0192 -0.2667
19539SOL    HW170271   9.046   6.429   5.244 -0.1384  0.0601 -0.2991
19539SOL    HW270272   9.064   6.325   5.369  0.7469 -0.2946 -0.7185
19540SOL     OW70273   2.099   0.875   0.383 -0.0055 -0.3265 -1.0874
19540SOL    HW170274   2.070   0.815   0.309  0.3279 -0.0802 -1.4192
19540SOL    HW270275   2.157   0.947   0.347  0.1502 -0.1974 -0.5873
19541SOL     OW70276   2.569   9.835   0.035 -0.5816 -0.4713  0.0112
19541SOL    HW170277   2.519   9.920   0.020  0.0467 -0.0805  0.1516
19541SOL    HW270278   2.625   9.815  -0.045  0.5031  0.0836  0.6297
19542SOL     OW70279   6.376   5.474   1.447 -0.3249 -0.5665  0.2079
19542SOL    HW170280   6.463   5.425   1.451 -0.1388 -0.1569  1.2236
19542SOL    HW270281   6.393   5.573   1.442 -0.7188 -0.5225 -0.3136
19543SOL     OW70282   3.000   5.345   3.173  0.0811 -0.3313  0.0801
19543SOL    HW170283   3.070   5.344   3.102  0.3096 -0.9892  0.3051
19543SOL    HW270284   2.956   5.434   3.176 -0.7760 -0.6691 -1.7206
19544SOL     OW70285   2.606   7.685   0.751 -0.1690  0.2197 -0.3042
19544SOL    HW170286   2.607   7.705   0.653 -1.0668  0.7091 -0.2252
19544SOL    HW270287   2.549   7.753   0.798 -0.2515 -0.3766  0.4708
19545SOL     OW70288   9.523   5.291   5.074  0.5137  0.4502  0.1801
19545SOL    HW170289   9.454   5.342   5.127  0.3990 -0.4151  0.8830
19545SOL    HW270290   9.589   5.355   5.035 -1.0990  1.3618 -1.1153
19546SOL     OW70291   2.867   8.400   6.599  0.1901  0.0126  0.2464
19546SOL    HW170292   2.773   8.377   6.622 -0.0994 -0.3814 -1.2499
19546SOL    HW270293   2.928   8.328   6.632 -0.0780  0.0652  0.8536
19547SOL     OW70294   8.409   7.646   2.256  0.1582  0.5627  0.2906
19547SOL    HW170295   8.341   7.718   2.271  0.7684  0.8799  1.6648
19547SOL    HW270296   8.495   7.673   2.300  0.2901 -1.1628  1.1310
19548SOL     OW70297   0.390   9.310   4.242 -0.5794 -0.3497 -0.7161
19548SOL    HW170298   0.319   9.371   4.206  0.4295  1.3034  0.0054
19548SOL    HW270299   0.449   9.279   4.167 -1.2610 -0.6613 -1.1265
19549SOL     OW70300   1.663   2.067   6.412 -0.0006  0.5193 -0.2520
19549SOL    HW170301   1.756   2.062   6.449  0.5430 -0.3014 -1.7008
19549SOL    HW270302   1.601   2.015   6.472  0.8656 -0.7508 -0.4313
19550SOL     OW70303   4.231   2.010   4.018  0.4170  0.5146  0.1154
19550SOL    HW170304   4.247   2.046   4.110  1.7459 -0.2206  0.1664
19550SOL    HW270305   4.315   2.014   3.965 -0.2409  0.5437 -0.9451
19551SOL     OW70306   3.288   6.288   6.920  0.4361  0.1529  0.3209
19551SOL    HW170307   3.265   6.200   6.880  1.3725 -0.6686  1.5488
19551SOL    HW270308   3.321   6.350   6.848 -1.1186 -0.1779 -0.6857
19552SOL     OW70309   6.156   0.640   4.471 -0.1859 -0.1165  0.0964
19552SOL    HW170310   6.240   0.657   4.522 -0.8844 -0.0939  1.2625
19552SOL    HW270311   6.079   0.631   4.535 -1.1129  0.1091 -0.9640
19553SOL     OW70312   0.083   9.193   4.828 -0.2886  0.1444  0.5666
19553SOL    HW170313   0.019   9.263   4.794 -0.4054  0.3750  1.2531
19553SOL    HW270314   0.055   9.104   4.793 -1.5986  0.0991  1.6833
19554SOL     OW70315   3.805   0.552   1.320  0.9605 -0.1910  0.0689
19554SOL    HW170316   3.813   0.462   1.277 -0.7926 -1.0102  1.3806
19554SOL    HW270317   3.828   0.623   1.253  2.1819 -1.5995 -1.0341
19555SOL     OW70318   9.247   2.569   5.033 -0.3124  0.0276  0.1326
19555SOL    HW170319   9.271   2.516   5.114  0.2609 -1.9117 -1.2867
19555SOL    HW270320   9.228   2.664   5.060 -1.3175 -0.8636  2.6704
19556SOL     OW70321   9.704   9.469   5.887  0.0310  0.4577 -0.0323
19556SOL    HW170322   9.727   9.566   5.884  0.6248  0.3725  1.4069
19556SOL    HW270323   9.757   9.420   5.818  1.6884  0.7807  0.9825
19557SOL     OW70324   1.195   9.073   5.581  0.0548 -0.2097  0.3349
19557SOL    HW170325   1.195   9.009   5.657 -2.1853 -0.1448  0.4189
19557SOL    HW270326   1.205   9.166   5.617 -0.3482 -0.2319  0.5171
19558SOL     OW70327   5.034   8.410   4.161  0.1390 -0.0741  0.1806
19558SOL    HW170328   5.121   8.361   4.150  0.1388  0.2832 -1.5867
19558SOL    HW270329   5.043   8.478   4.233  1.7071  0.7449 -0.7456
19559SOL     OW70330   3.659   4.929   8.073 -0.0456 -0.2758  0.3785
19559SOL    HW170331   3.728   4.978   8.019  1.5500 -0.7249  1.9538
19559SOL    HW270332   3.606   4.994   8.128  1.6192 -0.2079  1.9586
19560SOL     OW70333   8.396   8.728   4.980  0.1618  0.2492  0.2204
19560SOL    HW170334   8.401   8.810   5.037  1.6084  0.3711 -0.0767
19560SOL    HW270335   8.482   8.678   4.985  0.6338  0.7054 -2.5144
19561SOL     OW70336   0.687   8.500   1.357 -0.3257 -0.5123  0.1904
19561SOL    HW170337   0.695   8.545   1.446  0.7956 -0.7193  0.1941
19561SOL    HW270338   0.596   8.519   1.319 -0.7521 -0.2752  1.2905
19562SOL     OW70339   1.486   2.645   8.057  0.5471 -0.2470  0.2832
19562SOL    HW170340   1.503   2.551   8.086  0.5919 -0.0220  0.9928
19562SOL    HW270341   1.529   2.660   7.968  0.8024 -0.8080  0.3087
19563SOL     OW70342   6.305   0.452   5.087 -0.7375 -0.0267  0.2085
19563SOL    HW170343   6.293   0.438   4.989 -1.9833 -0.9234  0.4808
19563SOL    HW270344   6.368   0.528   5.102 -0.5984  0.1674 -1.2808
19564SOL     OW70345   8.502   4.151   4.950 -0.1695  0.0733  0.5818
19564SOL    HW170346   8.446   4.069   4.933 -0.2277  0.1817  0.2538
19564SOL    HW270347   8.476   4.223   4.887  1.5205 -0.4416 -0.7252
19565SOL     OW70348   2.560   2.639   2.567 -0.7701 -0.4917  0.1648
19565SOL    HW170349   2.512   2.680   2.645  0.8821  0.4286  0.7087
19565SOL    HW270350   2.535   2.543   2.560  0.8122 -1.1916  3.2306
19566SOL     OW70351   1.973   2.688   0.537  0.6007 -0.5077  0.0098
19566SOL    HW170352   2.008   2.677   0.444 -0.4535 -1.8522 -0.2455
19566SOL    HW270353   2.045   2.723   0.596  1.2148  0.5849 -1.3685
19567SOL     OW70354   0.045   3.125   5.870  1.0039  0.1090  0.4333
19567SOL    HW170355   0.040   3.118   5.770 -0.2070  0.4835  0.4617
19567SOL    HW270356  -0.046   3.144   5.907  1.5139  0.3781  1.5788
19568SOL     OW70357   8.547   1.235   4.108 -0.2790 -0.2282  0.5312
19568SOL    HW170358   8.496   1.321   4.107 -1.4380 -0.8829  1.9765
19568SOL    HW270359   8.488   1.161   4.076  0.5479 -0.5809 -0.1983
19569SOL     OW70360   9.624   7.631   0.516  0.5594 -0.1780 -0.0299
19569SOL    HW170361   9.530   7.609   0.541  0.6865 -0.5412  0.1330
19569SOL    HW270362   9.686   7.564   0.557  0.8560 -0.1474 -0.4272
19570SOL     OW70363   7.116   7.325   4.037 -0.1617 -0.7082  0.3128
19570SOL    HW170364   7.016   7.323   4.040 -0.1354 -0.5516  1.5076
19570SOL    HW270365   7.149   7.402   4.092  0.6354 -1.0950  0.3707
19571SOL     OW70366   6.794   3.954   8.200 -0.2082 -0.2152 -0.1635
19571SOL    HW170367   6.741   4.037   8.216 -0.3075 -0.3673  0.2953
19571SOL    HW270368   6.868   3.948   8.266  0.0353 -0.2965 -0.4407
19572SOL     OW70369   6.793   0.342   3.569  0.0859  0.0666  0.5871
19572SOL    HW170370   6.786   0.441   3.572 -1.3268  0.0492 -0.8693
19572SOL    HW270371   6.769   0.310   3.477 -0.3215 -1.6681  1.2705
19573SOL     OW70372   2.158   2.719   1.483  0.0084  0.6850 -0.1785
19573SOL    HW170373   2.151   2.638   1.424  0.8913  0.5885 -0.1532
19573SOL    HW270374   2.237   2.710   1.543 -2.0663 -0.2320  2.5692
19574SOL     OW70375   3.230   6.818   4.009  0.9198  0.0363 -0.6789
19574SOL    HW170376   3.313   6.868   3.984  2.7488 -2.0498  0.9928
19574SOL    HW270377   3.226   6.732   3.957  0.7515 -0.6889  0.4983
19575SOL     OW70378   0.245   8.747   1.702 -0.1582  0.0547 -0.2019
19575SOL    HW170379   0.298   8.754   1.617  4.2022  0.5257  2.3785
19575SOL    HW270380   0.255   8.654   1.740  0.8493  0.8318  1.5113
19576SOL     OW70381   9.609   2.145   4.712 -0.3099 -0.0927 -0.1227
19576SOL    HW170382   9.530   2.084   4.706  0.8821 -1.5544 -1.1516
19576SOL    HW270383   9.653   2.134   4.801 -0.1101 -0.7158 -0.2997
19577SOL     OW70384   1.587   3.501   0.093  0.3122  0.2285 -1.0289
19577SOL    HW170385   1.575   3.484  -0.005 -2.9463 -3.0124 -0.1539
19577SOL    HW270386   1.604   3.415   0.140 -0.5468  1.4205  1.5694
19578SOL     OW70387   4.586   0.517   7.326  0.3343 -0.1733  0.2605
19578SOL    HW170388   4.599   0.596   7.386 -0.3561  1.6157 -1.8558
19578SOL    HW270389   4.671   0.500   7.275  0.4115 -0.6333  0.5486
19579SOL     OW70390   5.186   9.135   1.352  0.2485  0.5746  0.1089
19579SOL    HW170391   5.150   9.043   1.361 -0.7092  0.9405  0.0765
19579SOL    HW270392   5.267   9.134   1.293  0.5794 -0.3223  0.5769
19580SOL     OW70393   8.441   0.466   2.963  0.0488  0.1797 -0.0226
19580SOL    HW170394   8.347   0.431   2.964 -0.3976  1.3531  1.9091
19580SOL    HW270395   8.446   0.550   3.017  2.3074 -0.1521  0.3521
19581SOL     OW70396   8.618   1.837   2.081 -1.1352  1.0183 -0.1909
19581SOL    HW170397   8.601   1.771   2.007 -0.3187  0.9310 -0.3027
19581SOL    HW270398   8.602   1.792   2.169 -0.0172  0.4931 -0.2459
19582SOL     OW70399   9.317   0.451   1.971 -0.5795 -0.2860 -0.4085
19582SOL    HW170400   9.219   0.432   1.972 -0.7087  0.3748 -0.4924
19582SOL    HW270401   9.349   0.460   1.877 -0.5061 -0.1351 -0.3690
19583SOL     OW70402   8.533   1.502   2.600 -0.0262 -0.4911  0.0196
19583SOL    HW170403   8.470   1.449   2.543 -0.1702  0.3517 -0.6270
19583SOL    HW270404   8.596   1.440   2.647  0.0355 -1.2137 -0.9919
19584SOL     OW70405   1.171   3.176   7.732  0.1632  0.1900  0.1846
19584SOL    HW170406   1.136   3.102   7.674  0.5127 -1.4651  2.0503
19584SOL    HW270407   1.268   3.160   7.752  0.4547  1.5879 -0.0461
19585SOL     OW70408   8.858   2.419   6.551 -0.0297  0.1945 -0.3020
19585SOL    HW170409   8.810   2.332   6.561 -0.8089  0.6697  0.2411
19585SOL    HW270410   8.841   2.456   6.460 -0.5841  0.2819 -0.1688
19586SOL     OW70411   2.650   4.545   2.158  0.3671  0.1857  0.5215
19586SOL    HW170412   2.659   4.445   2.154 -1.0616  0.0662  0.2223
19586SOL    HW270413   2.554   4.571   2.149  0.8339  1.6501 -0.4513
19587SOL     OW70414   5.396   7.116   1.335  0.4912  0.1075 -0.3016
19587SOL    HW170415   5.467   7.053   1.304  0.8407  0.1479  0.4038
19587SOL    HW270416   5.420   7.151   1.426  0.6474  1.8150 -0.9927
19588SOL     OW70417   6.638   0.697   5.313  0.0017  0.4744  0.2385
19588SOL    HW170418   6.728   0.679   5.274 -1.1310  0.0417 -2.2536
19588SOL    HW270419   6.600   0.612   5.350  0.5024  0.6065  1.0633
19589SOL     OW70420   6.406   9.331   6.196 -0.2840 -0.2370  0.1906
19589SOL    HW170421   6.370   9.423   6.183 -0.7895 -0.0645  2.6025
19589SOL    HW270422   6.487   9.335   6.254  0.9358 -1.1315 -1.3829
19590SOL     OW70423   3.305   9.526   5.484 -0.3386  0.5673  0.1877
19590SOL    HW170424   3.210   9.497   5.472  0.0844 -0.3928 -1.0667
19590SOL    HW270425   3.324   9.603   5.423  0.2522 -0.6051 -1.1301
19591SOL     OW70426   8.637   7.362   4.435  0.2655  0.2230  0.1586
19591SOL    HW170427   8.578   7.328   4.508 -0.0726  0.5935  0.0660
19591SOL    HW270428   8.651   7.460   4.446 -0.3377  0.4093 -0.6458
19592SOL     OW70429   8.720   2.439   1.842 -0.0252 -0.2975  0.1456
19592SOL    HW170430   8.734   2.344   1.815 -0.4369 -1.1121  2.6828
19592SOL    HW270431   8.677   2.442   1.932  0.7248  2.3122  0.4491
19593SOL     OW70432   8.255   0.985   0.466  0.3779  0.8393 -0.0975
19593SOL    HW170433   8.241   1.063   0.404  0.4828 -0.0804 -1.2807
19593SOL    HW270434   8.348   0.987   0.502  1.1082  0.0299 -1.8697
19594SOL     OW70435   1.279   4.932   6.795  0.0419 -0.3049 -0.1514
19594SOL    HW170436   1.308   4.968   6.884  2.2067  0.2961 -1.0796
19594SOL    HW270437   1.193   4.976   6.768 -0.0127  0.3768  1.0723
19595SOL     OW70438   8.899   9.276   0.081  0.2856 -0.1013  0.3861
19595SOL    HW170439   8.937   9.215   0.011 -0.5589 -0.5526  0.3075
19595SOL    HW270440   8.912   9.371   0.054  0.0430 -0.2742 -0.3523
19596SOL     OW70441   1.819   3.824   5.583 -0.1565 -0.8512  0.0684
19596SOL    HW170442   1.886   3.817   5.509 -0.2252 -3.1385  0.2060
19596SOL    HW270443   1.777   3.915   5.581  0.3831 -0.6214 -2.2360
19597SOL     OW70444   2.395   0.135   2.752 -0.7291 -0.1845  0.0285
19597SOL    HW170445   2.295   0.131   2.741 -1.0218 -1.0356  2.6258
19597SOL    HW270446   2.419   0.218   2.802 -0.2562 -0.6139  0.5199
19598SOL     OW70447   2.228   1.106   2.468 -0.3804 -0.2448  0.0244
19598SOL    HW170448   2.283   1.087   2.387  0.9331  0.4755  0.7339
19598SOL    HW270449   2.287   1.112   2.548 -1.3946  1.3652  0.6772
19599SOL     OW70450   6.130   2.367   0.965  0.4090  0.3184 -0.4135
19599SOL    HW170451   6.147   2.445   0.905  0.4672  1.1839  0.7092
19599SOL    HW270452   6.039   2.330   0.947 -0.5338  2.0648  0.5655
19600SOL     OW70453   4.338   0.149   4.635 -0.1208 -0.3430  0.2842
19600SOL    HW170454   4.314   0.211   4.560 -0.8727 -0.5079  0.3850
19600SOL    HW270455   4.266   0.081   4.646  0.6744 -1.2067  0.2099
19601SOL     OW70456   3.425   4.078   0.218  0.2974 -0.3517 -1.0146
19601SOL    HW170457   3.380   4.016   0.283  0.1090 -1.4803 -2.1961
19601SOL    HW270458   3.511   4.110   0.257 -0.6827  0.4616  0.5524
19602SOL     OW70459   2.653   3.037   1.837 -0.0349 -0.1541 -0.8125
19602SOL    HW170460   2.664   3.032   1.937  1.0135 -0.3148 -0.9239
19602SOL    HW270461   2.623   2.948   1.803  0.4170 -0.3400 -0.7291
19603SOL     OW70462   1.200   1.867   7.087 -0.4561  0.3790 -0.0469
19603SOL    HW170463   1.150   1.918   7.017 -1.7938  0.3076  0.8381
19603SOL    HW270464   1.141   1.851   7.166  0.6730 -0.5359  0.6395
19604SOL     OW70465   1.138   4.943   0.625  0.3619 -0.4253  0.6331
19604SOL    HW170466   1.161   5.035   0.593  1.1811 -0.8094  0.0910
19604SOL    HW270467   1.164   4.933   0.721 -0.1045  0.0421  0.8057
19605SOL     OW70468   0.459   8.153   8.024 -0.4555  0.1914 -0.0823
19605SOL    HW170469   0.464   8.110   8.115  0.5063  0.0343 -0.2088
19605SOL    HW270470   0.519   8.105   7.961 -1.8350 -0.2773 -1.0480
19606SOL     OW70471   2.634   1.110   5.126 -0.2784 -0.5327  0.3333
19606SOL    HW170472   2.601   1.076   5.214 -0.5284 -1.8815 -0.2657
19606SOL    HW270473   2.584   1.193   5.101 -0.9012 -0.7071  0.9903
19607SOL     OW70474   9.681   5.254   2.471 -0.4708 -0.3637 -0.5189
19607SOL    HW170475   9.585   5.281   2.480 -0.8350 -2.4706  2.7935
19607SOL    HW270476   9.691   5.157   2.493  2.2897 -0.4555 -1.8952
19608SOL     OW70477   2.896   4.580   5.345 -0.2494 -0.3044  0.3336
19608SOL    HW170478   2.932   4.644   5.278 -0.3574 -0.7681 -0.1741
19608SOL    HW270479   2.938   4.490   5.333  0.1265 -0.2618  1.2374
19609SOL     OW70480   0.977   3.547   7.250  0.2139 -0.4724  0.0211
19609SOL    HW170481   0.951   3.511   7.340 -0.6204  0.3602  0.1316
19609SOL    HW270482   0.901   3.535   7.186  0.0157  0.8175 -0.0067
19610SOL     OW70483   7.009   8.471   6.506 -0.3242 -0.6379 -0.3011
19610SOL    HW170484   7.004   8.567   6.532  1.2987 -1.1843  2.2118
19610SOL    HW270485   6.918   8.430   6.512 -1.0557  0.7569 -1.5661
19611SOL     OW70486   3.872   0.808   4.055 -0.0425  0.1344 -0.4321
19611SOL    HW170487   3.913   0.782   4.142  0.2901  0.5080 -0.4724
19611SOL    HW270488   3.792   0.865   4.072  0.4175  0.7721 -0.3787
19612SOL     OW70489   1.789   0.358   3.637 -0.0302 -0.3617 -0.2588
19612SOL    HW170490   1.780   0.281   3.574 -0.0685  0.9605 -1.9216
19612SOL    HW270491   1.882   0.394   3.633 -0.8184  1.6037 -1.8536
19613SOL     OW70492   7.567   5.512   2.996 -0.6333  0.2317 -0.0374
19613SOL    HW170493   7.541   5.425   2.954 -1.6972 -0.5681  2.1942
19613SOL    HW270494   7.618   5.496   3.080  1.2792  1.8067 -0.8438
19614SOL     OW70495   3.286   3.973   0.443  0.2902 -0.2152  0.1762
19614SOL    HW170496   3.213   4.040   0.460 -0.7197 -0.5145 -2.7159
19614SOL    HW270497   3.315   3.933   0.530 -2.5900  0.3556  1.4723
19615SOL     OW70498   3.579   3.386   7.118 -0.1937 -0.3270  0.2147
19615SOL    HW170499   3.487   3.352   7.098 -0.0701  0.5857 -2.1212
19615SOL    HW270500   3.590   3.477   7.078  1.9577 -0.7329 -0.1669
19616SOL     OW70501   4.134   1.171   6.360 -0.1391 -0.1075 -0.3859
19616SOL    HW170502   4.227   1.199   6.385 -0.5979  1.8554 -0.8551
19616SOL    HW270503   4.073   1.250   6.363 -2.2790 -1.7515  2.0578
19617SOL     OW70504   9.692   2.631   4.969 -0.2198 -0.8646 -0.4865
19617SOL    HW170505   9.712   2.717   4.923  1.2236 -1.0421 -0.2235
19617SOL    HW270506   9.603   2.596   4.938 -0.4078  0.2620 -1.2517
19618SOL     OW70507   8.863   9.296   2.969  0.4008 -0.4556 -0.0564
19618SOL    HW170508   8.791   9.282   2.901 -0.0745  0.8341  0.1593
19618SOL    HW270509   8.838   9.372   3.029  0.8231 -1.5830  1.5800
19619SOL     OW70510   8.525   8.339   3.472 -0.4407 -0.8218 -0.4208
19619SOL    HW170511   8.557   8.252   3.509  0.5188 -0.2212  0.1678
19619SOL    HW270512   8.518   8.333   3.372  0.2620 -1.3601 -0.4354
19620SOL     OW70513   1.126   7.484   6.467 -0.7074  0.2884 -0.0081
19620SOL    HW170514   1.140   7.533   6.553 -0.9124  0.0207  0.1771
19620SOL    HW270515   1.030   7.460   6.456 -0.3667 -1.5679  0.7306
19621SOL     OW70516   2.813   6.865   7.772 -0.1064  0.1246 -0.4746
19621SOL    HW170517   2.868   6.900   7.848 -2.4040  1.1274  0.7861
19621SOL    HW270518   2.757   6.939   7.735 -1.8706 -1.2475 -0.5994
19622SOL     OW70519   9.045   7.506   3.912 -0.1261 -0.2588  0.0161
19622SOL    HW170520   9.007   7.471   3.998 -0.0202  0.1396  0.2250
19622SOL    HW270521   8.974   7.503   3.842  0.3466 -2.4470 -0.4038
19623SOL     OW70522   0.843   7.015   1.736 -0.6914  0.5852 -0.0385
19623SOL    HW170523   0.848   7.079   1.659 -2.4964  0.8497  0.0501
19623SOL    HW270524   0.785   6.937   1.711  0.3595 -0.3360  0.3499
19624SOL     OW70525   3.189   8.277   0.413  0.2828  0.2550 -0.4871
19624SOL    HW170526   3.097   8.249   0.437  0.5182 -1.2055 -1.2565
19624SOL    HW270527   3.245   8.196   0.395  1.7932  1.1051  0.2507
19625SOL     OW70528   7.950   1.252   3.529  0.0371 -0.1216  0.3993
19625SOL    HW170529   7.892   1.171   3.538  0.8701 -0.7509  0.0965
19625SOL    HW270530   8.011   1.241   3.451 -0.1178  0.9696  0.1150
19626SOL     OW70531   3.999   8.344   4.730  0.1382 -0.7641 -0.1299
19626SOL    HW170532   4.045   8.258   4.708 -1.9447 -1.4541 -1.9412
19626SOL    HW270533   4.012   8.409   4.654 -1.4451 -0.7927 -0.4309
19627SOL     OW70534   7.153   0.828   2.868  0.2058 -0.3533 -0.4384
19627SOL    HW170535   7.078   0.782   2.821  0.0126 -0.7863  0.2728
19627SOL    HW270536   7.127   0.845   2.963  0.2602  1.2944 -0.7124
19628SOL     OW70537   4.094   1.666   3.592  0.0529 -0.1682  0.2104
19628SOL    HW170538   4.037   1.670   3.674 -0.0763 -0.3721  0.1289
19628SOL    HW270539   4.098   1.572   3.558  0.6647 -0.2035  0.3742
19629SOL     OW70540   4.571   9.358   7.041  0.1326  0.1445 -0.1434
19629SOL    HW170541   4.562   9.332   6.945 -3.1677 -0.3082  0.2120
19629SOL    HW270542   4.482   9.387   7.076  1.3589  0.6942  2.6907
19630SOL     OW70543   3.811   2.760   4.122  0.2719  0.1322  0.5090
19630SOL    HW170544   3.736   2.796   4.177  0.9733  1.3569  0.6844
19630SOL    HW270545   3.774   2.705   4.047 -0.6842 -1.4910  2.1408
19631SOL     OW70546   5.353   4.934   2.102  0.2783  0.6397  0.3084
19631SOL    HW170547   5.338   5.007   2.169  0.6753  2.1038 -1.1901
19631SOL    HW270548   5.286   4.943   2.028  0.6986 -0.1898 -0.1744
19632SOL     OW70549   1.106   7.887   5.842 -0.5134  0.5299  0.0013
19632SOL    HW170550   1.036   7.945   5.883 -0.5676  0.7070 -0.3385
19632SOL    HW270551   1.068   7.839   5.763 -0.3181  0.4414 -0.0398
19633SOL     OW70552   0.330   0.655   4.995 -0.3453 -0.3430  0.4246
19633SOL    HW170553   0.318   0.753   5.008  0.7225 -0.2909  1.1223
19633SOL    HW270554   0.294   0.606   5.075 -0.6847 -0.5022  0.1735
19634SOL     OW70555   2.829   9.893   4.470 -0.2219 -0.3472  0.0743
19634SOL    HW170556   2.884   9.966   4.512 -0.6014  0.5038 -0.8834
19634SOL    HW270557   2.737   9.927   4.451 -0.2121 -0.8719 -0.9639
19635SOL     OW70558   1.654   9.968   1.697  0.0751 -0.4585  0.2268
19635SOL    HW170559   1.709  10.022   1.633  0.0761  0.4712  0.9972
19635SOL    HW270560   1.713   9.901   1.743  0.2474 -0.5338 -0.1028
19636SOL     OW70561   8.176   8.404   2.621 -0.0711  0.6427  0.1315
19636SOL    HW170562   8.155   8.404   2.719 -0.1367  0.7366  0.1177
19636SOL    HW270563   8.125   8.331   2.575  1.1672 -0.4371  0.4233
19637SOL     OW70564   6.411   3.343   0.968 -0.3113 -0.3593  0.5485
19637SOL    HW170565   6.475   3.368   1.042 -0.2105  0.2014  0.2741
19637SOL    HW270566   6.442   3.384   0.882 -0.5504 -0.8322  0.2393
19638SOL     OW70567   4.125   4.020   7.950 -0.0954 -0.4029  0.2310
19638SOL    HW170568   4.102   3.942   7.892  0.0731 -0.9031  0.8302
19638SOL    HW270569   4.191   3.991   8.020  0.3409  0.3956  0.1489
19639SOL     OW70570   1.118   6.597   2.968 -0.3775  0.0458  0.4047
19639SOL    HW170571   1.084   6.612   2.875  1.2778 -0.5125 -0.3002
19639SOL    HW270572   1.048   6.627   3.033 -1.4277  0.7593 -1.0019
19640SOL     OW70573   3.884   1.389   2.705 -0.2055 -0.6280  0.1894
19640SOL    HW170574   3.791   1.379   2.669 -0.3315  1.1900 -0.0468
19640SOL    HW270575   3.937   1.447   2.643  0.5893 -0.2814  1.1893
19641SOL     OW70576   3.852   2.529   2.975 -0.6770 -0.0257 -0.0092
19641SOL    HW170577   3.850   2.616   2.926 -2.1191 -0.0093  0.0612
19641SOL    HW270578   3.931   2.527   3.036 -0.6847  1.2704  0.0510
19642SOL     OW70579   8.802   9.731   6.991 -0.8127  0.6874  0.0307
19642SOL    HW170580   8.766   9.692   6.907  4.0692 -3.9357 -0.1526
19642SOL    HW270581   8.747   9.700   7.068 -0.4153 -1.9854 -0.7159
19643SOL     OW70582   9.013   7.301   5.970  0.3237 -0.0836  0.0182
19643SOL    HW170583   9.016   7.255   5.881 -1.5133 -0.5454  0.1790
19643SOL    HW270584   8.950   7.253   6.030  0.6506  0.9317  1.1869
19644SOL     OW70585   4.683   1.490   4.742 -0.0227 -0.2560  0.7056
19644SOL    HW170586   4.684   1.497   4.842 -2.7979 -1.4762  0.8455
19644SOL    HW270587   4.717   1.401   4.714 -1.3697 -0.7654  0.6727
19645SOL     OW70588   9.041   2.266   3.467 -0.3023  0.4908 -0.5618
19645SOL    HW170589   9.112   2.327   3.432  0.0543 -0.6007 -1.7510
19645SOL    HW270590   9.056   2.174   3.432 -2.9689  0.4738 -1.7566
19646SOL     OW70591   1.500   6.600   1.343 -0.0396  0.0367 -0.3896
19646SOL    HW170592   1.412   6.556   1.361 -0.2763  0.5482 -0.2801
19646SOL    HW270593   1.486   6.699   1.335  0.6680  0.2241  0.6342
19647SOL     OW70594   8.824   5.196   1.533 -0.2520 -0.1011 -0.6661
19647SOL    HW170595   8.863   5.107   1.558  1.4342  0.6663 -0.4830
19647SOL    HW270596   8.765   5.228   1.607 -0.8967 -1.0971 -0.7534
19648SOL     OW70597   3.622   0.931   4.076 -0.3191 -0.3079 -0.0904
19648SOL    HW170598   3.639   1.027   4.097  1.2044 -0.5761 -0.0512
19648SOL    HW270599   3.527   0.908   4.099  0.0851  0.4900  2.5863
19649SOL     OW70600   4.973   6.236   1.419 -0.6450 -0.1998  0.4791
19649SOL    HW170601   5.009   6.229   1.512 -1.3415 -0.0633  0.7637
19649SOL    HW270602   4.997   6.326   1.381  0.4786 -0.6363  0.1685
19650SOL     OW70603   8.524   1.024   0.174 -0.8411  0.2848  0.0215
19650SOL    HW170604   8.606   1.002   0.227 -0.5933  0.5226 -0.2637
19650SOL    HW270605   8.517   1.123   0.162  1.3019  0.0741 -3.8493
19651SOL     OW70606   9.782   2.694   5.499  0.2833 -0.4022 -0.0918
19651SOL    HW170607   9.794   2.716   5.596  0.0907  0.0245 -0.1659
19651SOL    HW270608   9.859   2.638   5.468  0.5359 -0.2270  0.2099
19652SOL     OW70609   5.767   9.591   6.791  0.1689 -0.3961 -0.3265
19652SOL    HW170610   5.801   9.530   6.863  3.0384  1.3966 -0.1065
19652SOL    HW270611   5.677   9.559   6.760 -0.1365 -2.4628  2.5064
19653SOL     OW70612   9.312   1.327   8.166  0.1347  0.0034 -0.3037
19653SOL    HW170613   9.276   1.385   8.238 -0.2266  1.7345 -1.8562
19653SOL    HW270614   9.275   1.234   8.176 -4.5482  1.6144 -1.6455
19654SOL     OW70615   1.808   3.252   7.665 -0.0482 -0.1922 -0.0075
19654SOL    HW170616   1.902   3.245   7.699 -0.1943  1.2915  0.7371
19654SOL    HW270617   1.806   3.305   7.580 -0.3988  1.2835  0.8975
19655SOL     OW70618   1.081   3.810   1.362  0.5533 -0.1894  0.0375
19655SOL    HW170619   1.048   3.888   1.415  1.8497  1.2718 -1.2412
19655SOL    HW270620   1.162   3.837   1.310  0.7552 -2.2723 -0.7771
19656SOL     OW70621   0.993   1.898   3.040  0.3491  0.3192 -0.4976
19656SOL    HW170622   0.951   1.966   2.979  1.5102  1.4357 -0.0700
19656SOL    HW270623   1.003   1.811   2.991  1.1344  1.1631 -1.8728
19657SOL     OW70624   8.726   5.508   0.636  0.8126 -0.0869  0.0159
19657SOL    HW170625   8.793   5.434   0.631  1.1027  0.0946  1.1185
19657SOL    HW270626   8.715   5.538   0.731 -0.0646  0.5905 -0.2822
19658SOL     OW70627   5.128   9.785   4.134  0.2482 -0.0396  0.0542
19658SOL    HW170628   5.093   9.816   4.046 -2.9981  0.7267  1.5251
19658SOL    HW270629   5.168   9.862   4.184  2.2273 -0.5030 -0.7636
19659SOL     OW70630   3.109   0.836   2.643  0.0121 -0.4107 -0.6231
19659SOL    HW170631   3.019   0.798   2.623 -0.6199 -1.0299  3.1215
19659SOL    HW270632   3.105   0.936   2.637 -1.3221 -0.3580  0.9070
19660SOL     OW70633   1.038   6.913   8.079 -0.2700  0.1114  0.3426
19660SOL    HW170634   1.035   6.815   8.099 -1.4917 -0.0235 -0.4492
19660SOL    HW270635   1.089   6.960   8.150  0.6013 -1.1460  0.5634
19661SOL     OW70636   9.532   0.159   0.916  0.4592  0.9217 -0.2372
19661SOL    HW170637   9.549   0.212   0.998 -0.2896  2.4878 -1.0655
19661SOL    HW270638   9.530   0.220   0.836  1.0521 -0.5431 -1.4022
19662SOL     OW70639   7.272   1.607   3.635  0.3251  0.5626 -0.0479
19662SOL    HW170640   7.269   1.516   3.676 -0.3675  0.7128  0.2581
19662SOL    HW270641   7.353   1.656   3.667 -1.0506  1.2814  2.4955
19663SOL     OW70642   8.379   5.672   1.707 -0.0096  0.0556  0.2429
19663SOL    HW170643   8.392   5.692   1.804  0.8358  1.4609 -0.1548
19663SOL    HW270644   8.430   5.589   1.682  1.8319  1.1157  0.4391
19664SOL     OW70645   8.525   6.778   0.425 -0.2085  0.1831 -0.4550
19664SOL    HW170646   8.557   6.691   0.388  0.4509  0.2023  0.0536
19664SOL    HW270647   8.426   6.774   0.438 -0.0970 -0.7232  0.1695
19665SOL     OW70648   8.971   4.463   6.089  0.1026  0.4802  0.1812
19665SOL    HW170649   9.028   4.385   6.117  1.1201  1.3772  0.6347
19665SOL    HW270650   9.021   4.548   6.103 -1.2169  1.2664  0.2067
19666SOL     OW70651   1.388   3.725   1.557  0.0483 -0.1285 -0.6029
19666SOL    HW170652   1.291   3.707   1.540 -0.3246  1.5053 -0.2726
19666SOL    HW270653   1.443   3.653   1.514 -1.3296 -1.5148 -0.1154
19667SOL     OW70654   4.731   9.827   0.310  0.3517 -0.1058 -0.0148
19667SOL    HW170655   4.662   9.768   0.352 -0.1452 -0.9393 -1.9860
19667SOL    HW270656   4.722   9.919   0.348 -1.3680 -0.3733  0.3045
19668SOL     OW70657   2.950   9.473   4.545 -0.3274  0.5602  0.0449
19668SOL    HW170658   3.043   9.493   4.575 -0.3888  2.1739 -0.8088
19668SOL    HW270659   2.927   9.530   4.466 -2.2030  0.4918  0.5225
19669SOL     OW70660   0.915   2.098   1.061  0.0223 -0.9217 -0.2769
19669SOL    HW170661   0.957   2.016   1.023  1.9450 -0.8508  1.5480
19669SOL    HW270662   0.937   2.104   1.159 -0.1856  1.7008 -0.3521
19670SOL     OW70663   9.331   0.060   5.558  0.1947  0.2835  0.4475
19670SOL    HW170664   9.266  -0.001   5.513  0.1271  0.3312  0.4798
19670SOL    HW270665   9.303   0.075   5.653 -0.6772  1.6551 -0.0217
19671SOL     OW70666   2.987   3.658   7.789 -0.0094 -0.0053  0.0911
19671SOL    HW170667   2.891   3.686   7.783 -0.8983 -2.9203 -0.3115
19671SOL    HW270668   3.023   3.642   7.697 -0.2067 -2.2290  0.3812
19672SOL     OW70669   6.160   9.708   2.429 -0.2962 -0.6178  0.2305
19672SOL    HW170670   6.079   9.653   2.406 -1.8130  1.5660  0.2378
19672SOL    HW270671   6.197   9.749   2.346 -0.0997 -0.3774  0.4383
19673SOL     OW70672   6.440   7.514   6.349 -0.0620  0.1168 -0.7634
19673SOL    HW170673   6.487   7.553   6.428 -0.8503  0.1981 -0.3275
19673SOL    HW270674   6.346   7.549   6.345 -0.3499 -0.6775 -1.1512
19674SOL     OW70675   3.526   1.403   3.723 -0.0629 -0.1273 -0.1221
19674SOL    HW170676   3.478   1.491   3.725 -1.1712 -0.7311  1.4468
19674SOL    HW270677   3.611   1.410   3.775  0.4461  0.3298 -1.0049
19675SOL     OW70678   1.507   6.263   2.814  0.3443 -0.0185 -0.2716
19675SOL    HW170679   1.469   6.182   2.860 -1.8712  0.4025 -1.2860
19675SOL    HW270680   1.537   6.329   2.882  1.4791 -1.3752  0.5677
19676SOL     OW70681   8.255   5.049   7.447  0.2167 -0.1189  0.2095
19676SOL    HW170682   8.318   4.976   7.474  2.4913  1.6623 -0.1937
19676SOL    HW270683   8.197   5.017   7.372  1.7223 -1.2639 -0.4814
19677SOL     OW70684   0.814   9.957   1.666 -0.8569  0.1958  0.4905
19677SOL    HW170685   0.889   9.899   1.633 -0.5387  0.9855 -0.2129
19677SOL    HW270686   0.852  10.030   1.722 -0.7919  2.1713 -2.0410
19678SOL     OW70687   4.315   6.932   0.595  0.9680 -0.4236  0.2000
19678SOL    HW170688   4.322   6.981   0.508  1.5566  1.3700  1.2141
19678SOL    HW270689   4.287   6.838   0.579 -0.9112  0.4305 -1.7775
19679SOL     OW70690   1.307   5.283   6.726  0.1515  0.3760 -0.2505
19679SOL    HW170691   1.266   5.373   6.713  0.6359  0.6231 -0.1110
19679SOL    HW270692   1.313   5.263   6.823 -2.0314 -0.7899 -0.3515
19680SOL     OW70693   1.540   5.394   6.596  0.2802 -0.3089 -0.3199
19680SOL    HW170694   1.512   5.340   6.675  2.3134  0.5748  1.0339
19680SOL    HW270695   1.640   5.390   6.586  0.0971  0.0234 -2.5215
19681SOL     OW70696   1.953   3.378   5.615 -0.3568  0.1547  0.3009
19681SOL    HW170697   1.882   3.309   5.604 -0.1206 -0.1574  0.7063
19681SOL    HW270698   2.039   3.334   5.640 -0.1403  0.5698  0.3017
19682SOL     OW70699   6.041   8.200   2.154  0.0570  0.3406  0.4127
19682SOL    HW170700   6.082   8.290   2.144  1.8176 -0.3278  1.5324
19682SOL    HW270701   5.948   8.209   2.190  1.2610  1.5496  3.2959
19683SOL     OW70702   9.978   9.736   3.200  0.5344  0.1842 -0.6426
19683SOL    HW170703   9.928   9.730   3.286 -0.0553  1.1821 -0.9044
19683SOL    HW270704   9.922   9.698   3.126  0.0435  1.5593 -0.9819
19684SOL     OW70705   6.559   4.281   0.185 -0.1230 -0.1911  0.0577
19684SOL    HW170706   6.556   4.345   0.262 -0.7996  0.4778 -0.5187
19684SOL    HW270707   6.471   4.234   0.177  0.1502 -0.7187  0.0602
19685SOL     OW70708   9.999   1.058   0.498 -0.1309  0.1815  0.4738
19685SOL    HW170709   9.957   1.083   0.586  0.1312  0.1090  0.6174
19685SOL    HW270710  10.087   1.104   0.489 -0.2825  0.4083  0.1271
19686SOL     OW70711   2.339   3.409   0.401  0.4712 -1.0015  0.1743
19686SOL    HW170712   2.315   3.322   0.444  1.3695 -0.8984  0.8811
19686SOL    HW270713   2.393   3.464   0.464  2.6015 -1.2183 -1.3924
19687SOL     OW70714   0.852   5.895   2.731 -0.0816  0.2944 -0.1380
19687SOL    HW170715   0.781   5.911   2.662 -0.8756  0.4444  0.7091
19687SOL    HW270716   0.923   5.965   2.722  0.5425 -0.5016 -1.7132
19688SOL     OW70717   2.958   0.677   0.685  0.1011  0.5487 -0.0055
19688SOL    HW170718   3.024   0.740   0.646  0.8760 -0.4831 -0.3874
19688SOL    HW270719   2.922   0.617   0.613  1.3052 -1.1548  0.7751
19689SOL     OW70720   8.927   4.325   5.224 -0.1580 -0.3297  0.0458
19689SOL    HW170721   8.832   4.353   5.225  0.1676  0.8671 -1.4686
19689SOL    HW270722   8.985   4.398   5.261  0.4086 -0.0274 -1.3844
19690SOL     OW70723   7.618   6.817   7.251 -0.4061  0.1545 -0.0179
19690SOL    HW170724   7.597   6.852   7.160  0.9985 -0.4920 -0.6059
19690SOL    HW270725   7.644   6.894   7.311  0.5955  0.3679 -0.7155
19691SOL     OW70726   2.935   6.807   3.242  0.1333  0.5020  0.0674
19691SOL    HW170727   2.861   6.828   3.178 -1.5751  0.4511  2.0174
19691SOL    HW270728   2.937   6.876   3.315  0.0577 -1.1877  1.6884
19692SOL     OW70729   8.392   2.853   7.833  0.5470  0.5357 -0.6158
19692SOL    HW170730   8.314   2.791   7.825 -0.1208  1.4920 -1.6818
19692SOL    HW270731   8.433   2.842   7.923  1.3266 -2.4584 -1.2867
19693SOL     OW70732   0.577   1.540   7.421 -0.3302  0.5417 -0.3795
19693SOL    HW170733   0.557   1.476   7.347 -1.2241  0.1048  0.2384
19693SOL    HW270734   0.587   1.490   7.507 -1.2267  1.2451  0.1402
19694SOL     OW70735   3.929   8.328   1.195  0.0939  0.2688  0.4444
19694SOL    HW170736   3.864   8.404   1.201  0.0611  0.1562  1.4992
19694SOL    HW270737   4.018   8.358   1.228  0.5436  0.3674 -0.8219
19695SOL     OW70738   2.039   7.415   7.787 -0.1153  0.1547 -0.3071
19695SOL    HW170739   2.007   7.461   7.870 -0.0626  0.3418 -0.3908
19695SOL    HW270740   1.999   7.323   7.782 -2.5903  1.2596 -1.6477
19696SOL     OW70741   7.240   2.934   0.574  0.0454 -0.1873 -0.0056
19696SOL    HW170742   7.207   2.908   0.483  1.3456 -1.1273 -0.2239
19696SOL    HW270743   7.162   2.956   0.632 -0.8153  0.1332 -1.2619
19697SOL     OW70744   8.491   6.613   4.063 -0.1848 -0.5330  0.5766
19697SOL    HW170745   8.408   6.558   4.077 -1.4434  1.0061 -0.6974
19697SOL    HW270746   8.520   6.651   4.151 -1.4292 -0.2599  0.8851
19698SOL     OW70747   0.824   1.506   3.096  0.2588 -0.6882 -0.1451
19698SOL    HW170748   0.735   1.503   3.141 -0.2342 -0.1881 -1.0805
19698SOL    HW270749   0.880   1.577   3.138 -1.0245  1.3459 -1.8090
19699SOL     OW70750   2.238   1.184   0.012 -0.3244 -0.0855  0.2335
19699SOL    HW170751   2.279   1.202  -0.077  1.5007 -1.6014  0.7466
19699SOL    HW270752   2.222   1.270   0.060  3.7782  0.4957  0.6847
19700SOL     OW70753   3.930   9.969   7.894 -0.6539 -0.3990 -0.2539
19700SOL    HW170754   3.917  10.016   7.981  1.3888 -0.3501  0.0460
19700SOL    HW270755   4.005  10.011   7.844 -1.8169 -0.4177 -2.0736
19701SOL     OW70756   0.525   6.662   2.580 -0.2150 -0.5929  0.1438
19701SOL    HW170757   0.601   6.612   2.540 -0.0852 -1.5109  1.5078
19701SOL    HW270758   0.514   6.636   2.676 -2.1139 -0.3323  0.0302
19702SOL     OW70759   2.604   8.408   3.653  0.1773 -0.4081 -0.0724
19702SOL    HW170760   2.601   8.489   3.711  0.4450  0.2612 -0.9856
19702SOL    HW270761   2.554   8.333   3.698 -1.3589  0.6945  0.1109
19703SOL     OW70762   9.962   0.982   5.943 -0.4625  0.0407 -0.2095
19703SOL    HW170763  10.059   0.997   5.962 -0.0924 -1.0103 -1.2035
19703SOL    HW270764   9.949   0.888   5.910 -1.9781 -0.2091  1.0465
19704SOL     OW70765   8.328   6.091   4.650  0.1715 -0.4566 -0.0176
19704SOL    HW170766   8.269   6.136   4.717 -1.3765 -0.8199 -1.0994
19704SOL    HW270767   8.365   6.007   4.688 -1.3344 -1.0665  0.1279
19705SOL     OW70768   4.941   2.094   5.037 -0.0528 -0.4696 -0.0075
19705SOL    HW170769   5.001   2.114   4.960  1.5115  1.8231  1.7421
19705SOL    HW270770   4.981   2.021   5.092  0.5586  0.2346  0.4942
19706SOL     OW70771   9.955   6.496   1.815  0.4653 -0.2543  0.7824
19706SOL    HW170772  10.044   6.527   1.781  0.2041  0.8005  1.0462
19706SOL    HW270773   9.903   6.574   1.849 -1.4936 -0.5187 -1.4498
19707SOL     OW70774   6.627   1.805   0.058  0.4766 -0.2493 -0.3004
19707SOL    HW170775   6.575   1.737   0.007  0.2909 -0.3636  0.0358
19707SOL    HW270776   6.678   1.863  -0.005 -1.0094  0.6373 -0.7147
19708SOL     OW70777   2.819   3.167   5.828 -0.4602  0.1025  0.4081
19708SOL    HW170778   2.786   3.199   5.739 -1.0971 -0.6893  0.3516
19708SOL    HW270779   2.915   3.192   5.839 -0.4884  0.5515 -0.3304
19709SOL     OW70780   9.677   9.102   4.716 -0.0109 -0.2289 -0.3327
19709SOL    HW170781   9.673   9.180   4.654 -1.3801  1.4528  1.7801
19709SOL    HW270782   9.709   9.021   4.666  0.7306  1.4855 -2.7383
19710SOL     OW70783   8.923   9.859   2.750 -0.4716  0.2445  0.1616
19710SOL    HW170784   8.970   9.894   2.831  0.1512  0.1446 -0.1580
19710SOL    HW270785   8.894   9.765   2.767 -2.5763  1.0388  1.2011
19711SOL     OW70786   2.946   0.939   7.801 -0.0846  0.0750 -0.7454
19711SOL    HW170787   2.915   0.845   7.819 -0.9032  0.1512 -1.7602
19711SOL    HW270788   3.028   0.957   7.856  0.4574 -1.4443 -1.0256
19712SOL     OW70789   9.863   0.393   1.668 -0.2365  0.3018  0.0908
19712SOL    HW170790   9.956   0.354   1.670  0.1496  1.1553 -0.7742
19712SOL    HW270791   9.805   0.336   1.611  0.3118  0.9325 -1.1190
19713SOL     OW70792   3.130   0.916   2.176 -0.3478  0.1196  0.2515
19713SOL    HW170793   3.129   1.005   2.131  1.0682  1.1059  2.0812
19713SOL    HW270794   3.191   0.919   2.255  1.6280 -3.1922 -1.0143
19714SOL     OW70795   7.996   6.372   3.838 -0.3588  0.2668 -0.7208
19714SOL    HW170796   8.043   6.306   3.780  0.0363  0.6920 -0.8868
19714SOL    HW270797   7.999   6.463   3.796 -2.7442  0.0068 -1.5389
19715SOL     OW70798   0.479   7.000   2.264 -0.5847  0.1506  0.2817
19715SOL    HW170799   0.470   6.902   2.281  0.6934 -0.0798 -0.2617
19715SOL    HW270800   0.506   7.015   2.169  0.3920  0.9491  0.6622
19716SOL     OW70801   8.915   6.964   7.377 -0.3055  0.6019  0.3039
19716SOL    HW170802   8.862   6.965   7.462  2.1228  1.0476  1.8648
19716SOL    HW270803   8.968   6.879   7.373 -0.8770  0.3076 -1.0830
19717SOL     OW70804   2.466   1.508   1.181 -0.3754 -0.4752 -0.0466
19717SOL    HW170805   2.536   1.482   1.248 -0.9723 -3.1102 -0.3867
19717SOL    HW270806   2.402   1.571   1.224  1.5832  1.1555  0.5879
19718SOL     OW70807   2.912   6.811   2.407 -0.1587 -0.5632 -0.0349
19718SOL    HW170808   2.855   6.763   2.341  1.6248 -0.4564 -1.6940
19718SOL    HW270809   2.993   6.757   2.427 -0.4796 -0.4068  1.7906
19719SOL     OW70810   0.586   0.580   0.793  0.1433  0.5551 -0.6727
19719SOL    HW170811   0.568   0.502   0.852 -0.1441 -0.8169 -2.5095
19719SOL    HW270812   0.517   0.650   0.808 -0.8646 -0.4528 -0.5023
19720SOL     OW70813   1.505   1.644   1.296  0.3950 -0.2652  0.8846
19720SOL    HW170814   1.471   1.614   1.385  0.2179  0.2285  0.9847
19720SOL    HW270815   1.567   1.575   1.259  1.1890 -0.0554  1.8142
19721SOL     OW70816   7.158   1.377   2.508  0.4339  1.4656  0.4025
19721SOL    HW170817   7.110   1.424   2.583  0.4220  3.0204 -0.5677
19721SOL    HW270818   7.142   1.426   2.423  1.6150  0.4895 -0.3854
19722SOL     OW70819   0.261   4.037   1.625  0.4566 -0.0301 -0.2315
19722SOL    HW170820   0.333   3.999   1.566  0.4532 -0.3943 -0.0055
19722SOL    HW270821   0.249   4.134   1.604  1.2037  0.1016 -0.0834
19723SOL     OW70822   3.789   1.996   2.407 -0.9048 -0.0048  0.3270
19723SOL    HW170823   3.857   1.972   2.337 -1.4231  1.9405 -0.8818
19723SOL    HW270824   3.837   2.019   2.492 -0.1648 -0.4661  0.0488
19724SOL     OW70825   1.524   1.475   2.117  0.0290  0.5343  0.2505
19724SOL    HW170826   1.505   1.564   2.159  0.1779 -0.8652  3.3609
19724SOL    HW270827   1.451   1.411   2.139 -0.0170 -0.1930 -1.8750
19725SOL     OW70828   1.480   1.032   2.758  0.1596  0.1323  0.2742
19725SOL    HW170829   1.539   0.995   2.830  0.5870 -2.1386 -1.2006
19725SOL    HW270830   1.535   1.074   2.686 -0.1002 -0.4371 -0.2635
19726SOL     OW70831   9.415   1.074   6.885 -0.1015  0.0305  0.1236
19726SOL    HW170832   9.451   1.141   6.820  1.5329 -0.4401  0.5354
19726SOL    HW270833   9.477   1.065   6.963 -0.4730 -1.7077  0.2422
19727SOL     OW70834   8.006   0.275   7.967  0.3289  0.0775  0.7563
19727SOL    HW170835   7.934   0.334   7.929 -0.0485 -0.8798 -0.0395
19727SOL    HW270836   8.082   0.270   7.903  0.3020 -0.4029  0.7616
19728SOL     OW70837   5.409   2.977   0.291  0.0781  0.1519  0.3851
19728SOL    HW170838   5.450   2.895   0.252 -1.2355 -0.4687  0.2722
19728SOL    HW270839   5.433   2.983   0.388  0.7195 -0.0151  0.2381
19729SOL     OW70840   3.570   1.054   6.545  0.0124  0.2317 -0.7129
19729SOL    HW170841   3.612   1.078   6.457  1.0830 -1.2864 -0.6181
19729SOL    HW270842   3.472   1.074   6.541 -0.0095 -0.1590 -2.3678
19730SOL     OW70843   7.330   3.712   1.024  0.4937 -0.2422 -0.1879
19730SOL    HW170844   7.410   3.672   1.069  1.0791 -0.2835 -1.2574
19730SOL    HW270845   7.250   3.655   1.043  0.6731 -0.0928  1.0476
19731SOL     OW70846   7.999   0.070   3.443 -0.4903  0.3698  0.4117
19731SOL    HW170847   7.996   0.022   3.356 -0.4982  0.1507  0.5326
19731SOL    HW270848   7.932   0.031   3.505  0.5000 -0.4254  1.0004
19732SOL     OW70849   6.054   1.125   4.107 -0.0551 -0.5358  0.0320
19732SOL    HW170850   6.092   1.176   4.184  0.0230  1.2660 -1.1808
19732SOL    HW270851   6.086   1.031   4.111  0.3031 -0.3640  1.9533
19733SOL     OW70852   0.388   6.899   1.336  1.2562 -0.3280 -0.0907
19733SOL    HW170853   0.403   6.896   1.237  1.6767 -2.1942  0.0169
19733SOL    HW270854   0.345   6.814   1.366 -0.5855  0.9820  1.0756
19734SOL     OW70855   3.950   1.038   1.251 -0.1097 -0.3200 -0.1121
19734SOL    HW170856   4.005   1.075   1.176 -0.3563  0.7803  0.2428
19734SOL    HW270857   4.009   0.983   1.311  0.8708  1.7222  0.8526
19735SOL     OW70858   4.043   9.492   4.663  0.1266 -0.6874  0.1355
19735SOL    HW170859   4.059   9.417   4.599  1.6013 -0.2484 -0.0371
19735SOL    HW270860   4.099   9.477   4.745  0.3535  0.1603  0.1427
19736SOL     OW70861   2.525   8.245   1.331  0.0128  0.5149  0.7741
19736SOL    HW170862   2.433   8.241   1.293  0.2613 -2.0354  0.4033
19736SOL    HW270863   2.589   8.276   1.261 -0.7112  3.7731  1.4309
19737SOL     OW70864   4.435   0.019   5.567  0.3769 -0.7814 -0.1638
19737SOL    HW170865   4.388   0.106   5.550  1.0278  0.0077  1.9419
19737SOL    HW270866   4.373  -0.056   5.544 -0.7302  0.2455 -0.6263
19738SOL     OW70867   9.704   7.393   2.335  0.6856 -0.1509  0.5219
19738SOL    HW170868   9.801   7.412   2.328  0.3458  1.2383 -0.7203
19738SOL    HW270869   9.679   7.322   2.269  0.8408 -0.4485  0.7836
19739SOL     OW70870   6.438   4.756   2.009  0.6427 -0.0425  0.6184
19739SOL    HW170871   6.441   4.819   2.087  2.9213 -0.3729  0.8402
19739SOL    HW270872   6.434   4.808   1.924 -0.1025  0.3547  0.8969
19740SOL     OW70873   1.105   6.175   3.134 -0.1345  0.5176  0.2298
19740SOL    HW170874   1.070   6.105   3.071 -2.4535  1.9200 -0.1176
19740SOL    HW270875   1.186   6.141   3.181 -0.0155 -1.6139 -1.4534
19741SOL     OW70876   1.556   5.946   0.254  0.5084  0.0285  0.0027
19741SOL    HW170877   1.563   6.001   0.171  0.0724  0.1290  0.0329
19741SOL    HW270878   1.647   5.936   0.294  0.4292  1.9701  0.7722
19742SOL     OW70879   8.019   3.253   3.501 -0.0233  0.2811  0.2605
19742SOL    HW170880   8.119   3.250   3.492 -0.0135  1.7285 -0.2591
19742SOL    HW270881   7.980   3.296   3.420 -1.1578 -1.1178  0.0464
19743SOL     OW70882   9.002   2.994   2.442 -0.0649 -0.2771  0.1448
19743SOL    HW170883   9.023   3.047   2.524 -1.2151  0.9290 -0.3301
19743SOL    HW270884   9.069   2.920   2.433  0.7827  0.2907  1.5169
19744SOL     OW70885   0.152   0.267   3.591 -0.0839  0.2005 -0.0235
19744SOL    HW170886   0.143   0.188   3.651  0.3472 -1.3152 -1.9059
19744SOL    HW270887   0.146   0.351   3.645 -0.4761 -1.1045  2.0096
19745SOL     OW70888   8.207   9.894   3.453  0.2219 -0.2860 -0.8061
19745SOL    HW170889   8.155   9.979   3.466 -0.6554 -1.0077  0.5118
19745SOL    HW270890   8.305   9.915   3.456  0.0188  0.5442  0.5487
19746SOL     OW70891   3.618   1.292   5.176  0.2896  0.7256  0.1007
19746SOL    HW170892   3.602   1.197   5.149 -0.3731  0.7730  0.3268
19746SOL    HW270893   3.582   1.353   5.106 -2.4084  0.8723  1.5579
19747SOL     OW70894   8.242   7.426   5.553 -0.2027 -0.3500 -0.4111
19747SOL    HW170895   8.304   7.502   5.569 -0.5839 -0.0984 -0.1222
19747SOL    HW270896   8.189   7.408   5.636 -0.9602 -0.1617 -0.8434
19748SOL     OW70897   7.638   2.877   4.320 -0.2368 -0.3079 -0.3782
19748SOL    HW170898   7.721   2.860   4.373 -0.1026 -0.8597 -0.7572
19748SOL    HW270899   7.558   2.872   4.380 -0.0183  0.0016 -0.0553
19749SOL     OW70900   4.034   5.843   2.763  0.0736 -0.1146 -0.3386
19749SOL    HW170901   4.121   5.795   2.756  0.8507  1.3409 -1.0843
19749SOL    HW270902   4.043   5.934   2.721 -1.6540  0.2555  0.0420
19750SOL     OW70903   2.642   7.013   1.043  0.2332 -0.7531 -0.6214
19750SOL    HW170904   2.619   6.933   0.987  1.9752 -1.8786  0.2322
19750SOL    HW270905   2.699   6.984   1.120 -1.3984  0.9009  1.2590
19751SOL     OW70906   8.556   1.574   3.663  0.1175 -0.1631  0.4292
19751SOL    HW170907   8.596   1.553   3.752  1.1793 -0.3404 -0.0825
19751SOL    HW270908   8.545   1.673   3.655  0.0266 -0.1445  0.7456
19752SOL     OW70909   9.977   5.140   7.057  0.3317 -0.6537 -0.1711
19752SOL    HW170910  10.030   5.109   6.978 -1.7124 -1.1560 -1.3847
19752SOL    HW270911   9.933   5.062   7.100 -0.0090 -0.1605  0.3879
19753SOL     OW70912   9.335   5.236   2.460  0.6455 -0.1863 -0.4605
19753SOL    HW170913   9.317   5.139   2.441  2.2833 -0.8643  1.3835
19753SOL    HW270914   9.365   5.247   2.554  1.2944  2.0381 -0.8983
19754SOL     OW70915   0.799   6.408   7.598  0.0111  0.0170 -0.0827
19754SOL    HW170916   0.761   6.326   7.557  2.6404 -1.5212  0.4733
19754SOL    HW270917   0.836   6.467   7.527  0.2523 -0.3944 -0.3004
19755SOL     OW70918   7.411   2.994   0.218 -0.1230  0.1825 -0.2360
19755SOL    HW170919   7.408   2.963   0.123 -0.5647 -2.0739  0.4692
19755SOL    HW270920   7.350   2.937   0.273  2.9049 -0.9871  2.0703
19756SOL     OW70921   8.134   7.794   1.539 -0.2303 -0.2098 -0.0487
19756SOL    HW170922   8.081   7.871   1.573  0.9143  1.2679 -1.5009
19756SOL    HW270923   8.159   7.811   1.443  2.8037 -0.8486  0.5664
19757SOL     OW70924   1.271   8.489   5.078 -0.0820 -0.0639  0.3359
19757SOL    HW170925   1.210   8.484   5.158 -0.0584 -0.1693  0.3478
19757SOL    HW270926   1.243   8.565   5.019 -0.9882 -0.8704 -0.2889
19758SOL     OW70927   3.875   9.817   2.857  0.0402  0.5379 -0.0768
19758SOL    HW170928   3.902   9.869   2.938  1.4271 -0.0242 -0.1703
19758SOL    HW270929   3.955   9.770   2.819 -0.7950  0.0023 -1.1953
19759SOL     OW70930   3.342   4.926   5.340  1.2978  0.1474 -0.3138
19759SOL    HW170931   3.429   4.937   5.291  1.2712  0.5114 -0.2802
19759SOL    HW270932   3.295   4.844   5.306  1.0366  0.6775 -1.2704
19760SOL     OW70933   1.830   3.694   2.897 -0.3588  0.6766  0.6336
19760SOL    HW170934   1.831   3.605   2.850 -0.1611  0.6736  0.6417
19760SOL    HW270935   1.924   3.729   2.903 -0.4308  0.8600  0.6801
19761SOL     OW70936   3.000   5.216   3.591  0.2047  0.3671  0.1620
19761SOL    HW170937   2.991   5.117   3.584 -2.9195  0.5213  1.2090
19761SOL    HW270938   2.951   5.260   3.515 -0.0853  1.1575  0.7962
19762SOL     OW70939   3.652   1.640   0.943 -0.0955  0.1345  0.0105
19762SOL    HW170940   3.633   1.565   1.006 -1.1082 -0.0813 -0.5482
19762SOL    HW270941   3.731   1.616   0.886 -0.5915 -0.6373 -0.3673
19763SOL     OW70942   9.513   9.284   3.817 -0.4612  0.7317  0.1061
19763SOL    HW170943   9.437   9.309   3.758  1.5234  0.2718 -2.7413
19763SOL    HW270944   9.599   9.295   3.767  1.0573 -3.0483  1.7077
19764SOL     OW70945   0.090   8.764   0.246  0.1911 -1.1579 -0.8447
19764SOL    HW170946   0.053   8.854   0.269  0.3651 -1.2042 -0.3757
19764SOL    HW270947   0.019   8.695   0.260  0.3700 -1.2136 -0.2277
19765SOL     OW70948   3.564   7.415   0.759  0.2813  0.1005  0.1589
19765SOL    HW170949   3.602   7.325   0.782 -2.3850 -0.8916  0.9799
19765SOL    HW270950   3.591   7.482   0.828 -0.3162 -0.8182  1.2987
19766SOL     OW70951   8.328   6.744   4.839 -0.0785 -0.3927  0.1855
19766SOL    HW170952   8.423   6.747   4.807 -0.5519  1.1792 -1.0935
19766SOL    HW270953   8.288   6.655   4.814  0.3105 -0.1255 -1.4446
19767SOL     OW70954   2.678   6.412   3.363 -0.0923  0.0850 -0.3653
19767SOL    HW170955   2.761   6.408   3.418 -0.0226  0.2741 -0.4573
19767SOL    HW270956   2.628   6.496   3.384 -0.3953 -0.1586 -0.1146
19768SOL     OW70957   2.465   1.668   4.613  0.6345  0.5344  0.2335
19768SOL    HW170958   2.517   1.609   4.552  0.4342 -0.2754  0.8340
19768SOL    HW270959   2.419   1.612   4.682  0.9973  1.4340  1.2333
19769SOL     OW70960   9.873   4.293   3.332  0.0880 -1.0376  0.0722
19769SOL    HW170961   9.916   4.376   3.296 -5.1442  0.8951 -2.1954
19769SOL    HW270962   9.872   4.297   3.432 -0.2148  1.7276 -0.0076
19770SOL     OW70963   5.965   2.283   4.851  0.7183 -0.1254 -0.6384
19770SOL    HW170964   5.985   2.324   4.762 -1.2188  0.7370 -0.6996
19770SOL    HW270965   5.912   2.199   4.838  0.0504  0.2385 -0.2866
19771SOL     OW70966   0.973   7.629   1.593 -0.1977 -0.3044  0.1392
19771SOL    HW170967   0.981   7.540   1.548  0.9570 -0.1431  0.0030
19771SOL    HW270968   1.036   7.632   1.671 -1.4128 -0.1957  1.1279
19772SOL     OW70969   4.014   6.410   1.410  0.0796 -0.2836 -0.2301
19772SOL    HW170970   4.034   6.508   1.401  1.0699 -0.3660  0.8552
19772SOL    HW270971   4.066   6.359   1.341  0.1816 -0.1027 -0.2874
19773SOL     OW70972   8.238   6.484   2.857  0.4457  0.0598 -0.5425
19773SOL    HW170973   8.322   6.519   2.900 -1.1833  1.5634  1.5002
19773SOL    HW270974   8.197   6.556   2.801 -0.9857  0.2368  0.7291
19774SOL     OW70975   6.312   8.249   3.057  0.3518 -0.5911 -0.4312
19774SOL    HW170976   6.372   8.236   2.979  0.9131  1.6083 -0.4165
19774SOL    HW270977   6.365   8.285   3.134 -0.8274  0.5962 -0.1558
19775SOL     OW70978   1.645   3.092   2.526  0.2756  0.1067  1.0831
19775SOL    HW170979   1.679   3.013   2.474  0.1660  0.6233  0.2044
19775SOL    HW270980   1.693   3.175   2.496 -1.7206  0.8517 -0.2084
19776SOL     OW70981   8.978   5.905   6.320 -0.1168 -0.2289 -0.1111
19776SOL    HW170982   9.015   5.995   6.297 -0.7059 -0.6304 -2.8276
19776SOL    HW270983   9.053   5.840   6.335  0.3059  0.6740  1.7962
19777SOL     OW70984   3.475   1.803   1.161  0.2151 -0.1065 -0.0344
19777SOL    HW170985   3.538   1.762   1.227 -0.0554  0.5107  0.6208
19777SOL    HW270986   3.517   1.885   1.121  0.0060  0.0637  0.0895
19778SOL     OW70987   1.240   6.423   3.125 -0.1563  0.1348  0.1522
19778SOL    HW170988   1.182   6.348   3.157  1.5020 -1.6862 -1.0413
19778SOL    HW270989   1.193   6.472   3.051 -0.7226 -0.4892  0.1019
19779SOL     OW70990   9.797   5.330   4.604 -0.6061  0.1367  0.0264
19779SOL    HW170991   9.807   5.334   4.505  0.0210  2.1030  0.1374
19779SOL    HW270992   9.733   5.257   4.629 -1.6001  0.3310 -1.8877
19780SOL     OW70993   0.904   1.627   5.145 -0.3037  0.4372  0.1191
19780SOL    HW170994   0.941   1.710   5.104 -1.0597  1.1819  0.9383
19780SOL    HW270995   0.941   1.547   5.096 -0.2605  1.2652 -1.2300
19781SOL     OW70996   4.301   0.369   6.678 -0.1368 -0.2465  0.4844
19781SOL    HW170997   4.203   0.392   6.672 -0.0751  0.2262  1.2935
19781SOL    HW270998   4.311   0.273   6.705 -0.3751 -0.3306  0.2829
19782SOL     OW70999   4.137   3.197   1.080  0.0294 -0.3772 -0.0025
19782SOL    HW171000   4.232   3.165   1.080 -0.5510 -2.2136 -0.7303
19782SOL    HW271001   4.093   3.168   0.995 -0.9426  1.2357 -0.0694
19783SOL     OW71002   8.993   4.010   1.528 -0.5365  0.5672  0.0755
19783SOL    HW171003   9.076   4.026   1.473 -0.7801  2.2026  0.1523
19783SOL    HW271004   8.941   3.934   1.489  1.3269 -0.9120  0.4084
19784SOL     OW71005   4.452   4.061   6.332 -0.0841 -0.2183 -0.1218
19784SOL    HW171006   4.521   4.104   6.274 -0.3969  0.6590  0.1568
19784SOL    HW271007   4.363   4.065   6.287 -0.0086 -1.1207 -0.3649
19785SOL     OW71008   7.498   2.557   8.048  0.7268 -0.2804 -0.4980
19785SOL    HW171009   7.501   2.475   7.991  0.4541 -1.4036  1.0689
19785SOL    HW271010   7.591   2.586   8.068  0.8389  0.9242 -2.6096
19786SOL     OW71011   4.515   1.145   3.997  0.0788  0.0779  0.2360
19786SOL    HW171012   4.595   1.160   3.939  0.2634 -0.6978  0.2861
19786SOL    HW271013   4.450   1.085   3.951 -1.1867  1.9315 -0.4408
19787SOL     OW71014   7.400   3.142   1.215 -0.0890  0.1332  0.4825
19787SOL    HW171015   7.361   3.057   1.179 -0.4831  0.8369 -0.7991
19787SOL    HW271016   7.328   3.196   1.258 -0.7211  1.6751 -2.3503
19788SOL     OW71017   8.302   1.845   0.449 -0.2668 -0.5608 -0.1424
19788SOL    HW171018   8.325   1.937   0.416  1.0316 -0.3727  1.2294
19788SOL    HW271019   8.238   1.853   0.526 -0.0220 -0.7943  0.0850
19789SOL     OW71020   6.871   1.932   4.365  0.0027  0.0491 -0.4433
19789SOL    HW171021   6.922   1.915   4.281  2.1738  1.6642  0.5111
19789SOL    HW271022   6.781   1.969   4.342  0.8802  1.2415 -2.0420
19790SOL     OW71023   6.823   0.404   0.651  0.5229  0.5062 -0.0900
19790SOL    HW171024   6.736   0.392   0.603  0.6435  0.3914 -0.2803
19790SOL    HW271025   6.894   0.349   0.607  0.8079  0.9916 -0.2487
19791SOL     OW71026   3.078   5.647   7.031  1.0066 -0.3404  0.2584
19791SOL    HW171027   3.129   5.589   7.094  1.6970  0.1404  0.1500
19791SOL    HW271028   3.038   5.592   6.958  2.5397 -0.5485 -0.4368
19792SOL     OW71029   4.147   7.618   5.834  0.1752 -0.0699 -0.0867
19792SOL    HW171030   4.064   7.652   5.877 -0.1437  0.0389 -0.7868
19792SOL    HW271031   4.226   7.670   5.869  0.1165 -1.0574  1.5605
19793SOL     OW71032   7.091   2.736   3.011 -0.0220 -0.4876  0.0040
19793SOL    HW171033   6.999   2.698   3.024  0.4083 -0.7746  2.4795
19793SOL    HW271034   7.158   2.678   3.058  1.2324  0.6750 -0.3022
19794SOL     OW71035   8.638   4.866   7.118  0.1233  0.1811 -0.0932
19794SOL    HW171036   8.707   4.928   7.156 -0.4309  1.6911 -1.4744
19794SOL    HW271037   8.579   4.832   7.191  1.9509 -0.6564  1.0199
19795SOL     OW71038   2.674   0.226   0.907  0.4681 -0.0388 -0.1667
19795SOL    HW171039   2.768   0.192   0.920  0.2763 -1.3528 -2.1527
19795SOL    HW271040   2.677   0.322   0.878  1.1319  0.3504  1.1248
19796SOL     OW71041   8.257   6.522   5.194  0.3425 -0.1294  0.4261
19796SOL    HW171042   8.232   6.618   5.184  1.4508  0.2437  1.0486
19796SOL    HW271043   8.353   6.516   5.224  0.5503 -1.4434 -0.4518
19797SOL     OW71044   4.361   2.832   5.758 -0.1928  0.2286 -0.3929
19797SOL    HW171045   4.332   2.777   5.680 -0.7553 -0.4103  0.2482
19797SOL    HW271046   4.282   2.877   5.798  0.2031  1.1497 -0.6370
19798SOL     OW71047   1.489   6.770   7.555  0.3286  0.1896  0.3530
19798SOL    HW171048   1.407   6.817   7.522  0.9032  0.2112 -1.0683
19798SOL    HW271049   1.543   6.832   7.611 -0.2443  0.4017  0.6755
19799SOL     OW71050   6.694   5.784   0.560  0.6431  0.4819 -0.8391
19799SOL    HW171051   6.749   5.709   0.596 -2.3181 -1.5154 -0.3456
19799SOL    HW271052   6.680   5.852   0.633  0.7356 -0.0105 -0.3572
19800SOL     OW71053   5.481   1.251   3.453 -0.1736  0.1576 -0.0956
19800SOL    HW171054   5.530   1.174   3.412  1.3203  0.1689  1.6016
19800SOL    HW271055   5.479   1.327   3.388  1.2783 -0.1657 -0.5469
19801SOL     OW71056   6.512   9.385   6.608  0.4545 -0.3574  0.8808
19801SOL    HW171057   6.585   9.447   6.635  0.9318 -0.4212 -0.2386
19801SOL    HW271058   6.427   9.436   6.595  0.7770  0.0126  0.2467
19802SOL     OW71059   1.031   8.919   3.942 -0.2626  0.0319  0.0728
19802SOL    HW171060   1.107   8.872   3.987 -1.0101  0.0976  1.4046
19802SOL    HW271061   1.056   9.015   3.925 -0.3112  0.2307  1.1309
19803SOL     OW71062   4.086   1.136   7.626  0.4035 -0.1852  0.0822
19803SOL    HW171063   4.003   1.183   7.596  1.2663 -0.2246 -2.4377
19803SOL    HW271064   4.060   1.056   7.682 -1.1785  0.7119  0.6856
19804SOL     OW71065   6.394   2.181   5.751 -0.0595 -0.5116  0.8975
19804SOL    HW171066   6.474   2.217   5.799  0.8178  0.7107 -1.3589
19804SOL    HW271067   6.419   2.095   5.705  0.2825  0.3469 -0.5786
19805SOL     OW71068   8.009   1.374   0.902  0.0266  0.4381  0.5030
19805SOL    HW171069   7.921   1.371   0.949  0.7757 -1.8050  1.8655
19805SOL    HW271070   8.083   1.369   0.970  1.1657 -0.1617 -0.7627
19806SOL     OW71071   0.385   9.513   5.648 -0.2500  0.2908  0.2381
19806SOL    HW171072   0.359   9.603   5.683  2.5062  1.8440 -1.4917
19806SOL    HW271073   0.412   9.454   5.724 -1.4977  1.1179  1.3479
19807SOL     OW71074   4.292   4.834   1.476 -0.1420 -0.1806  0.4797
19807SOL    HW171075   4.342   4.753   1.444  1.3251 -0.1348  2.6011
19807SOL    HW271076   4.220   4.805   1.539 -0.2996  0.0911  0.4256
19808SOL     OW71077   2.352   5.456   5.390  0.4298 -0.2695  0.2019
19808SOL    HW171078   2.259   5.483   5.367  0.2341 -0.9466  0.1772
19808SOL    HW271079   2.412   5.474   5.312  0.2263 -0.2804  0.0433
19809SOL     OW71080   7.988   9.210   1.787 -0.2944 -0.1001  0.0730
19809SOL    HW171081   8.067   9.245   1.838 -0.5152  0.2043  0.2107
19809SOL    HW271082   7.982   9.111   1.798  0.2623 -0.1672 -0.2135
19810SOL     OW71083   9.019   8.351   6.549 -0.3486  0.1443  0.0782
19810SOL    HW171084   9.105   8.393   6.522 -1.3866  1.7781 -0.7862
19810SOL    HW271085   9.005   8.267   6.496 -0.7725  1.5515 -2.1023
19811SOL     OW71086   8.981   3.150   2.669 -0.2610  0.2231  0.3911
19811SOL    HW171087   8.972   3.250   2.673 -0.8662  0.1895 -0.1319
19811SOL    HW271088   9.041   3.119   2.742  2.8230  1.3387 -1.5530
19812SOL     OW71089   4.432   0.099   0.273 -0.1901  0.0167 -0.0633
19812SOL    HW171090   4.366   0.030   0.301  0.8779 -1.1729 -0.4675
19812SOL    HW271091   4.522   0.078   0.311  0.0120  1.5275  0.3298
19813SOL     OW71092   9.617   8.510   4.294 -0.2015  0.1026 -0.0207
19813SOL    HW171093   9.684   8.580   4.317 -0.6868  0.5410  0.0798
19813SOL    HW271094   9.656   8.445   4.228  0.2698  0.4334 -0.0647
19814SOL     OW71095   9.264   7.895   2.905 -0.3119  0.2880  0.8861
19814SOL    HW171096   9.222   7.807   2.883 -1.1385  1.0316 -0.5959
19814SOL    HW271097   9.243   7.961   2.832  1.2995  1.3788  1.3887
19815SOL     OW71098   2.231   3.163   1.906 -0.2298  0.4688  0.5674
19815SOL    HW171099   2.132   3.168   1.894 -0.3696 -0.9525  1.0808
19815SOL    HW271100   2.276   3.167   1.817 -0.7940  0.3419  0.2778
19816SOL     OW71101   3.351   0.221   5.011 -0.0373  0.0055  0.2116
19816SOL    HW171102   3.263   0.248   4.972  0.0009 -0.7101 -0.3876
19816SOL    HW271103   3.409   0.185   4.938  0.3001 -0.6815  0.8219
19817SOL     OW71104   3.713   7.909   0.241  0.1030 -0.6499  0.1598
19817SOL    HW171105   3.676   7.849   0.170  0.3187  0.3528 -0.8033
19817SOL    HW271106   3.768   7.981   0.199 -0.0987  0.1906  1.3189
19818SOL     OW71107   5.629   5.487   0.624 -0.4968 -0.0704  0.4233
19818SOL    HW171108   5.657   5.580   0.600  1.0331 -0.3482  1.0419
19818SOL    HW271109   5.615   5.434   0.540 -0.2917  0.4167  0.0765
19819SOL     OW71110   8.817   5.865   2.411  0.1063  0.1417  0.7736
19819SOL    HW171111   8.823   5.943   2.349  2.5607 -1.6162 -1.2722
19819SOL    HW271112   8.820   5.898   2.506  1.7126  2.4955 -0.0481
19820SOL     OW71113   7.964   5.575   1.284  0.3379 -0.0423 -0.0744
19820SOL    HW171114   7.978   5.563   1.382 -0.3816 -2.8994 -0.2582
19820SOL    HW271115   8.049   5.555   1.235  0.0810 -0.9657 -0.1583
19821SOL     OW71116   2.249   8.978   2.350 -0.3257  0.2123 -0.2879
19821SOL    HW171117   2.339   9.017   2.372  0.5556 -1.3238 -1.0565
19821SOL    HW271118   2.216   9.017   2.265 -0.1785  0.4652 -0.2297
19822SOL     OW71119   6.849   7.466   5.082 -0.1956 -0.1658  0.0201
19822SOL    HW171120   6.820   7.561   5.093  1.3003  0.7148 -3.0282
19822SOL    HW271121   6.918   7.443   5.150 -2.2210  0.1834  2.2343
19823SOL     OW71122   7.149   9.295   1.593 -0.3343  0.0748  0.0059
19823SOL    HW171123   7.124   9.367   1.658 -0.3566  0.1657 -0.1037
19823SOL    HW271124   7.122   9.206   1.630 -1.7243  0.2581 -0.5614
19824SOL     OW71125   1.741   2.970   6.226  0.1917  0.3016 -0.0597
19824SOL    HW171126   1.760   3.061   6.263 -0.8095  0.2237  0.6614
19824SOL    HW271127   1.645   2.965   6.196  0.7299  0.0691 -1.8200
19825SOL     OW71128   0.098   2.157   5.687 -0.0547  0.1834  0.3599
19825SOL    HW171129   0.038   2.235   5.707 -0.9567 -0.7003  1.1101
19825SOL    HW271130   0.130   2.118   5.773  3.1802  1.8427 -0.0182
19826SOL     OW71131   0.971   3.954   3.459  0.0456  0.1246 -0.7435
19826SOL    HW171132   0.956   3.864   3.416 -1.3198 -0.2955  0.5483
19826SOL    HW271133   1.004   4.018   3.390  0.6302 -1.2561 -1.7917
19827SOL     OW71134   0.729   7.986   1.449 -0.3846  0.2970 -0.5072
19827SOL    HW171135   0.661   7.912   1.446  0.7304 -0.8241  0.7701
19827SOL    HW271136   0.813   7.952   1.492  0.7930  1.8198 -1.5425
19828SOL     OW71137   4.672   0.951   3.140 -0.2904  0.3903 -0.0652
19828SOL    HW171138   4.679   0.934   3.238 -1.7958 -1.0400 -0.1900
19828SOL    HW271139   4.696   1.047   3.121 -2.0043  1.2601  1.9572
19829SOL     OW71140   1.531   8.215   2.019  0.5100 -0.7016  0.0174
19829SOL    HW171141   1.609   8.274   2.002 -0.0776  0.0117 -0.2157
19829SOL    HW271142   1.446   8.266   2.005  0.0001 -1.5782 -0.1383
19830SOL     OW71143   1.279   9.763   5.384  0.2298  0.3442  0.3381
19830SOL    HW171144   1.371   9.745   5.421  0.2531  0.2693  0.2450
19830SOL    HW271145   1.283   9.841   5.321  0.0659  0.8956  1.0032
19831SOL     OW71146   5.033   6.946   2.419 -0.7166  0.1203  0.0476
19831SOL    HW171147   5.087   6.984   2.344 -0.8577 -1.4086 -0.8444
19831SOL    HW271148   4.969   7.016   2.453  1.4467  1.8008  0.7969
19832SOL     OW71149   8.593   0.381   5.546  0.0154  0.2093  0.4185
19832SOL    HW171150   8.588   0.457   5.481 -1.1433 -0.3088 -0.1191
19832SOL    HW271151   8.648   0.307   5.507 -2.4079 -0.9530 -0.8948
19833SOL     OW71152   6.353   7.254   5.077 -0.1766  0.0858 -0.2717
19833SOL    HW171153   6.293   7.218   5.149 -1.6260  1.2575 -0.8607
19833SOL    HW271154   6.407   7.330   5.114  0.7095 -0.7592  0.1739
19834SOL     OW71155   0.027   0.196   5.086  0.2295 -0.1737  0.3893
19834SOL    HW171156   0.052   0.293   5.086  1.5389 -0.5032  0.8355
19834SOL    HW271157   0.069   0.150   5.008 -0.3690 -0.3883  0.1912
19835SOL     OW71158   0.121   9.584   3.375 -0.0411  0.2633 -0.0160
19835SOL    HW171159   0.101   9.552   3.283  0.4747  1.5580 -0.5911
19835SOL    HW271160   0.049   9.647   3.405 -0.8816 -1.1379  0.9773
19836SOL     OW71161   8.706   2.301   7.675 -0.7033  0.2655 -0.3186
19836SOL    HW171162   8.624   2.267   7.630  0.5146 -2.8095 -0.2788
19836SOL    HW271163   8.758   2.225   7.713  1.7692  2.2245  0.3741
19837SOL     OW71164   0.122   6.317   7.273  0.5311 -0.4489  0.1601
19837SOL    HW171165   0.029   6.337   7.302  0.4808  0.0556 -0.3436
19837SOL    HW271166   0.161   6.245   7.332 -0.0303 -0.3781  0.6183
19838SOL     OW71167   8.517   0.783   1.036 -0.0362 -0.1334 -0.6705
19838SOL    HW171168   8.522   0.736   0.948  2.5550 -1.8680  0.3207
19838SOL    HW271169   8.446   0.741   1.093 -2.4822  1.7073 -2.2722
19839SOL     OW71170   0.682   2.574   1.448 -0.4061 -0.5509  0.1050
19839SOL    HW171171   0.601   2.631   1.460 -0.1817  0.0843 -1.2959
19839SOL    HW271172   0.673   2.520   1.364  0.9870  0.1747 -0.5287
19840SOL     OW71173   9.121   1.680   5.921  0.2259  0.5541 -0.7535
19840SOL    HW171174   9.100   1.736   6.000  1.8952  2.1157 -1.3954
19840SOL    HW271175   9.160   1.593   5.951  1.7259  1.5186  0.1040
19841SOL     OW71176   3.554   0.733   8.143  0.4531 -0.0235  0.1739
19841SOL    HW171177   3.621   0.786   8.195 -0.5143 -0.1072  1.5465
19841SOL    HW271178   3.466   0.735   8.191 -0.4680 -0.1128 -1.4762
19842SOL     OW71179   7.446   8.691   4.211 -0.2834 -0.0609  0.4337
19842SOL    HW171180   7.359   8.734   4.187 -0.2042  0.8588  1.7082
19842SOL    HW271181   7.433   8.593   4.226 -0.4167 -0.5967 -2.8275
19843SOL     OW71182   0.260   6.601   7.474  0.2742 -0.0928  0.2077
19843SOL    HW171183   0.193   6.664   7.513 -0.0453 -0.1736 -0.2007
19843SOL    HW271184   0.251   6.511   7.517  0.4012  0.0082  0.4451
19844SOL     OW71185   6.440   4.632   7.258  0.0627  0.2937 -0.2092
19844SOL    HW171186   6.515   4.594   7.312  0.2723  1.6114  0.4557
19844SOL    HW271187   6.355   4.587   7.283  0.1362  0.9794  1.3288
19845SOL     OW71188   1.798   1.573   6.045 -0.1680  0.2980  0.4937
19845SOL    HW171189   1.772   1.667   6.021  0.5584  0.4838  0.4242
19845SOL    HW271190   1.855   1.534   5.973 -1.0515 -0.4498  0.1930
19846SOL     OW71191   5.702   5.709   1.733 -0.0065  0.2871  0.6442
19846SOL    HW171192   5.641   5.728   1.656 -1.3412  0.0583  1.6176
19846SOL    HW271193   5.777   5.775   1.733  0.5946 -0.3407 -1.4349
19847SOL     OW71194   1.617   2.245   1.317  0.3657 -0.3744  0.0652
19847SOL    HW171195   1.662   2.334   1.325 -2.2314  0.9840  0.0458
19847SOL    HW271196   1.577   2.219   1.405  1.6348 -1.8296  0.2271
19848SOL     OW71197   0.321   6.160   2.341  0.7418 -0.3919  0.0634
19848SOL    HW171198   0.288   6.253   2.349 -0.1072 -0.7426  0.7888
19848SOL    HW271199   0.408   6.151   2.390  0.5118 -0.1279  0.5204
19849SOL     OW71200   2.881   8.463   6.332 -0.0138  0.2324  0.2268
19849SOL    HW171201   2.816   8.537   6.313 -0.9312 -0.6949 -0.3200
19849SOL    HW271202   2.885   8.448   6.431 -0.1266  0.7399  0.3115
19850SOL     OW71203   2.033   5.261   0.373 -0.1168 -0.6224 -0.4401
19850SOL    HW171204   1.977   5.291   0.450 -0.8173 -0.3840 -1.0390
19850SOL    HW271205   1.985   5.189   0.323 -0.8274  1.0327 -2.1852
19851SOL     OW71206   4.206   1.511   6.576 -0.2945  0.0122 -0.5007
19851SOL    HW171207   4.198   1.438   6.644 -2.7441  1.4500  0.8424
19851SOL    HW271208   4.160   1.483   6.492 -0.8478 -0.1814 -0.1401
19852SOL     OW71209   4.456   9.708   6.896 -0.7613 -0.5525 -0.3074
19852SOL    HW171210   4.507   9.637   6.849 -2.1980 -0.6204 -1.8134
19852SOL    HW271211   4.515   9.752   6.964  1.2343 -0.7348 -1.8646
19853SOL     OW71212   2.657   8.566   0.532  0.0966  0.3111  0.8049
19853SOL    HW171213   2.711   8.632   0.584 -0.0592  0.3819  0.8754
19853SOL    HW271214   2.718   8.514   0.472  0.6797 -1.7132  3.0895
19854SOL     OW71215   3.600   9.105   5.780 -0.2108 -0.8482  0.9232
19854SOL    HW171216   3.585   9.101   5.879  0.8218 -0.7404  1.0854
19854SOL    HW271217   3.644   9.192   5.757 -1.7070 -0.2598  0.1939
19855SOL     OW71218   7.627   4.372   0.266 -0.2013  0.1057 -0.0483
19855SOL    HW171219   7.703   4.384   0.330  1.6164 -0.9948 -1.9501
19855SOL    HW271220   7.584   4.461   0.250  0.4613  0.6925  1.3299
19856SOL     OW71221   2.033   5.684   6.206 -0.0513 -0.1042  0.5931
19856SOL    HW171222   1.966   5.621   6.167  0.8372 -0.6448 -0.0918
19856SOL    HW271223   1.990   5.772   6.225 -0.4559  0.2836 -1.9259
19857SOL     OW71224   2.968   4.940   1.207  0.0187  0.2783  0.1795
19857SOL    HW171225   2.903   4.931   1.283  0.9485 -0.3165  0.9092
19857SOL    HW271226   3.056   4.903   1.234  0.4151  0.2397 -1.1367
19858SOL     OW71227   2.721   7.935   0.146  0.6092  0.0188  0.2492
19858SOL    HW171228   2.807   7.914   0.192  0.7917 -0.7015 -0.4100
19858SOL    HW271229   2.733   7.925   0.047 -0.2668 -0.2143  0.1634
19859SOL     OW71230   9.247   5.712   1.259  0.3227 -0.0359 -0.1308
19859SOL    HW171231   9.149   5.697   1.247  0.2745  0.1638  0.0069
19859SOL    HW271232   9.268   5.716   1.357  0.3128  0.9363 -0.1582
19860SOL     OW71233   0.011   5.133   6.186  0.3989 -0.2274  0.6682
19860SOL    HW171234   0.098   5.165   6.147  0.6522  0.5720  1.8604
19860SOL    HW271235   0.025   5.045   6.230  0.5689 -0.1792  0.7112
19861SOL     OW71236   0.645   2.466   5.018  0.2753  0.6261  0.0882
19861SOL    HW171237   0.714   2.505   5.078 -0.1698  1.8653 -0.1834
19861SOL    HW271238   0.623   2.531   4.945 -1.0666  0.2015  0.0878
19862SOL     OW71239   4.520   2.716   8.144 -0.1060 -0.5528  0.3311
19862SOL    HW171240   4.473   2.733   8.058  0.1626  0.2549  0.3422
19862SOL    HW271241   4.529   2.617   8.159 -0.0601 -0.6897 -0.6124
19863SOL     OW71242   2.867   2.846   6.857 -0.4754  0.4606 -0.3714
19863SOL    HW171243   2.775   2.820   6.824 -1.4573  2.1283  0.9937
19863SOL    HW271244   2.910   2.907   6.790 -0.2291 -0.5592 -1.1555
19864SOL     OW71245   9.702   3.892   6.050 -0.6264 -0.0077  0.3139
19864SOL    HW171246   9.705   3.884   5.951 -1.1385 -0.0722  0.3024
19864SOL    HW271247   9.642   3.968   6.076  0.6328  0.9374  0.5400
19865SOL     OW71248   5.504   0.239   2.090 -0.3630 -0.5940  0.1611
19865SOL    HW171249   5.409   0.233   2.061 -0.7008  1.7296  0.6254
19865SOL    HW271250   5.510   0.226   2.189 -0.3202  0.1390  0.2583
19866SOL     OW71251   3.606   2.451   3.054 -0.0450 -0.1094  0.0069
19866SOL    HW171252   3.582   2.471   3.149 -1.3106  1.0727 -0.5431
19866SOL    HW271253   3.697   2.487   3.033  0.5665 -1.0702  0.9866
19867SOL     OW71254   7.602   9.037   3.543 -0.2154 -0.0131  0.3707
19867SOL    HW171255   7.634   8.982   3.465 -1.0627 -0.3443  0.2558
19867SOL    HW271256   7.675   9.099   3.571  0.5468 -0.7738  0.1154
19868SOL     OW71257   8.161   0.712   0.122  0.6968  0.1826  0.1105
19868SOL    HW171258   8.215   0.655   0.184  0.4389 -0.7788 -0.5424
19868SOL    HW271259   8.211   0.797   0.103  1.1899  0.0692  0.8920
19869SOL     OW71260   2.393   5.063   2.913 -0.0559  0.3618  0.3486
19869SOL    HW171261   2.421   5.062   2.817 -0.4746 -0.6696  0.2263
19869SOL    HW271262   2.474   5.061   2.971  0.2262 -3.7292 -0.0004
19870SOL     OW71263   2.315   1.738   3.755 -0.1858 -0.0585 -0.1026
19870SOL    HW171264   2.283   1.707   3.666 -1.6565  1.7412 -0.2365
19870SOL    HW271265   2.238   1.750   3.817  0.7510 -0.6057  1.2087
19871SOL     OW71266   3.656   7.334   2.446  0.2138  0.2024 -0.5718
19871SOL    HW171267   3.704   7.346   2.533  0.8787  2.0263 -1.1705
19871SOL    HW271268   3.722   7.336   2.371 -0.7764  3.3044 -1.4498
19872SOL     OW71269   9.551   3.935   3.887  0.7945  0.0260  0.1726
19872SOL    HW171270   9.571   3.842   3.857 -0.8312 -0.3820  0.3147
19872SOL    HW271271   9.487   3.933   3.963 -2.3423  1.3707 -2.2975
19873SOL     OW71272   3.148   3.507   3.616  0.2527 -0.2339  0.0113
19873SOL    HW171273   3.100   3.594   3.622  2.3152  0.8585  1.2070
19873SOL    HW271274   3.159   3.468   3.707  0.8121 -0.9131 -0.3343
19874SOL     OW71275   3.535   2.222   7.403  0.1646 -0.2886  1.1730
19874SOL    HW171276   3.612   2.172   7.442 -0.0046  0.4006  2.3845
19874SOL    HW271277   3.557   2.319   7.396 -0.0600 -0.2960  0.1590
19875SOL     OW71278   8.113   7.346   3.862 -0.6749 -0.0976 -0.0131
19875SOL    HW171279   8.023   7.365   3.901 -0.0336 -0.8975  1.9082
19875SOL    HW271280   8.171   7.428   3.870 -1.0325  0.2268 -0.7066
19876SOL     OW71281   4.469   9.979   5.138 -0.3230  0.0575 -0.4505
19876SOL    HW171282   4.375   9.994   5.109  0.0287 -0.4517 -1.9031
19876SOL    HW271283   4.513  10.066   5.157 -0.1337  0.5040 -2.8581
19877SOL     OW71284   3.636   4.140   7.390  0.1879  0.5263 -0.1176
19877SOL    HW171285   3.576   4.099   7.322  1.4466  0.0487 -0.9560
19877SOL    HW271286   3.598   4.228   7.419 -1.4078 -0.2230  0.1016
19878SOL     OW71287   2.663   1.913   1.046  0.0784  0.8261  0.0440
19878SOL    HW171288   2.694   1.938   1.137 -0.4976 -0.8764  0.7339
19878SOL    HW271289   2.692   1.819   1.025 -0.1175  1.0589 -1.3776
19879SOL     OW71290   8.469   1.487   1.073  0.7033 -0.5116 -0.1909
19879SOL    HW171291   8.485   1.585   1.061 -0.4345 -0.0481  1.8732
19879SOL    HW271292   8.371   1.470   1.080  0.9751 -1.5686  1.2041
19880SOL     OW71293   8.973   6.177   1.282 -0.7033  0.2461  0.4535
19880SOL    HW171294   9.061   6.130   1.278  0.3494  2.2854 -1.1931
19880SOL    HW271295   8.953   6.201   1.377  0.0739 -1.0270  0.9565
19881SOL     OW71296   2.434   0.324   8.008  0.3317  0.0229 -0.0514
19881SOL    HW171297   2.413   0.297   7.914 -0.3582  0.7520 -0.1136
19881SOL    HW271298   2.510   0.390   8.008  0.0104  0.3924 -0.1353
19882SOL     OW71299   7.973   6.385   4.547 -0.1641  0.4339 -0.1801
19882SOL    HW171300   7.887   6.338   4.567  0.3688 -0.0695  1.0351
19882SOL    HW271301   7.954   6.476   4.511 -1.2151  0.6056  0.7721
19883SOL     OW71302   9.973   3.498   5.214 -0.1203  0.1448  0.1694
19883SOL    HW171303   9.954   3.457   5.304 -0.5832 -0.4729 -0.1963
19883SOL    HW271304   9.967   3.597   5.220  0.9381  0.1573  1.0639
19884SOL     OW71305   5.698   8.396   5.184 -0.2395 -0.7734  0.0117
19884SOL    HW171306   5.640   8.469   5.222  1.7230 -0.1751  1.9792
19884SOL    HW271307   5.681   8.311   5.234  1.4847 -0.2770  1.4927
19885SOL     OW71308   7.907   2.139   7.206  0.0219 -0.0996 -0.0692
19885SOL    HW171309   7.992   2.124   7.256 -0.4242 -0.1741  0.6713
19885SOL    HW271310   7.840   2.182   7.266 -1.0770 -1.7175 -0.1071
19886SOL     OW71311   9.396   3.014   5.114 -0.0872 -0.1911  0.3414
19886SOL    HW171312   9.350   3.085   5.060 -0.0930  1.5473  2.5807
19886SOL    HW271313   9.489   3.001   5.079 -0.4380  0.1713 -0.7453
19887SOL     OW71314   1.600   3.387   5.638 -0.0398 -0.2050  0.4467
19887SOL    HW171315   1.662   3.315   5.670  0.8012 -1.4384 -3.7129
19887SOL    HW271316   1.653   3.460   5.594 -1.1545  1.4665  1.7707
19888SOL     OW71317   9.763   1.861   3.089  0.5093 -0.1672  0.2977
19888SOL    HW171318   9.738   1.916   3.169 -2.2183  1.7373 -1.7875
19888SOL    HW271319   9.700   1.784   3.080  0.8309 -0.3948 -0.0222
19889SOL     OW71320   2.294   2.452   6.769 -0.1148  0.6295  0.0934
19889SOL    HW171321   2.323   2.413   6.682 -1.9186 -0.5533 -0.0108
19889SOL    HW271322   2.199   2.484   6.761 -1.1455 -1.7307  2.3020
19890SOL     OW71323   8.066   1.906   5.210 -0.1442 -0.2975 -0.3170
19890SOL    HW171324   8.014   1.947   5.135  1.5068  0.4577 -1.0652
19890SOL    HW271325   8.138   1.847   5.173 -0.7096 -1.6799  0.7200
19891SOL     OW71326   9.802   6.060   4.739  0.2969 -0.0166 -0.1956
19891SOL    HW171327   9.795   6.029   4.644 -1.8740 -2.2069  0.6483
19891SOL    HW271328   9.884   6.020   4.781 -0.2588 -1.3125 -0.3303
19892SOL     OW71329   2.513   2.476   2.039 -0.5159 -0.6264 -0.1735
19892SOL    HW171330   2.504   2.546   1.968  1.8627  0.1943  0.2963
19892SOL    HW271331   2.550   2.392   2.000  0.3767 -0.3201  0.0169
19893SOL     OW71332   2.805   7.180   1.479  0.1289  0.0950 -0.1814
19893SOL    HW171333   2.849   7.262   1.517 -0.8060 -0.4178  2.0258
19893SOL    HW271334   2.790   7.194   1.381  0.4156  2.3758  0.0702
19894SOL     OW71335   4.651   2.962   1.485  0.2110 -0.6010  0.2507
19894SOL    HW171336   4.748   2.942   1.497  0.4504 -0.0216 -0.5939
19894SOL    HW271337   4.639   3.060   1.471 -0.7484 -0.3620  2.6350
19895SOL     OW71338   1.105   9.703   0.507 -0.0401 -0.4390  0.1438
19895SOL    HW171339   1.021   9.755   0.523 -0.2180 -0.8078  0.4065
19895SOL    HW271340   1.184   9.765   0.513 -0.1053 -0.5476  2.3587
19896SOL     OW71341   2.010   7.374   4.390 -0.0453 -0.1981 -0.1452
19896SOL    HW171342   2.031   7.386   4.488  0.3636 -0.5715 -0.1861
19896SOL    HW271343   1.914   7.347   4.380  0.1976 -1.2299  0.2288
19897SOL     OW71344   7.903   7.447   4.028 -0.6168 -0.1847 -0.3736
19897SOL    HW171345   7.886   7.544   4.011  0.6400  0.3150  1.1433
19897SOL    HW271346   7.827   7.393   3.990 -2.2843  1.5090  0.4898
19898SOL     OW71347   7.929   4.961   7.873  0.1380  0.0214  0.5067
19898SOL    HW171348   7.926   4.920   7.782 -3.0709 -1.8523  1.3939
19898SOL    HW271349   7.872   5.043   7.875  0.5763  0.3236  0.7032
19899SOL     OW71350   8.222   1.663   2.654 -0.6150  0.7988  0.1952
19899SOL    HW171351   8.314   1.701   2.643 -0.7669  0.4544 -2.7009
19899SOL    HW271352   8.227   1.563   2.656 -1.1844  0.6534 -3.3886
19900SOL     OW71353   0.795   6.424   0.013 -0.5560 -0.2104  0.2239
19900SOL    HW171354   0.768   6.354  -0.053 -2.6601  1.4297 -0.7239
19900SOL    HW271355   0.801   6.384   0.104 -3.4319 -1.3088 -0.0073
19901SOL     OW71356   5.969   4.352   7.327 -0.2957  0.1150  0.1620
19901SOL    HW171357   6.060   4.316   7.307 -1.0077 -0.1154 -2.8673
19901SOL    HW271358   5.901   4.279   7.316 -1.1592  1.0211 -0.6667
19902SOL     OW71359   9.680   9.614   2.599 -0.3095 -0.0248 -0.0210
19902SOL    HW171360   9.771   9.622   2.639 -1.4344  3.3702  2.1019
19902SOL    HW271361   9.679   9.661   2.510  0.4490 -1.6630 -0.9124
19903SOL     OW71362   9.020   4.780   7.299  0.2445  0.3804 -0.0813
19903SOL    HW171363   9.074   4.784   7.383 -0.6815 -2.2605  0.6858
19903SOL    HW271364   9.074   4.737   7.227 -0.2249 -0.6909  0.2015
19904SOL     OW71365   1.325   7.645   7.378  0.2260 -0.5732  0.2246
19904SOL    HW171366   1.410   7.697   7.369  1.3306 -2.6989 -2.3075
19904SOL    HW271367   1.305   7.631   7.475  2.9347 -0.2624  0.8824
19905SOL     OW71368   4.346   2.192   5.955  0.0518 -0.1470 -0.5283
19905SOL    HW171369   4.264   2.150   5.993  0.3846 -0.5716 -0.2737
19905SOL    HW271370   4.427   2.139   5.982  0.4327  0.4039 -0.5693
19906SOL     OW71371   2.897   8.098   5.960  0.6448  0.6485 -0.0680
19906SOL    HW171372   2.909   8.005   5.994 -1.9275 -0.4513 -1.9645
19906SOL    HW271373   2.964   8.116   5.887  0.2803 -0.2005 -0.6135
19907SOL     OW71374   3.343   5.143   5.117 -0.2412  0.3459  0.7775
19907SOL    HW171375   3.263   5.087   5.096  0.5547 -0.6145  0.2657
19907SOL    HW271376   3.357   5.209   5.044 -0.9748  0.9764  1.2065
19908SOL     OW71377   0.665   8.382   4.221 -0.2882  0.0843  0.1250
19908SOL    HW171378   0.614   8.320   4.162  0.2223  0.5593 -0.8203
19908SOL    HW271379   0.628   8.377   4.314  0.5762 -2.6037  0.3669
19909SOL     OW71380   0.487   5.540   6.351 -0.5034  0.2851  0.2619
19909SOL    HW171381   0.562   5.585   6.303 -0.3478 -0.6327 -0.3428
19909SOL    HW271382   0.406   5.536   6.292 -0.2246 -1.0993 -0.0242
19910SOL     OW71383   7.645   0.561   2.264 -0.2139  0.2126 -0.3136
19910SOL    HW171384   7.631   0.519   2.353 -0.3243  1.2597  0.1679
19910SOL    HW271385   7.599   0.507   2.193 -0.1990 -0.5668  0.2781
19911SOL     OW71386   8.850   4.641   7.876 -0.6126 -0.7140  0.4037
19911SOL    HW171387   8.944   4.665   7.852 -1.2865  1.7138  0.0628
19911SOL    HW271388   8.848   4.601   7.968  0.7920 -1.1089  0.2662
19912SOL     OW71389   8.148   2.205   5.428 -0.0311  0.2730 -0.1591
19912SOL    HW171390   8.096   2.190   5.344  0.5578 -1.5637 -0.2227
19912SOL    HW271391   8.229   2.146   5.428  0.9395  1.5806  0.8846
19913SOL     OW71392   1.483   2.245   2.684 -0.4184 -0.2440  0.4831
19913SOL    HW171393   1.581   2.239   2.664 -0.2878  2.2426  0.2676
19913SOL    HW271394   1.469   2.242   2.783  0.1938  2.6635  0.7156
19914SOL     OW71395   9.393   2.051   6.224  0.4911 -0.1521  0.1151
19914SOL    HW171396   9.451   2.008   6.293 -0.1672  1.5229  1.7642
19914SOL    HW271397   9.322   2.106   6.270  0.8170  2.0229 -1.8966
19915SOL     OW71398   3.497   2.371   6.832 -0.9573 -0.0234  0.2513
19915SOL    HW171399   3.578   2.374   6.891 -1.4450  0.4211  0.9065
19915SOL    HW271400   3.449   2.458   6.836 -0.1607  0.5614 -2.0222
19916SOL     OW71401   9.668   3.450   1.245  0.5277  0.2595  0.2577
19916SOL    HW171402   9.585   3.438   1.192  1.3304 -2.5382 -0.4495
19916SOL    HW271403   9.721   3.526   1.208 -0.4345  0.3502 -0.9611
19917SOL     OW71404   3.070   6.806   1.971 -0.1651 -0.0932  0.0994
19917SOL    HW171405   3.034   6.817   2.064 -0.1059 -0.1795  0.1318
19917SOL    HW271406   2.993   6.804   1.906 -0.2078 -0.0644  0.1493
19918SOL     OW71407   6.334   9.324   3.825 -0.5290 -0.1715 -0.2573
19918SOL    HW171408   6.328   9.419   3.792 -1.3464  0.1302  0.7224
19918SOL    HW271409   6.416   9.314   3.881  0.0260 -0.2793 -1.0756
19919SOL     OW71410   7.297   5.818   0.372  0.4752 -0.2297 -0.0948
19919SOL    HW171411   7.260   5.733   0.407 -0.8863  0.7688  0.9445
19919SOL    HW271412   7.277   5.892   0.436  0.1637  1.1727 -1.7752
19920SOL     OW71413   2.428   8.136   6.660  0.3381  0.4453  0.2022
19920SOL    HW171414   2.359   8.161   6.592 -0.2764  0.6925  0.9079
19920SOL    HW271415   2.391   8.151   6.752  0.9295 -0.4884  0.6049
19921SOL     OW71416   7.597   3.046   6.217  0.0935 -0.0254  0.1840
19921SOL    HW171417   7.508   3.013   6.188 -0.0724  1.3216 -0.9103
19921SOL    HW271418   7.605   3.144   6.196  1.8629 -0.1514  0.1837
19922SOL     OW71419   1.480   8.453   0.055  0.4709  0.2101  0.2984
19922SOL    HW171420   1.567   8.500   0.068  0.5467 -0.1345  1.0631
19922SOL    HW271421   1.407   8.520   0.041  1.0883  0.4726 -1.8710
19923SOL     OW71422   1.958   1.070   5.387 -0.0956 -0.4060  0.3016
19923SOL    HW171423   2.021   1.118   5.448  1.4562 -0.4529 -1.2213
19923SOL    HW271424   1.954   1.118   5.299 -0.1286 -1.9042 -0.5271
19924SOL     OW71425   7.850   1.080   5.433  0.0985 -0.5075  0.4984
19924SOL    HW171426   7.944   1.113   5.443  0.1156 -0.5992  0.6331
19924SOL    HW271427   7.822   1.089   5.337  0.8047 -1.9614  0.1349
19925SOL     OW71428   1.634   3.906   5.200  0.0498 -0.0700  0.2098
19925SOL    HW171429   1.539   3.912   5.169  0.6578  1.4306 -1.4629
19925SOL    HW271430   1.674   3.820   5.169 -0.3570 -0.0860 -0.2816
19926SOL     OW71431   3.583   8.532   0.812  0.2294  0.0777  0.8205
19926SOL    HW171432   3.514   8.487   0.756  0.2322 -0.4499  1.2414
19926SOL    HW271433   3.667   8.543   0.759 -0.0105  0.2679  0.4739
19927SOL     OW71434   7.855   5.704   6.168  0.5093  0.4923 -0.4023
19927SOL    HW171435   7.804   5.786   6.142  0.3348  1.3473  2.5166
19927SOL    HW271436   7.803   5.651   6.235  1.0359 -1.5492 -1.5551
19928SOL     OW71437   4.230   2.381   1.732 -0.3278 -0.8081 -0.0407
19928SOL    HW171438   4.173   2.301   1.755 -0.1718 -1.2926 -1.2912
19928SOL    HW271439   4.320   2.371   1.774 -0.3304 -1.2669 -0.1407
19929SOL     OW71440   6.739   5.385   1.434 -0.0525  0.3690  0.2100
19929SOL    HW171441   6.748   5.481   1.459  1.1277  0.0581  1.0413
19929SOL    HW271442   6.820   5.335   1.466 -0.6168 -0.8803 -0.2913
19930SOL     OW71443   3.055   3.741   8.033 -0.2203 -0.2938  0.2995
19930SOL    HW171444   3.015   3.706   7.948  0.7529 -1.3556  0.2803
19930SOL    HW271445   3.154   3.751   8.022 -0.2439  0.7499  0.9092
19931SOL     OW71446   8.976   0.892   0.929  0.3473  0.0612 -0.3645
19931SOL    HW171447   9.027   0.811   0.901 -1.0061 -0.4261 -1.5019
19931SOL    HW271448   8.958   0.950   0.849  0.1173  0.8028  0.2084
19932SOL     OW71449   4.265   0.980   0.813 -0.1042 -0.6875  0.1485
19932SOL    HW171450   4.298   0.994   0.720  0.7790  4.0301  1.0509
19932SOL    HW271451   4.341   0.980   0.876 -0.9593 -0.6868  1.1935
19933SOL     OW71452   1.093   4.602   2.266  0.6729 -0.4136  0.4350
19933SOL    HW171453   1.025   4.565   2.330  0.6677  0.9929  1.2546
19933SOL    HW271454   1.123   4.529   2.205 -2.6868 -0.7502 -0.9281
19934SOL     OW71455   7.908   2.321   0.257  0.1342 -0.4343  0.1478
19934SOL    HW171456   7.870   2.236   0.222 -1.8281  1.0498 -1.4570
19934SOL    HW271457   7.836   2.374   0.301  1.1434  0.7695  0.3842
19935SOL     OW71458   1.575   5.565   2.085 -0.1007 -0.6446 -0.0815
19935SOL    HW171459   1.549   5.594   1.993  0.5823 -3.1067 -1.0989
19935SOL    HW271460   1.511   5.496   2.118  1.0861 -1.6220  0.2388
19936SOL     OW71461   7.923   3.620   3.516 -0.0772  0.0304  0.1455
19936SOL    HW171462   7.952   3.589   3.607  0.5068  0.9285  0.2731
19936SOL    HW271463   8.003   3.628   3.457 -0.0465  2.4010  0.4667
19937SOL     OW71464   9.288   5.687   7.526  0.2464  0.6885 -1.0667
19937SOL    HW171465   9.323   5.677   7.433 -1.9054 -0.3323 -1.8167
19937SOL    HW271466   9.339   5.626   7.587 -0.6486 -1.3557 -2.2703
19938SOL     OW71467   2.527   5.488   1.956  0.4068 -0.1191  0.4392
19938SOL    HW171468   2.471   5.526   2.029  0.9174  1.5107  0.0049
19938SOL    HW271469   2.492   5.398   1.931 -1.3600  0.4018  0.9234
19939SOL     OW71470   2.191   3.186   2.293  0.1630 -0.0372 -0.0875
19939SOL    HW171471   2.233   3.110   2.344  0.1399 -1.0579 -1.5599
19939SOL    HW271472   2.256   3.221   2.226 -0.9132 -0.8943 -1.6160
19940SOL     OW71473   1.026   3.664   1.697 -0.1971  0.4204  0.4962
19940SOL    HW171474   1.070   3.636   1.782 -0.4593 -0.1464  0.4450
19940SOL    HW271475   1.077   3.627   1.619  0.2173  1.1878  0.3954
19941SOL     OW71476   3.663   0.919   0.141  0.0220  0.4748  0.0884
19941SOL    HW171477   3.610   0.889   0.221 -2.4068  1.5158 -1.0711
19941SOL    HW271478   3.673   1.019   0.143  0.4971  0.4439 -0.5843
19942SOL     OW71479   4.362   0.305   1.435  0.2855 -0.3383  0.0057
19942SOL    HW171480   4.322   0.329   1.523  0.8286  0.6222 -0.0063
19942SOL    HW271481   4.290   0.300   1.366 -0.0746 -0.6181  0.3982
19943SOL     OW71482   0.036   6.097   4.530 -0.3405 -0.2162 -0.0342
19943SOL    HW171483   0.051   6.012   4.479  2.7128 -0.3857  1.0013
19943SOL    HW271484   0.033   6.075   4.628  1.7448  0.9892  0.3182
19944SOL     OW71485   9.818   1.485   1.466 -0.1284  0.3756 -0.0329
19944SOL    HW171486   9.797   1.484   1.564  0.4392 -0.1102  0.0844
19944SOL    HW271487   9.734   1.470   1.414 -0.0662 -1.7705  0.4380
19945SOL     OW71488   0.200   0.647   0.374  0.1561 -0.0730 -0.1754
19945SOL    HW171489   0.248   0.647   0.462  1.2423 -0.9540 -0.7590
19945SOL    HW271490   0.266   0.654   0.299 -0.7537  0.5242 -0.9317
19946SOL     OW71491   7.778   0.965   6.158 -0.4441  0.2307 -0.3742
19946SOL    HW171492   7.855   1.029   6.163 -0.5065  0.2167  0.7335
19946SOL    HW271493   7.693   1.017   6.155 -0.4525  0.2148 -0.4148
19947SOL     OW71494   0.223   0.645   4.533 -0.5884 -0.1525 -0.1020
19947SOL    HW171495   0.182   0.702   4.605  1.6836  1.5982 -0.1359
19947SOL    HW271496   0.208   0.689   4.444 -0.8621 -0.8131 -0.3806
19948SOL     OW71497   0.927   2.969   0.165 -0.7661 -0.3404  0.3922
19948SOL    HW171498   0.990   2.892   0.164 -0.6226 -0.2858  2.5979
19948SOL    HW271499   0.915   3.001   0.259 -1.4828  1.7917 -0.3972
19949SOL     OW71500   7.429   9.335   2.838 -0.1183 -0.4023 -0.4094
19949SOL    HW171501   7.499   9.373   2.778  0.8972 -0.7509  0.5404
19949SOL    HW271502   7.440   9.372   2.930 -0.6376 -1.1259 -0.0503
19950SOL     OW71503   7.276   3.724   1.875 -0.5340  0.7012  0.0661
19950SOL    HW171504   7.198   3.743   1.815 -0.8864  1.3054  0.7192
19950SOL    HW271505   7.250   3.656   1.944 -0.7251  1.5025  0.7892
19951SOL     OW71506   8.747   6.332   7.325 -0.3750 -0.1068 -0.4311
19951SOL    HW171507   8.670   6.345   7.263  0.9822  3.0866 -1.5591
19951SOL    HW271508   8.727   6.373   7.414 -0.2070  0.2823 -0.5684
19952SOL     OW71509   9.801   6.199   5.153  0.1051 -0.7264  0.0801
19952SOL    HW171510   9.714   6.176   5.198 -0.5513 -1.7090 -1.6551
19952SOL    HW271511   9.789   6.280   5.096  0.1881 -1.1851 -0.5895
19953SOL     OW71512   6.854   1.487   4.666 -0.0746  0.0028 -0.0145
19953SOL    HW171513   6.819   1.523   4.753 -1.0713  1.5397 -1.0157
19953SOL    HW271514   6.940   1.439   4.682  0.1128  0.8734  1.7391
19954SOL     OW71515   6.140   5.486   0.879  0.8741 -1.0102  0.2549
19954SOL    HW171516   6.132   5.386   0.875  0.2369 -0.9919  1.1854
19954SOL    HW271517   6.104   5.520   0.965 -1.7038  0.3039 -1.2781
19955SOL     OW71518   4.624   2.862   5.748  0.2401 -0.3286 -0.0638
19955SOL    HW171519   4.629   2.887   5.651 -1.0896 -1.9729 -0.5830
19955SOL    HW271520   4.528   2.859   5.777  0.5675 -1.0715  0.9691
19956SOL     OW71521   8.683   3.520   0.519 -0.3085 -0.3572  1.1721
19956SOL    HW171522   8.689   3.616   0.545  1.0923  0.2408 -1.1978
19956SOL    HW271523   8.616   3.509   0.446  1.2684 -0.7693 -0.2465
19957SOL     OW71524   9.645   3.523   5.793 -0.0704 -0.1286 -0.5198
19957SOL    HW171525   9.700   3.569   5.723 -1.0818  2.9793  0.6128
19957SOL    HW271526   9.704   3.495   5.869  0.5091 -0.3438 -1.0501
19958SOL     OW71527   8.562   0.646   2.192 -0.8517  0.4225 -0.0533
19958SOL    HW171528   8.586   0.629   2.287  0.3407 -1.1332 -0.6099
19958SOL    HW271529   8.635   0.700   2.148 -1.2196  0.8140 -0.1892
19959SOL     OW71530   5.416   9.223   1.638  0.3014 -0.2896 -0.5117
19959SOL    HW171531   5.448   9.251   1.729 -0.8991  0.7889 -0.3960
19959SOL    HW271532   5.426   9.299   1.574  1.2554 -1.0839 -1.3192
19960SOL     OW71533   2.098   4.462   8.184  0.1532  0.2844  0.0040
19960SOL    HW171534   2.048   4.544   8.158 -0.8008 -0.3463 -0.1803
19960SOL    HW271535   2.105   4.400   8.106  1.8193  0.6527 -0.1594
19961SOL     OW71536   5.158   7.855   5.931  0.0105  1.0055  0.4198
19961SOL    HW171537   5.200   7.777   5.885 -0.4175  1.1659 -0.2607
19961SOL    HW271538   5.229   7.913   5.971  0.5847  2.1867 -2.1706
19962SOL     OW71539   1.355   1.336   4.857  0.8268 -0.2777 -0.3283
19962SOL    HW171540   1.306   1.254   4.887  0.0408 -0.4778 -2.0984
19962SOL    HW271541   1.291   1.400   4.815  1.3786  1.4140  1.3048
19963SOL     OW71542   4.481   8.199   5.130 -0.5274 -0.5442 -0.0157
19963SOL    HW171543   4.514   8.260   5.058 -1.9055  0.6316  0.3333
19963SOL    HW271544   4.389   8.166   5.106 -0.4803 -1.1280  0.6092
19964SOL     OW71545   1.983   5.140   4.515  0.1757 -0.2626 -0.2544
19964SOL    HW171546   2.004   5.045   4.539  0.8936 -0.0557 -0.0369
19964SOL    HW271547   2.068   5.188   4.494 -0.2331  0.2047 -0.8534
19965SOL     OW71548   4.055   0.148   0.245  0.2658  0.3973  0.0377
19965SOL    HW171549   3.956   0.140   0.253  0.2822  0.3504  0.1958
19965SOL    HW271550   4.077   0.212   0.171  0.1365 -1.5217 -1.7112
19966SOL     OW71551   4.731   1.862   7.463  0.0141 -0.1924  0.4136
19966SOL    HW171552   4.733   1.876   7.562  0.0706  0.5110  0.3156
19966SOL    HW271553   4.680   1.779   7.442  0.1814 -0.4551  1.0461
19967SOL     OW71554   1.827   4.927   0.811 -0.2405  0.3598 -0.3909
19967SOL    HW171555   1.777   5.011   0.834 -0.8040 -0.0856  0.0368
19967SOL    HW271556   1.924   4.939   0.829 -0.7049 -0.0860  2.5781
19968SOL     OW71557   8.902   4.307   7.345 -0.6603 -0.8158 -0.2097
19968SOL    HW171558   8.982   4.315   7.403 -2.5774  0.0627  2.4179
19968SOL    HW271559   8.858   4.397   7.337 -1.1386 -1.1883 -2.0006
19969SOL     OW71560   8.538   1.326   6.035 -0.4935 -0.2534 -0.3754
19969SOL    HW171561   8.444   1.341   6.004  0.2248  0.1724 -2.4017
19969SOL    HW271562   8.576   1.412   6.069 -0.4276 -0.1501 -0.7081
19970SOL     OW71563   7.183   6.936   3.670 -0.6869 -0.1430 -0.3008
19970SOL    HW171564   7.174   6.922   3.769  1.1310  0.7679  0.0242
19970SOL    HW271565   7.265   6.991   3.652 -0.7470 -0.6959 -2.3525
19971SOL     OW71566   0.008   0.970   7.203  0.3714 -0.3486 -0.0138
19971SOL    HW171567  -0.058   0.986   7.276 -0.5263  1.0011 -1.0881
19971SOL    HW271568   0.097   0.948   7.242 -0.3265 -0.5873  1.4652
19972SOL     OW71569   1.869   9.312   2.328 -0.6428 -0.3550 -0.1708
19972SOL    HW171570   1.882   9.260   2.413 -1.5390 -1.5109 -0.7252
19972SOL    HW271571   1.945   9.375   2.316 -0.7949  0.2419  1.7917
19973SOL     OW71572   1.102   8.429   4.450 -0.8338 -0.6261  0.1263
19973SOL    HW171573   1.084   8.395   4.358  0.2498 -0.1835 -0.2575
19973SOL    HW271574   1.017   8.465   4.490 -1.1132  0.0169 -1.0417
19974SOL     OW71575   9.298   7.723   4.260  0.4636 -0.3437  0.0446
19974SOL    HW171576   9.208   7.740   4.219 -0.1401  0.4878  1.6595
19974SOL    HW271577   9.366   7.782   4.216 -0.2827  0.9842  0.6476
19975SOL     OW71578   7.463   2.747   3.293 -0.2825  0.3697  0.4579
19975SOL    HW171579   7.514   2.823   3.332  0.4654  0.6644 -1.0574
19975SOL    HW271580   7.513   2.662   3.309 -0.8433  0.2539  1.6584
19976SOL     OW71581   9.315   3.442   6.383 -0.1650 -0.0787 -0.5074
19976SOL    HW171582   9.358   3.531   6.387 -2.3997  1.0482 -0.7265
19976SOL    HW271583   9.324   3.396   6.472  0.1190  0.7894 -0.0905
19977SOL     OW71584   1.156   1.778   1.944 -0.1532 -0.2410 -0.1046
19977SOL    HW171585   1.173   1.808   1.850  0.6336  0.4075  0.2404
19977SOL    HW271586   1.128   1.682   1.944 -0.0095 -0.2854 -0.9826
19978SOL     OW71587   4.358   7.838   3.665  0.0395  0.1650 -0.2860
19978SOL    HW171588   4.453   7.808   3.656  0.0199 -0.3196  0.9358
19978SOL    HW271589   4.354   7.938   3.664  0.7852  0.2292  1.5150
19979SOL     OW71590   3.277   6.371   7.945  0.2529 -0.2293  0.4884
19979SOL    HW171591   3.181   6.345   7.953  0.2077 -0.4136 -0.6043
19979SOL    HW271592   3.288   6.437   7.872  0.9666 -0.2577  0.5681
19980SOL     OW71593   1.355   1.116   1.207  0.2220 -0.1126  0.0806
19980SOL    HW171594   1.437   1.157   1.248  0.3054  0.1459 -0.3467
19980SOL    HW271595   1.358   1.016   1.221  1.6297 -0.3530 -1.7251
19981SOL     OW71596   5.258   0.282   6.920  0.5379 -0.1250 -0.4370
19981SOL    HW171597   5.255   0.314   6.825  0.0119 -1.1678 -0.7803
19981SOL    HW271598   5.220   0.189   6.925 -0.6734  0.4406  1.0151
19982SOL     OW71599   2.200   5.071   8.186 -0.2472 -0.5326 -0.2840
19982SOL    HW171600   2.248   5.011   8.250 -1.1851 -2.3378 -1.2245
19982SOL    HW271601   2.257   5.087   8.106  0.3547  0.5727  0.3494
19983SOL     OW71602   2.539   2.779   2.328  0.0736  0.4444 -0.0594
19983SOL    HW171603   2.441   2.789   2.319 -0.1365 -2.7214 -2.3209
19983SOL    HW271604   2.559   2.707   2.395  0.7155 -1.0782 -1.8408
19984SOL     OW71605   1.061   1.262   0.872  0.2492 -0.1332 -0.4594
19984SOL    HW171606   1.002   1.258   0.791  0.9532  0.4451 -1.0147
19984SOL    HW271607   1.021   1.324   0.939  1.2175  1.8628 -1.6778
19985SOL     OW71608   3.014   4.333   7.975 -0.3805 -0.0212  0.0693
19985SOL    HW171609   3.006   4.302   8.070 -0.5844 -0.4663 -0.0896
19985SOL    HW271610   2.942   4.398   7.955 -0.3257  0.0874  0.2275
19986SOL     OW71611   2.057   2.228   5.151  0.4722 -0.0666 -0.3831
19986SOL    HW171612   2.111   2.218   5.067  0.4335  1.3142 -0.5827
19986SOL    HW271613   2.041   2.325   5.169  1.1411 -0.3109  1.6525
19987SOL     OW71614   0.847   5.498   7.689 -0.3307 -0.2079 -0.4346
19987SOL    HW171615   0.771   5.555   7.719  1.0287  0.4274  1.9533
19987SOL    HW271616   0.927   5.555   7.673 -0.2264 -0.9124 -2.5749
19988SOL     OW71617   5.947   7.749   5.677  0.5218  0.2142 -0.6655
19988SOL    HW171618   6.016   7.696   5.629 -0.0990  0.5253 -1.9087
19988SOL    HW271619   5.856   7.718   5.650  0.1597  0.3188  0.3935
19989SOL     OW71620   8.082   7.851   4.191 -0.0511 -0.1357 -0.3388
19989SOL    HW171621   8.065   7.836   4.288 -0.8181  0.4649 -0.3762
19989SOL    HW271622   8.084   7.949   4.172 -0.5606 -0.2537 -1.0342
19990SOL     OW71623   9.077   9.239   6.325  0.5775 -0.0762  0.6261
19990SOL    HW171624   9.134   9.315   6.356 -0.7773  1.4539 -0.5497
19990SOL    HW271625   9.015   9.212   6.399 -0.4377  1.4328  0.3545
19991SOL     OW71626   3.114   8.378   2.615  0.1751  0.0258  0.8671
19991SOL    HW171627   3.129   8.402   2.519  2.3403 -1.2772  0.8601
19991SOL    HW271628   3.125   8.460   2.672 -2.7330  1.1584 -0.0975
19992SOL     OW71629   9.228   6.169   0.366 -0.3229 -0.0525  0.0445
19992SOL    HW171630   9.233   6.080   0.321  0.5487 -0.5856  1.1622
19992SOL    HW271631   9.164   6.164   0.443  0.0291  0.1744  0.3522
19993SOL     OW71632   7.516   3.289   1.045 -0.4798  0.5484  0.2194
19993SOL    HW171633   7.470   3.224   1.106  1.7051  0.4207  1.7864
19993SOL    HW271634   7.464   3.297   0.960 -3.2009  0.1445  1.7709
19994SOL     OW71635   2.170   2.146   5.841  0.0870  0.6488 -0.6144
19994SOL    HW171636   2.178   2.210   5.917  0.7807 -0.9295  0.6590
19994SOL    HW271637   2.150   2.055   5.876  0.7020 -0.1562 -2.3041
19995SOL     OW71638   1.860   4.157   4.603  0.1695 -0.4316 -0.0269
19995SOL    HW171639   1.851   4.089   4.676 -0.3512 -0.8178 -0.4473
19995SOL    HW271640   1.949   4.202   4.611  0.6319 -1.3425  0.1110
19996SOL     OW71641   1.657   6.307   1.842  0.5371  0.1353  0.2074
19996SOL    HW171642   1.615   6.220   1.820 -0.1858  0.7837 -1.0388
19996SOL    HW271643   1.644   6.327   1.939 -3.4947  1.0523 -0.4145
19997SOL     OW71644   3.533   0.962   0.655 -0.2105  0.0814  0.0693
19997SOL    HW171645   3.514   0.910   0.738  0.5573 -0.2356  0.0470
19997SOL    HW271646   3.606   1.027   0.673  0.6531 -0.6895 -0.6368
19998SOL     OW71647   1.341   8.720   7.443 -0.0435  0.3858 -0.2963
19998SOL    HW171648   1.288   8.690   7.523 -2.5631 -1.4062 -2.5378
19998SOL    HW271649   1.383   8.641   7.399 -0.2730  1.0798 -1.8051
19999SOL     OW71650   0.203   5.367   2.827 -0.1853  0.7105 -0.0250
19999SOL    HW171651   0.224   5.269   2.834 -1.1821  0.5073  0.0803
19999SOL    HW271652   0.166   5.400   2.914 -0.7278  0.9765 -0.3567
20000SOL     OW71653   5.399   4.763   8.069  0.0708 -0.0298 -0.1409
20000SOL    HW171654   5.348   4.811   7.998 -0.0433 -2.5684 -1.8332
20000SOL    HW271655   5.336   4.723   8.135  0.1138  1.0233  0.5523
20001SOL     OW71656   4.816   2.748   7.197 -0.5889 -0.3188 -0.5135
20001SOL    HW171657   4.742   2.816   7.196 -1.9560 -1.7899 -0.2638
20001SOL    HW271658   4.814   2.695   7.113 -1.4278 -2.0758  0.6019
20002SOL     OW71659   4.817   0.174   5.540 -0.8024  0.5243 -0.3071
20002SOL    HW171660   4.732   0.216   5.572 -2.0930 -0.3051 -2.5542
20002SOL    HW271661   4.796   0.096   5.481  1.4987  0.8390 -1.6180
20003SOL     OW71662   3.678   2.276   6.616  0.4919 -0.2320 -0.2679
20003SOL    HW171663   3.760   2.248   6.665 -0.9680 -2.6935  0.8497
20003SOL    HW271664   3.603   2.290   6.681  0.0844  2.3535 -1.2304
20004SOL     OW71665   9.492   0.900   0.853  0.3705  0.2756  0.5375
20004SOL    HW171666   9.501   0.996   0.825 -0.0215  0.3921  0.8060
20004SOL    HW271667   9.579   0.867   0.890  0.7166  0.3083 -0.2409
20005SOL     OW71668   2.045   7.246   5.905 -0.5811 -0.3655  0.8677
20005SOL    HW171669   2.123   7.291   5.863 -1.7972  1.8257  0.8764
20005SOL    HW271670   1.990   7.202   5.834  0.0358 -0.9203  0.7313
20006SOL     OW71671   0.727   5.112   1.606 -0.2164  0.2769  0.0707
20006SOL    HW171672   0.804   5.125   1.669 -0.8506  1.5479  0.6020
20006SOL    HW271673   0.742   5.029   1.552  1.6505  0.6378 -0.0167
20007SOL     OW71674   2.139   0.410   2.447  0.5210  0.4174  0.2490
20007SOL    HW171675   2.074   0.461   2.390  0.5189 -0.1131 -0.2226
20007SOL    HW271676   2.121   0.312   2.439 -1.3594  0.4315  3.3837
20008SOL     OW71677   9.493   9.295   2.334 -0.3135  0.2235  0.5313
20008SOL    HW171678   9.562   9.223   2.339 -0.5168 -0.1524 -1.7393
20008SOL    HW271679   9.421   9.277   2.402  0.1507 -1.1491  0.6747
20009SOL     OW71680   4.535   4.999   2.905 -0.7706  0.0190 -0.8359
20009SOL    HW171681   4.489   5.040   2.984  0.5965 -1.0396  0.5428
20009SOL    HW271682   4.486   4.915   2.879  0.3132 -1.0910  0.6108
20010SOL     OW71683   8.029   0.662   6.669  0.0226  0.2678 -0.0538
20010SOL    HW171684   7.966   0.719   6.616 -0.5028  0.4843  0.7979
20010SOL    HW271685   8.112   0.646   6.615 -0.4697  0.5436 -0.9147
20011SOL     OW71686   1.612   5.160   0.531  0.2785  0.3948  0.0757
20011SOL    HW171687   1.695   5.209   0.559 -0.9925  2.7796 -0.1736
20011SOL    HW271688   1.588   5.187   0.437 -0.5278 -0.6289 -0.0150
20012SOL     OW71689   5.806   2.312   4.207  0.0344 -0.0328  0.8696
20012SOL    HW171690   5.892   2.351   4.175 -0.2600 -0.9572 -1.0930
20012SOL    HW271691   5.759   2.267   4.132 -1.7967 -0.2523  2.0964
20013SOL     OW71692   9.250   6.005   4.293  0.0530 -0.1902 -0.6956
20013SOL    HW171693   9.207   6.095   4.300  0.3685 -0.1741  1.5268
20013SOL    HW271694   9.179   5.935   4.283 -0.3250  0.1262 -0.2762
20014SOL     OW71695   0.343   2.101   5.152  0.3431 -0.4518  0.4817
20014SOL    HW171696   0.420   2.157   5.120  0.3474 -1.3020 -1.0379
20014SOL    HW271697   0.357   2.077   5.248  1.0159  1.0011  0.7648
20015SOL     OW71698   0.347   5.307   4.838 -0.5523 -0.1293 -0.7427
20015SOL    HW171699   0.348   5.227   4.778 -1.4677  0.2096 -1.2296
20015SOL    HW271700   0.267   5.363   4.817  0.0836  0.9251 -0.4213
20016SOL     OW71701   8.708   1.085   2.227  0.6531 -0.1084 -0.0074
20016SOL    HW171702   8.793   1.121   2.266  1.0159  0.1041 -0.9594
20016SOL    HW271703   8.727   0.997   2.182  0.3824 -0.0415 -0.2525
20017SOL     OW71704   7.004   4.216   1.201  0.1431 -0.2654  0.1582
20017SOL    HW171705   6.947   4.287   1.242 -1.1525 -1.9274  1.3505
20017SOL    HW271706   7.073   4.186   1.267  0.5558 -0.2403 -0.2630
20018SOL     OW71707   1.440   0.289   6.241  0.0502 -0.1233 -0.2756
20018SOL    HW171708   1.377   0.329   6.174  1.3663 -0.1103 -1.5272
20018SOL    HW271709   1.486   0.363   6.291 -1.8551 -0.1361  1.5537
20019SOL     OW71710   9.451   2.239   0.332 -0.5539 -0.1534 -0.4390
20019SOL    HW171711   9.522   2.292   0.285 -0.4618 -0.7507 -0.9853
20019SOL    HW271712   9.490   2.193   0.411 -1.1238  2.4019  1.3830
20020SOL     OW71713   3.170   2.193   1.587  1.0313  0.0816 -0.6965
20020SOL    HW171714   3.163   2.226   1.493  0.9675 -4.0888 -2.2474
20020SOL    HW271715   3.176   2.093   1.588 -0.1525 -0.0893  3.8174
20021SOL     OW71716   9.479   1.777   8.023 -0.3657  0.1016 -0.6307
20021SOL    HW171717   9.414   1.703   8.014 -0.5178  0.0260  0.9786
20021SOL    HW271718   9.563   1.743   8.065 -0.6611  0.9495  0.6774
20022SOL     OW71719   0.750   6.215   0.479 -0.1444 -0.1064 -0.1001
20022SOL    HW171720   0.702   6.288   0.527 -0.1815 -2.1608  3.0993
20022SOL    HW271721   0.834   6.193   0.528  0.7366 -1.0739 -1.9951
20023SOL     OW71722   0.151   2.040   7.025 -0.3825  0.0421  0.3980
20023SOL    HW171723   0.154   1.941   7.008 -0.0197  0.0685  0.3029
20023SOL    HW271724   0.067   2.078   6.985  0.2016  0.0109 -0.8832
20024SOL     OW71725   9.150   6.107   2.133  0.2307 -0.4096 -0.5944
20024SOL    HW171726   9.235   6.058   2.116  0.2343 -0.7695  0.4833
20024SOL    HW271727   9.155   6.197   2.089  1.9409  0.3515  1.0638
20025SOL     OW71728   5.219   4.493   1.793  0.1433 -0.0531 -0.6526
20025SOL    HW171729   5.130   4.451   1.771  0.6142 -1.4833  0.0614
20025SOL    HW271730   5.215   4.532   1.885 -0.8633  3.1676 -2.0050
20026SOL     OW71731   4.121   9.677   6.540 -0.1862  0.3720 -0.3289
20026SOL    HW171732   4.103   9.669   6.638 -0.0182  0.1112 -0.3207
20026SOL    HW271733   4.214   9.646   6.520 -1.0060 -1.8433 -0.8984
20027SOL     OW71734   4.590   0.969   7.556 -0.8588  0.1840  0.0026
20027SOL    HW171735   4.642   1.036   7.503 -0.1188 -0.8967 -0.6592
20027SOL    HW271736   4.495   0.968   7.525 -0.1905 -1.2487 -2.1439
20028SOL     OW71737   5.401   7.598   2.828  0.4120 -0.3438  1.2567
20028SOL    HW171738   5.448   7.636   2.908 -1.3735 -0.5563  2.4493
20028SOL    HW271739   5.466   7.584   2.754  1.9815  0.4937  2.4504
20029SOL     OW71740   8.493   6.422   7.210 -0.1044 -0.1363  0.6906
20029SOL    HW171741   8.487   6.510   7.256  0.7706 -0.5769  1.6716
20029SOL    HW271742   8.568   6.424   7.143 -1.0676  0.3483 -0.4002
20030SOL     OW71743   2.886   8.288   4.090 -0.3547  0.3340 -0.2713
20030SOL    HW171744   2.868   8.381   4.059  1.9024  0.9976  0.3550
20030SOL    HW271745   2.824   8.266   4.166  0.2776  1.9499  0.7335
20031SOL     OW71746   9.164   1.038   5.248 -0.0407  0.6404  0.5450
20031SOL    HW171747   9.217   1.117   5.218  0.1246  0.6181  0.7787
20031SOL    HW271748   9.162   1.035   5.348  0.4657  0.0068  0.5399
20032SOL     OW71749   2.833   8.385   3.077 -0.4550 -0.3191 -0.1007
20032SOL    HW171750   2.785   8.459   3.030 -0.4915 -0.0710  0.3237
20032SOL    HW271751   2.881   8.422   3.157 -2.9736 -1.2329  1.9017
20033SOL     OW71752   1.682   4.003   3.674  0.1409 -0.1835  0.0923
20033SOL    HW171753   1.740   4.084   3.674  0.2409 -0.2501  0.6883
20033SOL    HW271754   1.739   3.922   3.658 -0.1553 -0.0094 -1.9199
20034SOL     OW71755   1.538   9.238   0.979  0.0233  0.2046 -0.0890
20034SOL    HW171756   1.515   9.214   0.885 -1.0807  3.0034 -0.5614
20034SOL    HW271757   1.607   9.311   0.980  2.6643 -2.1863  1.3169
20035SOL     OW71758   9.327   6.253   4.657 -0.2454 -0.2983 -0.2718
20035SOL    HW171759   9.369   6.310   4.585  1.2286  1.1265  1.6488
20035SOL    HW271760   9.355   6.158   4.644 -1.5394 -0.3903 -2.6741
20036SOL     OW71761   4.495   8.787   4.340 -0.0183  0.5050 -0.1924
20036SOL    HW171762   4.587   8.808   4.373 -0.9881  0.1990  2.8912
20036SOL    HW271763   4.429   8.804   4.413 -2.1890 -1.2970 -1.6638
20037SOL     OW71764   7.887   8.854   5.395 -0.2865 -0.2381 -0.1929
20037SOL    HW171765   7.811   8.844   5.331 -1.4615  3.7300  0.4128
20037SOL    HW271766   7.963   8.900   5.349  0.3832 -0.9401  0.1986
20038SOL     OW71767   2.396   5.435   4.094  0.5503 -0.1658  0.0642
20038SOL    HW171768   2.342   5.379   4.157  0.8248 -0.4506  0.0459
20038SOL    HW271769   2.464   5.487   4.145 -0.5033  1.0830  0.2214
20039SOL     OW71770   3.198   4.432   2.141  0.4592  0.4956  0.0334
20039SOL    HW171771   3.140   4.500   2.096  0.0812 -0.8614 -1.6126
20039SOL    HW271772   3.274   4.477   2.188  0.9275  1.9639 -2.0891
20040SOL     OW71773   7.562   1.845   2.408 -0.6982  0.0052  0.3998
20040SOL    HW171774   7.493   1.839   2.337 -0.0041  1.3889 -0.3989
20040SOL    HW271775   7.623   1.765   2.403 -0.4703  0.2508 -0.7426
20041SOL     OW71776   0.252   2.873   1.989  0.4070  0.0964  0.0642
20041SOL    HW171777   0.349   2.882   2.009  0.4615 -1.0837  0.3864
20041SOL    HW271778   0.201   2.870   2.075  0.1495  0.0679 -0.0887
20042SOL     OW71779   9.728   4.311   7.807 -0.0183 -0.2581 -0.6887
20042SOL    HW171780   9.767   4.231   7.762  1.1049 -1.4094  2.2167
20042SOL    HW271781   9.662   4.281   7.876  0.2988  1.3228  0.3171
20043SOL     OW71782   0.053   6.643   4.774 -0.1255 -0.2821 -0.2187
20043SOL    HW171783   0.149   6.633   4.802  0.6800  1.0111 -2.3369
20043SOL    HW271784   0.023   6.559   4.729  0.8950  0.2380 -1.9330
20044SOL     OW71785   9.847   4.257   5.033 -0.2086  0.1318 -0.0142
20044SOL    HW171786   9.750   4.277   5.018 -0.4414 -0.0777  1.1872
20044SOL    HW271787   9.885   4.322   5.098  0.2874 -0.2002  0.0333
20045SOL     OW71788   5.002   6.336   8.205 -0.1634 -0.0203  0.3148
20045SOL    HW171789   5.043   6.407   8.262  0.4837  1.0134 -1.4128
20045SOL    HW271790   4.939   6.377   8.139  0.0469 -1.0619 -0.5614
20046SOL     OW71791   7.663   5.992   0.359  0.0560 -0.1861  0.6341
20046SOL    HW171792   7.742   5.999   0.420 -0.0257 -1.5992  0.9097
20046SOL    HW271793   7.649   5.897   0.332 -0.0549  0.3778 -1.4136
20047SOL     OW71794   8.941   3.973   6.334  0.2769 -0.5282  0.3380
20047SOL    HW171795   8.872   3.901   6.339 -1.4403  1.1557  1.4092
20047SOL    HW271796   8.976   3.980   6.240  0.1625 -2.4504  0.1415
20048SOL     OW71797   0.993   0.653   8.127  0.0885 -0.6991 -0.0153
20048SOL    HW171798   1.068   0.645   8.192 -1.4381 -1.3442  1.7208
20048SOL    HW271799   0.949   0.564   8.115 -0.5154 -0.2976 -0.8675
20049SOL     OW71800   3.681   4.298   2.355 -0.3818 -0.1312 -0.0661
20049SOL    HW171801   3.742   4.341   2.421 -0.8426  1.1678 -0.4599
20049SOL    HW271802   3.716   4.208   2.330  0.3647 -0.1775  1.1289
20050SOL     OW71803   6.587   9.842   6.056  0.2313 -0.4368  0.2356
20050SOL    HW171804   6.584   9.743   6.065  1.5334 -0.4093  1.1522
20050SOL    HW271805   6.546   9.869   5.969 -0.5781 -1.7331  0.2017
20051SOL     OW71806   2.277   6.116   4.042 -0.3207  0.1166 -0.3783
20051SOL    HW171807   2.298   6.198   3.988  1.9101 -0.8005 -0.9729
20051SOL    HW271808   2.228   6.050   3.986 -1.5589  0.7707 -0.0836
20052SOL     OW71809   1.172   2.749   5.512  0.0471  0.2006  0.0893
20052SOL    HW171810   1.208   2.658   5.492 -1.1067 -0.2560  0.0707
20052SOL    HW271811   1.197   2.776   5.605 -1.1490 -0.8956  0.7431
20053SOL     OW71812   2.953   8.444   5.047  0.2520 -0.0249  0.2984
20053SOL    HW171813   2.953   8.527   5.104 -0.3354  0.1415  0.0532
20053SOL    HW271814   3.041   8.437   4.999 -0.0166  0.8952 -0.3293
20054SOL     OW71815   7.479   1.789   7.538 -0.4642  0.1072  0.2380
20054SOL    HW171816   7.520   1.700   7.560 -1.0061 -0.8195 -2.3540
20054SOL    HW271817   7.530   1.832   7.464 -1.0891  1.2959  0.4892
20055SOL     OW71818   0.007   6.247   4.919 -0.0997 -0.2612  0.5883
20055SOL    HW171819  -0.051   6.307   4.864 -1.3223 -1.6280  0.3159
20055SOL    HW271820  -0.000   6.272   5.015  0.8088  1.1486  0.2906
20056SOL     OW71821   3.546   4.318   6.503 -0.2117 -0.5943  0.4411
20056SOL    HW171822   3.611   4.376   6.552 -0.6197 -0.9011  1.3455
20056SOL    HW271823   3.559   4.223   6.532 -0.8487 -0.6970  0.3812
20057SOL     OW71824   5.892   9.819   6.050 -0.4261 -0.0660  0.1433
20057SOL    HW171825   5.821   9.829   6.120 -1.3123 -1.3027 -0.5537
20057SOL    HW271826   5.850   9.795   5.963  0.6059  2.2574 -1.0295
20058SOL     OW71827   5.185   6.574   0.647  0.4832 -0.1070  0.7376
20058SOL    HW171828   5.100   6.534   0.681  0.2822 -0.1339  0.2196
20058SOL    HW271829   5.245   6.502   0.613 -0.1888  0.0682 -0.8820
20059SOL     OW71830   1.398   2.455   1.410 -0.4104 -0.1298 -0.4584
20059SOL    HW171831   1.360   2.428   1.321  1.5457 -0.1907 -1.2904
20059SOL    HW271832   1.427   2.374   1.460 -1.1252 -0.0627  0.0751
20060SOL     OW71833   3.612   2.027   0.839  0.4133 -0.3807 -0.2977
20060SOL    HW171834   3.557   1.947   0.816 -0.4807 -0.1644  1.0032
20060SOL    HW271835   3.649   2.068   0.756  0.0437 -1.5471 -1.0465
20061SOL     OW71836   2.215   9.846   5.099  0.4077  0.0693 -0.1932
20061SOL    HW171837   2.217   9.751   5.130  0.2274  0.3311  0.6407
20061SOL    HW271838   2.294   9.895   5.136 -0.4436  0.6862  0.8382
20062SOL     OW71839   9.744   4.151   3.578 -0.6605 -0.3549  0.2969
20062SOL    HW171840   9.704   4.156   3.669 -0.1662  0.7199  0.4604
20062SOL    HW271841   9.843   4.158   3.584 -0.6145 -0.4446 -0.3117
20063SOL     OW71842   1.408   6.749   8.074 -0.0097 -0.4819 -0.5620
20063SOL    HW171843   1.424   6.714   7.982 -2.0459  2.5571 -2.1603
20063SOL    HW271844   1.387   6.847   8.069  0.9894 -0.0031  3.2550
20064SOL     OW71845   4.905   5.168   2.342 -0.7894  0.1819  0.1541
20064SOL    HW171846   4.949   5.121   2.266 -0.5389  0.2071  0.2825
20064SOL    HW271847   4.965   5.241   2.374 -1.1998  0.6267 -0.0826
20065SOL     OW71848   9.112   7.859   1.743  0.0045 -0.5684  0.1606
20065SOL    HW171849   9.167   7.809   1.676  1.1120  0.5285  0.2249
20065SOL    HW271850   9.150   7.846   1.834  1.0843  1.3667  0.0295
20066SOL     OW71851   0.189   3.900   6.335  0.1475  0.1866 -0.1896
20066SOL    HW171852   0.155   3.876   6.244  3.3574 -3.8250 -0.5017
20066SOL    HW271853   0.264   3.965   6.328  1.0717 -0.8940 -0.5709
20067SOL     OW71854   3.006   5.554   3.566  0.0734  0.2184  0.0025
20067SOL    HW171855   2.919   5.516   3.536  0.6311 -1.2590  0.2262
20067SOL    HW271856   3.078   5.526   3.501  0.4002  1.3630 -0.1416
20068SOL     OW71857   5.021   5.916   2.219 -0.0078  0.7436 -0.2338
20068SOL    HW171858   4.949   5.981   2.194  0.3620  0.9233 -0.8514
20068SOL    HW271859   4.982   5.845   2.278 -0.3535  1.6552  0.6546
20069SOL     OW71860   8.178   1.302   5.143  0.3884  0.4389 -0.7792
20069SOL    HW171861   8.177   1.210   5.105 -0.5090  0.2019 -0.2045
20069SOL    HW271862   8.206   1.299   5.238 -0.9025  0.5976 -0.3823
20070SOL     OW71863   0.951   3.874   7.793  0.1755 -0.1665  0.2562
20070SOL    HW171864   0.895   3.952   7.820  0.7630  0.3377  0.0170
20070SOL    HW271865   0.953   3.808   7.868 -2.3323 -1.1030 -0.4333
20071SOL     OW71866   9.140   9.196   5.868  0.0080 -0.1210 -0.0683
20071SOL    HW171867   9.140   9.178   5.966  1.1004 -1.1574 -0.2509
20071SOL    HW271868   9.121   9.293   5.852  0.4879  0.1917  1.1998
20072SOL     OW71869   0.453   8.339   7.623  0.0280 -0.4288 -0.0208
20072SOL    HW171870   0.497   8.377   7.705  0.5572  2.9788 -1.7631
20072SOL    HW271871   0.357   8.367   7.621  0.4580  1.0762 -1.3985
20073SOL     OW71872   1.835   6.020   2.029 -0.2882  0.1271 -0.0603
20073SOL    HW171873   1.841   6.120   2.034  0.6032  0.0590  0.2653
20073SOL    HW271874   1.916   5.980   2.070 -1.5012 -0.7744  1.4698
20074SOL     OW71875   9.521   7.273   5.422 -0.0190 -0.2708  0.4106
20074SOL    HW171876   9.441   7.231   5.379 -0.5239 -0.8256  1.8438
20074SOL    HW271877   9.602   7.216   5.404 -0.1322 -0.2491 -0.1856
20075SOL     OW71878   3.133   6.462   6.455 -0.2906 -0.4150  0.4359
20075SOL    HW171879   3.044   6.431   6.489 -0.9229  0.7440 -0.1450
20075SOL    HW271880   3.119   6.525   6.379  1.0328 -0.1463  0.4148
20076SOL     OW71881   1.767   5.878   2.848 -0.1628 -0.1291 -0.6349
20076SOL    HW171882   1.762   5.855   2.751  0.3019 -1.4509 -0.3460
20076SOL    HW271883   1.821   5.810   2.896  2.1865  2.1184  0.0445
20077SOL     OW71884   2.355   6.458   5.895  0.1064  0.0706  0.6333
20077SOL    HW171885   2.260   6.460   5.863 -0.0033  0.3494  0.9725
20077SOL    HW271886   2.385   6.363   5.905  0.4405 -0.0165 -1.1686
20078SOL     OW71887   9.949   6.252   6.601 -0.4998  0.1899  0.1334
20078SOL    HW171888   9.920   6.298   6.685 -0.4447 -0.7962  0.7054
20078SOL    HW271889   9.880   6.265   6.530 -0.8642  0.4706  0.5362
20079SOL     OW71890   9.030   7.135   6.451  0.4275  0.7059  0.2581
20079SOL    HW171891   9.094   7.119   6.526 -0.0541 -1.0589  0.3220
20079SOL    HW271892   8.949   7.079   6.464 -0.5945  1.9725 -0.4880
20080SOL     OW71893   9.623   9.297   2.053  0.2111 -0.0676  0.6305
20080SOL    HW171894   9.591   9.315   2.146 -0.3076 -3.0393  1.0724
20080SOL    HW271895   9.597   9.205   2.026  1.2750  0.3836 -2.0981
20081SOL     OW71896   5.222   0.714   1.958  0.0003 -0.3606  0.6926
20081SOL    HW171897   5.133   0.677   1.983 -0.2447  0.5712  1.2266
20081SOL    HW271898   5.285   0.639   1.937 -1.5298 -0.9850 -1.9037
20082SOL     OW71899   7.842   9.607   1.847  0.1229 -0.6459  0.5782
20082SOL    HW171900   7.823   9.705   1.853 -1.0607 -0.7744 -0.6944
20082SOL    HW271901   7.890   9.587   1.761 -0.4110 -1.2802  0.4167
20083SOL     OW71902   8.611   5.410   3.958 -0.1418 -0.8014 -0.3141
20083SOL    HW171903   8.535   5.372   3.905 -0.5344 -1.0819  0.4479
20083SOL    HW271904   8.681   5.340   3.970 -0.2674 -0.8844 -0.0561
20084SOL     OW71905   0.447   2.994   5.815 -0.2901 -0.3109 -0.1977
20084SOL    HW171906   0.437   3.033   5.907  1.0852  0.0007 -0.1744
20084SOL    HW271907   0.380   3.037   5.754 -0.4299  0.3122  0.3869
20085SOL     OW71908   2.690   2.036   6.133 -0.1569  0.9130  0.0000
20085SOL    HW171909   2.600   1.998   6.114  0.8370 -0.9279 -1.3006
20085SOL    HW271910   2.726   2.081   6.050  0.0936  1.6848  0.5223
20086SOL     OW71911   4.776   9.760   3.186  0.5618 -0.0119  0.2766
20086SOL    HW171912   4.831   9.678   3.181 -0.3128 -0.6932  1.5701
20086SOL    HW271913   4.679   9.737   3.172  0.1438  0.5732  2.0665
20087SOL     OW71914   3.542   2.937   5.337 -1.0372  0.5157 -0.0281
20087SOL    HW171915   3.536   3.037   5.343 -1.8147  0.4362  0.5764
20087SOL    HW271916   3.494   2.907   5.255 -1.9829  0.5313  0.5165
20088SOL     OW71917   2.732   1.927   2.238  0.1662 -0.2666 -0.3632
20088SOL    HW171918   2.667   1.884   2.301  1.5493 -2.3340 -0.3121
20088SOL    HW271919   2.811   1.961   2.289  0.9972 -1.3764 -0.8932
20089SOL     OW71920   0.294   2.274   7.695  0.5078 -0.2169 -0.1340
20089SOL    HW171921   0.244   2.303   7.613 -0.8236 -3.5385 -0.5940
20089SOL    HW271922   0.375   2.223   7.668  1.0774  0.2635  0.6549
20090SOL     OW71923   2.666   2.834   3.244  0.3561  0.4892 -0.1413
20090SOL    HW171924   2.601   2.905   3.216  0.6916  1.5701  1.6658
20090SOL    HW271925   2.723   2.870   3.319  0.2450 -1.8396  1.0914
20091SOL     OW71926   8.235   5.991   0.586 -0.1708  0.5438 -0.1507
20091SOL    HW171927   8.183   5.907   0.603 -0.2781  0.6856  0.2459
20091SOL    HW271928   8.210   6.029   0.497 -2.6242  1.9665  1.0923
20092SOL     OW71929   5.739   0.203   5.446  0.5069  0.7330  0.0846
20092SOL    HW171930   5.792   0.182   5.527 -0.2349  1.6785  0.8350
20092SOL    HW271931   5.757   0.298   5.418  0.4441  0.5462 -0.5976
20093SOL     OW71932   9.526   5.909   7.399  0.5398  0.4107  0.1051
20093SOL    HW171933   9.563   5.960   7.477 -2.7757  2.9356  0.1253
20093SOL    HW271934   9.438   5.869   7.424  0.9231 -1.4167 -1.4048
20094SOL     OW71935   9.177   3.216   1.714  0.2897  0.1537  0.4585
20094SOL    HW171936   9.083   3.189   1.694  1.1889 -2.1932 -0.7203
20094SOL    HW271937   9.194   3.308   1.677 -0.7188 -0.5267 -1.7247
20095SOL     OW71938   9.701   3.760   2.208  0.5790 -0.5364  0.2990
20095SOL    HW171939   9.627   3.827   2.199  1.3978  0.3010 -0.3269
20095SOL    HW271940   9.663   3.673   2.240 -1.0500 -0.8009 -2.1838
20096SOL     OW71941   8.592   5.288   7.396  0.0022  0.2372 -0.1387
20096SOL    HW171942   8.547   5.328   7.476  0.9648  0.0977  0.4751
20096SOL    HW271943   8.640   5.359   7.346  0.1038  0.1825 -0.1198
20097SOL     OW71944   3.903   8.841   3.200  0.1829  0.4717 -0.0573
20097SOL    HW171945   3.855   8.828   3.113  1.6662 -0.8135 -0.7132
20097SOL    HW271946   3.947   8.930   3.201 -0.4751  0.8000 -0.3245
20098SOL     OW71947   5.632   8.772   5.721  0.4579 -0.5178 -0.2386
20098SOL    HW171948   5.538   8.757   5.751 -0.0636  0.7242 -1.1949
20098SOL    HW271949   5.686   8.808   5.797 -0.1221 -0.1488  0.0053
20099SOL     OW71950   1.728   5.460   0.904  0.0219  0.1305 -0.1238
20099SOL    HW171951   1.817   5.420   0.927  0.6882  1.4711 -0.3208
20099SOL    HW271952   1.738   5.559   0.890 -1.3258  0.1539 -1.0614
20100SOL     OW71953   0.113   6.708   1.087  0.0224 -0.4358 -0.2911
20100SOL    HW171954   0.148   6.755   1.006  0.2901 -0.6495 -0.2993
20100SOL    HW271955   0.123   6.609   1.074  0.5241 -0.4522  0.2182
20101SOL     OW71956   7.385   0.588   6.674  0.5355 -0.5343 -0.3749
20101SOL    HW171957   7.385   0.639   6.760 -0.2714 -0.3630 -0.4703
20101SOL    HW271958   7.413   0.648   6.599 -0.6117 -0.1641 -0.5186
20102SOL     OW71959   9.279   8.631   1.585  0.4858  0.5560  0.1883
20102SOL    HW171960   9.213   8.560   1.613  1.3162 -0.5331 -0.5917
20102SOL    HW271961   9.238   8.688   1.514 -0.6869  1.7358  1.7536
20103SOL     OW71962   5.954   8.952   4.548  0.1488 -0.0439 -0.6647
20103SOL    HW171963   5.890   9.015   4.503  0.5754  0.8867  0.0182
20103SOL    HW271964   5.912   8.861   4.556  0.2745 -0.3909 -3.4546
20104SOL     OW71965   1.820   9.275   4.690  0.3576  0.0201  0.2855
20104SOL    HW171966   1.764   9.335   4.746 -0.2205  0.0546 -0.3251
20104SOL    HW271967   1.810   9.299   4.593  1.4628  0.0579  0.1738
20105SOL     OW71968   9.961   8.362   2.660  0.3319  0.1997 -0.1879
20105SOL    HW171969   9.904   8.294   2.613  0.8530 -0.4512  0.1117
20105SOL    HW271970  10.038   8.387   2.602  0.5310  0.0032 -0.0081
20106SOL     OW71971   0.096   1.441   7.282 -0.2118 -0.2955  0.6539
20106SOL    HW171972   0.114   1.537   7.304 -0.5276 -0.1595  0.3329
20106SOL    HW271973   0.164   1.408   7.217  0.2573 -0.4683  1.2269
20107SOL     OW71974   3.106   6.894   5.084  0.1684 -0.5459 -0.4157
20107SOL    HW171975   3.031   6.870   5.022 -0.4921  0.6043 -0.0939
20107SOL    HW271976   3.185   6.923   5.031 -0.1780 -0.1834 -0.7385
20108SOL     OW71977   0.020   0.225   5.525  0.1956 -0.4134 -0.1563
20108SOL    HW171978   0.036   0.193   5.618 -2.0564 -0.4195  0.2627
20108SOL    HW271979   0.017   0.325   5.524 -1.7136 -0.4459  0.1547
20109SOL     OW71980   7.116   7.133   6.539 -0.3905 -0.2582  0.3774
20109SOL    HW171981   7.190   7.076   6.575 -0.6785 -1.0885 -0.3211
20109SOL    HW271982   7.046   7.144   6.610  0.5396  0.7909  1.1420
20110SOL     OW71983   1.119   5.688   2.411 -0.3283 -0.5534 -0.5466
20110SOL    HW171984   1.069   5.704   2.496  0.7998  2.1567 -0.3253
20110SOL    HW271985   1.216   5.677   2.431 -0.3432 -2.2366 -1.3000
20111SOL     OW71986   1.572   1.744   3.953 -0.4084 -0.2017  0.0989
20111SOL    HW171987   1.484   1.697   3.956 -0.0415 -0.8270  1.2938
20111SOL    HW271988   1.558   1.842   3.964 -1.1159 -0.0798 -1.7050
20112SOL     OW71989   7.761   2.834   6.304  0.5510 -0.2845 -0.3112
20112SOL    HW171990   7.708   2.915   6.280  0.0015  0.0655  1.9596
20112SOL    HW271991   7.712   2.752   6.274 -0.7360  0.0779  0.7586
20113SOL     OW71992   1.279   2.780   5.192  0.5877  0.0276  0.4132
20113SOL    HW171993   1.219   2.831   5.131 -0.5147 -2.1676 -0.4092
20113SOL    HW271994   1.231   2.762   5.278  0.4595 -0.7762  0.1788
20114SOL     OW71995   9.578   8.224   0.104  0.0904 -0.1700  0.0099
20114SOL    HW171996   9.638   8.144   0.105 -0.6006 -0.6908  0.2561
20114SOL    HW271997   9.629   8.305   0.132  0.6190 -0.6491  0.4396
20115SOL     OW71998   6.103   0.905   5.773  0.0870  0.2754 -0.4215
20115SOL    HW171999   6.104   1.001   5.748  1.7612  0.1582 -0.9214
20115SOL    HW272000   6.162   0.854   5.710 -0.1945 -0.9430  0.2829
20116SOL     OW72001   5.846   0.016   4.444  0.6460 -0.3734 -0.6124
20116SOL    HW172002   5.837   0.069   4.528 -1.6868 -2.9144  0.8265
20116SOL    HW272003   5.829   0.075   4.365 -0.1543  1.3762  0.8316
20117SOL     OW72004   8.038   0.170   5.292 -0.2698  0.0606  0.2228
20117SOL    HW172005   8.131   0.132   5.288 -0.0505  0.7366 -2.8178
20117SOL    HW272006   7.972   0.097   5.277 -0.0543  0.1108 -1.0400
20118SOL     OW72007   1.443   2.667   6.745  0.0627 -0.6585 -0.6158
20118SOL    HW172008   1.510   2.742   6.744 -2.2008  1.4142 -1.1856
20118SOL    HW272009   1.454   2.614   6.829  0.0055  1.9315  1.0901
20119SOL     OW72010   9.741   2.556   1.942 -0.7925 -0.6866  0.4338
20119SOL    HW172011   9.769   2.651   1.956 -1.7997 -0.3679  0.3191
20119SOL    HW272012   9.704   2.519   2.027 -1.9422 -0.4426  0.0513
20120SOL     OW72013   9.132   5.312   3.209  0.0259 -0.1694  0.2235
20120SOL    HW172014   9.227   5.283   3.213 -0.0160 -0.3197  0.1422
20120SOL    HW272015   9.082   5.256   3.143  0.1530  0.6981 -0.6113
20121SOL     OW72016   7.756   0.933   1.348  0.1337 -0.2599 -0.4632
20121SOL    HW172017   7.756   0.866   1.422  0.6461 -0.3032 -0.5003
20121SOL    HW272018   7.784   0.888   1.263 -0.2699 -0.1684 -0.6458
20122SOL     OW72019   5.399   0.217   4.883 -0.3376  0.8189 -0.4723
20122SOL    HW172020   5.423   0.245   4.790  2.3721  0.1239 -0.0360
20122SOL    HW272021   5.403   0.117   4.889  1.5839  0.9345  0.8572
20123SOL     OW72022   5.331   1.367   7.972  0.1379 -0.7480  0.4384
20123SOL    HW172023   5.241   1.349   8.012 -0.5584 -1.9746 -1.6474
20123SOL    HW272024   5.368   1.452   8.011 -0.7823 -1.5808  3.1893
20124SOL     OW72025   8.038   0.473   4.405  0.2309 -0.0020 -0.0849
20124SOL    HW172026   7.959   0.497   4.348  1.1807  0.8928 -1.0436
20124SOL    HW272027   8.045   0.374   4.412 -0.9555 -0.0942 -0.0160
20125SOL     OW72028   7.925   2.582   6.085  0.0946 -0.0313  0.0622
20125SOL    HW172029   7.951   2.579   5.989 -2.7692  1.1249 -0.8073
20125SOL    HW272030   7.884   2.495   6.112  0.9470 -0.3740  0.2700
20126SOL     OW72031   3.370   5.028   1.741 -0.2570 -0.0267  0.4176
20126SOL    HW172032   3.301   4.962   1.710  0.5965 -1.4463  1.4633
20126SOL    HW272033   3.373   5.105   1.677 -1.3700 -0.9286 -0.7607
20127SOL     OW72034   2.035   2.792   1.857 -0.5279 -0.4717 -0.1541
20127SOL    HW172035   1.999   2.876   1.815  1.4402 -0.3117 -1.5979
20127SOL    HW272036   2.114   2.815   1.914 -0.1200 -1.3117 -0.3721
20128SOL     OW72037   0.578   5.997   1.331 -0.2494 -0.2730  0.1661
20128SOL    HW172038   0.617   5.945   1.255 -1.7558 -0.5653 -0.4211
20128SOL    HW272039   0.500   5.947   1.369 -1.3392  1.2638 -0.0071
20129SOL     OW72040   4.356   7.904   2.127 -0.7267  0.2971 -0.3662
20129SOL    HW172041   4.315   7.824   2.082 -1.2320  0.3987 -0.0803
20129SOL    HW272042   4.456   7.897   2.121 -0.7789 -0.0450 -0.8892
20130SOL     OW72043   6.166   0.900   2.396 -0.0421 -0.7979 -0.4147
20130SOL    HW172044   6.195   0.860   2.309 -0.4938 -1.1163 -0.4182
20130SOL    HW272045   6.074   0.938   2.387 -0.1261 -0.9076 -0.0506
20131SOL     OW72046   4.362   7.772   3.929 -0.1278  0.0358 -0.0930
20131SOL    HW172047   4.335   7.783   3.833 -0.1395  0.4860 -0.0359
20131SOL    HW272048   4.305   7.829   3.987 -1.0073 -1.2316  0.3222
20132SOL     OW72049   5.876   4.557   1.381  0.3273  0.3085  0.5113
20132SOL    HW172050   5.795   4.535   1.435  0.1095  2.3955  1.0687
20132SOL    HW272051   5.913   4.645   1.409  4.0696 -1.5348  1.7107
20133SOL     OW72052   7.304   6.108   7.701  0.0051  0.4427  0.0341
20133SOL    HW172053   7.220   6.159   7.719 -1.5713 -2.1195  0.1906
20133SOL    HW272054   7.369   6.123   7.775 -1.2015  0.6560  1.0601
20134SOL     OW72055   3.246   5.092   0.102 -0.3434 -0.3558  0.3477
20134SOL    HW172056   3.221   5.047   0.016 -0.2621  2.4450 -1.1750
20134SOL    HW272057   3.165   5.131   0.145 -0.3266 -1.4269  1.3985
20135SOL     OW72058   7.774   1.166   1.510 -0.1930  0.2693 -0.3353
20135SOL    HW172059   7.758   1.083   1.458 -0.7469  0.4190 -0.4031
20135SOL    HW272060   7.826   1.144   1.593  1.7563  0.2094 -1.5388
20136SOL     OW72061   4.999   6.425   0.792  0.4905 -0.0640  0.1013
20136SOL    HW172062   4.938   6.487   0.842  0.1984  0.3043 -0.6956
20136SOL    HW272063   5.006   6.339   0.841  0.9833  0.6334  1.2813
20137SOL     OW72064   1.692   9.895   4.493 -0.2447 -0.2633  0.2120
20137SOL    HW172065   1.592   9.888   4.491 -0.1685 -1.5336  0.5147
20137SOL    HW272066   1.732   9.803   4.494  1.0088  0.1417 -3.2840
20138SOL     OW72067   7.366   3.225   3.715 -0.5717 -0.2187  0.0180
20138SOL    HW172068   7.374   3.166   3.634 -1.5558 -0.4051  0.0443
20138SOL    HW272069   7.305   3.181   3.782 -0.7669  0.5087  0.3240
20139SOL     OW72070   6.366   0.571   3.653 -0.1794 -0.2591  0.5995
20139SOL    HW172071   6.411   0.660   3.656  0.7814 -0.7598  1.4586
20139SOL    HW272072   6.268   0.584   3.638  0.0284  0.9112  0.1807
20140SOL     OW72073   6.428   0.483   2.427 -0.1957  0.3762  0.0063
20140SOL    HW172074   6.424   0.385   2.448 -1.3470  0.6494  1.1317
20140SOL    HW272075   6.508   0.524   2.472  0.1164  0.0156 -0.2163
20141SOL     OW72076   2.865   9.989   6.994  0.4050 -0.0029 -0.3210
20141SOL    HW172077   2.817  10.077   7.000  0.2516 -0.1191  0.1631
20141SOL    HW272078   2.893   9.973   6.899 -0.4248  0.1213 -0.5937
20142SOL     OW72079   0.276   8.743   6.381 -0.3373  0.2314  0.3118
20142SOL    HW172080   0.246   8.661   6.430 -0.5969 -0.7328 -1.4269
20142SOL    HW272081   0.262   8.730   6.283  0.2889  2.0880 -0.0385
20143SOL     OW72082   2.664   6.882   5.672  0.4930 -0.3629 -0.6228
20143SOL    HW172083   2.622   6.963   5.631  0.7166 -0.0638 -0.2586
20143SOL    HW272084   2.596   6.833   5.725  0.8310  0.6688  0.8041
20144SOL     OW72085   2.863   9.914   0.810 -0.1079  0.0444 -0.0610
20144SOL    HW172086   2.810   9.829   0.798  3.2957 -2.4187  1.6128
20144SOL    HW272087   2.961   9.893   0.809  0.8309  3.9743  0.6477
20145SOL     OW72088   1.835   5.166   5.625 -1.0930 -0.1587  0.0878
20145SOL    HW172089   1.830   5.216   5.711 -0.9253  0.7179 -0.4025
20145SOL    HW272090   1.830   5.067   5.643 -0.5286 -0.0003  1.1350
20146SOL     OW72091   0.605   4.906   1.043  0.2845 -0.1004 -0.1905
20146SOL    HW172092   0.507   4.891   1.062  0.4061  0.3303  0.8449
20146SOL    HW272093   0.656   4.822   1.064  0.4508  0.4540  1.7150
20147SOL     OW72094   9.301   5.109   1.593 -0.1110 -0.2441  0.2198
20147SOL    HW172095   9.346   5.047   1.529  1.4817 -0.4748  1.5331
20147SOL    HW272096   9.245   5.175   1.542  0.0258 -1.2816 -1.3133
20148SOL     OW72097   3.320   5.844   0.879 -0.4002  0.1018  0.3391
20148SOL    HW172098   3.410   5.801   0.889 -0.8813 -0.6172  1.7255
20148SOL    HW272099   3.330   5.935   0.840  0.8800 -0.2030 -0.0520
20149SOL     OW72100   4.560   9.262   5.069 -0.1846 -0.0991  0.0977
20149SOL    HW172101   4.554   9.239   4.972 -1.3071 -2.9752  0.7862
20149SOL    HW272102   4.644   9.225   5.107 -0.6052 -0.5391  0.6055
20150SOL     OW72103   1.131   2.533   6.858  0.7990 -0.2036  0.2753
20150SOL    HW172104   1.079   2.451   6.880 -0.2844  0.3146 -0.3437
20150SOL    HW272105   1.188   2.517   6.777  0.7346 -0.4008  0.2719
20151SOL     OW72106   2.965   8.274   4.679 -0.2181  0.5486 -0.0392
20151SOL    HW172107   2.903   8.257   4.755 -0.6680 -0.8252 -0.6976
20151SOL    HW272108   2.928   8.233   4.596  1.8758 -0.8295 -0.3218
20152SOL     OW72109   3.912   7.644   2.306  0.2128  0.1250 -0.6707
20152SOL    HW172110   3.839   7.628   2.240  1.3620 -0.5222 -1.8014
20152SOL    HW272111   3.961   7.728   2.282  1.2640 -0.6414 -1.2291
20153SOL     OW72112   1.217   1.443   2.867  0.9141  0.0328  0.4276
20153SOL    HW172113   1.153   1.462   2.793 -0.0816  0.7654  1.4719
20153SOL    HW272114   1.208   1.513   2.938  0.2183 -1.9485  2.3426
20154SOL     OW72115   9.735   6.254   1.062  0.6938 -0.1883 -0.2440
20154SOL    HW172116   9.775   6.193   1.130 -0.6092 -2.9948 -1.9364
20154SOL    HW272117   9.651   6.294   1.099  1.0619 -0.1276  0.5326
20155SOL     OW72118   8.450   8.022   3.317  0.5499  0.3500 -0.2109
20155SOL    HW172119   8.455   8.005   3.416 -0.2234 -0.3829 -0.2884
20155SOL    HW272120   8.523   8.084   3.290  2.6468 -1.8102  0.3327
20156SOL     OW72121   2.246   0.572   4.815 -0.1807 -0.8728 -0.4889
20156SOL    HW172122   2.236   0.475   4.837  3.6127 -0.3765  4.3302
20156SOL    HW272123   2.337   0.588   4.777 -0.0359  1.0498  0.6144
20157SOL     OW72124   9.823   6.005   2.192  0.4042 -0.1884 -0.4715
20157SOL    HW172125   9.824   5.905   2.194  0.4540 -0.2049 -1.2655
20157SOL    HW272126   9.770   6.036   2.113 -1.6200  0.4235  1.1018
20158SOL     OW72127   4.523   3.121   6.802  0.1220 -0.2545 -0.2690
20158SOL    HW172128   4.537   3.034   6.755  1.4519  0.5028 -1.3252
20158SOL    HW272129   4.590   3.130   6.877  0.6271  0.2744 -0.7800
20159SOL     OW72130   5.003   5.625   1.542  0.2189 -0.0499  0.1694
20159SOL    HW172131   4.929   5.626   1.610 -0.8756 -1.0536 -0.9631
20159SOL    HW272132   4.990   5.547   1.481  2.5797 -0.5813  0.3087
20160SOL     OW72133   3.271   2.535   6.031 -0.0447  0.0064 -0.5543
20160SOL    HW172134   3.262   2.509   5.935 -0.5089  0.1706 -0.5602
20160SOL    HW272135   3.281   2.453   6.087 -1.1490 -0.1746 -0.6037
20161SOL     OW72136   6.345   7.668   4.741 -0.2209 -0.1870 -0.5496
20161SOL    HW172137   6.386   7.755   4.714  0.8695 -0.7945 -0.8892
20161SOL    HW272138   6.365   7.650   4.837  1.1940 -0.9469 -0.9622
20162SOL     OW72139   3.966   2.285   6.041 -0.0435 -0.0096  0.3427
20162SOL    HW172140   3.915   2.328   6.116 -1.1652  1.3280 -1.1555
20162SOL    HW272141   3.977   2.351   5.967 -1.8835 -2.3430 -2.0866
20163SOL     OW72142   8.877   2.743   7.750  0.2816 -0.3717  0.9453
20163SOL    HW172143   8.939   2.792   7.813 -0.9979  1.8497  0.5462
20163SOL    HW272144   8.786   2.738   7.791  0.4206 -2.6190  1.0370
20164SOL     OW72145   2.024   4.083   2.506 -0.0671  0.2350  0.2770
20164SOL    HW172146   2.026   3.990   2.468  0.4314  0.9416 -1.4946
20164SOL    HW272147   2.114   4.124   2.497 -0.0928  0.6172  1.7779
20165SOL     OW72148   5.358   9.738   5.485 -0.2528  0.3187  0.6593
20165SOL    HW172149   5.333   9.745   5.581 -0.4044  2.8220  0.4767
20165SOL    HW272150   5.448   9.779   5.471  2.2162 -4.7677  0.5891
20166SOL     OW72151   3.193   9.862   4.370  0.7910  0.2676  0.3120
20166SOL    HW172152   3.256   9.935   4.397  0.7324  0.4980 -0.1634
20166SOL    HW272153   3.224   9.776   4.410  0.8616  0.5496  0.8795
20167SOL     OW72154   4.606   8.562   3.806 -1.5782 -0.7431  0.2542
20167SOL    HW172155   4.553   8.497   3.860 -1.3687 -0.5968  0.6399
20167SOL    HW272156   4.682   8.514   3.761 -0.5673 -0.5232  1.6931
20168SOL     OW72157   1.391   9.490   1.843  0.0902  0.4626 -0.5874
20168SOL    HW172158   1.385   9.425   1.918 -0.8969  0.2515 -0.8472
20168SOL    HW272159   1.420   9.579   1.878  1.7881 -0.1839 -0.2843
20169SOL     OW72160   8.676   9.654   1.507  0.0905  0.0205  0.5617
20169SOL    HW172161   8.747   9.597   1.466  2.9018  2.9880  1.1874
20169SOL    HW272162   8.623   9.698   1.434  0.8765  0.2185  0.1095
20170SOL     OW72163   5.222   9.899   1.607 -0.0718  0.3595 -0.3190
20170SOL    HW172164   5.243   9.947   1.522 -0.9224 -0.8430 -1.2141
20170SOL    HW272165   5.304   9.897   1.665  0.5747  0.9810 -1.2014
20171SOL     OW72166   5.700   7.043   2.504  0.5128 -0.6107  0.4028
20171SOL    HW172167   5.647   7.113   2.551  0.1431 -2.3305  2.5954
20171SOL    HW272168   5.638   6.981   2.455  0.5303 -2.0364  2.1539
20172SOL     OW72169   2.944   2.943   3.756  0.2930 -0.6243  0.2008
20172SOL    HW172170   2.872   2.980   3.698  0.2758 -0.2698  0.4505
20172SOL    HW272171   3.024   3.003   3.753  1.0233 -1.6431 -1.0342
20173SOL     OW72172   4.795   5.766   2.045  0.1274 -0.2118 -0.0518
20173SOL    HW172173   4.705   5.745   2.083  0.9478 -2.0924  0.9022
20173SOL    HW272174   4.860   5.781   2.119  0.7060  0.6548 -0.7322
20174SOL     OW72175   7.802   9.000   5.166 -0.3510  0.2557  0.1795
20174SOL    HW172176   7.707   9.018   5.137 -0.3054  0.6892  0.2997
20174SOL    HW272177   7.841   9.083   5.207 -0.0922 -0.0740  0.6057
20175SOL     OW72178   9.199   7.227   0.028  0.9170  0.2814  0.4629
20175SOL    HW172179   9.169   7.163   0.099  1.6096  0.1318  0.6246
20175SOL    HW272180   9.140   7.308   0.029  0.2024 -0.2265  0.4333
20176SOL     OW72181   9.191   6.903   4.361  0.2666 -0.2818 -0.1273
20176SOL    HW172182   9.202   7.002   4.367 -2.3796  0.2123 -2.6193
20176SOL    HW272183   9.196   6.863   4.452  0.9793  2.1851  0.9362
20177SOL     OW72184   9.145   5.092   0.627 -0.2241  0.2661 -0.1951
20177SOL    HW172185   9.188   5.123   0.711  0.6700 -0.2938 -0.4363
20177SOL    HW272186   9.103   5.002   0.642  0.6492 -0.2032 -0.5688
20178SOL     OW72187   0.689   0.732   4.228 -0.1064 -0.4110 -0.5156
20178SOL    HW172188   0.767   0.771   4.278  0.3105 -0.2626 -1.2788
20178SOL    HW272189   0.658   0.796   4.158 -0.5229 -0.7246 -0.6223
20179SOL     OW72190   0.908   0.684   1.591  0.0262 -0.0532 -0.0693
20179SOL    HW172191   0.880   0.770   1.548  0.6133  0.5814  0.8017
20179SOL    HW272192   0.982   0.701   1.656  0.2866 -1.2485 -0.0293
20180SOL     OW72193   0.807   8.455   6.072 -0.2314 -0.2751 -0.0299
20180SOL    HW172194   0.835   8.546   6.041  0.4802 -0.0307  1.2993
20180SOL    HW272195   0.885   8.393   6.067 -0.5346 -0.6393 -0.2647
20181SOL     OW72196   5.687   1.392   8.054 -0.0533  0.3482  0.2914
20181SOL    HW172197   5.672   1.316   7.990  0.5107  0.6777 -0.2408
20181SOL    HW272198   5.700   1.356   8.146  0.7547 -0.2387 -0.0448
20182SOL     OW72199   8.256   8.218   3.723  0.0017  0.3424 -0.2443
20182SOL    HW172200   8.243   8.288   3.653  0.6475  0.2693 -0.4473
20182SOL    HW272201   8.213   8.133   3.695  0.2213  0.3272 -0.5323
20183SOL     OW72202   0.786   7.861   6.892 -0.7528  0.0966  0.3189
20183SOL    HW172203   0.764   7.923   6.967 -1.6184  0.7743 -0.4701
20183SOL    HW272204   0.733   7.888   6.811  0.0262 -0.7346 -0.4714
20184SOL     OW72205   3.420   0.809   2.820  0.2048  0.1815 -0.3499
20184SOL    HW172206   3.368   0.724   2.814 -0.9372  0.7442  1.4891
20184SOL    HW272207   3.397   0.858   2.904  1.5449  1.8680 -0.9182
20185SOL     OW72208   7.545   6.496   5.208 -0.0476  0.1896  0.1798
20185SOL    HW172209   7.505   6.515   5.119  0.0923 -1.4541 -0.2547
20185SOL    HW272210   7.561   6.398   5.217 -1.6994  0.1081  2.6949
20186SOL     OW72211   0.387   3.069   1.741  0.6602 -0.7612  0.0978
20186SOL    HW172212   0.337   3.087   1.656  0.9945  0.2111  0.0980
20186SOL    HW272213   0.413   2.972   1.745  0.4951 -0.8472 -0.8237
20187SOL     OW72214   8.474   6.598   2.960  0.3139  0.4745 -0.1160
20187SOL    HW172215   8.419   6.677   2.935 -0.2722  0.4309  0.9909
20187SOL    HW272216   8.569   6.614   2.934  0.1862  1.5192  0.0412
20188SOL     OW72217   8.229   4.613   3.212 -0.6948 -0.2284  0.4377
20188SOL    HW172218   8.196   4.592   3.120  0.5738 -0.3932  0.0100
20188SOL    HW272219   8.234   4.712   3.224  0.0183 -0.2162  0.0124
20189SOL     OW72220   9.075   2.153   4.843 -0.2062  0.3228 -0.3035
20189SOL    HW172221   9.145   2.128   4.911 -0.2390 -2.2351 -1.1447
20189SOL    HW272222   9.004   2.206   4.887  0.6442  0.1780  1.3003
20190SOL     OW72223   2.332   1.519   2.961 -0.1040  0.1851 -0.0357
20190SOL    HW172224   2.277   1.441   2.992 -1.0285  0.7504 -0.2462
20190SOL    HW272225   2.272   1.593   2.932  0.7353  2.0411  2.7794
20191SOL     OW72226   3.493   0.272   0.119 -0.3139 -0.0182  0.8082
20191SOL    HW172227   3.431   0.313   0.186 -0.2387 -0.8409  1.3972
20191SOL    HW272228   3.588   0.285   0.150 -0.3284 -1.5707  1.5676
20192SOL     OW72229   9.625   9.053   0.698 -0.1274 -0.3994 -0.0680
20192SOL    HW172230   9.563   9.081   0.625 -2.2221  0.9806  2.1476
20192SOL    HW272231   9.590   8.969   0.741 -0.9439  0.7833  1.6606
20193SOL     OW72232   1.915   1.990   5.204 -0.9660 -0.0349 -0.1795
20193SOL    HW172233   1.826   1.993   5.249  0.1133 -0.2727  2.0322
20193SOL    HW272234   1.947   2.083   5.186 -0.9103  0.0805  0.5317
20194SOL     OW72235   0.286   3.091   5.128  0.3081 -0.4072 -0.7161
20194SOL    HW172236   0.373   3.063   5.169  1.1025 -0.2336 -2.2610
20194SOL    HW272237   0.278   3.190   5.131 -0.8456 -0.5356  1.4094
20195SOL     OW72238   2.377   8.510   1.362 -0.4067  0.2786 -0.1533
20195SOL    HW172239   2.391   8.535   1.266 -1.6130  0.7030 -0.2214
20195SOL    HW272240   2.459   8.465   1.397  0.1153  0.3125 -1.3257
20196SOL     OW72241   0.181   8.065   2.492  0.2599 -0.0118 -0.2423
20196SOL    HW172242   0.199   7.967   2.482  1.9861  0.2293  0.4232
20196SOL    HW272243   0.226   8.099   2.574 -0.5814  1.2963 -0.3081
20197SOL     OW72244   9.267   1.904   6.763  0.1087 -0.3052  0.8921
20197SOL    HW172245   9.205   1.936   6.834  1.5259  0.3383  1.8741
20197SOL    HW272246   9.354   1.954   6.770 -0.4043  1.2348 -2.5355
20198SOL     OW72247   3.083   5.223   6.808  0.2944 -0.2604  0.0305
20198SOL    HW172248   3.175   5.251   6.781 -0.7760  1.7508 -1.7088
20198SOL    HW272249   3.031   5.197   6.726 -1.0710 -0.1614  0.8511
20199SOL     OW72250   5.768   1.385   6.246  0.1743  0.1199  0.1576
20199SOL    HW172251   5.677   1.423   6.262  0.8629  1.3836  1.1755
20199SOL    HW272252   5.795   1.332   6.327  0.5141  0.0995  0.0284
20200SOL     OW72253   6.245   1.726   5.691  0.4071 -0.7603  0.3466
20200SOL    HW172254   6.196   1.691   5.771 -0.0209  0.3708  0.5920
20200SOL    HW272255   6.190   1.796   5.646  0.5522 -1.5442 -1.0793
20201SOL     OW72256   1.226   4.122   2.997 -0.5456 -0.0526  0.3539
20201SOL    HW172257   1.296   4.153   2.933  1.3372 -3.1781  0.7695
20201SOL    HW272258   1.158   4.067   2.949 -1.1051  0.5790  0.4266
20202SOL     OW72259   9.870   0.063   2.891 -0.0795  0.2488  0.2127
20202SOL    HW172260   9.946   0.128   2.879  0.5215 -0.5347 -0.2829
20202SOL    HW272261   9.867   0.033   2.987 -1.1267  1.9264  0.7283
20203SOL     OW72262   5.319   2.481   0.210 -0.1703  0.4673  0.3875
20203SOL    HW172263   5.252   2.553   0.196 -2.1958 -1.4542 -0.1169
20203SOL    HW272264   5.340   2.473   0.308 -0.4170  1.2908  0.5085
20204SOL     OW72265   3.724   8.220   3.454 -0.0458  0.2984  0.1693
20204SOL    HW172266   3.624   8.213   3.445  0.1763 -0.9824 -1.5515
20204SOL    HW272267   3.750   8.194   3.547 -1.3692  1.3825  0.8680
20205SOL     OW72268   0.118   8.330   5.137 -0.1758 -0.3798 -0.4170
20205SOL    HW172269   0.044   8.280   5.181  0.4685 -0.7967  0.1968
20205SOL    HW272270   0.129   8.419   5.181  0.7164 -0.9452  0.5289
20206SOL     OW72271   1.144   5.510   5.986 -0.3485  0.0353 -0.2190
20206SOL    HW172272   1.057   5.549   5.955 -1.5061 -1.4183  1.0630
20206SOL    HW272273   1.178   5.446   5.918  0.2409  1.3443 -1.1720
20207SOL     OW72274   2.222   1.366   5.266 -0.4503 -0.1454  0.5574
20207SOL    HW172275   2.204   1.298   5.338 -0.2213 -0.6440  0.1521
20207SOL    HW272276   2.170   1.342   5.185 -0.9023  0.5620  0.6426
20208SOL     OW72277   1.970   7.709   0.001 -0.0547  0.1704 -0.4700
20208SOL    HW172278   1.994   7.804   0.020  1.1619 -0.6890  2.7264
20208SOL    HW272279   1.885   7.686   0.049  1.0658 -1.0515  0.9754
20209SOL     OW72280   8.835   6.880   1.071 -0.3459  0.0809  0.4162
20209SOL    HW172281   8.780   6.877   0.987  0.0136  1.0760  0.1322
20209SOL    HW272282   8.905   6.809   1.068 -1.2112 -0.7827  0.4961
20210SOL     OW72283   2.904   5.692   1.489  0.6564  0.8852  0.0317
20210SOL    HW172284   2.827   5.633   1.513 -0.0313  0.8964 -2.0598
20210SOL    HW272285   2.879   5.787   1.505 -0.6360  1.0721 -2.7297
20211SOL     OW72286   4.644   5.922   1.199 -0.1846 -0.0340 -0.1101
20211SOL    HW172287   4.599   5.981   1.266  0.7041  0.2708  0.2249
20211SOL    HW272288   4.576   5.888   1.133 -0.8730  0.5345  0.3003
20212SOL     OW72289   1.549   0.018   7.255  0.1430 -0.1716 -0.1594
20212SOL    HW172290   1.466  -0.011   7.207 -0.1341  0.5547 -0.1193
20212SOL    HW272291   1.535   0.008   7.353  0.6705 -1.5518 -0.2097
20213SOL     OW72292   0.148   9.901   7.315 -0.5524  0.2379  0.2775
20213SOL    HW172293   0.241   9.879   7.343 -0.4216 -0.1641 -0.4436
20213SOL    HW272294   0.092   9.919   7.395  0.2930  1.0704  0.6983
20214SOL     OW72295   5.045   0.113   2.802 -0.1536  0.1396  0.2696
20214SOL    HW172296   5.114   0.083   2.736 -0.5916 -2.5002  0.9629
20214SOL    HW272297   5.084   0.113   2.894 -0.9684 -1.0710  0.6273
20215SOL     OW72298   8.216   6.506   0.574  0.3613 -0.2905 -0.4383
20215SOL    HW172299   8.262   6.430   0.527 -1.1906 -1.3872 -0.2370
20215SOL    HW272300   8.122   6.480   0.593  0.1231  1.3040  0.6065
20216SOL     OW72301   6.106   2.710   0.943 -0.0068 -0.3662 -0.2653
20216SOL    HW172302   6.197   2.717   0.984 -0.9291 -0.5660  1.8834
20216SOL    HW272303   6.037   2.703   1.015 -1.7052 -0.6499 -1.8678
20217SOL     OW72304   0.811   4.525   5.990  0.2969 -0.3062 -0.3180
20217SOL    HW172305   0.834   4.615   6.026 -0.0690  0.4852 -1.9967
20217SOL    HW272306   0.750   4.535   5.912 -3.8778 -2.2214  2.5165
20218SOL     OW72307   0.021   1.423   5.062  0.2300 -0.9991 -0.1361
20218SOL    HW172308   0.091   1.478   5.016 -0.8349 -0.9600 -1.7717
20218SOL    HW272309  -0.014   1.473   5.141  1.3271 -0.5935  0.1113
20219SOL     OW72310   3.262   5.027   6.404 -0.6238 -0.5584  0.0540
20219SOL    HW172311   3.285   4.957   6.472  1.2623 -0.3900 -0.3700
20219SOL    HW272312   3.346   5.074   6.375 -1.7141  1.0755 -0.5415
20220SOL     OW72313   5.334   0.640   1.182 -0.1425  0.0771  0.2035
20220SOL    HW172314   5.338   0.620   1.084 -0.0635 -1.4266  0.5061
20220SOL    HW272315   5.426   0.645   1.219 -0.1984 -0.2618  0.3853
20221SOL     OW72316   1.377   8.006   6.989  0.3723 -0.1221 -0.4299
20221SOL    HW172317   1.321   8.083   6.959 -1.6494 -0.7585  1.5674
20221SOL    HW272318   1.441   8.036   7.059  0.0046 -0.1380 -0.0876
20222SOL     OW72319   2.356   1.788   7.828 -0.7514 -0.2161  0.6915
20222SOL    HW172320   2.290   1.840   7.883 -0.6786  0.7594 -0.1195
20222SOL    HW272321   2.414   1.852   7.778 -2.1666 -1.0343 -2.1298
20223SOL     OW72322   3.992   9.535   3.915 -0.1338 -0.1837 -0.4654
20223SOL    HW172323   3.913   9.595   3.898 -0.7170 -0.6246  0.6196
20223SOL    HW272324   3.995   9.463   3.846  0.6642  1.1753 -1.8756
20224SOL     OW72325   9.539   8.940   6.585 -0.2722  0.7052 -0.2360
20224SOL    HW172326   9.589   9.011   6.535  0.3557 -0.5838 -1.4815
20224SOL    HW272327   9.555   8.852   6.541  0.8577 -0.5924  2.6653
20225SOL     OW72328   8.671   1.059   2.803 -0.3017  0.3370  0.2824
20225SOL    HW172329   8.641   0.964   2.811 -3.4253  1.1007 -1.5384
20225SOL    HW272330   8.639   1.111   2.882 -0.4704  0.3382  0.2128
20226SOL     OW72331   2.828   4.920   6.997 -0.0461  0.3578 -0.0170
20226SOL    HW172332   2.776   4.905   6.912  1.0070 -0.5819 -0.4929
20226SOL    HW272333   2.814   4.843   7.059  1.3362 -0.2346 -0.4315
20227SOL     OW72334   8.504   9.811   6.628  0.4303 -0.3935 -0.2565
20227SOL    HW172335   8.489   9.894   6.682  0.7436 -1.5983  1.7759
20227SOL    HW272336   8.422   9.789   6.576 -0.6591 -0.3085  1.3684
20228SOL     OW72337   0.896   1.336   5.965  0.2413 -0.1774 -0.1238
20228SOL    HW172338   0.852   1.426   5.963  2.0794  0.7365 -0.1411
20228SOL    HW272339   0.967   1.335   6.035 -2.0365 -2.7536  2.3066
20229SOL     OW72340   3.088   1.809   5.073  0.3368 -0.5547 -0.0550
20229SOL    HW172341   3.000   1.845   5.105  0.2718 -2.6967  2.3526
20229SOL    HW272342   3.074   1.718   5.035  1.1528  0.1439 -2.0659
20230SOL     OW72343   2.336   8.861   1.975  0.8497  0.4114 -0.0311
20230SOL    HW172344   2.282   8.935   2.016  1.5463  0.8393  0.1396
20230SOL    HW272345   2.429   8.865   2.012  1.5012  0.8161 -1.6693
20231SOL     OW72346   6.549   3.736   7.533 -0.4137  0.0387  0.0930
20231SOL    HW172347   6.616   3.748   7.607 -0.1222 -0.5507 -0.0663
20231SOL    HW272348   6.573   3.794   7.456 -1.6880  1.9515  1.0987
20232SOL     OW72349   9.191   0.110   3.405  0.0787 -0.2326 -0.4832
20232SOL    HW172350   9.242   0.136   3.487 -0.3451 -1.1129  0.0651
20232SOL    HW272351   9.254   0.098   3.329  0.4652  0.6797 -0.3042
20233SOL     OW72352   0.240   2.283   2.018 -0.7629 -0.1134  0.2601
20233SOL    HW172353   0.183   2.358   1.985  0.2052  0.3058 -0.4814
20233SOL    HW272354   0.321   2.320   2.065  0.3543 -0.6613 -1.1940
20234SOL     OW72355   1.542   9.178   0.402  0.0201  0.1170 -0.5216
20234SOL    HW172356   1.617   9.243   0.410  0.6168 -0.4772 -1.2353
20234SOL    HW272357   1.578   9.084   0.400 -0.8070 -0.2237  0.1878
20235SOL     OW72358   9.239   2.731   4.178 -0.6600 -0.1282 -0.4871
20235SOL    HW172359   9.243   2.675   4.261  2.9423 -0.0039 -0.5153
20235SOL    HW272360   9.158   2.789   4.182 -1.0387 -0.7401  2.5320
20236SOL     OW72361   3.230   2.623   1.804  0.3231 -0.1964  0.4356
20236SOL    HW172362   3.276   2.586   1.885 -0.2396  0.0738  0.8782
20236SOL    HW272363   3.226   2.723   1.810 -1.8847 -0.3057  1.2535
20237SOL     OW72364   6.390   8.921   3.976  0.1244 -0.4628  0.3912
20237SOL    HW172365   6.420   8.960   3.889 -1.1655  0.0845  0.1797
20237SOL    HW272366   6.321   8.981   4.017  1.0117 -0.5211  1.9778
20238SOL     OW72367   1.782   6.186   4.669 -0.6500 -0.0359 -0.2390
20238SOL    HW172368   1.751   6.153   4.759 -2.7123  0.1795 -0.8475
20238SOL    HW272369   1.736   6.272   4.648  0.2117  0.1663 -1.2775
20239SOL     OW72370   3.029   4.015   4.354 -0.2746  0.2335  0.1509
20239SOL    HW172371   3.097   4.081   4.324 -0.7682  1.1815  1.0650
20239SOL    HW272372   3.044   3.993   4.450 -0.8291 -0.0839  0.1686
20240SOL     OW72373   4.397   4.151   2.064  0.1104 -0.6486 -0.1308
20240SOL    HW172374   4.414   4.125   1.969 -0.1717 -1.6706  0.0940
20240SOL    HW272375   4.331   4.088   2.105 -0.9477  0.7014  0.2941
20241SOL     OW72376   4.403   8.889   2.658 -0.0458  0.1493  0.7799
20241SOL    HW172377   4.320   8.928   2.618 -2.6874 -2.6129  3.3790
20241SOL    HW272378   4.437   8.817   2.598  0.8726  1.6888 -0.5895
20242SOL     OW72379   4.787   0.107   1.292  0.7336  0.1418  0.3023
20242SOL    HW172380   4.871   0.054   1.277 -0.3038 -1.2288 -0.8582
20242SOL    HW272381   4.787   0.145   1.384  1.6143 -1.7363  1.0975
20243SOL     OW72382   7.571   0.711   5.788 -0.3836 -0.2377  0.9289
20243SOL    HW172383   7.557   0.640   5.719  0.5573  0.4630  0.0142
20243SOL    HW272384   7.669   0.718   5.809 -0.2905  1.9112 -0.1701
20244SOL     OW72385   2.832   9.992   6.573  0.1777 -0.3321  0.2510
20244SOL    HW172386   2.880  10.080   6.572  1.3417 -0.9610  0.8635
20244SOL    HW272387   2.877   9.928   6.511 -2.9316  0.6563 -3.2581
20245SOL     OW72388   4.230   4.263   8.208 -0.6083  0.1697 -0.2198
20245SOL    HW172389   4.141   4.295   8.176 -1.1290 -0.5172  0.5264
20245SOL    HW272390   4.232   4.265   8.308  1.4370  3.4832 -0.2349
20246SOL     OW72391   4.926   8.591   8.165 -0.4718  0.0891 -0.3999
20246SOL    HW172392   4.848   8.532   8.140 -1.1909  2.1548 -3.3550
20246SOL    HW272393   4.986   8.602   8.085  0.8052  1.5888  0.7409
20247SOL     OW72394   6.454   1.655   5.929 -0.3782  0.1640  0.7709
20247SOL    HW172395   6.415   1.564   5.945 -1.7294  1.0080  2.3390
20247SOL    HW272396   6.404   1.701   5.856  1.5074 -1.0592 -1.3476
20248SOL     OW72397   7.842   1.908   7.683  0.0342 -0.2159 -0.4535
20248SOL    HW172398   7.805   1.827   7.729  0.7189 -0.6454 -0.6392
20248SOL    HW272399   7.786   1.930   7.604  0.1608 -0.8554 -0.7281
20249SOL     OW72400   9.796   6.684   1.959  0.3836 -0.7453 -0.1290
20249SOL    HW172401   9.742   6.736   1.893  0.2051  1.8574  2.0015
20249SOL    HW272402   9.734   6.629   2.016  0.1949  0.2584  0.6327
20250SOL     OW72403   1.133   2.464   2.904  0.0801 -0.2955  0.1672
20250SOL    HW172404   1.098   2.411   2.982  1.9150 -0.0601  1.1734
20250SOL    HW272405   1.168   2.551   2.937  1.9417 -0.6735 -0.7486
20251SOL     OW72406   3.119   0.938   0.868  0.0762 -0.2072 -0.0215
20251SOL    HW172407   3.125   0.841   0.891  0.8154 -0.4853 -1.3810
20251SOL    HW272408   3.033   0.975   0.904  0.2966 -1.0848  1.4815
20252SOL     OW72409   9.901   5.220   5.659  0.3151  0.0126 -0.3130
20252SOL    HW172410   9.994   5.205   5.626  0.8270  2.1822  0.0355
20252SOL    HW272411   9.893   5.186   5.753  0.5175 -0.8832 -0.6156
20253SOL     OW72412   1.100   1.427   4.677 -0.1560  0.6161 -0.0699
20253SOL    HW172413   1.084   1.449   4.580 -0.9132  1.7993  0.3156
20253SOL    HW272414   1.113   1.512   4.728 -2.6203  0.1505  1.3776
20254SOL     OW72415   3.064   0.782   7.350  0.3571 -0.2334  0.4321
20254SOL    HW172416   2.979   0.754   7.396 -0.0101  0.7388  0.3496
20254SOL    HW272417   3.103   0.862   7.397  1.5077 -0.9838  0.7837
20255SOL     OW72418   8.819   6.370   0.295  0.1650  0.2877  0.0823
20255SOL    HW172419   8.876   6.298   0.256 -0.5244 -0.0482 -0.3286
20255SOL    HW272420   8.817   6.361   0.394  0.4584  0.0259  0.0657
20256SOL     OW72421   3.166   6.711   4.811 -0.3146 -0.1695  0.4355
20256SOL    HW172422   3.092   6.736   4.873 -1.6581  0.1019 -1.2244
20256SOL    HW272423   3.127   6.667   4.730  1.0559  2.4137 -1.7187
20257SOL     OW72424   5.276   2.110   5.839 -0.0922 -0.1415  0.0466
20257SOL    HW172425   5.258   2.208   5.853  1.7422 -0.0541  2.2353
20257SOL    HW272426   5.295   2.067   5.927  3.0287 -1.6276 -1.2572
20258SOL     OW72427   0.678   1.746   0.212  0.3630  0.1941 -0.8944
20258SOL    HW172428   0.580   1.761   0.227  0.0007 -1.6162 -1.3504
20258SOL    HW272429   0.700   1.763   0.116 -0.2656 -3.0237 -1.6799
20259SOL     OW72430   0.184   5.638   6.749  0.3247 -0.0565 -1.0651
20259SOL    HW172431   0.243   5.595   6.681  1.2477  0.1647 -0.4061
20259SOL    HW272432   0.183   5.583   6.833  1.2129  0.9838 -0.3546
20260SOL     OW72433   9.522   9.512   2.830  0.0568  0.2912 -0.1592
20260SOL    HW172434   9.581   9.512   2.749  0.3655 -1.2428  0.0378
20260SOL    HW272435   9.518   9.604   2.869 -0.5511  1.1729 -2.2331
20261SOL     OW72436   0.182   8.905   6.014 -0.0745  0.1576 -0.0448
20261SOL    HW172437   0.250   8.977   6.029 -0.2738  0.0457  1.4675
20261SOL    HW272438   0.108   8.915   6.080 -0.7612 -0.6445 -0.6911
20262SOL     OW72439   1.316   9.055   6.118  0.0739 -0.3452  0.1887
20262SOL    HW172440   1.289   9.149   6.142 -0.1182 -0.3822  0.1111
20262SOL    HW272441   1.325   9.001   6.202  0.5442 -0.1589  0.2607
20263SOL     OW72442   6.964   0.700   4.251  0.2012 -0.4568  0.3575
20263SOL    HW172443   6.998   0.789   4.222 -1.3762 -0.1245 -0.5330
20263SOL    HW272444   6.922   0.708   4.341 -1.1238 -0.0011 -0.2864
20264SOL     OW72445   9.451   2.656   4.577 -0.3288 -0.1980  0.5957
20264SOL    HW172446   9.470   2.654   4.675 -0.8515 -0.2373  0.6961
20264SOL    HW272447   9.471   2.567   4.537 -0.0691 -0.1673  0.6569
20265SOL     OW72448   7.108   3.148   1.351 -0.0134 -0.7458 -0.3461
20265SOL    HW172449   7.093   3.157   1.449  0.2983  0.8548 -0.4354
20265SOL    HW272450   7.047   3.209   1.301 -0.2104 -1.5891 -1.1549
20266SOL     OW72451   3.818   1.566   1.787  0.3084 -0.3822  0.1733
20266SOL    HW172452   3.814   1.649   1.843 -0.5622 -0.6313  0.4945
20266SOL    HW272453   3.736   1.560   1.731 -0.0859 -1.4962  0.8486
20267SOL     OW72454   0.548   1.007   0.616 -0.0829 -0.0814 -0.3648
20267SOL    HW172455   0.557   0.992   0.715 -1.7649  0.6966 -0.0724
20267SOL    HW272456   0.612   1.078   0.587  0.4403 -0.3316  0.1540
20268SOL     OW72457   0.770   6.519   0.579 -0.0379  0.1407 -0.3794
20268SOL    HW172458   0.747   6.548   0.486 -1.5046 -0.9546 -0.3817
20268SOL    HW272459   0.724   6.579   0.645 -0.8371 -0.4634 -0.3779
20269SOL     OW72460   8.796   0.068   6.653  0.1650 -0.0745 -0.2545
20269SOL    HW172461   8.830   0.048   6.745 -0.2539 -0.8803 -0.2747
20269SOL    HW272462   8.789   0.167   6.642  1.1820  0.0694  0.2273
20270SOL     OW72463   8.962   2.480   3.626  0.1961  0.2041  1.0742
20270SOL    HW172464   8.994   2.396   3.581  0.8448  0.5892  0.7985
20270SOL    HW272465   8.985   2.558   3.568 -1.1341  0.5077  0.9454
20271SOL     OW72466   0.237   3.745   7.707 -0.5113 -0.5160  0.0468
20271SOL    HW172467   0.200   3.653   7.723  0.0819 -1.1656 -2.1891
20271SOL    HW272468   0.330   3.737   7.671 -0.2845  0.9884  0.2920
20272SOL     OW72469   3.842   0.934   6.624 -0.2318 -0.4132 -0.1596
20272SOL    HW172470   3.771   0.865   6.608 -2.6170  1.9571 -0.1598
20272SOL    HW272471   3.799   1.020   6.653  2.4824  1.7095 -2.1440
20273SOL     OW72472   1.607   9.135   2.150  0.9454 -0.3584  0.1618
20273SOL    HW172473   1.559   9.057   2.109 -2.0870  2.3654 -1.7041
20273SOL    HW272474   1.683   9.162   2.090  1.8820 -1.7133  0.7131
20274SOL     OW72475   4.245   9.208   7.060  0.0226 -0.6808  0.1108
20274SOL    HW172476   4.167   9.173   7.112  0.3316 -0.1578  0.9403
20274SOL    HW272477   4.215   9.230   6.967 -0.4601 -1.9227 -0.0408
20275SOL     OW72478   0.967   0.026   2.944  0.4031  0.5668  0.0286
20275SOL    HW172479   1.003   0.119   2.936  0.3377  0.5790 -0.1275
20275SOL    HW272480   0.922   0.015   3.033 -1.2479  1.2485 -0.7204
20276SOL     OW72481   1.584   0.897   5.266  0.1497  0.0702  0.1835
20276SOL    HW172482   1.646   0.830   5.308 -0.1652 -1.1084 -1.1874
20276SOL    HW272483   1.498   0.899   5.317  1.4437  2.0403  2.3712
20277SOL     OW72484   8.302   2.461   5.981 -0.3637  0.1666  0.3312
20277SOL    HW172485   8.283   2.557   6.004  0.4460  0.1758  0.9860
20277SOL    HW272486   8.262   2.440   5.892 -0.3793  1.1665  0.0923
20278SOL     OW72487   1.021   8.078   3.277  0.7238 -0.4218  0.5555
20278SOL    HW172488   0.976   8.098   3.364  3.2671 -1.7301  2.2401
20278SOL    HW272489   0.977   8.129   3.204 -1.0367  1.2410  2.7169
20279SOL     OW72490   9.540   9.816   6.919  0.6320 -0.4366  0.4467
20279SOL    HW172491   9.539   9.727   6.874 -0.4630 -0.2510  0.0944
20279SOL    HW272492   9.461   9.870   6.889  2.0012  1.1724 -0.3827
20280SOL     OW72493   8.654   8.542   4.203 -0.5591 -0.4221  0.1047
20280SOL    HW172494   8.718   8.504   4.270 -3.2609 -1.5397  2.1751
20280SOL    HW272495   8.619   8.629   4.237  1.4771  1.2980 -2.0661
20281SOL     OW72496   2.557   6.021   7.635  0.2531 -0.3731  0.7626
20281SOL    HW172497   2.543   6.064   7.723 -2.4262  0.8215 -0.2061
20281SOL    HW272498   2.569   6.091   7.565  1.7014 -1.2990  0.0522
20282SOL     OW72499   8.953   0.967   6.927 -0.1292  0.7240 -0.0639
20282SOL    HW172500   9.026   0.912   6.968 -0.7758 -0.0551  0.0424
20282SOL    HW272501   8.955   1.059   6.967 -0.3988  0.1445  1.3274
20283SOL     OW72502   9.125   7.768   0.377 -0.9937 -0.3187  1.3716
20283SOL    HW172503   9.130   7.670   0.356 -4.0878  0.2214 -2.4515
20283SOL    HW272504   9.206   7.814   0.340 -0.6358 -1.0919  1.1756
20284SOL     OW72505   8.813   2.480   3.191  0.1538 -0.2799 -0.6369
20284SOL    HW172506   8.890   2.542   3.176  1.1869 -1.8663 -2.0500
20284SOL    HW272507   8.772   2.455   3.103 -1.1015 -0.5596  0.0124
20285SOL     OW72508   2.695   6.358   4.133  0.6709  0.0823 -0.2190
20285SOL    HW172509   2.608   6.374   4.180 -2.8016 -1.9546 -5.5111
20285SOL    HW272510   2.732   6.269   4.158  0.3871  0.2409  0.7687
20286SOL     OW72511   9.551   1.182   7.782 -0.2572  0.1331 -0.0281
20286SOL    HW172512   9.551   1.261   7.843 -2.3429 -0.6026  0.9472
20286SOL    HW272513   9.484   1.196   7.709  1.6860  0.6739 -1.7525
20287SOL     OW72514   1.662   6.198   0.596  0.1988 -0.5594  0.2096
20287SOL    HW172515   1.731   6.136   0.632 -0.0224 -1.1487 -0.3758
20287SOL    HW272516   1.586   6.146   0.558  0.3536  0.0391 -0.9737
20288SOL     OW72517   1.018   8.105   0.401 -0.2289  0.3979 -0.4898
20288SOL    HW172518   0.943   8.152   0.445 -0.1950 -0.8669  0.9619
20288SOL    HW272519   1.029   8.014   0.441 -0.0919 -0.7351 -2.9926
20289SOL     OW72520   0.805   0.773   4.800  0.7747 -0.3997  0.8995
20289SOL    HW172521   0.845   0.700   4.856  1.4124 -1.3493 -0.7473
20289SOL    HW272522   0.801   0.857   4.853  0.3004 -1.5490  2.7475
20290SOL     OW72523   4.782   9.267   1.073  0.3372  0.0440 -0.5749
20290SOL    HW172524   4.830   9.336   1.128 -0.9811  0.6035 -0.0980
20290SOL    HW272525   4.701   9.236   1.123 -0.6133  0.2041 -1.9986
20291SOL     OW72526   9.673   8.579   7.165 -0.7122 -0.0181 -0.0608
20291SOL    HW172527   9.753   8.632   7.139  0.5233  0.2426  3.9739
20291SOL    HW272528   9.668   8.495   7.110  0.6792  1.3257 -2.2919
20292SOL     OW72529   2.874   4.038   5.185 -0.3402 -0.5331 -0.1681
20292SOL    HW172530   2.880   4.097   5.104  1.6220 -1.0796 -0.4585
20292SOL    HW272531   2.831   3.952   5.161 -2.1060  0.2981 -0.0264
20293SOL     OW72532   2.269   2.993   2.481  0.3684  0.2859  0.2424
20293SOL    HW172533   2.175   3.009   2.514 -0.3493 -0.3116 -1.4453
20293SOL    HW272534   2.334   3.012   2.555 -1.2798 -2.9712  2.7024
20294SOL     OW72535   1.733   0.045   3.026 -0.6646  0.0778 -0.5936
20294SOL    HW172536   1.656   0.068   3.086 -1.2211 -0.8305 -0.9594
20294SOL    HW272537   1.709   0.069   2.932  0.2251  1.5444 -0.4597
20295SOL     OW72538   4.563   3.380   5.028 -0.7393 -0.3057 -0.0243
20295SOL    HW172539   4.629   3.454   5.041 -1.4752  0.5730 -1.2100
20295SOL    HW272540   4.577   3.310   5.098  0.3819  0.6448  0.7144
20296SOL     OW72541   2.021   3.710   4.775 -0.0728  0.7523  0.2169
20296SOL    HW172542   2.066   3.635   4.726 -1.0740 -0.8672  1.6792
20296SOL    HW272543   1.922   3.701   4.764 -0.4905 -1.2380  4.6071
20297SOL     OW72544   2.589   2.304   3.115  0.2341 -0.0637 -0.5226
20297SOL    HW172545   2.663   2.289   3.050 -1.7208 -2.5789 -2.2494
20297SOL    HW272546   2.592   2.232   3.185 -0.9079 -0.5219 -0.9385
20298SOL     OW72547   0.791   5.493   8.021 -0.9896  0.5488 -0.3598
20298SOL    HW172548   0.812   5.444   8.105 -0.4701  3.1359  1.0732
20298SOL    HW272549   0.692   5.495   8.008 -1.1631  1.4766  1.0292
20299SOL     OW72550   6.821   0.999   6.091 -0.8263  0.3109 -0.7971
20299SOL    HW172551   6.728   1.035   6.083 -1.2429 -0.0004  2.3137
20299SOL    HW272552   6.819   0.906   6.127  0.7184  0.3818 -0.4683
20300SOL     OW72553   0.842   0.103   0.201 -0.7198  0.0807  0.0073
20300SOL    HW172554   0.897   0.075   0.122 -0.5685  0.3188  0.0282
20300SOL    HW272555   0.780   0.177   0.173 -1.2929 -0.4356 -0.1115
20301SOL     OW72556   2.907   9.373   7.523  0.3020  0.2212  0.1315
20301SOL    HW172557   2.993   9.324   7.537  0.1461 -0.0183  0.2544
20301SOL    HW272558   2.861   9.337   7.441 -0.7120 -1.1407  1.2600
20302SOL     OW72559   7.401   0.841   8.110 -0.5612 -0.2607  0.8143
20302SOL    HW172560   7.427   0.883   8.023  0.4712 -2.4024  0.0409
20302SOL    HW272561   7.306   0.809   8.105 -1.1157  1.2889  1.1584
20303SOL     OW72562   8.807   8.952   8.160  0.8273  0.1307 -0.0797
20303SOL    HW172563   8.834   8.947   8.256  1.4116 -2.4497 -0.3243
20303SOL    HW272564   8.732   8.888   8.143  0.5956  0.7118 -1.2815
20304SOL     OW72565   3.745   5.295   3.935  0.2411 -0.5616  0.8311
20304SOL    HW172566   3.752   5.268   4.032 -3.0851  1.9918  1.8596
20304SOL    HW272567   3.688   5.229   3.886  0.3188 -0.8023  1.0621
20305SOL     OW72568   1.249   6.018   7.238 -0.0712 -0.2713  0.0038
20305SOL    HW172569   1.252   6.029   7.138 -0.9132  0.2290  0.0268
20305SOL    HW272570   1.186   6.085   7.277 -0.6592 -1.2410  0.7570
20306SOL     OW72571   9.764   4.658   4.800  0.1270  0.3274 -0.9506
20306SOL    HW172572   9.799   4.564   4.792 -2.4806 -0.5325 -2.8563
20306SOL    HW272573   9.831   4.714   4.850  1.7867 -2.4872  0.1239
20307SOL     OW72574   5.707   3.229   0.809 -0.0032  0.2350 -0.0247
20307SOL    HW172575   5.674   3.144   0.848 -0.5008  0.3383 -0.2120
20307SOL    HW272576   5.742   3.288   0.882 -0.5873  0.2787  0.2235
20308SOL     OW72577   6.956   6.910   5.579  0.0271 -0.1617  0.2041
20308SOL    HW172578   6.883   6.916   5.510  0.6846 -0.9652 -0.5798
20308SOL    HW272579   6.978   6.813   5.595  1.0805  0.0874  0.2630
20309SOL     OW72580   3.837   6.630   0.330  0.4399  0.7028 -0.2275
20309SOL    HW172581   3.799   6.550   0.375  0.3690 -0.3487 -2.0900
20309SOL    HW272582   3.893   6.601   0.252  1.7515  2.4031  0.0720
20310SOL     OW72583   8.676   3.227   3.588  0.6587 -1.0473  0.6610
20310SOL    HW172584   8.726   3.230   3.501  1.2876 -0.5480  1.0329
20310SOL    HW272585   8.684   3.135   3.628  0.1203 -1.3621  0.0546
20311SOL     OW72586   6.638   0.895   0.374  0.7808  0.0630 -0.5313
20311SOL    HW172587   6.642   0.809   0.424  0.3013  0.4908  0.2483
20311SOL    HW272588   6.711   0.897   0.306  2.5432  0.2076  1.3160
20312SOL     OW72589   4.836   6.974   3.783 -0.2032 -0.2619  0.4002
20312SOL    HW172590   4.868   6.961   3.689 -1.0885 -0.6236  0.1406
20312SOL    HW272591   4.906   7.022   3.836 -1.0019  2.9225 -1.3136
20313SOL     OW72592   3.103   8.870   2.541  0.0003 -0.0877 -1.1731
20313SOL    HW172593   3.188   8.825   2.515  0.2249  0.2713 -1.0657
20313SOL    HW272594   3.104   8.964   2.508  0.5639  0.5712  0.6737
20314SOL     OW72595   2.545   4.790   0.804  0.2753  0.0571  0.3434
20314SOL    HW172596   2.544   4.757   0.898 -0.9631  0.3821  0.4526
20314SOL    HW272597   2.465   4.754   0.755  0.6354  0.3040 -0.4271
20315SOL     OW72598   0.687   8.308   7.088  0.0986 -0.0361  0.0413
20315SOL    HW172599   0.774   8.356   7.093  0.4252 -0.5544 -0.7748
20315SOL    HW272600   0.618   8.360   7.139  0.7599  0.6250  0.2671
20316SOL     OW72601   3.003   2.971   6.658  0.4141  0.6263  0.6214
20316SOL    HW172602   3.090   3.020   6.659  0.4902  0.5020  0.1510
20316SOL    HW272603   2.934   3.025   6.610  0.2303  0.7267  0.9977
20317SOL     OW72604   9.990   9.889   1.878 -0.5099  0.5469  0.8445
20317SOL    HW172605  10.005   9.980   1.838 -2.1030  0.4452  0.0121
20317SOL    HW272606   9.999   9.819   1.807  0.4550  0.0503  1.4354
20318SOL     OW72607   1.638   1.194   7.265  0.2620  0.0635 -0.1386
20318SOL    HW172608   1.593   1.107   7.244  0.8104 -0.5712  1.2271
20318SOL    HW272609   1.699   1.181   7.343 -1.2528  2.2144  1.4166
20319SOL     OW72610   1.609   7.529   7.979 -0.0758 -0.4210 -0.2534
20319SOL    HW172611   1.589   7.595   8.051  0.6268 -0.0506 -0.3998
20319SOL    HW272612   1.610   7.575   7.890  2.3017 -0.2556 -0.1651
20320SOL     OW72613   9.099   6.950   6.213  0.2863  0.0151 -0.4380
20320SOL    HW172614   9.094   6.924   6.309 -0.1047  3.0681  0.4406
20320SOL    HW272615   9.188   6.991   6.194 -0.3494  1.2356 -0.8615
20321SOL     OW72616   8.548   5.317   0.102 -0.4012 -0.3395  0.5030
20321SOL    HW172617   8.566   5.380   0.178 -0.0598 -0.4421  0.5077
20321SOL    HW272618   8.449   5.314   0.085 -0.1807  2.9393 -1.8634
20322SOL     OW72619   3.189   5.445   3.396  0.1090 -0.2444  0.5063
20322SOL    HW172620   3.149   5.384   3.328 -1.2353 -0.2771  1.3124
20322SOL    HW272621   3.243   5.390   3.461 -0.6271 -0.5100  0.8969
20323SOL     OW72622   3.258   7.096   0.569  0.5260  0.0634  0.3412
20323SOL    HW172623   3.239   7.101   0.667 -1.5895  0.1074 -0.0521
20323SOL    HW272624   3.266   7.000   0.541 -0.5271  0.0091  0.2421
20324SOL     OW72625   2.760   1.402   0.578 -0.1590  0.0555 -0.9994
20324SOL    HW172626   2.715   1.491   0.583  1.4862  0.9020 -0.9120
20324SOL    HW272627   2.708   1.342   0.517 -0.2040  1.7157 -2.6291
20325SOL     OW72628   9.350   7.393   6.545 -0.1776  0.0914 -0.3290
20325SOL    HW172629   9.281   7.409   6.616  0.2466  1.2411 -0.1589
20325SOL    HW272630   9.308   7.344   6.468 -0.3954 -2.0925  1.1392
20326SOL     OW72631   7.879   9.631   2.478  0.5004 -0.2639 -0.1845
20326SOL    HW172632   7.856   9.672   2.390 -0.5772 -0.3737  0.0401
20326SOL    HW272633   7.938   9.551   2.464  0.9644  0.1749 -0.7501
20327SOL     OW72634   5.082   0.985   5.637 -0.3125  0.0741  0.6772
20327SOL    HW172635   4.990   0.996   5.675 -0.0706  1.6525  0.8439
20327SOL    HW272636   5.075   0.948   5.544 -0.9873 -2.0797  1.5543
20328SOL     OW72637   3.609   7.580   1.793 -0.2308 -0.1625 -0.6315
20328SOL    HW172638   3.650   7.611   1.707 -0.5104 -0.6712 -0.9570
20328SOL    HW272639   3.516   7.615   1.799 -0.1686 -0.0259 -0.4807
20329SOL     OW72640   4.303   5.797   2.348 -0.9852 -0.4069 -0.0075
20329SOL    HW172641   4.329   5.878   2.400 -0.8092  0.4753 -1.4480
20329SOL    HW272642   4.306   5.716   2.408  3.6183 -0.1539  0.2477
20330SOL     OW72643   4.649   3.660   8.013 -0.8582  0.1044  0.0948
20330SOL    HW172644   4.556   3.691   7.995 -1.2860 -0.5449  1.1350
20330SOL    HW272645   4.701   3.734   8.058 -1.1448  0.1584  0.3400
20331SOL     OW72646   7.964   6.365   2.116 -0.0182 -0.2396  0.8112
20331SOL    HW172647   7.887   6.374   2.053 -0.3235  0.9260  1.3505
20331SOL    HW272648   7.934   6.385   2.209  1.0009  0.5454  0.9824
20332SOL     OW72649   0.870   5.318   5.879 -0.2818 -0.4200 -0.2423
20332SOL    HW172650   0.905   5.399   5.833 -0.1379 -0.7678 -0.7559
20332SOL    HW272651   0.934   5.242   5.864  0.0187 -0.4046  0.9557
20333SOL     OW72652   3.525   7.436   6.159  0.3525 -0.2803  0.4193
20333SOL    HW172653   3.430   7.404   6.159 -0.0950  0.9980 -0.6753
20333SOL    HW272654   3.585   7.359   6.136 -0.2453 -1.4733  2.6895
20334SOL     OW72655   1.719   5.795   5.595  0.2778  0.3384 -0.0368
20334SOL    HW172656   1.715   5.850   5.512  2.2896 -0.3067 -0.5770
20334SOL    HW272657   1.728   5.699   5.571  1.2444  0.1769  0.9220
20335SOL     OW72658   7.696   9.963   2.447  0.0181  0.4357 -0.3366
20335SOL    HW172659   7.704   9.913   2.361  0.0679  0.1617 -0.1730
20335SOL    HW272660   7.600   9.966   2.475  0.1464 -0.5790  0.2501
20336SOL     OW72661   7.786   2.000   6.774  0.1852  0.2287 -0.2086
20336SOL    HW172662   7.763   2.050   6.690  1.1731 -1.1095 -1.2918
20336SOL    HW272663   7.832   2.062   6.838  3.3620  0.2730 -2.4014
20337SOL     OW72664   1.869   5.670   0.736  0.2851 -0.6163  0.4853
20337SOL    HW172665   1.817   5.628   0.662  0.4660 -0.2863  0.1720
20337SOL    HW272666   1.891   5.764   0.712 -1.4157  0.1567  1.8035
20338SOL     OW72667   4.919   3.968   1.141 -0.4942 -0.5690 -0.1218
20338SOL    HW172668   4.985   3.893   1.132  2.3750  1.8421  0.2787
20338SOL    HW272669   4.885   3.971   1.235 -1.1198 -1.7298 -0.2955
20339SOL     OW72670   3.354   2.938   4.493 -0.1722 -0.1939  0.2775
20339SOL    HW172671   3.283   2.968   4.556 -1.3576 -1.1511 -0.5755
20339SOL    HW272672   3.322   2.950   4.398  1.7048  1.5218 -0.1616
20340SOL     OW72673   6.461   0.220   3.895  0.1966 -0.1817  0.4693
20340SOL    HW172674   6.367   0.195   3.915  0.4224 -0.2121  1.5105
20340SOL    HW272675   6.471   0.319   3.897  0.8859 -0.2770  3.6403
20341SOL     OW72676   8.532   9.987   0.590 -0.7386 -0.7590  0.2475
20341SOL    HW172677   8.531  10.074   0.540 -0.8468 -1.2856 -0.6871
20341SOL    HW272678   8.457   9.929   0.557 -0.7853 -1.1370  1.0027
20342SOL     OW72679   8.944   1.697   3.243 -0.4414 -0.2360 -0.4754
20342SOL    HW172680   8.885   1.742   3.310  0.1801 -0.8863  0.5109
20342SOL    HW272681   8.945   1.751   3.159  0.1843  1.5331  0.6419
20343SOL     OW72682   1.191   2.363   7.604  0.0366 -0.3324  0.3608
20343SOL    HW172683   1.240   2.420   7.538 -1.6424 -0.6245 -1.1595
20343SOL    HW272684   1.236   2.370   7.693  1.3798  1.3230 -0.4164
20344SOL     OW72685   3.909   4.840   1.233 -0.0925 -0.0971 -0.0930
20344SOL    HW172686   3.834   4.905   1.221  0.5446  0.7222  0.2686
20344SOL    HW272687   3.996   4.887   1.217  0.4075 -0.6859  0.8755
20345SOL     OW72688   4.579   7.894   4.990  0.5104 -0.3692  0.1687
20345SOL    HW172689   4.548   7.850   4.906 -0.3056 -0.8148  0.7000
20345SOL    HW272690   4.599   7.990   4.971 -1.9336  0.1468 -0.0507
20346SOL     OW72691   9.736   5.425   1.028 -0.6313  0.2027  0.4486
20346SOL    HW172692   9.792   5.432   1.110  0.0388 -0.3519  0.0487
20346SOL    HW272693   9.660   5.490   1.033  0.7849  1.9033  0.4274
20347SOL     OW72694   9.211   9.805   4.217  0.0177 -0.3794  0.0025
20347SOL    HW172695   9.153   9.740   4.169  0.4081 -0.4549 -0.3758
20347SOL    HW272696   9.274   9.756   4.278  0.0307 -0.3280  0.0298
20348SOL     OW72697   7.253   1.304   0.759  0.1455  0.8284  0.1462
20348SOL    HW172698   7.196   1.287   0.839  0.1827  1.8125  0.3889
20348SOL    HW272699   7.200   1.354   0.691  0.5399  1.2311  0.1338
20349SOL     OW72700   3.673   9.144   4.553  0.3219 -0.3645 -0.1512
20349SOL    HW172701   3.600   9.080   4.530  0.4513 -0.9257  0.9602
20349SOL    HW272702   3.644   9.200   4.631  0.4694  0.4759 -0.6957
20350SOL     OW72703   2.852   8.672   0.999 -0.1275 -0.2008  0.6289
20350SOL    HW172704   2.760   8.660   0.962  0.1803 -2.8771  0.6372
20350SOL    HW272705   2.917   8.683   0.924 -0.6162  3.4929  0.6493
20351SOL     OW72706   4.970   0.022   4.405  0.6778 -0.1821  0.2166
20351SOL    HW172707   5.036   0.080   4.358  0.6052  0.1215  0.4904
20351SOL    HW272708   5.016  -0.062   4.436  0.7353 -0.3656 -0.3513
20352SOL     OW72709   4.022   3.425   4.382  0.0181  0.5675 -0.2664
20352SOL    HW172710   3.980   3.341   4.346 -2.9954  1.3273  1.3350
20352SOL    HW272711   4.106   3.401   4.432 -0.5093 -1.4319 -0.2755
20353SOL     OW72712   8.322   7.790   7.865  0.0818 -0.1385 -0.3446
20353SOL    HW172713   8.351   7.857   7.933 -0.8545 -0.9598  0.8794
20353SOL    HW272714   8.400   7.767   7.806  1.8108 -1.8183  2.4840
20354SOL     OW72715   4.123   9.011   2.946 -0.6510 -0.2263 -0.4520
20354SOL    HW172716   4.141   8.944   3.019 -1.1973  0.8100  0.6469
20354SOL    HW272717   4.187   9.087   2.954 -0.6755 -0.1420 -1.0831
20355SOL     OW72718   5.450   2.544   4.143 -0.1490  0.9158 -0.4110
20355SOL    HW172719   5.400   2.605   4.205  1.8490  1.6600  0.5163
20355SOL    HW272720   5.547   2.544   4.168  0.2977 -0.6215 -2.0729
20356SOL     OW72721   0.205   2.218   0.433 -0.0933  0.0147 -0.1613
20356SOL    HW172722   0.153   2.294   0.473 -0.6294 -0.3452 -0.1695
20356SOL    HW272723   0.193   2.218   0.334  4.0275  3.0286 -0.8040
20357SOL     OW72724   2.838   4.571   7.928 -0.3032  0.4122  0.3663
20357SOL    HW172725   2.755   4.610   7.889 -0.6646  0.2746  0.9834
20357SOL    HW272726   2.914   4.583   7.864 -0.6203  1.2492  0.1366
20358SOL     OW72727   3.926   0.722   2.541  0.0962 -0.3563 -0.1195
20358SOL    HW172728   3.846   0.688   2.590  0.4250 -0.8800  0.0578
20358SOL    HW272729   4.009   0.685   2.583  0.3738 -0.9809 -1.1976
20359SOL     OW72730   7.439   5.188   1.544 -0.6154  0.4376 -0.2663
20359SOL    HW172731   7.431   5.115   1.612 -0.4601  0.1486 -0.5580
20359SOL    HW272732   7.517   5.169   1.484 -0.6585  0.7724 -0.4282
20360SOL     OW72733   0.754   8.277   1.061 -0.1799  0.0053  0.1979
20360SOL    HW172734   0.718   8.194   1.104 -0.4155  0.1680  0.3151
20360SOL    HW272735   0.773   8.345   1.132  1.2895 -0.4298  0.2358
20361SOL     OW72736   5.262   0.997   7.524 -0.0779  0.2403 -0.0996
20361SOL    HW172737   5.294   0.972   7.432 -0.4009 -1.2426  0.1639
20361SOL    HW272738   5.222   1.088   7.522  2.6429  1.4691 -0.7849
20362SOL     OW72739   4.679   8.228   6.075  0.3037  0.3783  0.0902
20362SOL    HW172740   4.637   8.306   6.120  1.6180  1.5406 -0.6624
20362SOL    HW272741   4.678   8.242   5.976 -0.4291 -1.0554 -0.1100
20363SOL     OW72742   6.950   3.318   1.179 -0.4188  0.6443 -0.0165
20363SOL    HW172743   6.889   3.287   1.106 -1.3511  1.1355  0.5391
20363SOL    HW272744   6.895   3.351   1.256  0.5464 -0.1489  1.0276
20364SOL     OW72745   0.673   6.351   6.124  0.6277 -0.1996  0.1221
20364SOL    HW172746   0.732   6.405   6.065  0.5271  0.5155  0.6695
20364SOL    HW272747   0.699   6.254   6.118 -1.3606 -0.5736 -3.4364
20365SOL     OW72748   1.450   0.506   3.979  0.4123 -0.4931  0.3328
20365SOL    HW172749   1.355   0.476   3.981 -0.0029  0.8063  0.5019
20365SOL    HW272750   1.506   0.444   4.035 -0.5633 -0.4624  1.3504
20366SOL     OW72751   0.102   8.895   3.347  0.0152 -0.1821  0.4883
20366SOL    HW172752   0.076   8.880   3.442  0.7312  0.4335  0.7821
20366SOL    HW272753   0.198   8.922   3.342 -0.0428 -0.1134 -0.4038
20367SOL     OW72754   0.071   2.771   5.132 -0.1320  0.2060  0.4947
20367SOL    HW172755   0.102   2.794   5.224  1.2711  0.3206  0.0130
20367SOL    HW272756   0.080   2.852   5.073  3.3124 -1.0063 -0.8250
20368SOL     OW72757   3.551   4.370   0.851  0.2029 -0.5002  0.0437
20368SOL    HW172758   3.614   4.318   0.795  1.1554  0.6091  0.0769
20368SOL    HW272759   3.522   4.453   0.802 -1.4486 -1.1290 -0.0899
20369SOL     OW72760   7.055   6.533   6.636  0.0665 -0.1556  0.5207
20369SOL    HW172761   7.145   6.511   6.600 -0.1532  0.3542 -0.3696
20369SOL    HW272762   7.030   6.626   6.610 -0.8148 -0.3715  0.5467
20370SOL     OW72763   4.516   4.359   1.344 -0.1463 -0.2098 -0.6395
20370SOL    HW172764   4.568   4.318   1.419 -0.4755 -0.4216 -0.5247
20370SOL    HW272765   4.432   4.306   1.329 -0.9142  0.8015 -0.0253
20371SOL     OW72766   4.989   8.129   4.247  0.2905 -0.3997 -0.0656
20371SOL    HW172767   4.951   8.087   4.164  1.1541 -0.7621 -0.2898
20371SOL    HW272768   5.037   8.214   4.222 -0.5777  0.1825  0.2460
20372SOL     OW72769   1.322   0.236   0.582 -0.4918  0.3447 -0.2812
20372SOL    HW172770   1.274   0.257   0.667 -0.2236 -0.9352  0.2042
20372SOL    HW272771   1.406   0.185   0.603 -0.7332 -0.5185 -1.3336
20373SOL     OW72772   7.772   4.187   1.341  0.2201  0.0728  0.1788
20373SOL    HW172773   7.778   4.101   1.392 -1.3219  0.2809  0.7516
20373SOL    HW272774   7.782   4.264   1.403 -2.0230  0.3310  0.2530
20374SOL     OW72775   6.202   7.793   5.394 -0.4654 -0.3186  0.3444
20374SOL    HW172776   6.294   7.764   5.420 -0.2660  0.3324  0.3794
20374SOL    HW272777   6.137   7.719   5.412 -0.2810 -0.0220  2.4163
20375SOL     OW72778   1.760   4.309   3.135 -0.1636  0.3857 -0.1763
20375SOL    HW172779   1.787   4.404   3.145 -2.5936  0.9758  0.9620
20375SOL    HW272780   1.774   4.280   3.040 -0.5915  2.2202 -0.8008
20376SOL     OW72781   2.719   4.656   4.988  0.2120 -0.2877 -0.2241
20376SOL    HW172782   2.710   4.585   4.918 -3.0464 -0.2588  0.0801
20376SOL    HW272783   2.688   4.621   5.076  1.1206  0.7084  0.5162
20377SOL     OW72784   3.182   0.331   1.529  0.2789 -0.6168 -0.0939
20377SOL    HW172785   3.154   0.235   1.533  0.7328 -0.7390  0.1691
20377SOL    HW272786   3.195   0.366   1.622  0.8571 -0.5179 -0.2130
20378SOL     OW72787   5.449   8.416   4.314  0.5524  0.1012 -0.1369
20378SOL    HW172788   5.523   8.470   4.353  0.6200  0.1119 -0.2824
20378SOL    HW272789   5.391   8.381   4.388  1.0175 -0.3594  0.0057
20379SOL     OW72790   9.428   8.064   4.914 -0.4019  0.1580  0.6670
20379SOL    HW172791   9.396   8.000   4.984 -1.2713  0.7696  0.8441
20379SOL    HW272792   9.521   8.039   4.886 -1.2579 -2.0424 -0.3316
20380SOL     OW72793   0.080   0.837   0.676 -0.2013 -0.1514  0.0938
20380SOL    HW172794   0.123   0.830   0.586  0.3597  0.5248  0.3011
20380SOL    HW272795   0.004   0.773   0.682  1.4443 -2.1699  0.0898
20381SOL     OW72796   3.597   8.328   5.378 -0.5842  0.1349  0.0862
20381SOL    HW172797   3.656   8.342   5.458  0.6787 -1.2374 -0.6058
20381SOL    HW272798   3.593   8.413   5.325  1.3912  0.0061 -0.2890
20382SOL     OW72799   7.618   5.161   3.234  0.0300 -0.1277  0.5857
20382SOL    HW172800   7.667   5.243   3.206 -0.2691 -0.4627 -0.9440
20382SOL    HW272801   7.673   5.080   3.214 -0.2403 -0.3819  0.8502
20383SOL     OW72802   1.610   2.858   6.633  0.1228  0.2566  0.2362
20383SOL    HW172803   1.547   2.875   6.558  0.6450  1.2352  0.0148
20383SOL    HW272804   1.685   2.924   6.630  1.4742 -1.2447  0.1613
20384SOL     OW72805   9.443   1.850   2.049 -0.3576  0.0849 -0.6560
20384SOL    HW172806   9.440   1.769   1.990  0.5319 -1.0835  0.8700
20384SOL    HW272807   9.402   1.927   2.001 -0.6438 -1.1069 -2.3850
20385SOL     OW72808   5.192   3.561   0.719 -0.3369 -0.1454  0.0234
20385SOL    HW172809   5.276   3.612   0.698 -0.6993  0.4311 -0.0267
20385SOL    HW272810   5.212   3.493   0.790  0.3878 -0.6453 -0.6499
20386SOL     OW72811   8.006   9.445   5.784 -0.1639  0.6362 -0.2383
20386SOL    HW172812   7.961   9.364   5.749  0.9625  0.6046 -1.6708
20386SOL    HW272813   8.063   9.421   5.863 -0.0517  0.0946 -0.4883
20387SOL     OW72814   1.072   6.645   5.761 -0.0729 -0.1247  0.3583
20387SOL    HW172815   1.063   6.736   5.803  2.2247  0.6083 -0.6792
20387SOL    HW272816   0.994   6.588   5.789 -0.4228  1.4508  2.7695
20388SOL     OW72817   0.768  10.000   6.399 -0.0402 -0.1159  0.2493
20388SOL    HW172818   0.827   9.925   6.370  0.3642  0.7257 -1.1295
20388SOL    HW272819   0.797  10.033   6.489  0.7423 -0.5810  0.1652
20389SOL     OW72820   0.112   8.369   5.720 -0.2975  0.6232 -0.4734
20389SOL    HW172821   0.211   8.377   5.730 -0.0700  0.3184 -2.3080
20389SOL    HW272822   0.088   8.274   5.698 -0.8958  0.8798 -0.9782
20390SOL     OW72823   9.163   0.693   4.354  0.2313  0.4878 -0.1708
20390SOL    HW172824   9.138   0.657   4.444 -0.7776  1.8269  0.1026
20390SOL    HW272825   9.244   0.752   4.363 -0.3030  1.2011 -0.0159
20391SOL     OW72826   4.875   8.689   1.114 -0.2573 -0.5518 -0.4543
20391SOL    HW172827   4.947   8.629   1.150 -0.7482  0.1659  1.8041
20391SOL    HW272828   4.797   8.634   1.085  0.1490 -1.1485 -0.4317
20392SOL     OW72829   0.612   2.816   2.673 -0.4246  0.2842 -0.3124
20392SOL    HW172830   0.624   2.743   2.605  0.7172  1.3619 -1.3044
20392SOL    HW272831   0.678   2.803   2.747  0.1121  0.5786 -0.7348
20393SOL     OW72832   3.565   0.749   5.010 -0.1809  0.7757 -0.2274
20393SOL    HW172833   3.584   0.734   5.107 -0.3991  0.3343 -0.2530
20393SOL    HW272834   3.556   0.661   4.964 -0.7133  0.9889 -0.5263
20394SOL     OW72835   5.034   9.379   7.801 -0.3535 -0.3084 -0.2300
20394SOL    HW172836   5.088   9.342   7.876 -1.6757 -0.1244  0.8413
20394SOL    HW272837   5.052   9.327   7.718  3.0104  1.0296 -0.4190
20395SOL     OW72838   9.066   8.520   7.831  0.3751  0.2170  0.6678
20395SOL    HW172839   9.014   8.554   7.909  0.7277 -1.0180  1.4631
20395SOL    HW272840   9.090   8.596   7.771 -0.0253  1.1642  1.6846
20396SOL     OW72841   7.148   1.525   0.638 -0.4418  0.2632 -0.2042
20396SOL    HW172842   7.050   1.518   0.656 -0.6221  2.5530 -0.1587
20396SOL    HW272843   7.162   1.551   0.542  0.1390 -0.4369 -0.3102
20397SOL     OW72844   2.920   9.074   7.649  0.6076  0.4732 -0.2783
20397SOL    HW172845   3.009   9.097   7.690  0.0054 -0.7167  1.7820
20397SOL    HW272846   2.848   9.120   7.701 -0.1263 -0.3751 -0.5531
20398SOL     OW72847   8.848   8.076   7.264  0.4765 -0.3441  0.5057
20398SOL    HW172848   8.807   8.024   7.188  3.1540  0.7808 -1.7910
20398SOL    HW272849   8.909   8.016   7.316 -0.1358 -0.7083  0.8148
20399SOL     OW72850   3.604   8.072   7.038  0.4901 -0.4828 -0.2284
20399SOL    HW172851   3.537   8.032   7.100 -0.2405  0.5049 -0.3860
20399SOL    HW272852   3.560   8.098   6.953  1.0733  0.1880 -0.3313
20400SOL     OW72853   9.095   5.099   7.679  0.3355 -0.3706 -0.4656
20400SOL    HW172854   9.156   5.156   7.623  1.1652 -0.9085 -0.1082
20400SOL    HW272855   9.080   5.012   7.633  1.1192 -0.8654  0.2047
20401SOL     OW72856   4.764   2.555   1.809  0.4119  0.4320  0.2637
20401SOL    HW172857   4.726   2.474   1.766 -0.6053  0.8184  0.4214
20401SOL    HW272858   4.699   2.631   1.801  0.3096  0.5754  2.2245
20402SOL     OW72859   0.340   4.627   1.458 -0.2337 -0.1977 -0.2523
20402SOL    HW172860   0.269   4.557   1.451  1.0799 -1.4323 -1.5017
20402SOL    HW272861   0.430   4.587   1.439  0.4234  2.0192 -2.1141
20403SOL     OW72862   9.889   3.381   7.105 -0.4248 -0.5176 -0.1554
20403SOL    HW172863   9.804   3.427   7.080 -1.3663 -1.0964  1.9316
20403SOL    HW272864   9.966   3.441   7.082 -1.4041  0.3230 -1.3673
20404SOL     OW72865   4.001   0.811   0.894  0.7543 -0.5285 -0.4807
20404SOL    HW172866   3.914   0.860   0.889  0.4114 -1.2443 -1.6903
20404SOL    HW272867   4.072   0.873   0.928 -0.1871  0.0983  0.3753
20405SOL     OW72868   1.859   3.796   2.620  0.0184 -0.5724 -0.6676
20405SOL    HW172869   1.945   3.829   2.659 -0.7626 -0.2098  0.7844
20405SOL    HW272870   1.831   3.712   2.667 -1.8840  0.8771  0.8796
20406SOL     OW72871   6.419   3.455   1.515  0.1046 -0.5177  0.2291
20406SOL    HW172872   6.455   3.468   1.607  0.3919 -1.3586  0.2391
20406SOL    HW272873   6.491   3.420   1.455  0.1955  1.0010 -0.5722
20407SOL     OW72874   4.538   3.832   5.766 -0.4152  0.2897  0.9476
20407SOL    HW172875   4.513   3.897   5.838  0.1014  0.4209  1.0100
20407SOL    HW272876   4.598   3.877   5.700  0.7030 -0.3912  1.4934
20408SOL     OW72877   6.432   3.634   1.754  0.5692 -0.3997 -0.1350
20408SOL    HW172878   6.339   3.651   1.786  0.0558 -0.9952 -1.2800
20408SOL    HW272879   6.487   3.597   1.829 -0.1557 -0.1807  0.5064
20409SOL     OW72880   0.197   6.484   5.651  0.8974 -0.1986  0.5278
20409SOL    HW172881   0.110   6.448   5.683  0.8866 -1.3421 -0.7245
20409SOL    HW272882   0.256   6.408   5.624  1.2944  0.6744 -1.1107
20410SOL     OW72883   3.530   2.190   3.816 -0.7642 -0.2649  0.4389
20410SOL    HW172884   3.438   2.227   3.831 -0.4223  0.3338  1.0998
20410SOL    HW272885   3.590   2.222   3.889  0.4084  0.8213 -0.9701
20411SOL     OW72886   6.108   7.627   2.072 -0.0559  0.0386 -0.3028
20411SOL    HW172887   6.196   7.618   2.024  0.0872 -3.6769  0.4543
20411SOL    HW272888   6.125   7.651   2.167  0.1792 -0.7309 -0.1426
20412SOL     OW72889   5.861   7.062   4.587 -0.2478  0.4170  0.1788
20412SOL    HW172890   5.951   7.106   4.597 -0.3788  0.9504 -0.8854
20412SOL    HW272891   5.794   7.111   4.643 -0.0475  0.5290  0.3235
20413SOL     OW72892   0.378   6.719   3.149  0.4931  0.4635 -0.2323
20413SOL    HW172893   0.311   6.650   3.176 -0.1730  1.0963 -0.2551
20413SOL    HW272894   0.402   6.705   3.053  0.4037  0.2256 -0.2209
20414SOL     OW72895   5.318   8.176   2.901 -0.7910  0.1756  0.1065
20414SOL    HW172896   5.229   8.175   2.857 -1.2596 -0.0687  1.0453
20414SOL    HW272897   5.310   8.139   2.994  0.3618 -0.2299  0.0502
20415SOL     OW72898   8.056   5.339   4.841  0.4849  0.0277 -0.3342
20415SOL    HW172899   8.042   5.367   4.936  0.6402  0.2654 -0.3810
20415SOL    HW272900   7.968   5.332   4.794  0.5034  1.2016 -0.5430
20416SOL     OW72901   8.059   9.693   6.783  0.5366 -0.7697  0.5738
20416SOL    HW172902   7.963   9.705   6.809  0.6689  2.9734 -0.3681
20416SOL    HW272903   8.118   9.716   6.861  0.7179  2.4562 -0.4107
20417SOL     OW72904   4.270   6.667   0.246 -0.3070 -0.2628  0.2257
20417SOL    HW172905   4.362   6.637   0.221 -0.7330 -1.2606 -0.1630
20417SOL    HW272906   4.204   6.625   0.184 -0.9216  1.4538 -0.3070
20418SOL     OW72907   0.087   7.895   4.884 -0.5635 -0.4278  0.2637
20418SOL    HW172908   0.100   7.975   4.826 -0.4483 -0.0660  0.7876
20418SOL    HW272909   0.154   7.825   4.860  0.1967  0.1435  0.7022
20419SOL     OW72910   9.671   3.104   4.400 -0.2910 -0.0674 -0.1458
20419SOL    HW172911   9.691   3.124   4.305  1.4822 -1.6062 -0.1133
20419SOL    HW272912   9.621   3.017   4.407 -0.1026 -0.1398  0.3564
20420SOL     OW72913   6.600   5.170   8.115 -0.0831 -0.0267  0.2351
20420SOL    HW172914   6.606   5.209   8.023  0.6623 -0.4711  0.0964
20420SOL    HW272915   6.561   5.239   8.177 -0.6006  0.2691 -0.4082
20421SOL     OW72916   1.174   1.877   4.223  0.2474  0.4120  0.2246
20421SOL    HW172917   1.230   1.896   4.143 -0.8814 -1.8894 -1.1635
20421SOL    HW272918   1.079   1.903   4.205  0.2455  1.1762  1.3220
20422SOL     OW72919   2.660   1.994   2.782  0.1668 -0.2998  0.6032
20422SOL    HW172920   2.678   1.950   2.870 -0.7924  2.1049  2.0498
20422SOL    HW272921   2.739   2.048   2.754  0.8233 -1.7948 -0.4987
20423SOL     OW72922   1.324   7.954   4.918  0.4640 -0.4873  0.7386
20423SOL    HW172923   1.269   7.937   4.836 -1.0355  0.0164  1.6271
20423SOL    HW272924   1.412   7.908   4.908  0.6284  0.2140 -1.4962
20424SOL     OW72925   8.276   9.730   7.765  0.0774 -0.2995 -0.6518
20424SOL    HW172926   8.370   9.710   7.740  0.3984  1.1925 -0.6641
20424SOL    HW272927   8.255   9.826   7.746 -1.2334 -0.4347 -0.0194
20425SOL     OW72928   2.421   9.708   0.642  0.4292  0.0974  0.5062
20425SOL    HW172929   2.426   9.609   0.631  1.0437 -0.0046  1.6517
20425SOL    HW272930   2.338   9.742   0.597 -1.4428 -1.3252  2.7766
20426SOL     OW72931   1.267   4.679   7.057 -0.2827  0.1832  0.2640
20426SOL    HW172932   1.313   4.603   7.011  1.2712  1.5162 -0.4300
20426SOL    HW272933   1.230   4.742   6.989  0.7506  1.4121  0.8149
20427SOL     OW72934   8.645   3.730   3.247  0.9678  0.0437 -0.5275
20427SOL    HW172935   8.551   3.700   3.235  0.3881  1.8406 -0.5993
20427SOL    HW272936   8.687   3.745   3.157  0.7239  1.0452 -0.4767
20428SOL     OW72937   2.020   9.626   0.299 -0.1150  0.6335  0.0414
20428SOL    HW172938   2.000   9.528   0.301  1.1140  0.3183 -1.9561
20428SOL    HW272939   2.114   9.640   0.267 -0.5867  2.4910 -0.5653
20429SOL     OW72940   3.216   1.168   0.162  0.5416  0.5663  0.0446
20429SOL    HW172941   3.161   1.236   0.114 -0.0606  0.2769  0.3162
20429SOL    HW272942   3.300   1.210   0.196  0.7073  0.9036 -0.7725
20430SOL     OW72943   0.249   8.461   0.499  0.1044 -0.6078 -0.2821
20430SOL    HW172944   0.153   8.488   0.496 -0.2425 -1.8972 -1.1437
20430SOL    HW272945   0.257   8.361   0.488  1.4952 -0.6062  0.4750
20431SOL     OW72946   9.240   8.479   6.469  0.4791  0.2349  0.4651
20431SOL    HW172947   9.330   8.493   6.510  0.3972  0.2119  0.6557
20431SOL    HW272948   9.237   8.523   6.379  0.5636  0.5368  0.6095
20432SOL     OW72949   2.907   3.912   7.649 -0.1676 -0.3160  0.7597
20432SOL    HW172950   2.971   3.926   7.726  1.6838 -0.2880 -0.7482
20432SOL    HW272951   2.818   3.951   7.673  0.7813  0.9643  2.3494
20433SOL     OW72952   4.932   4.528   1.357  0.4754  0.3339 -0.0842
20433SOL    HW172953   4.959   4.553   1.264  1.2149 -2.5031 -0.6806
20433SOL    HW272954   4.868   4.451   1.353 -0.0987  0.6978  1.7257
20434SOL     OW72955   4.611   0.130   6.811 -0.5395  0.3440  0.0549
20434SOL    HW172956   4.677   0.199   6.779 -1.8722  1.7551  0.3175
20434SOL    HW272957   4.645   0.090   6.896  0.7097 -0.0265 -0.5970
20435SOL     OW72958   6.225   9.785   3.489  0.3594 -0.0530 -0.5343
20435SOL    HW172959   6.320   9.815   3.502  0.8939 -2.6308  1.9378
20435SOL    HW272960   6.167   9.831   3.557  0.2738 -0.3854 -0.3831
20436SOL     OW72961   4.981   8.395   5.292  0.0136 -0.5780 -0.1181
20436SOL    HW172962   5.038   8.474   5.269  1.1628 -1.0486  1.0569
20436SOL    HW272963   5.031   8.311   5.271  0.6742 -1.0096  3.0396
20437SOL     OW72964   3.140   9.358   0.211 -0.0443  0.3195  0.4527
20437SOL    HW172965   3.223   9.384   0.161 -2.2208  1.9083 -2.5361
20437SOL    HW272966   3.152   9.378   0.308  1.9162  3.6495 -0.3750
20438SOL     OW72967   9.387   5.114   2.907  0.2107  0.7667 -0.4841
20438SOL    HW172968   9.393   5.098   3.006  0.0203  0.7154 -0.4821
20438SOL    HW272969   9.423   5.204   2.886  1.5250  0.2445 -0.5232
20439SOL     OW72970   0.073   7.010   6.366 -0.6340  0.3632  0.2189
20439SOL    HW172971   0.100   6.989   6.460 -2.2059  0.5892  0.7515
20439SOL    HW272972  -0.018   6.973   6.349 -0.9600  1.5632 -0.7490
20440SOL     OW72973   7.652   9.479   4.825  0.1274 -0.4953 -0.5560
20440SOL    HW172974   7.661   9.380   4.814 -0.2616 -0.6902  0.7380
20440SOL    HW272975   7.568   9.500   4.875  0.2752  0.4822 -0.6956
20441SOL     OW72976   0.031   0.571   0.150 -0.1684  0.3198 -0.2576
20441SOL    HW172977   0.056   0.600   0.243  0.5217 -0.8444 -0.0781
20441SOL    HW272978   0.088   0.494   0.122  1.4147  2.2941 -2.6628
20442SOL     OW72979   1.248   5.898   1.578 -0.1704 -0.3958  0.0699
20442SOL    HW172980   1.198   5.900   1.664 -0.7737  3.2305 -0.2698
20442SOL    HW272981   1.342   5.927   1.593  0.2493 -1.5569 -0.2341
20443SOL     OW72982   9.693   7.693   1.947  0.4520  0.4926  0.0872
20443SOL    HW172983   9.738   7.636   1.878  1.4225  1.3351  0.0196
20443SOL    HW272984   9.754   7.767   1.974 -0.3153  0.7560  1.1177
20444SOL     OW72985   2.752   9.636   3.843  0.2513 -0.4216 -0.0227
20444SOL    HW172986   2.797   9.708   3.896 -0.1553  0.6789 -1.1483
20444SOL    HW272987   2.692   9.677   3.775 -2.8406 -1.8863  1.7167
20445SOL     OW72988   8.254   2.712   7.334  1.1232 -0.2009 -0.1239
20445SOL    HW172989   8.278   2.727   7.238  1.6048  0.3603  0.0788
20445SOL    HW272990   8.274   2.795   7.386 -0.2302 -0.0927  0.2559
20446SOL     OW72991   2.909   0.987   0.204  0.1858  0.3105  0.2031
20446SOL    HW172992   2.942   0.977   0.298  2.1409  0.2546 -0.4603
20446SOL    HW272993   2.866   1.076   0.193  0.4798  0.5571  0.9947
20447SOL     OW72994   0.364   1.985   2.471 -0.7315 -0.0348 -0.2130
20447SOL    HW172995   0.418   2.060   2.433 -1.7654  0.7522 -0.1359
20447SOL    HW272996   0.317   1.937   2.397 -2.2696  1.1259 -0.0058
20448SOL     OW72997   0.452   5.983   7.200 -0.7881  0.2226 -0.4024
20448SOL    HW172998   0.358   5.965   7.171 -0.0628 -0.5182 -2.4440
20448SOL    HW272999   0.494   5.898   7.231  0.0946 -0.0362 -2.2537
20449SOL     OW73000   1.924   7.712   7.507 -0.0880  0.3452  0.1458
20449SOL    HW173001   1.949   7.758   7.592  0.3697 -3.2840  2.0812
20449SOL    HW273002   1.830   7.677   7.514  0.4321 -1.1870 -0.2284
20450SOL     OW73003   2.465   7.079   5.994 -0.3265  0.5909  0.4019
20450SOL    HW173004   2.502   7.168   5.966  0.2656 -0.0033 -0.7176
20450SOL    HW273005   2.402   7.045   5.925  0.7711 -0.6615 -0.0088
20451SOL     OW73006   2.482   8.811   1.167 -0.3509  0.1765  0.1065
20451SOL    HW173007   2.549   8.824   1.093 -0.6890 -1.4542 -0.5156
20451SOL    HW273008   2.492   8.884   1.234 -0.1505  1.7868 -1.6337
20452SOL     OW73009   2.675   9.185   5.723 -0.1053  0.2440 -0.0059
20452SOL    HW173010   2.579   9.204   5.745 -0.7090 -0.5201 -1.8639
20452SOL    HW273011   2.730   9.193   5.806 -1.6032  1.7233  0.8922
20453SOL     OW73012   6.074   4.234   2.055 -0.2527  0.5613  0.3075
20453SOL    HW173013   6.133   4.278   1.987  0.7019  1.0131  1.4007
20453SOL    HW273014   6.096   4.270   2.146 -1.0445 -0.5223  0.9387
20454SOL     OW73015   8.969   0.381   6.799  0.2040  0.1528  0.5440
20454SOL    HW173016   8.985   0.289   6.764 -2.8784  0.3100 -1.3915
20454SOL    HW273017   9.004   0.448   6.734 -1.3043  0.3834 -0.0445
20455SOL     OW73018   1.461   3.846   3.771 -0.3337  0.1910 -0.1441
20455SOL    HW173019   1.533   3.916   3.774  0.2129 -0.3742  0.1463
20455SOL    HW273020   1.376   3.887   3.739 -0.0208  0.9942  0.0303
20456SOL     OW73021   0.533   0.773   1.427 -0.1390 -0.3688  0.7678
20456SOL    HW173022   0.565   0.731   1.512  0.7743 -1.6902 -0.2131
20456SOL    HW273023   0.490   0.704   1.369 -1.6935  0.7244  0.5768
20457SOL     OW73024   9.082   6.975   0.482  0.0955 -0.4599  0.0896
20457SOL    HW173025   9.122   6.928   0.560  1.7157 -0.2931 -0.6272
20457SOL    HW273026   9.013   7.040   0.514 -0.4437 -1.5652  1.2489
20458SOL     OW73027   4.130   5.911   2.166  0.0299 -0.2624 -0.0008
20458SOL    HW173028   4.062   5.962   2.218  0.3744 -0.7646  0.9551
20458SOL    HW273029   4.199   5.875   2.228  0.3145 -1.0800 -0.7823
20459SOL     OW73030   2.810   4.493   6.373 -0.2625 -0.1879 -0.1826
20459SOL    HW173031   2.746   4.416   6.373  0.5184 -0.9229 -3.8603
20459SOL    HW273032   2.763   4.576   6.343 -0.4857  0.2281  1.2859
20460SOL     OW73033   7.342   2.119   0.817 -0.1404  0.1936 -0.1344
20460SOL    HW173034   7.357   2.211   0.780 -0.1550 -0.5529 -2.0900
20460SOL    HW273035   7.292   2.064   0.749 -0.5274 -1.1244  1.1879
20461SOL     OW73036   0.724   8.232   6.527 -0.5427  0.5499 -0.5315
20461SOL    HW173037   0.794   8.168   6.557 -0.5524  1.4426  1.5448
20461SOL    HW273038   0.757   8.285   6.449  0.3590 -0.3186 -0.7458
20462SOL     OW73039   0.787   3.175   3.494 -0.1709  0.0140 -0.5716
20462SOL    HW173040   0.703   3.215   3.531  0.3110  0.3745  0.1413
20462SOL    HW273041   0.851   3.247   3.470  1.5631 -0.3381  2.7635
20463SOL     OW73042   7.253   5.873   7.552  0.0857 -0.4452 -0.1636
20463SOL    HW173043   7.277   5.950   7.611 -0.2462  0.3477 -1.0498
20463SOL    HW273044   7.330   5.853   7.490 -0.3275  0.0193 -0.8247
20464SOL     OW73045   9.357   5.205   4.885 -0.2114 -0.2361  0.5414
20464SOL    HW173046   9.412   5.228   4.965  0.3120 -1.9587  0.6977
20464SOL    HW273047   9.331   5.109   4.889 -0.7833 -0.1613 -1.0142
20465SOL     OW73048   3.750   7.721   1.501 -0.1660 -0.2941  0.0762
20465SOL    HW173049   3.784   7.725   1.407 -1.2071 -1.1503 -0.3442
20465SOL    HW273050   3.652   7.736   1.502 -0.0152  0.7797  1.1492
20466SOL     OW73051   7.313   5.855   2.154 -0.2814  0.0681  0.7729
20466SOL    HW173052   7.244   5.783   2.161 -0.5478  0.0141 -1.6952
20466SOL    HW273053   7.399   5.823   2.193 -0.9797 -0.8023  1.6109
20467SOL     OW73054   4.900   9.451   1.251  0.0472  0.1191 -0.1833
20467SOL    HW173055   4.820   9.494   1.292  0.0089 -0.2829  0.1647
20467SOL    HW273056   4.954   9.405   1.322  0.7681  0.6678 -0.3638
20468SOL     OW73057   1.423   6.223   6.786 -0.0785 -0.4932  0.0077
20468SOL    HW173058   1.425   6.168   6.702 -0.8126  0.0285 -0.3514
20468SOL    HW273059   1.351   6.292   6.780  0.4892  0.1718  0.6783
20469SOL     OW73060   8.758   0.943   0.266 -0.0242  0.1795  0.3402
20469SOL    HW173061   8.741   0.854   0.308  1.9374  0.2171  1.2776
20469SOL    HW273062   8.827   0.932   0.194  0.0228  0.8922  0.2754
20470SOL     OW73063   3.781   8.838   0.277 -0.1920 -0.6019 -0.1376
20470SOL    HW173064   3.729   8.908   0.228  0.1278 -1.5254 -1.8542
20470SOL    HW273065   3.760   8.843   0.375 -1.1946  0.9947 -0.4094
20471SOL     OW73066   4.790   8.379   4.020 -0.3786 -0.2105  0.2853
20471SOL    HW173067   4.861   8.413   4.082 -0.0374  2.2499 -1.3871
20471SOL    HW273068   4.831   8.360   3.931 -1.3291 -1.4322  0.0963
20472SOL     OW73069   3.202   2.208   1.870 -0.2615 -0.0955 -0.0198
20472SOL    HW173070   3.215   2.307   1.879  0.3616 -0.1656 -0.1640
20472SOL    HW273071   3.180   2.186   1.775 -0.4790 -0.0878  0.0284
20473SOL     OW73072   8.402   5.854   7.419  0.3433  0.1372  0.1837
20473SOL    HW173073   8.492   5.818   7.393  0.1302  0.6039 -1.2786
20473SOL    HW273074   8.333   5.782   7.404  0.1354  0.6033 -1.2030
20474SOL     OW73075   8.299   3.471   4.392 -0.3378  0.5049  0.0342
20474SOL    HW173076   8.238   3.549   4.375  1.0431  1.6597  0.2933
20474SOL    HW273077   8.389   3.504   4.418  0.4701 -1.1915 -0.5426
20475SOL     OW73078   9.521   4.940   3.143  0.6353  0.4806 -0.1026
20475SOL    HW173079   9.546   4.894   3.058 -1.4600  0.9382 -1.0227
20475SOL    HW273080   9.531   4.877   3.220 -0.0187 -0.8089 -1.0567
20476SOL     OW73081   2.198   1.675   4.395  0.1230  0.2739  0.1518
20476SOL    HW173082   2.246   1.750   4.442  2.1479  0.4270 -2.0437
20476SOL    HW273083   2.111   1.709   4.359 -0.4553  0.7039  1.8736
20477SOL     OW73084   7.903   2.057   4.984 -0.5957 -0.6107 -0.5035
20477SOL    HW173085   7.873   2.148   4.957  1.5821 -0.3920 -2.3564
20477SOL    HW273086   7.968   2.022   4.916 -1.8583 -3.8021 -0.1627
20478SOL     OW73087   0.391   3.393   1.327 -0.1092  0.1445 -0.4049
20478SOL    HW173088   0.347   3.344   1.402  0.1151  0.3134 -0.1616
20478SOL    HW273089   0.461   3.455   1.364 -1.1041  1.4205 -0.6069
20479SOL     OW73090   0.554   4.273   3.231  0.6412  0.3658  0.0957
20479SOL    HW173091   0.557   4.173   3.226  0.1385  0.3275  0.4986
20479SOL    HW273092   0.526   4.311   3.143  0.0539  0.1131  0.1729
20480SOL     OW73093   7.202   2.590   2.048 -0.4309 -0.0011 -0.2368
20480SOL    HW173094   7.171   2.652   2.120  2.2924  1.5834 -0.3683
20480SOL    HW273095   7.215   2.498   2.086 -0.6244  0.4287  0.8859
20481SOL     OW73096   9.869   2.779   1.977  0.2087 -0.2591  0.1859
20481SOL    HW173097   9.928   2.772   2.058 -0.1313 -0.7359  0.3920
20481SOL    HW273098   9.920   2.824   1.903 -0.3112  2.6394  1.4826
20482SOL     OW73099   5.961   9.664   5.636 -0.0052 -0.0622  0.1189
20482SOL    HW173100   5.979   9.666   5.538  0.6500  0.8542  0.2565
20482SOL    HW273101   6.008   9.585   5.677  1.1205  0.5285 -0.0264
20483SOL     OW73102   4.695   1.077   7.075  0.1332 -0.3894 -0.1347
20483SOL    HW173103   4.660   1.168   7.095 -0.4955 -0.7482  0.4131
20483SOL    HW273104   4.630   1.027   7.018 -1.3335 -1.8443  2.7035
20484SOL     OW73105   2.718   4.993   2.944 -0.1907 -0.1121 -0.2428
20484SOL    HW173106   2.731   5.084   2.903 -1.9856 -0.4871 -1.7090
20484SOL    HW273107   2.736   4.998   3.042 -1.7500  2.1993 -0.0285
20485SOL     OW73108   1.867   6.265   2.132  0.5460 -0.2384 -0.3071
20485SOL    HW173109   1.964   6.285   2.140  0.5422 -0.2230 -0.2979
20485SOL    HW273110   1.817   6.350   2.116  0.4255 -0.1071  0.6954
20486SOL     OW73111   4.182   1.493   3.256  0.2330  0.3372  0.3704
20486SOL    HW173112   4.106   1.430   3.241 -0.6804  1.4169  0.4077
20486SOL    HW273113   4.263   1.441   3.282  0.2267 -1.0787 -2.2425
20487SOL     OW73114   5.963   6.552   0.916  0.3506  0.3700  0.3170
20487SOL    HW173115   5.873   6.593   0.901  1.1450  2.4572  1.1979
20487SOL    HW273116   6.019   6.564   0.834  0.1770 -0.0326  0.1376
20488SOL     OW73117   5.099   0.717   6.979 -0.0974  0.1096 -0.7498
20488SOL    HW173118   5.083   0.717   7.077 -0.4819 -0.9999 -0.8063
20488SOL    HW273119   5.076   0.807   6.941 -0.1226  0.4776  0.1412
20489SOL     OW73120   4.384   0.152   2.693 -0.0701 -0.5952 -0.1464
20489SOL    HW173121   4.332   0.130   2.775 -1.9480 -0.1206 -1.1880
20489SOL    HW273122   4.352   0.096   2.617  0.8821 -0.2313 -0.8328
20490SOL     OW73123   8.804   8.705   6.808  0.2737  0.2520 -0.1111
20490SOL    HW173124   8.880   8.670   6.863 -0.2967  1.7214  1.6668
20490SOL    HW273125   8.802   8.657   6.721  2.2619 -0.9332  0.4455
20491SOL     OW73126   4.541   5.180   7.233 -0.1459 -0.1800 -0.2779
20491SOL    HW173127   4.622   5.122   7.231  0.1522  0.2568 -2.0941
20491SOL    HW273128   4.537   5.229   7.320  1.4495 -0.3281 -0.1107
20492SOL     OW73129   3.096   9.773   3.295  0.5632  0.0929 -0.1766
20492SOL    HW173130   3.140   9.863   3.290  0.5547  0.3477  3.5805
20492SOL    HW273131   2.997   9.785   3.290  0.5846  0.2023 -0.3877
20493SOL     OW73132   1.592   4.383   7.967  0.4412  0.3496 -0.2313
20493SOL    HW173133   1.509   4.422   8.005 -0.5268 -0.5963 -1.3436
20493SOL    HW273134   1.583   4.375   7.867 -0.3439 -4.8656  0.1193
20494SOL     OW73135   8.042   7.881   1.860  0.1274  0.2924 -0.8682
20494SOL    HW173136   8.089   7.811   1.807  1.4145  0.9042 -0.5543
20494SOL    HW273137   8.049   7.969   1.813  0.5021  0.6597 -0.1318
20495SOL     OW73138   4.023   9.702   7.681 -0.0323  0.4594  0.2403
20495SOL    HW173139   4.096   9.649   7.639  0.2638  0.0637  1.2354
20495SOL    HW273140   4.063   9.775   7.737 -0.4139  0.8442  0.0152
20496SOL     OW73141   3.608   8.278   4.758  0.4551 -0.1620  0.2399
20496SOL    HW173142   3.679   8.309   4.821  0.2209  0.4008  0.2332
20496SOL    HW273143   3.553   8.357   4.728 -0.4475 -0.6484  0.5911
20497SOL     OW73144   1.981   3.812   3.895 -0.4601 -0.1231 -0.2784
20497SOL    HW173145   1.921   3.733   3.888  0.7513 -1.0234 -0.6271
20497SOL    HW273146   2.042   3.801   3.973 -2.1446  1.7788  1.3726
20498SOL     OW73147   1.601   3.375   0.687 -0.5122  0.0951 -0.0851
20498SOL    HW173148   1.527   3.427   0.644  0.3855  1.8175  0.3949
20498SOL    HW273149   1.598   3.389   0.786 -0.3735 -0.9470  0.0757
20499SOL     OW73150   9.772   7.170   0.500  0.1932 -0.3091 -0.5816
20499SOL    HW173151   9.783   7.144   0.596  1.5791  0.4800 -0.5069
20499SOL    HW273152   9.821   7.105   0.442  2.1979  1.0830 -0.5081
20500SOL     OW73153   6.184   1.641   0.820  0.0451  0.4361  0.5650
20500SOL    HW173154   6.096   1.684   0.799  0.9201  0.8558 -2.4003
20500SOL    HW273155   6.214   1.670   0.911 -2.5892  0.7098  1.4071
20501SOL     OW73156   2.639   1.603   1.010  0.1509 -0.5365 -0.5916
20501SOL    HW173157   2.731   1.568   1.026 -0.2142 -1.9587 -1.5818
20501SOL    HW273158   2.579   1.575   1.085  0.8973  1.9360  1.0200
20502SOL     OW73159   1.291   6.577   0.021  0.7097  0.3419  0.3009
20502SOL    HW173160   1.291   6.625   0.108 -2.4896  1.8839 -0.4733
20502SOL    HW273161   1.334   6.634  -0.049 -0.3508  0.8466  0.0424
20503SOL     OW73162   7.079   4.400   0.970 -0.1360  0.5648  0.2165
20503SOL    HW173163   7.031   4.473   1.017  0.4790 -0.0742  1.8783
20503SOL    HW273164   7.102   4.327   1.035 -0.2285 -0.8491 -1.2798
20504SOL     OW73165   0.850   8.886   1.314 -0.1182  0.1269  0.1693
20504SOL    HW173166   0.890   8.977   1.303 -1.0782  0.5192 -0.0922
20504SOL    HW273167   0.892   8.823   1.249 -1.0998  0.9155 -1.2315
20505SOL     OW73168   7.456   0.001   5.657  0.3851 -0.1966 -0.0779
20505SOL    HW173169   7.435   0.024   5.562  2.0124  1.1383 -0.1482
20505SOL    HW273170   7.533  -0.063   5.659  0.0860 -0.5387  0.3154
20506SOL     OW73171   8.588   9.944   2.919  0.2602 -0.2719  0.1139
20506SOL    HW173172   8.531  10.025   2.910 -1.5010 -1.2417  2.2608
20506SOL    HW273173   8.582   9.889   2.835 -2.0507 -0.4337  0.3781
20507SOL     OW73174   8.823   0.442   1.900 -0.0103  0.1479  0.0438
20507SOL    HW173175   8.730   0.412   1.918  0.3601 -1.0672  0.0205
20507SOL    HW273176   8.852   0.408   1.810  0.7232 -0.1680  0.3922
20508SOL     OW73177   1.797   5.410   3.100  0.3658 -0.0489 -0.1117
20508SOL    HW173178   1.735   5.481   3.068 -2.2830 -1.6352  1.3090
20508SOL    HW273179   1.769   5.322   3.063  1.8395 -0.7880  0.4798
20509SOL     OW73180   3.023   7.273   0.530 -0.0381 -0.2843 -0.2995
20509SOL    HW173181   3.089   7.204   0.500  0.1074 -0.2361 -0.0945
20509SOL    HW273182   3.067   7.334   0.596 -0.0102  0.3238 -0.8736
20510SOL     OW73183   3.922   5.069   3.663 -0.2500 -0.2320 -0.4149
20510SOL    HW173184   4.010   5.072   3.615  0.4003 -0.1624  0.7662
20510SOL    HW273185   3.930   5.118   3.750 -1.5218 -0.0485 -0.3979
20511SOL     OW73186   0.546   5.261   1.960  0.5431 -0.2561 -0.0415
20511SOL    HW173187   0.566   5.342   2.016 -1.1150 -0.9804  1.6525
20511SOL    HW273188   0.515   5.187   2.019  1.6793 -2.0286 -1.6294
20512SOL     OW73189   6.309   2.311   3.611 -0.0881 -0.1674 -0.3283
20512SOL    HW173190   6.292   2.253   3.690 -1.3939  0.1931 -0.3422
20512SOL    HW273191   6.311   2.407   3.639  1.4413 -0.1662 -0.4086
20513SOL     OW73192   8.158   7.629   6.859  0.0327  0.2320 -0.4084
20513SOL    HW173193   8.087   7.674   6.914 -0.8696 -0.2976 -1.1234
20513SOL    HW273194   8.247   7.670   6.880 -0.5334  1.1841  0.2005
20514SOL     OW73195   5.494   8.277   1.423 -0.4235 -0.1187 -0.4666
20514SOL    HW173196   5.479   8.189   1.467 -0.4352  0.9318  1.7431
20514SOL    HW273197   5.586   8.311   1.446  0.5414 -0.6350 -3.3038
20515SOL     OW73198   8.221   1.860   1.153 -0.3384  0.5581  0.2725
20515SOL    HW173199   8.192   1.834   1.245 -0.1835  2.7395  0.9645
20515SOL    HW273200   8.145   1.849   1.090 -0.3286 -1.3624  0.5449
20516SOL     OW73201   5.476   8.497   6.146  0.9887 -0.2134 -0.1573
20516SOL    HW173202   5.384   8.534   6.155  1.4428  1.0215 -0.3780
20516SOL    HW273203   5.542   8.572   6.151  1.8954 -0.8970 -1.4450
20517SOL     OW73204   6.125   1.583   0.175  0.1324  0.4322  0.4100
20517SOL    HW173205   6.086   1.674   0.165 -1.3016 -0.2110 -0.0782
20517SOL    HW273206   6.175   1.559   0.091  0.4959  0.7625  0.5321
20518SOL     OW73207   7.853   2.330   6.130  0.0639  1.3662  0.4552
20518SOL    HW173208   7.943   2.287   6.133 -0.0617  0.8875 -2.2392
20518SOL    HW273209   7.785   2.269   6.172  0.4729  0.4367 -0.2268
20519SOL     OW73210   1.018   2.466   0.820  0.2977 -0.4384  0.1651
20519SOL    HW173211   1.094   2.459   0.756  0.5746  0.9894  0.3125
20519SOL    HW273212   1.053   2.474   0.913 -0.0402 -0.1393  0.2680
20520SOL     OW73213   3.250   7.880   0.765  0.3860  0.0381 -0.1909
20520SOL    HW173214   3.257   7.786   0.733  1.3516 -0.1047  0.4048
20520SOL    HW273215   3.245   7.942   0.687  1.1727 -0.4153 -0.6077
20521SOL     OW73216   3.205   7.545   2.973 -0.3406 -0.1997 -0.4174
20521SOL    HW173217   3.277   7.561   2.905 -1.3129 -0.0879 -1.4424
20521SOL    HW273218   3.131   7.493   2.931 -0.4433 -1.1435  0.8924
20522SOL     OW73219   0.637   5.484   4.107 -0.2693 -0.3956  0.2863
20522SOL    HW173220   0.677   5.423   4.039  1.9322  1.1888  0.1343
20522SOL    HW273221   0.650   5.446   4.199  0.3815 -0.5481  0.1307
20523SOL     OW73222   9.460   5.001   3.624  0.1081 -0.2205  0.2249
20523SOL    HW173223   9.519   5.035   3.697  0.6349  0.5263 -0.5488
20523SOL    HW273224   9.418   5.078   3.576  1.0457 -0.6598 -1.3160
20524SOL     OW73225   8.919   3.246   5.570  0.4952  0.2101  0.0724
20524SOL    HW173226   8.851   3.212   5.635 -0.4891  0.4445 -0.8227
20524SOL    HW273227   8.977   3.314   5.615  0.2708 -0.1386  0.8983
20525SOL     OW73228   1.345   0.624   7.518  0.0500 -1.1712 -0.6441
20525SOL    HW173229   1.338   0.723   7.531 -0.0316 -1.2129 -0.3651
20525SOL    HW273230   1.394   0.584   7.596  1.7485 -1.1097 -1.6630
20526SOL     OW73231   2.266   6.171   5.728 -0.0581 -0.5827 -0.4304
20526SOL    HW173232   2.276   6.231   5.649 -0.3495  0.5785  0.4035
20526SOL    HW273233   2.343   6.186   5.791  0.3569 -1.7427 -0.6399
20527SOL     OW73234   9.409   3.455   0.613 -0.2655 -0.3572 -0.3383
20527SOL    HW173235   9.405   3.491   0.706  1.4668  0.7028 -0.6466
20527SOL    HW273236   9.323   3.408   0.592 -1.2630  0.6799  1.2582
20528SOL     OW73237   8.347   2.817   4.420 -0.0140  0.4577 -0.1373
20528SOL    HW173238   8.273   2.755   4.393 -0.9492  0.9544  1.2269
20528SOL    HW273239   8.425   2.763   4.453  0.0157 -0.0465 -1.0068
20529SOL     OW73240   5.858   2.028   8.169  0.8524 -0.2641  0.1037
20529SOL    HW173241   5.787   1.958   8.169 -0.9505  1.5084  0.2062
20529SOL    HW273242   5.831   2.104   8.228  1.9878  1.2758 -1.2747
20530SOL     OW73243   1.162   3.347   6.754  0.4008  0.2881  0.8381
20530SOL    HW173244   1.071   3.369   6.718  0.7019 -0.3690 -0.3403
20530SOL    HW273245   1.152   3.297   6.840 -0.3916 -1.2029 -0.1031
20531SOL     OW73246   8.468   4.448   3.329 -0.1690  0.0239  0.0449
20531SOL    HW173247   8.389   4.473   3.272  0.9573  0.1776 -1.4626
20531SOL    HW273248   8.439   4.383   3.398 -2.0342  1.4922  0.6984
20532SOL     OW73249   0.374   7.711   3.162  0.2582  0.8156 -0.6406
20532SOL    HW173250   0.456   7.691   3.108 -1.1415  1.7568 -3.1686
20532SOL    HW273251   0.339   7.625   3.201  1.2834  0.1131 -1.2353
20533SOL     OW73252   0.568   0.487   0.539 -0.0691 -0.1414 -0.3019
20533SOL    HW173253   0.659   0.462   0.507  0.0798 -2.6596  1.9806
20533SOL    HW273254   0.573   0.517   0.634 -2.0040 -3.1529  0.7931
20534SOL     OW73255   5.558   3.398   0.401  0.0837 -0.0885  0.0803
20534SOL    HW173256   5.556   3.393   0.501 -2.3250 -1.4439  0.0045
20534SOL    HW273257   5.598   3.314   0.364 -0.1329 -0.1088 -0.1106
20535SOL     OW73258   7.542   4.477   2.493 -0.2628  0.2739 -0.2803
20535SOL    HW173259   7.482   4.506   2.419 -0.0320  0.4532 -0.3973
20535SOL    HW273260   7.577   4.385   2.474  0.2245  0.5401 -0.6513
20536SOL     OW73261   1.184   7.495   0.369  0.0779  0.0785 -0.6432
20536SOL    HW173262   1.094   7.477   0.330 -0.0477 -0.4172 -0.1169
20536SOL    HW273263   1.174   7.543   0.456  0.1565 -3.6151  1.4935
20537SOL     OW73264   1.929   6.389   5.864  0.1198  0.4761 -0.3795
20537SOL    HW173265   1.871   6.331   5.805 -0.3750 -0.7032  1.2263
20537SOL    HW273266   1.982   6.330   5.925  0.7439  1.6894  0.2479
20538SOL     OW73267   6.562   2.032   0.331 -0.6762 -0.2247  0.5811
20538SOL    HW173268   6.622   1.952   0.335 -0.4953 -0.2420 -1.5789
20538SOL    HW273269   6.618   2.115   0.327 -0.7943 -0.2119 -0.9493
20539SOL     OW73270   1.357   7.984   6.214 -0.1730  0.3478 -0.0718
20539SOL    HW173271   1.370   7.885   6.200 -0.4378  0.1415  1.0401
20539SOL    HW273272   1.444   8.025   6.241 -0.8873 -0.3717  3.6957
20540SOL     OW73273   8.274   0.971   6.038 -0.5409 -0.3488  0.6783
20540SOL    HW173274   8.234   0.912   5.968  1.5803  1.1003 -1.8594
20540SOL    HW273275   8.363   0.933   6.065 -0.1156  0.5447  0.5475
20541SOL     OW73276   9.385   2.639   2.714 -0.1983 -0.1691  0.4802
20541SOL    HW173277   9.385   2.626   2.814  1.1781 -0.5289  0.4392
20541SOL    HW273278   9.460   2.586   2.674 -1.1167 -0.5003 -0.8181
20542SOL     OW73279   8.082   4.250   3.170  0.0002  0.1684 -1.0004
20542SOL    HW173280   8.016   4.324   3.181 -0.3314 -0.0869 -1.2678
20542SOL    HW273281   8.117   4.250   3.077  0.3809  0.3059 -0.8583
20543SOL     OW73282   2.739   7.585   7.483  0.7997  0.1105  0.0966
20543SOL    HW173283   2.804   7.654   7.514 -0.6423  1.6008 -0.1561
20543SOL    HW273284   2.686   7.552   7.562  2.0882 -1.3873  0.3687
20544SOL     OW73285   9.975   8.996   0.429 -0.6007 -0.5931  0.0855
20544SOL    HW173286   9.981   9.093   0.410 -0.8388 -0.5326  0.3133
20544SOL    HW273287  10.064   8.963   0.463  0.4032 -1.0910 -2.8524
20545SOL     OW73288   8.314   2.359   7.968 -0.1240 -0.0632 -0.5276
20545SOL    HW173289   8.321   2.330   7.872 -0.3309  0.8202 -0.8104
20545SOL    HW273290   8.218   2.352   7.998 -0.2404  0.6641 -0.7102
20546SOL     OW73291   6.360   8.646   4.022 -0.5190 -0.4123 -0.3855
20546SOL    HW173292   6.433   8.596   3.976 -1.2295 -1.4421 -0.4100
20546SOL    HW273293   6.374   8.744   4.010  1.4274 -0.5621  0.4722
20547SOL     OW73294   1.621   4.159   4.189 -0.4497  0.0599  0.0108
20547SOL    HW173295   1.650   4.073   4.229 -0.4857  0.9051  1.8852
20547SOL    HW273296   1.639   4.234   4.253 -2.4460  1.1815 -0.6986
20548SOL     OW73297   9.207   2.761   7.697  0.0297 -0.0923 -0.1482
20548SOL    HW173298   9.113   2.764   7.730  1.2299  0.1976  3.4910
20548SOL    HW273299   9.264   2.712   7.763  2.5450  0.3377 -1.9374
20549SOL     OW73300   1.605   4.020   5.865  0.4079  0.2181  0.1960
20549SOL    HW173301   1.694   4.041   5.906 -1.1870  2.4282  2.6300
20549SOL    HW273302   1.544   3.983   5.935 -0.8956 -0.4736 -1.2705
20550SOL     OW73303   1.365   5.827   3.098 -0.2792  0.1111 -0.0672
20550SOL    HW173304   1.359   5.907   3.156 -2.0724 -0.1592  0.1653
20550SOL    HW273305   1.318   5.750   3.142 -0.6793 -0.3993 -1.3364
20551SOL     OW73306   4.779   4.782   8.098 -0.0418 -0.0701  0.4533
20551SOL    HW173307   4.763   4.708   8.033  0.7795 -0.0736  0.2439
20551SOL    HW273308   4.692   4.819   8.129 -0.4430 -0.2938 -0.3895
20552SOL     OW73309   0.980   0.986   6.723  0.5349 -0.1453  0.2734
20552SOL    HW173310   0.887   1.023   6.729 -0.1363 -1.9422  1.3150
20552SOL    HW273311   1.042   1.045   6.774 -0.0808  0.9022 -0.1632
20553SOL     OW73312   1.656   5.702   3.417 -0.2973  0.6011  0.4821
20553SOL    HW173313   1.562   5.736   3.416 -0.8053 -0.6844 -2.6524
20553SOL    HW273314   1.711   5.754   3.352  0.5072 -0.3654  0.3821
20554SOL     OW73315   7.410   8.595   2.236 -0.1901 -0.2831  0.0475
20554SOL    HW173316   7.435   8.512   2.186  1.0968  1.2076 -1.8355
20554SOL    HW273317   7.444   8.676   2.187 -4.4972  1.6123 -0.1147
20555SOL     OW73318   0.335   2.133   6.237  0.0044  1.0268 -0.3299
20555SOL    HW173319   0.385   2.218   6.217  0.6228  0.5121 -0.9860
20555SOL    HW273320   0.400   2.058   6.247 -0.4163  0.9243  1.8989
20556SOL     OW73321   6.268   7.731   3.451 -0.2562  0.0351 -0.8724
20556SOL    HW173322   6.341   7.666   3.433  0.1018  0.1976 -0.0319
20556SOL    HW273323   6.251   7.737   3.549 -0.2754  1.2154 -0.9317
20557SOL     OW73324   3.715   7.645   2.576  0.1176  0.0814  0.0338
20557SOL    HW173325   3.635   7.683   2.529 -0.0110 -1.5630 -1.1160
20557SOL    HW273326   3.790   7.634   2.511  0.9204  0.5550  0.8687
20558SOL     OW73327   9.974   8.705   1.701  0.1674 -0.6893 -0.1353
20558SOL    HW173328  10.067   8.742   1.698 -0.9042  2.1413  0.4378
20558SOL    HW273329   9.947   8.675   1.610  0.4996  1.4785 -0.9715
20559SOL     OW73330   1.333   8.356   1.877 -0.1660  0.1878 -0.1447
20559SOL    HW173331   1.371   8.354   1.784  1.3966  0.7390  0.4692
20559SOL    HW273332   1.275   8.276   1.891  0.1265 -0.2510 -1.3787
20560SOL     OW73333   5.078   9.667   2.861  0.6269  0.1632  0.2796
20560SOL    HW173334   5.088   9.587   2.801 -0.9792 -0.4401  0.7891
20560SOL    HW273335   5.168   9.709   2.875  1.4436 -1.3170 -0.3169
20561SOL     OW73336   8.584   3.812   2.221  0.2012 -0.5770  0.1746
20561SOL    HW173337   8.566   3.808   2.319  2.7667 -1.2416  0.6539
20561SOL    HW273338   8.502   3.784   2.171 -1.8474  1.8528  2.0209
20562SOL     OW73339   7.293   5.571   0.572 -0.2648 -0.6548 -0.1865
20562SOL    HW173340   7.264   5.533   0.485 -0.7689  0.7421 -0.6443
20562SOL    HW273341   7.214   5.597   0.627  0.0511  2.3415 -1.0741
20563SOL     OW73342   1.941   5.298   6.739 -0.5414  0.0597 -0.2522
20563SOL    HW173343   1.926   5.342   6.650 -0.6194 -1.4912 -1.0330
20563SOL    HW273344   1.856   5.255   6.769 -0.1426 -0.6376 -0.1181
20564SOL     OW73345   2.926   9.682   1.481 -0.0216  0.2301  0.0129
20564SOL    HW173346   2.831   9.710   1.492 -0.3047  0.1037 -2.0098
20564SOL    HW273347   2.981   9.762   1.453  0.2493  0.0214 -0.0517
20565SOL     OW73348   6.009   6.315   1.043  0.7778 -0.5170  0.1378
20565SOL    HW173349   6.088   6.309   0.982  2.0178  0.2580  1.6150
20565SOL    HW273350   5.957   6.398   1.023 -1.2590 -2.3827 -2.6508
20566SOL     OW73351   2.188   5.540   3.938 -0.3530  0.0085 -0.7060
20566SOL    HW173352   2.204   5.609   3.868  0.0706 -1.3466 -1.9852
20566SOL    HW273353   2.273   5.524   3.989 -0.6884  1.0681  0.1775
20567SOL     OW73354   8.891   2.854   6.468  0.6273 -0.0831 -0.3231
20567SOL    HW173355   8.918   2.950   6.481 -0.7037  0.3543 -0.7532
20567SOL    HW273356   8.921   2.801   6.547  0.1674  0.9499  0.5598
20568SOL     OW73357   9.090   0.906   5.826 -0.1361 -0.6248 -0.2103
20568SOL    HW173358   9.029   0.921   5.748 -1.3018  1.4875  1.0470
20568SOL    HW273359   9.153   0.984   5.835  1.1006 -1.6216 -0.0042
20569SOL     OW73360   3.976   3.069   0.875 -0.8564 -0.4262 -0.2291
20569SOL    HW173361   3.913   3.145   0.861 -0.8896 -0.8651 -2.7197
20569SOL    HW273362   4.028   3.053   0.791  2.0961 -0.5066  1.5611
20570SOL     OW73363   7.543   6.188   5.205  1.1254 -0.2396  0.5096
20570SOL    HW173364   7.637   6.156   5.195  0.8495 -0.8622 -0.1439
20570SOL    HW273365   7.516   6.181   5.301  1.4409 -0.9504  0.5530
20571SOL     OW73366   5.736   8.132   5.966  0.3846  0.3735  0.2090
20571SOL    HW173367   5.692   8.065   5.907  0.7482 -0.6056  1.0529
20571SOL    HW273368   5.716   8.224   5.932  1.4988 -0.2011 -2.0816
20572SOL     OW73369   1.644   8.035   0.247 -0.2392 -0.2481  0.6873
20572SOL    HW173370   1.679   8.055   0.156  1.3391 -1.0148  1.1208
20572SOL    HW273371   1.628   7.937   0.256  0.8351 -0.3462  1.6583
20573SOL     OW73372   1.026   6.359   7.729 -0.1220  0.6206 -0.3985
20573SOL    HW173373   0.936   6.377   7.690 -0.8012 -0.8865  0.4266
20573SOL    HW273374   1.015   6.319   7.821  1.3976  1.4092  0.1386
20574SOL     OW73375   3.416   7.693   0.296 -0.6174 -0.2714 -0.3667
20574SOL    HW173376   3.414   7.593   0.284  0.6597 -0.3258 -0.2467
20574SOL    HW273377   3.473   7.734   0.225 -0.8518  0.3366 -0.2031
20575SOL     OW73378   4.326   0.854   4.478  0.0709  0.0235 -0.6696
20575SOL    HW173379   4.324   0.771   4.423  0.4149 -0.1841 -0.3687
20575SOL    HW273380   4.385   0.922   4.434  3.1481 -1.3636  1.1693
20576SOL     OW73381   9.895   9.904   3.633 -0.1929  0.0535 -0.0893
20576SOL    HW173382   9.977   9.954   3.604 -0.7890  0.0826 -1.8152
20576SOL    HW273383   9.852   9.950   3.710  0.5738  0.8871 -0.1588
20577SOL     OW73384   9.213   2.810   5.140  0.5009 -0.2903  0.2335
20577SOL    HW173385   9.133   2.869   5.142  0.6283 -0.1437  1.7631
20577SOL    HW273386   9.296   2.866   5.134  0.5510 -0.3957 -0.1008
20578SOL     OW73387   1.115   1.738   7.544  0.5239  0.5008  0.2195
20578SOL    HW173388   1.045   1.785   7.599 -0.5039 -0.7496  0.0087
20578SOL    HW273389   1.086   1.644   7.527  1.2600  0.5862 -1.6701
20579SOL     OW73390   0.806   9.144   4.076  0.5658 -0.5474  0.0484
20579SOL    HW173391   0.812   9.202   4.157  2.7351 -0.6699  0.0025
20579SOL    HW273392   0.790   9.049   4.104  1.3486 -0.5955  0.3649
20580SOL     OW73393   0.355   8.829   1.932 -0.1467  0.3334  0.0865
20580SOL    HW173394   0.425   8.809   2.001 -1.8654  0.7794  2.0274
20580SOL    HW273395   0.311   8.743   1.903  0.5119  0.1545 -0.3770
20581SOL     OW73396   2.888   7.696   1.615  0.2507  0.5909 -0.2506
20581SOL    HW173397   2.902   7.768   1.683  0.1704  0.2193  0.1607
20581SOL    HW273398   2.870   7.738   1.526 -2.6416  1.1323  0.5168
20582SOL     OW73399   4.061   8.603   1.282  0.1792  0.1908 -0.2283
20582SOL    HW173400   4.035   8.681   1.225 -0.5909 -0.2180 -0.4487
20582SOL    HW273401   4.073   8.633   1.377 -1.4862  0.3213 -0.0497
20583SOL     OW73402   9.100   4.831   0.819 -0.3046  0.0371  0.1817
20583SOL    HW173403   9.024   4.855   0.880  1.5358  0.7688  2.2199
20583SOL    HW273404   9.184   4.821   0.872  1.0223 -0.8772 -2.0374
20584SOL     OW73405   9.806   4.569   1.107 -0.0880 -0.0872 -0.3900
20584SOL    HW173406   9.718   4.608   1.136 -0.6067 -0.9788 -0.7075
20584SOL    HW273407   9.789   4.498   1.038  0.7829 -1.0834  0.4000
20585SOL     OW73408   7.848   5.000   3.196  0.2023  0.6644  0.4704
20585SOL    HW173409   7.831   4.925   3.132  0.2074  1.7215 -0.7944
20585SOL    HW273410   7.946   5.009   3.211  0.0899 -0.9860  2.3562
20586SOL     OW73411   5.464   3.681   1.832 -0.1174  0.7833  0.0182
20586SOL    HW173412   5.367   3.680   1.857 -0.4647  0.2436 -1.2972
20586SOL    HW273413   5.472   3.668   1.733  1.2514  1.8582 -0.0193
20587SOL     OW73414   6.422   0.848   5.408 -0.4513 -0.7700  0.0465
20587SOL    HW173415   6.411   0.938   5.365 -2.6576 -1.0832 -0.0830
20587SOL    HW273416   6.507   0.807   5.375  0.2165  0.9413 -0.4624
20588SOL     OW73417   3.611   9.542   7.317  0.4953 -0.3161  0.2670
20588SOL    HW173418   3.660   9.613   7.367 -1.6263  1.6747 -0.3605
20588SOL    HW273419   3.588   9.575   7.226 -1.6162 -1.3418  0.3894
20589SOL     OW73420   4.213   1.717   4.512 -0.0475  0.1068 -0.1589
20589SOL    HW173421   4.129   1.691   4.559 -0.3124 -1.4495 -1.4230
20589SOL    HW273422   4.285   1.651   4.534  0.7489  1.2385  0.6524
20590SOL     OW73423   2.832   7.963   0.618 -0.0058  0.3684 -0.2137
20590SOL    HW173424   2.765   8.036   0.601  1.1639  1.4852 -0.0894
20590SOL    HW273425   2.817   7.889   0.552  0.4049  1.8433 -2.0384
20591SOL     OW73426   8.610   5.461   0.389 -0.2636 -0.6712  0.1618
20591SOL    HW173427   8.656   5.533   0.338 -0.2343 -0.7614  0.0602
20591SOL    HW273428   8.634   5.468   0.485 -1.0304  0.0503  0.3107
20592SOL     OW73429   9.665   1.762   3.677 -0.2201 -0.2303  0.6143
20592SOL    HW173430   9.725   1.829   3.720 -0.8823  0.7034  0.0892
20592SOL    HW273431   9.664   1.678   3.732  0.9954 -0.0005  1.0035
20593SOL     OW73432   8.096   8.293   6.848 -0.1088  0.4460 -0.1680
20593SOL    HW173433   8.155   8.296   6.768  0.5880 -1.0563  0.2825
20593SOL    HW273434   8.088   8.385   6.886  1.2951  0.8043 -0.7012
20594SOL     OW73435   8.434   0.646   4.687 -0.3551 -0.4486  0.4764
20594SOL    HW173436   8.439   0.645   4.787 -2.8228 -0.2973  0.6309
20594SOL    HW273437   8.472   0.731   4.652  0.5561 -0.5192  1.2672
20595SOL     OW73438   1.067   8.879   5.064 -0.1822  0.0694 -0.0986
20595SOL    HW173439   1.004   8.943   5.020 -1.6640 -0.4429  1.2493
20595SOL    HW273440   1.070   8.897   5.162  2.2192  0.4503 -0.2025
20596SOL     OW73441   8.309   1.158   5.672  0.0194  0.0885 -0.2476
20596SOL    HW173442   8.223   1.156   5.723 -0.2919 -2.8894 -0.7621
20596SOL    HW273443   8.368   1.084   5.706  1.6990  1.0658 -1.0195
20597SOL     OW73444   2.675   6.937   7.249 -0.1628  0.1463 -0.6391
20597SOL    HW173445   2.704   7.032   7.246 -0.3249  0.2815  1.3939
20597SOL    HW273446   2.586   6.931   7.296 -0.8304 -0.8580 -1.9870
20598SOL     OW73447   7.212   2.944   2.898  0.1274  0.6011  0.3226
20598SOL    HW173448   7.165   2.880   2.959 -0.3429  0.1092 -0.5549
20598SOL    HW273449   7.146   3.008   2.859  0.1717 -0.0700 -0.8878
20599SOL     OW73450   1.495   0.088   3.181 -0.2583  0.5959 -0.3539
20599SOL    HW173451   1.469   0.020   3.251  1.0228  0.0560 -0.3782
20599SOL    HW273452   1.511   0.176   3.225 -0.8100  0.6004 -0.1577
20600SOL     OW73453   4.158   5.131   7.806  0.0544 -0.2544  0.3528
20600SOL    HW173454   4.092   5.069   7.849 -0.5540  0.2422  0.1316
20600SOL    HW273455   4.111   5.193   7.745  0.6109  0.7761  0.9566
20601SOL     OW73456   1.146   0.434   4.084 -0.4693 -0.0805 -0.5488
20601SOL    HW173457   1.161   0.336   4.070  0.8877  0.3138 -2.1193
20601SOL    HW273458   1.123   0.451   4.179 -0.2866 -1.8857 -0.1566
20602SOL     OW73459   9.497   0.410   4.197 -0.2804 -0.4037 -0.1557
20602SOL    HW173460   9.581   0.359   4.181  0.1583 -0.3167  1.7043
20602SOL    HW273461   9.520   0.501   4.234 -1.2081 -1.0655  2.1576
20603SOL     OW73462   2.931   2.386   2.070  0.3280  0.1370 -0.5453
20603SOL    HW173463   2.962   2.291   2.078  0.7080  0.3509  0.6537
20603SOL    HW273464   3.003   2.448   2.102  0.4513  0.8928 -2.2068
20604SOL     OW73465   7.678   2.972   5.572  0.2564  0.2890  0.1991
20604SOL    HW173466   7.702   3.002   5.664 -0.4214 -2.7317  1.3923
20604SOL    HW273467   7.580   2.960   5.565  0.4193 -0.6033 -0.5897
20605SOL     OW73468   5.206   2.997   7.768  0.0686  0.3509 -0.0390
20605SOL    HW173469   5.213   2.900   7.743 -1.1106  0.3579 -0.4227
20605SOL    HW273470   5.123   3.011   7.822 -0.6827  1.4458 -1.4443
20606SOL     OW73471   3.866   2.827   5.174 -0.0718  0.1079  0.5194
20606SOL    HW173472   3.944   2.823   5.111  0.6917 -0.3923  1.4829
20606SOL    HW273473   3.857   2.920   5.209  0.2393  0.1127  0.5895
20607SOL     OW73474   7.320   7.560   5.437 -0.1833 -0.0416 -0.1407
20607SOL    HW173475   7.349   7.654   5.457  0.1601  0.0555 -1.0828
20607SOL    HW273476   7.289   7.516   5.522 -0.3327  0.9146  0.3067
20608SOL     OW73477   0.388   6.449   7.836  0.0825  0.3744 -0.7089
20608SOL    HW173478   0.418   6.439   7.741 -0.2495 -0.5339 -0.7255
20608SOL    HW273479   0.462   6.487   7.890  0.7805 -0.4752 -1.0435
20609SOL     OW73480   4.133   2.124   3.779 -0.4237  0.1325  0.0481
20609SOL    HW173481   4.130   2.056   3.706 -1.4916  1.5042 -1.2283
20609SOL    HW273482   4.156   2.080   3.866 -0.2823 -1.7026 -0.9105
20610SOL     OW73483   1.688   4.117   7.626 -0.5141  0.2789 -0.0579
20610SOL    HW173484   1.767   4.106   7.686 -0.4425  0.2172 -0.1640
20610SOL    HW273485   1.715   4.099   7.532 -0.5419  0.7252 -0.1543
20611SOL     OW73486   9.477   9.126   0.429  0.0640 -0.4951  0.3596
20611SOL    HW173487   9.478   9.053   0.361  2.4019 -1.5688  1.4923
20611SOL    HW273488   9.543   9.197   0.403  0.1701 -0.3746  0.9430
20612SOL     OW73489   2.445   8.974   7.080 -0.5841 -0.5460  0.5203
20612SOL    HW173490   2.475   9.037   7.151  1.3617 -1.9484  0.9858
20612SOL    HW273491   2.451   9.018   6.990 -0.1774  0.2373  0.9312
20613SOL     OW73492   0.561   6.114   4.880  0.1619  0.2799  0.5446
20613SOL    HW173493   0.626   6.051   4.838 -0.2918 -0.0166  0.2847
20613SOL    HW273494   0.595   6.207   4.871 -1.1705  0.5106 -2.8846
20614SOL     OW73495   1.697   9.028   4.715  0.2297 -0.0946  0.4700
20614SOL    HW173496   1.732   9.122   4.719  0.4387 -0.1922  0.9836
20614SOL    HW273497   1.759   8.967   4.763  0.3183 -0.5725 -0.2324
20615SOL     OW73498   1.749   5.543   0.491  0.4430 -0.4984 -0.0152
20615SOL    HW173499   1.663   5.586   0.464  1.5075  1.5112 -0.2876
20615SOL    HW273500   1.793   5.502   0.411 -0.6121 -2.2392  0.2597
20616SOL     OW73501   3.007   9.022   0.824  0.1424  0.2340  0.6257
20616SOL    HW173502   3.057   8.944   0.787  0.1304 -0.7448  2.6181
20616SOL    HW273503   3.071   9.085   0.869 -0.3069 -0.7450  2.6923
20617SOL     OW73504   1.130   2.921   5.018 -0.4841 -0.2220 -0.5303
20617SOL    HW173505   1.145   3.006   5.067 -1.2180 -1.0301  1.1216
20617SOL    HW273506   1.158   2.932   4.922 -0.9977  1.9819 -0.4350
20618SOL     OW73507   8.644   4.816   0.343  0.3329  0.4144 -0.7550
20618SOL    HW173508   8.646   4.716   0.351 -1.6145  0.3029 -1.3593
20618SOL    HW273509   8.589   4.841   0.263  0.7311  1.9835 -0.5452
20619SOL     OW73510   7.223   8.788   4.103 -0.5035 -0.3781  0.2368
20619SOL    HW173511   7.254   8.779   4.008  2.2935 -1.6676  1.2075
20619SOL    HW273512   7.145   8.728   4.118 -0.3857 -0.8680 -1.0214
20620SOL     OW73513   2.330   6.079   1.899  0.0597  0.1940 -0.0800
20620SOL    HW173514   2.275   6.004   1.862 -2.8582  1.0485  2.3151
20620SOL    HW273515   2.300   6.165   1.857  0.0391  0.5823  0.7267
20621SOL     OW73516   6.797   1.802   5.667 -0.4302 -0.1542  0.1662
20621SOL    HW173517   6.719   1.865   5.670 -0.3353 -0.0746  1.3513
20621SOL    HW273518   6.781   1.727   5.732 -0.3611 -1.1398 -0.9406
20622SOL     OW73519   1.432   2.774   2.866 -0.0138 -0.1673  0.0500
20622SOL    HW173520   1.522   2.748   2.832  0.5511  1.4403  0.2626
20622SOL    HW273521   1.390   2.839   2.803 -1.0417 -0.9272 -0.0617
20623SOL     OW73522   1.829   0.409   2.408  0.4503  0.6274 -0.0908
20623SOL    HW173523   1.794   0.477   2.472 -2.0011  0.0019 -0.7107
20623SOL    HW273524   1.856   0.326   2.459  0.1700  0.7731  0.2940
20624SOL     OW73525   1.243   8.080   2.195  0.0991 -1.2986 -0.3880
20624SOL    HW173526   1.148   8.083   2.223  0.5006 -0.7950  0.9482
20624SOL    HW273527   1.301   8.068   2.275  1.3705  1.6075 -0.8194
20625SOL     OW73528   7.044   2.160   3.775  0.1976  0.2611 -0.3336
20625SOL    HW173529   6.967   2.098   3.784 -0.4394  1.1494  0.3608
20625SOL    HW273530   7.057   2.184   3.679 -0.9412  0.8167 -0.3474
20626SOL     OW73531   3.088   7.664   0.264  0.0446 -0.7497 -0.1070
20626SOL    HW173532   3.172   7.681   0.315  1.3904 -2.1380 -1.8160
20626SOL    HW273533   3.036   7.590   0.308  0.1448 -0.4951  0.4390
20627SOL     OW73534   5.656   3.957   1.831  0.4651  0.3995  0.0871
20627SOL    HW173535   5.598   3.875   1.832 -0.0257  0.7477  0.2993
20627SOL    HW273536   5.751   3.930   1.814  0.2126 -0.1575 -0.4984
20628SOL     OW73537   6.485   0.129   2.794  0.2645 -0.4265  0.5771
20628SOL    HW173538   6.403   0.086   2.758  0.5665 -2.6833  2.4458
20628SOL    HW273539   6.485   0.226   2.771 -3.4674 -0.1344  1.5150
20629SOL     OW73540   2.152   5.013   6.392  0.2295  0.0695 -0.7199
20629SOL    HW173541   2.172   5.096   6.339  0.4381 -0.8164 -2.0736
20629SOL    HW273542   2.222   5.001   6.462  0.3593  0.8906 -0.7005
20630SOL     OW73543   0.836   5.282   6.875  0.0384  0.2021  0.2968
20630SOL    HW173544   0.839   5.245   6.782  1.0938  0.6071  0.1649
20630SOL    HW273545   0.908   5.350   6.887 -1.5366  1.8397  0.7084
20631SOL     OW73546   4.132   4.410   3.290  0.1664  0.2476  0.0613
20631SOL    HW173547   4.188   4.491   3.309  2.1131  0.0122 -3.9783
20631SOL    HW273548   4.036   4.437   3.285  0.5174  1.8162  1.2642
20632SOL     OW73549   8.476   8.701   7.444  0.1667 -0.2790 -0.2713
20632SOL    HW173550   8.461   8.783   7.499 -0.6427 -0.6838  0.1193
20632SOL    HW273551   8.478   8.726   7.347  0.3842  0.2642 -0.1293
20633SOL     OW73552   3.385   5.331   3.575  0.6968  0.6067 -0.3810
20633SOL    HW173553   3.381   5.258   3.643  0.6479 -0.4619 -1.5178
20633SOL    HW273554   3.405   5.418   3.621 -0.7777  0.1607  1.1634
20634SOL     OW73555   7.061   9.210   6.367 -0.4578 -0.2007  0.0503
20634SOL    HW173556   7.149   9.170   6.394  0.7959  2.0284 -0.6440
20634SOL    HW273557   7.037   9.177   6.276  0.2977  0.1860 -0.2929
20635SOL     OW73558   9.468   1.931   7.235 -0.2873  0.0733 -0.0144
20635SOL    HW173559   9.384   1.933   7.288  1.2305  2.0730  2.4357
20635SOL    HW273560   9.487   2.023   7.200 -0.4078 -0.8864 -2.7009
20636SOL     OW73561   7.606   6.934   6.483 -0.1009  0.1846 -0.7865
20636SOL    HW173562   7.685   6.986   6.451 -1.2098  1.6267 -1.3031
20636SOL    HW273563   7.635   6.864   6.547  1.5469  0.9759 -0.6397
20637SOL     OW73564   9.879   3.568   4.331 -0.2828  0.0371 -0.2036
20637SOL    HW173565   9.907   3.620   4.411 -1.7499 -1.8208  1.5645
20637SOL    HW273566   9.917   3.611   4.249  0.1022  2.7769  1.3309
20638SOL     OW73567   7.805   6.146   4.206  0.4249 -0.1308  0.0603
20638SOL    HW173568   7.851   6.070   4.251  1.4140  1.1119  1.1624
20638SOL    HW273569   7.833   6.150   4.110 -0.3563 -1.7138 -0.2550
20639SOL     OW73570   8.071   3.317   2.718 -0.1476 -0.5031  0.3951
20639SOL    HW173571   7.978   3.320   2.682  0.4361 -0.3647 -1.1613
20639SOL    HW273572   8.118   3.237   2.680  1.4427  1.3025 -1.6070
20640SOL     OW73573   7.086   9.196   4.078  0.1370 -0.1190  0.2574
20640SOL    HW173574   7.178   9.206   4.115  0.7160  0.5358 -1.2904
20640SOL    HW273575   7.058   9.100   4.083  0.2512 -0.0668  2.1863
20641SOL     OW73576   9.792   7.536   7.336  0.4584 -0.1370  0.3271
20641SOL    HW173577   9.886   7.550   7.366  1.3003  0.0256 -2.2107
20641SOL    HW273578   9.755   7.621   7.299 -0.8846 -0.0699  1.7869
20642SOL     OW73579   1.093   8.901   6.060  0.0254  0.6584 -0.2538
20642SOL    HW173580   1.033   8.962   6.008  1.3539  1.4331 -0.9152
20642SOL    HW273581   1.161   8.956   6.110  0.9157 -0.2506 -0.4565
20643SOL     OW73582   5.860   0.241   1.822  0.3933 -0.0891 -0.7042
20643SOL    HW173583   5.789   0.201   1.880  0.8931  1.1276  0.7905
20643SOL    HW273584   5.835   0.336   1.800  1.2938  0.1717 -0.6113
20644SOL     OW73585   6.604   0.644   2.562 -0.5644 -0.1115  0.1037
20644SOL    HW173586   6.647   0.734   2.557  3.2757 -1.9835 -2.2262
20644SOL    HW273587   6.584   0.622   2.658  2.7964  1.2528  1.1807
20645SOL     OW73588   4.487   0.626   1.476  0.2033  0.7425  0.5277
20645SOL    HW173589   4.521   0.660   1.388 -1.1008  1.1478  0.1682
20645SOL    HW273590   4.447   0.535   1.464 -2.4312  1.9007  0.1298
20646SOL     OW73591   8.165   9.742   7.022 -0.1340  0.4508 -0.4056
20646SOL    HW173592   8.167   9.842   7.028  0.5710  0.3623  1.0285
20646SOL    HW273593   8.257   9.705   7.037 -0.5567 -0.4604  0.0059
20647SOL     OW73594   8.272   9.045   0.170 -0.3815 -0.3703  0.0238
20647SOL    HW173595   8.345   9.096   0.215 -1.0429 -0.3422  1.0933
20647SOL    HW273596   8.184   9.069   0.211 -0.8947 -1.0885 -0.6251
20648SOL     OW73597   4.573   3.630   6.787 -0.3555  0.5569  0.0186
20648SOL    HW173598   4.500   3.679   6.740 -0.8782 -0.1455  0.0852
20648SOL    HW273599   4.602   3.681   6.868 -2.1424 -0.1019  1.1072
20649SOL     OW73600   3.589   4.334   5.384 -0.1208 -0.4279 -0.4347
20649SOL    HW173601   3.515   4.271   5.363 -1.7853  1.8715 -1.8351
20649SOL    HW273602   3.570   4.381   5.471 -1.4017  1.5976 -1.7501
20650SOL     OW73603   7.551   0.195   2.298  0.0490 -0.4561  0.2705
20650SOL    HW173604   7.578   0.230   2.387 -0.8180 -1.4721  0.9403
20650SOL    HW273605   7.491   0.262   2.253  1.0705  0.3780  0.1228
20651SOL     OW73606   8.055   1.439   4.359  0.0232  0.0264  0.4397
20651SOL    HW173607   8.032   1.529   4.323  1.0976  0.0267 -0.2650
20651SOL    HW273608   8.020   1.430   4.453  0.6503  1.4948  0.8231
20652SOL     OW73609   2.665   0.894   4.642  0.0029 -0.4614 -0.2058
20652SOL    HW173610   2.668   0.950   4.725 -1.6605  0.7460 -0.9192
20652SOL    HW273611   2.611   0.942   4.572 -0.4498 -2.4455 -1.2402
20653SOL     OW73612   9.437   7.953   7.310 -0.4979 -0.1731 -0.3311
20653SOL    HW173613   9.508   8.022   7.298  0.6735 -1.3927 -0.5387
20653SOL    HW273614   9.464   7.890   7.383 -1.4000 -0.6108 -0.3623
20654SOL     OW73615   9.137   1.353   5.775  0.3703 -0.2405  0.4568
20654SOL    HW173616   9.132   1.394   5.866  1.9260 -0.2944  0.5781
20654SOL    HW273617   9.057   1.380   5.722  0.4576  1.4369  1.1605
20655SOL     OW73618   8.114   8.278   5.928  0.2344  0.3701 -0.0098
20655SOL    HW173619   8.054   8.293   5.849  0.2962 -1.5600 -0.4527
20655SOL    HW273620   8.069   8.216   5.992  2.4578 -2.6370 -1.2384
20656SOL     OW73621   9.416   7.948   2.445 -0.4605 -0.4705  0.2649
20656SOL    HW173622   9.468   7.865   2.428  0.1452 -0.6883  2.9404
20656SOL    HW273623   9.326   7.925   2.480 -0.6413 -0.0192  0.1052
20657SOL     OW73624   2.896   2.346   0.394 -0.1719  0.3140  0.4242
20657SOL    HW173625   2.958   2.296   0.454 -0.7345  0.9967  1.5946
20657SOL    HW273626   2.845   2.414   0.448  0.5120  2.0806 -1.0940
20658SOL     OW73627   5.090   0.369   4.678 -0.3636  0.0031 -0.0143
20658SOL    HW173628   5.028   0.296   4.650  0.6770 -0.3180 -1.5485
20658SOL    HW273629   5.038   0.442   4.722 -1.4563 -1.5047  1.2447
20659SOL     OW73630   7.610   0.966   6.928 -0.3512 -0.1147 -0.0450
20659SOL    HW173631   7.697   0.921   6.907  0.4439  0.6243  1.5493
20659SOL    HW273632   7.601   1.050   6.874 -0.0482 -0.1605 -0.1657
20660SOL     OW73633   9.841   0.487   7.741 -0.0546 -0.6041 -0.6268
20660SOL    HW173634   9.892   0.511   7.824 -2.2731 -0.1670  0.6739
20660SOL    HW273635   9.788   0.566   7.711 -2.2736 -1.8699 -0.1680
20661SOL     OW73636   4.155   0.150   1.859 -0.6355  0.0415  0.1780
20661SOL    HW173637   4.143   0.221   1.927 -0.2920 -1.9792  2.4000
20661SOL    HW273638   4.252   0.140   1.838 -0.8887  2.2477 -2.4345
20662SOL     OW73639   0.619   1.280   1.858  0.0694  0.2967  0.3996
20662SOL    HW173640   0.590   1.187   1.878 -1.2333  0.0926 -2.1681
20662SOL    HW273641   0.590   1.341   1.932 -1.8823 -0.8543  0.6167
20663SOL     OW73642   9.503   1.083   8.092 -0.1774  0.5760 -0.4754
20663SOL    HW173643   9.432   1.026   8.133 -0.4464 -0.4580 -2.3398
20663SOL    HW273644   9.479   1.104   7.997  2.8053 -1.2583 -1.7269
20664SOL     OW73645   7.656   1.717   0.109 -0.1454  0.2031  0.4874
20664SOL    HW173646   7.604   1.633   0.099 -2.6731  1.7775 -0.1016
20664SOL    HW273647   7.614   1.789   0.054  1.0781  2.2433  2.1357
20665SOL     OW73648   7.703   0.194   7.560  0.2147  0.2034  0.2528
20665SOL    HW173649   7.701   0.248   7.645  0.4400 -0.0983  0.4466
20665SOL    HW273650   7.628   0.224   7.501  0.1723  0.5452  0.4769
20666SOL     OW73651   3.021   5.043   0.465  0.4630  0.3875 -0.0348
20666SOL    HW173652   3.019   5.073   0.370 -0.1176 -0.1940 -0.2084
20666SOL    HW273653   3.042   5.121   0.524 -3.0433  1.5917 -0.3005
20667SOL     OW73654   5.304   9.897   0.734 -0.9649  0.5861  0.5528
20667SOL    HW173655   5.344   9.805   0.727  0.6724  1.1117  2.4489
20667SOL    HW273656   5.218   9.892   0.786 -0.7445  0.1614  0.8829
20668SOL     OW73657   2.962   8.120   0.436 -0.1070 -0.1280  0.0747
20668SOL    HW173658   2.927   8.073   0.516  2.5525 -0.1183  1.3114
20668SOL    HW273659   2.953   8.061   0.356  0.8159 -1.7401  1.1241
20669SOL     OW73660   6.842   8.436   4.620  0.1568  0.0691  0.1569
20669SOL    HW173661   6.776   8.384   4.566  1.1975  0.8138 -1.8931
20669SOL    HW273662   6.884   8.376   4.688 -1.9108 -0.6435  0.8179
20670SOL     OW73663   7.531   2.347   7.898  1.0697  0.0238 -0.1372
20670SOL    HW173664   7.534   2.355   7.798  0.9718 -0.2309 -0.1588
20670SOL    HW273665   7.579   2.265   7.926  0.9566  0.0106  0.0176
20671SOL     OW73666   2.309   5.822   7.133 -0.3181  0.1752  0.1066
20671SOL    HW173667   2.391   5.844   7.080 -1.0219 -0.8932 -1.4842
20671SOL    HW273668   2.332   5.816   7.230  1.0716  1.8435 -0.1031
20672SOL     OW73669   7.258   9.621   5.441 -0.3871 -0.1725  0.3146
20672SOL    HW173670   7.317   9.590   5.366  0.1567 -1.5347  1.2835
20672SOL    HW273671   7.171   9.571   5.437 -0.5352  0.0783  0.3430
20673SOL     OW73672   7.673   6.135   7.304 -0.1080 -0.6223  0.2058
20673SOL    HW173673   7.591   6.136   7.361 -1.3888 -1.0496 -1.5666
20673SOL    HW273674   7.673   6.052   7.248 -0.0443  0.8400 -2.0091
20674SOL     OW73675   7.838   1.885   3.068  0.4201 -0.3384 -0.0605
20674SOL    HW173676   7.932   1.857   3.047  1.5275  1.9164  1.6501
20674SOL    HW273677   7.837   1.982   3.091 -2.1866 -0.5708  0.9808
20675SOL     OW73678   9.634   1.168   1.137 -0.1697  0.0455 -0.5794
20675SOL    HW173679   9.654   1.078   1.176 -0.5693  0.4618  0.6035
20675SOL    HW273680   9.625   1.235   1.210 -0.6994  0.8900 -1.4016
20676SOL     OW73681   3.116   8.795   2.218 -0.2487  0.2679 -0.4645
20676SOL    HW173682   3.044   8.729   2.196  0.9523 -1.0583 -0.4922
20676SOL    HW273683   3.178   8.755   2.286 -0.1815  1.8272  0.4067
20677SOL     OW73684   4.894   4.372   7.280  0.2508  0.2877 -0.2831
20677SOL    HW173685   4.799   4.393   7.257  0.3088  1.5857  0.5964
20677SOL    HW273686   4.898   4.330   7.371  0.7091  2.4333  0.7142
20678SOL     OW73687   1.463   6.808   5.094  0.3501  0.0189  0.2560
20678SOL    HW173688   1.518   6.890   5.112 -2.3303  2.2643 -1.4609
20678SOL    HW273689   1.454   6.794   4.996  0.4248 -2.1196  0.5290
20679SOL     OW73690   5.982   0.277   4.116  0.6806  0.1434 -0.4141
20679SOL    HW173691   6.013   0.348   4.179 -0.9814  0.4213  0.1319
20679SOL    HW273692   5.891   0.246   4.143  0.5562 -0.7801 -1.8181
20680SOL     OW73693   2.359   7.870   5.479 -0.3627  0.0747 -0.5128
20680SOL    HW173694   2.421   7.909   5.411 -0.3668 -0.9761 -1.1324
20680SOL    HW273695   2.272   7.847   5.436 -0.2427 -0.9299 -0.2431
20681SOL     OW73696   8.740   6.363   8.100  0.2397 -0.4646 -0.0705
20681SOL    HW173697   8.731   6.461   8.120 -0.5700 -0.5846  0.1894
20681SOL    HW273698   8.813   6.324   8.156 -0.1771 -0.2352  0.6461
20682SOL     OW73699   5.078   0.090   0.590  0.0219 -0.2838  0.0245
20682SOL    HW173700   5.097   0.010   0.533 -0.6214 -0.1987 -0.3140
20682SOL    HW273701   5.035   0.061   0.676  1.8888 -0.5053  0.9223
20683SOL     OW73702   6.951   0.802   6.972  0.3172 -0.0430  0.2352
20683SOL    HW173703   7.010   0.721   6.974 -1.4275 -1.3079  1.4729
20683SOL    HW273704   6.999   0.878   7.015  1.7632 -0.5432 -0.4399
20684SOL     OW73705   0.606   7.437   8.107 -0.0358 -0.4797  0.1218
20684SOL    HW173706   0.646   7.507   8.166 -0.1897 -0.4006  0.1323
20684SOL    HW273707   0.636   7.452   8.013 -0.8153  0.1465 -0.0210
20685SOL     OW73708   3.040   9.248   1.233 -0.7725 -0.2557 -0.2981
20685SOL    HW173709   2.993   9.297   1.306 -2.2272 -1.8437 -0.1356
20685SOL    HW273710   3.051   9.152   1.259  0.4774 -0.4047 -1.3285
20686SOL     OW73711   1.523   6.652   6.191  0.5782  0.0334  0.0065
20686SOL    HW173712   1.546   6.629   6.285 -0.6485 -1.3611 -0.0292
20686SOL    HW273713   1.432   6.618   6.169  0.6795  0.7240 -1.5576
20687SOL     OW73714   0.759   2.104   6.538 -0.2132  0.1774  0.0705
20687SOL    HW173715   0.835   2.138   6.482  0.0982  0.0949  0.4352
20687SOL    HW273716   0.739   2.171   6.610  0.1215 -0.2159  0.5352
20688SOL     OW73717   6.509   7.229   3.723  0.2675 -0.2792 -0.1323
20688SOL    HW173718   6.430   7.185   3.681  1.3184  0.5980 -3.1390
20688SOL    HW273719   6.583   7.163   3.732  0.5487 -0.1027 -1.0914
20689SOL     OW73720   4.395   9.993   7.642 -0.2874 -0.5679 -0.2877
20689SOL    HW173721   4.456   9.915   7.626  0.3246 -0.0581 -0.4243
20689SOL    HW273722   4.447  10.069   7.681 -0.7608 -0.0103 -0.7377
20690SOL     OW73723   8.300   4.413   4.774  0.1131  0.0188 -0.0168
20690SOL    HW173724   8.242   4.332   4.778  0.8635 -0.4808  0.8536
20690SOL    HW273725   8.354   4.412   4.690  0.0796 -0.3521 -0.0328
20691SOL     OW73726   5.513   1.152   5.657  0.1280 -0.5917  0.2072
20691SOL    HW173727   5.599   1.171   5.610 -0.8974 -0.7948 -1.8137
20691SOL    HW273728   5.489   1.056   5.644 -0.1040 -0.6879  1.2903
20692SOL     OW73729   0.006   5.373   3.792  0.2616 -0.1668  0.5517
20692SOL    HW173730   0.078   5.330   3.846  0.8332  0.5634  0.3715
20692SOL    HW273731  -0.005   5.468   3.821 -0.1363 -0.0697  0.0828
20693SOL     OW73732   7.515   5.239   2.822 -0.1719 -0.0865 -0.2992
20693SOL    HW173733   7.466   5.211   2.905 -0.1232 -2.2506 -0.9593
20693SOL    HW273734   7.610   5.258   2.845 -0.0046 -1.3106  0.0427
20694SOL     OW73735   0.299   6.081   2.916  0.2981  0.0077 -0.3007
20694SOL    HW173736   0.240   6.019   2.865  1.1110 -1.5906  0.6419
20694SOL    HW273737   0.248   6.162   2.942 -1.4279 -1.2193  0.2581
20695SOL     OW73738   4.242   2.647   5.056 -0.3362 -0.2681 -0.0270
20695SOL    HW173739   4.198   2.735   5.037 -0.5378 -0.7716 -1.9768
20695SOL    HW273740   4.206   2.578   4.993  0.9089 -1.4096  0.5079
20696SOL     OW73741   7.739   7.160   2.913 -0.0401  0.4695 -0.4915
20696SOL    HW173742   7.656   7.208   2.882  0.1778 -0.9541 -3.5321
20696SOL    HW273743   7.819   7.215   2.892 -0.1124  1.3972  1.5355
20697SOL     OW73744   4.279   7.957   6.693  0.5308  0.8911  0.0051
20697SOL    HW173745   4.250   7.932   6.601 -1.1369 -1.3102  1.0917
20697SOL    HW273746   4.339   8.037   6.688 -1.6035  2.4239 -2.7526
20698SOL     OW73747   2.032   3.052   1.091 -0.2686  0.4011  0.5692
20698SOL    HW173748   1.944   3.013   1.065  0.1682  0.5017 -1.0852
20698SOL    HW273749   2.026   3.152   1.091  0.1877  0.4400 -0.8221
20699SOL     OW73750   4.582   6.950   4.028  0.5315 -0.2276  1.4203
20699SOL    HW173751   4.544   6.859   4.008 -0.3754  0.2425  0.9647
20699SOL    HW273752   4.681   6.948   4.015  0.1714 -0.3798 -1.5602
20700SOL     OW73753   0.111   0.759   5.842  0.2785 -0.3352  0.2284
20700SOL    HW173754   0.209   0.780   5.843  0.1947  0.0608  0.5966
20700SOL    HW273755   0.097   0.661   5.828  0.7502 -0.5227  1.0516
20701SOL     OW73756   7.432   0.406   7.284  0.0015  0.1350 -0.0453
20701SOL    HW173757   7.424   0.347   7.204  0.6510 -0.4929  0.3428
20701SOL    HW273758   7.427   0.351   7.367 -1.7765  0.9132  0.3793
20702SOL     OW73759   8.568   9.656   7.990 -0.1206  0.6125 -0.2137
20702SOL    HW173760   8.552   9.579   7.929  2.0137  0.4551 -0.6065
20702SOL    HW273761   8.664   9.658   8.017 -1.0326  0.4753  3.3955
20703SOL     OW73762   8.049   7.468   1.950  0.4413 -0.1848  0.8730
20703SOL    HW173763   8.068   7.563   1.923  1.1909 -0.9224 -1.3336
20703SOL    HW273764   7.981   7.467   2.023 -0.3365  2.0102  0.2222
20704SOL     OW73765   2.415   0.613   6.287  0.0276  0.4703  0.0775
20704SOL    HW173766   2.453   0.537   6.234 -0.8691 -0.4847  0.7824
20704SOL    HW273767   2.426   0.594   6.385  0.7246  1.7326  0.2509
20705SOL     OW73768   7.696   4.248   5.107 -0.2346 -1.0582  0.0601
20705SOL    HW173769   7.671   4.228   5.201 -1.9892 -0.6294 -0.2807
20705SOL    HW273770   7.775   4.194   5.080  0.3989 -1.0276  1.8364
20706SOL     OW73771   9.342   1.910   4.155 -0.2222  0.0307  0.3562
20706SOL    HW173772   9.340   1.849   4.234  2.4251 -0.6846 -0.0754
20706SOL    HW273773   9.336   2.005   4.185 -1.0642 -0.2971  1.2544
20707SOL     OW73774   8.695   3.950   3.406  0.1042  0.0567 -0.7578
20707SOL    HW173775   8.707   3.864   3.356  2.4822  1.7172 -3.1616
20707SOL    HW273776   8.600   3.958   3.436 -0.7267 -2.2915 -2.5944
20708SOL     OW73777   8.613   6.603   4.782  0.5212 -0.2413  0.2808
20708SOL    HW173778   8.700   6.649   4.764 -0.1088  1.1199  0.6727
20708SOL    HW273779   8.626   6.535   4.854  0.7129  1.8639  2.3166
20709SOL     OW73780   5.625   9.036   6.048 -0.0695 -0.1773  0.0960
20709SOL    HW173781   5.561   9.068   5.978 -1.0826 -0.8686  0.6981
20709SOL    HW273782   5.665   9.115   6.095 -2.4655  0.2660  1.5050
20710SOL     OW73783   9.227   1.609   4.119  0.5706 -0.5266  0.6708
20710SOL    HW173784   9.301   1.542   4.132  1.7830  0.8087  0.7626
20710SOL    HW273785   9.233   1.648   4.027 -0.9586 -1.4985  0.1306
20711SOL     OW73786   5.655   6.655   0.966  0.0859 -0.1295 -0.3755
20711SOL    HW173787   5.711   6.672   1.047 -0.9701  2.8815 -0.1991
20711SOL    HW273788   5.559   6.648   0.992 -0.3989  1.9648 -1.4109
20712SOL     OW73789   3.218   9.313   7.476  0.0151  0.3384 -0.1144
20712SOL    HW173790   3.192   9.326   7.380  1.7511  1.2153 -0.4885
20712SOL    HW273791   3.293   9.374   7.499 -0.2960  0.0455  1.7891
20713SOL     OW73792   4.911   5.796   8.071  0.4299 -0.7635  0.2018
20713SOL    HW173793   4.999   5.842   8.083 -0.8557  1.6175  0.7786
20713SOL    HW273794   4.899   5.771   7.975  1.2293 -0.0597 -0.0847
20714SOL     OW73795   8.736   5.547   5.873 -0.0124 -0.7644 -0.1980
20714SOL    HW173796   8.670   5.486   5.830  0.9934 -0.5896 -2.0510
20714SOL    HW273797   8.796   5.585   5.803  0.8633  0.5248  1.2310
20715SOL     OW73798   7.470   9.700   3.684  0.6663  0.0806 -0.0904
20715SOL    HW173799   7.468   9.799   3.700 -1.2263  0.0597 -0.0363
20715SOL    HW273800   7.418   9.679   3.601 -0.9339 -1.0624  1.1601
20716SOL     OW73801   8.680   2.681   1.177 -0.3111 -0.2461  0.0927
20716SOL    HW173802   8.637   2.592   1.159 -1.9956  0.4040  0.7971
20716SOL    HW273803   8.733   2.676   1.261  1.8768 -1.3304 -1.2858
20717SOL     OW73804   9.818   7.367   0.864  0.0987  0.2698 -0.2260
20717SOL    HW173805   9.729   7.364   0.908 -0.4257  0.1978 -1.2859
20717SOL    HW273806   9.812   7.418   0.778  1.3939  1.5640  0.4104
20718SOL     OW73807   3.497   3.758   7.432  0.3387 -0.2081  0.2401
20718SOL    HW173808   3.447   3.684   7.386  0.2102 -0.9798  1.5989
20718SOL    HW273809   3.438   3.837   7.442 -0.0408 -0.4931  0.2525
20719SOL     OW73810   9.031   8.512   6.960  0.2457 -0.4047  0.2775
20719SOL    HW173811   8.981   8.426   6.951 -1.0506  0.3516  0.0885
20719SOL    HW273812   9.034   8.539   7.056  1.8620 -1.3539  0.5076
20720SOL     OW73813   2.461   5.814   5.186 -0.0016 -0.2562  0.7933
20720SOL    HW173814   2.498   5.865   5.263 -0.6585 -0.7387  1.4387
20720SOL    HW273815   2.482   5.862   5.101 -1.7940  1.8246  1.4830
20721SOL     OW73816   2.615   6.084   4.694 -0.5676 -0.2665  0.7863
20721SOL    HW173817   2.594   6.143   4.616 -0.7075 -0.6838  0.5043
20721SOL    HW273818   2.663   6.137   4.764  0.8101 -0.2215 -0.1818
20722SOL     OW73819   1.539   4.614   6.601 -0.2008  0.2827  0.3455
20722SOL    HW173820   1.442   4.596   6.615 -0.9423  3.3034 -0.5863
20722SOL    HW273821   1.559   4.617   6.503  1.2898 -2.3172  0.5011
20723SOL     OW73822   3.637   0.992   3.483  0.4095  0.7764 -0.2689
20723SOL    HW173823   3.729   0.957   3.500  0.0434 -0.1023 -0.0441
20723SOL    HW273824   3.579   0.976   3.563 -0.3869 -0.2272 -1.0230
20724SOL     OW73825   2.576   4.179   3.919 -0.5811 -0.9148  0.2988
20724SOL    HW173826   2.621   4.213   4.002 -2.2659  2.6391 -0.1186
20724SOL    HW273827   2.638   4.187   3.841 -0.9019  1.2229  0.2363
20725SOL     OW73828   8.635   8.749   8.111 -0.2660 -0.3028  0.0376
20725SOL    HW173829   8.598   8.764   8.019 -0.6054  0.9625  0.3748
20725SOL    HW273830   8.589   8.671   8.153  0.6936 -1.6262 -1.2873
20726SOL     OW73831   2.990   4.893   3.845  0.3825 -0.1568 -1.0605
20726SOL    HW173832   3.077   4.849   3.826  1.2634  1.1342 -0.0686
20726SOL    HW273833   3.005   4.989   3.868 -1.3643  0.2599 -1.5948
20727SOL     OW73834   1.006   7.458   5.902 -0.3813  0.0233 -0.0361
20727SOL    HW173835   0.947   7.534   5.930  0.9717  1.4230 -0.9003
20727SOL    HW273836   1.077   7.492   5.840 -0.8944 -2.2829 -1.9721
20728SOL     OW73837   4.763   1.260   5.114 -0.1649  0.4142  0.9641
20728SOL    HW173838   4.860   1.268   5.136  0.3792  0.0287 -1.1516
20728SOL    HW273839   4.716   1.212   5.187  1.6846 -1.4858  0.9450
20729SOL     OW73840   2.816   2.586   1.906  0.1662  0.0534 -0.1229
20729SOL    HW173841   2.832   2.490   1.932  2.2508  1.3328  3.6156
20729SOL    HW273842   2.787   2.638   1.986 -0.4975  2.6989 -2.0100
20730SOL     OW73843   0.037   0.076   6.091 -0.3511 -0.2526  0.5446
20730SOL    HW173844  -0.050   0.109   6.127  0.2551  2.3351 -0.2739
20730SOL    HW273845   0.112   0.111   6.146  0.2472 -1.7121  0.6883
20731SOL     OW73846   6.005   1.769   0.443 -0.0453  0.7790  0.3798
20731SOL    HW173847   6.022   1.677   0.480 -1.1123 -0.2170 -1.5047
20731SOL    HW273848   6.027   1.770   0.345  2.0368  3.1535  0.8192
20732SOL     OW73849   0.888   8.463   5.298  0.1931 -0.3031 -0.1903
20732SOL    HW173850   0.796   8.428   5.314 -0.1112  0.0690 -1.0495
20732SOL    HW273851   0.924   8.424   5.212  0.3692  0.4538 -0.4664
20733SOL     OW73852   0.679   4.455   7.571  0.9575 -0.3280 -0.0549
20733SOL    HW173853   0.679   4.552   7.593  1.1118 -0.4559  0.5456
20733SOL    HW273854   0.753   4.435   7.507  1.2097 -0.1240  0.1708
20734SOL     OW73855   0.246   4.248   5.446  0.0138 -0.3120  0.6034
20734SOL    HW173856   0.305   4.328   5.458 -0.2102  0.3073 -2.1791
20734SOL    HW273857   0.151   4.278   5.433 -0.3939 -1.1493  1.5471
20735SOL     OW73858   6.569   9.170   1.583  0.1291  0.4755 -0.3284
20735SOL    HW173859   6.557   9.094   1.647 -0.7482  1.1256  0.2772
20735SOL    HW273860   6.616   9.245   1.629 -1.0165  1.1673 -0.2688
20736SOL     OW73861   1.419   0.762   6.320 -0.4818 -0.1148 -0.3769
20736SOL    HW173862   1.494   0.698   6.339 -0.0835  0.5440  0.3002
20736SOL    HW273863   1.457   0.853   6.307 -0.8404 -0.3240 -3.2838
20737SOL     OW73864   2.509   9.302   4.526  0.0071  0.0199  0.5199
20737SOL    HW173865   2.433   9.359   4.494  1.0938  0.1993 -1.7975
20737SOL    HW273866   2.525   9.322   4.623 -1.4688  1.5824  0.4869
20738SOL     OW73867   0.689   0.701   7.066 -0.3307 -0.0003 -0.2622
20738SOL    HW173868   0.622   0.701   6.992 -0.2404 -2.9232 -0.3955
20738SOL    HW273869   0.781   0.710   7.028 -0.4757  1.7290 -0.2421
20739SOL     OW73870   9.768   9.867   6.694 -0.3092  0.2387 -0.1293
20739SOL    HW173871   9.820   9.840   6.613  0.0905 -0.1227  0.2441
20739SOL    HW273872   9.689   9.923   6.667  0.1337  0.5810 -0.7199
20740SOL     OW73873   3.379   2.964   6.890  0.2001  0.2896  0.3068
20740SOL    HW173874   3.413   2.931   6.978  1.6204  1.7780  0.3477
20740SOL    HW273875   3.431   2.921   6.816 -1.1266 -1.1118  0.1748
20741SOL     OW73876   7.575   0.628   5.441 -0.7518 -0.1181 -0.1094
20741SOL    HW173877   7.664   0.594   5.410 -1.2975 -0.2931 -1.5026
20741SOL    HW273878   7.521   0.551   5.475  0.1815  0.1928  2.1971
20742SOL     OW73879   4.229   6.661   2.208  0.2461  0.2741 -0.2828
20742SOL    HW173880   4.175   6.613   2.138  0.5295 -1.3078  0.5496
20742SOL    HW273881   4.323   6.669   2.178 -0.3796  2.8286 -1.6364
20743SOL     OW73882   7.896   4.444   2.853  0.0533  0.0371 -0.4588
20743SOL    HW173883   7.849   4.382   2.916  0.1540  1.9578  1.5478
20743SOL    HW273884   7.832   4.513   2.819  0.4183  0.0695 -1.0972
20744SOL     OW73885   3.532   5.795   4.388 -0.8509  0.6043 -0.5034
20744SOL    HW173886   3.519   5.732   4.312  1.1059  1.1887 -1.3554
20744SOL    HW273887   3.499   5.886   4.362 -2.6702  0.2014  0.3348
20745SOL     OW73888   6.681   8.485   4.257 -0.7063  0.0230  0.4523
20745SOL    HW173889   6.765   8.491   4.312 -0.2215 -0.2973 -0.2398
20745SOL    HW273890   6.645   8.392   4.261 -0.9365  0.1228  0.6292
20746SOL     OW73891   5.319   8.470   3.755  0.5005  0.7013  0.1565
20746SOL    HW173892   5.413   8.486   3.786  0.7159  2.0301 -1.1046
20746SOL    HW273893   5.312   8.378   3.717  0.8183 -0.0799  1.9440
20747SOL     OW73894   9.896   8.426   0.787  0.3951 -0.2372  0.5813
20747SOL    HW173895   9.934   8.363   0.719  1.5221  0.2476  0.7510
20747SOL    HW273896   9.957   8.504   0.798 -1.7650  1.7162 -0.8021
20748SOL     OW73897   8.007   8.175   1.803  0.0220  0.3408  0.2521
20748SOL    HW173898   7.925   8.230   1.816  0.9720  1.7104  0.5589
20748SOL    HW273899   8.065   8.182   1.885  1.2609  0.7795 -0.6542
20749SOL     OW73900   0.684   5.173   6.238  0.3970 -0.1960 -0.0691
20749SOL    HW173901   0.777   5.195   6.208  1.0553 -2.0033  0.5312
20749SOL    HW273902   0.621   5.181   6.161  1.2100  0.1248 -0.7132
20750SOL     OW73903   6.067   5.721   1.688  0.3892  0.0407 -0.5280
20750SOL    HW173904   6.081   5.635   1.738  0.3983 -0.1113 -0.7953
20750SOL    HW273905   6.067   5.704   1.590  0.1344  0.3111 -0.5766
20751SOL     OW73906   1.808   7.662   6.160 -0.1776 -0.1430  0.4390
20751SOL    HW173907   1.734   7.596   6.176 -0.3252 -0.3850 -1.1879
20751SOL    HW273908   1.885   7.616   6.116 -0.6309  0.9258 -1.5443
20752SOL     OW73909   1.850   0.386   0.182  0.3011 -0.0151  0.4378
20752SOL    HW173910   1.854   0.287   0.188 -2.7832 -0.1698  1.0632
20752SOL    HW273911   1.911   0.419   0.110 -0.9455 -2.6232 -1.8720
20753SOL     OW73912   7.914   1.654   7.500  0.0248  0.8294  0.3512
20753SOL    HW173913   7.983   1.712   7.455  0.0083  0.8476  0.3492
20753SOL    HW273914   7.903   1.570   7.448  1.1969  0.1295  1.2089
20754SOL     OW73915   1.048   9.672   3.271  0.6679 -0.2389  0.5322
20754SOL    HW173916   0.999   9.757   3.289  1.1314  0.0811  0.2780
20754SOL    HW273917   1.016   9.601   3.334 -0.7909 -0.2908 -0.2372
20755SOL     OW73918   1.502   8.224   3.454 -0.2250  0.7670 -0.5171
20755SOL    HW173919   1.568   8.211   3.381  0.0941 -0.7089  0.0140
20755SOL    HW273920   1.415   8.182   3.429 -0.9847  2.7046 -1.2153
20756SOL     OW73921   1.939   9.936   7.105  0.0722 -0.0880  0.5718
20756SOL    HW173922   1.857   9.923   7.050  0.2657  1.5845 -0.1475
20756SOL    HW273923   1.982   9.848   7.124 -0.9703 -0.8231 -0.4574
20757SOL     OW73924   8.973   8.876   2.703 -0.6017 -0.2461 -0.3660
20757SOL    HW173925   8.961   8.890   2.801  1.2860 -0.6915 -0.0526
20757SOL    HW273926   8.940   8.957   2.653 -1.9179 -0.1749  0.5960
20758SOL     OW73927   4.219   3.457   6.313 -0.2605 -0.7092 -0.0931
20758SOL    HW173928   4.318   3.448   6.316 -0.2608 -0.7449 -0.1740
20758SOL    HW273929   4.179   3.368   6.290 -0.3262 -0.7738  0.2610
20759SOL     OW73930   8.399   2.667   1.585  0.0468 -0.1950  1.0044
20759SOL    HW173931   8.354   2.597   1.531  0.9996  0.1777 -0.2884
20759SOL    HW273932   8.365   2.663   1.679 -0.6433 -1.7212  0.7100
20760SOL     OW73933   2.397   1.902   1.207  0.2850 -0.7283  0.3972
20760SOL    HW173934   2.475   1.938   1.155  0.7122 -2.7190 -0.3641
20760SOL    HW273935   2.330   1.975   1.221  1.4232  0.5244 -0.5622
20761SOL     OW73936   8.442   0.234   7.334 -0.3290 -0.3514 -0.6819
20761SOL    HW173937   8.487   0.197   7.253  0.0914 -0.3485 -0.4552
20761SOL    HW273938   8.436   0.163   7.404 -0.7738 -0.3800 -0.7538
20762SOL     OW73939   1.138   8.366   6.384  0.2795  0.4234  0.2378
20762SOL    HW173940   1.083   8.357   6.301  2.1204 -0.1971 -0.9400
20762SOL    HW273941   1.131   8.459   6.420  0.8948  1.2032 -1.6285
20763SOL     OW73942   3.254   6.901   1.435  0.0755  1.2672 -0.3732
20763SOL    HW173943   3.169   6.851   1.420  0.7422  0.7926 -2.8986
20763SOL    HW273944   3.233   6.993   1.469 -1.3576  0.6096  0.5485
20764SOL     OW73945   7.021   0.454   2.327 -0.2540  0.4107  0.1095
20764SOL    HW173946   7.042   0.396   2.406  0.1743 -0.0403 -0.3267
20764SOL    HW273947   6.922   0.464   2.318 -0.4252 -1.7708 -0.8614
20765SOL     OW73948   8.216   7.742   5.042  0.1305 -0.6342 -0.3768
20765SOL    HW173949   8.289   7.716   4.979  0.1859 -1.1442 -0.1075
20765SOL    HW273950   8.189   7.837   5.025  0.5611 -0.5776 -0.7599
20766SOL     OW73951   9.771   2.034   0.950 -0.5759  0.2375 -0.2187
20766SOL    HW173952   9.731   2.043   1.041 -1.8398  0.2448 -0.7555
20766SOL    HW273953   9.868   2.010   0.957 -1.1379 -1.6680  1.0954
20767SOL     OW73954   8.056   1.337   2.990 -0.4584  0.8295  0.3923
20767SOL    HW173955   8.006   1.258   3.026 -0.6994  0.9781  0.3843
20767SOL    HW273956   8.130   1.306   2.931 -0.6979  0.6132  0.2042
20768SOL     OW73957   0.469   5.256   3.183 -0.2524 -0.1818 -0.2764
20768SOL    HW173958   0.370   5.266   3.195 -0.2770 -1.6140  0.8162
20768SOL    HW273959   0.516   5.285   3.266  0.3529  1.7512 -1.2527
20769SOL     OW73960   4.350   4.373   4.099  0.0902 -0.2877  0.0937
20769SOL    HW173961   4.382   4.378   4.194 -1.2145 -1.6204  0.6138
20769SOL    HW273962   4.399   4.299   4.052 -1.2967 -1.5073  0.5415
20770SOL     OW73963   1.622   8.903   0.658  0.1017 -0.6752  0.2220
20770SOL    HW173964   1.702   8.887   0.716 -0.5446 -1.8415  0.8183
20770SOL    HW273965   1.569   8.818   0.650 -0.1939 -0.3483 -1.5121
20771SOL     OW73966   8.485   5.394   5.431 -0.0352 -0.5677 -0.3673
20771SOL    HW173967   8.571   5.411   5.384  0.4935  0.8859  1.0755
20771SOL    HW273968   8.432   5.326   5.380 -0.2111  2.0984 -3.8724
20772SOL     OW73969   9.671   0.385   5.496 -0.2264  0.3968  0.0375
20772SOL    HW173970   9.769   0.402   5.488 -0.1225  0.1774  0.7682
20772SOL    HW273971   9.626   0.403   5.408  0.5910 -0.3341 -0.5358
20773SOL     OW73972   7.314   0.690   6.155  0.4704  0.0911 -0.5135
20773SOL    HW173973   7.230   0.719   6.201  1.2359 -0.3097  1.2002
20773SOL    HW273974   7.300   0.690   6.056 -1.7740 -0.7429 -0.2180
20774SOL     OW73975   9.577   9.816   6.442  0.4496  0.2372  0.1959
20774SOL    HW173976   9.503   9.758   6.408  1.3277 -0.4518 -0.5102
20774SOL    HW273977   9.537   9.894   6.490 -0.7340 -0.6138  0.6132
20775SOL     OW73978   7.947   5.428   3.958  0.4856  0.6155 -0.0169
20775SOL    HW173979   7.967   5.420   3.861  2.6391 -2.1856  0.6011
20775SOL    HW273980   8.033   5.431   4.009 -0.6259 -1.3545  2.0367
20776SOL     OW73981   8.832   2.798   2.596  0.2000  0.1287  0.0550
20776SOL    HW173982   8.887   2.728   2.550  1.5601  1.4254 -0.3643
20776SOL    HW273983   8.886   2.882   2.604 -1.0682  0.8379  1.3900
20777SOL     OW73984   9.237   6.258   0.860 -0.6020  0.0139 -0.5032
20777SOL    HW173985   9.189   6.171   0.849 -0.6252 -0.0901  0.4027
20777SOL    HW273986   9.331   6.248   0.826 -0.7948 -0.1739 -0.9923
20778SOL     OW73987   8.437   9.939   7.973 -0.4490  0.2299 -0.3356
20778SOL    HW173988   8.424   9.865   7.906 -0.6500  0.1855 -0.2477
20778SOL    HW273989   8.525   9.929   8.017  0.4646  1.2706 -1.8710
20779SOL     OW73990   8.437   5.652   3.826  0.0886  0.1119  0.2430
20779SOL    HW173991   8.441   5.572   3.766 -1.0684  1.3690 -1.5411
20779SOL    HW273992   8.495   5.636   3.906 -1.0276 -3.0015  0.5307
20780SOL     OW73993   1.177   1.144   2.936  0.0313 -0.2101 -0.4471
20780SOL    HW173994   1.127   1.198   3.003 -0.3432 -3.1437  1.7309
20780SOL    HW273995   1.269   1.183   2.924 -0.5594  1.4611  0.2641
20781SOL     OW73996   7.726   2.716   0.931 -0.0846  0.0710 -0.2623
20781SOL    HW173997   7.651   2.732   0.994 -0.6265  0.7101 -1.0538
20781SOL    HW273998   7.743   2.800   0.878  0.0813 -0.5793 -1.2482
20782SOL     OW73999   8.497   8.869   7.209  0.4653 -0.5079  0.3053
20782SOL    HW174000   8.459   8.940   7.268  2.4155  1.3538 -0.5889
20782SOL    HW274001   8.595   8.885   7.197  0.4243 -1.8065 -2.1056
20783SOL     OW74002   1.326   0.088   3.828  0.5177 -0.1157  0.0307
20783SOL    HW174003   1.269   0.143   3.889  1.7134  0.6904  0.4352
20783SOL    HW274004   1.421   0.093   3.858  1.0302 -0.2091 -1.5551
20784SOL     OW74005   8.831   5.243   2.673 -0.0591 -0.3104  0.0892
20784SOL    HW174006   8.778   5.291   2.603  0.4583 -0.0626 -0.1402
20784SOL    HW274007   8.826   5.294   2.759  1.8352  1.0775 -0.5769
20785SOL     OW74008   1.792   9.634   3.167  0.0599 -0.2941  0.5336
20785SOL    HW174009   1.751   9.683   3.244  2.8496  2.4737  0.3866
20785SOL    HW274010   1.814   9.541   3.194  2.1204  1.0026  3.5779
20786SOL     OW74011   3.202   7.052   7.219 -0.2797 -0.5873  0.5814
20786SOL    HW174012   3.208   7.135   7.275 -1.2909  0.1892 -0.4265
20786SOL    HW274013   3.130   6.992   7.254  0.0285 -0.7532  0.9358
20787SOL     OW74014   5.570   6.118   0.055 -0.4584  0.1838  0.3697
20787SOL    HW174015   5.653   6.118   0.110 -0.9264  0.4300  1.0788
20787SOL    HW274016   5.518   6.201   0.074  0.6410  1.5608 -2.3456
20788SOL     OW74017   4.065   8.846   2.336  0.0596 -0.0786  0.4332
20788SOL    HW174018   4.061   8.903   2.255 -2.4323 -1.2653 -0.3334
20788SOL    HW274019   4.127   8.769   2.320  1.4433  1.0040  0.5496
20789SOL     OW74020   2.429   1.766   7.096  0.0921 -0.2350  0.2787
20789SOL    HW174021   2.438   1.824   7.016 -1.3285  1.5080  1.3541
20789SOL    HW274022   2.487   1.685   7.086 -1.2273 -0.8050 -3.1639
20790SOL     OW74023   1.984   1.753   7.436 -0.4910 -0.4674 -0.4029
20790SOL    HW174024   2.005   1.791   7.526  1.4173 -2.5161  0.0671
20790SOL    HW274025   1.970   1.827   7.370  2.0832  1.0388  0.6891
20791SOL     OW74026   7.477   6.964   2.804  0.3439 -0.2730 -0.2291
20791SOL    HW174027   7.550   6.895   2.803  0.1568 -0.4990  1.2189
20791SOL    HW274028   7.413   6.945   2.730 -0.0724 -2.0687  0.5562
20792SOL     OW74029   1.662   9.070   7.003  0.7261  0.5492  0.0019
20792SOL    HW174030   1.666   9.109   7.095  0.1115  1.3757 -0.3157
20792SOL    HW274031   1.617   8.981   7.007 -0.0108  0.9366  0.3839
20793SOL     OW74032   4.458   7.354   5.604 -0.1254 -0.4785  0.0050
20793SOL    HW174033   4.430   7.271   5.555  0.0066  0.0496 -0.9599
20793SOL    HW274034   4.380   7.415   5.614  0.1900  0.0779 -0.8707
20794SOL     OW74035   1.342   5.237   0.664 -0.1563  0.0363  0.2353
20794SOL    HW174036   1.337   5.205   0.758 -0.1094  0.7015  0.4692
20794SOL    HW274037   1.423   5.198   0.620  0.0047 -0.0146  0.5745
20795SOL     OW74038   6.033   9.307   5.491 -0.2183  0.0864  0.3067
20795SOL    HW174039   6.047   9.354   5.578 -1.2963 -1.6916  1.4609
20795SOL    HW274040   6.020   9.209   5.507 -1.3462 -0.1297 -1.7679
20796SOL     OW74041   8.109   2.476   7.283  0.3621  0.4473  0.1710
20796SOL    HW174042   8.081   2.473   7.187  1.8436 -0.1651 -0.2552
20796SOL    HW274043   8.155   2.563   7.301 -0.5020  0.8474  0.5148
20797SOL     OW74044   1.181   1.217   5.379 -0.2632 -0.0826  0.4862
20797SOL    HW174045   1.260   1.263   5.338  0.0289 -1.0325 -0.0273
20797SOL    HW274046   1.130   1.282   5.435 -0.5936  1.1998 -1.2772
20798SOL     OW74047   6.478   9.694   2.872  0.1924  0.3079 -0.0849
20798SOL    HW174048   6.403   9.679   2.936  0.3477 -0.2386 -0.0306
20798SOL    HW274049   6.441   9.702   2.779 -0.0600  1.3987  0.1024
20799SOL     OW74050   2.353   4.846   4.607  0.0971  0.0679  0.6042
20799SOL    HW174051   2.327   4.916   4.674 -0.6914 -1.0200  1.4690
20799SOL    HW274052   2.332   4.756   4.645  0.9886 -0.6256 -0.5460
20800SOL     OW74053   9.004   2.386   4.003  0.4471 -0.2748  0.1548
20800SOL    HW174054   8.930   2.421   3.946 -0.2124 -0.5532  0.8375
20800SOL    HW274055   9.082   2.449   3.998 -0.5328  1.0199  0.9480
20801SOL     OW74056   5.771   6.690   1.227  0.1039  0.1119 -0.0800
20801SOL    HW174057   5.869   6.672   1.232  0.4009  1.7074 -0.1965
20801SOL    HW274058   5.722   6.619   1.278  1.3964  0.0477  1.0997
20802SOL     OW74059   0.741   7.145   6.030 -0.5267 -0.1054  0.5457
20802SOL    HW174060   0.711   7.237   6.003 -2.5513 -0.5338  1.1848
20802SOL    HW274061   0.788   7.150   6.118 -1.7489  0.1828  1.1982
20803SOL     OW74062   7.137   0.762   0.039  0.4953 -0.3555  0.6313
20803SOL    HW174063   7.173   0.799   0.124  1.2057 -1.5398  0.8733
20803SOL    HW274064   7.090   0.833  -0.012  2.2237  0.9882  0.8545
20804SOL     OW74065   6.557   3.923   1.961 -0.0639  0.1506 -0.2305
20804SOL    HW174066   6.543   3.919   1.863  1.8951 -3.6384 -0.4309
20804SOL    HW274067   6.547   4.018   1.992 -2.7685  1.0838 -3.6933
20805SOL     OW74068   0.939   4.223   2.269 -0.0172 -0.5203 -0.2662
20805SOL    HW174069   0.962   4.188   2.360  0.6793  0.4415 -0.0629
20805SOL    HW274070   0.997   4.178   2.201  1.2692  0.6223  0.0551
20806SOL     OW74071   9.203   4.384   5.052  0.6380 -0.2883 -0.1987
20806SOL    HW174072   9.180   4.287   5.044  0.4911 -0.3038  0.3583
20806SOL    HW274073   9.233   4.419   4.964  0.0822 -0.6867 -0.5464
20807SOL     OW74074   3.033   9.909   1.356 -0.1248  0.4924 -0.3789
20807SOL    HW174075   2.978   9.963   1.292 -0.3414 -0.0039 -0.6162
20807SOL    HW274076   3.109   9.866   1.307 -0.8141 -0.6239 -0.4823
20808SOL     OW74077   1.270   9.812   3.158 -0.1145  0.0651  0.8457
20808SOL    HW174078   1.308   9.860   3.236  1.8091 -1.1839  0.7202
20808SOL    HW274079   1.199   9.749   3.189  0.8892 -0.6902  1.6512
20809SOL     OW74080   1.700   7.603   3.378  0.7359 -0.0305  0.1492
20809SOL    HW174081   1.737   7.692   3.351  2.1928 -0.9757 -0.9867
20809SOL    HW274082   1.603   7.614   3.402  0.2204  1.4016 -2.4192
20810SOL     OW74083   6.645   1.377   2.703  0.0166 -0.4096  0.4475
20810SOL    HW174084   6.720   1.312   2.716  0.4476  0.5306  2.9004
20810SOL    HW274085   6.585   1.344   2.630  1.5510 -2.3249  0.0026
20811SOL     OW74086   3.619   3.285   4.872 -0.1436 -0.0188  0.1842
20811SOL    HW174087   3.587   3.269   4.966 -0.2038  0.4330  0.2439
20811SOL    HW274088   3.544   3.271   4.808 -0.3153  0.4798  0.2753
20812SOL     OW74089   0.523   1.986   0.949 -0.2418 -0.4871 -0.6470
20812SOL    HW174090   0.426   2.003   0.970  0.2219  3.0706 -1.1485
20812SOL    HW274091   0.541   2.010   0.854  1.5834  0.9095  0.0347
20813SOL     OW74092   7.952   4.780   7.687  0.1682  0.0382  0.4041
20813SOL    HW174093   7.932   4.686   7.714 -0.4179  0.2607  0.7453
20813SOL    HW274094   8.051   4.794   7.690  0.1843 -0.2159  1.5418
20814SOL     OW74095   6.163   1.188   5.778  0.4588  0.2888  0.0205
20814SOL    HW174096   6.230   1.160   5.708  0.8010 -1.1884  0.9002
20814SOL    HW274097   6.210   1.202   5.865 -0.4025 -1.1598  0.7499
20815SOL     OW74098   1.852   2.916   8.162  0.2961  0.0596  0.0811
20815SOL    HW174099   1.828   2.927   8.065 -0.5269 -1.2582  0.1220
20815SOL    HW274100   1.792   2.847   8.203 -1.1132  2.4700  2.2046
20816SOL     OW74101   0.366   1.976   7.319  0.1483 -0.0901 -0.7983
20816SOL    HW174102   0.437   2.045   7.307  0.0330  0.1130 -0.3392
20816SOL    HW274103   0.311   1.999   7.400 -0.7026 -0.0078 -1.3916
20817SOL     OW74104   1.122   4.324   3.441 -0.2511 -0.3165  0.0263
20817SOL    HW174105   1.214   4.363   3.443 -1.1185  1.7479  1.3303
20817SOL    HW274106   1.123   4.239   3.388  2.2920 -0.0776 -0.3790
20818SOL     OW74107   3.580   8.902   2.394  0.1970 -0.8549  0.0360
20818SOL    HW174108   3.506   8.952   2.440 -2.2140  0.5204 -5.0494
20818SOL    HW274109   3.654   8.966   2.371 -0.4979 -0.6550 -1.6978
20819SOL     OW74110   7.201   9.825   4.747  0.1128 -0.5916  0.1045
20819SOL    HW174111   7.202   9.746   4.686  3.0237 -0.6891  0.2235
20819SOL    HW274112   7.270   9.891   4.717 -1.5870  1.4693  0.5965
20820SOL     OW74113   2.413   6.224   6.213  0.5911  0.0756  0.0479
20820SOL    HW174114   2.473   6.241   6.291  0.0848  2.2903 -0.0189
20820SOL    HW274115   2.321   6.258   6.234  0.7618  1.8642 -1.9777
20821SOL     OW74116   4.827   5.706   1.299 -0.2659 -0.8344 -0.1958
20821SOL    HW174117   4.773   5.769   1.244  0.1517 -0.7419 -0.5102
20821SOL    HW274118   4.888   5.757   1.359 -0.1869 -0.9362 -0.1878
20822SOL     OW74119   1.830   0.119   3.486  0.1440  0.3042  0.1082
20822SOL    HW174120   1.924   0.086   3.489  0.2515  0.4120 -1.7058
20822SOL    HW274121   1.769   0.050   3.525  0.6754 -0.8925 -1.1562
20823SOL     OW74122   1.423   0.202   3.569  0.4811  0.1832  0.3557
20823SOL    HW174123   1.356   0.172   3.637  0.3512 -1.2826 -0.3981
20823SOL    HW274124   1.506   0.147   3.577  0.1693 -0.5459 -1.1714
20824SOL     OW74125   0.838   9.676   0.853 -0.3435 -0.5501  0.2479
20824SOL    HW174126   0.835   9.756   0.792 -0.8355 -1.6642 -1.2370
20824SOL    HW274127   0.889   9.699   0.936 -1.1111  1.5317  0.1816
20825SOL     OW74128   9.878   9.592   7.165 -0.0383 -0.1247  0.3701
20825SOL    HW174129   9.842   9.682   7.190  0.1147  0.3535 -1.1135
20825SOL    HW274130   9.977   9.589   7.184  0.1315  0.3309 -0.4589
20826SOL     OW74131   0.183   2.959   3.964 -0.0377 -0.0144  0.1410
20826SOL    HW174132   0.110   2.905   4.005 -1.4108  1.8382  0.1610
20826SOL    HW274133   0.171   2.962   3.865  0.1378  0.1213  0.1227
20827SOL     OW74134   2.677   4.907   7.622  0.3543 -0.3711 -0.3038
20827SOL    HW174135   2.590   4.929   7.577  0.7647 -1.1167 -1.4960
20827SOL    HW274136   2.730   4.991   7.634 -1.1373  0.3025  1.7781
20828SOL     OW74137   4.015   4.341   4.633  0.6798  0.6546  0.5944
20828SOL    HW174138   3.937   4.374   4.688 -0.9644 -1.8343 -0.1938
20828SOL    HW274139   4.019   4.242   4.636  1.0145  0.4814 -3.2095
20829SOL     OW74140   9.315   9.206   7.777 -0.6516  0.0857  0.0948
20829SOL    HW174141   9.387   9.210   7.845 -0.4465 -0.1414 -0.1083
20829SOL    HW274142   9.281   9.113   7.769 -0.0938 -0.0609 -0.7121
20830SOL     OW74143   7.809   6.598   5.350 -0.0704  0.2311  0.2776
20830SOL    HW174144   7.727   6.549   5.323  0.7509 -0.8621 -0.2972
20830SOL    HW274145   7.874   6.534   5.393  1.0920  0.7434 -0.6707
20831SOL     OW74146   5.366   8.896   4.842 -0.2415  0.0201  0.3799
20831SOL    HW174147   5.427   8.906   4.920  0.2211  1.6507 -0.1767
20831SOL    HW274148   5.271   8.901   4.873 -0.0632  0.3003  0.8760
20832SOL     OW74149   4.523   5.075   1.553  0.2307  0.0232 -0.2566
20832SOL    HW174150   4.575   5.159   1.571 -0.4596  0.2553  0.7022
20832SOL    HW274151   4.457   5.061   1.627  1.4686 -2.2507  0.4544
20833SOL     OW74152   3.740   6.297   1.759  0.2200  0.0386  0.6126
20833SOL    HW174153   3.831   6.309   1.719 -1.1558  1.7130 -2.1604
20833SOL    HW274154   3.707   6.384   1.795 -0.2242 -0.6046  1.8194
20834SOL     OW74155   5.927   7.410   3.888  0.1301 -0.2249 -0.5019
20834SOL    HW174156   5.967   7.464   3.813  0.5684 -0.3341 -0.3527
20834SOL    HW274157   5.856   7.350   3.852  0.2205 -0.1505 -0.8047
20835SOL     OW74158   3.548   2.500   3.321 -0.0515 -0.0114 -0.0852
20835SOL    HW174159   3.584   2.491   3.414  1.4851  1.8066 -0.4847
20835SOL    HW274160   3.451   2.478   3.321 -0.0859  0.0470  1.9609
20836SOL     OW74161   6.373   0.449   0.303 -0.1906  0.2325  0.0087
20836SOL    HW174162   6.321   0.478   0.383  1.2569  1.3175  0.5923
20836SOL    HW274163   6.390   0.350   0.307  1.8250  0.6193  2.2629
20837SOL     OW74164   6.506   9.636   5.348  0.3375  0.1926 -0.1366
20837SOL    HW174165   6.531   9.733   5.350 -2.0475  0.8501 -0.1226
20837SOL    HW274166   6.569   9.587   5.288  0.3929  2.1275 -1.7431
20838SOL     OW74167   1.931   5.624   1.401 -0.2717  0.2524  0.3409
20838SOL    HW174168   1.888   5.638   1.311 -1.1393 -0.6198  0.6084
20838SOL    HW274169   1.892   5.687   1.467 -1.1741 -0.5666  0.5924
20839SOL     OW74170   2.406   0.174   0.821  0.2190  0.2494  0.5946
20839SOL    HW174171   2.413   0.256   0.765 -1.1744  1.3971  2.0464
20839SOL    HW274172   2.416   0.198   0.918 -3.3101 -0.7594  1.2996
20840SOL     OW74173   9.238   6.072   1.264  0.1666 -0.5397 -0.2198
20840SOL    HW174174   9.242   6.038   1.171  0.8195  0.4304 -0.5611
20840SOL    HW274175   9.292   6.157   1.271 -0.3836 -0.2641  0.8804
20841SOL     OW74176   5.382   1.312   4.377 -0.0636  0.6845  0.1049
20841SOL    HW174177   5.407   1.337   4.470 -1.4014 -0.3625  0.7760
20841SOL    HW274178   5.356   1.393   4.325  0.8390  1.2848  0.5970
20842SOL     OW74179   2.459   4.364   4.619  1.0127 -0.6234 -0.1148
20842SOL    HW174180   2.434   4.278   4.665 -1.1502  0.3550  0.5777
20842SOL    HW274181   2.459   4.349   4.520  1.4653 -1.6115  0.0190
20843SOL     OW74182   2.314   7.116   4.446  0.0957 -0.3534  0.0052
20843SOL    HW174183   2.271   7.061   4.374 -0.1490 -0.7226  0.4268
20843SOL    HW274184   2.398   7.072   4.476  0.2348 -0.1619 -0.1052
20844SOL     OW74185   8.135   3.360   7.535 -0.6493  0.5772 -0.2331
20844SOL    HW174186   8.098   3.277   7.494 -1.6841 -0.1286  2.0722
20844SOL    HW274187   8.233   3.348   7.555 -0.6443  0.1719 -0.5142
20845SOL     OW74188   1.718   9.810   7.541  0.0770 -0.4217  0.4069
20845SOL    HW174189   1.815   9.831   7.541  0.2279 -1.0938  1.3778
20845SOL    HW274190   1.703   9.719   7.501 -0.2614  0.1089 -0.7134
20846SOL     OW74191   2.282   4.747   0.349 -0.0938  0.2092  0.3780
20846SOL    HW174192   2.360   4.691   0.379 -0.0833  0.5186  0.9364
20846SOL    HW274193   2.217   4.755   0.424 -0.5043  0.2370  0.0173
20847SOL     OW74194   8.103   3.760   2.862  0.9797  0.1211 -0.6393
20847SOL    HW174195   8.174   3.829   2.880  0.5190 -0.0149  1.9597
20847SOL    HW274196   8.134   3.671   2.896  0.3209 -0.3204 -1.1832
20848SOL     OW74197   9.665   6.877   7.082  0.3526  0.0035  0.1666
20848SOL    HW174198   9.597   6.822   7.131 -0.5947  0.2622 -0.8370
20848SOL    HW274199   9.644   6.974   7.094 -0.0436  0.0600 -0.9786
20849SOL     OW74200   3.730   9.495   6.097 -0.3506  0.3272  0.2459
20849SOL    HW174201   3.682   9.442   6.027 -0.6699 -0.2307  0.8917
20849SOL    HW274202   3.722   9.593   6.075 -1.8998  0.2427  0.4344
20850SOL     OW74203   0.160   6.590   7.891  0.0576  0.1287 -0.0221
20850SOL    HW174204   0.108   6.609   7.808  0.0842  0.3527  0.0109
20850SOL    HW274205   0.253   6.563   7.867  0.6091  1.9511 -0.0247
20851SOL     OW74206   2.011   6.844   3.258  0.1570 -0.1385  0.0327
20851SOL    HW174207   2.045   6.805   3.172 -0.5902  1.7880 -1.1649
20851SOL    HW274208   2.039   6.940   3.264 -1.1185  0.1688  1.2233
20852SOL     OW74209   0.963   1.066   7.892  0.5670  0.1818  0.1592
20852SOL    HW174210   0.965   1.023   7.802  0.9635 -0.4073  0.4477
20852SOL    HW274211   0.872   1.102   7.910  0.3731 -0.0844 -0.2971
20853SOL     OW74212   8.335   8.858   1.961 -0.4965  0.4430 -0.1132
20853SOL    HW174213   8.259   8.904   1.916  0.0340  1.8424  0.4167
20853SOL    HW274214   8.418   8.913   1.954  0.2676 -0.6418  0.1172
20854SOL     OW74215   6.865   0.935   1.011 -0.1857 -0.2997 -0.5525
20854SOL    HW174216   6.954   0.894   1.034  0.4116 -0.0851 -2.3957
20854SOL    HW274217   6.804   0.864   0.975 -0.3667 -0.2342 -0.3722
20855SOL     OW74218   2.143   1.842   5.427  0.6597  0.0740 -0.1342
20855SOL    HW174219   2.218   1.908   5.420  0.0613  0.6996 -0.7261
20855SOL    HW274220   2.151   1.775   5.353  0.1763  0.6178 -0.6807
20856SOL     OW74221   1.329   9.232   7.256  0.3507 -0.3675 -0.0292
20856SOL    HW174222   1.313   9.298   7.329 -0.2185  2.4600 -2.5929
20856SOL    HW274223   1.303   9.140   7.287 -1.3219  0.9750  2.7619
20857SOL     OW74224   9.224   1.070   8.204 -0.1033 -0.0366  0.0653
20857SOL    HW174225   9.159   1.031   8.140  0.2817 -0.5704 -0.0064
20857SOL    HW274226   9.178   1.092   8.290 -0.3948 -0.3525 -0.0087
20858SOL     OW74227   0.677   3.141   7.963 -0.4466  0.0781  0.6493
20858SOL    HW174228   0.646   3.153   7.869 -0.5516 -0.5765  0.5984
20858SOL    HW274229   0.598   3.142   8.025 -0.3427  0.9024  0.7721
20859SOL     OW74230   1.530   7.723   6.101  0.7147 -0.1489 -0.1223
20859SOL    HW174231   1.461   7.720   6.029 -0.4348 -0.8209  0.9811
20859SOL    HW274232   1.606   7.781   6.072  0.8383 -1.3696 -2.3589
20860SOL     OW74233   8.834   8.609   2.131  0.1170  0.2321 -0.3196
20860SOL    HW174234   8.823   8.682   2.063 -1.5618  0.5958  0.3093
20860SOL    HW274235   8.799   8.640   2.219  0.1990 -1.0314  0.1737
20861SOL     OW74236   6.174   9.597   1.305  0.0446  0.1729  0.1192
20861SOL    HW174237   6.251   9.533   1.302 -0.6910 -0.7066 -0.2898
20861SOL    HW274238   6.101   9.559   1.362 -0.5734  0.4526 -0.4773
20862SOL     OW74239   1.321   2.089   3.321  0.3302  0.0300 -1.0580
20862SOL    HW174240   1.299   2.015   3.259  0.3589 -0.1839 -0.8162
20862SOL    HW274241   1.237   2.136   3.350  0.3763  0.5693 -1.7955
20863SOL     OW74242   2.817   0.221   5.830 -0.2715 -0.5189  0.2695
20863SOL    HW174243   2.814   0.131   5.875  0.4929  0.7575  2.9738
20863SOL    HW274244   2.910   0.258   5.837 -1.0349  1.3171  0.9269
20864SOL     OW74245   9.912   3.384   5.451  0.4436  0.1084 -0.0435
20864SOL    HW174246   9.889   3.290   5.478 -2.2768  0.8009  0.1771
20864SOL    HW274247   9.847   3.447   5.494  3.2967  2.2763  1.2345
20865SOL     OW74248   1.210   4.727   6.037 -0.4922 -0.1390  0.0088
20865SOL    HW174249   1.189   4.651   6.099  3.1198 -1.5021 -0.2779
20865SOL    HW274250   1.172   4.708   5.947 -1.0252 -0.7969  0.3658
20866SOL     OW74251   2.123   9.923   5.549 -0.6141  0.2783 -0.9855
20866SOL    HW174252   2.123   9.948   5.452 -0.2971 -0.5565 -1.2040
20866SOL    HW274253   2.208   9.876   5.571 -0.7034  0.4360 -0.3038
20867SOL     OW74254   9.404   1.762   4.695  0.1015  0.2747  0.2231
20867SOL    HW174255   9.361   1.683   4.653 -0.3689  0.4201  0.4170
20867SOL    HW274256   9.493   1.737   4.732 -0.2132 -0.2627  0.6279
20868SOL     OW74257   0.724   9.764   0.029 -0.2845 -0.1403  0.0508
20868SOL    HW174258   0.807   9.815   0.047 -0.0350 -0.1893 -0.9326
20868SOL    HW274259   0.721   9.682   0.087  0.2109  0.0098  0.2833
20869SOL     OW74260   7.066   9.833   6.632 -0.1635  0.6924 -0.1377
20869SOL    HW174261   7.036   9.907   6.571 -0.6475  0.9314  0.3843
20869SOL    HW274262   6.987   9.793   6.677  0.0056 -0.7567 -1.0908
20870SOL     OW74263   7.349   2.123   3.146  0.2619 -0.7357  0.5025
20870SOL    HW174264   7.442   2.095   3.167 -0.0894 -2.7645 -0.4620
20870SOL    HW274265   7.304   2.051   3.092 -1.4183  0.7905 -0.1911
20871SOL     OW74266   2.524   0.224   3.696 -0.2361  0.3540 -0.6383
20871SOL    HW174267   2.578   0.294   3.743  1.5363 -2.0870  1.1032
20871SOL    HW274268   2.569   0.200   3.610  0.4214 -0.2281 -0.1482
20872SOL     OW74269   9.972   9.365   2.239  0.3452  0.3981 -0.2467
20872SOL    HW174270   9.934   9.335   2.326 -0.4863  0.7284 -0.4947
20872SOL    HW274271  10.000   9.461   2.245  1.1154  0.1693 -0.0773
20873SOL     OW74272   8.163   3.061   2.510 -0.1181  0.5535  0.2858
20873SOL    HW174273   8.258   3.049   2.537 -0.1844 -0.1912  0.2015
20873SOL    HW274274   8.103   3.025   2.582 -0.4073  3.7355  1.7268
20874SOL     OW74275   0.788   1.812   6.589 -0.1848  0.1837 -0.0202
20874SOL    HW174276   0.734   1.785   6.509 -2.7482  0.8328  1.4420
20874SOL    HW274277   0.778   1.910   6.604 -1.5138 -0.3025  2.3990
20875SOL     OW74278   9.340   5.550   0.773  0.1882 -0.0780 -0.5875
20875SOL    HW174279   9.243   5.570   0.761  0.3498  0.4336 -1.0519
20875SOL    HW274280   9.394   5.606   0.711  0.7392 -0.8812 -0.8444
20876SOL     OW74281   9.878   1.755   0.720  0.1784  0.4989 -0.1472
20876SOL    HW174282   9.917   1.695   0.790  1.5907  0.3093 -1.0738
20876SOL    HW274283   9.946   1.822   0.691 -0.5239  0.8454 -1.0423
20877SOL     OW74284   0.455   8.829   5.460  0.3612  0.3296 -0.4490
20877SOL    HW174285   0.370   8.882   5.457 -0.1309 -0.4307 -0.1020
20877SOL    HW274286   0.529   8.883   5.420 -0.6669  0.2569 -2.5220
20878SOL     OW74287   1.412   2.991   7.421  0.1473 -0.0628  0.1290
20878SOL    HW174288   1.314   2.986   7.405  0.1380 -0.2626  0.2484
20878SOL    HW274289   1.442   3.086   7.414 -0.2285  0.1394  1.0808
20879SOL     OW74290   0.857   5.153   0.528  0.2444  0.2836  0.1849
20879SOL    HW174291   0.955   5.176   0.525  0.3008  0.0104 -0.0528
20879SOL    HW274292   0.805   5.235   0.550  0.5338  0.4192  0.3728
20880SOL     OW74293   5.699   1.363   4.806 -0.3086 -0.4110 -0.6646
20880SOL    HW174294   5.619   1.392   4.753 -0.3244 -0.6036 -0.7490
20880SOL    HW274295   5.743   1.443   4.847 -0.6320 -0.3201 -0.4926
20881SOL     OW74296   0.376   0.801   0.833 -0.2547  0.5683 -0.9092
20881SOL    HW174297   0.336   0.891   0.814  0.3110  0.8290 -0.8923
20881SOL    HW274298   0.436   0.808   0.913  0.6104  0.4152 -1.5324
20882SOL     OW74299   9.811   7.043   5.723  0.1010 -0.3677 -0.0671
20882SOL    HW174300   9.770   7.045   5.815 -0.3353  1.1055 -0.2879
20882SOL    HW274301   9.865   7.126   5.709  0.6493 -0.8691 -0.9314
20883SOL     OW74302   6.572   6.187   1.152 -0.4078  0.1059 -0.9617
20883SOL    HW174303   6.519   6.250   1.095 -1.6929 -0.2721 -0.1794
20883SOL    HW274304   6.604   6.110   1.096  0.5098  1.0315 -1.7421
20884SOL     OW74305   0.599   0.698   3.183 -0.1736 -0.3406 -0.2483
20884SOL    HW174306   0.664   0.665   3.251  0.4789  0.8298 -0.2836
20884SOL    HW274307   0.518   0.734   3.230  0.7589  1.5191  0.0123
20885SOL     OW74308   8.850   4.044   8.122  0.3612 -0.1589  1.1868
20885SOL    HW174309   8.757   4.045   8.158  0.3178  1.3709  1.0451
20885SOL    HW274310   8.858   3.972   8.053 -1.0691  0.5413  0.2760
20886SOL     OW74311   5.278   8.515   5.423  0.6279 -0.4956 -0.1555
20886SOL    HW174312   5.228   8.516   5.510 -0.6880 -0.5881 -0.8952
20886SOL    HW274313   5.366   8.470   5.436  0.6114 -0.1598  1.2242
20887SOL     OW74314   9.987   9.175   1.773 -0.3438  0.2171  0.1488
20887SOL    HW174315   9.986   9.224   1.860 -0.6282 -1.5273  1.1542
20887SOL    HW274316  10.081   9.155   1.746 -0.2140  1.5310 -0.4076
20888SOL     OW74317   2.154   2.140   2.905 -0.2606 -0.9511 -0.6687
20888SOL    HW174318   2.252   2.118   2.902 -0.3097 -1.4866  0.8340
20888SOL    HW274319   2.112   2.092   2.982 -1.2202  1.2013  0.1869
20889SOL     OW74320   7.967   4.831   4.340  0.1373  0.2043 -0.2512
20889SOL    HW174321   8.055   4.873   4.362  0.8866 -1.1172 -0.6635
20889SOL    HW274322   7.933   4.869   4.253 -0.8893  2.4723  1.0927
20890SOL     OW74323   4.913   2.550   0.759 -0.3231  0.2103 -0.0742
20890SOL    HW174324   4.921   2.637   0.709  0.9254  0.3186  0.2886
20890SOL    HW274325   4.837   2.556   0.824 -0.9491  0.6333 -0.8360
20891SOL     OW74326   3.904   9.180   4.412  0.3292 -0.3259  0.1821
20891SOL    HW174327   3.818   9.176   4.462  0.5193  1.2083  0.6625
20891SOL    HW274328   3.888   9.219   4.321  0.5374  0.1052  0.3294
20892SOL     OW74329   0.292   3.282   1.553  0.5138 -0.2502  0.0401
20892SOL    HW174330   0.196   3.283   1.579  0.0382 -0.8273 -1.6224
20892SOL    HW274331   0.349   3.303   1.633 -0.9850  0.2047  1.0044
20893SOL     OW74332   9.590   8.508   4.697 -0.0034 -0.4642  0.5244
20893SOL    HW174333   9.601   8.436   4.628 -4.0192 -2.4430  1.7636
20893SOL    HW274334   9.658   8.495   4.770  0.2296 -2.1751  0.0322
20894SOL     OW74335   2.577   3.931   2.109 -0.4066 -0.6281  0.3552
20894SOL    HW174336   2.653   3.917   2.172 -0.6964 -0.0368  0.8494
20894SOL    HW274337   2.526   4.013   2.136  1.3175  1.4652 -2.4877
20895SOL     OW74338   2.838   7.287   4.160  0.6450 -0.3350  0.3221
20895SOL    HW174339   2.896   7.235   4.097  0.8131 -1.9488  1.7887
20895SOL    HW274340   2.778   7.348   4.107  1.1284 -1.3050 -1.3790
20896SOL     OW74341   3.560   2.492   7.386 -0.4306  0.0707 -0.5919
20896SOL    HW174342   3.584   2.563   7.452 -1.7314  0.1420 -0.1838
20896SOL    HW274343   3.596   2.516   7.296  0.9524  0.2002 -0.0186
20897SOL     OW74344   1.922   3.595   4.175  0.5078 -0.4521 -0.1510
20897SOL    HW174345   1.999   3.651   4.144  0.6382 -0.2681  0.4984
20897SOL    HW274346   1.947   3.548   4.260 -0.2267 -0.0933  0.2672
20898SOL     OW74347   9.433   9.260   2.911 -0.3881 -0.3244  0.1841
20898SOL    HW174348   9.438   9.358   2.894 -1.7183 -0.3960 -0.6839
20898SOL    HW274349   9.463   9.240   3.004 -2.2836  1.1502  1.1252
20899SOL     OW74350   2.538   8.902   0.159  0.5168  0.2435 -0.2843
20899SOL    HW174351   2.560   8.902   0.256  0.6737 -0.0028 -0.3191
20899SOL    HW274352   2.510   8.994   0.131  0.0037  0.2021  0.0963
20900SOL     OW74353   5.121   7.998   3.364 -0.2333  0.1020 -0.0627
20900SOL    HW174354   5.050   7.986   3.433 -0.9696  0.0452 -0.8231
20900SOL    HW274355   5.095   8.071   3.301  0.5643  0.3481 -0.1188
20901SOL     OW74356   8.009   5.072   2.839 -0.2993  0.4036  0.5709
20901SOL    HW174357   8.006   4.982   2.882  1.4927  0.3922  0.6738
20901SOL    HW274358   7.999   5.062   2.740  1.9599 -0.0864  0.3807
20902SOL     OW74359   9.101   7.484   0.067  0.1006  0.1301 -0.6607
20902SOL    HW174360   9.146   7.470   0.155 -1.5031  0.8716  0.3192
20902SOL    HW274361   9.152   7.552   0.013 -0.1338  1.3912  0.6674
20903SOL     OW74362   8.185   5.721   4.571  0.1412  0.1976 -0.3302
20903SOL    HW174363   8.210   5.780   4.647 -1.4159  0.6982 -0.1884
20903SOL    HW274364   8.087   5.699   4.576 -0.0912  0.5827 -2.3839
20904SOL     OW74365   9.585   1.203   0.367 -0.4626  0.0649  0.5163
20904SOL    HW174366   9.648   1.129   0.341 -0.2141  0.8746 -1.2085
20904SOL    HW274367   9.582   1.209   0.467  0.8181 -1.1727  0.6536
20905SOL     OW74368   7.588   5.249   6.554 -0.0084  0.1491 -0.4134
20905SOL    HW174369   7.652   5.179   6.521  0.4102  0.7758 -0.9359
20905SOL    HW274370   7.566   5.312   6.480 -1.9565 -0.5873 -0.4901
20906SOL     OW74371   2.955   4.590   2.532  0.6548  0.5715 -0.0495
20906SOL    HW174372   2.925   4.609   2.438  1.7959 -0.6906 -0.6973
20906SOL    HW274373   2.960   4.675   2.584  1.7465  1.5267 -1.6745
20907SOL     OW74374   1.236   9.869   4.969  0.1803  0.6545 -0.6184
20907SOL    HW174375   1.293   9.904   4.895  0.1377  0.0871 -0.9203
20907SOL    HW274376   1.235   9.769   4.966 -1.5219  0.6792 -1.1352
20908SOL     OW74377   2.372   7.637   4.007  0.0849 -0.2026  0.0017
20908SOL    HW174378   2.429   7.586   4.071  0.2899  0.0701  0.0361
20908SOL    HW274379   2.416   7.724   3.985 -0.5063  0.1814  0.3354
20909SOL     OW74380   0.231   3.193   6.409  0.3684 -0.2242 -0.1018
20909SOL    HW174381   0.254   3.249   6.329  2.8776  0.8427  1.3302
20909SOL    HW274382   0.231   3.096   6.383  0.9904  0.1268 -1.4361
20910SOL     OW74383   6.786   9.368   3.129 -0.0947  0.7379  0.4192
20910SOL    HW174384   6.767   9.447   3.187 -1.8492  0.5246  0.1814
20910SOL    HW274385   6.783   9.395   3.033  1.1620  0.7512  0.3730
20911SOL     OW74386   3.864   2.433   0.882 -0.2475  0.0723  1.0711
20911SOL    HW174387   3.957   2.400   0.863 -1.9026 -3.8992 -0.5086
20911SOL    HW274388   3.837   2.499   0.812  0.1132 -1.4309 -0.5163
20912SOL     OW74389   3.930   1.228   1.516  0.2393  0.2410 -0.0452
20912SOL    HW174390   3.872   1.299   1.474  2.3370  1.0106 -1.7388
20912SOL    HW274391   3.888   1.138   1.502 -1.3852  0.9336  0.2524
20913SOL     OW74392   9.543   8.756   2.854  0.0269  0.2602 -0.2449
20913SOL    HW174393   9.600   8.680   2.885 -1.1513 -1.2628 -1.6710
20913SOL    HW274394   9.577   8.842   2.892  0.6233 -1.1117  2.4458
20914SOL     OW74395   2.055   8.168   5.368  0.1823  0.2059  0.3684
20914SOL    HW174396   2.130   8.129   5.315  0.0468  1.6523 -0.9167
20914SOL    HW274397   2.087   8.250   5.415 -0.7265  1.1831 -0.6831
20915SOL     OW74398   5.977   2.540   1.462  0.3979  0.1584 -0.2014
20915SOL    HW174399   6.032   2.535   1.546  0.7453 -0.2573 -0.4527
20915SOL    HW274400   5.975   2.634   1.429  0.4645  0.2798  0.1358
20916SOL     OW74401   8.288   6.677   1.617 -0.1790  0.3584  0.6328
20916SOL    HW174402   8.283   6.749   1.547  1.4244 -0.6291 -0.5520
20916SOL    HW274403   8.368   6.619   1.599 -2.7739 -3.2283  0.1001
20917SOL     OW74404   7.458   6.014   6.708 -0.4560  0.4517 -0.1872
20917SOL    HW174405   7.386   5.948   6.728 -1.3750  1.3106 -0.6217
20917SOL    HW274406   7.430   6.072   6.631  0.8338  0.5836 -0.5770
20918SOL     OW74407   1.219   1.359   7.384  0.6347 -0.5457 -0.3253
20918SOL    HW174408   1.156   1.396   7.452  2.7471 -0.3624  1.6027
20918SOL    HW274409   1.234   1.426   7.312  1.0550  0.6351  0.8555
20919SOL     OW74410   7.842   9.259   2.237 -0.5067 -0.5897  0.4758
20919SOL    HW174411   7.810   9.346   2.199 -1.1323 -1.1494 -0.3012
20919SOL    HW274412   7.875   9.273   2.330 -1.2256  0.3545  0.5910
20920SOL     OW74413   1.316   6.297   4.406 -0.3532  1.0831 -0.1456
20920SOL    HW174414   1.293   6.201   4.392  0.6738  0.7151  0.6351
20920SOL    HW274415   1.397   6.320   4.352  2.3554  0.2125  3.3913
20921SOL     OW74416   7.560   0.344   6.693 -0.1736  0.1213  0.0005
20921SOL    HW174417   7.509   0.262   6.721  0.1616 -0.3678 -0.7888
20921SOL    HW274418   7.496   0.417   6.671 -0.4686  0.1854  1.0346
20922SOL     OW74419   1.237   2.975   0.515 -0.3707 -0.1580  0.0507
20922SOL    HW174420   1.276   3.041   0.579  1.7227 -0.5181 -0.8246
20922SOL    HW274421   1.145   2.949   0.546 -1.9625  4.4372 -0.4927
20923SOL     OW74422   4.470   1.560   0.369  0.3174 -0.4426 -0.6055
20923SOL    HW174423   4.521   1.639   0.336 -0.5440  0.3919  0.0175
20923SOL    HW274424   4.519   1.476   0.346  2.3108  0.3676  0.5812
20924SOL     OW74425   5.624   6.412   0.849 -0.1546  0.5684  0.5018
20924SOL    HW174426   5.689   6.487   0.861 -1.1556  1.0985  2.8502
20924SOL    HW274427   5.595   6.378   0.939 -2.7182 -0.0073 -0.5125
20925SOL     OW74428   1.770   1.383   1.396  0.4751  0.1698 -0.8664
20925SOL    HW174429   1.861   1.345   1.383  1.2289  1.1201  1.2897
20925SOL    HW274430   1.776   1.462   1.457 -2.0004 -0.8384  0.7665
20926SOL     OW74431   8.395   0.893   7.297 -0.5331 -0.3842 -0.6213
20926SOL    HW174432   8.466   0.929   7.358 -1.5015  0.3919  0.0643
20926SOL    HW274433   8.412   0.796   7.279  0.4754 -0.2976 -0.1451
20927SOL     OW74434   2.494   1.539   0.347  0.2564 -0.1919  0.4152
20927SOL    HW174435   2.537   1.606   0.407 -0.6128 -0.9157  1.8776
20927SOL    HW274436   2.395   1.539   0.364 -0.1058  0.1218 -1.5598
20928SOL     OW74437   1.097   9.133   0.226 -0.1018 -0.2133 -0.2010
20928SOL    HW174438   1.039   9.193   0.280  0.6219 -1.3300  1.9143
20928SOL    HW274439   1.193   9.158   0.240  0.1188 -0.7922 -0.6276
20929SOL     OW74440   1.495   5.336   5.662 -0.1384  0.6678 -0.6144
20929SOL    HW174441   1.527   5.358   5.754  0.0370 -0.5356 -0.3714
20929SOL    HW274442   1.421   5.398   5.636 -0.8241  0.4265  0.7170
20930SOL     OW74443   0.514   1.456   3.650 -0.4033 -0.4674  0.6124
20930SOL    HW174444   0.447   1.403   3.599  0.0045 -0.7972  0.4131
20930SOL    HW274445   0.497   1.553   3.638  0.0428 -0.5352 -0.6258
20931SOL     OW74446   1.560   4.890   5.070  0.5794  0.1155 -0.1283
20931SOL    HW174447   1.645   4.866   5.023  0.5590  2.6588 -1.5651
20931SOL    HW274448   1.534   4.816   5.132  3.8455 -0.6651  0.3698
20932SOL     OW74449   3.046   2.972   2.347 -0.3995  0.3470  0.0373
20932SOL    HW174450   3.079   2.917   2.271  1.3117  1.8535 -0.3476
20932SOL    HW274451   3.089   2.941   2.432 -0.0874  0.5213 -0.0543
20933SOL     OW74452   7.368   7.681   6.540  0.1493  0.1406  0.4031
20933SOL    HW174453   7.297   7.675   6.471 -0.3685 -0.1198  0.9507
20933SOL    HW274454   7.452   7.637   6.507  0.2749  1.0691 -0.5170
20934SOL     OW74455   8.242   2.323   3.084  0.4760  0.0543 -0.5330
20934SOL    HW174456   8.340   2.303   3.084  1.1052  2.8385  0.4486
20934SOL    HW274457   8.210   2.330   3.179 -1.0175 -2.2126 -0.8273
20935SOL     OW74458   0.364   2.988   7.745  0.0247  0.0948 -0.4718
20935SOL    HW174459   0.418   2.922   7.797 -1.1106 -0.4849 -0.0328
20935SOL    HW274460   0.385   2.979   7.648  1.1013  0.2312 -0.2678
20936SOL     OW74461   1.472   6.881   1.243  0.2175 -0.1706  0.1851
20936SOL    HW174462   1.418   6.832   1.173 -0.5710  0.4030  0.3866
20936SOL    HW274463   1.522   6.956   1.199  1.5735 -1.2500 -0.1567
20937SOL     OW74464   0.552   3.892   2.669 -0.0062  0.4684  0.3123
20937SOL    HW174465   0.606   3.958   2.616  0.6471 -0.8841 -0.7397
20937SOL    HW274466   0.457   3.923   2.674 -0.1256  0.5158 -1.8274
20938SOL     OW74467   7.657   9.402   6.621 -0.0557  0.3431 -0.0295
20938SOL    HW174468   7.601   9.414   6.704  0.3569  0.6042  0.2116
20938SOL    HW274469   7.742   9.454   6.630  1.1717 -1.7035  0.4711
20939SOL     OW74470   1.717   1.073   2.607 -0.7437 -0.1180 -0.3642
20939SOL    HW174471   1.767   0.987   2.595 -2.1043 -1.0169  0.2853
20939SOL    HW274472   1.649   1.083   2.534 -1.7357 -0.4184  0.5060
20940SOL     OW74473   3.148   8.609   3.655 -0.4205  0.1305 -0.0796
20940SOL    HW174474   3.243   8.616   3.624 -0.3485  1.2405  0.3843
20940SOL    HW274475   3.141   8.535   3.723  0.4429  1.1091  1.1022
20941SOL     OW74476   8.998   4.247   6.300 -0.1600  0.2767  0.0227
20941SOL    HW174477   8.979   4.155   6.333 -1.5763  0.5269 -0.0837
20941SOL    HW274478   9.096   4.265   6.308  0.2205 -1.4648 -0.5689
20942SOL     OW74479   0.582   3.152   1.959 -0.5900 -0.0151 -0.2543
20942SOL    HW174480   0.537   3.166   2.047  1.9172  2.3346  0.7722
20942SOL    HW274481   0.514   3.146   1.887 -2.6039  1.4206  1.4544
20943SOL     OW74482   0.485   3.504   7.959 -0.3556 -0.7414 -0.2911
20943SOL    HW174483   0.584   3.516   7.966 -0.3053 -2.0625  1.6942
20943SOL    HW274484   0.465   3.433   7.891  0.0052  0.0329 -1.2201
20944SOL     OW74485   2.296   3.836   7.300 -0.2238  0.3370 -0.0916
20944SOL    HW174486   2.258   3.845   7.208  2.3261  0.0886 -1.2102
20944SOL    HW274487   2.301   3.739   7.325 -3.9861  0.4918  1.7176
20945SOL     OW74488   9.438   6.927   5.376  0.6903 -0.4590  0.2500
20945SOL    HW174489   9.360   6.982   5.346 -0.3579 -1.5156  0.9818
20945SOL    HW274490   9.454   6.853   5.311  0.6390 -0.6538  0.4581
20946SOL     OW74491   9.309   0.024   7.314  0.1176  0.6601  0.0685
20946SOL    HW174492   9.320   0.008   7.412  1.9311  0.1470 -0.2052
20946SOL    HW274493   9.222  -0.016   7.284  0.2495 -0.5176  1.1916
20947SOL     OW74494   8.551   1.791   5.539  0.5047 -0.1683 -0.2368
20947SOL    HW174495   8.536   1.753   5.447 -2.2419  1.6023 -0.5870
20947SOL    HW274496   8.494   1.741   5.605  1.5045 -0.6000  0.3036
20948SOL     OW74497   8.289   1.648   6.762 -0.0003  0.3213 -0.2859
20948SOL    HW174498   8.252   1.556   6.774 -0.6801  0.6200 -0.1072
20948SOL    HW274499   8.347   1.650   6.680 -1.5469  0.2193 -1.3963
20949SOL     OW74500   2.928   4.886   6.232  0.1445 -0.0362 -0.1269
20949SOL    HW174501   2.979   4.972   6.222  1.7962 -0.7915  1.3212
20949SOL    HW274502   2.830   4.905   6.232  0.4731  1.7899 -0.3947
20950SOL     OW74503   9.999   7.513   7.679  0.2314 -0.6986  0.4793
20950SOL    HW174504   9.986   7.583   7.608  0.1528  0.0471  1.2082
20950SOL    HW274505   9.992   7.557   7.769 -0.4777 -1.7714  0.9508
20951SOL     OW74506   8.262   5.015   8.182 -0.1084  0.3658 -0.1028
20951SOL    HW174507   8.166   4.988   8.174  0.5335 -1.6851 -1.2927
20951SOL    HW274508   8.288   5.069   8.101  0.2088 -0.6108 -0.6581
20952SOL     OW74509   7.566   1.538   2.805  0.0189  0.2236 -0.4429
20952SOL    HW174510   7.563   1.604   2.880 -1.7569  0.6825 -0.9049
20952SOL    HW274511   7.654   1.491   2.806  0.1103  0.3936  1.7951
20953SOL     OW74512   4.904   1.000   1.720  0.0668  0.3094 -0.2873
20953SOL    HW174513   4.837   1.056   1.672  0.5513 -0.7190 -2.2318
20953SOL    HW274514   4.979   1.058   1.752 -0.4459  1.0657 -0.4396
20954SOL     OW74515   5.410   6.007   0.897  0.2126  0.6160  0.0904
20954SOL    HW174516   5.349   6.085   0.884  0.8023  0.7994 -1.6818
20954SOL    HW274517   5.489   6.015   0.837  0.8298 -0.8080  0.6689
20955SOL     OW74518   2.388   8.421   4.896  0.0725 -0.1390  0.0794
20955SOL    HW174519   2.294   8.392   4.911 -0.3818  0.2342 -1.9383
20955SOL    HW274520   2.392   8.521   4.892  0.0216 -0.2238 -2.9962
20956SOL     OW74521   0.393   2.454   4.357  0.0628 -0.0934  1.2569
20956SOL    HW174522   0.433   2.516   4.424 -1.3497  0.6570  1.4212
20956SOL    HW274523   0.339   2.506   4.292  0.2203 -0.9837  0.3987
20957SOL     OW74524   1.659   3.627   6.010 -0.1739 -0.2230 -0.9174
20957SOL    HW174525   1.583   3.604   5.950 -0.4898  0.5488 -0.8149
20957SOL    HW274526   1.690   3.544   6.058  0.8737 -1.0812 -3.0333
20958SOL     OW74527   3.572   5.766   0.980  0.1264  0.4206  0.3548
20958SOL    HW174528   3.625   5.829   1.035 -0.2552  0.1329  1.0572
20958SOL    HW274529   3.584   5.672   1.014  2.1203 -0.1510 -1.7858
20959SOL     OW74530   6.214   8.767   4.444  0.6621 -0.2151  0.0992
20959SOL    HW174531   6.144   8.703   4.476  2.4651 -0.8564  2.9486
20959SOL    HW274532   6.190   8.799   4.352 -2.2408 -2.0268  0.1463
20960SOL     OW74533   2.949   5.224   4.254 -0.2984 -0.0458  0.1407
20960SOL    HW174534   3.015   5.277   4.201 -0.4225  1.1876  1.2066
20960SOL    HW274535   2.859   5.230   4.210  0.0985 -0.9717 -0.8057
20961SOL     OW74536   7.299   2.205   5.725  0.1144 -0.6827 -0.1095
20961SOL    HW174537   7.254   2.247   5.646 -0.0401  0.9044  0.7858
20961SOL    HW274538   7.398   2.204   5.711  0.2830  1.8194  0.6697
20962SOL     OW74539   0.129   7.513   2.910  0.1225 -0.4635 -0.5255
20962SOL    HW174540   0.216   7.530   2.863 -0.7774  2.7757 -1.1277
20962SOL    HW274541   0.054   7.552   2.857 -1.3168  0.0939  1.8518
20963SOL     OW74542   2.547   7.730   2.031 -0.1086 -0.2815 -0.1423
20963SOL    HW174543   2.623   7.666   2.018  1.2818  0.9587  1.5462
20963SOL    HW274544   2.480   7.691   2.093 -1.5459 -1.9248 -2.6657
20964SOL     OW74545   5.626   0.466   1.597 -0.1083  0.0462 -0.0612
20964SOL    HW174546   5.579   0.419   1.672 -0.5730 -1.0965 -1.0624
20964SOL    HW274547   5.587   0.558   1.587 -1.9032 -0.7499 -0.6375
20965SOL     OW74548   5.441   9.137   3.531  0.3815 -0.2565 -0.0373
20965SOL    HW174549   5.522   9.181   3.494 -0.4379  0.4832 -0.9850
20965SOL    HW274550   5.401   9.078   3.460 -0.0385 -0.4342  0.3492
20966SOL     OW74551   9.328   7.820   5.542 -0.4165  0.4765  0.2095
20966SOL    HW174552   9.253   7.853   5.484 -0.6554 -2.1120 -1.0418
20966SOL    HW274553   9.302   7.732   5.582  1.9162 -0.4296 -0.2010
20967SOL     OW74554   3.469   3.007   6.054  0.1966  0.0247 -0.2217
20967SOL    HW174555   3.502   3.042   6.142 -2.7199  1.0761  0.5224
20967SOL    HW274556   3.442   2.911   6.064 -1.0294  0.4097  0.3267
20968SOL     OW74557   5.790   3.642   1.049  0.7411 -0.3741  0.1414
20968SOL    HW174558   5.793   3.663   1.147 -1.1467  2.1567 -0.3106
20968SOL    HW274559   5.839   3.714   0.999 -0.6561 -0.2010 -0.9823
20969SOL     OW74560   0.310   7.275   4.357 -0.0843  0.7013  0.0389
20969SOL    HW174561   0.388   7.250   4.301 -0.5414  1.2568 -0.8529
20969SOL    HW274562   0.248   7.197   4.365  0.2780  0.4348  0.2838
20970SOL     OW74563   3.874   0.528   6.129  0.9915 -0.2136  0.2191
20970SOL    HW174564   3.828   0.464   6.191 -2.4907  0.8099 -1.1858
20970SOL    HW274565   3.885   0.617   6.175 -0.2499  0.1123 -0.0956
20971SOL     OW74566   3.030   9.063   2.232 -0.5693  0.0918  0.3271
20971SOL    HW174567   2.942   9.076   2.278 -1.7004  1.4618 -2.1116
20971SOL    HW274568   3.057   8.967   2.239 -4.0054 -1.1324 -1.8480
20972SOL     OW74569   9.411   7.543   3.139  0.7536 -0.1753 -0.0066
20972SOL    HW174570   9.490   7.500   3.182  0.4484 -0.7295  0.0041
20972SOL    HW274571   9.442   7.612   3.074  1.2186  0.8590  1.2778
20973SOL     OW74572   0.613   0.761   0.477 -0.0326 -0.6563 -0.3253
20973SOL    HW174573   0.590   0.842   0.531 -1.3850 -0.8251 -0.6183
20973SOL    HW274574   0.570   0.681   0.518  2.2241 -1.4110  0.6037
20974SOL     OW74575   8.627   6.441   5.008  0.2377  0.2626  0.4722
20974SOL    HW174576   8.577   6.483   5.085 -0.5115 -1.9970  1.2528
20974SOL    HW274577   8.631   6.342   5.022  1.1438 -0.0309 -1.8251
20975SOL     OW74578   5.561   5.804   0.201  0.2733  0.2355  0.8356
20975SOL    HW174579   5.660   5.805   0.183  0.3523  0.2743  1.2721
20975SOL    HW274580   5.512   5.837   0.120  0.6786  1.3369  1.0310
20976SOL     OW74581   0.709   3.632   7.648  0.3509 -0.1487 -0.3663
20976SOL    HW174582   0.719   3.570   7.725 -3.1413  0.5145  0.6987
20976SOL    HW274583   0.782   3.700   7.650 -1.0153  1.3182  3.7882
20977SOL     OW74584   0.751   2.681   3.383  0.4034 -0.3888 -0.1206
20977SOL    HW174585   0.763   2.593   3.428  0.9206 -1.4245 -2.2535
20977SOL    HW274586   0.824   2.695   3.316 -0.3914  1.1051 -0.7030
20978SOL     OW74587   5.276   0.727   2.225  0.2016  0.0883 -0.2615
20978SOL    HW174588   5.284   0.728   2.125  0.0159  0.3996 -0.2717
20978SOL    HW274589   5.180   0.725   2.251  0.2301  1.0722 -0.0761
20979SOL     OW74590   6.721   9.951   3.691  0.2203  0.1386  0.1742
20979SOL    HW174591   6.739   9.871   3.748 -0.2839  0.9378  1.5051
20979SOL    HW274592   6.741  10.034   3.744 -0.6930  0.9148 -0.6712
20980SOL     OW74593   1.441   6.595   5.300 -0.0783 -0.6443  0.5150
20980SOL    HW174594   1.419   6.657   5.224 -1.8104 -2.8570 -0.8670
20980SOL    HW274595   1.452   6.648   5.384 -0.7663  1.6055 -0.7624
20981SOL     OW74596   0.887   3.503   2.389 -0.4198 -0.1812 -0.0109
20981SOL    HW174597   0.983   3.483   2.368 -0.3089 -0.1208  0.4299
20981SOL    HW274598   0.882   3.559   2.472 -0.8388 -0.2371  0.0016
20982SOL     OW74599   0.530   8.933   4.059  0.2038  0.0468 -0.3980
20982SOL    HW174600   0.545   9.029   4.036 -0.1890 -0.0607 -1.0976
20982SOL    HW274601   0.435   8.908   4.040  0.7457 -0.9396 -1.8255
20983SOL     OW74602   4.976   7.526   4.405  0.2337  0.0877  0.1593
20983SOL    HW174603   4.908   7.499   4.337  0.4638 -2.0619  0.7457
20983SOL    HW274604   4.996   7.623   4.395 -0.6729  0.0838 -2.0061
20984SOL     OW74605   9.270   4.016   2.535  0.4062 -0.1350  0.1100
20984SOL    HW174606   9.287   4.092   2.472  0.4064  1.0703  1.5361
20984SOL    HW274607   9.174   3.988   2.530 -0.0841  1.3395  1.0707
20985SOL     OW74608   0.850   1.036   3.282  0.0470  0.4345 -0.0236
20985SOL    HW174609   0.843   1.019   3.183  0.3874  1.8687 -0.3012
20985SOL    HW274610   0.934   0.995   3.316  0.6034  1.0925 -0.5894
20986SOL     OW74611   3.846   5.404   1.041  0.4556  0.3468  0.2534
20986SOL    HW174612   3.780   5.344   0.996 -1.7346  0.9423  2.5740
20986SOL    HW274613   3.799   5.464   1.105  3.1232  1.5885  1.1257
20987SOL     OW74614   8.305   9.875   1.007  0.0944 -0.2938 -0.1732
20987SOL    HW174615   8.330   9.909   0.917  0.0558 -1.5010 -0.6538
20987SOL    HW274616   8.252   9.791   0.997 -2.6955  1.2852  0.8668
20988SOL     OW74617   8.663   2.016   0.437 -0.3019 -0.0239 -0.3416
20988SOL    HW174618   8.754   1.975   0.434  0.3274  1.3863 -0.9679
20988SOL    HW274619   8.671   2.116   0.433 -1.9014  0.0962 -1.0853
20989SOL     OW74620   9.683   5.296   4.297 -0.3951  0.1481 -0.1813
20989SOL    HW174621   9.604   5.347   4.331 -1.5697 -0.8497 -1.3747
20989SOL    HW274622   9.656   5.203   4.275  1.3850 -0.5547  0.4744
20990SOL     OW74623   2.304   8.374   3.912 -0.1048  0.3498  0.0208
20990SOL    HW174624   2.213   8.401   3.880 -0.0584  0.0553 -0.3693
20990SOL    HW274625   2.296   8.326   3.999 -0.2214  1.2964  0.5234
20991SOL     OW74626   6.529   2.642   4.851  0.7148  0.1578  1.0492
20991SOL    HW174627   6.618   2.597   4.861  0.2183 -1.1119 -0.0887
20991SOL    HW274628   6.536   2.714   4.782  0.6357 -0.5788  0.2618
20992SOL     OW74629   6.179   1.689   3.842 -0.0986  0.7597  0.7664
20992SOL    HW174630   6.079   1.693   3.831  0.0149 -2.1948 -2.3413
20992SOL    HW274631   6.219   1.773   3.806 -1.3495  1.0443 -0.0026
20993SOL     OW74632   4.905   8.601   1.854 -0.3290 -0.0238  0.0325
20993SOL    HW174633   4.905   8.552   1.941  1.0399 -0.2905 -0.1104
20993SOL    HW274634   4.883   8.698   1.870 -0.8764 -0.2382  0.5742
20994SOL     OW74635   9.009   1.793   6.983 -0.8791 -0.1946 -0.6730
20994SOL    HW174636   9.072   1.721   7.010  0.3002  0.5537 -1.4119
20994SOL    HW274637   9.059   1.877   6.965 -1.8979  0.0376 -2.6470
20995SOL     OW74638   1.472   5.299   4.391 -0.2453  0.1026 -0.3609
20995SOL    HW174639   1.481   5.397   4.375  0.1816  0.1099 -0.0785
20995SOL    HW274640   1.562   5.258   4.404 -0.4366 -0.2796 -0.2084
20996SOL     OW74641   4.125   1.472   0.935  0.4971  0.2727  0.5682
20996SOL    HW174642   4.137   1.431   1.026  1.0379  1.3484  1.0017
20996SOL    HW274643   4.129   1.401   0.865 -1.2182 -0.7481  1.4668
20997SOL     OW74644   8.668   5.707   6.143  0.0494  0.6795  0.0295
20997SOL    HW174645   8.679   5.692   6.045 -0.4707  1.9143 -0.2155
20997SOL    HW274646   8.631   5.798   6.160  1.0938  0.8573  1.4282
20998SOL     OW74647   8.886   0.081   5.984  0.4386  0.1150 -0.7408
20998SOL    HW174648   8.955   0.143   5.945  0.2788  0.3693 -0.6238
20998SOL    HW274649   8.796   0.106   5.948  0.6722 -1.6191 -2.6188
20999SOL     OW74650   7.529   4.232   1.870 -0.5134 -0.0295  0.3611
20999SOL    HW174651   7.530   4.239   1.770  2.2789 -0.1955  0.3471
20999SOL    HW274652   7.525   4.135   1.897 -0.0130 -0.0352  0.4111
21000SOL     OW74653   8.550   1.688   3.314 -0.0797 -0.4870  0.5874
21000SOL    HW174654   8.475   1.658   3.255 -0.5812  0.2106  0.8676
21000SOL    HW274655   8.571   1.784   3.295 -0.1496 -0.2964  1.4565
21001SOL     OW74656   9.772   3.898   4.157  0.0626 -0.4326 -0.1781
21001SOL    HW174657   9.712   3.973   4.185  0.4627 -0.2536  0.2083
21001SOL    HW274658   9.796   3.909   4.061 -1.4696 -1.1516 -0.6481
21002SOL     OW74659   0.872   5.858   4.946  0.4185  0.0100  0.2368
21002SOL    HW174660   0.783   5.819   4.971 -0.4042  0.6677 -1.5711
21002SOL    HW274661   0.938   5.784   4.932 -0.2471 -0.5725  0.1414
21003SOL     OW74662   1.494   4.288   5.480  0.0898 -0.4323  0.0673
21003SOL    HW174663   1.591   4.311   5.488 -0.2056  0.3529  1.6146
21003SOL    HW274664   1.459   4.261   5.570 -0.9208 -1.5576 -0.6549
21004SOL     OW74665   0.464   8.886   6.935  0.0052 -0.0385  0.0626
21004SOL    HW174666   0.540   8.933   6.890  1.4797 -2.2142  0.1938
21004SOL    HW274667   0.477   8.787   6.928 -2.1540 -0.4391  1.2241
21005SOL     OW74668   2.377   3.977   0.002  0.0752 -0.0294 -0.6685
21005SOL    HW174669   2.279   3.992  -0.014  0.1847 -0.2660 -1.6217
21005SOL    HW274670   2.390   3.929   0.088 -0.5738  1.1155  0.0831
21006SOL     OW74671   8.084   4.486   3.689 -0.1945 -0.3446  0.1398
21006SOL    HW174672   8.006   4.539   3.722  1.1421  2.2739 -0.7346
21006SOL    HW274673   8.083   4.483   3.589  0.8134 -0.3217  0.1241
21007SOL     OW74674   2.648   6.726   2.765 -0.8248 -0.4343 -0.1622
21007SOL    HW174675   2.564   6.737   2.712  0.4985 -1.2377 -2.5454
21007SOL    HW274676   2.645   6.639   2.815 -2.1884  0.4353  1.2646
21008SOL     OW74677   0.279   7.252   6.828 -0.0729  0.2229  0.4897
21008SOL    HW174678   0.185   7.216   6.827  0.5559 -1.4700  0.0790
21008SOL    HW274679   0.308   7.266   6.922  0.1296 -1.6614  0.7267
21009SOL     OW74680   5.130   8.274   1.774 -0.1280 -0.0763  0.1671
21009SOL    HW174681   5.206   8.209   1.777  1.4142  1.6564 -0.8273
21009SOL    HW274682   5.114   8.303   1.680 -2.1448 -0.5229  0.3447
21010SOL     OW74683   3.894   5.980   0.496 -0.1414 -0.1661 -0.0003
21010SOL    HW174684   3.914   6.075   0.521 -0.2616 -0.4645  1.2990
21010SOL    HW274685   3.979   5.935   0.467 -0.2215  0.5462 -1.3601
21011SOL     OW74686   5.123   8.620   5.225  0.1303  0.0022  0.0373
21011SOL    HW174687   5.061   8.666   5.288  0.4530  1.9932 -1.0409
21011SOL    HW274688   5.206   8.594   5.274  0.2226  1.1900  0.5407
21012SOL     OW74689   0.313   8.425   4.342  0.0179 -0.1698  0.1079
21012SOL    HW174690   0.398   8.435   4.393 -0.3137 -1.3611  0.9043
21012SOL    HW274691   0.334   8.402   4.247  0.5925 -2.5977  0.7754
21013SOL     OW74692   1.294   8.777   2.923  0.6040  0.0147 -0.1960
21013SOL    HW174693   1.256   8.847   2.984  1.5212  0.5150 -0.1945
21013SOL    HW274694   1.345   8.710   2.978  1.0802  0.2364 -0.3717
21014SOL     OW74695   9.145   5.485   1.651  0.1505 -0.5826 -0.2236
21014SOL    HW174696   9.162   5.450   1.743  0.0689  1.6864  0.6992
21014SOL    HW274697   9.160   5.413   1.584  0.2320 -2.2612  1.5698
21015SOL     OW74698   4.937   5.961   1.486  0.9739 -0.6231 -0.2411
21015SOL    HW174699   5.024   5.912   1.477  0.8393 -0.6541 -1.3983
21015SOL    HW274700   4.953   6.058   1.473  1.0735 -0.4509  1.0615
21016SOL     OW74701   0.406   7.538   0.470 -0.3999 -0.5631  0.0346
21016SOL    HW174702   0.358   7.458   0.434 -1.3357 -0.0855  0.2366
21016SOL    HW274703   0.366   7.621   0.433 -0.2652 -0.1358  0.8404
21017SOL     OW74704   4.370   8.648   1.026 -0.5389  0.2613 -0.3105
21017SOL    HW174705   4.333   8.562   1.061 -1.8150  0.8862 -0.1276
21017SOL    HW274706   4.403   8.634   0.932  0.8995 -0.8628  0.3371
21018SOL     OW74707   9.448   7.562   0.079  0.0846 -0.3193  0.0939
21018SOL    HW174708   9.523   7.512   0.034 -1.2379 -1.3256 -1.0176
21018SOL    HW274709   9.401   7.619   0.012  0.7508  1.4619  1.0929
21019SOL     OW74710   3.451   8.471   2.446  0.2184 -0.2701 -0.4758
21019SOL    HW174711   3.541   8.513   2.430  0.3881  0.0935  1.3470
21019SOL    HW274712   3.395   8.483   2.364  1.6987 -0.1883 -1.5127
21020SOL     OW74713   7.070   9.640   1.557 -0.0258  0.4898 -0.1082
21020SOL    HW174714   7.038   9.567   1.497  0.3063 -1.7261  2.3357
21020SOL    HW274715   7.169   9.633   1.570 -0.0189  1.2520  0.3064
21021SOL     OW74716   4.191   7.911   2.359  0.2658  0.3115  0.0269
21021SOL    HW174717   4.220   7.986   2.419 -1.4405  1.0023  0.0099
21021SOL    HW274718   4.228   7.926   2.268 -1.4696  2.0929 -0.4286
21022SOL     OW74719   4.345   4.496   0.304  0.0450  0.6353 -0.6233
21022SOL    HW174720   4.426   4.464   0.353  0.2984  0.2872 -1.2705
21022SOL    HW274721   4.305   4.420   0.253 -1.7896  0.3129  1.1992
21023SOL     OW74722   1.280   8.088   3.356  0.1408  0.0103  0.0620
21023SOL    HW174723   1.315   7.995   3.348 -2.0558 -1.0287  1.7088
21023SOL    HW274724   1.191   8.094   3.310  0.1033  1.1909  0.2762
21024SOL     OW74725   4.462   2.905   4.446  0.6465 -0.3244 -0.2381
21024SOL    HW174726   4.550   2.858   4.440  0.1749 -1.2783  0.1332
21024SOL    HW274727   4.462   2.967   4.525  2.2113  2.3373 -2.2570
21025SOL     OW74728   4.005   0.775   1.615 -0.1400  0.2258  0.2616
21025SOL    HW174729   3.961   0.685   1.612  0.6376 -0.1453 -0.1531
21025SOL    HW274730   3.951   0.836   1.672 -1.9996  0.2262 -1.4485
21026SOL     OW74731   9.251   7.579   5.665  0.1819  0.0180  0.2346
21026SOL    HW174732   9.316   7.502   5.663  0.4820  0.2826 -0.2508
21026SOL    HW274733   9.254   7.623   5.755  0.0038 -0.5432  0.5174
21027SOL     OW74734   1.148   2.489   1.824  0.4400  0.2673  0.0102
21027SOL    HW174735   1.104   2.551   1.889 -0.3515  0.3964 -0.6405
21027SOL    HW274736   1.145   2.529   1.733  0.8673 -0.2597 -0.2366
21028SOL     OW74737   0.430   8.004   1.039  0.5358  0.0271 -0.2687
21028SOL    HW174738   0.367   8.014   1.116 -0.7768  1.3601 -1.4754
21028SOL    HW274739   0.524   7.994   1.073  0.0897  1.5219  1.4664
21029SOL     OW74740   2.652   5.662   6.877 -0.0457  0.2758  0.2793
21029SOL    HW174741   2.708   5.669   6.794  0.2654  0.8880  0.5373
21029SOL    HW274742   2.573   5.604   6.858  0.1064  0.2766 -0.4026
21030SOL     OW74743   1.615   6.403   1.587 -0.1458  0.5496  0.0658
21030SOL    HW174744   1.625   6.413   1.686  0.7523 -0.2737  0.0693
21030SOL    HW274745   1.629   6.492   1.543 -0.8199  0.9702  0.6940
21031SOL     OW74746   0.960   2.972   0.702 -0.0204 -0.3812 -0.0081
21031SOL    HW174747   0.942   2.886   0.750  1.8327 -0.6717  0.2030
21031SOL    HW274748   0.969   3.046   0.768 -1.2548 -0.0914 -0.1653
21032SOL     OW74749   9.958   9.133   2.657  0.1622  0.3088 -0.0576
21032SOL    HW174750   9.895   9.086   2.596  1.9091 -0.6489 -1.1410
21032SOL    HW274751  10.051   9.099   2.643  0.9832  1.8900  1.3311
21033SOL     OW74752   0.366   7.519   2.143 -0.1705  0.2662 -0.4068
21033SOL    HW174753   0.403   7.467   2.220  0.4261 -0.2197 -1.0261
21033SOL    HW274754   0.384   7.617   2.158 -0.6663  0.2367  0.4058
21034SOL     OW74755   9.449   8.187   1.581 -0.8156 -0.0392 -0.2182
21034SOL    HW174756   9.477   8.277   1.549 -0.0341 -0.5234 -0.9063
21034SOL    HW274757   9.354   8.170   1.553 -0.8099  0.3724 -0.4890
21035SOL     OW74758   2.171   3.366   6.205  0.1435 -0.4350  0.2267
21035SOL    HW174759   2.121   3.384   6.290 -1.0195 -0.6834 -0.4003
21035SOL    HW274760   2.181   3.267   6.192  1.1145 -0.3818  0.5289
21036SOL     OW74761   8.296   3.746   0.658  0.0315 -0.2113  0.3958
21036SOL    HW174762   8.287   3.675   0.588 -1.9782  1.0016 -0.6165
21036SOL    HW274763   8.206   3.768   0.695  0.9983 -0.4613  3.0513
21037SOL     OW74764   4.934   0.638   5.764 -0.1375  0.0301  0.0988
21037SOL    HW174765   4.956   0.693   5.844 -0.4174  0.1759  0.0782
21037SOL    HW274766   4.860   0.575   5.787  0.4682 -0.6308  0.2429
21038SOL     OW74767   0.395   8.842   4.680 -0.4123 -0.1216  0.1081
21038SOL    HW174768   0.415   8.929   4.636 -0.8643  0.6890  1.4843
21038SOL    HW274769   0.442   8.768   4.631  1.0188  1.0381 -0.3010
21039SOL     OW74770   7.085   5.656   7.430 -0.4420 -0.3602 -0.3089
21039SOL    HW174771   7.027   5.682   7.353 -1.1939  0.1662  0.4236
21039SOL    HW274772   7.110   5.738   7.481  0.1305 -0.7001 -0.0520
21040SOL     OW74773   4.115   3.137   0.296 -0.4511 -0.8849 -0.6470
21040SOL    HW174774   4.178   3.167   0.368 -1.1224 -0.6290 -0.1654
21040SOL    HW274775   4.160   3.066   0.241  1.5264  1.5906 -2.3872
21041SOL     OW74776   5.956   0.072   6.342  0.3164 -0.0631 -0.2979
21041SOL    HW174777   5.912   0.158   6.369 -1.6535 -0.8370 -0.9478
21041SOL    HW274778   6.042   0.092   6.295  0.3733  1.5189  0.4478
21042SOL     OW74779   3.103   1.510   7.584 -0.3790 -0.5290 -0.1574
21042SOL    HW174780   3.108   1.583   7.652 -0.5648 -0.9190  0.2751
21042SOL    HW274781   3.008   1.495   7.558 -0.0361  2.1387 -3.2548
21043SOL     OW74782   7.749   6.054   5.073 -0.4613  0.1617  0.3426
21043SOL    HW174783   7.848   6.040   5.070 -0.4730 -0.1127  1.2419
21043SOL    HW274784   7.710   6.030   4.984  0.0625 -1.4778  0.5304
21044SOL     OW74785   2.923   8.961   3.376  0.2205 -0.4383  0.2711
21044SOL    HW174786   2.843   9.004   3.416 -0.1814  0.0801 -1.0734
21044SOL    HW274787   2.987   8.936   3.449  0.6541  2.7771  1.0939
21045SOL     OW74788   0.588   0.841   5.029  0.0530 -0.6455 -0.2603
21045SOL    HW174789   0.668   0.871   4.978  0.9291  1.7845  2.4120
21045SOL    HW274790   0.505   0.866   4.979  0.8950  0.4974 -1.0919
21046SOL     OW74791   1.708   1.581   1.944 -0.3870  0.3607 -0.5269
21046SOL    HW174792   1.643   1.519   1.987  0.1743  0.0392 -0.1233
21046SOL    HW274793   1.728   1.657   2.006  0.7278 -0.3144 -0.0462
21047SOL     OW74794   7.522   1.677   1.402 -0.4459 -0.1941 -0.2212
21047SOL    HW174795   7.464   1.757   1.389  1.9907  1.2965 -2.3759
21047SOL    HW274796   7.492   1.604   1.339 -0.5200  0.2556 -0.7135
21048SOL     OW74797   3.449   1.757   6.419  0.0729 -0.1012 -0.0074
21048SOL    HW174798   3.511   1.828   6.386  1.3339 -0.2637  1.9258
21048SOL    HW274799   3.438   1.687   6.348  1.0820  0.6020 -0.8711
21049SOL     OW74800   8.831   1.861   7.549  0.0170 -0.0283 -0.1973
21049SOL    HW174801   8.769   1.802   7.602 -0.3284  0.4341 -0.0825
21049SOL    HW274802   8.807   1.957   7.565 -1.4092  0.0878 -2.7743
21050SOL     OW74803   0.024   3.768   1.478  0.3341 -0.2045 -0.4893
21050SOL    HW174804   0.049   3.863   1.459 -0.6311  0.4233  1.2639
21050SOL    HW274805   0.042   3.748   1.574  1.2635 -2.0465 -1.0283
21051SOL     OW74806   7.071   0.202   5.969  0.1515  0.0586  0.0878
21051SOL    HW174807   7.148   0.261   5.995  1.4543 -0.6086 -2.1433
21051SOL    HW274808   6.985   0.248   5.992  1.1651  2.1290 -0.1219
21052SOL     OW74809   2.108   0.150   7.051  0.1938 -0.4281 -0.2418
21052SOL    HW174810   2.051   0.076   7.088  0.6072 -1.2349 -1.1877
21052SOL    HW274811   2.089   0.160   6.953  0.8319  0.0781 -0.3157
21053SOL     OW74812   5.036   8.664   6.894  0.3935 -0.2466  0.6719
21053SOL    HW174813   4.984   8.580   6.905  0.0403 -0.3746 -1.8424
21053SOL    HW274814   5.034   8.715   6.980 -2.8282 -0.8404  1.0177
21054SOL     OW74815   2.552   5.902   7.012 -0.0060  0.2050 -0.0579
21054SOL    HW174816   2.597   5.825   6.967 -0.2102  0.9716 -1.6446
21054SOL    HW274817   2.616   5.944   7.077  1.5506  1.0839 -2.0530
21055SOL     OW74818   3.179   0.025   7.840 -0.0037 -0.2999  0.9695
21055SOL    HW174819   3.081   0.028   7.819  0.2262  0.0864 -0.1065
21055SOL    HW274820   3.195  -0.042   7.912 -0.9667 -0.9879  0.5692
21056SOL     OW74821   0.960   4.687   1.482 -0.0574  0.3305  0.1515
21056SOL    HW174822   1.029   4.624   1.518  0.5577  0.7510 -0.2860
21056SOL    HW274823   0.990   4.781   1.498 -0.0096  0.5200 -1.0305
21057SOL     OW74824   7.914   2.169   6.932 -0.5016  0.0095 -0.2471
21057SOL    HW174825   7.901   2.263   6.900  0.4401 -0.5644 -2.4319
21057SOL    HW274826   7.903   2.166   7.031 -1.3302  2.2769 -0.2305
21058SOL     OW74827   3.795   1.297   2.369  0.1409  0.0336 -0.0592
21058SOL    HW174828   3.767   1.321   2.462 -0.4734 -0.4132 -0.1257
21058SOL    HW274829   3.894   1.282   2.366  0.1275 -0.1564  0.5609
21059SOL     OW74830   8.242   8.544   3.022  0.1189  0.2148  0.3959
21059SOL    HW174831   8.268   8.622   2.965 -0.4318  0.4027  0.3983
21059SOL    HW274832   8.149   8.514   2.999  1.7319 -2.9542 -2.3070
21060SOL     OW74833   5.819   0.306   1.447 -0.2515  0.0403  0.4024
21060SOL    HW174834   5.866   0.255   1.519 -1.3271  0.7473  1.6375
21060SOL    HW274835   5.733   0.342   1.483  0.0254  1.8890 -0.7386
21061SOL     OW74836   1.428   1.573   5.452 -0.5145  0.2407 -0.2605
21061SOL    HW174837   1.455   1.665   5.482 -1.1446  0.5916 -0.7489
21061SOL    HW274838   1.501   1.534   5.396 -0.6208  0.8102 -0.8021
21062SOL     OW74839   2.303   0.109   3.109  0.5685 -0.0881  0.2207
21062SOL    HW174840   2.235   0.148   3.047  0.8649  0.6273  0.3440
21062SOL    HW274841   2.323   0.015   3.081 -0.8680 -0.4925  0.5076
21063SOL     OW74842   8.407   8.035   1.364 -0.2003 -0.0023  0.2492
21063SOL    HW174843   8.478   7.968   1.383  0.4021  1.0322  1.7435
21063SOL    HW274844   8.423   8.076   1.274  2.4049  1.7658  1.4292
21064SOL     OW74845   2.578   8.190   2.706 -0.0203  0.0734 -0.1271
21064SOL    HW174846   2.575   8.275   2.758  0.6950  0.1007 -0.1333
21064SOL    HW274847   2.621   8.207   2.617  0.6574 -0.4201  0.1053
21065SOL     OW74848   8.643   2.414   1.141 -0.4156  0.1392 -0.1881
21065SOL    HW174849   8.649   2.391   1.238 -0.8206  0.3963 -0.0990
21065SOL    HW274850   8.728   2.387   1.095 -0.3938 -0.3757  0.1510
21066SOL     OW74851   9.391   6.785   0.758  0.4641  0.0285 -0.0522
21066SOL    HW174852   9.376   6.687   0.770  1.2250  0.0720  1.4253
21066SOL    HW274853   9.340   6.836   0.828  0.4994  0.6468 -0.4733
21067SOL     OW74854   9.250   5.802   5.018 -0.0405  0.2935  0.3047
21067SOL    HW174855   9.299   5.869   5.075  1.5433 -0.3483 -0.2591
21067SOL    HW274856   9.216   5.847   4.935 -2.1155  1.1688  1.6102
21068SOL     OW74857   0.530   4.659   8.019 -0.4887 -0.5251 -0.5161
21068SOL    HW174858   0.516   4.689   8.113  0.6207  0.4787 -0.6654
21068SOL    HW274859   0.524   4.559   8.014  1.0583 -0.6951  0.8884
21069SOL     OW74860   4.098   3.643   0.835  0.0867  0.5315  0.2174
21069SOL    HW174861   4.010   3.690   0.843 -0.7538 -1.0476  0.3680
21069SOL    HW274862   4.083   3.544   0.836  1.6647  0.2425 -1.7373
21070SOL     OW74863   6.153   6.847   4.764  0.6395 -0.1915 -0.2565
21070SOL    HW174864   6.087   6.843   4.689  1.0284  2.2486 -0.7557
21070SOL    HW274865   6.114   6.899   4.840  0.3391 -2.4426  1.1811
21071SOL     OW74866   5.178   5.825   1.550  0.5873  0.1050 -0.3138
21071SOL    HW174867   5.102   5.761   1.555  0.4794  0.2669  0.1398
21071SOL    HW274868   5.234   5.805   1.469 -0.9536  1.1034 -1.6511
21072SOL     OW74869   0.903   5.133   3.344  0.5834 -0.0637 -0.1165
21072SOL    HW174870   0.912   5.034   3.343 -0.1503 -0.1758  1.9619
21072SOL    HW274871   0.974   5.174   3.287  1.5398 -1.7427 -0.1475
21073SOL     OW74872   9.228   1.407   2.919 -0.1673 -0.1218 -0.2379
21073SOL    HW174873   9.221   1.444   3.012 -0.2413 -0.8837  0.0659
21073SOL    HW274874   9.278   1.320   2.922  2.4642  1.3150 -1.3052
21074SOL     OW74875   2.069   0.713   0.136  0.5502  0.3113 -0.3355
21074SOL    HW174876   2.168   0.700   0.128  0.5347 -0.1831  0.2475
21074SOL    HW274877   2.022   0.627   0.116  0.2225  0.6434 -0.9830
21075SOL     OW74878   5.648   8.349   4.894  0.2959 -0.0308 -0.0184
21075SOL    HW174879   5.662   8.252   4.914  0.6246 -0.1129 -0.6081
21075SOL    HW274880   5.676   8.403   4.973  1.2674 -0.3580 -0.1261
21076SOL     OW74881   1.257   9.523   2.703  0.1542 -0.4548 -0.1198
21076SOL    HW174882   1.276   9.590   2.774 -2.5103 -0.1213  0.3229
21076SOL    HW274883   1.204   9.447   2.742 -1.2579 -0.3040 -1.7028
21077SOL     OW74884   1.698   3.203   6.884  0.3391 -0.0235  0.2413
21077SOL    HW174885   1.656   3.118   6.915  2.1075 -0.8123  0.5172
21077SOL    HW274886   1.627   3.264   6.848 -0.8667 -1.8950 -0.6396
21078SOL     OW74887   5.382   8.155   5.671 -0.3889 -0.2227  0.3631
21078SOL    HW174888   5.395   8.236   5.614  1.4492 -0.0380  1.0096
21078SOL    HW274889   5.284   8.143   5.690 -0.8417  0.7704 -1.2686
21079SOL     OW74890   4.061   9.051   2.155 -0.0591 -0.9664  0.0279
21079SOL    HW174891   4.104   9.039   2.066  1.6159  1.4729  0.4640
21079SOL    HW274892   4.024   9.143   2.163 -0.3438 -1.2032  1.7764
21080SOL     OW74893   1.441   3.183   6.364 -0.0592 -0.2434 -0.0096
21080SOL    HW174894   1.408   3.171   6.271  0.8090 -1.2543 -0.1967
21080SOL    HW274895   1.373   3.148   6.429 -0.3164 -0.2587 -0.2864
21081SOL     OW74896   3.743   3.569   5.204 -0.3218  0.1487  0.4496
21081SOL    HW174897   3.646   3.595   5.212 -0.6462 -1.1699  0.8991
21081SOL    HW274898   3.789   3.634   5.144 -1.6634  0.3330 -0.4106
21082SOL     OW74899   9.639   2.801   5.300  0.4070  0.2679  0.2692
21082SOL    HW174900   9.709   2.785   5.369 -0.3801  1.3812  1.3402
21082SOL    HW274901   9.579   2.721   5.295  0.3495  0.2647  1.0065
21083SOL     OW74902   8.719   7.667   4.422  0.1335  0.0755  0.2283
21083SOL    HW174903   8.788   7.612   4.374  1.2076  1.2586  0.3837
21083SOL    HW274904   8.755   7.759   4.437 -1.3988  0.6309  0.5438
21084SOL     OW74905   3.533   3.381   5.655  0.5737 -0.1563 -0.2677
21084SOL    HW174906   3.444   3.421   5.673  0.7392  0.9694 -1.8036
21084SOL    HW274907   3.588   3.381   5.739 -1.0494 -1.3797  0.8126
21085SOL     OW74908   9.957   7.578   5.240 -0.5844  0.0657 -0.1570
21085SOL    HW174909   9.912   7.642   5.303  0.5858 -0.0800  0.8412
21085SOL    HW274910   9.969   7.490   5.285  1.5818  0.3882 -0.0434
21086SOL     OW74911   3.868   2.851   2.264  0.6099  0.0430  0.0052
21086SOL    HW174912   3.816   2.891   2.340  0.5649  1.9401 -0.9804
21086SOL    HW274913   3.934   2.918   2.231  1.5048 -1.2232 -0.8116
21087SOL     OW74914   2.632   8.750   1.447  0.7313  0.5055  0.4956
21087SOL    HW174915   2.570   8.827   1.462  0.2630  0.4827 -1.2096
21087SOL    HW274916   2.591   8.667   1.483  0.6993  0.8447  1.2499
21088SOL     OW74917   7.316   6.047   8.126  0.6509  0.1535 -0.0524
21088SOL    HW174918   7.337   6.013   8.218  0.2898 -2.5208 -0.8900
21088SOL    HW274919   7.399   6.080   8.083  0.6484  2.4366  1.5894
21089SOL     OW74920   1.526   1.779   7.559 -0.5922 -0.3896  0.5180
21089SOL    HW174921   1.492   1.816   7.645 -2.5571 -1.4828  0.2608
21089SOL    HW274922   1.511   1.845   7.486 -0.8395 -0.2811  0.6668
21090SOL     OW74923   9.521   1.939   5.490  0.3574 -0.0521 -0.3898
21090SOL    HW174924   9.610   1.896   5.475 -0.6956 -1.5349 -2.6961
21090SOL    HW274925   9.483   1.908   5.576  0.0258 -3.1074 -1.5794
21091SOL     OW74926   4.655   7.663   6.053  0.1058 -0.6441  0.1846
21091SOL    HW174927   4.721   7.721   6.004  0.1123 -1.5227 -0.8522
21091SOL    HW274928   4.600   7.612   5.987 -1.6154  0.0599  1.0369
21092SOL     OW74929   1.399   1.436   4.382 -0.2430 -0.3452 -0.0973
21092SOL    HW174930   1.459   1.505   4.340 -0.2565 -0.0328  0.3853
21092SOL    HW274931   1.441   1.402   4.466 -0.1272 -1.1073 -0.4614
21093SOL     OW74932   2.574   0.189   5.064  0.0323  0.1011 -0.2304
21093SOL    HW174933   2.634   0.165   5.140  0.2669  1.2294 -0.0620
21093SOL    HW274934   2.489   0.136   5.071  0.5101 -0.6184  0.1841
21094SOL     OW74935   4.043   3.597   6.056  0.6690  0.3509 -0.1971
21094SOL    HW174936   4.033   3.597   6.155  1.7603 -0.7751 -0.0668
21094SOL    HW274937   4.059   3.690   6.024  0.5168  0.6967  0.7090
21095SOL     OW74938   0.458   3.517   0.287 -0.4854  0.0273 -0.7681
21095SOL    HW174939   0.433   3.484   0.197 -1.3442  1.1488 -0.9524
21095SOL    HW274940   0.451   3.443   0.354  0.2498 -0.8296 -1.6244
21096SOL     OW74941   8.997   3.350   7.412 -0.5083 -0.1178  0.1366
21096SOL    HW174942   9.083   3.305   7.391  0.5760  1.6086  0.7802
21096SOL    HW274943   9.002   3.393   7.503 -2.0387 -0.0010  0.1902
21097SOL     OW74944   3.623   4.754   3.590  0.2493  0.3464 -0.3869
21097SOL    HW174945   3.556   4.801   3.533 -1.5215 -1.1493  0.3881
21097SOL    HW274946   3.702   4.728   3.535  0.5066  2.6880 -1.1719
21098SOL     OW74947   5.905   5.321   1.006 -0.5208  0.1578  0.7051
21098SOL    HW174948   5.905   5.417   1.033  3.3059  0.8055 -1.2419
21098SOL    HW274949   5.893   5.314   0.907  1.0021 -1.2078  0.5779
21099SOL     OW74950   9.262   7.403   6.038 -0.1947  0.1596 -0.2716
21099SOL    HW174951   9.168   7.381   6.015 -0.7067  1.0145  0.9209
21099SOL    HW274952   9.281   7.373   6.132  0.7082 -0.0023 -0.5042
21100SOL     OW74953   2.415   5.179   4.608 -0.1654 -0.3563  0.6416
21100SOL    HW174954   2.451   5.134   4.526 -0.4373 -0.5024  0.6030
21100SOL    HW274955   2.472   5.258   4.630  0.6455 -1.0353  1.0313
21101SOL     OW74956   0.642   7.230   5.080 -0.5042  0.0869 -0.1741
21101SOL    HW174957   0.592   7.229   5.167  1.2551 -1.1067  0.8567
21101SOL    HW274958   0.668   7.137   5.055 -0.7309  0.4568 -1.8372
21102SOL     OW74959   0.165   5.538   1.947 -0.0331 -0.6286  0.0988
21102SOL    HW174960   0.109   5.481   2.008 -1.3860  1.6361  1.0152
21102SOL    HW274961   0.252   5.558   1.992 -0.3868 -0.2680  0.6214
21103SOL     OW74962   1.920   2.777   0.913 -0.3462 -0.1751 -0.0735
21103SOL    HW174963   1.838   2.786   0.857 -0.0398  2.2806 -0.2006
21103SOL    HW274964   2.001   2.796   0.857  0.1493 -0.3219  0.5874
21104SOL     OW74965   9.035   0.409   4.536 -0.3543  0.4228  0.3506
21104SOL    HW174966   9.036   0.345   4.459  2.8214 -0.4272  1.0327
21104SOL    HW274967   8.988   0.368   4.614  2.4262 -1.5493  1.0855
21105SOL     OW74968   6.328   5.375   0.573  0.3191 -0.5318 -0.3137
21105SOL    HW174969   6.287   5.287   0.596  0.9724 -0.7459  0.0677
21105SOL    HW274970   6.395   5.400   0.644 -1.6557  1.4634  0.9177
21106SOL     OW74971   0.481   7.655   4.067  0.5648 -0.4337 -0.4495
21106SOL    HW174972   0.538   7.628   4.145 -0.6853  1.9642  1.3562
21106SOL    HW274973   0.398   7.600   4.065  0.8074 -0.8042 -0.3432
21107SOL     OW74974   2.015   6.908   1.784 -0.4217 -1.0028 -0.4197
21107SOL    HW174975   1.949   6.983   1.793  2.3623  1.3227  1.4334
21107SOL    HW274976   2.070   6.923   1.702 -0.1807 -1.2660 -0.3036
21108SOL     OW74977   7.322   0.604   2.836 -0.6023 -0.0524 -0.2111
21108SOL    HW174978   7.353   0.600   2.741 -0.3757 -0.0642 -0.1387
21108SOL    HW274979   7.270   0.688   2.851 -2.5729 -1.1158 -0.9097
21109SOL     OW74980   2.390   0.804   6.011 -0.0878  0.5464  0.5070
21109SOL    HW174981   2.431   0.856   6.086 -0.5842  2.0515 -0.2462
21109SOL    HW274982   2.305   0.762   6.043 -0.6267  1.7002  0.6451
21110SOL     OW74983   1.102   0.930   3.400  0.2698  0.3111  0.1518
21110SOL    HW174984   1.136   0.838   3.416 -1.6299 -0.5775 -0.7637
21110SOL    HW274985   1.170   0.984   3.351  0.3867 -1.3917 -1.5760
21111SOL     OW74986   2.138   3.849   7.067  0.1333 -0.3731 -0.5900
21111SOL    HW174987   2.131   3.936   7.018 -2.4053 -1.1439 -1.6888
21111SOL    HW274988   2.196   3.786   7.016 -1.5473 -0.7674 -2.0636
21112SOL     OW74989   9.506   0.586   5.058  0.0547 -0.0333 -0.5689
21112SOL    HW174990   9.534   0.638   4.977 -0.8537 -0.3017 -1.0562
21112SOL    HW274991   9.532   0.490   5.045  2.6503  0.4313  0.7568
21113SOL     OW74992   0.317   9.225   8.071  0.1153 -0.3555  0.0620
21113SOL    HW174993   0.282   9.149   8.125  0.7361  1.0479  2.5107
21113SOL    HW274994   0.388   9.191   8.009 -0.4503 -1.9561  0.2611
21114SOL     OW74995   9.723   9.350   1.736  0.0484  0.0101 -0.2244
21114SOL    HW174996   9.646   9.347   1.800 -0.6852 -0.6285 -1.1241
21114SOL    HW274997   9.804   9.313   1.780  0.2014  1.9092  1.1925
21115SOL     OW74998   0.463   4.011   0.657  0.3403 -0.2640 -0.6311
21115SOL    HW174999   0.488   4.086   0.718  0.3683 -0.4984 -0.3541
21115SOL    HW275000   0.389   3.958   0.697 -0.1523  0.0241 -1.1438
21116SOL     OW75001   7.967   6.348   3.014  0.5804  0.5032  0.4224
21116SOL    HW175002   7.906   6.337   2.935 -1.2083  0.0060  1.8348
21116SOL    HW275003   8.042   6.409   2.989 -0.7321  1.5071 -1.2483
21117SOL     OW75004   7.692   2.287   4.985 -0.0415 -0.3906 -0.1332
21117SOL    HW175005   7.649   2.340   4.912  0.5038  0.1884 -0.0394
21117SOL    HW275006   7.622   2.237   5.036 -0.8171  1.9254  1.1372
21118SOL     OW75007   4.604   3.190   0.042  1.2205 -0.0902 -0.5631
21118SOL    HW175008   4.522   3.201   0.099  1.4338  1.1407 -0.4839
21118SOL    HW275009   4.618   3.273  -0.012  2.7821 -0.0477 -0.0993
21119SOL     OW75010   8.092   5.264   6.055 -0.7499  0.3864  0.5214
21119SOL    HW175011   8.068   5.360   6.045  0.5358  0.8298  1.4599
21119SOL    HW275012   8.143   5.234   5.974  3.3558  1.9641  2.3643
21120SOL     OW75013   7.332   8.735   3.854 -0.2707 -0.1684 -0.0188
21120SOL    HW175014   7.383   8.817   3.828  1.7993 -1.4836 -0.2310
21120SOL    HW275015   7.284   8.698   3.775  0.1608 -0.1141 -0.3038
21121SOL     OW75016   3.704   5.484   7.184 -0.6756 -0.3936 -0.2963
21121SOL    HW175017   3.696   5.423   7.105 -1.4385 -0.4728 -0.1662
21121SOL    HW275018   3.713   5.430   7.268  1.2836 -0.3052 -0.4254
21122SOL     OW75019   7.769   8.209   4.045 -0.0724 -0.0470  0.4717
21122SOL    HW175020   7.781   8.308   4.043 -0.3293 -0.0170  0.3455
21122SOL    HW275021   7.680   8.186   4.005  0.5182 -0.4191 -0.6369
21123SOL     OW75022   6.817   7.862   4.540 -0.2597  0.4940  0.3251
21123SOL    HW175023   6.774   7.920   4.609 -0.6146  0.3632  0.2178
21123SOL    HW275024   6.910   7.893   4.523 -0.2359  0.6383  0.7282
21124SOL     OW75025   4.892   3.890   1.784  0.4614 -0.1821 -0.4282
21124SOL    HW175026   4.932   3.904   1.694  0.6669 -0.8053 -0.4396
21124SOL    HW275027   4.941   3.945   1.852  0.3476  0.2374 -0.6876
21125SOL     OW75028   7.920   7.996   2.394 -0.3937 -0.2512  0.4709
21125SOL    HW175029   7.948   7.904   2.366  0.3573 -0.5294  2.0600
21125SOL    HW275030   7.859   8.035   2.326 -0.7896 -1.9762 -0.1758
21126SOL     OW75031   4.473   5.563   0.914 -0.4904  0.4244  0.3867
21126SOL    HW175032   4.444   5.491   0.977  0.3916 -0.0282  0.2798
21126SOL    HW275033   4.547   5.530   0.857 -0.0656  1.4192  0.3429
21127SOL     OW75034   2.895   8.889   4.553  0.3167 -0.4367  0.7684
21127SOL    HW175035   2.865   8.983   4.565  0.7148 -0.4276  1.7037
21127SOL    HW275036   2.991   8.881   4.582  0.6295 -0.8819 -0.3543
21128SOL     OW75037   0.209   7.004   5.392  0.5902 -0.4937 -0.5216
21128SOL    HW175038   0.118   7.038   5.370  0.5522  0.1923  0.6889
21128SOL    HW275039   0.208   6.962   5.482  1.4837 -0.4733 -0.4986
21129SOL     OW75040   0.330   1.730   0.813 -0.5444 -0.1447 -0.3213
21129SOL    HW175041   0.351   1.648   0.867  0.6361  0.4952  0.2238
21129SOL    HW275042   0.320   1.808   0.875  0.7681  0.5897 -0.9994
21130SOL     OW75043   1.548   2.792   5.931  0.0097  0.3966  0.3636
21130SOL    HW175044   1.634   2.828   5.895  0.8281 -2.2944 -0.5670
21130SOL    HW275045   1.568   2.731   6.008 -0.8901 -1.5357 -0.8968
21131SOL     OW75046   3.619   5.033   3.262 -0.2059 -0.6791  0.0130
21131SOL    HW175047   3.669   5.026   3.175  0.8251 -0.2360  0.5494
21131SOL    HW275048   3.676   5.083   3.328 -1.3858 -0.1465  0.6348
21132SOL     OW75049   4.961   8.974   4.621  0.2477 -0.6310 -0.2020
21132SOL    HW175050   4.897   9.049   4.602  1.1012  0.1033 -0.2066
21132SOL    HW275051   5.008   8.992   4.707  0.7307 -0.9766 -0.3936
21133SOL     OW75052   7.005   8.883   1.954 -0.2238  0.0555  0.1256
21133SOL    HW175053   7.080   8.898   1.889 -0.3373 -0.9005 -0.2399
21133SOL    HW275054   7.042   8.858   2.043 -0.1222 -2.3227 -0.5546
21134SOL     OW75055   6.047   1.012   8.128  0.3348 -0.1335 -0.0256
21134SOL    HW175056   5.961   1.063   8.121 -0.2058 -1.0882 -0.4340
21134SOL    HW275057   6.056   0.976   8.221 -0.0422 -0.6228 -0.1792
21135SOL     OW75058   0.154   4.871   4.441  0.0261 -0.0659  0.5170
21135SOL    HW175059   0.103   4.815   4.506  0.4350 -0.7529  0.2519
21135SOL    HW275060   0.135   4.967   4.458 -1.1561 -0.2964  0.5927
21136SOL     OW75061   2.948   9.120   4.194  0.4294  0.2459 -0.0236
21136SOL    HW175062   2.950   9.185   4.118 -1.2280  1.7936  1.2202
21136SOL    HW275063   2.999   9.157   4.272  1.8457 -1.1855 -0.2336
21137SOL     OW75064   0.453   9.354   3.142  0.2884  0.5250 -0.5460
21137SOL    HW175065   0.378   9.401   3.096  0.2965 -0.7243 -1.8865
21137SOL    HW275066   0.417   9.294   3.213  0.0466  0.2452 -0.9054
21138SOL     OW75067   9.370   6.231   6.181  0.0634  0.6443 -0.0696
21138SOL    HW175068   9.272   6.216   6.167  0.4551 -2.1128 -0.1430
21138SOL    HW275069   9.416   6.235   6.092  0.0714  1.7366 -0.0280
21139SOL     OW75070   9.682   4.643   6.192 -0.2548  0.0241 -0.5656
21139SOL    HW175071   9.627   4.675   6.268 -0.5791 -1.4816 -0.1549
21139SOL    HW275072   9.627   4.585   6.132  0.4307 -0.1240 -1.0690
21140SOL     OW75073   0.101   3.786   6.575 -0.3758  0.8843  0.3618
21140SOL    HW175074   0.050   3.852   6.631  1.4800  1.4331  1.4461
21140SOL    HW275075   0.105   3.819   6.481 -1.1070  1.3633  0.4872
21141SOL     OW75076   8.545   8.791   0.230  0.2122  0.0901  0.4434
21141SOL    HW175077   8.526   8.887   0.249  1.8393  0.8137 -1.3582
21141SOL    HW275078   8.489   8.760   0.153  1.1732  0.2036 -0.3107
21142SOL     OW75079   5.260   1.075   4.473 -0.3540 -0.3842  0.8771
21142SOL    HW175080   5.176   1.040   4.431 -0.3063  0.9325 -0.3317
21142SOL    HW275081   5.267   1.173   4.457  1.6460 -0.5606  0.5885
21143SOL     OW75082   0.265   1.329   2.851  0.0878 -0.4637  0.2831
21143SOL    HW175083   0.227   1.238   2.867  1.2462 -0.9634  0.2166
21143SOL    HW275084   0.263   1.350   2.753 -1.7136  0.2777  0.4450
21144SOL     OW75085   4.368   2.317   1.495  0.1503  0.4650  0.0713
21144SOL    HW175086   4.310   2.329   1.575 -1.3326 -1.0576 -0.7540
21144SOL    HW275087   4.383   2.406   1.451 -0.8301  0.9863  0.7769
21145SOL     OW75088   5.592   9.348   2.149  0.0481  0.1171  0.7138
21145SOL    HW175089   5.561   9.412   2.219 -0.4282 -0.4143  0.9888
21145SOL    HW275090   5.642   9.273   2.192 -2.1551 -1.3807  0.7165
21146SOL     OW75091   1.530   8.631   0.682 -0.0542  0.0148 -0.1561
21146SOL    HW175092   1.434   8.649   0.705  0.4702 -0.2716  2.2988
21146SOL    HW275093   1.533   8.566   0.606 -1.7927 -1.2350  0.8099
21147SOL     OW75094   9.437   3.304   6.639  0.0302 -0.1248 -0.6233
21147SOL    HW175095   9.370   3.255   6.695 -1.7448  1.1600 -1.5812
21147SOL    HW275096   9.466   3.388   6.686 -0.0830  0.0262 -0.8203
21148SOL     OW75097   7.578   0.282   4.087 -0.3786  0.1487  0.4644
21148SOL    HW175098   7.620   0.328   4.009  0.3638 -1.0970  0.0980
21148SOL    HW275099   7.479   0.295   4.086 -0.3081  0.6093 -0.3712
21149SOL     OW75100   5.656   2.214   3.702  0.1679  0.2416  0.1404
21149SOL    HW175101   5.689   2.120   3.689 -0.1767  0.1194  0.1555
21149SOL    HW275102   5.586   2.215   3.773  0.2806  0.5345  0.2469
21150SOL     OW75103   5.111   9.232   3.578 -0.3178  0.3318  0.0019
21150SOL    HW175104   5.206   9.227   3.608 -0.4952 -0.1108  0.5097
21150SOL    HW275105   5.080   9.141   3.551 -0.5823  0.4840 -0.2092
21151SOL     OW75106   0.178   8.153   7.896  0.4822  0.1883 -0.3942
21151SOL    HW175107   0.277   8.154   7.899  0.5071  1.6776 -1.2863
21151SOL    HW275108   0.142   8.225   7.956 -0.0783 -0.6917  0.3436
21152SOL     OW75109   0.041   3.139   0.799  0.4423 -0.2191 -0.1152
21152SOL    HW175110   0.032   3.041   0.820 -0.2290 -0.0437  0.4167
21152SOL    HW275111   0.011   3.155   0.705 -1.4247 -0.2133  0.4549
21153SOL     OW75112   4.797   9.997   4.169 -0.0333 -0.9373 -0.4343
21153SOL    HW175113   4.825  10.068   4.104 -1.0385  0.5972  0.7853
21153SOL    HW275114   4.855  10.002   4.251 -0.9451 -0.6571  0.2032
21154SOL     OW75115   7.353   6.819   4.206  0.2790 -0.5809  0.0946
21154SOL    HW175116   7.406   6.753   4.153  0.9849 -0.3655  0.5235
21154SOL    HW275117   7.298   6.770   4.275  2.7119 -0.5929  2.1054
21155SOL     OW75118   7.128   1.140   7.692 -0.1204 -0.6931  0.4191
21155SOL    HW175119   7.177   1.066   7.646  0.3253  2.0416 -3.7457
21155SOL    HW275120   7.193   1.206   7.729 -0.5843 -0.8460  1.5418
21156SOL     OW75121   4.836   0.855   6.222  0.5299 -0.0433 -0.0533
21156SOL    HW175122   4.919   0.909   6.234 -0.0821  0.6412  1.2027
21156SOL    HW275123   4.761   0.914   6.192  0.1084 -0.3549  0.3653
21157SOL     OW75124   8.584   0.504   7.811  0.4504  0.1631  0.3592
21157SOL    HW175125   8.587   0.453   7.724  0.4803 -0.2865  0.6239
21157SOL    HW275126   8.553   0.443   7.884 -1.7253  1.1071  0.2717
21158SOL     OW75127   9.785   7.304   3.054  0.3384  0.4057 -0.1959
21158SOL    HW175128   9.806   7.272   2.962 -0.4569 -1.2850  0.2008
21158SOL    HW275129   9.869   7.305   3.109  0.9060  1.8978 -1.0644
21159SOL     OW75130   2.082   9.704   6.762  0.1584  0.4357  0.2775
21159SOL    HW175131   2.078   9.715   6.663 -0.5636  0.0067  0.2592
21159SOL    HW275132   2.129   9.782   6.802  0.7056  0.4735 -0.4281
21160SOL     OW75133   2.798   3.869   7.382 -0.3459  0.7673 -0.2082
21160SOL    HW175134   2.844   3.878   7.470 -1.7998 -0.0604  0.6481
21160SOL    HW275135   2.733   3.944   7.370 -0.7923  0.3899 -0.1742
21161SOL     OW75136   4.970   9.604   3.895 -0.6983 -0.4623 -0.3744
21161SOL    HW175137   4.974   9.521   3.840 -0.2934 -0.6750 -0.0249
21161SOL    HW275138   4.998   9.584   3.989  2.5261  0.6927 -1.0111
21162SOL     OW75139   1.410   9.071   1.870  0.3162 -0.3631  0.6702
21162SOL    HW175140   1.432   8.979   1.903 -0.9951 -1.0909 -0.4611
21162SOL    HW275141   1.436   9.080   1.774 -0.7850  0.0274  0.4088
21163SOL     OW75142   2.607   5.030   1.189  0.1341  0.1824 -0.2787
21163SOL    HW175143   2.512   5.005   1.174  0.5555 -0.5917 -1.7815
21163SOL    HW275144   2.631   5.107   1.130  0.5597  0.0819 -0.2420
21164SOL     OW75145   1.568   5.953   5.403  0.2954  0.0529  0.1856
21164SOL    HW175146   1.546   6.041   5.445 -0.4356 -0.8836  1.7842
21164SOL    HW275147   1.662   5.955   5.370  0.1689  1.5597 -0.1491
21165SOL     OW75148   8.303   0.061   5.644 -0.0933 -0.4317 -0.0098
21165SOL    HW175149   8.331   0.144   5.595 -1.0784 -0.2672 -0.2931
21165SOL    HW275150   8.229   0.016   5.594 -0.1901 -0.9871  0.6324
21166SOL     OW75151   2.137   7.615   3.313 -0.0187  0.0878  0.1139
21166SOL    HW175152   2.152   7.591   3.217 -0.9402  0.0811 -0.0297
21166SOL    HW275153   2.215   7.582   3.368  0.7753  0.5836 -0.6990
21167SOL     OW75154   9.624   4.103   4.274  0.0004 -0.1735  0.0767
21167SOL    HW175155   9.548   4.166   4.262  0.7737  0.6728 -0.5240
21167SOL    HW275156   9.635   4.081   4.371  0.6605  1.8296  0.4765
21168SOL     OW75157   4.229   4.085   6.188 -0.0050  0.0697  0.1154
21168SOL    HW175158   4.148   4.138   6.211 -0.5852 -0.2740 -1.1037
21168SOL    HW275159   4.267   4.117   6.101 -0.3306 -1.4404 -0.6135
21169SOL     OW75160   5.897   3.639   7.848  0.4058 -0.3716 -0.2277
21169SOL    HW175161   5.954   3.705   7.798 -0.1054  0.0248 -0.2910
21169SOL    HW275162   5.955   3.586   7.909  0.3798  2.7908  2.7283
21170SOL     OW75163   5.670   6.090   1.704  0.0219 -0.9300 -0.5200
21170SOL    HW175164   5.632   6.126   1.619  0.3603 -0.1586 -0.3539
21170SOL    HW275165   5.761   6.053   1.687  0.3797 -0.1313 -0.3617
21171SOL     OW75166   8.158   0.472   2.779  0.1852 -0.3290  0.1038
21171SOL    HW175167   8.070   0.489   2.734  1.2874  1.6754 -1.3918
21171SOL    HW275168   8.144   0.411   2.857 -2.4737 -0.3456 -0.3248
21172SOL     OW75169   6.633   8.297   4.467  0.9292  0.2832  0.2153
21172SOL    HW175170   6.587   8.209   4.461  0.5016  0.6391 -2.2947
21172SOL    HW275171   6.567   8.368   4.491 -0.3995  1.0964 -5.1310
21173SOL     OW75172   9.428   0.906   3.504  0.1324 -0.6184 -0.3024
21173SOL    HW175173   9.363   0.837   3.474  0.3654 -0.5653 -0.9243
21173SOL    HW275174   9.478   0.872   3.584 -0.8906 -0.5261  0.3927
21174SOL     OW75175   8.695   6.709   6.162  0.1809  0.2789 -0.2748
21174SOL    HW175176   8.760   6.785   6.159  1.1197 -0.4678  0.8980
21174SOL    HW275177   8.688   6.668   6.071  2.3120 -0.4192 -0.1538
21175SOL     OW75178   8.038   9.373   2.751 -0.0902  0.6351  0.3860
21175SOL    HW175179   8.108   9.372   2.678  0.1301  0.0678  0.6030
21175SOL    HW275180   8.008   9.467   2.766  2.2318  1.1980  1.8060
21176SOL     OW75181   9.289   3.874   0.991 -0.7624  0.0533 -0.5017
21176SOL    HW175182   9.366   3.931   0.963  0.5119 -1.5960 -0.4310
21176SOL    HW275183   9.230   3.857   0.913 -0.3755  0.2970 -0.8521
21177SOL     OW75184   7.604   5.925   4.844  0.0960  0.3813 -0.1975
21177SOL    HW175185   7.648   5.935   4.754 -0.9267  0.9866 -0.6461
21177SOL    HW275186   7.588   5.829   4.863  2.3728  0.0845  0.3547
21178SOL     OW75187   0.777   8.466   1.999 -0.2152  0.1189  0.5198
21178SOL    HW175188   0.828   8.400   1.944 -2.3820 -0.6222 -0.6455
21178SOL    HW275189   0.815   8.557   1.985  1.7658 -0.6179  0.8931
21179SOL     OW75190   4.778   0.411   4.176  0.2289 -1.0752  0.5515
21179SOL    HW175191   4.813   0.488   4.123 -2.0693  0.2086  0.8425
21179SOL    HW275192   4.770   0.331   4.117 -3.5303  0.6738 -1.4398
21180SOL     OW75193   0.217   6.510   3.235 -0.4719 -0.6190 -0.1161
21180SOL    HW175194   0.158   6.539   3.159 -1.2082  1.1410  1.0801
21180SOL    HW275195   0.166   6.446   3.292 -0.5670 -0.5574 -0.1296
21181SOL     OW75196   7.881   7.755   5.842  0.1893  0.0603 -0.1705
21181SOL    HW175197   7.798   7.703   5.865  1.0730 -2.8795 -3.1431
21181SOL    HW275198   7.961   7.704   5.871  1.0441  0.8689 -1.0834
21182SOL     OW75199   9.654   8.160   1.411 -0.5060  0.1268 -0.1339
21182SOL    HW175200   9.579   8.178   1.474 -0.1517  0.3438  0.2295
21182SOL    HW275201   9.737   8.204   1.445 -0.5928  1.3122 -1.4090
21183SOL     OW75202   3.067   5.393   7.614  0.1411 -0.1251  0.7474
21183SOL    HW175203   2.973   5.386   7.647  0.2892  0.2379  1.2589
21183SOL    HW275204   3.094   5.490   7.611 -0.5389  0.0327 -2.3675
21184SOL     OW75205   9.660   3.393   0.179  0.3520  0.1101 -0.6523
21184SOL    HW175206   9.592   3.411   0.250  0.8377  0.6023 -0.3129
21184SOL    HW275207   9.647   3.457   0.104 -0.3737 -0.6224 -1.1648
21185SOL     OW75208   4.371   9.319   5.270  0.3328  0.2627 -0.2422
21185SOL    HW175209   4.421   9.335   5.355 -2.8340 -1.2656  2.0446
21185SOL    HW275210   4.432   9.279   5.201  2.4323 -0.6950  2.1049
21186SOL     OW75211   9.778   0.849   4.698 -0.0253  0.5052 -0.2607
21186SOL    HW175212   9.856   0.876   4.754 -1.3608  0.7293  1.5550
21186SOL    HW275213   9.747   0.927   4.643  0.5005  0.6545 -0.3429
21187SOL     OW75214   9.296   8.460   2.264 -0.1079 -0.2100  0.1037
21187SOL    HW175215   9.201   8.433   2.276 -0.4947  0.7619 -0.7083
21187SOL    HW275216   9.355   8.379   2.270 -1.2051 -1.2155 -1.9123
21188SOL     OW75217   1.363   9.529   7.133 -0.0615 -0.0446  0.1158
21188SOL    HW175218   1.407   9.547   7.045 -2.4076 -0.8685 -1.2679
21188SOL    HW275219   1.387   9.437   7.163 -0.4329 -0.3035 -0.3790
21189SOL     OW75220   3.618   0.664   2.236  0.4629  0.0789 -0.7334
21189SOL    HW175221   3.545   0.672   2.168  1.1978  1.6067 -1.3702
21189SOL    HW275222   3.687   0.734   2.218  3.2105 -2.7416 -1.5085
21190SOL     OW75223   1.248   1.911   6.033 -0.0585  0.0028  0.0396
21190SOL    HW175224   1.172   1.942   5.975  0.2576  1.0620  0.2019
21190SOL    HW275225   1.237   1.813   6.051 -0.1714 -0.3496 -1.8094
21191SOL     OW75226   1.650   8.555   4.831 -0.2060 -0.6699  0.1318
21191SOL    HW175227   1.593   8.548   4.913 -1.5277  0.3700 -0.6662
21191SOL    HW275228   1.741   8.588   4.856 -1.5948  2.9250  0.8528
21192SOL     OW75229   0.315   0.158   5.873 -0.4026 -0.2716  0.7262
21192SOL    HW175230   0.295   0.118   5.963  1.6645 -3.1551 -0.0151
21192SOL    HW275231   0.361   0.090   5.816 -0.0187  2.0996 -1.9011
21193SOL     OW75232   3.315   8.312   3.000 -0.5593  0.0194  0.5043
21193SOL    HW175233   3.330   8.321   2.902 -2.2647 -0.2792  0.2155
21193SOL    HW275234   3.261   8.389   3.033  2.1937  1.5372  1.7130
21194SOL     OW75235   2.933   6.829   7.227  0.4735 -0.6075  0.7591
21194SOL    HW175236   2.935   6.821   7.127  1.1604  0.0255  0.7149
21194SOL    HW275237   2.844   6.866   7.255  0.5113 -0.1846  0.3316
21195SOL     OW75238   7.018   9.513   5.484 -0.3340  0.6384 -0.1801
21195SOL    HW175239   6.943   9.497   5.548 -0.2200  2.6002  0.4774
21195SOL    HW275240   7.064   9.426   5.464 -1.2377 -0.2094  1.3292
21196SOL     OW75241   3.383   4.775   4.954 -0.5831  0.1158  0.3364
21196SOL    HW175242   3.437   4.849   4.994 -1.1333 -0.7730  2.8198
21196SOL    HW275243   3.433   4.736   4.876  1.5037  0.5317  1.4250
21197SOL     OW75244   9.260   2.003   1.904 -0.1500  0.0480 -0.7529
21197SOL    HW175245   9.231   2.021   1.810  1.1984  0.1880 -1.1464
21197SOL    HW275246   9.181   1.975   1.958 -1.2815  1.7924 -1.4680
21198SOL     OW75247   7.951   5.251   5.663  0.1405 -0.0319  0.3514
21198SOL    HW175248   7.921   5.332   5.715  1.5831 -0.3251  1.6960
21198SOL    HW275249   7.941   5.170   5.721  1.1382 -0.4535 -0.0571
21199SOL     OW75250   4.125   6.943   2.115  0.4386 -0.3779  0.0081
21199SOL    HW175251   4.195   6.920   2.183  1.0446 -1.1098 -0.8437
21199SOL    HW275252   4.036   6.947   2.159  0.6659 -1.9355  0.6696
21200SOL     OW75253   3.513   4.081   2.588 -0.3038 -0.3508 -0.3023
21200SOL    HW175254   3.468   4.057   2.674  1.4805 -1.6799  0.2887
21200SOL    HW275255   3.514   4.002   2.527  2.6083 -0.8271  0.3161
21201SOL     OW75256   3.317   1.687   6.033 -0.4691 -0.0232  0.2370
21201SOL    HW175257   3.322   1.630   5.951 -0.2769  0.4626 -0.0906
21201SOL    HW275258   3.361   1.640   6.110  2.5358  1.0476 -0.8023
21202SOL     OW75259   1.308   4.913   4.884  0.0858 -0.0940  0.0011
21202SOL    HW175260   1.218   4.932   4.925  0.2095 -0.4967  0.4588
21202SOL    HW275261   1.375   4.896   4.956  0.3846 -0.4516 -0.3573
21203SOL     OW75262   6.401   7.630   5.022 -0.5835  0.4430  0.0040
21203SOL    HW175263   6.414   7.589   5.112 -1.0354  0.0704 -0.0947
21203SOL    HW275264   6.308   7.666   5.015 -1.0332 -0.8439 -0.8219
21204SOL     OW75265   3.477   7.327   2.976 -1.2210  0.0705 -0.2147
21204SOL    HW175266   3.419   7.245   2.979 -0.3451 -0.6007 -1.5727
21204SOL    HW275267   3.533   7.326   2.893 -0.6327  1.6605  0.1490
21205SOL     OW75268   0.159   5.172   4.105 -0.3219 -0.0107  0.4243
21205SOL    HW175269   0.184   5.078   4.129  1.0061  0.2361  0.0387
21205SOL    HW275270   0.239   5.231   4.109 -0.2626  0.3102 -3.1994
21206SOL     OW75271   4.819   4.249   0.153  0.1564  0.2200  0.6141
21206SOL    HW175272   4.756   4.175   0.133  1.3744 -1.2321  1.9265
21206SOL    HW275273   4.858   4.285   0.068 -1.3714  0.1957 -0.1010
21207SOL     OW75274   7.806   2.823   2.784  0.4577  0.4490 -0.2755
21207SOL    HW175275   7.825   2.730   2.753  5.0713  1.8509 -2.1161
21207SOL    HW275276   7.772   2.820   2.878  1.5699 -3.0703  0.0976
21208SOL     OW75277   2.109   7.371   7.275 -0.0671 -0.1059  0.0291
21208SOL    HW175278   2.090   7.464   7.244 -0.4862 -0.2663 -0.2035
21208SOL    HW275279   2.134   7.372   7.372  2.9686  0.6181 -0.7135
21209SOL     OW75280   3.957   0.959   5.621 -0.2787 -0.2375  0.1663
21209SOL    HW175281   4.001   0.914   5.698  0.8489 -2.2348 -1.6020
21209SOL    HW275282   4.007   1.043   5.599 -0.2580  0.0345  1.2113
21210SOL     OW75283   9.271   0.861   7.852 -0.2928  0.2278  0.0057
21210SOL    HW175284   9.185   0.817   7.881 -0.3255  0.6727  0.5776
21210SOL    HW275285   9.263   0.960   7.864  0.3691  0.2511  0.2362
21211SOL     OW75286   0.026   9.356   7.760  0.3127 -0.6551  0.4386
21211SOL    HW175287   0.032   9.445   7.714  0.1903 -0.9975 -0.2445
21211SOL    HW275288   0.093   9.294   7.721  0.8831 -0.6629  1.3929
21212SOL     OW75289   8.598   1.672   2.304  1.0595 -0.5726 -0.1573
21212SOL    HW175290   8.499   1.674   2.289  0.9298  0.0462  0.7555
21212SOL    HW275291   8.628   1.578   2.320  0.4751 -0.6525  0.4720
21213SOL     OW75292   2.480   3.067   2.649  0.3941  0.3423 -0.5256
21213SOL    HW175293   2.530   3.038   2.730 -0.5793 -1.4967 -0.5518
21213SOL    HW275294   2.538   3.056   2.568  1.1474  1.5779 -0.1615
21214SOL     OW75295   2.461   1.528   3.491 -0.7036  0.0750  0.2026
21214SOL    HW175296   2.455   1.509   3.393 -0.8341  2.9208 -0.3938
21214SOL    HW275297   2.370   1.545   3.528 -0.4353  1.6918  0.1915
21215SOL     OW75298   5.150   6.998   2.762 -0.3362  0.3236 -0.3157
21215SOL    HW175299   5.220   7.068   2.753  0.0062  0.0183 -0.0358
21215SOL    HW275300   5.061   7.042   2.776  0.1038  0.6920  1.4422
21216SOL     OW75301   1.826   5.514   6.115 -0.3591 -0.1624  0.3247
21216SOL    HW175302   1.883   5.445   6.070  2.4680  1.4038  1.3524
21216SOL    HW275303   1.769   5.470   6.184  0.2550 -1.6825 -0.1133
21217SOL     OW75304   8.788   6.433   3.170  0.1860 -0.0905 -0.4973
21217SOL    HW175305   8.771   6.528   3.141  1.0568 -0.0321 -0.8275
21217SOL    HW275306   8.874   6.401   3.130  0.0149 -0.9421 -0.1885
21218SOL     OW75307   0.000   5.279   0.693  0.3643  0.1597  0.6379
21218SOL    HW175308  -0.071   5.240   0.752  0.3173  0.8245  1.0330
21218SOL    HW275309   0.077   5.214   0.686  0.0544 -0.2325  0.8400
21219SOL     OW75310   0.607   1.757   3.155  0.5873 -0.0322  0.6697
21219SOL    HW175311   0.594   1.672   3.206  1.4659  1.1934  2.9970
21219SOL    HW275312   0.526   1.815   3.164  0.8020  0.2503  0.7868
21220SOL     OW75313   2.644   9.248   2.495  0.3832 -0.1851  0.1930
21220SOL    HW175314   2.692   9.244   2.582 -0.4777  0.4577  0.7014
21220SOL    HW275315   2.638   9.343   2.465 -1.6808 -0.1296  0.7580
21221SOL     OW75316   2.120   5.966   2.096 -0.2115  0.7511 -0.5593
21221SOL    HW175317   2.193   6.032   2.080  0.8086 -0.4522 -0.9063
21221SOL    HW275318   2.153   5.874   2.075 -1.0936 -0.0710  1.5612
21222SOL     OW75319   4.951   6.180   2.006 -0.2915  0.4017 -0.5212
21222SOL    HW175320   4.942   6.097   1.950  1.9330  0.5893 -1.1819
21222SOL    HW275321   5.045   6.213   2.001  1.0545 -1.6793  6.3109
21223SOL     OW75322   6.862   1.233   7.432  0.4517  0.0312 -0.3366
21223SOL    HW175323   6.900   1.176   7.360 -2.6140 -1.2984 -0.9718
21223SOL    HW275324   6.813   1.176   7.498 -1.6320  1.7330 -0.3403
21224SOL     OW75325   3.500   3.709   7.733 -0.2506 -0.7362  0.6152
21224SOL    HW175326   3.590   3.744   7.759  0.0415 -0.5308 -0.6519
21224SOL    HW275327   3.498   3.691   7.635 -1.9299  0.2433  0.4530
21225SOL     OW75328   2.959   4.137   8.195 -0.0632 -0.1183  0.2256
21225SOL    HW175329   3.045   4.179   8.223 -0.3422 -0.1914  1.1861
21225SOL    HW275330   2.968   4.037   8.198  0.4012 -0.1556 -1.4627
21226SOL     OW75331   0.371   8.428   5.388 -0.1120 -0.1522  0.0757
21226SOL    HW175332   0.411   8.485   5.316  0.2375 -0.8707 -0.2996
21226SOL    HW275333   0.272   8.428   5.378 -0.0020 -1.2489 -1.1698
21227SOL     OW75334   2.366   0.681   0.141 -0.3154 -0.0516 -0.1281
21227SOL    HW175335   2.444   0.672   0.078  0.1450  2.2675  0.0935
21227SOL    HW275336   2.399   0.683   0.235 -0.5949  1.3348 -0.0503
21228SOL     OW75337   8.746   2.820   0.746 -0.2634  0.7896 -0.3808
21228SOL    HW175338   8.799   2.776   0.673 -1.2661 -0.3990 -0.4182
21228SOL    HW275339   8.650   2.824   0.718 -0.6612  0.2768  0.8898
21229SOL     OW75340   4.035   1.650   3.847  0.0970  0.1931 -0.1943
21229SOL    HW175341   3.939   1.670   3.830  0.5054  2.5846  0.2298
21229SOL    HW275342   4.067   1.699   3.928  1.9815  0.3678 -1.0023
21230SOL     OW75343   7.024   3.832   0.548 -0.2814 -0.2432  0.1833
21230SOL    HW175344   6.937   3.813   0.594 -0.3148  0.1814  0.3048
21230SOL    HW275345   7.072   3.905   0.598  0.1897 -0.5459  0.1730
21231SOL     OW75346   0.471   4.087   3.685 -0.6248  0.7585 -0.6248
21231SOL    HW175347   0.545   4.056   3.625  0.0931  1.1636  0.0562
21231SOL    HW275348   0.509   4.122   3.770 -1.6220  0.6268 -0.1200
21232SOL     OW75349   6.624   9.187   6.748  0.3431  0.1410 -0.6885
21232SOL    HW175350   6.681   9.125   6.694  0.2699  0.6114 -1.3128
21232SOL    HW275351   6.594   9.263   6.690 -0.3113  0.2806 -0.1693
21233SOL     OW75352   9.902   3.662   7.253 -0.0333  0.7348 -0.2545
21233SOL    HW175353   9.948   3.670   7.341 -0.2580  0.4534 -0.1095
21233SOL    HW275354   9.944   3.589   7.200 -1.3208 -0.6212  0.5219
21234SOL     OW75355   2.377   4.837   7.789  0.0894  0.0591 -0.0095
21234SOL    HW175356   2.288   4.793   7.796  0.4348 -0.6220  0.1576
21234SOL    HW275357   2.448   4.767   7.785  0.6347  0.6003  0.1744
21235SOL     OW75358   7.119   0.687   5.469  0.1719 -0.0663  0.0543
21235SOL    HW175359   7.046   0.704   5.536  0.5940 -1.4594  0.9132
21235SOL    HW275360   7.169   0.771   5.451 -1.0809  0.7124  0.1318
21236SOL     OW75361   9.807   7.537   5.029 -0.3797 -0.0532 -0.1010
21236SOL    HW175362   9.852   7.572   5.111 -1.5854  0.4216  0.3618
21236SOL    HW275363   9.784   7.613   4.968  0.9112 -0.4382 -1.1012
21237SOL     OW75364   5.195   3.726   1.834 -0.3255  0.1017  0.2532
21237SOL    HW175365   5.133   3.701   1.759 -2.7757 -1.0327  2.5536
21237SOL    HW275366   5.171   3.817   1.868 -0.0427  0.0778  0.5172
21238SOL     OW75367   3.893   2.529   4.824 -0.0768  0.3078  0.3385
21238SOL    HW175368   3.992   2.545   4.824 -0.1853  0.9696  0.0932
21238SOL    HW275369   3.870   2.463   4.753 -0.0251  1.4632 -0.7648
21239SOL     OW75370   2.525   7.624   2.687  0.1591 -0.4684 -0.0793
21239SOL    HW175371   2.583   7.697   2.652 -1.1441  1.0197  0.7692
21239SOL    HW275372   2.498   7.646   2.781 -0.8041 -1.7071 -0.0592
21240SOL     OW75373   7.224   5.229   1.386 -0.0282  0.2348  0.1456
21240SOL    HW175374   7.230   5.327   1.368  0.7078 -0.2141 -2.2661
21240SOL    HW275375   7.302   5.200   1.440  1.6121  0.3971 -2.0870
21241SOL     OW75376   1.592   5.055   2.688  0.4646  0.4243  0.3167
21241SOL    HW175377   1.546   5.078   2.602 -0.6898  0.5346  0.9541
21241SOL    HW275378   1.658   4.982   2.673 -0.4793 -0.2691 -0.4627
21242SOL     OW75379   0.310   4.496   6.411 -0.5797  0.1956 -0.2693
21242SOL    HW175380   0.241   4.557   6.451 -0.2848 -0.3591  1.1039
21242SOL    HW275381   0.362   4.452   6.484  0.3241 -0.4332 -1.2832
21243SOL     OW75382   0.530   7.222   0.581 -0.2256  0.1730 -0.7045
21243SOL    HW175383   0.594   7.258   0.513  0.4857 -3.1894 -1.9185
21243SOL    HW275384   0.582   7.180   0.656 -0.9554 -1.5261 -1.1181
21244SOL     OW75385   8.341   1.913   2.950 -0.4432  0.1401 -0.3787
21244SOL    HW175386   8.292   2.000   2.953 -0.1577  0.2735  0.7701
21244SOL    HW275387   8.276   1.837   2.945 -0.7101  0.4027 -0.7969
21245SOL     OW75388   8.243   0.233   4.401 -0.0798  0.4431  0.1572
21245SOL    HW175389   8.272   0.137   4.398 -0.8620  0.2209 -0.5220
21245SOL    HW275390   8.303   0.284   4.462  1.6934 -0.0248 -1.1293
21246SOL     OW75391   7.044   9.029   2.403  0.5256  0.2500 -0.5347
21246SOL    HW175392   7.085   9.080   2.478 -0.3210 -0.7114  0.6073
21246SOL    HW275393   6.944   9.030   2.413  0.3775  0.5601 -1.9499
21247SOL     OW75394   3.604   6.075   8.154  0.2956  0.0029 -0.1408
21247SOL    HW175395   3.559   6.132   8.086  1.5462  0.9616 -0.1857
21247SOL    HW275396   3.536   6.025   8.206 -0.6967 -0.2461 -1.6727
21248SOL     OW75397   6.710   8.528   3.239  0.3524 -0.8747 -0.0246
21248SOL    HW175398   6.785   8.466   3.218  1.4712  0.3914  0.1401
21248SOL    HW275399   6.695   8.531   3.337  1.2602  0.2016  0.0864
21249SOL     OW75400   9.721   4.051   2.594  0.1026 -0.2739  0.4181
21249SOL    HW175401   9.649   4.018   2.655 -0.6636  0.4230 -0.0933
21249SOL    HW275402   9.751   4.141   2.623  0.6737 -0.5029  0.5450
21250SOL     OW75403   3.339   7.790   5.613  0.3405 -0.2308 -0.0695
21250SOL    HW175404   3.330   7.711   5.674  0.4649  1.1960  1.8590
21250SOL    HW275405   3.321   7.874   5.665  0.6299  1.0471 -1.9794
21251SOL     OW75406   0.101   7.862   0.307 -0.1938  0.0355  0.2558
21251SOL    HW175407   0.112   7.960   0.290 -0.5416  0.2180  1.1082
21251SOL    HW275408   0.145   7.811   0.232  2.2095  0.8075  1.0781
21252SOL     OW75409   2.581   2.358   7.978  0.3876  0.5355 -0.4771
21252SOL    HW175410   2.482   2.354   7.992  0.4852  3.4564  1.5639
21252SOL    HW275411   2.605   2.314   7.892 -2.4139 -2.2213  0.0641
21253SOL     OW75412   7.937   6.970   7.330 -0.1895 -0.0960 -0.2314
21253SOL    HW175413   7.937   6.940   7.235 -1.4189  0.6575 -0.4827
21253SOL    HW275414   7.843   6.987   7.359  0.3682  2.1352  0.3404
21254SOL     OW75415   3.138   3.920   5.168 -0.1574 -0.0691 -0.1227
21254SOL    HW175416   3.041   3.920   5.143 -0.1709 -0.1339 -0.0689
21254SOL    HW275417   3.146   3.916   5.268 -0.1109  0.7741 -0.0909
21255SOL     OW75418   4.205   2.932   1.272  0.1444 -0.2138 -0.5198
21255SOL    HW175419   4.145   2.902   1.198  0.0028 -0.4252 -0.3216
21255SOL    HW275420   4.173   3.021   1.306  0.1654 -0.1516 -0.6621
21256SOL     OW75421   9.627   0.561   3.886  0.0974  0.0242 -0.0816
21256SOL    HW175422   9.643   0.658   3.900  0.2765  0.1758 -1.2307
21256SOL    HW275423   9.627   0.513   3.974  1.2546  0.8677  0.3835
21257SOL     OW75424   1.026   0.086   7.168 -0.4215 -0.0394 -0.0528
21257SOL    HW175425   1.050   0.157   7.235 -0.0534  0.0274 -0.2542
21257SOL    HW275426   0.953   0.029   7.205  0.5273 -0.6859  0.8679
21258SOL     OW75427   3.464   3.174   4.612 -0.1081  0.2942  0.0767
21258SOL    HW175428   3.548   3.135   4.577 -0.0252  0.7186 -0.1984
21258SOL    HW275429   3.392   3.105   4.612  0.3533 -0.1902  0.7239
21259SOL     OW75430   7.660   7.942   4.443  0.4512 -0.1192 -0.0172
21259SOL    HW175431   7.578   7.908   4.490  1.4022 -0.6030  1.3243
21259SOL    HW275432   7.739   7.887   4.471  1.0627 -0.3512 -2.1303
21260SOL     OW75433   3.507   0.243   3.835  0.1774 -0.6018  0.4386
21260SOL    HW175434   3.421   0.243   3.785  0.7650 -1.2336 -0.5843
21260SOL    HW275435   3.582   0.266   3.774  0.7715 -0.2793  1.2714
21261SOL     OW75436   4.785   8.585   2.727 -0.3600  0.5225  0.2291
21261SOL    HW175437   4.790   8.650   2.802 -1.4568  0.1645  0.6307
21261SOL    HW275438   4.805   8.631   2.641  0.2602  1.0737  0.6640
21262SOL     OW75439   5.593   1.341   5.427 -0.7466 -0.2097  0.3572
21262SOL    HW175440   5.624   1.291   5.347 -0.4561  1.5683 -0.6821
21262SOL    HW275441   5.510   1.392   5.404 -0.6994  0.2563  1.2049
21263SOL     OW75442   1.918   6.936   0.043  0.1987 -0.3151 -0.0101
21263SOL    HW175443   1.967   6.928   0.130  0.7301 -0.7479 -0.3465
21263SOL    HW275444   1.846   7.005   0.051  0.5214 -0.0577  0.6494
21264SOL     OW75445   3.152   8.443   7.883  0.0299 -0.5331 -0.1373
21264SOL    HW175446   3.063   8.404   7.862 -0.3198 -0.2086  0.7131
21264SOL    HW275447   3.224   8.378   7.859 -0.3733 -0.4266 -1.7318
21265SOL     OW75448   8.788   1.835   7.265 -0.8342 -0.0585  0.1624
21265SOL    HW175449   8.728   1.911   7.238 -0.5873 -0.1111 -0.5295
21265SOL    HW275450   8.810   1.844   7.362 -0.7520  0.7992  0.0673
21266SOL     OW75451   8.710   4.454   0.855 -0.2161  0.2367  0.4007
21266SOL    HW175452   8.700   4.453   0.954 -0.6662 -0.2387  0.3491
21266SOL    HW275453   8.714   4.549   0.823 -0.4743  0.3919  0.8281
21267SOL     OW75454   7.778   1.079   2.807 -0.1181 -0.3004  0.1571
21267SOL    HW175455   7.689   1.124   2.808 -0.4799 -1.0169  0.4101
21267SOL    HW275456   7.844   1.137   2.759 -0.7061  0.2533  0.0105
21268SOL     OW75457   7.449   9.295   6.498  0.7300 -0.0130 -0.3758
21268SOL    HW175458   7.534   9.338   6.528  1.9836  0.2787 -4.0551
21268SOL    HW275459   7.380   9.366   6.484  1.1602  0.2374 -1.2921
21269SOL     OW75460   1.062   5.124   5.829  0.2281 -0.1952 -0.1558
21269SOL    HW175461   1.119   5.073   5.765  1.2415 -0.4918  0.9563
21269SOL    HW275462   1.091   5.104   5.923  0.8797  2.7053  0.2998
21270SOL     OW75463   3.884   1.446   7.046  0.4186 -0.8974 -0.4661
21270SOL    HW175464   3.978   1.477   7.031  0.2458  0.0049  0.2493
21270SOL    HW275465   3.860   1.459   7.142 -1.5894  2.0914 -1.3069
21271SOL     OW75466   3.680   8.774   5.373  0.2442  0.4129  0.2477
21271SOL    HW175467   3.686   8.776   5.473 -0.1783  0.4909  0.2743
21271SOL    HW275468   3.723   8.856   5.336 -2.0859  1.8196  0.5109
21272SOL     OW75469   6.115   4.886   8.134 -0.0235  0.8905  0.0739
21272SOL    HW175470   6.214   4.899   8.134 -0.0200  0.8850 -0.6449
21272SOL    HW275471   6.093   4.800   8.179  0.3788  0.3256 -0.8000
21273SOL     OW75472   1.662   0.743   1.534  0.1837  0.0222  0.0547
21273SOL    HW175473   1.753   0.735   1.493 -0.2351  1.6658 -1.2801
21273SOL    HW275474   1.594   0.711   1.468 -0.3605  0.9464  0.1590
21274SOL     OW75475   8.566   5.169   1.654  0.5425 -0.7684  0.5115
21274SOL    HW175476   8.487   5.157   1.714  0.0785 -0.0624  0.0539
21274SOL    HW275477   8.542   5.232   1.580  1.9085  0.4262  1.0545
21275SOL     OW75478   3.347   8.413   6.422  0.2676 -0.3129  0.0641
21275SOL    HW175479   3.281   8.338   6.420  2.5437 -2.3860  0.3747
21275SOL    HW275480   3.375   8.434   6.328 -0.3520  0.1640 -0.0211
21276SOL     OW75481   6.435   0.474   2.954  0.2423 -0.0416  0.4089
21276SOL    HW175482   6.383   0.423   2.886  2.2417 -0.6694 -0.6738
21276SOL    HW275483   6.507   0.416   2.992  1.0461  1.2336  0.8771
21277SOL     OW75484   8.432   3.023   4.284 -0.1227  0.3103 -0.0289
21277SOL    HW175485   8.361   3.044   4.217  0.3700  1.4703 -0.2024
21277SOL    HW275486   8.412   2.935   4.327 -1.6474  0.5957 -0.1029
21278SOL     OW75487   6.958   0.720   1.753 -0.4638 -0.0502  0.1766
21278SOL    HW175488   6.947   0.718   1.654 -0.3707 -0.9727  0.1789
21278SOL    HW275489   7.044   0.766   1.776 -1.0687  1.2322 -0.1138
21279SOL     OW75490   0.090   4.984   0.642 -0.4229 -0.2669  0.0171
21279SOL    HW175491   0.001   5.012   0.605 -0.3201 -0.0277 -0.0539
21279SOL    HW275492   0.150   4.955   0.568 -0.1560  0.3844 -0.0294
21280SOL     OW75493   1.905   1.308   5.258 -0.1244  0.5698 -0.2128
21280SOL    HW175494   1.816   1.300   5.214  0.4295  0.6519 -1.3681
21280SOL    HW275495   1.901   1.375   5.332 -0.9255  0.8304 -0.4965
21281SOL     OW75496   0.876   3.471   0.394 -0.5914  0.3865  0.3047
21281SOL    HW175497   0.931   3.438   0.318 -0.4187  0.9763  0.1752
21281SOL    HW275498   0.868   3.570   0.389  0.8326  0.6097  1.9846
21282SOL     OW75499   7.730   6.293   8.037  0.4423 -0.3833  0.0709
21282SOL    HW175500   7.723   6.195   8.053 -0.4181 -0.2768  0.3480
21282SOL    HW275501   7.767   6.338   8.118 -1.8779 -0.1180  1.0044
21283SOL     OW75502   0.596   5.980   0.491 -0.5793 -0.0520  0.2840
21283SOL    HW175503   0.637   6.071   0.493  1.3951 -0.9164  0.4016
21283SOL    HW275504   0.578   5.953   0.396  0.4541 -0.2475  0.1455
21284SOL     OW75505   4.205   9.839   7.852 -0.0857  0.2068 -0.1152
21284SOL    HW175506   4.270   9.813   7.923 -0.9115 -1.0609  0.1847
21284SOL    HW275507   4.232   9.928   7.814  0.0411  1.1664  2.1531
21285SOL     OW75508   3.479   4.720   0.201  0.2545 -0.4096 -0.5562
21285SOL    HW175509   3.439   4.653   0.139  1.2780 -0.2702 -1.3988
21285SOL    HW275510   3.575   4.734   0.177  0.6902 -0.4012  1.1192
21286SOL     OW75511   4.961   7.484   1.240 -0.0749  0.2424 -0.3810
21286SOL    HW175512   4.922   7.395   1.265 -0.3201 -0.4208 -2.9387
21286SOL    HW275513   5.058   7.472   1.219  0.0125  0.6817 -0.2201
21287SOL     OW75514   5.636   2.775   1.049 -0.5364 -0.1728 -0.6075
21287SOL    HW175515   5.607   2.802   1.140 -1.3459  1.5279 -1.3476
21287SOL    HW275516   5.730   2.740   1.052 -0.9697 -1.2428  1.0444
21288SOL     OW75517   9.341   5.248   0.119  0.3435  0.2022  0.1869
21288SOL    HW175518   9.363   5.345   0.110  3.0093 -0.2999  0.9171
21288SOL    HW275519   9.311   5.229   0.212 -1.4060  0.5292 -0.2911
21289SOL     OW75520   1.001   8.740   7.553  0.7424 -0.5493  0.1592
21289SOL    HW175521   0.916   8.688   7.553  0.6466 -0.3960 -0.4609
21289SOL    HW275522   1.061   8.706   7.625 -0.3172  0.1156  1.3712
21290SOL     OW75523   0.745   2.371   1.260  0.3214 -0.4659 -0.1835
21290SOL    HW175524   0.690   2.290   1.239 -0.6006 -0.2698  1.4619
21290SOL    HW275525   0.822   2.345   1.318  0.0884 -0.1761  0.2542
21291SOL     OW75526   4.713   2.158   3.937  0.1728  0.2651 -0.0830
21291SOL    HW175527   4.771   2.138   3.858  0.3176 -0.5239  0.2254
21291SOL    HW275528   4.749   2.237   3.986  0.0996  0.7427 -0.7881
21292SOL     OW75529   2.321   1.847   0.803  0.2249  0.1995 -0.2231
21292SOL    HW175530   2.409   1.894   0.791  0.4371 -0.4163 -1.0671
21292SOL    HW275531   2.251   1.894   0.749  0.2489  0.0741 -0.3622
21293SOL     OW75532   2.490   7.709   5.015 -0.3636 -0.0387  0.0264
21293SOL    HW175533   2.576   7.659   5.003 -0.0573  0.3916  0.4399
21293SOL    HW275534   2.432   7.660   5.080 -0.0381  0.1792  0.4784
21294SOL     OW75535   8.671   0.900   1.374  0.2642 -0.3880  0.2768
21294SOL    HW175536   8.618   0.983   1.358  0.4185 -0.1987  0.7394
21294SOL    HW275537   8.718   0.873   1.290  0.1672 -0.0416  0.1113
21295SOL     OW75538   2.594   5.678   3.337 -0.0130  0.0139  0.1044
21295SOL    HW175539   2.607   5.643   3.429  2.3111 -1.2937 -0.6730
21295SOL    HW275540   2.497   5.671   3.311 -0.0510 -3.5127  0.9236
21296SOL     OW75541   2.196   7.565   2.405 -0.2469  0.2110  0.6172
21296SOL    HW175542   2.121   7.630   2.415 -0.4191 -0.1539  1.6918
21296SOL    HW275543   2.233   7.541   2.495  1.0085  0.2080  0.1221
21297SOL     OW75544   6.641   8.580   3.493  0.6739 -0.5325  0.3829
21297SOL    HW175545   6.711   8.531   3.546  1.3940 -0.6098 -0.6231
21297SOL    HW275546   6.652   8.678   3.506  0.6630 -0.5576  0.5995
21298SOL     OW75547   9.082   0.937   6.223 -0.4917  0.1148 -0.6012
21298SOL    HW175548   9.119   1.028   6.206 -1.1801  0.2919 -1.1674
21298SOL    HW275549   9.155   0.869   6.212  0.2144  0.6588  0.6459
21299SOL     OW75550   0.576   0.092   7.462  0.0989 -0.2474  0.0796
21299SOL    HW175551   0.675   0.102   7.451  0.0162 -1.4833 -2.0523
21299SOL    HW275552   0.535   0.181   7.478  1.6904  0.1393  2.2522
21300SOL     OW75553   1.773   9.657   0.551 -0.6431 -0.1733  0.1618
21300SOL    HW175554   1.730   9.747   0.553  1.2202  0.7242  1.0861
21300SOL    HW275555   1.827   9.647   0.467 -1.1483 -0.5810 -0.1180
21301SOL     OW75556   5.762   9.752   0.809 -0.3131 -0.1796  0.0205
21301SOL    HW175557   5.679   9.800   0.783  0.5817  1.7206  0.6263
21301SOL    HW275558   5.779   9.678   0.744 -2.2551 -0.3406 -0.3255
21302SOL     OW75559   6.952   2.720   1.530 -0.2122  0.3207  0.6777
21302SOL    HW175560   7.034   2.752   1.576  1.2303 -0.9140 -0.9707
21302SOL    HW275561   6.918   2.638   1.576  1.1735 -0.8600 -0.3712
21303SOL     OW75562   9.295   8.122   1.836  0.6849 -0.4101  0.4864
21303SOL    HW175563   9.336   8.177   1.763 -0.9178  3.8612  2.6705
21303SOL    HW275564   9.217   8.070   1.799  0.7213  0.6566 -1.1162
21304SOL     OW75565   3.228   3.903   7.720  0.0298 -0.0714  0.4143
21304SOL    HW175566   3.275   3.875   7.804 -0.2828  1.9041  1.2741
21304SOL    HW275567   3.174   3.985   7.738 -0.7915 -0.1707 -1.4968
21305SOL     OW75568   1.249   8.407   6.671 -0.1997  0.0824 -0.1907
21305SOL    HW175569   1.156   8.437   6.648 -0.1737  0.4236  0.1620
21305SOL    HW275570   1.244   8.321   6.723 -0.3589  0.6202  0.6890
21306SOL     OW75571   8.964   1.230   6.068  0.0409  0.2671 -0.6242
21306SOL    HW175572   8.929   1.144   6.032  0.0318 -0.0446  0.1386
21306SOL    HW275573   9.043   1.213   6.127  0.0259  0.7747 -0.4492
21307SOL     OW75574   2.163   4.543   5.688 -0.0472 -0.8168 -0.1222
21307SOL    HW175575   2.247   4.544   5.633  0.7673 -1.4641  1.1014
21307SOL    HW275576   2.180   4.498   5.775 -1.6268 -0.7866  0.2258
21308SOL     OW75577   3.531   8.131   6.216 -0.1017  0.2041  0.0852
21308SOL    HW175578   3.527   8.053   6.153  0.6157 -0.2179  0.5545
21308SOL    HW275579   3.573   8.102   6.302  1.6714  1.4846 -0.3167
21309SOL     OW75580   0.850   3.207   4.248  0.1265  0.6879  0.0278
21309SOL    HW175581   0.870   3.175   4.341 -0.2647  1.2219  0.2994
21309SOL    HW275582   0.752   3.214   4.235  0.2052  2.0203  0.0632
21310SOL     OW75583   9.850   2.398   4.209 -0.0781  0.5078  0.1326
21310SOL    HW175584   9.891   2.469   4.266 -0.6364  1.4389 -0.5992
21310SOL    HW275585   9.752   2.392   4.228 -0.0382 -0.0445  0.1694
21311SOL     OW75586   0.887   6.695   5.545 -0.1988 -0.1566  0.0326
21311SOL    HW175587   0.922   6.694   5.452 -0.3380  0.5809 -0.0306
21311SOL    HW275588   0.962   6.714   5.609 -0.0052 -1.1759  0.1212
21312SOL     OW75589   1.079   9.980   6.764  0.5110 -0.1661 -0.0357
21312SOL    HW175590   1.151   9.926   6.808  1.0985  0.5490 -0.1074
21312SOL    HW275591   1.002   9.992   6.827 -0.9253 -3.6050 -1.0356
21313SOL     OW75592   4.011   2.900   4.016 -0.0608  0.4203  0.2846
21313SOL    HW175593   3.984   2.962   3.943 -0.9336  0.3434  0.5335
21313SOL    HW275594   3.929   2.862   4.059  0.4595 -0.4339  0.5343
21314SOL     OW75595   8.907   3.968   0.477  0.2139  0.3702 -0.4624
21314SOL    HW175596   8.809   3.959   0.496  0.0262  1.8225 -0.7028
21314SOL    HW275597   8.946   4.037   0.538  0.5447  1.6952 -2.1356
21315SOL     OW75598   0.092   7.182   4.019  0.2627 -0.3368 -0.2391
21315SOL    HW175599   0.114   7.174   4.116 -0.9678  0.7178  0.1533
21315SOL    HW275600   0.164   7.139   3.964  1.0753 -0.7477  1.1244
21316SOL     OW75601   0.329   2.215   3.761  0.3328 -0.0429 -0.3355
21316SOL    HW175602   0.273   2.278   3.815  0.5148  0.3784 -0.6413
21316SOL    HW275603   0.425   2.237   3.774  0.5130 -1.7309  1.4033
21317SOL     OW75604   8.692   0.695   5.552  0.1492 -0.3155  0.0644
21317SOL    HW175605   8.791   0.695   5.545  0.2041  0.0895  0.8159
21317SOL    HW275606   8.665   0.678   5.647 -0.5445 -3.0134 -0.5726
21318SOL     OW75607   2.289   1.665   1.295 -0.8576 -0.5603 -0.3369
21318SOL    HW175608   2.194   1.694   1.285 -0.4133  1.1735  0.3028
21318SOL    HW275609   2.349   1.740   1.269  0.3527 -2.0701 -1.9713
21319SOL     OW75610   0.595   2.299   3.774 -0.3312 -0.0563  0.4397
21319SOL    HW175611   0.592   2.391   3.812 -1.6045 -0.3104  0.9645
21319SOL    HW275612   0.659   2.297   3.697  1.6994  0.6390  2.0560
21320SOL     OW75613   9.884   3.755   7.769  0.2038  0.3449  0.3901
21320SOL    HW175614   9.936   3.832   7.733  0.7603  1.0027  2.5276
21320SOL    HW275615   9.805   3.788   7.820  0.3110 -0.4867  1.1209
21321SOL     OW75616   4.103   0.335   2.053 -0.9081 -0.3714 -0.2420
21321SOL    HW175617   4.034   0.404   2.031 -0.8125  0.1244  0.9637
21321SOL    HW275618   4.070   0.280   2.130  0.2459  0.2004  0.6788
21322SOL     OW75619   7.361   2.531   5.895 -0.2285  0.4597  0.1360
21322SOL    HW175620   7.419   2.457   5.931  0.5213  0.5456 -0.8882
21322SOL    HW275621   7.392   2.618   5.933 -0.1502  0.4262  0.1495
21323SOL     OW75622   6.728   1.454   2.376 -0.1402  0.3851  0.6957
21323SOL    HW175623   6.802   1.389   2.392  0.6176  0.8642 -0.8192
21323SOL    HW275624   6.641   1.413   2.406  0.5077 -0.7783  1.0209
21324SOL     OW75625   1.391   2.858   6.408  0.3419  0.0022  0.3700
21324SOL    HW175626   1.405   2.899   6.318 -2.5553  2.1989  0.8388
21324SOL    HW275627   1.347   2.769   6.398  0.3394  0.0910 -0.4074
21325SOL     OW75628   6.058   0.908   4.663 -0.4819 -0.5100  0.3477
21325SOL    HW175629   6.010   0.895   4.576  2.6507  0.2621 -1.5552
21325SOL    HW275630   6.097   1.000   4.667  1.2232 -1.2613  1.6561
21326SOL     OW75631   7.760   9.007   2.340  0.0589 -0.6264  0.2352
21326SOL    HW175632   7.799   9.097   2.321 -0.1143 -0.4287  0.8022
21326SOL    HW275633   7.716   9.008   2.430  0.4746 -1.4197  0.4491
21327SOL     OW75634   9.697   3.072   8.166 -0.9098 -0.2445  0.0694
21327SOL    HW175635   9.630   3.050   8.237 -0.4843  0.5661  0.7329
21327SOL    HW275636   9.780   3.109   8.208 -0.8893  0.8202 -0.8843
21328SOL     OW75637   9.246   1.949   3.281  0.0460 -0.2881 -0.2438
21328SOL    HW175638   9.189   1.896   3.344  0.3634 -0.5047 -0.1382
21328SOL    HW275639   9.188   2.011   3.228 -0.4380 -1.3419 -0.9717
21329SOL     OW75640   9.658   5.448   4.034 -0.5077  0.2938 -0.0353
21329SOL    HW175641   9.658   5.467   4.133 -0.2805  1.2440 -0.2195
21329SOL    HW275642   9.637   5.351   4.020 -0.5483  0.1481  0.9474
21330SOL     OW75643   4.757   4.887   3.725  0.5665 -0.3137 -0.0914
21330SOL    HW175644   4.701   4.913   3.804  0.0981 -0.7239 -0.2884
21330SOL    HW275645   4.852   4.914   3.741  0.4614 -0.3530  0.5873
21331SOL     OW75646   7.618   9.099   4.217  0.1066  0.6500 -0.0162
21331SOL    HW175647   7.553   9.061   4.283  0.9745  1.4104  1.3069
21331SOL    HW275648   7.703   9.046   4.220 -0.0099  0.4050 -0.8710
21332SOL     OW75649   9.255   5.334   4.028  0.2481  0.2082 -0.0005
21332SOL    HW175650   9.258   5.329   4.128 -0.5877  1.6099  0.1115
21332SOL    HW275651   9.235   5.243   3.991 -0.4931 -0.1154  1.1642
21333SOL     OW75652   3.759   4.079   6.136  0.2287 -0.3666 -0.1996
21333SOL    HW175653   3.786   4.086   6.040 -0.2886 -1.0286 -0.3965
21333SOL    HW275654   3.706   4.161   6.161  0.0042 -0.3882 -0.5938
21334SOL     OW75655   1.818   3.882   8.181  0.2866 -0.0703  0.4131
21334SOL    HW175656   1.889   3.950   8.167 -1.3386  1.3321 -1.2163
21334SOL    HW275657   1.746   3.920   8.240 -1.3497  0.2049 -1.6989
21335SOL     OW75658   2.601   7.294   5.907 -0.2385  0.0685  0.0886
21335SOL    HW175659   2.680   7.289   5.967  0.9613 -0.2986 -1.4710
21335SOL    HW275660   2.567   7.387   5.904  0.4383  0.3298  0.3977
21336SOL     OW75661   5.090   9.717   2.145 -0.0377  0.1942  0.3939
21336SOL    HW175662   5.013   9.748   2.200 -0.7892 -0.3076 -0.3784
21336SOL    HW275663   5.058   9.683   2.057  1.2871  2.3643 -0.9772
21337SOL     OW75664   8.939   0.635   0.484  0.5880 -0.2706  0.0603
21337SOL    HW175665   8.988   0.722   0.474 -0.8894  0.6527  0.6168
21337SOL    HW275666   8.902   0.608   0.395 -1.1229  1.0192  0.3451
21338SOL     OW75667   8.225   4.907   4.110  0.6730  0.3220 -0.4236
21338SOL    HW175668   8.251   4.841   4.180  1.1164  0.6055 -0.3161
21338SOL    HW275669   8.129   4.895   4.086 -0.1227  1.7095  1.8625
21339SOL     OW75670   9.494   8.773   4.716  0.3543 -0.7462 -0.0158
21339SOL    HW175671   9.558   8.828   4.664  0.4870 -0.8748  0.0116
21339SOL    HW275672   9.519   8.676   4.709 -0.5442 -0.9176 -1.0106
21340SOL     OW75673   5.261   7.521   4.715  0.6860  0.5098  0.0320
21340SOL    HW175674   5.263   7.422   4.698 -2.4017  0.2253  0.9747
21340SOL    HW275675   5.251   7.569   4.628  0.9123 -0.0824 -0.3256
21341SOL     OW75676   9.388   9.248   1.816 -0.2322  0.2593 -0.2576
21341SOL    HW175677   9.397   9.177   1.747 -2.0575  0.2504 -0.5184
21341SOL    HW275678   9.366   9.335   1.772 -2.8178 -0.0331  0.3551
21342SOL     OW75679   0.262   5.467   6.217 -0.5511 -0.3190 -0.4469
21342SOL    HW175680   0.216   5.523   6.149  0.8872  0.9901 -0.3619
21342SOL    HW275681   0.207   5.465   6.301  0.0029  2.0722  0.0131
21343SOL     OW75682   4.490   8.632   0.768  0.3644 -0.1691 -0.4706
21343SOL    HW175683   4.437   8.681   0.698 -0.2817 -0.7594 -0.4067
21343SOL    HW275684   4.537   8.554   0.726 -1.0871 -1.3211 -0.0390
21344SOL     OW75685   2.818   9.970   5.159 -0.5369 -0.1653 -0.3248
21344SOL    HW175686   2.874   9.992   5.078  1.2622  0.2778  1.0076
21344SOL    HW275687   2.792  10.054   5.206  1.6599 -0.5342  1.6622
21345SOL     OW75688   4.599   9.892   6.607  0.0637  0.3230  0.2326
21345SOL    HW175689   4.609   9.934   6.697  0.7501  1.5122 -0.3717
21345SOL    HW275690   4.690   9.873   6.569 -0.2548 -2.3851  0.7871
21346SOL     OW75691   3.767   9.456   4.961  0.1657  0.1473 -0.1217
21346SOL    HW175692   3.752   9.368   4.916 -1.6218  0.2726  0.1955
21346SOL    HW275693   3.793   9.524   4.892  0.9768 -0.4924 -0.4520
21347SOL     OW75694   9.724   4.316   1.634 -0.5183  0.1157  0.8363
21347SOL    HW175695   9.786   4.269   1.698 -0.4383 -1.7362 -0.5620
21347SOL    HW275696   9.663   4.249   1.593 -0.4048  1.2546 -1.2095
21348SOL     OW75697   7.104   9.875   2.033 -0.5616 -0.0421  0.2028
21348SOL    HW175698   7.087   9.973   2.035 -0.2395  0.0558 -1.0868
21348SOL    HW275699   7.202   9.859   2.025 -0.6037 -0.4652  0.5619
21349SOL     OW75700   8.538   5.730   0.532 -0.0308 -0.4872 -0.3295
21349SOL    HW175701   8.571   5.823   0.547 -1.4561 -0.2336  1.3838
21349SOL    HW275702   8.608   5.665   0.562  0.4793  0.0282 -0.3904
21350SOL     OW75703   1.511   0.341   5.020  1.1064 -0.1889  0.1686
21350SOL    HW175704   1.422   0.303   5.043  1.4197 -0.9172  0.1935
21350SOL    HW275705   1.572   0.268   4.989  0.8210  0.6707 -2.6155
21351SOL     OW75706   1.383   2.978   1.418  0.1213  0.1310 -0.2383
21351SOL    HW175707   1.353   2.900   1.364 -1.5151 -1.2414  2.4824
21351SOL    HW275708   1.483   2.981   1.422  0.2137 -0.9089 -1.6146
21352SOL     OW75709   1.673   2.859   5.342 -0.4623 -0.5732  0.1325
21352SOL    HW175710   1.627   2.947   5.334  0.2960 -0.2120 -0.3173
21352SOL    HW275711   1.634   2.807   5.418 -1.1994 -0.0265  0.1274
21353SOL     OW75712   0.584   0.282   0.814  0.0473 -0.0008  0.1436
21353SOL    HW175713   0.494   0.279   0.770 -0.0095 -2.5000  0.3907
21353SOL    HW275714   0.575   0.321   0.906 -0.4368  1.6035 -0.5561
21354SOL     OW75715   1.296   4.820   1.240 -0.1478  0.3738 -0.0572
21354SOL    HW175716   1.214   4.854   1.286 -2.0219 -2.1173 -1.4155
21354SOL    HW275717   1.296   4.720   1.240  1.6675  0.3161 -2.1839
21355SOL     OW75718   4.484   9.537   5.083  0.2473 -0.2484 -0.0043
21355SOL    HW175719   4.478   9.579   5.174  0.6727  1.5097 -0.7668
21355SOL    HW275720   4.505   9.440   5.093 -0.6085 -0.2778  1.8054
21356SOL     OW75721   2.370   6.345   8.054 -1.0195  0.1888  0.2825
21356SOL    HW175722   2.406   6.350   8.148 -1.8155 -0.2040  0.6086
21356SOL    HW275723   2.270   6.351   8.056 -1.0007  0.9146 -0.5998
21357SOL     OW75724   0.719   2.191   3.519  0.0604 -0.3431 -0.3518
21357SOL    HW175725   0.638   2.140   3.488  0.3236 -0.4741 -0.8238
21357SOL    HW275726   0.800   2.159   3.470  0.5664 -0.8800  0.8109
21358SOL     OW75727   4.060   5.439   3.303 -0.1083  0.0534 -0.1770
21358SOL    HW175728   4.001   5.359   3.302  0.2449 -0.2012 -0.7980
21358SOL    HW275729   4.044   5.493   3.220  0.4538  0.0407 -0.2945
21359SOL     OW75730   8.713   6.836   5.038 -0.0486 -0.2037 -0.0647
21359SOL    HW175731   8.684   6.892   5.115  0.9194 -2.0793  1.7209
21359SOL    HW275732   8.655   6.856   4.958 -0.6098  2.2531  0.9207
21360SOL     OW75733   9.012   3.092   6.854  0.5731 -0.7215  0.0260
21360SOL    HW175734   8.935   3.069   6.914 -1.1183  0.2043 -1.7071
21360SOL    HW275735   8.992   3.058   6.762  3.0212 -1.9094 -0.0962
21361SOL     OW75736   3.807   2.832   6.880 -0.1051  0.8414  0.4989
21361SOL    HW175737   3.717   2.797   6.857 -1.1593  1.9988  2.7585
21361SOL    HW275738   3.866   2.828   6.799 -2.2516  0.3158 -1.0687
21362SOL     OW75739   8.395   3.210   1.908 -0.0131 -0.0599 -0.5260
21362SOL    HW175740   8.380   3.125   1.957  1.6552  0.2284  0.5532
21362SOL    HW275741   8.405   3.191   1.810 -0.8174 -0.9476 -0.4435
21363SOL     OW75742   0.352   9.695   5.161 -0.2407 -0.3212 -0.2414
21363SOL    HW175743   0.397   9.648   5.237 -0.4746  0.0163  0.1111
21363SOL    HW275744   0.421   9.728   5.096  0.0343  0.3227  0.3694
21364SOL     OW75745   9.018   3.459   4.470  0.2893  0.6179 -0.0690
21364SOL    HW175746   9.059   3.480   4.382  0.1867  0.9857 -0.0315
21364SOL    HW275747   8.932   3.410   4.456 -0.0904  1.3188 -0.1950
21365SOL     OW75748   0.898   9.710   1.152 -0.3185  0.1596 -0.3809
21365SOL    HW175749   0.826   9.651   1.187 -0.5595  1.0381  0.6279
21365SOL    HW275750   0.870   9.805   1.158 -0.5893  0.3297 -3.5177
21366SOL     OW75751   3.996   4.213   6.233  0.2269 -0.2874 -0.4181
21366SOL    HW175752   3.957   4.265   6.308 -0.4357 -1.4896  0.0872
21366SOL    HW275753   3.929   4.146   6.200  0.5983  0.0502 -1.9049
21367SOL     OW75754   8.904   1.762   5.242 -0.5162  0.3312  0.3546
21367SOL    HW175755   8.873   1.857   5.252 -0.9989  0.2933 -0.7757
21367SOL    HW275756   9.004   1.760   5.250 -0.6023  0.7257  1.8416
21368SOL     OW75757   0.465   0.319   2.182  0.4108 -0.6147  0.1489
21368SOL    HW175758   0.406   0.242   2.206  0.4804 -0.9031 -0.5897
21368SOL    HW275759   0.426   0.367   2.103  2.4162 -2.3015 -1.9397
21369SOL     OW75760   3.661   7.863   4.359  0.8924  0.2658  0.2575
21369SOL    HW175761   3.711   7.877   4.274 -1.3335  1.3660 -0.9121
21369SOL    HW275762   3.573   7.819   4.339 -0.1926  1.6685  1.8341
21370SOL     OW75763   4.984   9.434   7.239 -0.1655 -0.1579  0.3731
21370SOL    HW175764   4.974   9.488   7.323  0.6905 -1.7648  1.5320
21370SOL    HW275765   4.904   9.375   7.229 -0.3607  0.1787 -0.0553
21371SOL     OW75766   7.443   5.880   7.346 -0.3258 -0.0608 -0.2439
21371SOL    HW175767   7.414   5.974   7.328 -1.3173 -0.3848 -0.3935
21371SOL    HW275768   7.532   5.864   7.304 -0.7452  0.4197 -1.3483
21372SOL     OW75769   1.077   1.593   0.864 -0.6758  0.2683 -0.5290
21372SOL    HW175770   1.168   1.555   0.851  1.1289  3.6087  1.9337
21372SOL    HW275771   1.028   1.538   0.932  0.6179  0.2924  0.4306
21373SOL     OW75772   6.810   7.650   6.042  0.5327  0.6543  0.3270
21373SOL    HW175773   6.880   7.718   6.020  1.3823 -0.3849 -0.2340
21373SOL    HW275774   6.826   7.615   6.135  0.8034  0.3665  0.1733
21374SOL     OW75775   4.493   1.674   7.484  0.4367 -0.3012  0.1049
21374SOL    HW175776   4.515   1.704   7.577  0.6938 -0.7535  0.1877
21374SOL    HW275777   4.501   1.575   7.477 -1.8390 -0.5073  0.2114
21375SOL     OW75778   4.677   7.899   6.623 -0.4215  0.0830 -0.3374
21375SOL    HW175779   4.636   7.849   6.547 -2.5819  0.2975  0.6421
21375SOL    HW275780   4.719   7.983   6.589 -1.9995  0.5324 -1.2274
21376SOL     OW75781   7.699   8.683   4.287  0.4494  0.1238 -0.0095
21376SOL    HW175782   7.719   8.745   4.363  0.6934 -0.9404  0.7998
21376SOL    HW275783   7.605   8.697   4.257 -0.6990 -1.6556  2.5900
21377SOL     OW75784   1.723   0.725   4.796 -0.4076 -0.2293  0.0339
21377SOL    HW175785   1.666   0.691   4.870  0.1348  2.7248  1.8850
21377SOL    HW275786   1.803   0.771   4.833  2.1950 -2.5018 -2.4898
21378SOL     OW75787   0.455   6.255   6.887 -0.1612 -0.0072  0.7822
21378SOL    HW175788   0.521   6.233   6.815 -2.1283 -1.7431 -0.5425
21378SOL    HW275789   0.502   6.258   6.975  1.3614 -3.3382  0.1609
21379SOL     OW75790   9.935   1.847   2.392  0.0365  0.3471 -0.4352
21379SOL    HW175791   9.838   1.826   2.389 -0.3096  1.8336 -0.1906
21379SOL    HW275792   9.968   1.870   2.300  0.4765 -1.4868 -0.7485
21380SOL     OW75793   1.585   1.328   1.183 -0.4298 -0.1012 -0.0364
21380SOL    HW175794   1.654   1.348   1.253  0.9385 -1.1578 -1.0387
21380SOL    HW275795   1.601   1.386   1.103 -0.2969 -0.8016 -0.5226
21381SOL     OW75796   2.341   0.182   7.206  0.9760 -0.1458  0.1561
21381SOL    HW175797   2.399   0.261   7.186  1.6295  0.1321  3.0143
21381SOL    HW275798   2.260   0.186   7.148  0.8555  2.7951  0.4253
21382SOL     OW75799   7.403   9.476   2.185 -0.1881 -0.0435 -0.3470
21382SOL    HW175800   7.357   9.388   2.173  0.6554 -0.4247 -0.8398
21382SOL    HW275801   7.499   9.468   2.157  0.1793  0.7457  0.6577
21383SOL     OW75802   9.940   0.037   5.328  0.4818  0.0892 -0.0456
21383SOL    HW175803   9.970   0.062   5.236 -1.9851 -0.4426 -1.0283
21383SOL    HW275804   9.922   0.119   5.382  1.7101  0.4005 -0.0971
21384SOL     OW75805   4.912   8.825   6.218 -0.1318  0.2324 -0.4451
21384SOL    HW175806   4.938   8.728   6.216  0.2358  0.3130  0.2185
21384SOL    HW275807   4.906   8.860   6.125  0.4336 -0.2459 -0.6625
21385SOL     OW75808   8.519   6.990   0.256 -0.1378  0.0221 -0.0714
21385SOL    HW175809   8.489   6.921   0.322  0.8102 -0.4903 -0.1600
21385SOL    HW275810   8.497   6.960   0.164  0.9436 -0.5304 -0.1632
21386SOL     OW75811   8.105   8.664   2.135 -0.2846 -0.0875  0.5261
21386SOL    HW175812   8.052   8.658   2.051  0.5723  1.7372 -0.1840
21386SOL    HW275813   8.074   8.743   2.189  0.3372 -0.2108  1.0752
21387SOL     OW75814   8.043   0.298   0.955  0.4133 -0.0015 -0.2053
21387SOL    HW175815   8.107   0.372   0.935  0.3019 -0.3571 -1.9267
21387SOL    HW275816   8.023   0.297   1.053  2.0836  0.8815  0.1638
21388SOL     OW75817   2.160   8.091   6.142  0.2200 -0.0251  0.1716
21388SOL    HW175818   2.233   8.156   6.117 -0.3316  1.0090  1.1779
21388SOL    HW275819   2.107   8.129   6.217 -2.3036 -0.1186 -1.5244
21389SOL     OW75820   2.545   5.563   5.198  0.6694 -0.4034  0.0291
21389SOL    HW175821   2.516   5.659   5.191  3.2159  0.2238 -2.8726
21389SOL    HW275822   2.634   5.559   5.243  0.3108 -1.5001  0.6661
21390SOL     OW75823   7.249   1.516   7.808  0.1956 -0.0979  0.6714
21390SOL    HW175824   7.234   1.534   7.711  0.0682  1.8062  1.0257
21390SOL    HW275825   7.162   1.526   7.857 -0.2785 -3.5322  0.6532
21391SOL     OW75826   5.896   0.558   3.030  0.0433  0.4296  0.2613
21391SOL    HW175827   5.959   0.593   3.100  1.2170  0.0268 -0.5689
21391SOL    HW275828   5.852   0.635   2.984 -0.4579  0.7048  1.1971
21392SOL     OW75829   6.042   7.025   5.571  0.1341  0.4130 -0.3425
21392SOL    HW175830   6.000   7.009   5.482 -0.0199  1.0567 -0.3882
21392SOL    HW275831   6.112   6.956   5.588 -0.6828 -0.4512 -0.4251
21393SOL     OW75832   2.617   4.044   7.681  0.0010  0.1411  0.6439
21393SOL    HW175833   2.593   3.957   7.638  0.3663  0.2832  0.1616
21393SOL    HW275834   2.639   4.111   7.611  3.0822 -0.3309  1.1195
21394SOL     OW75835   1.244   9.644   7.795  0.3018  0.3306  0.1198
21394SOL    HW175836   1.325   9.620   7.848 -0.6090  0.7541  1.7745
21394SOL    HW275837   1.270   9.668   7.702  1.7679 -2.1347 -0.1467
21395SOL     OW75838   8.674   5.962   0.329 -0.0470 -0.0190 -0.4842
21395SOL    HW175839   8.602   6.020   0.368 -0.8029 -1.8597  0.9192
21395SOL    HW275840   8.632   5.898   0.264  0.3520 -0.8917  0.1112
21396SOL     OW75841   1.297   7.011   3.533  0.2181  0.1295  0.2564
21396SOL    HW175842   1.331   6.953   3.606 -0.4309  2.2237  2.2885
21396SOL    HW275843   1.204   7.041   3.554 -0.3338  0.0380 -1.8804
21397SOL     OW75844   7.305   4.278   5.725 -0.4954 -0.0344  0.1174
21397SOL    HW175845   7.317   4.303   5.821 -1.6575  0.6827  0.0875
21397SOL    HW275846   7.257   4.190   5.720  2.4795 -1.7161  0.2091
21398SOL     OW75847   9.227   1.247   1.402 -0.0149 -0.6349 -0.3696
21398SOL    HW175848   9.317   1.207   1.421 -0.2020 -0.8727  0.0255
21398SOL    HW275849   9.163   1.174   1.379 -0.6351 -0.6867  1.4294
21399SOL     OW75850   7.048   0.359   3.370  0.2220  0.1239  0.3224
21399SOL    HW175851   7.072   0.340   3.465  0.6603 -0.3152  0.1216
21399SOL    HW275852   6.948   0.352   3.359  0.2773 -0.9549  0.4921
21400SOL     OW75853   3.533   0.812   1.543 -0.0393 -0.1651  0.4089
21400SOL    HW175854   3.441   0.841   1.516  0.6933  0.9597 -0.9063
21400SOL    HW275855   3.593   0.891   1.551  1.0448 -0.9679  0.4107
21401SOL     OW75856   4.604   1.736   5.271  0.4722 -0.4486 -0.1313
21401SOL    HW175857   4.701   1.712   5.271  0.2742 -1.3670  1.6662
21401SOL    HW275858   4.567   1.722   5.363 -2.0693 -2.9744 -1.4844
21402SOL     OW75859   3.362   0.629   2.523  0.1054 -0.6172  0.0200
21402SOL    HW175860   3.442   0.688   2.520 -1.2505  1.2622 -0.0055
21402SOL    HW275861   3.383   0.543   2.477  2.0298 -0.0739 -0.1742
21403SOL     OW75862   0.009   5.820   6.628 -0.7844  0.3799  0.0466
21403SOL    HW175863  -0.025   5.764   6.552  2.2904  0.0824 -1.2031
21403SOL    HW275864   0.069   5.764   6.686  1.0663  1.9102 -0.3162
21404SOL     OW75865   4.410   7.989   4.701  0.1029  0.3501 -0.2290
21404SOL    HW175866   4.407   7.890   4.713  3.0750  0.0443 -1.5099
21404SOL    HW275867   4.491   8.026   4.746 -1.0639  2.2628  0.4004
21405SOL     OW75868   6.148   0.037   5.846 -0.6875 -0.3034 -0.4038
21405SOL    HW175869   6.173   0.122   5.893 -0.3866 -1.3385  1.3649
21405SOL    HW275870   6.058   0.007   5.877 -0.6352 -0.8204 -0.7468
21406SOL     OW75871   1.330   7.507   2.969 -0.4840 -1.0954  0.2709
21406SOL    HW175872   1.329   7.571   2.893  0.2923 -0.1182  1.0629
21406SOL    HW275873   1.423   7.476   2.986 -0.7556 -1.8878  0.3446
21407SOL     OW75874   0.538   3.255   4.744  0.0192 -0.3401  0.4078
21407SOL    HW175875   0.475   3.285   4.817  1.4371  2.0767  0.6780
21407SOL    HW275876   0.589   3.175   4.775 -0.3383 -0.1267  1.5697
21408SOL     OW75877   2.670   2.460   5.184  0.3473  0.0786 -0.1625
21408SOL    HW175878   2.662   2.537   5.121  2.0651  0.4939  0.0935
21408SOL    HW275879   2.738   2.395   5.148 -0.9318 -1.2101 -0.2732
21409SOL     OW75880   7.830   7.173   5.456 -0.0807 -0.5328  0.1394
21409SOL    HW175881   7.758   7.165   5.525 -2.3845 -1.0385 -2.2523
21409SOL    HW275882   7.859   7.081   5.428  1.0958 -0.3295  0.6507
21410SOL     OW75883   0.332   4.014   2.411  0.2185 -0.0457 -0.3051
21410SOL    HW175884   0.275   4.096   2.409 -0.8659 -0.7487  0.9881
21410SOL    HW275885   0.324   3.970   2.500  0.4904 -1.7719 -1.1174
21411SOL     OW75886   5.573   5.778   1.970  0.2250 -0.5600  0.2269
21411SOL    HW175887   5.490   5.834   1.956  0.2995 -0.4112  0.3790
21411SOL    HW275888   5.614   5.758   1.881  0.6782  0.3548  0.2300
21412SOL     OW75889   3.645   7.575   1.002  0.2515 -0.0289  0.1943
21412SOL    HW175890   3.686   7.665   0.989 -1.7765  1.1131  1.5335
21412SOL    HW275891   3.548   7.585   1.023 -0.0915 -2.5521 -0.0618
21413SOL     OW75892   3.208   4.605   0.712 -0.1907 -0.6889  0.6481
21413SOL    HW175893   3.135   4.575   0.773 -2.0918  0.7954 -0.8250
21413SOL    HW275894   3.175   4.605   0.617  0.6853  2.8998  0.2505
21414SOL     OW75895   0.101   3.536   7.074  0.3000 -0.0049 -0.4304
21414SOL    HW175896   0.104   3.564   6.978 -0.4647  0.2520 -0.3818
21414SOL    HW275897   0.194   3.528   7.109  0.5736  0.3123 -1.0733
21415SOL     OW75898   2.813   3.256   4.121 -0.3186  0.0709  0.1744
21415SOL    HW175899   2.859   3.318   4.058  0.7887  0.2031  1.1063
21415SOL    HW275900   2.876   3.185   4.151 -1.6367 -1.6829 -1.0706
21416SOL     OW75901   3.830   3.995   7.281 -0.0606 -0.3460 -0.0745
21416SOL    HW175902   3.783   4.065   7.334  0.5789 -0.9368  1.2952
21416SOL    HW275903   3.778   3.909   7.286 -0.0230 -0.3910 -0.4448
21417SOL     OW75904   0.219   1.048   0.112 -0.5229  0.0531 -0.1780
21417SOL    HW175905   0.163   0.986   0.166 -0.6950 -0.1836 -0.6312
21417SOL    HW275906   0.260   0.999   0.035 -0.0733  0.3326 -0.1220
21418SOL     OW75907   4.770   9.267   3.964 -0.3390  0.4527  0.5190
21418SOL    HW175908   4.847   9.290   3.905  0.3698  1.4015  1.7710
21418SOL    HW275909   4.803   9.211   4.041 -1.3166 -1.1243 -0.1962
21419SOL     OW75910   9.511   7.262   1.870  0.0893 -0.2974  0.9918
21419SOL    HW175911   9.562   7.284   1.787  0.7410  1.0699  1.7370
21419SOL    HW275912   9.428   7.319   1.873 -0.4102 -1.0139  0.8210
21420SOL     OW75913   1.584   3.444   3.539  0.3252 -0.3718  0.0673
21420SOL    HW175914   1.526   3.495   3.603 -2.1770 -1.1991 -1.4860
21420SOL    HW275915   1.565   3.473   3.446  3.1131 -0.0085 -0.4346
21421SOL     OW75916   6.351   7.696   4.337  0.4540  0.1843 -0.2732
21421SOL    HW175917   6.368   7.599   4.350  1.7956  0.5949  1.1433
21421SOL    HW275918   6.438   7.744   4.324 -0.1967  1.2105 -0.9483
21422SOL     OW75919   2.333   9.091   0.376  0.3426  0.3016 -0.0441
21422SOL    HW175920   2.410   9.039   0.413 -0.0129 -0.6875 -0.6894
21422SOL    HW275921   2.251   9.035   0.376  0.1537  0.5414 -1.5750
21423SOL     OW75922   2.185   6.317   1.860 -0.5642  0.1361  0.1363
21423SOL    HW175923   2.102   6.336   1.808 -0.4995 -0.4493 -0.1833
21423SOL    HW275924   2.162   6.270   1.945 -0.6125  0.4849  0.3135
21424SOL     OW75925   9.094   6.562   1.500  0.0604 -0.1735  0.4555
21424SOL    HW175926   9.189   6.567   1.470  0.0192 -0.8529  0.1916
21424SOL    HW275927   9.077   6.472   1.540 -0.4805 -0.0652  0.4704
21425SOL     OW75928   2.081   7.703   5.644  0.3627  0.3267  0.3824
21425SOL    HW175929   2.156   7.765   5.669  0.3847  0.6514 -0.4527
21425SOL    HW275930   2.001   7.725   5.699  0.6205  0.5577  0.6724
21426SOL     OW75931   0.528   2.530   6.095  0.1257 -0.0306  0.9975
21426SOL    HW175932   0.625   2.510   6.085 -0.1383 -0.4715 -0.7384
21426SOL    HW275933   0.514   2.629   6.101  0.7145  0.0105  1.7587
21427SOL     OW75934   1.809   0.072   7.324 -0.3262  0.5577 -0.0579
21427SOL    HW175935   1.877   0.033   7.262 -1.9493  0.6831 -2.0000
21427SOL    HW275936   1.717   0.054   7.288 -1.2577  2.4470  1.2474
21428SOL     OW75937   9.636   8.140   7.124 -0.3305  0.0452  0.6318
21428SOL    HW175938   9.604   8.199   7.198 -1.0072  1.9786 -1.1705
21428SOL    HW275939   9.676   8.195   7.051 -0.7639 -1.7307 -1.0018
21429SOL     OW75940   3.580   7.882   7.355  0.0474  0.6913 -0.0448
21429SOL    HW175941   3.675   7.913   7.351  0.9786 -2.0156  0.3438
21429SOL    HW275942   3.551   7.853   7.263 -0.1144  0.6695  0.0141
21430SOL     OW75943   1.073   8.114   5.317  0.2745  0.3225  0.2671
21430SOL    HW175944   1.146   8.124   5.249 -0.4271  1.7516 -0.2950
21430SOL    HW275945   1.111   8.075   5.401  1.4305 -0.1369 -0.4501
21431SOL     OW75946   7.606   1.515   7.195 -0.6214 -0.2208  0.5644
21431SOL    HW175947   7.640   1.583   7.130 -0.3915  0.6335  1.5703
21431SOL    HW275948   7.672   1.440   7.202 -1.5769 -1.3248 -1.6853
21432SOL     OW75949   8.060   6.359   6.162 -0.7330  0.0039  0.7681
21432SOL    HW175950   7.992   6.285   6.166 -0.2291 -0.4945  0.3115
21432SOL    HW275951   8.148   6.324   6.195 -0.3636  0.2455  0.0608
21433SOL     OW75952   3.410   6.444   2.600 -0.4279  0.0060 -0.6773
21433SOL    HW175953   3.488   6.401   2.554 -1.0693  1.6811 -3.4823
21433SOL    HW275954   3.443   6.507   2.670  0.6242 -1.5565  0.2617
21434SOL     OW75955   5.980   1.424   5.727 -0.3262  0.0377  0.3718
21434SOL    HW175956   5.909   1.457   5.664 -0.1560 -0.1246  0.0905
21434SOL    HW275957   6.061   1.397   5.674  0.1126  0.6471  0.7201
21435SOL     OW75958   7.323   8.159   6.554  0.0027 -0.3791  0.1082
21435SOL    HW175959   7.383   8.096   6.604 -1.2673 -1.6433  0.0837
21435SOL    HW275960   7.231   8.153   6.591 -0.6308 -0.2140 -1.4066
21436SOL     OW75961   2.007   2.417   8.114  0.7753  0.0553  0.6799
21436SOL    HW175962   1.983   2.350   8.043 -0.0720 -0.2238  1.2199
21436SOL    HW275963   2.015   2.372   8.202 -0.0508  0.6951  1.0922
21437SOL     OW75964   4.524   8.318   1.064 -0.1912  0.3036  0.7595
21437SOL    HW175965   4.563   8.226   1.059  0.6718  0.7744 -1.4408
21437SOL    HW275966   4.428   8.312   1.089 -0.8595 -1.3690 -2.0773
21438SOL     OW75967   7.893   3.419   0.244  0.1493  0.0743  0.0786
21438SOL    HW175968   7.936   3.416   0.154 -0.5509 -0.0484 -0.2557
21438SOL    HW275969   7.929   3.345   0.301 -0.0698 -0.4037 -0.4029
21439SOL     OW75970   7.238   7.328   2.565  0.1567 -0.4682 -0.0861
21439SOL    HW175971   7.178   7.377   2.501 -0.4157 -1.6640 -0.4819
21439SOL    HW275972   7.324   7.305   2.518  0.2211 -0.2995 -0.0536
21440SOL     OW75973   1.286   7.022   5.946 -0.2162 -0.0250  0.4243
21440SOL    HW175974   1.367   7.081   5.941 -0.8536  0.7162 -1.4639
21440SOL    HW275975   1.313   6.932   5.981  1.2363  0.5297  0.7689
21441SOL     OW75976   7.416   6.308   6.932  0.3867  0.1176 -0.1538
21441SOL    HW175977   7.377   6.397   6.955 -1.0101 -0.1303 -1.5088
21441SOL    HW275978   7.447   6.263   7.016 -0.5373  1.1039  0.7356
21442SOL     OW75979   7.964   2.449   4.594  0.3563 -0.6947 -0.3785
21442SOL    HW175980   7.935   2.371   4.650  0.2940 -1.1981 -1.1102
21442SOL    HW275981   7.938   2.433   4.499  1.6209 -0.4231 -0.7740
21443SOL     OW75982   1.332   6.670   2.575  0.2147  0.0880 -0.6822
21443SOL    HW175983   1.292   6.595   2.522  2.4103 -0.5834 -1.4454
21443SOL    HW275984   1.361   6.637   2.664 -1.7053  0.7871  0.2415
21444SOL     OW75985   7.185   1.959   0.652  0.0727 -0.2199 -0.7125
21444SOL    HW175986   7.218   1.921   0.566 -0.4015 -1.2157 -0.4687
21444SOL    HW275987   7.090   1.988   0.642 -0.4224 -1.5900 -0.1728
21445SOL     OW75988   0.010   3.198   7.613  0.6614 -0.2351 -0.4061
21445SOL    HW175989   0.030   3.102   7.596  0.1729 -0.3779 -0.1804
21445SOL    HW275990  -0.084   3.207   7.648  0.8189  0.2877 -0.1171
21446SOL     OW75991   5.790   8.549   2.727 -0.5698  0.3128 -0.5380
21446SOL    HW175992   5.871   8.502   2.693 -0.8453 -0.1787 -0.5221
21446SOL    HW275993   5.817   8.617   2.796  0.0424  1.6794 -2.0930
21447SOL     OW75994   8.400   9.555   4.497  0.5236 -0.5830  0.5902
21447SOL    HW175995   8.398   9.626   4.427  0.8298 -1.0474  0.1088
21447SOL    HW275996   8.473   9.575   4.563 -0.0238  0.0662  1.0083
21448SOL     OW75997   2.570   8.849   8.082 -0.9110  0.0879  0.1273
21448SOL    HW175998   2.516   8.924   8.045 -1.7926 -0.9879 -0.7968
21448SOL    HW275999   2.573   8.856   8.182 -1.0522  1.2937  0.0548
21449SOL     OW76000   2.125   4.711   7.763 -0.0609 -0.5170 -0.2192
21449SOL    HW176001   2.169   4.636   7.713  0.5232 -0.7420  0.6161
21449SOL    HW276002   2.032   4.685   7.787  0.2113 -1.0647  0.2530
21450SOL     OW76003   5.398   0.255   2.583  0.1648 -0.3928  0.8235
21450SOL    HW176004   5.336   0.332   2.600 -1.0078 -1.0923 -0.1433
21450SOL    HW276005   5.425   0.256   2.487  0.5985 -0.8518  0.9439
21451SOL     OW76006   4.281   3.297   4.484 -0.0349 -0.0997 -0.0567
21451SOL    HW176007   4.287   3.273   4.581  1.0321  1.1023  0.1889
21451SOL    HW276008   4.267   3.215   4.430 -0.5100 -0.7944  1.1093
21452SOL     OW76009   9.871   8.745   4.791  0.2321 -0.0543  0.6225
21452SOL    HW176010   9.807   8.798   4.848 -0.7279 -1.0350  0.4522
21452SOL    HW276011   9.858   8.648   4.809  1.9444 -0.2452  0.8674
21453SOL     OW76012   3.195   2.060   2.404 -0.0802  0.0258  0.1508
21453SOL    HW176013   3.212   2.082   2.500 -1.3511  0.2485  0.3316
21453SOL    HW276014   3.233   2.133   2.346 -2.2212  1.5877  0.6427
21454SOL     OW76015   9.386   0.911   5.060 -0.5004 -0.2746  0.2475
21454SOL    HW176016   9.327   0.920   5.140  0.8735 -1.0469  1.3533
21454SOL    HW276017   9.355   0.835   5.003 -1.2266  0.0219  0.2382
21455SOL     OW76018   4.168   8.628   2.922 -0.1146 -0.6240 -0.1185
21455SOL    HW176019   4.251   8.613   2.868  0.1943 -0.5618  0.3313
21455SOL    HW276020   4.158   8.553   2.988  0.5579  0.2846  1.0358
21456SOL     OW76021   3.891   5.742   1.079  0.3827 -0.3489  0.2421
21456SOL    HW176022   3.804   5.693   1.074  0.5983 -0.5434 -1.7281
21456SOL    HW276023   3.876   5.833   1.117 -1.1122  0.5635 -2.4133
21457SOL     OW76024   0.041   3.655   4.085  0.0396 -0.0540 -0.0710
21457SOL    HW176025   0.103   3.596   4.032  0.7531  0.7719 -0.1668
21457SOL    HW276026   0.019   3.736   4.031 -2.4184 -1.0780 -0.6904
21458SOL     OW76027   7.749   2.032   0.439 -0.0113 -0.1722 -0.5758
21458SOL    HW176028   7.818   2.025   0.511  2.2184  0.5892 -2.5872
21458SOL    HW276029   7.666   2.074   0.476  1.2862  0.7111  1.4025
21459SOL     OW76030   7.630   4.771   3.191 -0.4575  0.4500 -0.1960
21459SOL    HW176031   7.652   4.769   3.289  1.9076 -0.1657 -0.7136
21459SOL    HW276032   7.543   4.818   3.178 -2.1995 -1.8035  2.4487
21460SOL     OW76033   9.679   2.852   3.623  0.1895  0.3642  0.1080
21460SOL    HW176034   9.659   2.896   3.536 -0.5511  0.0280  0.0993
21460SOL    HW276035   9.736   2.771   3.608 -1.7345 -0.9528 -0.3240
21461SOL     OW76036   2.539   6.935   4.211 -0.4035  0.1044  0.1076
21461SOL    HW176037   2.509   7.029   4.195 -0.0928 -0.0902 -1.6811
21461SOL    HW276038   2.637   6.935   4.231 -0.1043  0.0454 -1.2898
21462SOL     OW76039   6.869   0.954   2.661  0.3005  0.2631 -0.1004
21462SOL    HW176040   6.771   0.960   2.644  0.4749  1.2976 -0.7801
21462SOL    HW276041   6.899   1.036   2.709  0.5236 -0.8430  1.6979
21463SOL     OW76042   9.858   9.425   3.977  0.3735 -0.1561  0.1521
21463SOL    HW176043   9.806   9.456   4.056  0.0888 -0.3338  0.0362
21463SOL    HW276044   9.875   9.326   3.984  0.1384 -0.2172 -0.1259
21464SOL     OW76045   3.252   2.362   5.375  0.6159 -0.3258 -0.1796
21464SOL    HW176046   3.307   2.298   5.429 -0.8397 -2.1770 -0.8331
21464SOL    HW276047   3.294   2.374   5.285  1.6087  0.7028  0.4038
21465SOL     OW76048   8.714   0.408   1.007  0.2293 -0.7350  0.9649
21465SOL    HW176049   8.687   0.473   1.077 -1.2408 -0.7198  0.3971
21465SOL    HW276050   8.667   0.429   0.921  0.6889 -1.7899  0.4381
21466SOL     OW76051   7.378   1.658   5.595  0.0550  0.4441 -0.1007
21466SOL    HW176052   7.434   1.587   5.639 -0.5768 -0.0548 -0.1074
21466SOL    HW276053   7.427   1.745   5.600  0.3641  0.2305  0.8648
21467SOL     OW76054   2.144   2.046   4.392  0.1028 -0.3586  0.2115
21467SOL    HW176055   2.196   2.020   4.473  0.6682  3.4417  1.1845
21467SOL    HW276056   2.202   2.103   4.333 -1.1112 -0.9831 -1.6389
21468SOL     OW76057   4.448   1.987   3.477  0.0524  0.1103  0.0818
21468SOL    HW176058   4.527   1.972   3.417  0.5569  0.4421  0.6614
21468SOL    HW276059   4.466   2.065   3.537 -1.0773  0.7631 -0.4001
21469SOL     OW76060   2.001   2.283   5.659  0.0654  0.2089  0.0148
21469SOL    HW176061   2.039   2.236   5.579  0.4660 -0.3340  0.5124
21469SOL    HW276062   2.042   2.245   5.742  1.2934  2.2859  0.3739
21470SOL     OW76063   6.546   5.626   7.692 -0.2577  0.6548 -0.0988
21470SOL    HW176064   6.462   5.587   7.655  0.5490  0.3759 -1.6522
21470SOL    HW276065   6.605   5.658   7.618  1.8516 -0.8699  0.8488
21471SOL     OW76066   3.466   2.038   1.547  0.2625  0.2807  0.0993
21471SOL    HW176067   3.410   1.978   1.489 -1.0762 -1.0137  2.6328
21471SOL    HW276068   3.560   2.006   1.546  0.0665 -0.3064 -0.6289
21472SOL     OW76069   9.514   2.878   4.410 -0.1740 -0.7299 -0.3283
21472SOL    HW176070   9.468   2.835   4.487 -0.8455  1.0884  0.3199
21472SOL    HW276071   9.557   2.808   4.353 -2.5004 -2.3861 -0.1472
21473SOL     OW76072   9.265   8.494   5.592 -0.6254 -0.0729  0.2738
21473SOL    HW176073   9.310   8.485   5.503 -2.8630 -1.1896 -0.7923
21473SOL    HW276074   9.326   8.540   5.656  0.8071  1.3097 -2.0214
21474SOL     OW76075   0.284   6.123   7.456  0.6138 -0.5914  0.0957
21474SOL    HW176076   0.321   6.084   7.371  2.1912  1.2278 -0.0741
21474SOL    HW276077   0.323   6.075   7.534 -0.8758 -2.3049 -0.1810
21475SOL     OW76078   9.039   0.441   4.936 -0.7862 -0.2761 -0.1028
21475SOL    HW176079   9.000   0.524   4.976  0.7668  0.7306 -0.6739
21475SOL    HW276080   9.130   0.425   4.974 -0.9133 -1.5061 -0.2971
21476SOL     OW76081   2.635   9.795   2.081  0.1388 -0.1697  0.0086
21476SOL    HW176082   2.573   9.846   2.141  1.2597  0.6218  0.5020
21476SOL    HW276083   2.730   9.817   2.105  0.6090 -1.2273 -0.8700
21477SOL     OW76084   8.819   6.094   2.260 -0.1749 -0.2228  0.4991
21477SOL    HW176085   8.884   6.169   2.248  1.1064 -1.7308 -2.3793
21477SOL    HW276086   8.754   6.093   2.184 -0.6659 -1.5489  0.9218
21478SOL     OW76087   1.435   0.248   2.314 -0.2349 -0.4061 -0.0463
21478SOL    HW176088   1.394   0.182   2.251  0.2926 -0.6214 -0.1689
21478SOL    HW276089   1.364   0.309   2.350 -0.7179 -1.0119  0.0331
21479SOL     OW76090   4.699   7.670   3.059  0.4821  0.0072 -0.2397
21479SOL    HW176091   4.661   7.730   3.129  2.1851  0.8650 -0.0069
21479SOL    HW276092   4.676   7.575   3.079 -0.9723  0.4406  0.2191
21480SOL     OW76093   1.444   8.762   4.856 -0.5746 -0.3748  0.0104
21480SOL    HW176094   1.458   8.801   4.947  0.7593 -0.4438 -0.1483
21480SOL    HW276095   1.525   8.709   4.830 -1.4520 -1.3716 -0.7065
21481SOL     OW76096   1.373   8.578   6.468 -0.5880  0.1534  0.5217
21481SOL    HW176097   1.342   8.498   6.520 -0.7223 -0.0054  0.2043
21481SOL    HW276098   1.472   8.588   6.478 -1.0116  2.0015  3.4046
21482SOL     OW76099   2.240   6.644   1.271  0.2757  0.1429 -0.2295
21482SOL    HW176100   2.253   6.741   1.293  0.1068  0.1823 -0.3041
21482SOL    HW276101   2.146   6.629   1.240  0.0930 -0.1680  0.4622
21483SOL     OW76102   7.013   8.345   2.769  0.1374  0.3028  0.3455
21483SOL    HW176103   7.005   8.408   2.692 -0.3037  0.0888  0.2109
21483SOL    HW276104   7.049   8.257   2.737  0.8306  0.5121  0.5464
21484SOL     OW76105   7.452   1.905   5.667  0.1323 -0.1605  0.2228
21484SOL    HW176106   7.417   1.914   5.760 -0.3380  0.2952  0.0039
21484SOL    HW276107   7.513   1.982   5.647  1.8113 -1.3003  0.8358
21485SOL     OW76108   8.193   8.428   0.902  0.4994  0.3261 -0.2237
21485SOL    HW176109   8.178   8.381   0.989  0.3773  0.9338  0.0829
21485SOL    HW276110   8.115   8.486   0.881  0.1008 -0.5560 -1.2189
21486SOL     OW76111   0.811   1.041   4.145  0.0318 -0.4049 -0.1081
21486SOL    HW176112   0.815   1.088   4.056  2.5403 -0.0307  0.1457
21486SOL    HW276113   0.776   1.104   4.214 -1.2892 -0.4821 -0.6888
21487SOL     OW76114   1.427   1.550   1.546  0.2315  0.1221 -0.1897
21487SOL    HW176115   1.432   1.458   1.585 -0.4314  0.7567  1.4362
21487SOL    HW276116   1.470   1.615   1.609  0.6026  0.9302 -1.2793
21488SOL     OW76117   7.747   5.988   4.620 -0.6958  0.3856 -0.4883
21488SOL    HW176118   7.682   6.035   4.561  1.6080  0.2374 -3.2081
21488SOL    HW276119   7.821   6.051   4.646 -0.6223 -0.1246  0.5783
21489SOL     OW76120   4.259   5.150   2.031  0.2890  0.1725  0.6568
21489SOL    HW176121   4.195   5.226   2.042 -2.1724 -2.0538  2.3572
21489SOL    HW276122   4.225   5.087   1.962  1.4969 -0.2131  0.3946
21490SOL     OW76123   2.852   1.535   6.755  0.4683 -0.0529 -0.1150
21490SOL    HW176124   2.826   1.629   6.731  2.3773  0.8681  1.3145
21490SOL    HW276125   2.952   1.525   6.747  0.3821 -1.6909  0.7147
21491SOL     OW76126   7.494   0.131   1.508 -0.8101  0.0294  0.5983
21491SOL    HW176127   7.566   0.159   1.572 -0.1599  0.5517 -0.3591
21491SOL    HW276128   7.406   0.131   1.556 -0.6643  2.5455  0.9588
21492SOL     OW76129   2.368   9.090   1.038 -0.6786  0.1168 -0.5859
21492SOL    HW176130   2.396   9.018   0.974 -0.6693 -1.4261  1.1147
21492SOL    HW276131   2.398   9.066   1.130 -0.6055  2.3715 -0.0060
21493SOL     OW76132   0.424   1.938   0.131 -0.0532 -0.5247  0.2927
21493SOL    HW176133   0.391   1.872   0.064  1.2034 -2.7569  1.8128
21493SOL    HW276134   0.411   1.902   0.223  1.6088  0.9066  1.1212
21494SOL     OW76135   9.338   9.124   4.223  0.1466  0.1991 -0.3938
21494SOL    HW176136   9.349   9.085   4.315 -1.1711  1.0216  0.1243
21494SOL    HW276137   9.343   9.223   4.227  0.3531  0.2312 -1.2591
21495SOL     OW76138   4.328   6.341   0.193 -0.1224  0.0628 -0.1311
21495SOL    HW176139   4.344   6.276   0.119 -0.4481 -1.9881  1.5629
21495SOL    HW276140   4.391   6.323   0.268 -0.2499  1.6854  0.3863
21496SOL     OW76141   4.490   9.713   0.417  0.2881  0.2145 -1.0883
21496SOL    HW176142   4.508   9.654   0.496  0.6758  1.3067 -0.3484
21496SOL    HW276143   4.431   9.665   0.353 -1.1051 -0.2011  0.4677
21497SOL     OW76144   0.351   6.516   4.247 -0.0892  0.0304  0.2742
21497SOL    HW176145   0.402   6.527   4.333 -1.9106 -0.3176  1.4302
21497SOL    HW276146   0.330   6.607   4.209 -0.3562  0.2252  0.8714
21498SOL     OW76147   6.060   8.789   4.199 -0.1935 -0.0232 -0.3315
21498SOL    HW176148   6.072   8.740   4.112 -1.0941 -1.2440  0.2094
21498SOL    HW276149   5.984   8.854   4.189 -0.7881 -0.6944 -0.2484
21499SOL     OW76150   4.382   7.031   2.057 -0.3668 -0.3965  0.3148
21499SOL    HW176151   4.435   7.026   2.142 -0.2168  1.8064  0.3953
21499SOL    HW276152   4.285   7.043   2.079 -0.1924  1.3348  0.2013
21500SOL     OW76153   4.371   0.728   6.283  0.2328  0.0148  0.2860
21500SOL    HW176154   4.333   0.749   6.373 -0.7426  2.6349 -0.6770
21500SOL    HW276155   4.305   0.676   6.229 -0.1527  0.5258  0.2607
21501SOL     OW76156   2.697   7.956   6.294  0.1308 -0.1305  0.4443
21501SOL    HW176157   2.793   7.938   6.311  0.7004  2.7074  0.4992
21501SOL    HW276158   2.686   8.048   6.256 -2.4259 -0.9397 -0.9358
21502SOL     OW76159   0.775   8.071   6.227 -0.6198  0.0702  0.1092
21502SOL    HW176160   0.720   8.145   6.187  0.7936  1.4667  0.6643
21502SOL    HW276161   0.729   8.035   6.307 -0.7401  1.2373  0.5839
21503SOL     OW76162   9.666   9.938   5.289  0.4898 -0.2448  0.6598
21503SOL    HW176163   9.623   9.999   5.355 -0.8626 -1.0244  0.5267
21503SOL    HW276164   9.765   9.944   5.297  0.3489 -0.9198  3.3230
21504SOL     OW76165   9.148   8.121   3.295  0.1335  0.3261 -0.3083
21504SOL    HW176166   9.215   8.109   3.367 -0.1385 -0.4890 -0.1948
21504SOL    HW276167   9.085   8.196   3.320  0.6893  0.7576 -0.1974
21505SOL     OW76168   4.780   4.468   0.316 -0.3049  0.3953 -0.2172
21505SOL    HW176169   4.779   4.555   0.268 -3.2984  1.3501  1.4094
21505SOL    HW276170   4.828   4.399   0.262 -1.6919  1.9549 -3.5286
21506SOL     OW76171   1.298   3.006   6.882  0.2249 -0.0018  0.4130
21506SOL    HW176172   1.281   3.058   6.798  0.5580  0.6735  0.7540
21506SOL    HW276173   1.389   2.966   6.879  0.5344  0.6652  0.7755
21507SOL     OW76174   2.943   5.756   6.445 -0.5154 -0.2900  0.2974
21507SOL    HW176175   2.925   5.700   6.365  0.6823 -0.2785  0.0019
21507SOL    HW276176   2.933   5.853   6.422 -0.1502 -0.2859  0.1517
21508SOL     OW76177   8.335   0.055   0.804 -0.6200 -0.3333  0.1217
21508SOL    HW176178   8.315   0.000   0.722 -0.6473  1.7518 -1.3140
21508SOL    HW276179   8.356   0.149   0.776 -0.3079  0.3257  2.5110
21509SOL     OW76180   9.723   9.038   7.870 -0.1158  0.0192  0.5486
21509SOL    HW176181   9.820   9.030   7.894 -0.0991  1.0349  0.8302
21509SOL    HW276182   9.668   9.036   7.953 -0.1217  2.6194  0.6356
21510SOL     OW76183   2.338   5.393   6.610 -0.4617  0.1671  0.6514
21510SOL    HW176184   2.249   5.423   6.577 -1.0587 -0.1979  1.9174
21510SOL    HW276185   2.328   5.307   6.659  0.6470 -0.0488  0.5154
21511SOL     OW76186   6.870   7.305   3.361  0.4488  0.1793 -0.1789
21511SOL    HW176187   6.841   7.330   3.454  0.9192  1.2007 -0.2942
21511SOL    HW276188   6.960   7.262   3.366  0.2047 -0.3201 -0.1014
21512SOL     OW76189   1.027   4.647   4.078  0.0049 -0.1123 -0.1986
21512SOL    HW176190   1.052   4.563   4.126 -0.0921  0.0298  0.1046
21512SOL    HW276191   1.101   4.674   4.017  0.0693 -0.3761 -0.2351
21513SOL     OW76192   1.024   4.534   3.746  0.0899  0.5452  0.2879
21513SOL    HW176193   1.114   4.577   3.753  0.6198 -0.4183 -0.5768
21513SOL    HW276194   1.013   4.495   3.655 -0.2271 -1.5110  1.1914
21514SOL     OW76195   5.486   9.444   4.336 -0.1144 -0.2889 -0.1073
21514SOL    HW176196   5.429   9.494   4.271 -0.1755 -0.2089  0.0071
21514SOL    HW276197   5.453   9.460   4.429  0.2724 -0.0099 -0.0175
21515SOL     OW76198   2.398   7.792   3.549 -0.1574 -0.0853 -0.0837
21515SOL    HW176199   2.398   7.847   3.632  0.4935 -0.8065  0.3981
21515SOL    HW276200   2.473   7.822   3.490 -0.7456  0.5658 -0.5152
21516SOL     OW76201   8.363   9.134   1.801  0.1238  0.4689  0.2846
21516SOL    HW176202   8.456   9.166   1.816 -0.5127  1.9843  1.1540
21516SOL    HW276203   8.299   9.196   1.847 -1.2023 -1.6855  1.4214
21517SOL     OW76204   1.072   6.574   3.694 -0.0008 -0.6743 -0.4220
21517SOL    HW176205   1.075   6.674   3.692  2.7161 -0.7263 -0.8011
21517SOL    HW276206   1.057   6.542   3.788 -0.1768  0.0767 -0.1952
21518SOL     OW76207   9.784   8.060   0.068  0.1443  0.4854  0.3111
21518SOL    HW176208   9.775   7.988  -0.001  0.7303 -0.9404  1.6728
21518SOL    HW276209   9.871   8.107   0.055  0.1161  0.4311 -0.1056
21519SOL     OW76210   2.385   4.381   1.577 -0.5437  0.6988 -0.0813
21519SOL    HW176211   2.419   4.326   1.501  0.0760 -0.4428  1.0030
21519SOL    HW276212   2.294   4.349   1.603 -0.0980  0.0458  0.6836
21520SOL     OW76213   2.171   1.268   2.204 -0.7218  0.1930  0.1140
21520SOL    HW176214   2.093   1.228   2.252  0.7664 -1.0120  1.5263
21520SOL    HW276215   2.203   1.349   2.253 -1.3905  0.9988 -0.7512
21521SOL     OW76216   3.577   9.830   4.249  0.0376 -0.6253  0.2160
21521SOL    HW176217   3.602   9.734   4.233 -2.0845 -1.1914  0.1720
21521SOL    HW276218   3.596   9.883   4.167 -1.4450 -1.5817 -0.7765
21522SOL     OW76219   7.827   0.665   5.031 -0.0231  0.1400  0.1154
21522SOL    HW176220   7.785   0.640   4.944 -1.5956 -0.8252  1.1192
21522SOL    HW276221   7.795   0.756   5.058  0.1406  0.2656 -0.1125
21523SOL     OW76222   8.010   1.078   8.206  0.1500 -0.0813  0.6261
21523SOL    HW176223   8.091   1.020   8.214 -0.4515 -0.8786  0.9970
21523SOL    HW276224   8.032   1.159   8.153  0.9563 -0.7361 -0.0468
21524SOL     OW76225   7.575   7.258   3.264  0.1125 -0.5814  0.3135
21524SOL    HW176226   7.588   7.159   3.270  3.7157 -0.2726 -0.7624
21524SOL    HW276227   7.638   7.304   3.328 -0.8873  1.0303  0.1666
21525SOL     OW76228   8.238   3.910   6.806 -0.2737  0.4996  0.5576
21525SOL    HW176229   8.303   3.978   6.771 -0.4554  1.5391  2.1694
21525SOL    HW276230   8.153   3.914   6.753  0.1465  0.7128 -0.1006
21526SOL     OW76231   9.692   9.935   1.910 -0.1800  0.9376 -0.0838
21526SOL    HW176232   9.784   9.896   1.904 -0.7060 -0.1735 -1.0953
21526SOL    HW276233   9.663   9.936   2.006 -0.0846 -1.0063 -0.0087
21527SOL     OW76234   3.481   2.814   2.678  0.8521 -0.2167 -0.8094
21527SOL    HW176235   3.528   2.876   2.741 -2.4287  2.0002 -0.3808
21527SOL    HW276236   3.477   2.723   2.719 -0.4191  0.9660  1.8769
21528SOL     OW76237   6.189   3.218   0.875  0.4266  0.4454  0.1321
21528SOL    HW176238   6.165   3.168   0.958  0.3172  1.2718  0.6088
21528SOL    HW276239   6.269   3.276   0.893  0.4076  0.6222 -0.3441
21529SOL     OW76240   4.544   1.370   5.962 -0.7644  0.6287 -0.5856
21529SOL    HW176241   4.642   1.390   5.972 -0.4262 -0.3724 -1.7238
21529SOL    HW276242   4.504   1.435   5.897 -0.3430 -0.3855 -1.8857
21530SOL     OW76243   1.167   5.085   2.719 -0.1674  0.2172  0.5348
21530SOL    HW176244   1.166   5.022   2.641  0.7561  2.1550 -1.0879
21530SOL    HW276245   1.075   5.121   2.733 -0.4958 -0.7121  0.8488
21531SOL     OW76246   9.072   7.938   3.542  0.1663 -0.4006 -0.6626
21531SOL    HW176247   9.046   7.931   3.638  1.4850  3.0455 -0.0013
21531SOL    HW276248   9.162   7.896   3.529 -0.5626 -2.0003 -0.6801
21532SOL     OW76249   8.110   3.103   7.409 -0.0812  0.0244 -0.8666
21532SOL    HW176250   8.195   3.050   7.416  0.3259  0.8961  1.5810
21532SOL    HW276251   8.056   3.090   7.493 -0.8853  1.9258 -1.0676
21533SOL     OW76252   8.253   7.763   3.634  0.1314  0.0775  0.5889
21533SOL    HW176253   8.346   7.749   3.599  0.3726  0.3396  1.1235
21533SOL    HW276254   8.230   7.861   3.630 -0.4126 -0.0785 -0.2725
21534SOL     OW76255   5.012   9.368   5.443 -0.5447  0.3259 -0.2390
21534SOL    HW176256   5.053   9.278   5.460 -0.9440  0.2267  0.2089
21534SOL    HW276257   5.084   9.433   5.417  0.0236  0.3399  1.3029
21535SOL     OW76258   9.130   7.894   5.368 -0.2585 -0.2861  0.4703
21535SOL    HW176259   9.131   7.993   5.384 -0.0027 -0.5158  1.9373
21535SOL    HW276260   9.058   7.872   5.302 -0.3400  0.8716  0.1583
21536SOL     OW76261   5.797   7.093   3.975 -0.1510  0.5040  0.2899
21536SOL    HW176262   5.750   7.160   3.918 -3.0064  0.7877  2.8523
21536SOL    HW276263   5.793   7.003   3.932 -0.0799  1.1512 -1.0939
21537SOL     OW76264   7.575   9.308   6.021  0.2744  0.1680  0.1212
21537SOL    HW176265   7.477   9.295   6.008  0.4964 -0.8494 -0.5904
21537SOL    HW276266   7.605   9.386   5.966  0.1640 -0.5687 -0.9988
21538SOL     OW76267   2.454   8.317   6.313 -0.4297  0.4171 -0.0865
21538SOL    HW176268   2.372   8.290   6.363  0.0829 -1.1621 -0.0570
21538SOL    HW276269   2.534   8.299   6.369 -0.0649  2.1138 -0.0498
21539SOL     OW76270   2.037   9.197   3.500 -0.5000  0.0868  0.3636
21539SOL    HW176271   1.977   9.245   3.564 -2.1934 -1.3710 -0.1087
21539SOL    HW276272   2.035   9.099   3.519 -1.0067 -0.3699 -1.8764
21540SOL     OW76273   5.783   4.769   0.455 -0.4407  0.4850  0.1402
21540SOL    HW176274   5.688   4.745   0.433 -0.1581  0.4685 -1.1085
21540SOL    HW276275   5.844   4.711   0.403  0.2710 -0.0959  1.6011
21541SOL     OW76276   5.624   9.418   2.693  0.5015 -0.6136  0.5946
21541SOL    HW176277   5.652   9.444   2.601  2.0787  0.5752  1.3793
21541SOL    HW276278   5.704   9.387   2.744 -0.1244  0.0104  1.9734
21542SOL     OW76279   8.515   7.499   3.872 -0.5096  0.0043 -0.0345
21542SOL    HW176280   8.417   7.520   3.867 -0.5832 -0.3450 -0.0248
21542SOL    HW276281   8.531   7.406   3.839 -0.0792  0.3610 -0.8467
21543SOL     OW76282   6.433   8.456   4.515  0.3080 -0.1928  0.3355
21543SOL    HW176283   6.411   8.487   4.422  0.9474  1.1685  0.6165
21543SOL    HW276284   6.349   8.435   4.564 -0.0815 -0.0757 -0.2698
21544SOL     OW76285   3.814   2.537   6.657 -0.0107 -0.2061 -0.0833
21544SOL    HW176286   3.795   2.454   6.604  0.1287 -0.1584 -0.2070
21544SOL    HW276287   3.808   2.516   6.754  0.1946 -0.4026 -0.1125
21545SOL     OW76288   6.288   1.451   0.383 -0.0694 -0.0212 -0.3674
21545SOL    HW176289   6.255   1.487   0.296 -0.2545  0.0796 -0.2540
21545SOL    HW276290   6.333   1.363   0.367  0.1158  0.1144 -0.5993
21546SOL     OW76291   4.031   1.991   1.233  0.6083 -0.6347 -0.2364
21546SOL    HW176292   3.933   2.012   1.236  0.4522 -1.5522  1.4491
21546SOL    HW276293   4.069   2.023   1.146 -0.9866  0.5896 -0.5096
21547SOL     OW76294   0.600   6.016   2.264 -0.1795 -0.0036  0.4119
21547SOL    HW176295   0.579   6.025   2.362  1.7294 -0.6813  0.8854
21547SOL    HW276296   0.653   5.933   2.248  2.0656  1.6292 -0.7934
21548SOL     OW76297   1.875   9.989   0.813  0.6364 -0.7699 -0.4120
21548SOL    HW176298   1.902  10.079   0.846  1.6979 -1.1705 -0.1554
21548SOL    HW276299   1.902   9.979   0.717 -0.1840 -0.5278 -0.6683
21549SOL     OW76300   8.884   6.883   6.070 -0.5544 -0.0359 -0.4224
21549SOL    HW176301   8.840   6.972   6.081  0.9955  0.8934 -1.5815
21549SOL    HW276302   8.974   6.884   6.114 -0.6641 -1.1511 -0.1416
21550SOL     OW76303   0.918   0.208   3.911 -0.0739  0.2341  0.1517
21550SOL    HW176304   0.892   0.184   3.817 -1.3107 -0.1853  0.6047
21550SOL    HW276305   0.847   0.264   3.953  1.0326  1.4509  0.4385
21551SOL     OW76306   4.865   5.063   7.306 -0.1153  0.2577  0.2676
21551SOL    HW176307   4.895   5.158   7.306  1.0077 -0.0763  1.8438
21551SOL    HW276308   4.845   5.034   7.400  0.1308 -1.2396 -0.1215
21552SOL     OW76309   4.222   2.443   0.385 -0.7477  0.1284  0.3188
21552SOL    HW176310   4.137   2.398   0.410 -0.6848  0.8988  1.9394
21552SOL    HW276311   4.291   2.428   0.456  0.4089 -0.2503 -0.8367
21553SOL     OW76312   1.551   1.677   2.873 -0.1371  0.9096 -0.0345
21553SOL    HW176313   1.617   1.614   2.913  2.7353  2.0779 -2.7307
21553SOL    HW276314   1.512   1.636   2.790 -2.3482  0.5369  1.1293
21554SOL     OW76315   4.175   2.363   3.659 -0.0557  0.1604  0.0352
21554SOL    HW176316   4.200   2.442   3.716 -1.1914  0.3938  0.2142
21554SOL    HW276317   4.178   2.280   3.715  0.4874  0.1547  0.0080
21555SOL     OW76318   0.112   9.809   6.980 -0.0044  0.9784 -0.7156
21555SOL    HW176319   0.116   9.797   7.079  1.4954  2.5752 -0.5571
21555SOL    HW276320   0.019   9.792   6.948 -0.9839  2.4268  1.2404
21556SOL     OW76321   5.012   0.877   2.076  0.2920  0.0472 -0.2192
21556SOL    HW176322   5.011   0.869   2.176  1.5882  3.2092  0.1196
21556SOL    HW276323   5.105   0.868   2.043 -0.4578 -3.7113 -1.4802
21557SOL     OW76324   0.414   9.068   4.459 -0.2367 -0.2525 -0.0495
21557SOL    HW176325   0.505   9.104   4.439  0.2988 -1.4491  0.1477
21557SOL    HW276326   0.392   8.995   4.394 -0.6401 -0.6275  0.5033
21558SOL     OW76327   2.495   7.517   0.194 -0.5649  0.4367  0.0991
21558SOL    HW176328   2.484   7.546   0.289 -0.6249  2.6092 -0.5467
21558SOL    HW276329   2.414   7.542   0.141 -0.2256 -0.1026 -0.6943
21559SOL     OW76330   3.282   7.659   3.548 -0.0784  0.5556 -0.2075
21559SOL    HW176331   3.261   7.643   3.452 -2.2121 -0.1858  0.3505
21559SOL    HW276332   3.380   7.652   3.562  0.0772 -1.2608 -1.9917
21560SOL     OW76333   1.246   0.465   7.048  0.3855  0.3071  0.1599
21560SOL    HW176334   1.279   0.493   7.138 -0.1507  0.3118  0.3611
21560SOL    HW276335   1.236   0.365   7.045 -0.4027  0.3732  0.3934
21561SOL     OW76336   6.354   1.018   1.521  0.1776  0.4432 -0.7115
21561SOL    HW176337   6.387   1.110   1.498  1.4758 -0.1235 -1.1693
21561SOL    HW276338   6.410   0.950   1.473 -0.4661 -0.5980  0.0064
21562SOL     OW76339   7.507   9.760   4.962 -0.1410 -0.2166 -0.3811
21562SOL    HW176340   7.419   9.802   4.981  1.0791  1.0807  2.7754
21562SOL    HW276341   7.501   9.661   4.976 -1.0688 -0.1363 -0.1957
21563SOL     OW76342   8.387   9.375   1.351  0.5285 -0.9191  0.2339
21563SOL    HW176343   8.434   9.407   1.434  0.3823  1.0254 -0.4084
21563SOL    HW276344   8.418   9.430   1.273  0.8932 -2.9330 -1.0682
21564SOL     OW76345   9.530   4.646   3.732  0.3790 -0.1861  0.2600
21564SOL    HW176346   9.600   4.586   3.773 -0.9496  1.5302  5.3349
21564SOL    HW276347   9.440   4.620   3.765 -0.6558  2.0531 -0.6943
21565SOL     OW76348   5.857   8.128   1.936 -0.6414 -0.2534 -0.0739
21565SOL    HW176349   5.780   8.100   1.994 -1.2066  3.3122  0.9689
21565SOL    HW276350   5.936   8.149   1.994  0.3874 -1.5231 -0.9878
21566SOL     OW76351   3.612   0.236   4.094  0.0008  0.5178 -0.5652
21566SOL    HW176352   3.698   0.248   4.145  0.8897  0.5067 -2.0486
21566SOL    HW276353   3.632   0.223   3.997 -1.5340 -2.0701 -0.5744
21567SOL     OW76354   3.764   1.023   3.803  0.7889 -0.6738 -0.2556
21567SOL    HW176355   3.666   1.016   3.821  0.6788  1.7113  0.2662
21567SOL    HW276356   3.792   0.952   3.738 -1.0987 -1.9187  0.2648
21568SOL     OW76357   8.975   0.124   0.463 -0.0920  0.0903 -0.4636
21568SOL    HW176358   9.035   0.063   0.410  0.3566  1.2291 -1.2888
21568SOL    HW276359   8.916   0.174   0.401 -0.3396  0.6275  0.2052
21569SOL     OW76360   4.190   2.946   4.212 -0.1886  0.3711 -0.2901
21569SOL    HW176361   4.279   2.911   4.186 -0.2682 -0.5678  0.6631
21569SOL    HW276362   4.122   2.922   4.142  0.4034  1.5520 -1.2721
21570SOL     OW76363   3.887   4.706   7.295  0.4709  0.4129 -0.2415
21570SOL    HW176364   3.961   4.740   7.237 -0.7296  2.3073 -0.7152
21570SOL    HW276365   3.805   4.760   7.278 -0.9568 -1.5052  0.4528
21571SOL     OW76366   5.268   0.747   0.442 -0.4564  0.3067 -0.1767
21571SOL    HW176367   5.226   0.661   0.472 -1.5900  0.9675  0.1794
21571SOL    HW276368   5.347   0.728   0.384 -0.4913 -0.9738  0.1972
21572SOL     OW76369   5.538   5.512   0.067 -0.2643  0.1587  0.2359
21572SOL    HW176370   5.586   5.425   0.083  0.0839  0.0342 -1.4703
21572SOL    HW276371   5.507   5.549   0.155 -1.2432 -2.1606  0.9128
21573SOL     OW76372   3.651   2.436   1.371 -0.2859 -0.5262 -0.1253
21573SOL    HW176373   3.656   2.497   1.292 -1.8801  0.3934  0.4620
21573SOL    HW276374   3.557   2.404   1.383  0.1726 -1.6049  0.7111
21574SOL     OW76375   5.991   6.482   0.598  0.1822  0.0407  0.6085
21574SOL    HW176376   6.059   6.411   0.618  0.0879 -0.2069  0.0518
21574SOL    HW276377   5.907   6.439   0.565 -0.1985  0.3556  1.1705
21575SOL     OW76378   7.712   5.868   7.206  0.1557 -0.7537 -0.4535
21575SOL    HW176379   7.809   5.848   7.198  0.6906  1.7464 -0.6917
21575SOL    HW276380   7.671   5.873   7.115  0.2688  0.2905 -0.4500
21576SOL     OW76381   4.246   2.860   7.694 -0.4501  0.2346 -0.3575
21576SOL    HW176382   4.192   2.930   7.648  1.4680  2.3056  0.4761
21576SOL    HW276383   4.329   2.842   7.641 -0.1129 -0.1725  0.2967
21577SOL     OW76384   3.993   6.072   1.355 -0.2486 -0.1634 -0.1020
21577SOL    HW176385   4.023   6.165   1.335 -0.3022 -0.0447  0.3763
21577SOL    HW276386   3.967   6.065   1.451  1.5814 -1.1643  0.3351
21578SOL     OW76387   2.049   2.768   7.519  0.1167 -0.0439 -0.2140
21578SOL    HW176388   2.044   2.866   7.504  1.1095  0.0809  0.2281
21578SOL    HW276389   2.120   2.728   7.461  0.9518 -0.2154  0.8964
21579SOL     OW76390   9.014   4.846   3.817 -0.3902  0.0459  0.5995
21579SOL    HW176391   9.099   4.850   3.766 -0.5077  0.3179  0.4215
21579SOL    HW276392   9.027   4.793   3.901 -0.5266 -1.4938 -0.3364
21580SOL     OW76393   5.728   4.229   7.561 -0.1708 -0.1792 -0.1761
21580SOL    HW176394   5.738   4.219   7.462 -2.8548  1.1571 -0.6310
21580SOL    HW276395   5.648   4.285   7.581  0.9371  0.4453  2.7561
21581SOL     OW76396   7.485   5.787   3.403  0.8442  0.0620 -0.1148
21581SOL    HW176397   7.432   5.872   3.408  0.4105 -0.2424  0.5311
21581SOL    HW276398   7.541   5.787   3.320 -0.0250  0.4819 -0.7078
21582SOL     OW76399   9.960   8.993   7.602 -0.3196  0.1231  0.2015
21582SOL    HW176400   9.876   9.010   7.654 -0.3467  3.0952 -0.6922
21582SOL    HW276401   9.939   8.938   7.521 -0.5058 -3.3643  2.5495
21583SOL     OW76402   6.694   1.536   0.516 -0.1129 -0.4214 -0.2975
21583SOL    HW176403   6.729   1.462   0.459 -1.1091 -1.0736 -0.0889
21583SOL    HW276404   6.618   1.581   0.469 -2.6409 -2.6210  1.5359
21584SOL     OW76405   3.449   8.379   6.886 -0.2532  0.3607 -0.0147
21584SOL    HW176406   3.436   8.312   6.958 -0.0023  0.2706 -0.0507
21584SOL    HW276407   3.361   8.403   6.846 -0.5430  1.4033  1.2140
21585SOL     OW76408   7.742   4.630   2.258 -0.2263  0.1162  0.0612
21585SOL    HW176409   7.761   4.535   2.284 -0.3339  0.2827  0.7781
21585SOL    HW276410   7.648   4.652   2.281 -0.1014  0.4985  0.2020
21586SOL     OW76411   0.653   4.714   0.225 -0.4780  0.0806  0.1473
21586SOL    HW176412   0.699   4.756   0.304 -0.0123 -0.1430 -0.0035
21586SOL    HW276413   0.678   4.618   0.219  0.0404  0.2627 -0.6831
21587SOL     OW76414   2.577   0.562   0.329  0.3909  0.4323  0.7170
21587SOL    HW176415   2.651   0.620   0.294  0.1000  0.3241 -0.0918
21587SOL    HW276416   2.589   0.469   0.296 -1.5727  0.9640 -1.7140
21588SOL     OW76417   7.639   9.775   3.369  0.1960  0.1167 -0.1331
21588SOL    HW176418   7.691   9.695   3.339  0.0767  0.8624 -2.4130
21588SOL    HW276419   7.544   9.748   3.386  0.0869 -0.2005 -1.1749
21589SOL     OW76420   9.023   9.621   1.548  0.1074  0.0105  0.1288
21589SOL    HW176421   9.003   9.574   1.461 -1.6691  0.6270  0.1710
21589SOL    HW276422   8.963   9.585   1.619 -0.2113  1.2739  0.5118
21590SOL     OW76423   9.670   6.534   6.705 -0.0748  0.1306  0.0753
21590SOL    HW176424   9.655   6.443   6.668  0.5084  0.1234 -0.1536
21590SOL    HW276425   9.697   6.528   6.801  0.8989  0.0071 -0.2026
21591SOL     OW76426   3.103   8.855   3.022  0.7798 -0.0311  0.0831
21591SOL    HW176427   3.157   8.830   3.103 -0.7170 -0.5334  0.9420
21591SOL    HW276428   3.018   8.803   3.022 -0.5382  2.0687 -0.2972
21592SOL     OW76429   3.170   9.753   4.671  0.2271 -0.1155 -0.0897
21592SOL    HW176430   3.118   9.777   4.753  1.1676 -0.2061  0.5469
21592SOL    HW276431   3.176   9.653   4.664 -0.6168 -0.1187 -0.7603
21593SOL     OW76432   5.899   8.243   6.275 -0.5921  0.1533 -0.0482
21593SOL    HW176433   5.811   8.278   6.244 -0.4112  1.2782  0.6908
21593SOL    HW276434   5.940   8.308   6.339  0.7226 -0.4185 -0.3045
21594SOL     OW76435   0.382   9.587   4.348  0.0195  0.3252 -0.3205
21594SOL    HW176436   0.354   9.543   4.434 -1.9896  1.6959 -0.2366
21594SOL    HW276437   0.310   9.574   4.280  1.2700 -0.0788 -1.5827
21595SOL     OW76438   8.568   2.437   4.210  0.3806  0.0167 -0.2727
21595SOL    HW176439   8.594   2.516   4.266 -0.6264 -0.1409  0.4266
21595SOL    HW276440   8.615   2.443   4.122 -0.2611  1.8099 -0.5242
21596SOL     OW76441   9.899   6.068   3.881  0.2254  0.5233 -0.2258
21596SOL    HW176442   9.816   6.069   3.937  0.7423  0.5214  0.5442
21596SOL    HW276443   9.965   6.133   3.918  1.1687 -0.5857  0.0705
21597SOL     OW76444   1.272   7.231   4.959  0.1178 -0.8406  0.5301
21597SOL    HW176445   1.184   7.199   4.924 -0.0456  0.4882 -0.3144
21597SOL    HW276446   1.258   7.307   5.022  0.8300  2.9677 -3.6030
21598SOL     OW76447   5.523   7.933   5.573  0.8061  0.2228 -0.6829
21598SOL    HW176448   5.464   7.868   5.525  0.6589  0.2653 -0.5579
21598SOL    HW276449   5.471   8.015   5.596  0.5776 -0.2539  0.5424
21599SOL     OW76450   1.559   3.265   1.442 -0.1922 -0.2452  0.0074
21599SOL    HW176451   1.464   3.294   1.438 -0.6348 -1.6979 -0.4804
21599SOL    HW276452   1.563   3.168   1.468  1.2323  0.2537  1.7929
21600SOL     OW76453   8.031   2.453   6.648  0.4838 -0.5014  0.3558
21600SOL    HW176454   8.008   2.458   6.551  0.7343  0.9247  0.3605
21600SOL    HW276455   8.107   2.515   6.668 -0.7801  0.6092  1.8262
21601SOL     OW76456   2.023   3.608   7.686  0.3682  0.1181 -0.7052
21601SOL    HW176457   2.036   3.527   7.743  1.0046  0.7078  0.0011
21601SOL    HW276458   1.934   3.649   7.706  1.4012  1.4425  1.3156
21602SOL     OW76459   0.685   1.983   4.024  0.4172 -1.0327  0.1476
21602SOL    HW176460   0.712   1.991   3.928 -0.2371  1.6046  0.1249
21602SOL    HW276461   0.591   2.017   4.035  0.6942 -0.7390  1.7871
21603SOL     OW76462   7.022   2.172   0.167  0.5057 -0.0086 -0.0155
21603SOL    HW176463   6.978   2.084   0.147  1.2062 -0.8062  1.7823
21603SOL    HW276464   7.081   2.199   0.091 -1.2888 -0.0641 -1.4629
21604SOL     OW76465   2.652   0.634   2.796  0.2495 -0.0863  0.5585
21604SOL    HW176466   2.731   0.686   2.763 -0.7937  0.2167 -1.5173
21604SOL    HW276467   2.573   0.695   2.804  0.2664 -0.3289  2.8980
21605SOL     OW76468   4.857   3.697   6.568 -0.1000  0.1211 -0.3070
21605SOL    HW176469   4.806   3.701   6.655  0.4984  0.2590  0.0388
21605SOL    HW276470   4.809   3.637   6.504  0.3782 -1.3488  0.7103
21606SOL     OW76471   8.640   2.097   0.791 -0.3324  0.3104  0.4779
21606SOL    HW176472   8.697   2.122   0.712 -0.5877  1.0575  0.5251
21606SOL    HW276473   8.574   2.027   0.764  0.1466 -0.0596  0.2484
21607SOL     OW76474   9.127   2.656   0.600 -0.1787 -0.1397  0.4121
21607SOL    HW176475   9.171   2.641   0.688  1.5698  0.3889 -0.3559
21607SOL    HW276476   9.192   2.696   0.536 -1.4879 -0.3019 -1.0620
21608SOL     OW76477   9.685   2.514   3.340  0.3428 -0.2811  0.4949
21608SOL    HW176478   9.723   2.433   3.295  3.5857  0.0577  2.4761
21608SOL    HW276479   9.667   2.585   3.271  1.5677 -1.1255 -0.7242
21609SOL     OW76480   0.993   9.861   0.048  0.3702  0.0552 -0.2941
21609SOL    HW176481   1.061   9.847   0.119 -0.3477 -2.1810  0.0038
21609SOL    HW276482   0.999   9.786  -0.019 -1.0401  0.4159 -0.8495
21610SOL     OW76483   1.609   5.185   7.585 -0.0374 -0.4363  0.5135
21610SOL    HW176484   1.636   5.102   7.537  2.0603 -1.4905  3.4082
21610SOL    HW276485   1.535   5.230   7.534  1.0337 -2.2711 -2.8300
21611SOL     OW76486   0.204   7.987   7.662  0.2647 -0.1504 -0.2900
21611SOL    HW176487   0.206   8.048   7.584 -0.7990 -0.7137 -0.7753
21611SOL    HW276488   0.179   8.038   7.744 -0.4357  0.1044 -0.6616
21612SOL     OW76489   5.228   0.228   2.080  0.5016 -0.1650  0.0336
21612SOL    HW176490   5.169   0.299   2.118  1.3368  0.9465 -0.7475
21612SOL    HW276491   5.192   0.138   2.107 -1.5111  0.4885 -0.3472
21613SOL     OW76492   8.824   3.647   2.923 -0.5935 -0.2735 -0.4014
21613SOL    HW176493   8.856   3.732   2.965 -0.1234  0.5287 -2.3373
21613SOL    HW276494   8.897   3.578   2.929 -0.8194 -0.4153  0.7890
21614SOL     OW76495   4.347   5.305   2.375  0.5802  0.0420 -0.1386
21614SOL    HW176496   4.375   5.395   2.407  0.1925  0.3246 -0.5868
21614SOL    HW276497   4.248   5.295   2.389  0.3306  0.3435 -1.6789
21615SOL     OW76498   7.830   0.005   1.698 -0.5546  0.2610 -0.0996
21615SOL    HW176499   7.846  -0.022   1.603 -1.1870  0.9486 -0.4021
21615SOL    HW276500   7.906  -0.027   1.754  0.0158  0.1944 -0.8979
21616SOL     OW76501   3.348   4.064   2.868  0.3883 -0.6464  0.2855
21616SOL    HW176502   3.254   4.032   2.877  0.1565 -0.3826 -1.0899
21616SOL    HW276503   3.356   4.156   2.908  0.1343 -0.7920  0.6713
21617SOL     OW76504   7.659   4.531   7.698 -0.2467  0.1334  0.1792
21617SOL    HW176505   7.613   4.620   7.698 -0.3640  0.0793  1.1001
21617SOL    HW276506   7.722   4.526   7.776  1.1900  0.1436 -0.9655
21618SOL     OW76507   4.035   3.139   4.285  0.8063 -0.2888 -0.0158
21618SOL    HW176508   4.019   3.113   4.380 -1.3715 -2.3170 -0.8943
21618SOL    HW276509   4.091   3.069   4.240 -0.7956 -0.9590 -1.0317
21619SOL     OW76510   9.315   6.538   0.099  0.2422  0.8029  0.3157
21619SOL    HW176511   9.241   6.483   0.139  0.4570  0.5179  0.3197
21619SOL    HW276512   9.286   6.634   0.096  0.1887  0.8178  1.0827
21620SOL     OW76513   4.988   4.672   2.052 -0.2137  0.3062 -0.3659
21620SOL    HW176514   5.082   4.640   2.048 -0.1359  0.3253  0.9576
21620SOL    HW276515   4.974   4.724   2.136 -1.1394  1.1645 -1.0403
21621SOL     OW76516   5.337   0.500   0.951  0.4523 -0.3622 -0.0667
21621SOL    HW176517   5.341   0.541   0.860  2.6563  1.8697  1.0083
21621SOL    HW276518   5.254   0.444   0.957 -0.7995  1.0558 -2.7627
21622SOL     OW76519   9.285   8.815   3.692 -0.5344  0.4490  0.5127
21622SOL    HW176520   9.333   8.729   3.705 -0.7065  0.3988  0.8125
21622SOL    HW276521   9.248   8.819   3.599 -1.6091 -0.3435  0.8925
21623SOL     OW76522   1.902   6.940   6.485 -0.5322 -0.6690  0.2368
21623SOL    HW176523   1.874   7.002   6.559  2.5889 -2.1020  2.7469
21623SOL    HW276524   1.869   6.848   6.504  0.9375 -1.1991  0.2867
21624SOL     OW76525   9.893   2.026   7.575  0.0959  0.7225  0.2064
21624SOL    HW176526   9.876   1.973   7.658  1.5096 -0.8892 -0.4937
21624SOL    HW276527   9.807   2.035   7.524 -0.7533  1.6181  1.7631
21625SOL     OW76528   8.469   2.775   2.828 -0.3014 -0.1887 -0.3518
21625SOL    HW176529   8.523   2.738   2.903  0.9135 -0.2218 -1.2289
21625SOL    HW276530   8.517   2.761   2.742 -1.8647 -0.5038 -1.1905
21626SOL     OW76531   8.217   0.854   4.700 -0.2643  0.4915  0.4905
21626SOL    HW176532   8.235   0.803   4.616 -1.0636 -0.8648  1.1293
21626SOL    HW276533   8.124   0.890   4.698 -0.6159 -0.3457  1.1856
21627SOL     OW76534   0.771   7.752   3.522  0.6456  0.0714 -0.1375
21627SOL    HW176535   0.710   7.825   3.491  3.6066  1.7945 -2.1356
21627SOL    HW276536   0.755   7.669   3.469 -0.9567  0.0226  0.3929
21628SOL     OW76537   2.838   6.124   4.091 -0.0327  0.0029  0.2977
21628SOL    HW176538   2.804   6.039   4.132 -1.2748 -0.0483 -0.8311
21628SOL    HW276539   2.932   6.140   4.124 -0.2768 -1.0640  1.6029
21629SOL     OW76540   9.711   5.840   4.229 -0.0300 -0.5910 -0.4786
21629SOL    HW176541   9.785   5.783   4.266  0.1759  0.1942  0.3550
21629SOL    HW276542   9.641   5.782   4.187  0.8044 -1.3735 -0.8062
21630SOL     OW76543   8.761   6.024   2.674 -0.3525 -0.7004  0.5636
21630SOL    HW176544   8.753   5.955   2.746 -2.7119  0.2354  1.2515
21630SOL    HW276545   8.670   6.057   2.649  0.7043  2.2604  0.3762
21631SOL     OW76546   0.590   5.059   5.732 -0.5717  0.5915  0.2013
21631SOL    HW176547   0.626   5.150   5.712  3.4620 -0.6873  1.1047
21631SOL    HW276548   0.543   5.060   5.821  1.0996  1.4418  1.1075
21632SOL     OW76549   9.266   4.818   2.568 -0.0559 -0.3306 -0.3007
21632SOL    HW176550   9.335   4.834   2.497  0.5698 -0.6664  0.2336
21632SOL    HW276551   9.187   4.773   2.526 -0.1590  0.4899 -1.0081
21633SOL     OW76552   8.888   4.450   1.776 -0.0656  0.2476 -0.2335
21633SOL    HW176553   8.940   4.461   1.861 -0.7036 -0.0749  0.2022
21633SOL    HW276554   8.805   4.398   1.794  0.4175 -0.9329 -1.3034
21634SOL     OW76555   1.780   5.286   5.898 -0.1340 -0.3303 -0.5808
21634SOL    HW176556   1.871   5.322   5.919 -0.2830 -0.8252  0.9948
21634SOL    HW276557   1.710   5.352   5.926 -0.3679 -1.3625  1.3668
21635SOL     OW76558   8.974   3.630   3.925  0.3829  0.4651  0.0649
21635SOL    HW176559   8.923   3.547   3.900  0.1135  0.7171 -0.2377
21635SOL    HW276560   8.914   3.692   3.975 -1.0635  2.8158 -4.3427
21636SOL     OW76561   4.823   1.132   6.475 -0.6069  0.2234  0.7385
21636SOL    HW176562   4.875   1.053   6.506  0.5424  0.7446  0.1491
21636SOL    HW276563   4.842   1.149   6.379 -3.5482 -0.9053 -0.1033
21637SOL     OW76564   3.493   4.187   1.385  0.4196 -0.5018  0.2871
21637SOL    HW176565   3.421   4.120   1.403  0.1447 -0.3567 -0.2652
21637SOL    HW276566   3.575   4.141   1.350  0.1241 -0.5151 -0.3874
21638SOL     OW76567   4.571   3.692   4.433 -0.0094 -0.1369  0.0430
21638SOL    HW176568   4.573   3.604   4.479 -0.3171 -1.5094 -2.5059
21638SOL    HW276569   4.482   3.707   4.392  0.5984  0.5509 -1.0530
21639SOL     OW76570   8.606   1.035   5.503  0.1148 -0.7748 -0.1342
21639SOL    HW176571   8.545   0.966   5.463  1.2390 -1.2887 -0.9837
21639SOL    HW276572   8.685   1.048   5.444  0.5141  0.3771  0.6305
21640SOL     OW76573   4.415   5.281   7.007  0.6704  0.0813  0.1270
21640SOL    HW176574   4.491   5.259   7.068  1.1434  0.5991 -0.2646
21640SOL    HW276575   4.342   5.324   7.059  0.4148 -0.9176  0.6026
21641SOL     OW76576   2.252   0.878   1.774  0.0529  0.6797 -0.3867
21641SOL    HW176577   2.341   0.874   1.821 -0.1180 -1.1762 -0.1620
21641SOL    HW276578   2.266   0.907   1.680  0.8139  1.1146 -0.1459
21642SOL     OW76579   7.869   1.338   5.181  0.2947 -0.3568  0.0944
21642SOL    HW176580   7.902   1.339   5.086 -1.2133 -1.3135 -0.4590
21642SOL    HW276581   7.946   1.355   5.243  1.9765 -3.3125 -1.0948
21643SOL     OW76582   7.714   1.859   6.436  0.1724  0.2533 -0.3002
21643SOL    HW176583   7.792   1.797   6.435  0.0237  0.0708 -0.8023
21643SOL    HW276584   7.739   1.944   6.483  0.0121 -0.6587  1.4649
21644SOL     OW76585   7.424   3.089   3.055 -0.1863 -0.2325  0.0202
21644SOL    HW176586   7.363   3.016   3.022  0.4641  0.5526 -3.0654
21644SOL    HW276587   7.380   3.177   3.044  1.7034  0.4178 -2.9762
21645SOL     OW76588   9.240   8.150   0.723 -0.1274  0.2617 -0.6835
21645SOL    HW176589   9.329   8.112   0.748  0.8079  0.2688 -3.7997
21645SOL    HW276590   9.195   8.091   0.656 -2.0004  0.8484  0.0053
21646SOL     OW76591   0.933   0.505   7.715 -0.3819 -0.3166 -0.0337
21646SOL    HW176592   1.010   0.490   7.654  0.2869 -0.0317  0.7376
21646SOL    HW276593   0.894   0.596   7.699 -0.2389 -0.2632 -0.0768
21647SOL     OW76594   3.475   8.434   6.187 -0.5289  0.0230  0.1728
21647SOL    HW176595   3.482   8.335   6.202 -0.0638  0.4103  2.8351
21647SOL    HW276596   3.564   8.470   6.161 -0.5297 -0.1721 -0.0947
21648SOL     OW76597   3.109   2.659   3.049  0.0132  0.2113 -0.1297
21648SOL    HW176598   3.115   2.756   3.024 -1.5919  0.3562 -0.0276
21648SOL    HW276599   3.054   2.649   3.132 -2.1508 -0.9801 -1.6602
21649SOL     OW76600   1.774   5.816   2.370 -0.1547 -0.3847 -0.3150
21649SOL    HW176601   1.795   5.785   2.463  0.0752 -1.5811 -0.7555
21649SOL    HW276602   1.830   5.896   2.348  0.6596 -0.8183  0.1554
21650SOL     OW76603   0.420   1.738   4.159 -0.6157  0.3192 -0.2060
21650SOL    HW176604   0.456   1.723   4.251 -0.7738 -1.2730 -0.3877
21650SOL    HW276605   0.393   1.834   4.149  2.6344  1.3397  0.2609
21651SOL     OW76606   1.268   3.926   1.876 -0.4559 -0.3267 -0.0620
21651SOL    HW176607   1.181   3.927   1.828 -0.9461  0.2125  0.8232
21651SOL    HW276608   1.334   3.983   1.827 -0.6448 -0.6128 -0.6496
21652SOL     OW76609   7.530   6.412   2.798 -0.6256  0.6274  0.0345
21652SOL    HW176610   7.543   6.425   2.896 -1.1248  0.0185  0.1812
21652SOL    HW276611   7.507   6.500   2.755  1.2038  1.2011  0.2017
21653SOL     OW76612   7.743   1.901   0.808 -0.1010  0.0916  0.0121
21653SOL    HW176613   7.645   1.888   0.823  0.1764 -1.7587  0.3663
21653SOL    HW276614   7.787   1.812   0.799  1.5383  0.9136 -0.2471
21654SOL     OW76615   1.063   6.813   3.481 -0.2957 -0.2134  0.8531
21654SOL    HW176616   1.041   6.720   3.452  0.8020 -0.0989 -0.4175
21654SOL    HW276617   1.054   6.875   3.403 -1.0674  0.7547  1.7055
21655SOL     OW76618   0.722   2.383   0.444 -0.3185  0.2657  0.4451
21655SOL    HW176619   0.697   2.400   0.540  0.3249 -0.7753  0.8011
21655SOL    HW276620   0.821   2.372   0.437 -0.4630 -0.6522 -0.1936
21656SOL     OW76621   9.829   6.431   3.536  0.0797  0.1112 -0.2736
21656SOL    HW176622   9.904   6.421   3.601  0.6263  0.7469 -0.8024
21656SOL    HW276623   9.768   6.351   3.542 -0.3788  0.5906  1.6508
21657SOL     OW76624   1.303   7.042   6.670  0.0292  0.4547 -0.2340
21657SOL    HW176625   1.351   7.032   6.757 -1.4293  1.8198  0.7702
21657SOL    HW276626   1.248   6.960   6.652  0.5314  0.0678 -0.0036
21658SOL     OW76627   1.335   5.376   1.518 -0.1209  0.8453  0.1115
21658SOL    HW176628   1.336   5.392   1.617 -0.8316  3.4698 -0.2581
21658SOL    HW276629   1.241   5.381   1.485 -0.0714 -1.7364 -0.4620
21659SOL     OW76630   1.530   9.804   3.787 -0.5947 -0.4079 -0.0127
21659SOL    HW176631   1.450   9.787   3.844 -1.0772 -1.4270 -0.9665
21659SOL    HW276632   1.613   9.788   3.840 -1.0254 -0.5188  0.6342
21660SOL     OW76633   5.128   2.514   1.211  0.4464 -0.6007 -0.3710
21660SOL    HW176634   5.095   2.599   1.170  1.1291 -0.5813 -0.8864
21660SOL    HW276635   5.144   2.528   1.308 -1.0350 -0.6046 -0.1085
21661SOL     OW76636   1.101   1.788   2.628 -0.5764  0.0043 -0.0477
21661SOL    HW176637   1.174   1.768   2.693  0.3784  0.0183 -1.1095
21661SOL    HW276638   1.021   1.731   2.650 -0.1912 -0.1452  0.9987
21662SOL     OW76639   0.251   8.188   3.928  0.5401  0.0564  0.2212
21662SOL    HW176640   0.290   8.097   3.934  2.6444  1.0288  2.1919
21662SOL    HW276641   0.155   8.186   3.954  0.4951 -1.6361 -0.0693
21663SOL     OW76642   9.570   1.320   5.176 -0.0318 -0.0821 -0.1275
21663SOL    HW176643   9.479   1.356   5.156 -0.6886 -0.1945  2.3901
21663SOL    HW276644   9.639   1.374   5.128 -1.3593  0.8342 -1.0322
21664SOL     OW76645   7.570   8.605   2.680  0.1158 -0.4426  0.3805
21664SOL    HW176646   7.471   8.616   2.688  0.1720  0.1942  0.2686
21664SOL    HW276647   7.592   8.567   2.590 -0.0867 -1.5010  0.7666
21665SOL     OW76648   6.884   1.724   0.851  0.0789 -0.0509 -0.0528
21665SOL    HW176649   6.891   1.656   0.777  0.7538 -0.7868  0.6794
21665SOL    HW276650   6.798   1.774   0.841 -0.3452 -0.8809 -0.7114
21666SOL     OW76651   1.474   4.081   3.424 -0.1500 -0.1778 -0.0611
21666SOL    HW176652   1.437   4.154   3.366 -1.9853 -1.5462 -0.6383
21666SOL    HW276653   1.573   4.094   3.434 -0.4014  2.2128 -0.3988
21667SOL     OW76654   6.478   1.479   3.708  0.4571 -0.7494  0.3257
21667SOL    HW176655   6.483   1.429   3.794 -2.0816  0.8452  1.4694
21667SOL    HW276656   6.385   1.514   3.696  1.9668  3.0916 -0.7576
21668SOL     OW76657   8.129   0.764   7.138  0.6412  0.4019 -0.3517
21668SOL    HW176658   8.124   0.840   7.203  3.1394  1.0651 -0.9017
21668SOL    HW276659   8.081   0.685   7.177 -0.6230  1.7551  0.9117
21669SOL     OW76660   3.860   9.654   7.466  0.0879  0.3791  0.1148
21669SOL    HW176661   3.883   9.691   7.376 -0.5356 -0.7009 -0.5098
21669SOL    HW276662   3.932   9.677   7.531 -0.0481  2.2027 -0.3720
21670SOL     OW76663   1.130   1.172   7.218 -0.3791  0.4262  0.1943
21670SOL    HW176664   1.162   1.249   7.272 -0.7406 -0.3078  1.4898
21670SOL    HW276665   1.201   1.144   7.154 -0.5944  2.3965 -0.9152
21671SOL     OW76666   8.034   3.434   7.793  0.0947  0.3410  0.6134
21671SOL    HW176667   8.060   3.403   7.702 -4.0723  1.0975 -0.9472
21671SOL    HW276668   8.070   3.526   7.809 -1.4215  1.3013 -1.3775
21672SOL     OW76669   2.191   6.329   7.018  0.4924  0.0780  0.3383
21672SOL    HW176670   2.210   6.232   7.033 -0.7460 -0.2925 -0.4033
21672SOL    HW276671   2.097   6.350   7.047 -0.3447  0.3515 -2.4374
21673SOL     OW76672   4.120   8.218   0.007 -0.1579  0.0031  0.7530
21673SOL    HW176673   4.131   8.234  -0.091 -2.0817 -1.6197  0.2264
21673SOL    HW276674   4.130   8.304   0.057  1.1232  0.7935 -0.8350
21674SOL     OW76675   0.773   1.180   6.276 -0.0157 -0.7308 -0.2219
21674SOL    HW176676   0.730   1.266   6.250 -0.9782 -1.2969 -0.5028
21674SOL    HW276677   0.763   1.113   6.203  0.5564 -1.1499  0.0740
21675SOL     OW76678   2.027   3.524   1.212  0.3048  0.1456  0.3030
21675SOL    HW176679   1.998   3.615   1.243  2.0505  0.3586  1.3705
21675SOL    HW276680   2.046   3.466   1.292  0.0631 -0.8837 -0.3781
21676SOL     OW76681   4.555   1.633   1.524  0.0991  0.8582  0.1987
21676SOL    HW176682   4.564   1.593   1.615 -0.7887 -1.1683 -0.5802
21676SOL    HW276683   4.637   1.686   1.503  0.9237  0.1833  1.6151
21677SOL     OW76684   8.714   7.562   2.379  0.6109 -0.2477 -0.1750
21677SOL    HW176685   8.731   7.580   2.282 -0.0711  0.7452 -0.1151
21677SOL    HW276686   8.763   7.628   2.435 -2.2241  1.7854  0.0362
21678SOL     OW76687   6.436   8.197   4.770  0.0250 -0.0117 -0.2270
21678SOL    HW176688   6.456   8.288   4.806 -1.6815 -0.7315  2.6934
21678SOL    HW276689   6.351   8.200   4.716  0.4267  0.2637 -0.8559
21679SOL     OW76690   0.160   7.400   1.951 -0.2072 -0.2083  0.0134
21679SOL    HW176691   0.197   7.334   1.885  2.2715  1.5544 -0.4374
21679SOL    HW276692   0.209   7.391   2.038  1.3552  2.1211 -0.5743
21680SOL     OW76693   2.651   0.634   3.136  0.0457  0.0425  0.4316
21680SOL    HW176694   2.665   0.709   3.201 -1.2081  0.2661  0.4592
21680SOL    HW276695   2.597   0.667   3.058  1.9677 -0.0877 -0.9994
21681SOL     OW76696   1.960   3.209   6.845  0.2126 -0.2369 -1.0077
21681SOL    HW176697   1.863   3.208   6.869  0.0860 -0.0831 -1.4956
21681SOL    HW276698   2.001   3.295   6.875 -0.4558  0.9246 -3.2634
21682SOL     OW76699   5.436   2.078   0.747  0.0435  0.2768  0.9201
21682SOL    HW176700   5.463   2.171   0.772 -0.4312  0.5032  0.5891
21682SOL    HW276701   5.435   2.069   0.648 -0.5630  0.1117  0.9397
21683SOL     OW76702   6.672   8.606   2.994  0.5027 -0.3658  0.4036
21683SOL    HW176703   6.632   8.535   2.935 -1.9558  1.3166 -0.0218
21683SOL    HW276704   6.666   8.577   3.090 -1.9513 -0.0931  0.3654
21684SOL     OW76705   8.612   6.350   6.253  0.1130  0.4842 -0.7483
21684SOL    HW176706   8.551   6.410   6.200  0.6573  0.7100 -1.1168
21684SOL    HW276707   8.666   6.405   6.316 -1.6310  0.0871  1.1781
21685SOL     OW76708   6.624   9.702   1.628  0.4379 -0.3609  0.6094
21685SOL    HW176709   6.676   9.744   1.703  2.0136 -1.0864 -0.0522
21685SOL    HW276710   6.625   9.764   1.549  1.7433 -1.1036  0.0347
21686SOL     OW76711   2.376   3.320   2.753 -0.5820 -0.1424 -0.3771
21686SOL    HW176712   2.396   3.229   2.715  1.2111  0.7156 -1.5439
21686SOL    HW276713   2.379   3.388   2.680  0.5834  1.2038  0.8852
21687SOL     OW76714   1.599   1.919   1.842  0.4108  0.0193 -0.2274
21687SOL    HW176715   1.591   1.867   1.757  0.7806 -1.8710  0.8726
21687SOL    HW276716   1.512   1.915   1.891  0.4593  0.4149 -0.1039
21688SOL     OW76717   7.665   3.865   3.218  0.2546  0.2556  0.1467
21688SOL    HW176718   7.594   3.833   3.281  1.9813  0.5950  2.3206
21688SOL    HW276719   7.665   3.807   3.136 -0.5543 -1.6206  1.4353
21689SOL     OW76720   1.917   3.510   6.779 -0.3855  0.1106 -0.0226
21689SOL    HW176721   1.916   3.472   6.687 -1.1582 -0.0785  0.0578
21689SOL    HW276722   1.987   3.464   6.834 -0.9008 -0.7635 -0.1016
21690SOL     OW76723   9.220   1.626   3.439  0.1960  0.3559 -0.2034
21690SOL    HW176724   9.307   1.604   3.394  0.7174  0.7242  0.5928
21690SOL    HW276725   9.144   1.600   3.380  0.7502 -3.4440  0.6283
21691SOL     OW76726   7.699   9.830   7.079 -0.6307  0.4547  0.2391
21691SOL    HW176727   7.729   9.925   7.073 -0.7774  0.6058  1.6454
21691SOL    HW276728   7.768   9.776   7.128  0.0128 -0.4249 -1.6090
21692SOL     OW76729   1.241   2.333   4.430  0.5473 -0.2514 -0.2685
21692SOL    HW176730   1.322   2.376   4.390  0.4701  0.1544  0.0053
21692SOL    HW276731   1.234   2.239   4.398  2.4697 -1.0609  1.6163
21693SOL     OW76732   4.204   1.488   4.202  0.1293  0.0801 -0.4005
21693SOL    HW176733   4.200   1.466   4.300  2.2097 -0.2697 -0.3775
21693SOL    HW276734   4.252   1.416   4.153  0.5955  1.0822 -1.4392
21694SOL     OW76735   0.082   5.649   0.396 -0.4355 -0.0425 -0.6204
21694SOL    HW176736  -0.013   5.623   0.412  0.1533 -2.4336 -0.6977
21694SOL    HW276737   0.103   5.734   0.444 -2.4894  0.2771 -0.2671
21695SOL     OW76738   1.713   6.785   6.842 -0.8271 -0.2883  0.3866
21695SOL    HW176739   1.651   6.789   6.921  0.8891 -1.6030  1.8398
21695SOL    HW276740   1.805   6.810   6.871  0.0089 -1.7131 -0.9797
21696SOL     OW76741   6.466   5.709   7.971  0.0878  0.3255  0.0288
21696SOL    HW176742   6.492   5.702   7.874 -0.0153 -1.8095  0.1229
21696SOL    HW276743   6.499   5.796   8.008  0.1504  1.1630 -1.9113
21697SOL     OW76744   0.158   7.006   4.684  0.6244  0.1198  0.3043
21697SOL    HW176745   0.189   7.059   4.763  1.8526  0.3105 -0.2880
21697SOL    HW276746   0.107   6.926   4.715 -0.9877  1.4856  1.2063
21698SOL     OW76747   9.275   8.896   0.413  0.6149  0.4103  0.3903
21698SOL    HW176748   9.239   8.803   0.404 -0.6457  0.8045  1.1938
21698SOL    HW276749   9.244   8.935   0.499 -0.9145  2.4509 -1.0573
21699SOL     OW76750   8.351   4.711   5.977  0.2979 -0.0220  0.0906
21699SOL    HW176751   8.270   4.768   5.962 -0.0534 -0.3883  0.5979
21699SOL    HW276752   8.331   4.617   5.951  0.7246 -0.0149 -0.2767
21700SOL     OW76753   5.175   2.667   1.455 -0.8958 -0.0862 -0.0821
21700SOL    HW176754   5.088   2.639   1.498  0.6886 -0.3770  3.1149
21700SOL    HW276755   5.191   2.764   1.472  0.4969 -0.5564  1.3825
21701SOL     OW76756   7.392   5.118   0.871 -0.0960 -0.6021  0.1473
21701SOL    HW176757   7.349   5.134   0.960  0.2272 -0.8844  0.3542
21701SOL    HW276758   7.382   5.200   0.814  2.4780  0.7445  1.5696
21702SOL     OW76759   1.115   0.417   5.516  0.4460  0.1005 -0.0691
21702SOL    HW176760   1.194   0.446   5.570  0.3848 -2.7044  1.6077
21702SOL    HW276761   1.055   0.360   5.571 -2.0613  1.0068 -1.7549
21703SOL     OW76762   5.765   6.912   1.626  0.2392  0.0057 -0.1049
21703SOL    HW176763   5.833   6.840   1.616  1.6880  0.5425  4.5567
21703SOL    HW276764   5.674   6.872   1.634  0.6151 -1.0523 -1.0537
21704SOL     OW76765   6.247   8.020   4.923 -1.1077 -0.6000 -0.2064
21704SOL    HW176766   6.327   8.027   4.863 -1.0557 -1.5409 -0.2469
21704SOL    HW276767   6.200   8.109   4.926 -0.2777 -0.1494 -0.4769
21705SOL     OW76768   8.723   1.475   3.452  0.5080 -0.3150 -0.2897
21705SOL    HW176769   8.645   1.474   3.515  0.4547  0.7599 -0.3220
21705SOL    HW276770   8.710   1.548   3.384  2.8443  1.7445  1.3773
21706SOL     OW76771   1.339   5.713   3.495  0.0609  0.0799  0.4632
21706SOL    HW176772   1.282   5.796   3.493  0.7285  0.5756  1.5228
21706SOL    HW276773   1.301   5.647   3.559 -0.1478 -0.1913  0.0572
21707SOL     OW76774   9.038   7.727   5.153  0.8549 -0.2116  0.2163
21707SOL    HW176775   8.970   7.676   5.205  1.9742 -1.3724  0.5684
21707SOL    HW276776   9.130   7.701   5.184  1.4561  1.8862  0.2863
21708SOL     OW76777   1.663   0.525   6.818  0.6071 -0.0419  0.4100
21708SOL    HW176778   1.715   0.450   6.859  1.3900 -1.0029 -2.2292
21708SOL    HW276779   1.674   0.523   6.718 -0.0139  3.1019  0.2089
21709SOL     OW76780   7.692   6.623   4.210 -0.3577 -0.0050  0.4157
21709SOL    HW176781   7.730   6.650   4.121 -0.1808  1.1687  0.8412
21709SOL    HW276782   7.728   6.534   4.235  0.1282 -0.0421 -0.3811
21710SOL     OW76783   9.956   4.160   0.181 -0.3207  0.6693  0.4334
21710SOL    HW176784   9.964   4.138   0.084 -0.6752 -0.5771  0.6742
21710SOL    HW276785  10.045   4.190   0.217  0.0842 -0.0048 -0.0043
21711SOL     OW76786   1.561   9.127   7.438  0.0103  0.1221 -0.0735
21711SOL    HW176787   1.467   9.095   7.448 -0.2676  1.0581  0.4038
21711SOL    HW276788   1.591   9.169   7.524  1.1707 -0.9589  0.0511
21712SOL     OW76789   3.380   3.516   6.373  0.0227 -0.0378  0.3239
21712SOL    HW176790   3.351   3.540   6.465 -1.1890 -2.3927  0.6014
21712SOL    HW276791   3.318   3.558   6.306 -3.3429 -3.7441  0.8621
21713SOL     OW76792   9.382   2.971   6.616 -0.2967  0.1170 -0.4601
21713SOL    HW176793   9.468   2.932   6.585  0.9538  0.8462  1.9172
21713SOL    HW276794   9.324   2.898   6.653  1.1689  0.1446  2.0271
21714SOL     OW76795   7.780   9.979   0.756  0.1599  0.3208  0.1575
21714SOL    HW176796   7.871   9.948   0.727 -0.0484  0.7817 -1.0277
21714SOL    HW276797   7.789  10.066   0.804  0.0808  1.8749 -2.5492
21715SOL     OW76798   8.732   2.024   5.025 -0.0457 -0.1695  0.2131
21715SOL    HW176799   8.779   2.015   5.113  1.1051 -1.6123 -0.5200
21715SOL    HW276800   8.716   2.121   5.005 -1.3380  0.1413  2.5178
21716SOL     OW76801   9.928   3.881   0.515 -0.4680  0.1497  0.6123
21716SOL    HW176802   9.977   3.874   0.428  1.4357  1.3505  1.5456
21716SOL    HW276803   9.955   3.805   0.575 -1.0626 -0.1433  0.5169
21717SOL     OW76804   0.861   3.261   3.937  0.1519  0.2757  0.1723
21717SOL    HW176805   0.860   3.216   4.027 -1.0505  1.7391  0.9020
21717SOL    HW276806   0.912   3.204   3.873  0.5932 -1.0420  1.6487
21718SOL     OW76807   2.813   0.825   2.076 -0.3112  0.0621  0.0796
21718SOL    HW176808   2.779   0.909   2.118 -0.8339 -0.1464  0.0762
21718SOL    HW276809   2.863   0.771   2.143  1.1310  0.9788 -0.2366
21719SOL     OW76810   8.880   1.703   2.865  0.1361  0.1619  0.0815
21719SOL    HW176811   8.813   1.748   2.806 -1.4347 -0.6378  1.2328
21719SOL    HW276812   8.952   1.768   2.890  0.0014  0.9213 -1.4610
21720SOL     OW76813   3.801   5.622   6.604 -0.0498  0.9286  1.0204
21720SOL    HW176814   3.701   5.628   6.601 -0.1880 -1.0071  0.7886
21720SOL    HW276815   3.833   5.642   6.697 -0.7893  0.0477  1.4736
21721SOL     OW76816   3.457   4.671   3.797 -0.2835 -0.3451 -0.1128
21721SOL    HW176817   3.493   4.630   3.881 -0.2233 -0.5206 -0.2228
21721SOL    HW276818   3.533   4.702   3.739 -0.1263 -3.7856 -1.8965
21722SOL     OW76819   4.076   1.197   2.360 -0.3857  0.0326  0.2545
21722SOL    HW176820   4.103   1.209   2.456 -1.2570 -0.7700  0.6132
21722SOL    HW276821   4.091   1.102   2.332  1.6595  0.7009 -1.0004
21723SOL     OW76822   8.717   7.283   2.468  0.1152 -0.1921 -0.5990
21723SOL    HW176823   8.704   7.377   2.437 -1.7660 -0.1453  0.3073
21723SOL    HW276824   8.725   7.222   2.389  0.7011  0.6261 -1.1777
21724SOL     OW76825   2.901   2.491   6.780  0.6741 -0.0150  0.6580
21724SOL    HW176826   2.810   2.533   6.771 -0.0098 -0.9250  2.9105
21724SOL    HW276827   2.949   2.497   6.693 -2.1949 -1.0512 -1.0678
21725SOL     OW76828   9.578   9.120   5.726 -0.3007  0.7244  0.1184
21725SOL    HW176829   9.626   9.034   5.708 -1.2956  0.1713  0.0231
21725SOL    HW276830   9.644   9.194   5.735  0.5433  0.0347 -0.2919
21726SOL     OW76831   1.805   8.484   1.433  0.1079  0.4751  0.0426
21726SOL    HW176832   1.858   8.527   1.506  0.5583 -0.5860  0.3379
21726SOL    HW276833   1.771   8.395   1.464  0.9562 -0.3365 -1.3057
21727SOL     OW76834   4.739   1.630   0.717 -0.4464 -0.2495  0.3675
21727SOL    HW176835   4.665   1.562   0.712 -0.4303 -0.1286 -1.5975
21727SOL    HW276836   4.825   1.584   0.739 -0.6135 -0.7366  0.0106
21728SOL     OW76837   0.547   4.974   4.562 -0.1539 -0.5471  0.4055
21728SOL    HW176838   0.505   5.030   4.491 -0.0934 -1.3713 -0.2934
21728SOL    HW276839   0.646   4.970   4.547 -0.2213 -1.2943  0.1079
21729SOL     OW76840   2.742   9.538   5.989  0.0308 -0.2956  0.0461
21729SOL    HW176841   2.674   9.547   6.061  0.1107 -0.3126  0.1243
21729SOL    HW276842   2.750   9.441   5.963 -0.0347 -0.2836 -0.0196
21730SOL     OW76843   0.795   9.094   7.530 -0.1314  1.0182  0.0965
21730SOL    HW176844   0.786   9.151   7.448  0.3115  0.6949 -0.1815
21730SOL    HW276845   0.846   9.143   7.599  1.6406  0.3747 -0.7209
21731SOL     OW76846   5.265   9.628   0.996 -0.4074 -0.2236  0.2449
21731SOL    HW176847   5.236   9.541   1.036  1.5000 -0.5185  1.0532
21731SOL    HW276848   5.320   9.611   0.915  2.2911  0.0828  1.9396
21732SOL     OW76849   4.763   1.821   3.636  0.4898 -0.0488  0.1505
21732SOL    HW176850   4.680   1.766   3.629 -0.4502  1.1740  1.5474
21732SOL    HW276851   4.788   1.832   3.732  0.3479  2.4003 -0.0688
21733SOL     OW76852   4.297   5.399   0.004 -0.1837 -0.3734  0.7810
21733SOL    HW176853   4.319   5.364  -0.087 -0.6063 -0.8092  0.8399
21733SOL    HW276854   4.371   5.457   0.037  0.1151 -0.4771  0.2954
21734SOL     OW76855   1.804   4.548   5.180  0.3435 -0.0454  0.1446
21734SOL    HW176856   1.783   4.454   5.208  0.8556 -0.4005 -0.6727
21734SOL    HW276857   1.844   4.548   5.089  2.2310  0.7800  0.9439
21735SOL     OW76858   1.302   4.002   2.567 -0.4553  0.2801 -0.5171
21735SOL    HW176859   1.347   3.932   2.622 -0.6609 -1.1646 -2.1588
21735SOL    HW276860   1.203   3.992   2.574 -0.4841  0.1021 -1.1076
21736SOL     OW76861   5.727   7.754   3.943  0.0904 -0.3177  0.1043
21736SOL    HW176862   5.680   7.667   3.956 -0.4790 -0.2944 -1.6703
21736SOL    HW276863   5.660   7.828   3.939  0.5674  0.2226  1.5698
21737SOL     OW76864   8.717   0.348   5.994 -0.2854 -0.3678  0.1510
21737SOL    HW176865   8.763   0.325   6.080  0.1918 -0.0628 -0.0238
21737SOL    HW276866   8.660   0.271   5.965 -0.0549 -0.6619  0.4782
21738SOL     OW76867   5.717   0.030   1.066  0.0061 -0.1788  0.7519
21738SOL    HW176868   5.662   0.108   1.098  0.6053  0.0087  1.3328
21738SOL    HW276869   5.682   0.000   0.977 -0.9447  0.0326  1.0385
21739SOL     OW76870   0.195   4.576   0.083 -0.3823 -0.4538 -0.0203
21739SOL    HW176871   0.119   4.531   0.129  0.7748 -0.8966  1.5164
21739SOL    HW276872   0.238   4.513   0.019 -1.0938 -0.3052 -0.6520
21740SOL     OW76873   6.612   3.724   0.488 -0.0529  0.2109  0.4546
21740SOL    HW176874   6.646   3.780   0.412 -2.7473 -0.1264 -1.0506
21740SOL    HW276875   6.662   3.638   0.490  1.5919  1.1426  0.4941
21741SOL     OW76876   8.066   9.861   1.250 -0.2623 -0.0264 -0.2291
21741SOL    HW176877   8.158   9.860   1.210 -0.3763 -0.5836 -0.4760
21741SOL    HW276878   8.000   9.828   1.183  0.0005 -4.3085  1.5015
21742SOL     OW76879   9.243   7.224   7.943  0.1350  0.7963 -0.1295
21742SOL    HW176880   9.307   7.298   7.922 -1.8961  1.9297 -2.6478
21742SOL    HW276881   9.252   7.199   8.039  0.6213  4.6154  0.9257
21743SOL     OW76882   8.710   5.369   1.122  0.4239  0.4207 -0.2422
21743SOL    HW176883   8.751   5.330   1.040  0.0583  0.3316 -0.3844
21743SOL    HW276884   8.616   5.397   1.102 -0.5447 -1.9183  0.7753
21744SOL     OW76885   9.320   2.694   2.368 -0.4883  0.4568  0.8074
21744SOL    HW176886   9.279   2.704   2.277  0.3178  3.0032  0.6863
21744SOL    HW276887   9.261   2.738   2.436  0.5818  1.5857  1.0274
21745SOL     OW76888   6.016   1.841   0.164  0.3111 -0.3217  0.4088
21745SOL    HW176889   5.960   1.907   0.215  0.2949 -0.4049  0.4962
21745SOL    HW276890   5.999   1.854   0.066  0.3226 -0.1820  0.4250
21746SOL     OW76891   2.625   5.938   2.314 -0.2678 -0.0875  0.0865
21746SOL    HW176892   2.697   5.994   2.355  0.2111 -0.2909 -0.4596
21746SOL    HW276893   2.579   5.990   2.242 -1.1621  0.2986  0.9155
21747SOL     OW76894   1.924   3.481   3.413  0.2433  0.5237 -0.0570
21747SOL    HW176895   2.009   3.428   3.413  0.9607  1.6687  0.1556
21747SOL    HW276896   1.900   3.503   3.319 -0.5761 -0.9784 -0.2230
21748SOL     OW76897   0.344   0.538   4.180  0.6481 -0.0096 -0.1743
21748SOL    HW176898   0.414   0.532   4.110  1.8204 -0.6237  1.0250
21748SOL    HW276899   0.370   0.607   4.248 -0.0838  0.0293  0.0704
21749SOL     OW76900   1.615   1.816   0.374 -0.0607 -0.2265  0.0168
21749SOL    HW176901   1.705   1.843   0.410 -0.1894 -3.3172  2.8453
21749SOL    HW276902   1.626   1.743   0.307 -0.4830 -1.2223  1.0123
21750SOL     OW76903   8.687   3.378   1.792  0.1108 -0.5013 -0.5844
21750SOL    HW176904   8.784   3.399   1.795  0.3644 -1.7126 -0.0220
21750SOL    HW276905   8.634   3.462   1.806  1.0501  0.3387 -1.9708
21751SOL     OW76906   4.694   7.882   1.788  0.3206 -0.1407  0.2978
21751SOL    HW176907   4.783   7.896   1.745  0.1284 -0.6843 -0.2800
21751SOL    HW276908   4.700   7.905   1.885  1.1440 -0.3800  0.3042
21752SOL     OW76909   4.098   6.440   3.300 -0.6330 -0.0943  0.3008
21752SOL    HW176910   4.125   6.377   3.227  0.6539  1.0103 -0.2038
21752SOL    HW276911   4.077   6.529   3.261  0.5725  0.6563  1.3318
21753SOL     OW76912   2.010   3.896   3.632  0.1507  0.4711  0.5974
21753SOL    HW176913   2.006   3.908   3.732  1.9729 -0.3691  0.7895
21753SOL    HW276914   1.955   3.817   3.606 -0.3463  0.7032  0.9477
21754SOL     OW76915   7.389   5.757   1.012 -0.5553 -0.4357 -0.2021
21754SOL    HW176916   7.409   5.764   0.914 -0.8742 -1.8266 -0.3763
21754SOL    HW276917   7.428   5.672   1.048 -0.0207  0.2997  0.9903
21755SOL     OW76918   3.368   0.134   1.727  0.6670  0.0357 -0.6707
21755SOL    HW176919   3.356   0.122   1.629  1.4932  0.2947 -0.8120
21755SOL    HW276920   3.433   0.065   1.761  1.4372  0.8110 -0.5592
21756SOL     OW76921   0.625   6.081   5.171 -0.0213  0.4889 -0.3344
21756SOL    HW176922   0.598   6.167   5.214  1.7540  0.9833 -0.2018
21756SOL    HW276923   0.608   6.086   5.073 -2.1907  0.0849 -0.0173
21757SOL     OW76924   1.522   5.318   3.045 -0.2940  0.4104  0.0983
21757SOL    HW176925   1.471   5.285   2.966 -2.0740  0.9383  1.0192
21757SOL    HW276926   1.529   5.418   3.041  0.2236  0.3856  0.2654
21758SOL     OW76927   9.589   4.721   1.153  0.0512 -0.0104 -0.1403
21758SOL    HW176928   9.642   4.806   1.152 -1.1765  0.7754  0.1505
21758SOL    HW276929   9.549   4.707   1.243 -1.4147  0.1761 -0.7314
21759SOL     OW76930   9.410   9.904   2.325  0.2854 -0.0884 -0.3825
21759SOL    HW176931   9.404   9.953   2.412 -0.3798  0.1283 -0.5507
21759SOL    HW276932   9.343   9.830   2.323 -0.5191  0.6482 -1.1774
21760SOL     OW76933   9.989   6.236   3.160 -0.3869  0.1506  0.0312
21760SOL    HW176934  10.046   6.162   3.196  1.2242  1.8980  1.1541
21760SOL    HW276935  10.026   6.268   3.073 -1.0473 -0.3209 -0.4255
21761SOL     OW76936   2.988   5.522   4.814 -0.3437  0.3997 -0.6258
21761SOL    HW176937   3.021   5.524   4.720  0.7662  0.6238 -0.2271
21761SOL    HW276938   2.986   5.615   4.851 -1.5377  0.4107 -0.6818
21762SOL     OW76939   7.687   3.694   0.820  0.0082  0.3188  0.3644
21762SOL    HW176940   7.647   3.767   0.764 -1.3603 -0.2283  0.6120
21762SOL    HW276941   7.713   3.731   0.909 -0.1527  0.6238  0.2848
21763SOL     OW76942   7.594   3.433   1.512 -0.2354 -0.3448  0.7230
21763SOL    HW176943   7.638   3.399   1.596  3.7177 -0.8231 -1.4085
21763SOL    HW276944   7.603   3.532   1.507  1.3777 -0.5011 -0.0332
21764SOL     OW76945   3.359   4.881   6.055 -0.4090 -0.0928 -0.0081
21764SOL    HW176946   3.418   4.800   6.052 -0.5846 -0.2794  1.1232
21764SOL    HW276947   3.269   4.855   6.090 -0.0681  0.8184  1.5938
21765SOL     OW76948   1.260   1.180   4.565 -0.4343 -0.4982  0.1296
21765SOL    HW176949   1.353   1.210   4.587 -0.3252 -0.4617 -0.3820
21765SOL    HW276950   1.197   1.257   4.571 -0.6382 -0.7701  1.6777
21766SOL     OW76951   9.554   1.719   4.129  0.3163 -0.1936  0.4582
21766SOL    HW176952   9.640   1.770   4.124  0.2339 -0.0749  0.2220
21766SOL    HW276953   9.479   1.778   4.100  0.0148  0.0273  1.6692
21767SOL     OW76954   1.352   0.907   7.531 -0.3877 -0.1611 -0.2506
21767SOL    HW176955   1.330   0.917   7.628  0.7000 -1.3854  0.1386
21767SOL    HW276956   1.359   0.998   7.489  0.6048  0.4323  1.1567
21768SOL     OW76957   2.973   2.337   7.811 -0.2651 -0.4314 -0.1350
21768SOL    HW176958   3.059   2.306   7.853 -0.4222  1.6681  1.8531
21768SOL    HW276959   2.897   2.287   7.852 -0.2870  0.4213  0.8646
21769SOL     OW76960   4.401   9.832   2.681  0.1708  0.1968 -0.2601
21769SOL    HW176961   4.473   9.848   2.749 -1.3254  0.7751  1.2220
21769SOL    HW276962   4.405   9.903   2.611  0.0172  1.1961  0.7250
21770SOL     OW76963   9.931   5.176   5.112  0.1274 -1.0667 -0.1692
21770SOL    HW176964   9.839   5.157   5.148 -0.4051  1.3311 -0.1638
21770SOL    HW276965   9.999   5.140   5.175 -0.8232 -0.4016  1.2836
21771SOL     OW76966   6.475   0.958   5.066  0.1914  0.2234  0.3025
21771SOL    HW176967   6.463   0.985   5.161  0.9752 -0.1218  0.5003
21771SOL    HW276968   6.462   0.859   5.057  1.2907  0.0747  0.2562
21772SOL     OW76969   2.285   0.514   7.684 -0.0716  0.5382  0.3135
21772SOL    HW176970   2.251   0.497   7.776 -0.4384  1.1871  0.2960
21772SOL    HW276971   2.246   0.598   7.648 -0.9168 -0.3682 -0.9286
21773SOL     OW76972   8.477   7.394   2.118  0.7384  0.3674  0.6510
21773SOL    HW176973   8.454   7.474   2.174 -0.7397 -0.3159  1.0404
21773SOL    HW276974   8.452   7.310   2.168 -1.4839 -0.2403 -1.3815
21774SOL     OW76975   4.590   0.259   1.716  0.2193 -0.3854  0.1589
21774SOL    HW176976   4.670   0.300   1.761  0.0588  0.8779 -0.7024
21774SOL    HW276977   4.507   0.305   1.747 -0.0824 -0.9578  0.2028
21775SOL     OW76978   2.248   2.150   4.972 -0.1980 -1.1118 -0.3607
21775SOL    HW176979   2.238   2.162   4.873  2.5687 -0.1691 -0.5809
21775SOL    HW276980   2.277   2.236   5.014 -0.1509 -1.8187  1.1018
21776SOL     OW76981   7.190   9.639   2.303  0.2612 -0.2519  0.2172
21776SOL    HW176982   7.138   9.694   2.239  0.1563  0.8784  1.2490
21776SOL    HW276983   7.268   9.597   2.256  0.2666  0.6744 -0.6198
21777SOL     OW76984   6.615   3.667   1.984 -0.0526  0.5732  0.3526
21777SOL    HW176985   6.707   3.689   2.018  0.1190  0.3077  0.0647
21777SOL    HW276986   6.558   3.749   1.987  0.2205  0.7604  0.4554
21778SOL     OW76987   1.424   7.588   0.959  0.2617 -0.1052  0.1619
21778SOL    HW176988   1.458   7.675   0.922  2.0918 -0.2399  1.4414
21778SOL    HW276989   1.502   7.529   0.982 -0.9473 -1.7398  0.1322
21779SOL     OW76990   5.689   7.587   6.228  0.3219 -0.2060  0.4748
21779SOL    HW176991   5.710   7.661   6.291 -0.6900 -1.0637  1.8719
21779SOL    HW276992   5.748   7.593   6.148 -1.3044  3.4462 -0.5560
21780SOL     OW76993   1.289   3.662   2.381  0.8410  0.2723  0.6319
21780SOL    HW176994   1.387   3.675   2.395  1.3732 -0.9045 -1.7011
21780SOL    HW276995   1.261   3.708   2.296 -0.9234  1.7648  1.9862
21781SOL     OW76996   3.588   1.669   3.476  0.1846 -0.7481 -0.1853
21781SOL    HW176997   3.683   1.698   3.492 -0.0751 -0.2263  0.4473
21781SOL    HW276998   3.585   1.569   3.469  0.5344 -0.9051  1.6178
21782SOL     OW76999   0.846   0.114   7.443  0.6327  0.2418 -0.6768
21782SOL    HW177000   0.900   0.060   7.508  0.3592  0.7391 -0.0242
21782SOL    HW277001   0.894   0.200   7.423 -0.1328  0.9057  0.2849
21783SOL     OW77002   0.656   4.414   0.320  0.6431  0.0444  0.3921
21783SOL    HW177003   0.714   4.400   0.400  0.6591 -2.4983  0.0053
21783SOL    HW277004   0.569   4.367   0.334  0.4668 -0.0280 -0.8706
21784SOL     OW77005   9.764   7.934   1.265  0.0076 -0.4987 -0.3806
21784SOL    HW177006   9.717   8.014   1.302 -0.5005 -1.6021  1.4358
21784SOL    HW277007   9.861   7.955   1.253 -0.0142  0.2197  0.6244
21785SOL     OW77008   2.114   9.643   8.089 -0.0785 -0.2537  0.2868
21785SOL    HW177009   2.123   9.672   8.184 -1.6344 -1.4671  0.8350
21785SOL    HW277010   2.139   9.546   8.081 -0.3122 -0.2574 -0.4766
21786SOL     OW77011   2.031   3.802   0.179  0.1209  0.0339 -0.0035
21786SOL    HW177012   1.949   3.746   0.184 -0.3768  0.9100  1.8085
21786SOL    HW277013   2.111   3.743   0.173 -0.5294 -0.8358 -0.2147
21787SOL     OW77014   8.141   8.121   4.123  0.7007  0.2872  0.3164
21787SOL    HW177015   8.231   8.123   4.165  0.3897  1.7447  0.9205
21787SOL    HW277016   8.096   8.209   4.135 -0.6200 -0.2738 -0.3935
21788SOL     OW77017   4.439   0.822   5.535 -0.6355 -0.0397  0.6913
21788SOL    HW177018   4.402   0.874   5.458 -2.8506 -1.3717  0.8118
21788SOL    HW277019   4.381   0.836   5.615  0.1887 -0.6986  1.4041
21789SOL     OW77020   9.519   2.694   7.601  0.1643  0.3677  0.1706
21789SOL    HW177021   9.464   2.639   7.663  0.4491 -1.8913 -1.5217
21789SOL    HW277022   9.475   2.783   7.586 -1.7555 -0.4789  0.7203
21790SOL     OW77023   6.646   0.299   3.023  0.3147  0.2046 -0.2028
21790SOL    HW177024   6.693   0.263   2.942  0.6434  0.5696 -0.1765
21790SOL    HW277025   6.685   0.388   3.047  0.9800 -0.4056  1.0297
21791SOL     OW77026   8.828   8.086   0.576 -0.1060  0.2230 -0.5560
21791SOL    HW177027   8.819   8.128   0.667 -1.0653  1.3798 -1.1720
21791SOL    HW277028   8.867   8.151   0.512 -0.1129 -0.3477 -1.1484
21792SOL     OW77029   2.171   4.929   5.945 -0.0078 -0.7719 -0.0899
21792SOL    HW177030   2.235   4.991   5.991  0.0794 -0.9428  0.0205
21792SOL    HW277031   2.173   4.947   5.846 -0.2229 -0.3795 -0.0234
21793SOL     OW77032   2.766   9.914   7.620 -0.4474 -0.1581  0.9362
21793SOL    HW177033   2.754   9.815   7.622  0.2909 -0.2733 -0.0951
21793SOL    HW277034   2.845   9.937   7.563 -0.2638  0.9934  1.6413
21794SOL     OW77035   4.166   8.845   7.362  0.4004  0.1682 -0.4839
21794SOL    HW177036   4.079   8.843   7.413  0.8818 -1.2171  0.3123
21794SOL    HW277037   4.179   8.757   7.317  1.3729  0.3976 -0.6420
21795SOL     OW77038   1.258   5.512   7.171 -0.4779 -0.2089 -0.1786
21795SOL    HW177039   1.208   5.498   7.256 -3.1859  1.6673 -1.3812
21795SOL    HW277040   1.288   5.607   7.165  0.5153 -0.5614 -0.8974
21796SOL     OW77041   1.224   2.398   0.656  0.1091  0.2246 -0.2174
21796SOL    HW177042   1.260   2.304   0.654 -1.1502 -0.2818  0.4376
21796SOL    HW277043   1.251   2.446   0.573  1.9869 -0.2557  0.0885
21797SOL     OW77044   4.007   9.970   6.894  0.0382 -0.2977  0.1270
21797SOL    HW177045   4.010   9.972   6.994 -0.8943 -1.3175  0.1876
21797SOL    HW277046   4.092   9.932   6.858 -0.1822 -1.2577  0.5947
21798SOL     OW77047   5.644   2.519   3.765  0.1065 -0.0987  0.4823
21798SOL    HW177048   5.561   2.515   3.821 -1.2080  2.3405 -1.1915
21798SOL    HW277049   5.658   2.431   3.720 -1.4293 -0.6208  0.9805
21799SOL     OW77050   2.225   5.733   3.730 -0.1601  1.0905 -0.3051
21799SOL    HW177051   2.315   5.767   3.704  0.2139 -0.7726 -1.5105
21799SOL    HW277052   2.176   5.703   3.648 -0.1125 -2.1139  0.8098
21800SOL     OW77053   5.238   5.893   8.094 -0.0044 -0.3409  0.0750
21800SOL    HW177054   5.329   5.890   8.137  0.3857  0.3412 -0.6838
21800SOL    HW277055   5.186   5.968   8.135  0.5148  0.5729 -0.9112
21801SOL     OW77056   4.767   3.586   5.009  0.3954  0.1258  0.4401
21801SOL    HW177057   4.690   3.650   5.014  1.0410  0.8766  0.7900
21801SOL    HW277058   4.830   3.615   4.938 -1.3308 -2.3768 -2.2197
21802SOL     OW77059   9.239   8.490   0.105  0.1846  0.7217  0.6162
21802SOL    HW177060   9.220   8.458   0.198 -0.1734  0.9964  0.6396
21802SOL    HW277061   9.329   8.534   0.101  0.8226 -0.5667  0.5166
21803SOL     OW77062   1.865   0.085   3.797 -0.1718 -0.0184  0.0003
21803SOL    HW177063   1.852   0.182   3.781  1.0307  0.2607  0.6668
21803SOL    HW277064   1.963   0.063   3.792 -0.4472 -1.2238 -0.3606
21804SOL     OW77065   9.731   1.089   1.709 -0.2189  0.2741  0.4793
21804SOL    HW177066   9.807   1.154   1.710  0.7386 -0.8180 -0.3015
21804SOL    HW277067   9.701   1.072   1.803  0.3067  0.9205  0.7679
21805SOL     OW77068   2.276   0.155   2.085  0.2340 -0.0709 -0.5689
21805SOL    HW177069   2.225   0.148   2.000 -1.8585  0.0306  0.6553
21805SOL    HW277070   2.297   0.251   2.103 -1.7833  0.2145  0.4183
21806SOL     OW77071   1.883   1.609   1.571 -0.5413 -0.1381 -0.5053
21806SOL    HW177072   1.926   1.690   1.611 -0.0279 -0.4353 -0.4466
21806SOL    HW277073   1.856   1.546   1.644 -2.2394  0.6184 -0.4725
21807SOL     OW77074   9.718   3.677   1.832  0.5162 -0.1159 -0.4710
21807SOL    HW177075   9.669   3.590   1.830  0.6278 -0.1646 -1.0363
21807SOL    HW277076   9.799   3.668   1.891  0.9655 -0.6279 -1.1696
21808SOL     OW77077   2.836   1.896   5.187 -0.3715 -0.5709 -0.3699
21808SOL    HW177078   2.736   1.894   5.179 -0.3062  0.3704 -1.4695
21808SOL    HW277079   2.861   1.917   5.281 -1.2129  0.2858 -0.3323
21809SOL     OW77080   9.525   5.629   7.824 -0.1221 -0.6179 -0.3775
21809SOL    HW177081   9.604   5.614   7.882  0.6264 -2.8879 -1.9134
21809SOL    HW277082   9.490   5.541   7.791 -2.1314  0.4559 -1.2441
21810SOL     OW77083   3.874   7.940   6.380  0.5897 -0.1532 -0.4171
21810SOL    HW177084   3.870   8.025   6.327  1.7329 -1.4433 -2.6374
21810SOL    HW277085   3.882   7.862   6.318  3.8367 -1.5877  1.6736
21811SOL     OW77086   5.113   8.976   1.941 -0.1194  0.0648  0.1236
21811SOL    HW177087   5.163   8.988   1.855  2.5477  0.5854  1.6926
21811SOL    HW277088   5.105   9.065   1.988 -1.7224 -0.1785  0.3456
21812SOL     OW77089   7.654   1.587   5.956 -0.2436 -0.0756 -0.0301
21812SOL    HW177090   7.561   1.573   5.988  0.0337 -0.0331  0.7951
21812SOL    HW277091   7.693   1.668   5.999 -0.4805  1.0367 -1.8318
21813SOL     OW77092   0.592   2.123   5.870 -0.7374  0.4246 -0.1203
21813SOL    HW177093   0.619   2.036   5.911 -0.3212 -0.3110 -1.9330
21813SOL    HW277094   0.494   2.137   5.882 -0.3950  0.9289  2.4107
21814SOL     OW77095   7.036   2.328   1.224  0.1180 -0.1452  0.3896
21814SOL    HW177096   6.994   2.268   1.291  0.4422 -2.3143 -1.2656
21814SOL    HW277097   7.129   2.295   1.204  0.1823  0.7141 -0.7846
21815SOL     OW77098   9.000   2.845   4.774  0.2456 -0.0197 -0.1839
21815SOL    HW177099   9.089   2.888   4.757  0.0011  2.4401  3.9501
21815SOL    HW277100   8.936   2.874   4.703  1.2918  2.8885 -0.0227
21816SOL     OW77101   2.711   0.889   8.207  0.3728  0.1218 -0.3874
21816SOL    HW177102   2.670   0.798   8.213 -1.0583  0.6691 -1.5044
21816SOL    HW277103   2.783   0.898   8.276 -1.0921 -1.0222  1.3280
21817SOL     OW77104   9.318   4.138   3.768 -0.5334  0.1034  0.4854
21817SOL    HW177105   9.402   4.183   3.738 -2.3648  2.4353 -1.4277
21817SOL    HW277106   9.329   4.039   3.762  1.0439  0.4044 -2.9001
21818SOL     OW77107   0.360   7.550   8.094 -0.1192  0.0950 -0.4641
21818SOL    HW177108   0.453   7.512   8.094 -0.4760 -0.8636  2.1261
21818SOL    HW277109   0.308   7.509   8.019  1.1189 -0.4794 -1.0300
21819SOL     OW77110   0.747   5.698   5.278  0.5617  0.3581 -0.0037
21819SOL    HW177111   0.753   5.601   5.301  0.5563  0.6922  1.4793
21819SOL    HW277112   0.668   5.738   5.324  1.1590  1.2793  0.2422
21820SOL     OW77113   9.142   5.579   4.303  0.2521 -0.2309  0.1830
21820SOL    HW177114   9.079   5.528   4.243  0.4095  0.3473 -0.4821
21820SOL    HW277115   9.101   5.666   4.328  1.3922  0.8388 -1.5115
21821SOL     OW77116   1.205   8.979   3.115 -0.9725  0.4153  0.1967
21821SOL    HW177117   1.113   8.940   3.106 -0.3270 -0.9033 -0.7522
21821SOL    HW277118   1.197   9.078   3.126 -2.4799  0.4462 -0.9584
21822SOL     OW77119   8.711   5.755   3.478 -0.0935 -0.1728 -0.3408
21822SOL    HW177120   8.638   5.794   3.536 -0.8292 -0.9387 -0.7513
21822SOL    HW277121   8.713   5.656   3.490 -0.4616 -0.3711 -1.8760
21823SOL     OW77122   5.506   1.866   3.857 -0.1467 -0.2279 -0.0658
21823SOL    HW177123   5.443   1.919   3.914 -1.2328  0.4506 -1.8658
21823SOL    HW277124   5.467   1.776   3.839 -0.3376 -0.0233 -0.6874
21824SOL     OW77125   5.362   7.455   3.260  0.2898  0.3569 -0.2872
21824SOL    HW177126   5.293   7.446   3.333  0.3398 -1.4555 -0.4239
21824SOL    HW277127   5.453   7.439   3.299  0.5696  1.9746 -0.2586
21825SOL     OW77128   9.314   7.370   7.061 -0.4381  0.0294  0.3350
21825SOL    HW177129   9.357   7.399   7.147  1.6804 -2.8476  0.3229
21825SOL    HW277130   9.372   7.397   6.984 -0.5569 -0.5008  0.0585
21826SOL     OW77131   3.420   8.098   0.360 -0.5563  0.7845  0.0399
21826SOL    HW177132   3.448   8.008   0.394 -2.3218 -0.3309 -1.3255
21826SOL    HW277133   3.484   8.168   0.391  1.7579 -1.1787 -0.2333
21827SOL     OW77134   4.802   9.118   2.085  0.2116 -0.0004 -0.6308
21827SOL    HW177135   4.764   9.078   2.001  2.0542 -0.3607 -1.3271
21827SOL    HW277136   4.861   9.196   2.062  0.0556  0.4284  0.3928
21828SOL     OW77137   3.207   4.215   3.375  0.3171  0.2770 -0.1427
21828SOL    HW177138   3.270   4.291   3.391  0.4784  0.4630 -1.6153
21828SOL    HW277139   3.154   4.233   3.293 -0.7433 -0.4944  0.3630
21829SOL     OW77140   8.855   4.251   0.288  0.6002  0.3021  0.0842
21829SOL    HW177141   8.764   4.258   0.328  0.9559 -2.1991  1.4317
21829SOL    HW277142   8.924   4.273   0.356  1.1052 -1.1964  0.0805
21830SOL     OW77143   1.698   6.370   1.247  0.0076  0.2874 -0.0501
21830SOL    HW177144   1.618   6.325   1.207 -0.9132  0.4732  1.5198
21830SOL    HW277145   1.669   6.457   1.288  1.2749  1.0209 -0.6933
21831SOL     OW77146   6.734   8.300   2.599 -0.6067 -0.2165  0.5513
21831SOL    HW177147   6.820   8.350   2.586 -0.6092 -0.4192 -0.2950
21831SOL    HW277148   6.694   8.326   2.687  0.8741 -0.9497  1.4713
21832SOL     OW77149   9.585   4.255   1.958 -0.3807  0.0378  0.0647
21832SOL    HW177150   9.584   4.338   1.903 -0.5394 -0.1278 -0.1834
21832SOL    HW277151   9.557   4.177   1.901  0.7655 -0.3559  0.0063
21833SOL     OW77152   0.311   9.826   0.463 -0.0080 -0.3070  0.3773
21833SOL    HW177153   0.389   9.769   0.441 -0.5700 -1.0608  0.3312
21833SOL    HW277154   0.341   9.905   0.516  0.9793  0.1119 -0.7802
21834SOL     OW77155   5.832   8.767   5.507  0.4550 -0.0686  0.2577
21834SOL    HW177156   5.757   8.766   5.574  0.4367 -0.1007  0.2367
21834SOL    HW277157   5.812   8.836   5.436  0.8178  0.4681  0.6761
21835SOL     OW77158   8.636   3.951   0.517  0.1475  0.1059  0.1968
21835SOL    HW177159   8.654   3.875   0.580 -0.3694  0.0775  0.3174
21835SOL    HW277160   8.542   3.983   0.530  0.7851  1.6458  1.0827
21836SOL     OW77161   8.472   4.139   7.826  0.1531 -0.0592  0.1679
21836SOL    HW177162   8.467   4.129   7.925 -0.8062 -1.0522  0.0341
21836SOL    HW277163   8.515   4.226   7.803  0.9405 -0.0971  1.4489
21837SOL     OW77164   7.629   4.064   1.139  0.1426 -0.2916 -0.4411
21837SOL    HW177165   7.622   4.130   1.065 -0.7659  0.6570  0.4690
21837SOL    HW277166   7.689   4.101   1.211 -0.6997 -0.2689  0.2593
21838SOL     OW77167   7.264   8.651   5.535  0.2793  0.0182 -0.1447
21838SOL    HW177168   7.268   8.666   5.634  0.0897  0.2943 -0.1777
21838SOL    HW277169   7.254   8.553   5.517  0.5178 -0.0550  0.1019
21839SOL     OW77170   1.432   2.162   4.956  0.0680 -0.3895 -0.3847
21839SOL    HW177171   1.473   2.125   4.872  0.6714  0.0955 -0.2996
21839SOL    HW277172   1.381   2.245   4.934 -0.4487 -0.7108 -0.4051
21840SOL     OW77173   8.975   1.967   3.855  0.4005  0.2093 -0.3817
21840SOL    HW177174   8.984   1.884   3.800 -2.2796 -0.3617 -0.0398
21840SOL    HW277175   8.932   2.039   3.800 -0.4704  0.2573  0.3463
21841SOL     OW77176   3.581   7.475   3.186  0.5990 -0.4469 -0.3535
21841SOL    HW177177   3.675   7.488   3.155  0.3595  1.2147 -0.4542
21841SOL    HW277178   3.523   7.452   3.108  0.6028  0.3842 -0.6117
21842SOL     OW77179   8.473   1.844   3.731 -0.3792 -0.1938 -0.8042
21842SOL    HW177180   8.418   1.892   3.798  0.2499  0.8651 -1.0255
21842SOL    HW277181   8.484   1.901   3.649  0.4795 -0.6599 -1.0256
21843SOL     OW77182   6.204   6.830   1.281  0.6456 -0.4920  0.4804
21843SOL    HW177183   6.278   6.836   1.348  1.9231  0.2102 -0.9836
21843SOL    HW277184   6.207   6.741   1.236  0.9784 -0.2426  0.0021
21844SOL     OW77185   4.413   3.682   1.950  0.5062 -0.5853 -0.0128
21844SOL    HW177186   4.373   3.747   1.885 -2.3487 -0.1975  2.0736
21844SOL    HW277187   4.486   3.727   2.001  0.8436 -0.0633 -0.9304
21845SOL     OW77188   3.410   1.462   2.437 -0.4928 -0.1265  0.1252
21845SOL    HW177189   3.342   1.459   2.511 -0.6271  0.4001  0.0201
21845SOL    HW277190   3.390   1.388   2.372 -0.4954 -0.4649  0.5023
21846SOL     OW77191   8.436   3.154   1.599  0.1920  0.4177 -0.6650
21846SOL    HW177192   8.487   3.236   1.577  0.8212 -0.4285 -2.4879
21846SOL    HW277193   8.496   3.074   1.592 -0.1548 -0.1295  2.0706
21847SOL     OW77194   3.026   8.810   1.498 -0.5217 -0.1232 -0.2094
21847SOL    HW177195   2.983   8.790   1.409  0.1509 -2.1985 -0.0975
21847SOL    HW277196   2.980   8.757   1.569  0.0318  0.2494  0.4278
21848SOL     OW77197   4.090   6.762   3.979 -0.3489 -0.1607  0.1416
21848SOL    HW177198   4.055   6.672   4.005 -0.2835 -0.2556 -0.1000
21848SOL    HW277199   4.161   6.752   3.910 -0.8749  0.1235 -0.4465
21849SOL     OW77200   2.736   3.769   2.457 -0.4285  0.7526  0.4822
21849SOL    HW177201   2.764   3.693   2.399  0.5864  1.6978 -0.2980
21849SOL    HW277202   2.813   3.831   2.471 -1.4350  2.0582  0.4401
21850SOL     OW77203   4.879   7.855   4.994  0.1022  0.2600  0.2148
21850SOL    HW177204   4.822   7.876   5.074  0.2110  0.3746  0.2627
21850SOL    HW277205   4.842   7.775   4.946  1.1647 -1.0791  1.5382
21851SOL     OW77206   3.002   2.182   5.680 -0.0061  0.0470 -0.5613
21851SOL    HW177207   2.994   2.089   5.714 -1.2870  0.5116  0.4400
21851SOL    HW277208   2.999   2.182   5.580 -1.1451 -0.8803 -0.5336
21852SOL     OW77209   4.565   3.253   7.376  0.5228 -0.1538  0.1582
21852SOL    HW177210   4.526   3.257   7.468  1.5101 -0.6400  0.6102
21852SOL    HW277211   4.665   3.247   7.382  0.5204 -1.8041 -0.8869
21853SOL     OW77212   7.693   5.696   7.411  0.0906  0.4155  0.4377
21853SOL    HW177213   7.611   5.652   7.374 -0.1167  1.4407 -0.3521
21853SOL    HW277214   7.727   5.763   7.345  1.6677 -0.1147  0.6824
21854SOL     OW77215   2.066   3.514   7.397  0.1979 -0.1475 -0.2997
21854SOL    HW177216   2.037   3.571   7.320  1.7197  0.5751 -0.3371
21854SOL    HW277217   2.058   3.566   7.482 -0.2595 -0.5295 -0.1026
21855SOL     OW77218   7.047   1.907   5.712 -0.0840 -0.1125 -0.2495
21855SOL    HW177219   6.964   1.865   5.676 -1.1157 -0.2882  2.2277
21855SOL    HW277220   7.097   1.839   5.767 -0.6422  1.2097  1.9877
21856SOL     OW77221   9.899   0.585   6.952 -0.0216 -0.1154  0.0447
21856SOL    HW177222   9.995   0.599   6.928 -0.3573  0.6829 -0.8793
21856SOL    HW277223   9.861   0.670   6.990 -0.7296  0.0087 -0.9053
21857SOL     OW77224   0.617   2.341   2.563 -0.1579  0.4649 -0.3913
21857SOL    HW177225   0.599   2.436   2.537  0.8384  0.9123  0.5029
21857SOL    HW277226   0.587   2.326   2.657 -1.4931 -0.4750 -0.9448
21858SOL     OW77227   7.589   5.115   8.035  0.2779  0.5372  0.3413
21858SOL    HW177228   7.672   5.120   7.980 -0.2137 -1.0880 -0.5672
21858SOL    HW277229   7.509   5.130   7.977 -0.1718  0.2862  0.8916
21859SOL     OW77230   2.602   5.894   2.970  0.0021  0.0194 -0.2513
21859SOL    HW177231   2.641   5.812   2.928  1.5362 -0.4721  2.0741
21859SOL    HW277232   2.529   5.868   3.032  1.2813  0.2945  1.3934
21860SOL     OW77233   6.244   0.957   1.108  0.0624  0.3011 -0.7175
21860SOL    HW177234   6.340   0.935   1.125  0.2816  2.7900  1.5366
21860SOL    HW277235   6.218   0.924   1.017  2.0113 -3.6045  0.0432
21861SOL     OW77236   6.972   2.106   5.868 -0.1757 -0.1131  0.0135
21861SOL    HW177237   7.004   2.040   5.800 -2.6396 -1.8052  0.4084
21861SOL    HW277238   6.998   2.076   5.959  2.7578  1.9382 -0.0981
21862SOL     OW77239   3.219   7.719   3.925  0.3625 -0.0234 -0.0658
21862SOL    HW177240   3.224   7.629   3.967  0.3195  0.2063  0.4378
21862SOL    HW277241   3.309   7.744   3.888 -0.3914 -1.7101 -3.2516
21863SOL     OW77242   8.253   8.562   3.282  0.7733 -0.3709  0.0681
21863SOL    HW177243   8.251   8.547   3.183  3.9327  0.3933 -0.1565
21863SOL    HW277244   8.224   8.656   3.302  3.1525  0.5051 -0.4343
21864SOL     OW77245   9.734   1.934   2.025 -0.2626  0.3942  0.4220
21864SOL    HW177246   9.819   1.900   2.065 -0.3424  0.3298  0.5357
21864SOL    HW277247   9.656   1.883   2.063 -0.1223 -1.8194 -2.0965
21865SOL     OW77248   0.622   9.284   5.155 -0.0626 -0.2116 -0.1929
21865SOL    HW177249   0.716   9.298   5.184  0.0077  1.4279 -1.1370
21865SOL    HW277250   0.565   9.261   5.234  0.8344  0.3950  0.6388
21866SOL     OW77251   0.914   6.602   4.952  0.4159 -0.5144 -0.4851
21866SOL    HW177252   0.849   6.535   4.915 -1.1711 -0.1643  1.6075
21866SOL    HW277253   0.985   6.555   5.004  1.0484 -0.7728 -1.5493
21867SOL     OW77254   7.125   8.745   5.246  0.3016 -0.6877 -0.1931
21867SOL    HW177255   7.075   8.675   5.298  1.8437 -0.1577  2.1097
21867SOL    HW277256   7.212   8.707   5.216  0.1754 -0.4407 -0.8613
21868SOL     OW77257   3.524   9.664   3.934 -0.4356 -0.2336  0.2012
21868SOL    HW177258   3.535   9.757   3.969  0.7149  0.4021 -1.7398
21868SOL    HW277259   3.440   9.624   3.971 -2.1392  2.4117 -0.6849
21869SOL     OW77260   9.394   9.578   3.639  0.1980  0.3891 -0.7308
21869SOL    HW177261   9.491   9.582   3.617  0.2395 -0.4810 -0.6941
21869SOL    HW277262   9.364   9.483   3.647 -0.7293  0.6403 -1.0604
21870SOL     OW77263   8.559   5.697   1.949  0.1190 -0.5870 -0.4151
21870SOL    HW177264   8.486   5.649   1.998  0.6118 -0.3022  0.6120
21870SOL    HW277265   8.603   5.634   1.885  1.3218 -1.7748  1.5255
21871SOL     OW77266   3.556   3.477   3.194 -0.2854  0.0880  0.1854
21871SOL    HW177267   3.645   3.474   3.240 -1.5016 -0.1509  2.6196
21871SOL    HW277268   3.486   3.439   3.255 -2.0263  0.0790 -1.7734
21872SOL     OW77269   1.434   3.361   4.660  0.1860  0.3208  0.0065
21872SOL    HW177270   1.374   3.440   4.676  1.8901  1.4649  0.8657
21872SOL    HW277271   1.380   3.286   4.622 -1.6114  1.6388 -0.1236
21873SOL     OW77272   3.222   9.827   7.257  0.2243  0.3349 -0.3728
21873SOL    HW177273   3.169   9.905   7.289  0.7342  0.0786  1.1400
21873SOL    HW277274   3.319   9.846   7.268  0.4001  0.0779 -1.4139
21874SOL     OW77275   7.894   6.947   6.854 -0.3832  0.0656 -0.3361
21874SOL    HW177276   7.897   7.034   6.903 -0.3731 -0.0530 -0.1261
21874SOL    HW277277   7.985   6.927   6.817  0.1701 -0.9557  1.5427
21875SOL     OW77278   7.890   3.017   2.291  0.1168  0.1219  0.3182
21875SOL    HW177279   7.917   3.093   2.232  0.4941 -0.0035  0.3257
21875SOL    HW277280   7.955   3.008   2.366  1.0889 -1.3006 -0.6579
21876SOL     OW77281   8.941   6.365   3.659 -0.2821  0.5388 -0.1966
21876SOL    HW177282   9.010   6.437   3.666 -0.4815  0.7327 -0.1925
21876SOL    HW277283   8.866   6.397   3.601 -0.1514  0.1579 -0.5721
21877SOL     OW77284   5.884   8.447   4.707  0.0870  0.2439  0.2981
21877SOL    HW177285   5.888   8.428   4.805  0.9018 -0.7874  0.0813
21877SOL    HW277286   5.917   8.367   4.657 -1.6868  0.2284 -0.8723
21878SOL     OW77287   0.162   4.518   7.222  0.1241 -0.0002 -0.2532
21878SOL    HW177288   0.128   4.425   7.214 -0.0621  0.1533 -1.3415
21878SOL    HW277289   0.261   4.517   7.233  0.2555 -0.2966 -1.3793
21879SOL     OW77290   4.025   2.578   1.402 -0.0585  0.2874  0.0262
21879SOL    HW177291   4.124   2.571   1.415  0.1009  0.2865 -1.1219
21879SOL    HW277292   4.000   2.673   1.384 -0.2616  0.2823  0.2748
21880SOL     OW77293   6.851   1.211   2.470  0.2248 -0.2603 -0.3355
21880SOL    HW177294   6.951   1.208   2.469  0.2718  0.9833  0.3810
21880SOL    HW277295   6.817   1.151   2.543  0.6003  2.5465  2.2220
21881SOL     OW77296   2.200   0.442   4.321  0.0748 -0.2955 -0.4268
21881SOL    HW177297   2.266   0.512   4.291  0.7059 -0.6115  0.1978
21881SOL    HW277298   2.117   0.486   4.354  0.7170  0.2097  0.5663
21882SOL     OW77299   0.018   7.991   3.741  0.1045  0.2331  0.5331
21882SOL    HW177300   0.102   8.004   3.689  0.1399  1.9011  0.9731
21882SOL    HW277301  -0.040   8.071   3.731 -2.4635 -1.8003 -1.5894
21883SOL     OW77302   3.975   8.591   5.850 -0.6545 -0.1643 -0.5335
21883SOL    HW177303   4.035   8.532   5.904 -1.3593  1.0802  1.6660
21883SOL    HW277304   4.029   8.635   5.778 -0.1574 -3.5204 -2.3116
21884SOL     OW77305   3.742   5.320   1.561  0.2143  0.0736  0.3767
21884SOL    HW177306   3.806   5.376   1.614  0.9613  1.2083 -1.6959
21884SOL    HW277307   3.721   5.366   1.475 -0.8093 -1.8578 -0.4222
21885SOL     OW77308   8.521   7.841   2.821 -0.5417 -0.1061  0.1291
21885SOL    HW177309   8.425   7.868   2.819 -0.3448  0.5469 -0.4175
21885SOL    HW277310   8.573   7.908   2.874 -0.0961  0.4493 -1.0096
21886SOL     OW77311   3.170   9.701   7.664  0.2556 -0.2026 -0.0520
21886SOL    HW177312   3.124   9.652   7.590 -1.7467  1.3366  0.1264
21886SOL    HW277313   3.212   9.784   7.628  1.0198 -0.4804  0.1878
21887SOL     OW77314   3.782   3.273   2.662  0.1865 -0.0918  0.6168
21887SOL    HW177315   3.867   3.222   2.680 -0.0557 -0.4318  0.8119
21887SOL    HW277316   3.705   3.209   2.659  0.2055 -0.0529 -1.6000
21888SOL     OW77317   3.682   1.968   3.810 -0.2790  0.0206 -0.0913
21888SOL    HW177318   3.763   2.021   3.836 -0.3899  0.6960 -1.0953
21888SOL    HW277319   3.619   2.026   3.760 -0.1091 -1.2304 -1.7880
21889SOL     OW77320   7.560   2.753   1.259  0.1080  0.2280  0.1971
21889SOL    HW177321   7.621   2.827   1.289 -1.0233  0.7241  1.3281
21889SOL    HW277322   7.529   2.702   1.339 -1.7997  0.6378 -0.2649
21890SOL     OW77323   3.799   2.712   6.124  0.3080  0.2198 -0.3299
21890SOL    HW177324   3.880   2.770   6.130 -0.6707  1.4008  2.2770
21890SOL    HW277325   3.753   2.727   6.037  1.7463  1.0921 -0.9527
21891SOL     OW77326   2.774   7.521   6.036 -0.6893 -0.4717  0.8440
21891SOL    HW177327   2.707   7.582   5.996 -0.6992 -0.4563  0.8844
21891SOL    HW277328   2.863   7.537   5.994 -0.7914 -0.7615  0.5192
21892SOL     OW77329   0.676   4.142   5.496  0.5780 -0.0560  0.2824
21892SOL    HW177330   0.678   4.196   5.581  0.4378 -0.3586  0.4773
21892SOL    HW277331   0.604   4.073   5.503  1.4692 -0.9687  0.4525
21893SOL     OW77332   8.081   4.243   6.033 -0.0878  0.0313  0.0890
21893SOL    HW177333   8.042   4.178   6.099 -1.2397  1.5955  1.0003
21893SOL    HW277334   8.055   4.336   6.059  0.1527  0.7488 -2.1202
21894SOL     OW77335   0.344   8.637   7.603  0.2940  0.0454  0.4077
21894SOL    HW177336   0.342   8.697   7.683 -1.8961 -0.4389  0.7580
21894SOL    HW277337   0.349   8.692   7.520  0.1374  0.6572  0.7996
21895SOL     OW77338   0.283   2.927   6.277  0.1426  0.2355  0.0133
21895SOL    HW177339   0.251   2.835   6.253 -2.0653  0.3903  2.1781
21895SOL    HW277340   0.367   2.920   6.330  1.5897 -0.3662 -2.2897
21896SOL     OW77341   7.932   6.058   6.149 -0.1384  0.3051  0.1550
21896SOL    HW177342   7.982   5.996   6.209  0.1235  0.1585 -0.2138
21896SOL    HW277343   7.978   6.063   6.061 -0.4077  0.6802  0.0347
21897SOL     OW77344   6.974   6.246   1.461  0.4845  0.2389  0.8904
21897SOL    HW177345   6.915   6.299   1.399 -0.5894 -1.7938  0.1025
21897SOL    HW277346   6.940   6.254   1.554 -0.0453  0.4311  0.6826
21898SOL     OW77347   2.777   4.219   6.990  0.0710 -0.7092 -0.8364
21898SOL    HW177348   2.704   4.286   6.992  1.5848  0.9714 -0.7097
21898SOL    HW277349   2.795   4.186   7.083  1.0092  0.5870 -0.5510
21899SOL     OW77350   3.932   2.344   2.719  0.2616 -0.6693 -0.3414
21899SOL    HW177351   3.894   2.436   2.732  3.0597  0.4315  0.5660
21899SOL    HW277352   3.985   2.342   2.634  2.2232 -0.6838  0.8472
21900SOL     OW77353   4.919   5.367   2.087  0.4858 -0.2267  0.0610
21900SOL    HW177354   4.824   5.384   2.114  0.6109 -0.5320  0.7121
21900SOL    HW277355   4.970   5.454   2.089  0.1219  0.0025 -0.6908
21901SOL     OW77356   4.942   3.378   5.045 -0.2467  0.3906  0.2009
21901SOL    HW177357   4.874   3.451   5.050 -0.0068  0.5233  1.7091
21901SOL    HW277358   5.025   3.412   5.000 -1.3372  0.0729 -2.1637
21902SOL     OW77359   3.795   8.477   7.710 -0.4834  0.2951 -0.4700
21902SOL    HW177360   3.752   8.566   7.727  1.1697  1.0942 -0.3810
21902SOL    HW277361   3.820   8.435   7.797 -0.2614  0.2476 -0.5561
21903SOL     OW77362   0.529   9.057   1.867 -0.6699 -0.0805 -0.0005
21903SOL    HW177363   0.480   8.995   1.929 -0.4346  1.0670  1.3842
21903SOL    HW277364   0.592   9.006   1.810 -0.2149 -1.0716  1.3790
21904SOL     OW77365   9.876   2.086   0.390 -0.2262  0.0712 -0.7442
21904SOL    HW177366   9.843   2.055   0.300 -0.3751 -0.0442 -0.6507
21904SOL    HW277367   9.837   2.175   0.411 -2.9189 -1.3812  0.7025
21905SOL     OW77368   1.048   6.881   7.446 -0.3754 -0.2333 -0.0882
21905SOL    HW177369   1.060   6.840   7.536  2.8242  1.0316  0.1451
21905SOL    HW277370   0.997   6.967   7.454 -1.0149 -0.6623  0.3783
21906SOL     OW77371   6.562   1.330   3.910 -0.2151  0.5327  0.0792
21906SOL    HW177372   6.506   1.249   3.926  0.7748 -0.0971  0.4524
21906SOL    HW277373   6.601   1.361   3.997 -0.3165  1.2103 -0.1118
21907SOL     OW77374   9.171   8.286   7.177  0.9645 -0.0935 -0.4861
21907SOL    HW177375   9.178   8.210   7.241  1.6714  1.1979  0.9888
21907SOL    HW277376   9.075   8.301   7.152  0.8230 -1.4243 -0.7402
21908SOL     OW77377   1.460   3.019   4.423 -0.7606 -0.3983  0.2065
21908SOL    HW177378   1.411   3.099   4.459 -1.5608  0.5716 -2.8599
21908SOL    HW277379   1.558   3.031   4.438 -0.9432  0.7431  0.5608
21909SOL     OW77380   6.950   2.270   0.819  0.2951 -0.0176  0.4771
21909SOL    HW177381   6.902   2.338   0.873  0.6681 -0.3170  1.1863
21909SOL    HW277382   7.027   2.234   0.871 -0.8235 -2.1251  0.7144
21910SOL     OW77383   9.757   1.876   6.616 -0.5395 -0.8315 -0.0060
21910SOL    HW177384   9.848   1.892   6.655  0.0584 -0.0402 -1.7135
21910SOL    HW277385   9.746   1.778   6.597  0.3375 -0.7880 -0.7411
21911SOL     OW77386   9.067   4.703   2.325  0.2402  0.1590 -0.9578
21911SOL    HW177387   9.012   4.780   2.294  2.8216  1.6902 -1.9265
21911SOL    HW277388   9.159   4.710   2.286  1.3453 -1.9456  1.1458
21912SOL     OW77389   8.337   2.791   5.107  0.1046  0.0401 -0.1983
21912SOL    HW177390   8.261   2.801   5.043  0.3171  0.8863 -0.3309
21912SOL    HW277391   8.424   2.800   5.058  0.2705  0.5639  0.1772
21913SOL     OW77392   9.673   1.497   0.308 -0.2840 -0.3784  0.1734
21913SOL    HW177393   9.661   1.399   0.325  2.5530 -0.5452  1.6740
21913SOL    HW277394   9.710   1.540   0.391 -2.0088  2.0912 -0.2882
21914SOL     OW77395   2.619   3.337   2.921  0.4514 -0.1411  0.1137
21914SOL    HW177396   2.524   3.329   2.891  1.3494 -2.2660 -2.4093
21914SOL    HW277397   2.626   3.405   2.993 -2.9128  0.3542  0.0417
21915SOL     OW77398   7.194   0.151   1.477 -0.1241  0.0745  0.4192
21915SOL    HW177399   7.137   0.124   1.555  0.6697 -1.0469  0.6257
21915SOL    HW277400   7.197   0.076   1.411  2.1245 -0.3787  1.0062
21916SOL     OW77401   0.577   5.936   6.367 -0.6639  0.2367  0.3600
21916SOL    HW177402   0.674   5.956   6.356 -0.9561  0.7452 -1.4500
21916SOL    HW277403   0.530   6.016   6.403 -0.4169 -0.0161  1.2576
21917SOL     OW77404   0.823   0.136   2.041 -0.4011 -0.2843  1.2176
21917SOL    HW177405   0.883   0.137   1.961 -0.3465 -1.8290  1.2256
21917SOL    HW277406   0.877   0.116   2.123 -0.6648  0.0095  1.4644
21918SOL     OW77407   8.359   6.623   0.802 -0.4744 -0.1435  0.0576
21918SOL    HW177408   8.301   6.597   0.725 -0.1985  1.0526 -0.5737
21918SOL    HW277409   8.384   6.542   0.855 -3.3036 -0.5837  0.7589
21919SOL     OW77410   8.976   7.274   7.360 -0.3596 -0.3270 -0.1849
21919SOL    HW177411   8.955   7.368   7.333  0.7628 -0.7060 -2.5313
21919SOL    HW277412   8.927   7.211   7.301  0.9972 -1.1972 -0.4005
21920SOL     OW77413   6.865   1.126   4.128  0.5600 -0.0931  0.9251
21920SOL    HW177414   6.945   1.099   4.180  0.1310  1.4484  2.4437
21920SOL    HW277415   6.881   1.215   4.084 -0.4991  0.4975  1.7010
21921SOL     OW77416   1.427   3.661   0.982 -0.2866  0.0856 -0.3581
21921SOL    HW177417   1.399   3.725   1.055  0.2967 -1.4444  1.2377
21921SOL    HW277418   1.493   3.706   0.923  0.5161  0.8170  1.0516
21922SOL     OW77419   8.821   9.330   7.846 -0.0329  0.0181 -0.0040
21922SOL    HW177420   8.792   9.288   7.931  0.4204 -0.0262  0.1305
21922SOL    HW277421   8.766   9.294   7.770 -0.1449 -0.2623  0.2099
21923SOL     OW77422   0.402   1.045   1.445  0.2500 -0.5470  0.1800
21923SOL    HW177423   0.481   1.107   1.442  0.4786 -0.8281  0.3504
21923SOL    HW277424   0.434   0.951   1.430 -0.1105 -0.6083 -0.2113
21924SOL     OW77425   6.042   1.704   5.876  0.3751  0.1150 -0.0431
21924SOL    HW177426   6.019   1.651   5.958  0.0035 -0.3322 -0.4331
21924SOL    HW277427   5.960   1.713   5.819 -0.0172  2.5758  0.8429
21925SOL     OW77428   9.926   7.526   2.727  0.1597 -0.6064  0.2069
21925SOL    HW177429   9.975   7.473   2.658 -0.2064 -0.2781 -0.3118
21925SOL    HW277430   9.866   7.466   2.779 -1.3559 -0.4827 -1.3589
21926SOL     OW77431   0.905   2.929   6.209 -0.1567 -0.0337 -0.3795
21926SOL    HW177432   0.847   2.938   6.128 -1.1345 -1.0201  0.2008
21926SOL    HW277433   0.864   2.979   6.285 -0.1737 -0.6445  0.0066
21927SOL     OW77434   1.432   0.443   0.777 -0.0960 -0.1354 -0.5201
21927SOL    HW177435   1.402   0.493   0.859 -1.1469 -0.8627 -0.4563
21927SOL    HW277436   1.530   0.427   0.782  0.1489  1.3752 -0.2400
21928SOL     OW77437   5.427   4.344   1.651  0.0337 -0.0755  0.1822
21928SOL    HW177438   5.344   4.387   1.689 -0.0670 -0.2505  0.1601
21928SOL    HW277439   5.479   4.302   1.725  1.0386  1.6196  0.4579
21929SOL     OW77440   3.019   5.068   3.189  0.5220 -0.0704  0.1971
21929SOL    HW177441   3.115   5.049   3.169  0.4041  0.0601 -0.5149
21929SOL    HW277442   3.006   5.166   3.206  0.3164  0.1102 -0.9254
21930SOL     OW77443   4.804   9.021   5.760  0.4082 -0.2293 -0.1700
21930SOL    HW177444   4.720   9.036   5.708  0.5082 -0.5094 -0.4142
21930SOL    HW277445   4.874   9.086   5.732  1.6102 -2.5617 -2.8893
21931SOL     OW77446   0.981   4.957   6.178  0.3091 -0.4120  0.1898
21931SOL    HW177447   0.967   5.054   6.160 -1.0692 -0.5633  0.4340
21931SOL    HW277448   1.079   4.939   6.188  0.7672  0.5364 -2.2359
21932SOL     OW77449   4.298   2.626   1.408  0.3409 -0.0603  0.0800
21932SOL    HW177450   4.347   2.688   1.469  0.6568  0.4325 -0.6685
21932SOL    HW277451   4.324   2.645   1.313  0.7619 -1.6147 -0.1336
21933SOL     OW77452   7.253   9.254   3.572  0.0936 -0.1347 -0.1578
21933SOL    HW177453   7.217   9.331   3.519  0.7714 -0.1943 -0.7028
21933SOL    HW277454   7.345   9.276   3.605  0.8529 -1.2659 -1.5091
21934SOL     OW77455   8.445   4.023   5.948 -0.4915  0.5852 -0.1895
21934SOL    HW177456   8.420   3.958   6.020  3.5784 -1.1762 -0.2224
21934SOL    HW277457   8.430   3.980   5.858  0.3873  0.3799 -0.2448
21935SOL     OW77458   6.704   5.637   7.468 -0.3849  0.4588 -0.1035
21935SOL    HW177459   6.677   5.567   7.402  0.2864  0.3264 -0.2476
21935SOL    HW277460   6.767   5.701   7.424 -0.4065  0.7178  0.2400
21936SOL     OW77461   8.445   7.000   4.043 -0.2641 -0.1144 -0.2323
21936SOL    HW177462   8.375   6.963   4.104 -0.2651  0.9381  0.4330
21936SOL    HW277463   8.525   7.025   4.097  0.2615 -0.4268 -0.8592
21937SOL     OW77464   5.371   0.555   3.534 -0.4223 -0.1533 -0.3976
21937SOL    HW177465   5.436   0.490   3.495 -0.7669 -0.2959 -0.7365
21937SOL    HW277466   5.295   0.506   3.576  0.8484 -0.0484  2.0587
21938SOL     OW77467   5.826   2.021   5.927 -0.3930  0.3254  0.1979
21938SOL    HW177468   5.843   2.022   6.026  0.3373 -3.1651  0.1970
21938SOL    HW277469   5.742   1.969   5.909  0.3682 -0.4915 -1.0804
21939SOL     OW77470   7.612   1.887   1.137  0.2895 -0.0040 -0.5567
21939SOL    HW177471   7.526   1.862   1.093  0.5359  0.1850 -1.1577
21939SOL    HW277472   7.650   1.968   1.091  1.2483 -0.6399 -0.8862
21940SOL     OW77473   7.317   3.727   1.484  0.1902 -0.1134 -0.1140
21940SOL    HW177474   7.303   3.636   1.445 -1.6244  0.0859  0.0439
21940SOL    HW277475   7.405   3.764   1.452  0.7317 -1.7213 -0.5307
21941SOL     OW77476   2.619   3.460   0.288 -0.2219  0.1232  0.3440
21941SOL    HW177477   2.622   3.415   0.199 -0.3587  2.1056 -0.6973
21941SOL    HW277478   2.546   3.421   0.343 -0.5564 -0.6867 -0.6650
21942SOL     OW77479   7.067   0.328   4.671  0.8498 -0.0990 -0.0028
21942SOL    HW177480   7.031   0.239   4.642  1.0562 -0.7120  1.5394
21942SOL    HW277481   7.164   0.318   4.693  0.4609  0.0518  1.9234
21943SOL     OW77482   6.329   8.949   5.483 -0.8769  0.9469 -0.6575
21943SOL    HW177483   6.247   8.895   5.502 -0.3645  0.4696  0.2766
21943SOL    HW277484   6.408   8.887   5.474 -0.6554  1.3821 -1.7453
21944SOL     OW77485   8.307   1.285   5.396  0.3128 -0.9114  0.0230
21944SOL    HW177486   8.322   1.234   5.480  2.8872  0.6859  0.5784
21944SOL    HW277487   8.380   1.352   5.383 -0.8675 -0.0448 -2.6930
21945SOL     OW77488   3.356   0.175   4.145 -0.4191 -0.1269 -0.0633
21945SOL    HW177489   3.339   0.114   4.067 -1.1512  0.6143 -0.5046
21945SOL    HW277490   3.448   0.213   4.139  0.4958 -2.1429  0.8960
21946SOL     OW77491   9.500   4.480   6.480  0.4520  0.3573 -0.0773
21946SOL    HW177492   9.568   4.408   6.487  0.2308 -0.1291 -2.5172
21946SOL    HW277493   9.545   4.567   6.458  0.7348  1.0468  2.9915
21947SOL     OW77494   4.317   2.074   1.679  0.5004  0.3366 -0.3098
21947SOL    HW177495   4.244   2.093   1.744  0.7679 -0.1591  0.1370
21947SOL    HW277496   4.283   2.090   1.586 -0.3423 -0.4175 -0.1373
21948SOL     OW77497   9.661   6.312   5.968 -0.0571  0.1960 -0.0144
21948SOL    HW177498   9.736   6.248   5.988 -0.1833 -0.5803 -1.9289
21948SOL    HW277499   9.645   6.370   6.048  3.1400  0.9327  0.1607
21949SOL     OW77500   2.519   9.054   1.286 -0.4330 -0.2684 -0.3299
21949SOL    HW177501   2.602   9.075   1.234 -0.1959 -1.6931 -0.5652
21949SOL    HW277502   2.529   9.087   1.379  0.3654 -0.3251 -0.3846
21950SOL     OW77503   7.645   7.926   3.712 -0.1056  0.2250  0.7363
21950SOL    HW177504   7.589   7.894   3.788 -0.4858 -2.3770 -0.5754
21950SOL    HW277505   7.716   7.858   3.692 -0.9372  0.1338 -2.1417
21951SOL     OW77506   3.424   1.207   3.507 -0.1286 -0.0881 -0.0491
21951SOL    HW177507   3.468   1.285   3.552 -0.9936  0.5768 -0.3480
21951SOL    HW277508   3.494   1.148   3.468  0.4772  2.1310 -2.4862
21952SOL     OW77509   8.683   9.272   1.642 -0.2359 -0.3360  0.6691
21952SOL    HW177510   8.754   9.207   1.668 -0.6645 -0.7211  0.8763
21952SOL    HW277511   8.725   9.355   1.607  0.2987 -1.6877 -2.0170
21953SOL     OW77512   5.567   4.504   0.646 -0.2804 -0.1827 -0.0291
21953SOL    HW177513   5.665   4.489   0.663  0.2440  0.9418 -1.9277
21953SOL    HW277514   5.523   4.415   0.630  0.6932 -0.6025 -0.4752
21954SOL     OW77515   2.383   9.252   3.808 -0.3432 -0.0743  0.4131
21954SOL    HW177516   2.284   9.266   3.819 -0.2210  1.3251 -0.1060
21954SOL    HW277517   2.401   9.201   3.725 -0.6046  0.2505  0.1558
21955SOL     OW77518   2.650   3.078   3.009  1.1678  0.3834  0.2537
21955SOL    HW177519   2.664   3.160   2.954  0.0345  1.0720  0.9658
21955SOL    HW277520   2.618   3.003   2.950  2.9992  0.1985 -0.5341
21956SOL     OW77521   9.258   9.365   0.376  0.1026  0.1324  0.5205
21956SOL    HW177522   9.286   9.433   0.445 -3.4272  0.8708  1.3228
21956SOL    HW277523   9.290   9.275   0.404  0.1718  0.6705  2.2482
21957SOL     OW77524   3.462   9.281   5.397 -0.0960 -0.0157 -0.4888
21957SOL    HW177525   3.443   9.370   5.438  0.2793  0.5015 -1.4322
21957SOL    HW277526   3.550   9.284   5.350 -0.4360 -0.6701 -1.1727
21958SOL     OW77527   1.116   1.620   5.736  0.2451  0.3986  0.2581
21958SOL    HW177528   1.104   1.719   5.725 -1.9416  0.0962 -0.2020
21958SOL    HW277529   1.115   1.576   5.646  0.5148 -0.1136  0.5063
21959SOL     OW77530   5.034   1.764   7.478 -0.5356  0.6842 -0.1457
21959SOL    HW177531   4.937   1.773   7.500  0.0601  1.2647  2.4978
21959SOL    HW277532   5.082   1.723   7.556  1.8022  3.0214 -0.2761
21960SOL     OW77533   3.488   1.567   0.051  0.2881  0.0558  0.2044
21960SOL    HW177534   3.525   1.564  -0.042  3.1499 -0.4588  1.2881
21960SOL    HW277535   3.455   1.477   0.077 -0.2769  0.1403 -0.2079
21961SOL     OW77536   6.638   9.955   6.548 -0.3114  0.1833 -0.4996
21961SOL    HW177537   6.673  10.048   6.561 -1.1216  0.5425 -0.8520
21961SOL    HW277538   6.582   9.951   6.466 -0.1124 -0.6724 -0.6045
21962SOL     OW77539   8.591   4.021   1.895 -0.0515  0.2397  0.4177
21962SOL    HW177540   8.592   4.105   1.950  0.8374 -0.0940  0.9210
21962SOL    HW277541   8.617   4.042   1.801 -0.4866  0.6352  0.3850
21963SOL     OW77542   9.314   3.854   1.627 -0.0207 -0.3240 -0.0030
21963SOL    HW177543   9.256   3.909   1.687  1.1906  0.5626  0.3741
21963SOL    HW277544   9.359   3.914   1.560 -0.4743 -1.1572 -1.0761
21964SOL     OW77545   1.877   5.372   5.393  0.3558 -0.5305 -0.3108
21964SOL    HW177546   1.858   5.296   5.455 -2.8368 -0.0929 -0.6405
21964SOL    HW277547   1.851   5.458   5.437  2.2165  0.2022 -0.6283
21965SOL     OW77548   3.266   7.847   7.042 -0.2483  0.6888  0.0830
21965SOL    HW177549   3.217   7.813   7.123 -0.4591 -1.6146 -0.9716
21965SOL    HW277550   3.269   7.775   6.973  2.3084  1.7252 -0.9248
21966SOL     OW77551   5.459   9.202   4.201  0.3720 -0.4648  0.6817
21966SOL    HW177552   5.467   9.271   4.273 -1.0293  0.2236  0.1925
21966SOL    HW277553   5.520   9.225   4.126  0.9037 -0.4977  1.1007
21967SOL     OW77554   4.416   2.365   2.839  0.2090 -0.4891  0.4624
21967SOL    HW177555   4.452   2.396   2.751  1.0935 -1.2688  0.5438
21967SOL    HW277556   4.340   2.423   2.866 -0.1236 -0.2959 -0.8633
21968SOL     OW77557   4.312   1.019   3.813 -0.3612  0.3814 -0.5275
21968SOL    HW177558   4.338   0.964   3.734  0.2334 -1.4133  0.8883
21968SOL    HW277559   4.223   0.989   3.847  0.6028 -0.7079  1.1090
21969SOL     OW77560   8.351   2.071   6.266  0.3047  0.5134  0.5602
21969SOL    HW177561   8.410   2.041   6.191  0.7327  1.7135  0.4005
21969SOL    HW277562   8.300   1.993   6.302 -1.4020  0.2464 -2.2860
21970SOL     OW77563   3.484   9.886   7.298  0.5091  0.2013  0.5753
21970SOL    HW177564   3.561   9.944   7.272 -0.8373  2.0317  0.6222
21970SOL    HW277565   3.503   9.844   7.387  1.4480  0.6306  0.5847
21971SOL     OW77566   0.676   5.026   0.814  0.3077  0.3060  0.5161
21971SOL    HW177567   0.655   4.990   0.905  0.6693  0.4716  0.6619
21971SOL    HW277568   0.623   4.975   0.746  0.4576 -0.1852  0.7661
21972SOL     OW77569   2.581   6.986   0.168  0.0607  0.5597  0.4527
21972SOL    HW177570   2.540   7.072   0.136 -2.0129  0.1341  1.8531
21972SOL    HW277571   2.622   7.000   0.258  0.6356  0.3326  0.2266
21973SOL     OW77572   5.450   1.713   6.307 -0.0142  0.0834  0.4780
21973SOL    HW177573   5.485   1.619   6.314 -0.3865 -0.1931 -0.9822
21973SOL    HW277574   5.517   1.771   6.262 -0.5643  0.0363 -0.4317
21974SOL     OW77575   6.873   5.016   0.660 -0.4170 -0.3705  0.2637
21974SOL    HW177576   6.905   5.093   0.604 -0.4138 -0.6378 -0.1046
21974SOL    HW277577   6.948   4.983   0.717 -0.8687  0.9943  1.6882
21975SOL     OW77578   8.927   9.621   4.329  0.2047 -0.5944 -0.0189
21975SOL    HW177579   8.870   9.645   4.408 -0.8711  0.7548 -1.1860
21975SOL    HW277580   8.880   9.552   4.274  0.1121 -0.1785 -0.4661
21976SOL     OW77581   3.778   0.096   1.282  0.7575 -0.3352  0.6246
21976SOL    HW177582   3.772   0.007   1.236  0.3143 -0.4592  0.9251
21976SOL    HW277583   3.693   0.114   1.331 -0.0246  1.2197 -1.2099
21977SOL     OW77584   8.520   9.459   7.791  0.1093  0.2820 -0.1290
21977SOL    HW177585   8.534   9.369   7.750  0.7628 -0.0790  0.8596
21977SOL    HW277586   8.527   9.529   7.720  0.2107 -0.3928 -0.7999
21978SOL     OW77587   2.424   6.331   3.522 -0.8541 -0.1760  0.1872
21978SOL    HW177588   2.346   6.338   3.460 -0.0116 -0.7257 -0.9511
21978SOL    HW277589   2.509   6.345   3.471 -0.2964  3.3192  1.9097
21979SOL     OW77590   1.919   3.771   1.291  0.4829  0.3264  0.2030
21979SOL    HW177591   1.831   3.732   1.263  0.3832  0.7594 -0.0821
21979SOL    HW277592   1.916   3.792   1.389  0.1494  0.6627  0.1236
21980SOL     OW77593   7.005   2.836   0.174 -0.0453 -0.0026  0.6875
21980SOL    HW177594   6.908   2.826   0.197 -0.3665 -2.2160 -1.4508
21980SOL    HW277595   7.019   2.926   0.131 -1.2132  0.2011  0.7055
21981SOL     OW77596   8.810   2.334   1.399 -0.1512  0.0099  0.0052
21981SOL    HW177597   8.845   2.426   1.415 -1.2093  0.9800 -2.9387
21981SOL    HW277598   8.718   2.326   1.439 -0.3234  0.4601 -0.2870
21982SOL     OW77599   2.338   6.965   3.061 -0.4111  0.4173  0.2566
21982SOL    HW177600   2.437   6.978   3.062 -0.3479 -0.0782  0.2540
21982SOL    HW277601   2.299   7.009   3.142 -0.4429  2.5698 -0.8756
21983SOL     OW77602   9.409   7.057   7.752 -0.2332  0.7281  0.0553
21983SOL    HW177603   9.451   7.129   7.697 -2.5351  1.8117 -0.3127
21983SOL    HW277604   9.355   7.098   7.826 -0.8564 -0.6302  0.3757
21984SOL     OW77605   9.541   7.562   6.336 -0.1018 -0.3340 -0.3963
21984SOL    HW177606   9.587   7.570   6.248 -1.0368  0.6159 -0.8124
21984SOL    HW277607   9.492   7.475   6.341  1.1256 -1.0251 -0.2370
21985SOL     OW77608   1.543   2.594   2.542 -0.0083  0.0206 -0.4436
21985SOL    HW177609   1.473   2.654   2.504  0.5207  0.5492 -0.5820
21985SOL    HW277610   1.500   2.512   2.579 -0.7068  0.3882 -0.4457
21986SOL     OW77611   1.188   8.682   4.889 -0.3576 -0.0920  0.4886
21986SOL    HW177612   1.161   8.764   4.940  0.1538 -0.2404  1.0083
21986SOL    HW277613   1.281   8.692   4.855 -0.0741 -0.6923  1.0687
21987SOL     OW77614   7.787   3.567   5.784  0.1632 -0.9721  0.1725
21987SOL    HW177615   7.712   3.526   5.836 -1.1559 -0.9270 -1.6085
21987SOL    HW277616   7.749   3.614   5.704  2.0397 -0.1982 -0.2840
21988SOL     OW77617   9.288   3.236   4.583 -0.0533  0.9866 -0.0601
21988SOL    HW177618   9.386   3.219   4.568 -0.2713  0.7560 -1.3145
21988SOL    HW277619   9.248   3.274   4.499 -1.8100 -2.4368 -0.8735
21989SOL     OW77620   9.952   5.280   4.329 -0.3748 -0.0682 -0.1178
21989SOL    HW177621   9.857   5.310   4.315 -1.2046 -2.5871 -0.1817
21989SOL    HW277622   9.982   5.226   4.250  0.9035  0.1787  0.1873
21990SOL     OW77623   0.053   2.318   7.844  0.2284 -0.3809  0.2911
21990SOL    HW177624   0.089   2.274   7.926  0.2221  0.9208  1.0006
21990SOL    HW277625   0.102   2.284   7.763  0.4402 -1.4334  0.8517
21991SOL     OW77626   8.880   2.671   2.833  0.2595 -0.0886 -0.0852
21991SOL    HW177627   8.944   2.594   2.832 -1.2851 -1.4935  2.3788
21991SOL    HW277628   8.876   2.713   2.743  1.8423 -2.3297 -1.2429
21992SOL     OW77629   1.146   9.575   0.135  0.2159 -0.1963 -0.7677
21992SOL    HW177630   1.084   9.525   0.195  1.8693 -0.7455  0.5302
21992SOL    HW277631   1.110   9.575   0.042 -1.6857 -0.5448 -0.0550
21993SOL     OW77632   9.337   9.139   7.184  0.2068 -0.2590 -0.2148
21993SOL    HW177633   9.306   9.063   7.241  0.4240  0.7016  1.2207
21993SOL    HW277634   9.433   9.125   7.158  0.0299 -0.8290 -0.5559
21994SOL     OW77635   1.390   0.080   0.123 -0.0041  0.1637 -0.1197
21994SOL    HW177636   1.473   0.127   0.150  0.5383 -0.7653 -0.1551
21994SOL    HW277637   1.312   0.141   0.135  0.6197  0.8751  0.3698
21995SOL     OW77638   8.190   6.012   4.099 -0.4898 -0.3423 -0.0529
21995SOL    HW177639   8.186   5.916   4.127 -0.1825 -1.0611 -2.2984
21995SOL    HW277640   8.107   6.036   4.049 -0.3279  0.4041  0.0255
21996SOL     OW77641   1.039   5.868   3.047 -0.4670  0.1340 -0.1769
21996SOL    HW177642   0.980   5.789   3.066  0.8597 -0.6451  0.7222
21996SOL    HW277643   1.069   5.865   2.952  0.4486 -1.0245  0.1476
21997SOL     OW77644   0.444   4.805   7.827  0.1994  0.1753  0.3607
21997SOL    HW177645   0.489   4.740   7.888  1.1842 -0.7480 -1.3108
21997SOL    HW277646   0.495   4.891   7.827  1.5993 -0.6215 -0.9519
21998SOL     OW77647   7.762   8.732   5.060  0.0826  0.1921  0.2468
21998SOL    HW177648   7.829   8.665   5.027  0.1019  0.0582  0.5577
21998SOL    HW277649   7.809   8.818   5.083  0.1307  0.1397  0.3466
21999SOL     OW77650   6.000   3.058   1.066  0.2340 -0.0109 -0.2486
21999SOL    HW177651   5.986   3.075   0.968 -1.0606 -1.2842 -0.2934
21999SOL    HW277652   5.969   3.136   1.119 -0.9524 -0.1519 -0.7387
22000SOL     OW77653   9.025   1.532   1.198 -0.2708 -0.6166 -0.3063
22000SOL    HW177654   8.945   1.573   1.154 -0.4576 -0.1874  0.4190
22000SOL    HW277655   9.075   1.477   1.132 -0.7772 -0.3161 -0.9461
22001SOL     OW77656   9.354   7.485   3.964 -0.2001 -0.0801  0.1771
22001SOL    HW177657   9.351   7.459   4.060 -1.1014  1.9356  0.7189
22001SOL    HW277658   9.262   7.506   3.932  0.3137  1.0605 -0.5945
22002SOL     OW77659   3.308   8.409   4.134 -0.3634  0.1512  0.5752
22002SOL    HW177660   3.224   8.420   4.187 -0.5675  3.1484 -0.2585
22002SOL    HW277661   3.387   8.430   4.192 -0.4230  0.7658  0.4401
22003SOL     OW77662   9.051   7.093   3.780  0.0206 -0.2550  0.1003
22003SOL    HW177663   8.957   7.081   3.811  0.6490 -2.5623  1.1993
22003SOL    HW277664   9.114   7.083   3.858  1.2969 -0.7024 -0.9625
22004SOL     OW77665   2.412   3.873   6.843 -0.7334  0.8939  0.3370
22004SOL    HW177666   2.478   3.892   6.915 -1.6133  2.2776  0.7942
22004SOL    HW277667   2.413   3.775   6.822  0.2280  0.6356  1.5378
22005SOL     OW77668   4.598   4.720   1.669  0.0219  0.1171  0.5609
22005SOL    HW177669   4.616   4.714   1.571 -2.2950  0.0835  0.1144
22005SOL    HW277670   4.664   4.783   1.711  1.2440 -0.1337 -0.9403
22006SOL     OW77671   4.478   0.982   6.943 -0.0913  0.2389 -0.5209
22006SOL    HW177672   4.391   0.989   6.992  0.9385  0.8295  1.2899
22006SOL    HW277673   4.488   0.890   6.906 -1.1207 -0.0761 -0.0393
22007SOL     OW77674   9.448   2.399   3.785 -0.3871  0.6635  0.1792
22007SOL    HW177675   9.526   2.382   3.844 -1.0821  1.7152  1.4273
22007SOL    HW277676   9.386   2.320   3.787  0.4967 -0.0624 -0.6085
22008SOL     OW77677   7.949   5.437   5.083  0.0510 -0.3029 -0.3019
22008SOL    HW177678   7.859   5.397   5.101  0.4725 -1.3809 -0.6029
22008SOL    HW277679   7.982   5.483   5.165 -0.3039 -0.8212  0.1303
22009SOL     OW77680   4.675   2.084   1.002  0.2022 -0.0229  0.2196
22009SOL    HW177681   4.624   2.165   0.972  0.1040 -0.4723 -0.8529
22009SOL    HW277682   4.748   2.065   0.937  1.1716  0.0681  1.2595
22010SOL     OW77683   4.678   6.795   0.887 -0.0339  0.1055 -0.2637
22010SOL    HW177684   4.652   6.837   0.800 -0.3004  0.5073  0.0099
22010SOL    HW277685   4.735   6.859   0.939 -0.5965  0.1967  0.2373
22011SOL     OW77686   2.672   8.331   1.111 -0.4975  0.2097 -0.3134
22011SOL    HW177687   2.738   8.405   1.096  1.0473 -0.7168  1.5419
22011SOL    HW277688   2.638   8.298   1.024  2.0712  0.2352 -1.3696
22012SOL     OW77689   5.106   6.256   0.295 -0.2385 -0.0106 -0.0260
22012SOL    HW177690   5.101   6.201   0.378 -0.1655 -0.6293 -0.4264
22012SOL    HW277691   5.045   6.217   0.225  1.0168 -0.5235 -0.8519
22013SOL     OW77692   5.888   0.654   1.571  0.3133  0.4005 -0.0806
22013SOL    HW177693   5.927   0.626   1.483 -1.0792 -0.3602 -0.4676
22013SOL    HW277694   5.821   0.586   1.601 -2.0657  2.5575 -0.3195
22014SOL     OW77695   1.749   4.385   4.319 -0.3598 -0.0958 -0.3047
22014SOL    HW177696   1.774   4.377   4.415 -0.2414  0.7066 -0.2600
22014SOL    HW277697   1.685   4.461   4.307  1.7472  1.6040 -1.2334
22015SOL     OW77698   1.947   9.166   8.031  0.4110  0.4066  0.1178
22015SOL    HW177699   1.864   9.112   8.022  0.1524  0.2661  2.9689
22015SOL    HW277700   1.945   9.241   7.966 -1.2031 -0.5065 -0.9276
22016SOL     OW77701   9.020   4.621   5.329 -0.3645 -0.2801  0.0683
22016SOL    HW177702   8.992   4.636   5.234  1.9838  1.2515 -0.4184
22016SOL    HW277703   8.939   4.624   5.388 -1.4526  2.4116 -1.4663
22017SOL     OW77704   2.005   0.731   1.582  0.1341  0.1462  0.0244
22017SOL    HW177705   1.982   0.707   1.676  1.5001  1.8712  0.8266
22017SOL    HW277706   2.092   0.688   1.557  0.6166  1.0443  0.1357
22018SOL     OW77707   9.630   6.361   3.804 -0.3921 -0.3072  0.4923
22018SOL    HW177708   9.602   6.456   3.815  1.3396  0.1633  0.9153
22018SOL    HW277709   9.693   6.336   3.877  1.1759 -1.0015 -1.0808
22019SOL     OW77710   0.375   4.146   7.664  0.5118 -0.1553 -0.3988
22019SOL    HW177711   0.446   4.191   7.717 -0.3542 -1.7314  2.2068
22019SOL    HW277712   0.288   4.193   7.678  0.2504 -0.6493 -0.3692
22020SOL     OW77713   2.334   9.236   4.245  0.3729  0.0383 -0.3752
22020SOL    HW177714   2.319   9.188   4.331  1.0508  0.6801  0.1134
22020SOL    HW277715   2.421   9.286   4.250 -0.4183  1.4640 -0.7878
22021SOL     OW77716   0.078   5.907   5.960  0.4500  0.0473  0.0339
22021SOL    HW177717   0.114   5.870   6.046 -0.0636 -0.5331 -0.0028
22021SOL    HW277718   0.009   5.846   5.923 -0.4265  1.0443 -0.0154
22022SOL     OW77719   5.039   1.411   7.000  0.3831  0.2825  0.1537
22022SOL    HW177720   5.068   1.465   7.078 -0.5674  0.1800  0.5941
22022SOL    HW277721   4.962   1.456   6.954  0.6517  0.1266 -0.4608
22023SOL     OW77722   5.209   0.814   1.331 -0.3296  0.4550 -0.5597
22023SOL    HW177723   5.159   0.761   1.400 -0.3134 -0.8331 -1.5258
22023SOL    HW277724   5.259   0.752   1.271 -0.3873  1.5580 -1.7712
22024SOL     OW77725   4.145   8.526   6.721 -0.7819 -0.1848  0.2467
22024SOL    HW177726   4.106   8.435   6.736  0.0655 -0.6353 -0.2450
22024SOL    HW277727   4.230   8.518   6.669 -1.3413  0.9918 -0.8869
22025SOL     OW77728   8.814   1.931   2.650 -0.1939  0.1248  0.0419
22025SOL    HW177729   8.748   1.921   2.575  1.0835  0.5322 -1.1578
22025SOL    HW277730   8.904   1.899   2.620  0.4695  0.8186  1.2264
22026SOL     OW77731   0.867   4.498   7.833  0.1867 -0.3697 -0.7069
22026SOL    HW177732   0.798   4.552   7.784 -1.9080 -1.1154  1.3128
22026SOL    HW277733   0.928   4.560   7.882 -0.1323  0.2736 -1.1078
22027SOL     OW77734   9.551   2.393   4.521  0.0438 -0.1378  0.4423
22027SOL    HW177735   9.648   2.384   4.540 -0.0937  0.7739  1.6162
22027SOL    HW277736   9.498   2.359   4.599 -0.5750  0.1466  0.1485
22028SOL     OW77737   3.909   0.960   7.808  0.2799 -0.4934  0.2495
22028SOL    HW177738   3.837   0.922   7.751 -0.7091  0.8416  0.5749
22028SOL    HW277739   3.936   0.894   7.878 -0.0919 -1.2770 -0.3491
22029SOL     OW77740   7.561   6.116   4.485 -0.5899 -0.1138  0.0181
22029SOL    HW177741   7.583   6.212   4.469 -0.4514 -0.1288  0.1094
22029SOL    HW277742   7.463   6.101   4.474 -0.9385  0.4663  2.0606
22030SOL     OW77743   0.914   8.131   6.812  0.1543 -0.0514 -0.4881
22030SOL    HW177744   0.869   8.114   6.724  2.1098  0.7790 -1.6807
22030SOL    HW277745   0.922   8.044   6.862 -1.7203 -0.3968 -0.7256
22031SOL     OW77746   8.805   5.373   4.353  0.4442  0.1827 -0.4925
22031SOL    HW177747   8.864   5.304   4.396  0.2781  0.0423 -0.4902
22031SOL    HW277748   8.712   5.363   4.387  0.5129  0.7123 -0.1327
22032SOL     OW77749   3.905   1.957   6.400 -0.4976  0.3912 -0.3179
22032SOL    HW177750   3.812   1.983   6.424 -0.6431 -0.3509 -0.0938
22032SOL    HW277751   3.904   1.874   6.344 -0.0396  0.9867 -1.2291
22033SOL     OW77752   7.984   3.650   5.986 -0.5420  0.0218  0.1785
22033SOL    HW177753   7.904   3.611   5.940 -0.6301 -0.4387  0.7183
22033SOL    HW277754   7.978   3.750   5.985 -0.8361 -0.0021 -0.2935
22034SOL     OW77755   6.183   4.939   1.568 -0.6001 -0.0048  0.3875
22034SOL    HW177756   6.166   4.999   1.646  1.5517 -1.0948  1.7586
22034SOL    HW277757   6.236   4.988   1.499  1.9001 -0.5014  1.8754
22035SOL     OW77758   1.553   3.166   2.777  0.1700  0.2036  0.6362
22035SOL    HW177759   1.615   3.156   2.855  0.6813 -2.1191 -0.0268
22035SOL    HW277760   1.597   3.130   2.695 -0.4433  2.4560 -0.7149
22036SOL     OW77761   8.139   4.572   4.924 -0.0439 -0.2276  0.5516
22036SOL    HW177762   8.185   4.498   4.875  0.9743  0.2544  0.7798
22036SOL    HW277763   8.096   4.534   5.007 -0.3161 -0.7306  0.1839
22037SOL     OW77764   0.452   2.170   3.333  0.1698 -0.3454 -0.5830
22037SOL    HW177765   0.439   2.151   3.236 -1.7462  0.1221 -0.4319
22037SOL    HW277766   0.388   2.116   3.387  1.5039 -0.9196  0.4665
22038SOL     OW77767   4.712   5.545   7.956  0.4047 -0.0132 -0.1920
22038SOL    HW177768   4.773   5.596   7.896  1.8897 -0.0143  1.2843
22038SOL    HW277769   4.624   5.529   7.909  1.4377  0.1878 -2.2482
22039SOL     OW77770   3.413   3.527   5.003 -0.8004  0.1536 -0.1995
22039SOL    HW177771   3.406   3.482   5.092  0.0540  0.1775 -0.1114
22039SOL    HW277772   3.401   3.459   4.930 -0.6351 -0.0249 -0.0629
22040SOL     OW77773   2.377   3.946   2.685 -0.0588 -0.1902 -0.0000
22040SOL    HW177774   2.415   4.010   2.618  0.4336  0.1855  0.6398
22040SOL    HW277775   2.447   3.919   2.749 -0.6487 -0.1868  0.6507
22041SOL     OW77776   8.668   9.842   3.630  0.2056 -0.0178 -0.4469
22041SOL    HW177777   8.579   9.813   3.665 -0.1391  0.0660 -1.2470
22041SOL    HW277778   8.700   9.778   3.561  1.6770 -1.1099  1.2115
22042SOL     OW77779   1.206   0.828   0.550  0.0310  0.6788  0.7557
22042SOL    HW177780   1.126   0.771   0.532  1.4108 -0.8944 -0.5738
22042SOL    HW277781   1.273   0.775   0.603  1.2869  1.0797 -0.4176
22043SOL     OW77782   9.692   3.182   2.118  0.0642  0.2432  0.0127
22043SOL    HW177783   9.701   3.142   2.209 -0.3788  0.1475  0.0167
22043SOL    HW277784   9.741   3.269   2.114  1.2703 -0.4395 -0.0787
22044SOL     OW77785   1.620   4.049   6.268 -0.5710 -0.1887  0.0480
22044SOL    HW177786   1.686   3.980   6.238  0.8930  1.1283  0.1615
22044SOL    HW277787   1.639   4.073   6.364 -0.2455  1.2837 -0.3717
22045SOL     OW77788   4.967   3.153   4.215 -0.0455  0.5086  0.1515
22045SOL    HW177789   5.042   3.119   4.271  0.9319  2.8550  0.3431
22045SOL    HW277790   4.895   3.188   4.274  0.4607  1.8807 -0.0253
22046SOL     OW77791   1.643   0.753   5.533 -0.2072  0.0109 -0.0867
22046SOL    HW177792   1.737   0.778   5.513 -0.1078 -0.9590 -0.8766
22046SOL    HW277793   1.595   0.830   5.575  0.9067  0.5352  0.2195
22047SOL     OW77794   2.596   9.940   2.703 -0.0296  0.0420  0.4627
22047SOL    HW177795   2.514   9.998   2.713 -0.6786 -1.0252  1.4646
22047SOL    HW277796   2.675   9.998   2.683 -0.8451  1.1874  0.4695
22048SOL     OW77797   1.118   3.999   0.856  0.3352 -0.2809 -0.5284
22048SOL    HW177798   1.100   4.065   0.783 -0.2681 -2.3058 -2.2611
22048SOL    HW277799   1.032   3.978   0.904  0.6031  0.4976  0.3086
22049SOL     OW77800   2.435   0.412   2.818  0.2372  0.2508  0.0278
22049SOL    HW177801   2.520   0.457   2.792 -0.4653  2.1180  0.8139
22049SOL    HW277802   2.434   0.396   2.917 -0.2350  0.0477 -0.0054
22050SOL     OW77803   0.744   7.114   4.385  0.4448 -0.3201 -0.1838
22050SOL    HW177804   0.812   7.188   4.385  1.4223 -1.2157 -0.7492
22050SOL    HW277805   0.653   7.153   4.397  1.1342  0.8161  1.5764
22051SOL     OW77806   4.085   0.200   2.324  0.2164 -0.0772 -0.0344
22051SOL    HW177807   4.026   0.268   2.368  0.0123  0.2547 -0.8207
22051SOL    HW277808   4.036   0.113   2.316 -0.1822  0.2051 -0.7118
22052SOL     OW77809   3.007   9.490   5.490 -0.1816  0.0198 -0.2073
22052SOL    HW177810   2.972   9.415   5.433  1.1907  1.7219 -3.4498
22052SOL    HW277811   2.987   9.577   5.445  3.0128  1.3140  0.7781
22053SOL     OW77812   4.159   9.516   5.914  0.0432  0.2532  0.2119
22053SOL    HW177813   4.060   9.508   5.895 -0.1721 -0.0060  1.4294
22053SOL    HW277814   4.173   9.542   6.009  1.1795 -0.4974  0.2577
22054SOL     OW77815   2.070   0.777   5.982 -0.1901 -0.0156  0.1480
22054SOL    HW177816   2.053   0.742   5.890  0.2186 -0.4332  0.2292
22054SOL    HW277817   2.045   0.707   6.049  1.3199 -0.4444  0.2888
22055SOL     OW77818   9.898   5.682   4.351 -0.1847 -0.0349 -0.2638
22055SOL    HW177819   9.978   5.623   4.343 -0.5740 -0.4709 -1.0160
22055SOL    HW277820   9.895   5.722   4.442  0.0760 -1.1970  0.2666
22056SOL     OW77821   4.204   7.966   3.264  0.2331 -0.1576 -0.3976
22056SOL    HW177822   4.257   7.937   3.185  1.6108  1.3438 -0.0314
22056SOL    HW277823   4.137   7.894   3.287  3.0802 -2.7591  0.0677
22057SOL     OW77824   0.712   0.672   7.954  0.0315  0.1418 -0.8268
22057SOL    HW177825   0.747   0.697   7.864 -0.4604  1.3640 -0.6975
22057SOL    HW277826   0.612   0.663   7.950  0.0004  0.2672 -0.3906
22058SOL     OW77827   9.631   0.707   2.951  0.5338  0.1072 -0.3287
22058SOL    HW177828   9.671   0.616   2.966  0.3541  0.0084 -0.4583
22058SOL    HW277829   9.663   0.743   2.864  0.3922  0.0569 -0.4009
22059SOL     OW77830   9.623   8.532   0.475  0.9739  0.4343  0.5276
22059SOL    HW177831   9.621   8.490   0.565  0.6660  3.0496  1.7908
22059SOL    HW277832   9.697   8.599   0.470  1.3071 -0.0395 -1.3245
22060SOL     OW77833   7.450   1.853   3.337 -0.2346 -0.0316  0.4124
22060SOL    HW177834   7.502   1.927   3.295 -0.9160 -0.2470 -0.8306
22060SOL    HW277835   7.381   1.891   3.399 -1.3307  0.4383 -1.0686
22061SOL     OW77836   9.904   8.220   0.604 -0.4789  0.2277  0.6447
22061SOL    HW177837   9.826   8.159   0.617  0.5647 -1.3844 -0.5002
22061SOL    HW277838   9.986   8.178   0.643  0.4702  0.3626 -1.1570
22062SOL     OW77839   3.886   3.788   5.451  0.2640 -0.3715  0.2928
22062SOL    HW177840   3.940   3.742   5.522 -0.1225  2.1102  2.2388
22062SOL    HW277841   3.792   3.754   5.454  0.3995 -0.7377  0.5097
22063SOL     OW77842   9.478   3.743   7.141  0.4273  0.4781 -0.1414
22063SOL    HW177843   9.422   3.660   7.128  1.2250  0.0356 -0.8024
22063SOL    HW277844   9.434   3.820   7.095  0.0859  0.2528 -0.1952
22064SOL     OW77845   8.555   9.709   7.655 -0.4077 -0.1453  0.4255
22064SOL    HW177846   8.618   9.785   7.638  1.0089 -1.4060 -0.0754
22064SOL    HW277847   8.545   9.656   7.571  0.0466 -1.5538  1.2480
22065SOL     OW77848   7.181   6.690   4.397 -0.3279 -0.4110  0.2567
22065SOL    HW177849   7.245   6.737   4.459 -1.1704  1.4498 -0.2313
22065SOL    HW277850   7.088   6.719   4.418 -0.7405 -0.8680 -0.9456
22066SOL     OW77851   7.941   3.587   2.267 -0.3643 -0.5811  0.0517
22066SOL    HW177852   7.998   3.512   2.300 -2.8474 -2.0093  1.2369
22066SOL    HW277853   7.923   3.574   2.169 -2.2858 -2.5839  0.6369
22067SOL     OW77854   0.708   5.909   1.083 -0.1654 -0.2117  0.4142
22067SOL    HW177855   0.766   5.987   1.105 -0.5973  0.1763  0.1714
22067SOL    HW277856   0.711   5.893   0.984  0.1689 -0.6978  0.4996
22068SOL     OW77857   4.884   0.590   3.735 -0.1250  0.1943  0.2471
22068SOL    HW177858   4.800   0.597   3.680  0.1145  0.4095 -0.0933
22068SOL    HW277859   4.922   0.681   3.750  0.1099  0.0875  0.3053
22069SOL     OW77860   5.577   9.595   6.125  0.0523 -0.0528 -0.4690
22069SOL    HW177861   5.664   9.566   6.085 -0.5681 -0.8615 -1.2412
22069SOL    HW277862   5.509   9.606   6.053 -0.9730 -1.1837  0.3187
22070SOL     OW77863   5.854   1.216   4.373 -0.1430  0.5225 -0.2116
22070SOL    HW177864   5.830   1.295   4.316  1.8781  0.6261 -0.9605
22070SOL    HW277865   5.777   1.152   4.375 -1.2300  1.7835 -0.8711
22071SOL     OW77866   8.771   4.646   7.008  0.4695  0.1420  0.5165
22071SOL    HW177867   8.713   4.720   7.043  0.1416 -0.9110  2.2452
22071SOL    HW277868   8.722   4.598   6.935  1.0845  2.2314 -1.3395
22072SOL     OW77869   4.830   0.390   1.119  0.4991  0.2291 -0.1534
22072SOL    HW177870   4.786   0.422   1.035 -2.2632 -1.6200  0.5213
22072SOL    HW277871   4.762   0.345   1.176  3.2143 -2.1979  1.2313
22073SOL     OW77872   9.436   0.771   4.027  0.6063 -1.2715  1.0633
22073SOL    HW177873   9.449   0.843   4.095 -1.6453 -0.9120  1.1738
22073SOL    HW277874   9.375   0.701   4.064  0.6072 -1.8542 -0.0223
22074SOL     OW77875   2.176   7.438   7.526 -0.2904 -0.3868  0.4840
22074SOL    HW177876   2.120   7.414   7.605 -0.4574 -0.6504  0.2879
22074SOL    HW277877   2.197   7.536   7.528  1.1872 -0.7143  1.7944
22075SOL     OW77878   1.698   0.751   6.951 -0.2437  0.0913 -0.0890
22075SOL    HW177879   1.676   0.658   6.921 -0.8679 -0.1014  0.9512
22075SOL    HW277880   1.766   0.748   7.023 -0.0132  0.4625 -0.2889
22076SOL     OW77881   6.867   3.448   1.421 -0.5167 -0.0508  0.2765
22076SOL    HW177882   6.923   3.444   1.504  0.0150 -0.8621 -0.1118
22076SOL    HW277883   6.862   3.542   1.388 -0.8917  0.3081  1.3338
22077SOL     OW77884   3.374   4.235   5.921  0.3276  0.1598 -0.4617
22077SOL    HW177885   3.417   4.167   5.979  1.5166 -0.3471 -1.8998
22077SOL    HW277886   3.337   4.309   5.978  2.4489  0.2389  0.8724
22078SOL     OW77887   4.672   3.666   1.132 -0.4239  0.5477  0.0083
22078SOL    HW177888   4.710   3.732   1.067  0.7908 -1.2520 -1.1650
22078SOL    HW277889   4.580   3.640   1.104  0.3027 -0.6430 -1.3470
22079SOL     OW77890   9.316   0.317   5.336  0.1239  0.1139  0.3044
22079SOL    HW177891   9.321   0.334   5.435  1.5030 -0.4330  0.3336
22079SOL    HW277892   9.256   0.239   5.319 -1.3172  1.1270  0.5915
22080SOL     OW77893   7.526   7.382   4.115  0.1117  0.3532 -0.1184
22080SOL    HW177894   7.454   7.313   4.111  0.2332  0.1208  1.5942
22080SOL    HW277895   7.502   7.457   4.054 -1.2226 -0.0595 -0.1325
22081SOL     OW77896   9.821   9.537   5.028  0.0314  0.5451  0.4203
22081SOL    HW177897   9.733   9.574   4.998  0.2137  0.0906 -0.7251
22081SOL    HW277898   9.820   9.438   5.020  0.7581  0.5615  0.0909
22082SOL     OW77899   1.968   9.320   5.148  0.2156  0.3404 -0.0047
22082SOL    HW177900   1.888   9.260   5.139  0.3510  0.0498  0.7149
22082SOL    HW277901   2.014   9.301   5.234  3.3241 -2.1990 -2.1167
22083SOL     OW77902   9.678   5.118   5.226  0.3991  0.1888  0.8617
22083SOL    HW177903   9.686   5.126   5.326 -0.3333  1.1440  0.8518
22083SOL    HW277904   9.623   5.193   5.191 -0.1147 -0.6546 -0.1697
22084SOL     OW77905   0.734   2.469   3.565  0.0326  0.0501  0.1790
22084SOL    HW177906   0.635   2.453   3.557  0.1014  0.2390 -1.0487
22084SOL    HW277907   0.783   2.384   3.546  0.1778  0.3996 -1.0384
22085SOL     OW77908   7.040   2.586   3.279 -0.4627  0.4407  0.4668
22085SOL    HW177909   7.126   2.594   3.228 -0.7727  1.1072  0.0356
22085SOL    HW277910   6.972   2.540   3.223 -1.0489  1.8925 -0.0524
22086SOL     OW77911   8.979   7.816   4.651  0.3629  0.1142  0.1560
22086SOL    HW177912   8.943   7.732   4.691  1.5531 -1.5372 -2.1629
22086SOL    HW277913   8.999   7.882   4.724  1.8546 -2.5653  2.2562
22087SOL     OW77914   3.387   6.844   8.028  0.0233 -0.0452 -0.2093
22087SOL    HW177915   3.481   6.820   8.006  0.0509 -1.1967  1.0785
22087SOL    HW277916   3.383   6.941   8.054  0.6706  0.2542 -1.1996
22088SOL     OW77917   1.978   1.727   2.926  0.0977 -0.1791  0.1469
22088SOL    HW177918   1.917   1.713   3.004 -1.0371  0.6388 -0.5841
22088SOL    HW277919   1.962   1.656   2.858 -0.4824  0.3975 -0.3207
22089SOL     OW77920   3.660   2.692   7.540 -0.0105  0.7409  0.0727
22089SOL    HW177921   3.623   2.749   7.614 -0.8716  0.5719 -0.2323
22089SOL    HW277922   3.748   2.730   7.511  1.5279 -0.5333  2.7992
22090SOL     OW77923   5.514   7.251   5.544 -0.5794  0.2971  0.3313
22090SOL    HW177924   5.612   7.240   5.560 -0.3099  1.0047 -0.7977
22090SOL    HW277925   5.486   7.196   5.465 -0.9428  0.7069  0.1730
22091SOL     OW77926   9.340   4.378   4.742  0.2596 -0.3660 -0.4817
22091SOL    HW177927   9.400   4.367   4.663 -0.7316  0.3487 -1.3431
22091SOL    HW277928   9.335   4.475   4.768  0.7786 -0.6202  0.6271
22092SOL     OW77929   8.046   1.151   5.806  0.4420  0.1630  0.2083
22092SOL    HW177930   8.004   1.123   5.892  0.1630 -0.5662 -0.1603
22092SOL    HW277931   8.029   1.248   5.790  0.9447  0.4259  1.2302
22093SOL     OW77932   9.649   6.222   2.869  0.1880 -0.1798  0.8188
22093SOL    HW177933   9.668   6.176   2.956  0.0767 -0.6890  0.5773
22093SOL    HW277934   9.609   6.312   2.887  0.9074  0.0556  1.3058
22094SOL     OW77935   9.827   1.481   3.811 -0.0440  0.7652  0.7659
22094SOL    HW177936   9.740   1.517   3.845 -0.9077  0.1493 -0.7667
22094SOL    HW277937   9.852   1.399   3.864 -1.4410 -0.2598 -0.1545
22095SOL     OW77938   5.480   0.538   6.382  0.1894  0.3241  0.0158
22095SOL    HW177939   5.510   0.535   6.477 -1.8336 -0.4408  0.6538
22095SOL    HW277940   5.447   0.448   6.354  1.3257  0.3997 -1.5958
22096SOL     OW77941   2.799   0.962   5.871  0.2383  0.0524 -0.2264
22096SOL    HW177942   2.707   0.974   5.908  0.7634  0.5683  0.9441
22096SOL    HW277943   2.826   0.866   5.878  0.0124  0.0047 -0.0218
22097SOL     OW77944   1.020   5.015   6.742  0.1771  0.0271 -0.0258
22097SOL    HW177945   0.968   4.947   6.795  0.7295  0.3084  0.8831
22097SOL    HW277946   0.957   5.083   6.705 -0.2281 -0.2553  0.1349
22098SOL     OW77947   7.170   4.156   0.011  0.2578 -0.1914 -0.1701
22098SOL    HW177948   7.100   4.089   0.037 -1.2089  0.8754 -1.3469
22098SOL    HW277949   7.175   4.228   0.080 -0.6846  0.3903 -0.6991
22099SOL     OW77950   8.957   7.077   3.252 -0.2529  0.3591 -0.5762
22099SOL    HW177951   8.969   7.175   3.233 -2.1000  0.9409  0.9894
22099SOL    HW277952   9.004   7.054   3.337  2.3191 -0.7166 -2.2371
22100SOL     OW77953   4.771   1.008   2.704 -0.2519  0.1155  0.0374
22100SOL    HW177954   4.713   1.079   2.744  0.3649  0.1877  0.8329
22100SOL    HW277955   4.867   1.030   2.721 -0.0748 -1.2696  0.9280
22101SOL     OW77956   2.836   4.889   6.547 -0.2123  0.4663 -0.7399
22101SOL    HW177957   2.900   4.830   6.498  1.4060 -0.1142  1.9508
22101SOL    HW277958   2.745   4.848   6.546  0.7880 -1.8757  0.6900
22102SOL     OW77959   5.871   9.323   4.294 -0.2050 -0.0774 -0.0377
22102SOL    HW177960   5.851   9.314   4.196  0.9429 -0.9203 -0.2182
22102SOL    HW277961   5.916   9.410   4.311  1.3539 -0.7587 -0.5892
22103SOL     OW77962   0.160   3.216   2.958 -0.6483  0.3297 -0.0920
22103SOL    HW177963   0.185   3.297   2.906  0.4260 -0.5406 -0.9640
22103SOL    HW277964   0.230   3.197   3.026  0.0891 -0.9465 -1.1733
22104SOL     OW77965   6.976   2.025   5.193 -0.2707 -0.4353  0.0556
22104SOL    HW177966   6.894   2.037   5.137 -0.0631  0.0691 -0.1471
22104SOL    HW277967   7.046   2.091   5.164  0.2693 -0.9850  0.1100
22105SOL     OW77968   3.017   6.394   3.001 -0.1192  0.1129  0.2860
22105SOL    HW177969   3.088   6.378   2.932 -0.7489  0.3755 -0.4311
22105SOL    HW277970   3.043   6.473   3.056 -0.0597  0.4807 -0.2569
22106SOL     OW77971   4.187   4.664   0.677  0.3291 -0.4410 -0.2897
22106SOL    HW177972   4.264   4.607   0.704  1.6092  1.5421  0.3411
22106SOL    HW277973   4.118   4.663   0.750  2.2069  2.0968  1.5951
22107SOL     OW77974   1.199   3.350   6.254 -0.4716  0.2336 -0.6114
22107SOL    HW177975   1.252   3.413   6.198  1.8868 -0.3108  0.8936
22107SOL    HW277976   1.202   3.258   6.214  1.0988 -0.1259  0.2623
22108SOL     OW77977   7.724   8.845   4.510 -0.1169  0.0947 -0.0261
22108SOL    HW177978   7.791   8.901   4.462 -1.2900  0.2424 -1.5049
22108SOL    HW277979   7.745   8.846   4.608  0.2712  2.5493 -0.1013
22109SOL     OW77980   8.408   0.969   4.378  0.1958  0.2591  0.5548
22109SOL    HW177981   8.399   0.935   4.284 -0.9925  1.3217  0.2682
22109SOL    HW277982   8.432   1.066   4.377 -0.0593  0.3366  1.3479
22110SOL     OW77983   3.679   0.547   5.812  0.3152  0.5053 -0.0506
22110SOL    HW177984   3.770   0.567   5.847  1.9005  0.2374 -3.7274
22110SOL    HW277985   3.643   0.627   5.763 -0.1972 -0.2875 -1.0007
22111SOL     OW77986   1.441   6.109   1.580 -0.4130  0.1728 -0.3774
22111SOL    HW177987   1.405   6.110   1.673 -1.3228  0.7078 -0.7234
22111SOL    HW277988   1.531   6.152   1.578  0.3699 -1.3796  0.5400
22112SOL     OW77989   6.369   1.182   0.342  0.3557  0.0632 -0.9475
22112SOL    HW177990   6.371   1.092   0.299  2.0627 -1.3396  1.9474
22112SOL    HW277991   6.324   1.175   0.431  2.2910  1.6438  0.1884
22113SOL     OW77992   8.135   2.337   3.909 -0.0588  0.6403  0.1362
22113SOL    HW177993   8.185   2.375   3.831  1.1846  1.5859  1.3680
22113SOL    HW277994   8.064   2.275   3.876  0.0410  1.5071 -1.7755
22114SOL     OW77995   3.254   5.175   2.472 -0.2723 -0.1893 -1.0032
22114SOL    HW177996   3.324   5.226   2.422 -1.7011 -0.9075 -3.7765
22114SOL    HW277997   3.164   5.201   2.439 -1.2358 -1.1456  0.7983
22115SOL     OW77998   2.537   0.527   5.246 -0.2092 -0.6445 -0.6422
22115SOL    HW177999   2.606   0.591   5.280  0.2604 -0.8389 -1.2242
22115SOL    HW278000   2.483   0.493   5.323  0.6831 -0.8963 -0.1198
22116SOL     OW78001   7.297   0.313   0.583  0.3500  0.1070  0.0118
22116SOL    HW178002   7.332   0.358   0.501  0.5415  1.6179  0.9154
22116SOL    HW278003   7.324   0.364   0.664 -2.5322  0.4211  0.8438
22117SOL     OW78004   1.358   7.753   6.465 -0.1718 -0.3831 -0.2559
22117SOL    HW178005   1.432   7.808   6.427 -0.7414  0.5744  0.0072
22117SOL    HW278006   1.387   7.657   6.471  0.2019 -0.4305 -2.3813
22118SOL     OW78007   9.487   8.992   3.350 -0.3317  0.1384  0.1909
22118SOL    HW178008   9.456   8.898   3.339 -0.6846  0.3437 -0.5927
22118SOL    HW278009   9.548   8.998   3.429 -0.8050 -0.6225  0.6112
22119SOL     OW78010   1.798   5.948   0.400 -0.5057 -0.5235  0.0806
22119SOL    HW178011   1.782   5.971   0.496  0.6081 -1.7904  0.5858
22119SOL    HW278012   1.894   5.967   0.377 -0.2374 -2.1816 -0.2036
22120SOL     OW78013   5.268   8.559   1.827 -0.1826 -0.3872 -0.0980
22120SOL    HW178014   5.304   8.546   1.735  0.7033  3.4621 -0.3646
22120SOL    HW278015   5.176   8.598   1.822 -0.0332  0.0707  0.6565
22121SOL     OW78016   0.911   4.987   1.163  0.4532  0.1271 -0.1840
22121SOL    HW178017   0.842   5.039   1.113 -1.2199  0.6534  2.5624
22121SOL    HW278018   0.879   4.893   1.175  1.4779 -0.3728 -1.2945
22122SOL     OW78019   3.403   2.151   4.914 -0.7483  0.0887  0.2103
22122SOL    HW178020   3.373   2.065   4.956  1.9356 -1.1798 -0.3410
22122SOL    HW278021   3.401   2.142   4.814 -1.6401  1.1120  0.1282
22123SOL     OW78022   2.732   2.035   6.950 -0.1819 -0.1371  0.3853
22123SOL    HW178023   2.766   2.054   7.042  2.8547 -3.3970  0.0246
22123SOL    HW278024   2.754   2.111   6.889  1.2823  0.3208  1.4705
22124SOL     OW78025   1.809   9.402   5.626 -0.0546  0.4556  0.1441
22124SOL    HW178026   1.814   9.413   5.725 -1.7163 -1.7237  0.5126
22124SOL    HW278027   1.829   9.489   5.582 -1.4138  1.9982  2.4591
22125SOL     OW78028   3.657   4.711   0.596  0.6190 -0.2880  0.7445
22125SOL    HW178029   3.584   4.756   0.545  1.9625  0.7919 -0.2412
22125SOL    HW278030   3.701   4.777   0.657  0.6102 -1.0030  1.5359
22126SOL     OW78031   6.951   9.023   3.531 -0.0674 -0.1304  0.0267
22126SOL    HW178032   6.927   9.109   3.577  0.5467 -0.1806  0.4506
22126SOL    HW278033   7.032   8.983   3.576  1.7727  0.8351 -2.3315
22127SOL     OW78034   9.217   8.231   6.230  0.2173 -0.1608 -0.3437
22127SOL    HW178035   9.153   8.249   6.155 -0.7894 -0.1858  0.5014
22127SOL    HW278036   9.168   8.185   6.304  1.0642  0.4539  0.5918
22128SOL     OW78037   6.756   1.965   8.101  0.4088 -0.2220 -0.1031
22128SOL    HW178038   6.773   2.063   8.096 -0.2672 -0.0970  0.0439
22128SOL    HW278039   6.697   1.937   8.025 -0.1508 -0.3564  0.3794
22129SOL     OW78040   0.064   0.402   3.365  0.4491  0.1488  0.1843
22129SOL    HW178041   0.083   0.368   3.457 -0.5087 -0.0125  0.3359
22129SOL    HW278042  -0.035   0.397   3.348  0.6150  0.2131 -0.8370
22130SOL     OW78043   7.482   2.429   5.575  0.1867  0.1078  0.4599
22130SOL    HW178044   7.582   2.425   5.578  0.2125 -0.1624 -0.5883
22130SOL    HW278045   7.448   2.463   5.662  1.2096  0.5421  0.7024
22131SOL     OW78046   2.357   8.054   7.227  0.3898  0.4524 -0.4100
22131SOL    HW178047   2.372   8.054   7.128 -0.1819  2.0309 -0.5114
22131SOL    HW278048   2.277   7.998   7.249 -0.0658  0.8849 -0.9442
22132SOL     OW78049   8.444   0.301   0.031 -0.0834  0.4007  0.4465
22132SOL    HW178050   8.444   0.279  -0.067  2.3616 -0.2747  0.5788
22132SOL    HW278051   8.477   0.222   0.083 -2.5004  0.3319  1.9496
22133SOL     OW78052   9.271   1.057   5.493 -0.5275 -0.0322 -0.4574
22133SOL    HW178053   9.329   1.138   5.484 -0.9156  0.3180  0.1000
22133SOL    HW278054   9.309   0.997   5.563 -1.2646  0.5879  0.4915
22134SOL     OW78055   3.150   9.864   5.112 -0.1796  0.2534 -0.5025
22134SOL    HW178056   3.246   9.882   5.091 -0.0997 -1.1500 -1.3546
22134SOL    HW278057   3.093   9.937   5.074  0.5668  1.3073  0.3645
22135SOL     OW78058   1.170   5.680   1.431 -0.3576 -0.5613  0.2312
22135SOL    HW178059   1.070   5.668   1.434 -0.6487  1.6150  0.1068
22135SOL    HW278060   1.196   5.755   1.492  1.1757 -0.9081  0.0185
22136SOL     OW78061   2.993   5.500   6.829  0.1976  0.3029  0.2505
22136SOL    HW178062   3.039   5.566   6.770 -2.1666  0.5620 -1.3663
22136SOL    HW278063   3.039   5.411   6.822  1.3941  0.9333 -0.0843
22137SOL     OW78064   2.692   7.927   7.653 -0.0277  0.7423  0.1549
22137SOL    HW178065   2.685   7.935   7.752 -1.3831  1.6399  0.0041
22137SOL    HW278066   2.774   7.875   7.629 -2.1844 -3.7545  1.9230
22138SOL     OW78067   8.764   9.015   5.034 -0.0256 -0.6883 -0.0421
22138SOL    HW178068   8.743   8.934   4.979 -0.3045 -0.7034  0.0878
22138SOL    HW278069   8.789   9.090   4.973 -0.6817 -0.6049 -0.2058
22139SOL     OW78070   2.011   9.464   3.404 -0.2188  0.0952  1.1180
22139SOL    HW178071   2.023   9.488   3.308  0.8226  1.6203  1.6068
22139SOL    HW278072   2.028   9.366   3.416 -1.6658 -0.3621 -0.4485
22140SOL     OW78073   8.145   4.448   3.408 -0.2743 -0.5092  0.7265
22140SOL    HW178074   8.174   4.510   3.336 -1.9038 -0.0443  0.4449
22140SOL    HW278075   8.138   4.355   3.372  0.5648 -0.5810  0.7336
22141SOL     OW78076   5.314   8.019   4.520  0.0350  0.3997 -0.0493
22141SOL    HW178077   5.309   8.118   4.516 -2.0238  0.4406  2.1967
22141SOL    HW278078   5.362   7.991   4.603 -0.9835 -0.4792  0.2580
22142SOL     OW78079   4.003   9.709   8.072  0.3800  0.3331 -0.7452
22142SOL    HW178080   3.913   9.685   8.110  0.8661  0.7912  0.7320
22142SOL    HW278081   3.995   9.793   8.018  0.2571  1.3778  0.8760
22143SOL     OW78082   2.803   5.953   5.691 -0.7282  0.4366  0.1977
22143SOL    HW178083   2.801   5.853   5.699 -1.0339  0.4547  0.3450
22143SOL    HW278084   2.889   5.987   5.729 -1.6183  0.4139  2.3078
22144SOL     OW78085   5.768   1.532   5.566 -0.0815  0.3410 -0.0446
22144SOL    HW178086   5.718   1.462   5.516 -0.5513 -0.4710  1.5186
22144SOL    HW278087   5.714   1.561   5.646  1.4836  0.1885  1.0870
22145SOL     OW78088   1.516   0.627   2.640 -0.0595 -0.2026  0.5329
22145SOL    HW178089   1.478   0.542   2.604  0.4187  0.0049 -0.4644
22145SOL    HW278090   1.451   0.668   2.705 -0.4755 -1.0971  0.6883
22146SOL     OW78091   8.709   9.641   2.557 -0.0270  0.2356  0.5323
22146SOL    HW178092   8.771   9.640   2.635  0.1592 -1.6389  0.3867
22146SOL    HW278093   8.736   9.714   2.494  1.0339  0.4813  1.2536
22147SOL     OW78094   7.361   6.411   7.434  0.3189  0.3265 -0.6924
22147SOL    HW178095   7.436   6.475   7.449 -0.0191 -0.0175  2.8628
22147SOL    HW278096   7.276   6.450   7.470 -0.1305 -1.5325  0.3419
22148SOL     OW78097   3.980   6.750   1.967 -0.0590 -0.2106  0.2557
22148SOL    HW178098   4.036   6.827   1.999 -0.4875  0.4418 -0.5520
22148SOL    HW278099   4.034   6.666   1.974  0.7790  0.3058  0.1781
22149SOL     OW78100   3.515   6.917   1.397  0.1001 -0.3875  0.2338
22149SOL    HW178101   3.538   7.004   1.440 -0.7810 -0.0082 -0.0541
22149SOL    HW278102   3.415   6.909   1.388  0.2419 -0.7375 -1.1697
22150SOL     OW78103   4.911   3.701   4.809  0.0263  0.0250 -0.1869
22150SOL    HW178104   4.942   3.795   4.798 -0.4616  0.2585  0.4452
22150SOL    HW278105   4.943   3.646   4.731 -0.2873  0.8617 -0.9143
22151SOL     OW78106   7.312   0.663   5.890 -0.0403  0.1412 -0.4009
22151SOL    HW178107   7.235   0.719   5.860 -0.5847 -0.4524 -0.1190
22151SOL    HW278108   7.390   0.678   5.829 -0.7779 -0.2197 -1.4440
22152SOL     OW78109   1.504   5.620   8.177  0.0493  0.5171  0.0417
22152SOL    HW178110   1.550   5.704   8.149  0.1364  0.5123  0.1676
22152SOL    HW278111   1.572   5.547   8.187  0.3472  1.1008  2.5205
22153SOL     OW78112   1.171   6.313   5.473  0.3858 -0.1071  0.0651
22153SOL    HW178113   1.219   6.284   5.390 -0.4394  1.6350 -1.0319
22153SOL    HW278114   1.197   6.407   5.495 -0.8747  0.0970  0.6925
22154SOL     OW78115   0.221   1.049   3.491  0.3755  0.3012  0.6514
22154SOL    HW178116   0.283   0.976   3.520  0.3978 -0.4208 -1.1572
22154SOL    HW278117   0.134   1.009   3.462 -0.9255  1.2977  2.9963
22155SOL     OW78118   3.490   2.304   4.549 -0.2642  0.0789  0.3575
22155SOL    HW178119   3.498   2.380   4.613 -2.3308  0.1272  0.5958
22155SOL    HW278120   3.565   2.307   4.484 -0.6660  2.7104 -0.0280
22156SOL     OW78121   1.344   3.759   6.568 -0.3317 -0.0388 -0.1490
22156SOL    HW178122   1.332   3.663   6.593  0.1122  0.1673  0.8807
22156SOL    HW278123   1.261   3.792   6.523 -0.8351 -0.6539  0.3066
22157SOL     OW78124   2.826   1.100   6.709 -0.6739  0.8184 -0.5714
22157SOL    HW178125   2.867   1.140   6.627  0.5594  0.0168 -0.3525
22157SOL    HW278126   2.840   1.001   6.708 -1.5509  0.6886  0.1066
22158SOL     OW78127   3.547   1.160   1.052 -0.2974 -1.2725 -0.0961
22158SOL    HW178128   3.461   1.114   1.076 -0.9228 -1.0697 -1.7934
22158SOL    HW278129   3.537   1.201   0.961  0.8893  0.5883  0.5971
22159SOL     OW78130   8.315   3.238   3.134 -0.2672 -0.0395 -1.2754
22159SOL    HW178131   8.292   3.177   3.058  0.6708 -0.9805 -0.8095
22159SOL    HW278132   8.409   3.222   3.163 -1.2764 -1.2701  1.5239
22160SOL     OW78133   2.132   4.520   1.378  0.1896 -0.0078 -0.3639
22160SOL    HW178134   2.146   4.430   1.336  1.0076  0.7171 -1.6539
22160SOL    HW278135   2.091   4.582   1.312 -0.5543  0.5318  0.5808
22161SOL     OW78136   3.006   8.687   0.555 -0.2649 -0.2964 -0.2255
22161SOL    HW178137   3.030   8.775   0.514  0.4660  0.3736  1.6143
22161SOL    HW278138   2.987   8.620   0.482 -2.0293  1.6855 -1.6414
22162SOL     OW78139   7.051   0.230   4.213 -0.8324 -0.1138  0.3097
22162SOL    HW178140   7.075   0.301   4.147 -1.7848  0.8922  1.0150
22162SOL    HW278141   7.033   0.273   4.302 -0.0864 -1.3887  1.0841
22163SOL     OW78142   7.686   4.573   6.460  0.0099 -0.1517  0.5592
22163SOL    HW178143   7.646   4.566   6.369 -0.4526 -0.0685  0.7545
22163SOL    HW278144   7.713   4.667   6.479 -0.0935 -0.1294  0.5929
22164SOL     OW78145   0.699   0.088   2.724  0.0673 -0.8027 -0.4073
22164SOL    HW178146   0.677   0.013   2.787  0.7434 -1.7166 -1.2465
22164SOL    HW278147   0.626   0.098   2.657 -0.1739 -0.4873 -0.1040
22165SOL     OW78148   0.187   8.822   5.214  0.1949  0.0209 -0.5444
22165SOL    HW178149   0.187   8.834   5.114  2.6559 -0.4635 -0.6509
22165SOL    HW278150   0.279   8.794   5.243 -0.3461  0.7610  1.9412
22166SOL     OW78151   9.310   9.987   1.239  0.2189  0.1821 -0.0972
22166SOL    HW178152   9.349  10.058   1.297  0.7227  0.2232 -0.4808
22166SOL    HW278153   9.284  10.026   1.151 -0.6920  0.1534  0.1517
22167SOL     OW78154   1.027   7.558   0.627  0.2198  0.1109 -0.1068
22167SOL    HW178155   0.989   7.468   0.652 -0.8547  0.3047 -1.0157
22167SOL    HW278156   1.100   7.582   0.691 -1.2116 -0.2612  1.7043
22168SOL     OW78157   6.296   2.022   4.870 -0.4331 -0.0839 -0.2951
22168SOL    HW178158   6.298   2.118   4.898  2.8692 -0.1598 -0.0271
22168SOL    HW278159   6.285   1.964   4.951 -2.4536  0.0419 -0.4599
22169SOL     OW78160   8.051   8.461   1.270 -0.4648 -0.5897  0.0389
22169SOL    HW178161   8.081   8.463   1.365  1.0114  1.7480 -0.4332
22169SOL    HW278162   8.107   8.395   1.219  2.1555  1.7501 -0.2307
22170SOL     OW78163   6.703   2.731   1.439 -0.2239  0.3780  0.4355
22170SOL    HW178164   6.664   2.756   1.527  0.2338  3.2585 -0.1367
22170SOL    HW278165   6.803   2.726   1.447 -0.1967  0.4359  0.1282
22171SOL     OW78166   0.092   5.358   3.506 -0.2706 -0.3489 -0.2956
22171SOL    HW178167   0.059   5.270   3.471 -1.3184 -0.2179  0.3463
22171SOL    HW278168   0.079   5.362   3.605  1.2572 -0.0998 -0.0936
22172SOL     OW78169   3.922   3.377   3.988  0.0036 -0.6454 -0.1005
22172SOL    HW178170   3.888   3.299   4.040 -0.0516 -1.1856 -0.9341
22172SOL    HW278171   3.959   3.345   3.900  1.7952  0.0258  0.3812
22173SOL     OW78172   1.446   8.652   5.565  0.3585 -0.1584  0.7343
22173SOL    HW178173   1.365   8.622   5.615 -0.6971 -0.7696 -1.3117
22173SOL    HW278174   1.439   8.749   5.544  0.8283  0.1140  1.7627
22174SOL     OW78175   7.875   7.703   7.534  0.2217  0.2393  0.2810
22174SOL    HW178176   7.797   7.749   7.578  1.3505  1.5296  0.9463
22174SOL    HW278177   7.949   7.692   7.600  0.8930 -0.3248 -0.5615
22175SOL     OW78178   4.989   2.834   0.984  0.6842 -0.3885  0.8373
22175SOL    HW178179   4.958   2.914   0.933 -0.6094 -0.3325  1.6895
22175SOL    HW278180   5.074   2.800   0.944  1.0457  1.1755  0.2348
22176SOL     OW78181   0.277   5.805   1.714 -0.3578 -0.7628 -0.6785
22176SOL    HW178182   0.192   5.857   1.708 -1.7517 -3.0661 -1.5990
22176SOL    HW278183   0.321   5.823   1.802 -1.7008  0.5676 -0.2503
22177SOL     OW78184   1.715   5.452   7.933 -0.1997  0.6928  0.7168
22177SOL    HW178185   1.707   5.367   7.881 -0.5840  1.3625 -0.3469
22177SOL    HW278186   1.757   5.522   7.875 -3.6868  2.4160  0.1780
22178SOL     OW78187   1.248   0.611   5.721  0.4830 -0.6435  0.2483
22178SOL    HW178188   1.348   0.603   5.725  0.6064 -0.1513 -1.4521
22178SOL    HW278189   1.223   0.708   5.726  0.1700 -0.6760 -0.6268
22179SOL     OW78190   5.550   3.403   0.686 -0.3064  0.0543 -0.0539
22179SOL    HW178191   5.615   3.352   0.742 -0.5985 -2.5148 -1.9418
22179SOL    HW278192   5.513   3.480   0.739  1.3556 -0.7318  2.3418
22180SOL     OW78193   8.511   1.316   0.840 -0.6643 -0.2429  0.0406
22180SOL    HW178194   8.512   1.385   0.913 -2.0078  1.3757 -1.4482
22180SOL    HW278195   8.457   1.237   0.870 -2.7433  1.1856  0.1279
22181SOL     OW78196   9.182   8.700   7.647 -0.1196 -0.8466 -0.5387
22181SOL    HW178197   9.258   8.763   7.631  0.0949 -1.5901 -2.6052
22181SOL    HW278198   9.186   8.625   7.581 -1.7442 -1.7529  0.3516
22182SOL     OW78199   7.046   0.679   0.397 -0.0502 -0.0007 -0.2651
22182SOL    HW178200   7.094   0.765   0.414 -0.6230  0.6631 -1.9314
22182SOL    HW278201   6.975   0.666   0.466  2.2790 -0.8631  2.0853
22183SOL     OW78202   3.276   4.627   5.830  0.0437 -0.3530 -0.1918
22183SOL    HW178203   3.283   4.560   5.904 -0.7175  0.9145  1.0458
22183SOL    HW278204   3.321   4.712   5.858  0.7489 -0.2452 -1.6334
22184SOL     OW78205   0.468   2.405   3.508  0.2409  0.2762  0.6324
22184SOL    HW178206   0.462   2.367   3.600  0.6377  1.4062  1.1407
22184SOL    HW278207   0.453   2.333   3.441 -1.3665 -0.3075  1.6014
22185SOL     OW78208   3.927   0.079   8.154 -0.2892 -0.0493 -0.0182
22185SOL    HW178209   3.914   0.178   8.151  0.3966  0.0306 -0.9682
22185SOL    HW278210   3.898   0.043   8.242  0.0246  1.0882  0.5560
22186SOL     OW78211   8.799   8.377   3.097  0.8852  0.3771 -0.1741
22186SOL    HW178212   8.880   8.327   3.065  0.9707  0.1480  0.3950
22186SOL    HW278213   8.827   8.444   3.166  0.4153 -0.5647  0.9381
22187SOL     OW78214   7.898   6.124   0.797 -0.1180 -0.1531  0.2882
22187SOL    HW178215   7.972   6.187   0.821  0.6747 -1.0462  0.2384
22187SOL    HW278216   7.903   6.104   0.699 -0.7064  0.1299  0.1982
22188SOL     OW78217   9.017   3.877   2.474 -0.1410 -0.2055 -0.4491
22188SOL    HW178218   8.948   3.835   2.534 -0.1197  0.3181 -0.0569
22188SOL    HW278219   9.046   3.810   2.405 -1.2678 -0.3259 -0.8107
22189SOL     OW78220   9.073   3.607   4.691 -0.0146 -0.0616 -0.2352
22189SOL    HW178221   9.080   3.556   4.605  2.4167 -0.7422  0.3252
22189SOL    HW278222   9.126   3.692   4.683 -0.4736  0.2779  0.3201
22190SOL     OW78223   9.466   7.646   6.685 -0.4803 -0.8864 -0.3196
22190SOL    HW178224   9.467   7.722   6.620 -3.1638  0.4276  1.0798
22190SOL    HW278225   9.427   7.565   6.641  0.0182 -0.7354 -1.0523
22191SOL     OW78226   3.027   9.771   1.065 -0.3763  0.1029  0.0047
22191SOL    HW178227   3.019   9.753   0.967  0.5654  0.8675 -0.2224
22191SOL    HW278228   2.944   9.741   1.112  0.4348 -3.2945 -0.5633
22192SOL     OW78229   2.965   9.253   0.640 -0.4393  0.3008  0.3660
22192SOL    HW178230   2.870   9.271   0.613 -0.6584 -0.8235  0.3653
22192SOL    HW278231   2.966   9.179   0.708  0.4878 -0.1383 -0.1278
22193SOL     OW78232   3.023   3.687   7.345 -0.1002  0.5561  0.1659
22193SOL    HW178233   3.051   3.691   7.249  0.4005  0.6450  0.3176
22193SOL    HW278234   2.941   3.744   7.358  0.4481  1.3945  0.0030
22194SOL     OW78235   4.040   1.806   2.611  0.1020  0.0698  0.2693
22194SOL    HW178236   4.044   1.900   2.577  3.3184 -0.5555 -1.3076
22194SOL    HW278237   4.059   1.805   2.709  1.4939  0.9854  0.0265
22195SOL     OW78238   9.940   0.628   5.210 -0.1920  1.0829 -0.2928
22195SOL    HW178239   9.900   0.550   5.161  0.8701  0.5387 -0.3383
22195SOL    HW278240   9.951   0.705   5.148  0.8793  0.4896 -0.8570
22196SOL     OW78241   3.387   7.677   6.344 -0.7415  0.4820  0.0180
22196SOL    HW178242   3.479   7.648   6.372 -0.3006  1.5824 -0.2815
22196SOL    HW278243   3.324   7.667   6.422 -0.1176  0.8586  0.5794
22197SOL     OW78244   1.351   3.535   6.887  0.2487  0.6452  0.3014
22197SOL    HW178245   1.350   3.478   6.969  2.2332  0.1166  0.0045
22197SOL    HW278246   1.266   3.523   6.837 -0.7353  0.5229  1.9775
22198SOL     OW78247   4.128   0.019   3.379  0.2910  0.2079  0.6897
22198SOL    HW178248   4.063   0.095   3.377 -0.5600 -0.5242  0.4677
22198SOL    HW278249   4.091  -0.055   3.435  1.2344  0.0494  1.1146
22199SOL     OW78250   9.687   6.869   1.782 -0.1958 -0.2276 -0.1031
22199SOL    HW178251   9.720   6.961   1.801 -0.6740 -0.3280  1.2550
22199SOL    HW278252   9.716   6.842   1.690  3.5994 -0.3495  1.0471
22200SOL     OW78253   6.995   2.689   1.877 -0.1204 -0.2590 -0.0423
22200SOL    HW178254   6.962   2.610   1.825  1.6518 -1.1507  0.1200
22200SOL    HW278255   7.076   2.662   1.930  1.4486  2.0322 -1.1522
22201SOL     OW78256   7.808   5.112   6.496  0.4403  0.3880  0.4045
22201SOL    HW178257   7.838   5.165   6.575  1.5613  0.8712 -0.3175
22201SOL    HW278258   7.875   5.122   6.422  0.9377 -2.4151  0.4089
22202SOL     OW78259   9.485   6.907   4.569  0.3335  0.1800 -0.3792
22202SOL    HW178260   9.495   6.831   4.633 -0.0370 -0.3593 -0.9459
22202SOL    HW278261   9.485   6.993   4.619  0.9515 -0.1792  0.2553
22203SOL     OW78262   3.487   9.777   6.781  0.2360 -0.3905  0.5231
22203SOL    HW178263   3.556   9.755   6.712  0.1944 -0.3659  0.4746
22203SOL    HW278264   3.525   9.845   6.844 -0.3144  0.8043 -0.4289
22204SOL     OW78265   7.674   5.604   4.296 -0.1608 -0.1498 -0.2268
22204SOL    HW178266   7.651   5.701   4.299  0.0450 -0.0831 -0.8224
22204SOL    HW278267   7.637   5.563   4.213  0.0167 -0.5183 -0.1260
22205SOL     OW78268   7.994   7.516   2.757  0.1275 -0.4048  0.2413
22205SOL    HW178269   8.020   7.453   2.830  0.0100 -1.1101 -0.3134
22205SOL    HW278270   7.946   7.465   2.685  1.5511  0.0148 -1.0237
22206SOL     OW78271   4.020   4.127   2.679  0.3387 -0.5031  0.3469
22206SOL    HW178272   3.944   4.064   2.697 -0.4439  0.3417  0.0027
22206SOL    HW278273   4.082   4.085   2.612 -1.6850  0.2516 -2.0599
22207SOL     OW78274   2.836   3.044   2.482 -0.8611  0.3119 -0.2334
22207SOL    HW178275   2.853   2.998   2.569 -0.7788  2.0902  0.7218
22207SOL    HW278276   2.909   3.021   2.417 -0.2383 -0.0401  0.5806
22208SOL     OW78277   2.869   5.405   0.033 -0.4475  0.4413  0.7769
22208SOL    HW178278   2.906   5.416   0.126 -0.5903 -0.2501  0.9199
22208SOL    HW278279   2.772   5.428   0.034 -0.3572  0.8318  0.7105
22209SOL     OW78280   0.043   4.224   6.595 -0.1758 -0.2776 -0.6788
22209SOL    HW178281  -0.008   4.138   6.607  0.1633 -0.6138 -1.6144
22209SOL    HW278282   0.091   4.222   6.507  0.9729  0.2892 -0.0705
22210SOL     OW78283   8.470   9.898   3.398 -0.1807  0.1739  0.0932
22210SOL    HW178284   8.552   9.918   3.344 -1.4101  0.5330 -1.6810
22210SOL    HW278285   8.485   9.816   3.452  1.0747 -0.2014 -0.7965
22211SOL     OW78286   7.923   1.340   1.331 -0.2047  0.7498  0.3699
22211SOL    HW178287   7.882   1.325   1.241  0.9108  0.7065 -0.1421
22211SOL    HW278288   7.873   1.287   1.400  0.1285 -0.7374 -0.5266
22212SOL     OW78289   7.507   4.192   3.058  0.1474 -0.1784  0.2181
22212SOL    HW178290   7.492   4.256   2.983  0.5316  0.2813  0.5292
22212SOL    HW278291   7.503   4.098   3.024  1.3851  0.0450 -0.5721
22213SOL     OW78292   8.515   9.783   2.277 -0.1928 -0.2108 -0.1149
22213SOL    HW178293   8.606   9.801   2.317 -0.0854  0.5818 -0.7155
22213SOL    HW278294   8.523   9.713   2.207  0.1229  0.5315 -0.8323
22214SOL     OW78295   4.185   1.244   1.411 -0.7185  0.7647 -0.2978
22214SOL    HW178296   4.106   1.238   1.472 -0.2891  0.2965  0.2187
22214SOL    HW278297   4.266   1.209   1.458 -0.1908  1.2814 -0.8047
22215SOL     OW78298   3.186   4.966   2.668 -0.1015 -0.1090  0.1884
22215SOL    HW178299   3.233   5.022   2.600  0.8610 -1.1808 -0.0405
22215SOL    HW278300   3.246   4.892   2.697 -1.6914 -1.5603 -0.1737
22216SOL     OW78301   4.010   9.647   1.599 -0.7276 -0.4998  0.2006
22216SOL    HW178302   4.013   9.681   1.506  1.8416  0.5565  0.6188
22216SOL    HW278303   4.046   9.554   1.602 -0.5554 -0.4354  0.1625
22217SOL     OW78304   6.946   0.414   1.614  0.1104  0.0883 -0.6017
22217SOL    HW178305   6.959   0.444   1.519 -1.0994  1.9720 -0.1784
22217SOL    HW278306   7.034   0.416   1.661  0.7571 -1.0221 -1.7050
22218SOL     OW78307   9.633   2.090   4.289  0.1105 -0.0599 -0.1930
22218SOL    HW178308   9.617   2.097   4.190  0.1041 -1.3849 -0.2979
22218SOL    HW278309   9.594   2.005   4.323  0.4557  0.2044  0.8910
22219SOL     OW78310   4.772   1.882   7.179  0.2276  0.0696 -0.1367
22219SOL    HW178311   4.761   1.889   7.278  1.5677 -0.5222  0.0666
22219SOL    HW278312   4.856   1.929   7.152 -1.4724  2.5281 -1.3369
22220SOL     OW78313   0.271   9.203   6.712 -0.2948 -0.4362  0.2922
22220SOL    HW178314   0.236   9.180   6.803 -2.1956  1.8588  0.2015
22220SOL    HW278315   0.241   9.134   6.646  0.0574 -1.4503  1.1858
22221SOL     OW78316   3.362   0.623   3.662  0.0197  0.0685 -0.2162
22221SOL    HW178317   3.285   0.567   3.629 -0.1189 -0.0196  0.2564
22221SOL    HW278318   3.358   0.630   3.762 -0.4133  1.5704 -0.3304
22222SOL     OW78319   7.879   7.109   1.653  0.1111  0.4194 -0.1821
22222SOL    HW178320   7.940   7.178   1.691 -0.8838  0.4535  1.3909
22222SOL    HW278321   7.933   7.032   1.619  1.1392  1.3633 -0.6846
22223SOL     OW78322   8.350   1.898   6.861 -0.0754  0.1792 -0.0495
22223SOL    HW178323   8.276   1.959   6.835 -0.6071 -1.4802 -2.6611
22223SOL    HW278324   8.330   1.805   6.829  3.2756 -0.2353 -1.2184
22224SOL     OW78325   4.295   3.524   5.268 -0.1652  0.4459 -0.0228
22224SOL    HW178326   4.239   3.441   5.273 -1.4432  1.1764 -1.6878
22224SOL    HW278327   4.234   3.604   5.272  0.9868  1.2911  0.7554
22225SOL     OW78328   3.744   4.120   4.553 -0.0611  0.0539  0.4008
22225SOL    HW178329   3.832   4.080   4.578 -1.9398 -3.7138  1.2833
22225SOL    HW278330   3.729   4.110   4.455 -0.2342 -0.8477  0.5171
22226SOL     OW78331   9.235   7.095   2.372  0.2315  0.3625  0.7351
22226SOL    HW178332   9.279   7.016   2.329  0.4513  0.9178 -0.0744
22226SOL    HW278333   9.249   7.176   2.315 -0.1697  0.9447  1.4574
22227SOL     OW78334   7.413   7.561   3.936 -0.0807  0.2414 -0.6092
22227SOL    HW178335   7.464   7.647   3.943 -1.1437  0.8838 -0.5381
22227SOL    HW278336   7.318   7.581   3.913  0.2845 -1.0729 -3.4757
22228SOL     OW78337   3.280   5.057   3.126 -0.4035 -0.2430  0.0228
22228SOL    HW178338   3.324   5.043   3.215  0.0271  0.2944 -0.1017
22228SOL    HW278339   3.315   5.141   3.084  2.1831 -2.4170 -2.3504
22229SOL     OW78340   9.354   6.984   1.970 -0.2972  0.6922 -0.2280
22229SOL    HW178341   9.348   6.892   1.930  0.0482  0.8297 -0.6015
22229SOL    HW278342   9.405   7.044   1.908  0.9772  0.6929  0.7865
22230SOL     OW78343   4.027   2.245   2.958  0.5139 -0.3607 -0.0372
22230SOL    HW178344   3.970   2.178   3.005 -0.5467 -0.4204 -1.4064
22230SOL    HW278345   3.986   2.269   2.871  1.6671  0.9492 -0.2351
22231SOL     OW78346   4.947   2.637   4.017  0.1036 -0.4362 -0.3988
22231SOL    HW178347   4.881   2.704   3.983 -0.0136 -0.2188  0.2415
22231SOL    HW278348   4.984   2.669   4.104  3.1405  0.8031 -2.0503
22232SOL     OW78349   4.456   8.303   7.351 -0.0101  0.2724 -0.5355
22232SOL    HW178350   4.374   8.309   7.295 -1.6293  0.2703  1.7708
22232SOL    HW278351   4.475   8.208   7.374  0.1934  0.3309 -0.4541
22233SOL     OW78352   9.020   8.711   3.018 -0.1912  0.1470  0.1787
22233SOL    HW178353   9.052   8.636   3.075  1.0861 -0.9546 -1.9157
22233SOL    HW278354   9.098   8.767   2.990 -0.5750 -0.2136 -1.6820
22234SOL     OW78355   1.080   2.454   0.059  0.3031 -0.4974  0.3389
22234SOL    HW178356   1.010   2.409   0.114 -1.8525  1.1917 -0.9446
22234SOL    HW278357   1.050   2.547   0.035  2.5851 -0.0538 -1.0101
22235SOL     OW78358   0.087   3.843   0.268 -0.3524 -0.6204  0.2362
22235SOL    HW178359   0.150   3.773   0.301  0.1129  0.5642  1.8845
22235SOL    HW278360   0.137   3.929   0.253 -1.3359 -0.0160  0.3530
22236SOL     OW78361   8.893   3.684   5.691 -0.5318  0.3974  0.1109
22236SOL    HW178362   8.949   3.763   5.715 -1.8291  1.5684 -0.6485
22236SOL    HW278363   8.944   3.600   5.711  1.7674  1.4217 -1.2673
22237SOL     OW78364   3.511   9.825   1.979  0.0237 -0.2541  0.1521
22237SOL    HW178365   3.524   9.805   1.882  1.0562 -2.7012  0.7728
22237SOL    HW278366   3.575   9.896   2.007 -1.4734  1.7759 -1.3187
22238SOL     OW78367   4.779   3.206   7.724  0.0569 -0.1204  0.5413
22238SOL    HW178368   4.754   3.127   7.779 -0.7664 -0.5032 -0.3712
22238SOL    HW278369   4.831   3.270   7.780  0.0792 -0.9563  1.4910
22239SOL     OW78370   3.584   1.218   4.158  0.6736 -0.1184 -0.3779
22239SOL    HW178371   3.490   1.186   4.146  0.4074  0.3129  0.5246
22239SOL    HW278372   3.616   1.192   4.249  1.3123  0.0319 -0.5590
22240SOL     OW78373   1.177   6.132   7.630  0.1463  0.0847 -0.0717
22240SOL    HW178374   1.104   6.137   7.697  0.3934  1.1939  0.1350
22240SOL    HW278375   1.141   6.152   7.539  0.2098  0.7749  0.0505
22241SOL     OW78376   6.807   8.274   3.219 -0.0058 -0.0675 -0.6180
22241SOL    HW178377   6.759   8.194   3.256  0.0017 -0.1188 -0.7185
22241SOL    HW278378   6.873   8.244   3.149 -0.4226  0.0810 -1.0781
22242SOL     OW78379   5.511   5.898   0.466  0.0151  0.4781  0.2126
22242SOL    HW178380   5.515   5.898   0.366 -0.2081  0.7041  0.2046
22242SOL    HW278381   5.427   5.851   0.496  0.6559 -0.6374  0.3144
22243SOL     OW78382   5.370   0.729   3.345 -0.2001 -0.0488 -0.5698
22243SOL    HW178383   5.312   0.691   3.272 -0.7144  1.3423 -0.9070
22243SOL    HW278384   5.361   0.673   3.427  0.4007 -1.6458 -1.5762
22244SOL     OW78385   9.412   0.142   1.613 -0.3149  0.4133 -0.3994
22244SOL    HW178386   9.361   0.062   1.646 -1.0970  1.2912  0.5855
22244SOL    HW278387   9.347   0.215   1.590  0.4505  1.2040 -0.0762
22245SOL     OW78388   0.881   4.859   4.788  0.2185 -0.0981  0.2675
22245SOL    HW178389   0.785   4.882   4.776  0.3793 -0.0168 -0.8488
22245SOL    HW278390   0.935   4.900   4.716  1.1371  0.0872  1.0473
22246SOL     OW78391   5.072   4.533   7.537 -0.2694  0.0839  0.0094
22246SOL    HW178392   5.009   4.609   7.553 -0.2229 -0.1420  1.3428
22246SOL    HW278393   5.133   4.556   7.462 -1.6860  0.4621 -1.0558
22247SOL     OW78394   0.760   0.225   6.184 -0.0474 -0.4740 -0.9392
22247SOL    HW178395   0.709   0.214   6.099 -1.8042 -2.3189  0.3113
22247SOL    HW278396   0.760   0.139   6.235  1.0853  0.5628  0.8798
22248SOL     OW78397   0.551   5.555   6.040 -0.2389  0.4429  0.1130
22248SOL    HW178398   0.650   5.550   6.034 -0.2248 -2.0242  1.7165
22248SOL    HW278399   0.524   5.643   6.080  1.0801  2.5152 -3.3383
22249SOL     OW78400   1.315   7.330   6.674  0.6201  0.5436  0.1452
22249SOL    HW178401   1.327   7.230   6.678 -1.4159  0.1572 -2.2413
22249SOL    HW278402   1.281   7.356   6.584  2.8551  3.6347  0.1120
22250SOL     OW78403   1.364   6.550   2.028  0.0732 -0.2373 -0.0545
22250SOL    HW178404   1.296   6.539   1.956 -0.6716 -1.4675  0.8163
22250SOL    HW278405   1.384   6.460   2.069  0.0133  0.5368  1.7048
22251SOL     OW78406   7.792   1.295   7.182 -0.5342 -0.5352  0.1742
22251SOL    HW178407   7.745   1.269   7.266 -1.5933 -1.4921 -0.6869
22251SOL    HW278408   7.833   1.213   7.140  1.0583  0.1232  0.3850
22252SOL     OW78409   3.034   9.776   2.881 -0.4296 -0.2799  0.0996
22252SOL    HW178410   3.089   9.720   2.819  0.1827 -0.8236  1.1205
22252SOL    HW278411   3.016   9.724   2.965  1.5644  1.6176  1.7689
22253SOL     OW78412   8.723   7.221   1.907 -0.1807 -0.2088  0.3307
22253SOL    HW178413   8.710   7.170   1.992 -0.8105  0.0076  0.3723
22253SOL    HW278414   8.780   7.169   1.845 -0.9300 -1.0260  0.3225
22254SOL     OW78415   6.847   5.370   7.078  0.4905  0.0917 -0.2775
22254SOL    HW178416   6.756   5.404   7.103  0.2095  0.0951 -1.2829
22254SOL    HW278417   6.879   5.417   6.995  1.1423 -0.3488 -0.2812
22255SOL     OW78418   4.671   0.177   2.938  0.5747 -0.2572  0.3212
22255SOL    HW178419   4.759   0.202   2.898 -0.4599  1.5317 -0.9501
22255SOL    HW278420   4.663   0.218   3.029  0.3273  1.1229 -0.3137
22256SOL     OW78421   3.959   0.141   5.434  0.0053 -0.8051 -0.8326
22256SOL    HW178422   3.959   0.074   5.508 -0.2765 -1.3031 -1.2814
22256SOL    HW278423   3.943   0.233   5.471 -1.0537 -1.1705 -0.3880
22257SOL     OW78424   7.366   8.381   2.831  0.0947 -0.2256  0.1270
22257SOL    HW178425   7.303   8.319   2.878 -0.7923  0.1672 -0.5343
22257SOL    HW278426   7.336   8.475   2.844  0.1757 -0.0771 -0.7483
22258SOL     OW78427   9.832   0.840   6.359 -0.3321  0.1095 -0.2354
22258SOL    HW178428   9.843   0.741   6.354 -0.3705  0.1045 -0.2183
22258SOL    HW278429   9.789   0.874   6.276  1.0433  0.2913 -0.8890
22259SOL     OW78430   9.332   1.078   2.706  0.2524 -0.0752  0.0231
22259SOL    HW178431   9.271   1.048   2.633 -0.7636 -0.6997  1.1317
22259SOL    HW278432   9.377   1.163   2.678 -0.4340 -0.0945 -1.1672
22260SOL     OW78433   7.951   1.067   7.676 -0.2042  0.3919 -0.0893
22260SOL    HW178434   7.853   1.064   7.696 -0.3914 -1.8839 -1.1988
22260SOL    HW278435   8.000   1.009   7.740 -0.1048 -1.9195 -2.1985
22261SOL     OW78436   0.982   5.168   1.743  0.1116  0.8335  0.1068
22261SOL    HW178437   1.018   5.200   1.831  1.6478  0.8521 -0.5109
22261SOL    HW278438   1.002   5.236   1.672 -1.0545  0.7836 -0.2669
22262SOL     OW78439   4.850   1.626   5.337  0.0621  0.4077  0.5220
22262SOL    HW178440   4.845   1.621   5.437 -1.0250 -0.8399  0.4142
22262SOL    HW278441   4.879   1.538   5.300 -0.1367  0.6823 -0.2971
22263SOL     OW78442   8.631   0.111   5.877 -0.1165  0.3639 -0.2818
22263SOL    HW178443   8.567   0.108   5.800 -2.5923  0.6317  1.7127
22263SOL    HW278444   8.612   0.034   5.938 -0.9811  2.4503  2.1848
22264SOL     OW78445   8.146   5.468   0.510 -1.1397 -0.2547  0.1149
22264SOL    HW178446   8.057   5.480   0.466 -1.3990 -2.8180 -0.1800
22264SOL    HW278447   8.205   5.412   0.451  0.0727  0.0019  1.0627
22265SOL     OW78448   7.707   9.984   3.197 -0.3019  0.1717 -0.2168
22265SOL    HW178449   7.629  10.047   3.195 -0.6009 -0.1998 -0.3744
22265SOL    HW278450   7.700   9.925   3.278  0.4897  0.9756  0.4532
22266SOL     OW78451   7.948   4.606   6.232 -0.5281  0.4099  0.4928
22266SOL    HW178452   8.043   4.630   6.252 -0.5359 -0.4148  1.5776
22266SOL    HW278453   7.927   4.518   6.274 -2.4229  1.6047  2.0958
22267SOL     OW78454   0.919   8.545   3.396  0.0562  0.0982 -0.0569
22267SOL    HW178455   0.944   8.623   3.340  0.4989 -1.2442 -1.7873
22267SOL    HW278456   0.860   8.575   3.471 -0.0038  2.0315 -0.8494
22268SOL     OW78457   6.411   0.251   2.039  0.2620 -0.3045  0.2762
22268SOL    HW178458   6.380   0.223   2.130 -0.1419 -1.0615 -0.0900
22268SOL    HW278459   6.332   0.258   1.978  0.2848  2.1142  0.4746
22269SOL     OW78460   6.525   0.145   5.609  0.3074 -0.0790 -0.1286
22269SOL    HW178461   6.502   0.099   5.523  0.3389 -0.6347  0.1634
22269SOL    HW278462   6.612   0.194   5.597  0.3696 -0.2466 -0.3817
22270SOL     OW78463   3.003   6.389   7.807 -0.4318  0.0944 -0.0761
22270SOL    HW178464   3.030   6.420   7.716 -1.0815 -0.5321 -0.4959
22270SOL    HW278465   2.903   6.394   7.815 -0.2321  2.3724  1.4418
22271SOL     OW78466   7.873   2.206   4.157 -0.4505 -0.4813  0.3815
22271SOL    HW178467   7.823   2.241   4.078 -0.8708 -0.7258  0.5354
22271SOL    HW278468   7.953   2.156   4.126  0.4176  0.9993  0.1708
22272SOL     OW78469   3.109   6.803   6.515 -0.7990  0.2849 -0.5096
22272SOL    HW178470   3.030   6.777   6.461  0.0006 -1.2133 -0.9805
22272SOL    HW278471   3.085   6.802   6.612 -1.1056 -1.0614 -0.5974
22273SOL     OW78472   9.681   8.257   6.540 -0.7288 -0.6190 -0.2436
22273SOL    HW178473   9.649   8.211   6.457 -1.0333 -0.1431 -0.3894
22273SOL    HW278474   9.621   8.333   6.561  0.4138  0.4091 -0.6353
22274SOL     OW78475   2.073   3.048   3.648  0.0053 -0.3725  0.0363
22274SOL    HW178476   1.986   3.047   3.600 -0.9185 -2.9291  1.6806
22274SOL    HW278477   2.063   3.098   3.734  0.8861  1.6463 -1.0108
22275SOL     OW78478   2.193   3.094   6.174  0.7802 -0.1226 -0.2108
22275SOL    HW178479   2.228   3.017   6.122  3.4578 -0.2554  1.6705
22275SOL    HW278480   2.141   3.061   6.253  1.7868 -0.0372  0.5018
22276SOL     OW78481   1.698   9.012   1.049 -0.1471  0.3055  0.3646
22276SOL    HW178482   1.658   9.102   1.032  1.0229  0.5066 -1.4690
22276SOL    HW278483   1.656   8.971   1.130 -2.0487  1.6867  0.1033
22277SOL     OW78484   6.526   5.982   8.065 -0.2161  0.7759  0.3141
22277SOL    HW178485   6.515   5.950   8.160 -0.7116 -0.1764 -0.0525
22277SOL    HW278486   6.623   5.991   8.044  0.0393 -2.4078 -0.1616
22278SOL     OW78487   4.464   7.509   1.616  0.0543  0.2097 -0.0889
22278SOL    HW178488   4.444   7.475   1.524 -1.0816  1.4218 -0.3041
22278SOL    HW278489   4.543   7.570   1.612  1.9552 -2.1776  0.2618
22279SOL     OW78490   0.847   9.169   1.565 -0.0230  0.4317 -0.3753
22279SOL    HW178491   0.751   9.143   1.574  0.3834 -0.9426  0.2438
22279SOL    HW278492   0.877   9.216   1.648 -0.0717  0.5261 -0.4115
22280SOL     OW78493   0.426   0.201   4.789  0.1516 -0.1144  0.0349
22280SOL    HW178494   0.401   0.227   4.882  2.6331  1.8564  0.2052
22280SOL    HW278495   0.416   0.280   4.729  3.5395  0.1428 -0.3182
22281SOL     OW78496   1.649   2.545   5.263  0.5050 -0.0342  0.2765
22281SOL    HW178497   1.733   2.510   5.305 -0.5015 -0.9760  1.5336
22281SOL    HW278498   1.650   2.645   5.267  2.2473  0.0433 -1.0968
22282SOL     OW78499   9.891   2.744   7.092 -0.3215 -0.1245  0.9273
22282SOL    HW178500   9.809   2.716   7.143 -0.5554 -0.1643  0.5349
22282SOL    HW278501   9.972   2.731   7.149 -0.7461  1.5390  1.9433
22283SOL     OW78502   0.939   4.391   4.184  0.1660 -0.3249  1.1103
22283SOL    HW178503   1.034   4.387   4.215 -0.5175  0.3411  3.3945
22283SOL    HW278504   0.887   4.315   4.225 -0.4233 -0.3025  0.4072
22284SOL     OW78505   9.940   7.781   2.565 -0.0787 -0.1972 -0.0384
22284SOL    HW178506   9.976   7.852   2.625 -0.2681  1.0508 -1.3880
22284SOL    HW278507   9.969   7.691   2.599  0.5792  0.5412  1.3891
22285SOL     OW78508   4.432   0.342   6.163  0.0618 -0.3276  0.2004
22285SOL    HW178509   4.399   0.409   6.096  1.9627  0.1077 -0.3492
22285SOL    HW278510   4.393   0.252   6.142 -0.8243  0.1821 -0.3652
22286SOL     OW78511   8.875   4.435   7.708 -0.1144  0.0543  0.0992
22286SOL    HW178512   8.853   4.511   7.769 -1.2677  0.4360 -0.7617
22286SOL    HW278513   8.930   4.469   7.631 -1.0586  0.1338 -0.5534
22287SOL     OW78514   2.738   4.636   0.454 -0.4149 -0.0567 -0.3133
22287SOL    HW178515   2.748   4.646   0.553  0.8788  0.6921 -0.5153
22287SOL    HW278516   2.736   4.726   0.410  1.8223 -0.4207 -1.2232
22288SOL     OW78517   9.963   0.485   5.470 -0.0499  0.3770  0.0909
22288SOL    HW178518  10.055   0.518   5.491 -0.2576  1.6789 -0.9636
22288SOL    HW278519   9.952   0.477   5.371 -0.4677 -1.5944  0.2731
22289SOL     OW78520   1.863   0.936   4.105 -0.0489 -0.3603  0.9127
22289SOL    HW178521   1.777   0.941   4.054  0.5952 -0.6699 -0.2096
22289SOL    HW278522   1.908   0.849   4.084 -0.4732 -1.1555  3.1261
22290SOL     OW78523   1.743   4.888   0.547  0.4020  0.7285  0.1237
22290SOL    HW178524   1.688   4.971   0.533 -0.4441 -0.0034 -1.0574
22290SOL    HW278525   1.771   4.882   0.642 -2.3851  0.6481  0.9979
22291SOL     OW78526   0.969   6.626   2.752  0.1928  0.1615 -0.0689
22291SOL    HW178527   0.973   6.721   2.722  1.0500 -0.2840 -1.4244
22291SOL    HW278528   0.876   6.591   2.742  0.3642  0.1715 -1.7734
22292SOL     OW78529   5.046   8.561   4.401 -0.1955  0.2498 -0.1702
22292SOL    HW178530   5.078   8.616   4.478  0.1925  1.4774 -1.1896
22292SOL    HW278531   4.947   8.546   4.410  0.2042 -1.3492  1.6210
22293SOL     OW78532   7.534   9.248   4.570  0.3701 -0.1800 -0.2186
22293SOL    HW178533   7.593   9.298   4.506 -2.8693  1.9841 -1.6307
22293SOL    HW278534   7.452   9.216   4.522 -0.0540 -2.3994  1.8900
22294SOL     OW78535   9.145   8.951   7.394 -0.5894 -0.0914 -0.1006
22294SOL    HW178536   9.221   8.892   7.422 -0.6920  0.2310  0.8938
22294SOL    HW278537   9.103   8.992   7.476 -0.8120  0.9884 -0.7489
22295SOL     OW78538   2.162   8.559   0.204  0.5436 -0.1311 -0.1470
22295SOL    HW178539   2.095   8.540   0.276 -0.0323  1.0666 -0.3419
22295SOL    HW278540   2.140   8.507   0.122 -0.3320  0.4962 -0.3103
22296SOL     OW78541   4.263   2.570   0.149 -0.0460  0.5702 -0.0534
22296SOL    HW178542   4.280   2.505   0.223  1.9014 -1.1474 -1.9370
22296SOL    HW278543   4.184   2.541   0.096  1.5478 -1.0132 -1.6326
22297SOL     OW78544   2.452   1.603   0.774 -0.1702  0.6174  0.7373
22297SOL    HW178545   2.525   1.596   0.842  0.9904  0.9710 -0.4600
22297SOL    HW278546   2.397   1.685   0.792  1.1248  1.6004  0.3044
22298SOL     OW78547   0.118   6.042   3.257 -0.0387 -0.0741  0.2150
22298SOL    HW178548   0.102   5.948   3.228 -0.3096 -0.0519  0.2855
22298SOL    HW278549   0.164   6.042   3.346  1.2623 -0.1412 -0.4633
22299SOL     OW78550   0.999   0.933   7.639 -0.1675  0.0267  0.6669
22299SOL    HW178551   1.083   0.879   7.643  0.7186  1.4598  1.7609
22299SOL    HW278552   0.993   0.979   7.551  1.6914  2.2337  1.6404
22300SOL     OW78553   0.574   1.893   3.461 -0.2400  0.1260 -0.0531
22300SOL    HW178554   0.522   1.969   3.420 -0.3255  0.5468  0.8247
22300SOL    HW278555   0.513   1.836   3.515 -0.0596 -0.2243 -0.2172
22301SOL     OW78556   4.644   4.346   1.957  0.2537  0.2889 -0.2543
22301SOL    HW178557   4.643   4.256   2.000  1.0828  0.3499 -0.0930
22301SOL    HW278558   4.721   4.399   1.992  1.2251  0.1780 -2.1357
22302SOL     OW78559   5.609   4.458   1.485  0.6865  0.7644 -0.5846
22302SOL    HW178560   5.559   4.473   1.400 -0.5578  1.9655  0.3412
22302SOL    HW278561   5.559   4.393   1.543  1.3230  0.2594 -0.5930
22303SOL     OW78562   7.908   6.052   5.546 -0.1343  0.5740 -0.0545
22303SOL    HW178563   7.915   6.017   5.452 -1.2794 -1.6873  0.6564
22303SOL    HW278564   7.835   6.121   5.550 -0.6599  0.0664 -0.6694
22304SOL     OW78565   3.348   9.134   6.643 -0.0139 -0.2430 -0.1327
22304SOL    HW178566   3.258   9.111   6.607  0.1436  0.3327 -0.9161
22304SOL    HW278567   3.340   9.166   6.737 -0.6427 -0.0550 -0.2459
22305SOL     OW78568   6.623   1.689   6.401 -1.0224  0.0158  0.4216
22305SOL    HW178569   6.605   1.608   6.458 -1.0249  1.3148  2.3015
22305SOL    HW278570   6.716   1.684   6.365 -0.6346 -0.3199  1.4310
22306SOL     OW78571   2.918   0.041   8.103  0.2973 -0.1178  0.1719
22306SOL    HW178572   2.819   0.032   8.102  0.3049 -0.2490  0.5344
22306SOL    HW278573   2.949   0.058   8.197  0.9954 -4.3380  0.8384
22307SOL     OW78574   3.344   9.190   6.905 -0.2935 -0.0690  0.2828
22307SOL    HW178575   3.414   9.260   6.891 -0.0946 -0.5005 -0.9456
22307SOL    HW278576   3.370   9.134   6.985  0.5618  0.0278  0.0840
22308SOL     OW78577   8.250   2.706   6.067  0.1696  0.4271  0.2990
22308SOL    HW178578   8.164   2.748   6.094 -0.3541 -0.9025  0.7284
22308SOL    HW278579   8.320   2.727   6.136 -0.3799 -0.3468  1.1072
22309SOL     OW78580   3.680   2.184   0.620  0.4067  0.5580  0.3641
22309SOL    HW178581   3.716   2.274   0.647  0.3277  1.0789 -1.1957
22309SOL    HW278582   3.727   2.154   0.536 -2.7414  1.2628 -1.7248
22310SOL     OW78583   2.668   4.134   3.463  0.2196 -0.3256 -0.3858
22310SOL    HW178584   2.709   4.167   3.378 -0.0266  2.4801  0.5489
22310SOL    HW278585   2.571   4.114   3.447  0.4001 -0.7570 -0.9822
22311SOL     OW78586   0.889   0.420   7.148  0.5313  0.1070 -0.2668
22311SOL    HW178587   0.942   0.360   7.208  1.5818  0.7658 -0.5145
22311SOL    HW278588   0.839   0.487   7.203  0.2003 -0.3254 -0.0436
22312SOL     OW78589   3.292   9.602   1.505 -0.3140  0.0099  0.4992
22312SOL    HW178590   3.357   9.553   1.562  0.7303 -0.2143 -0.8420
22312SOL    HW278591   3.252   9.540   1.438 -1.3622  0.3066  0.8490
22313SOL     OW78592   7.164   7.506   3.280  0.7511 -0.1194 -0.3790
22313SOL    HW178593   7.171   7.407   3.288  1.5152 -0.0779 -0.4994
22313SOL    HW278594   7.095   7.529   3.211  0.8096 -0.5662 -0.5881
22314SOL     OW78595   9.426   3.667   6.444  0.3593  0.0687 -0.4770
22314SOL    HW178596   9.358   3.741   6.442 -1.1280 -1.2068  1.2289
22314SOL    HW278597   9.473   3.667   6.532 -0.2075 -1.4685 -0.1584
22315SOL     OW78598   0.438   1.161   0.964  0.3737 -0.5325  0.8619
22315SOL    HW178599   0.495   1.177   0.883 -1.0683 -0.6668 -0.1915
22315SOL    HW278600   0.477   1.086   1.017  0.6220 -1.3027 -0.3846
22316SOL     OW78601   0.143   2.581   2.875 -0.1256 -0.1080 -0.1434
22316SOL    HW178602   0.097   2.657   2.830  0.3004  0.2901  0.0930
22316SOL    HW278603   0.079   2.536   2.937 -0.6216 -0.4615 -0.8996
22317SOL     OW78604   1.678   0.216   0.592 -0.1475 -0.1116  0.3401
22317SOL    HW178605   1.721   0.269   0.519 -1.3586 -0.7933 -0.9137
22317SOL    HW278606   1.720   0.125   0.596 -0.2191 -0.1439  0.3541
22318SOL     OW78607   1.279   8.843   6.795 -0.1896  0.2232  0.7231
22318SOL    HW178608   1.270   8.943   6.793 -1.0620  0.1741  1.6908
22318SOL    HW278609   1.193   8.802   6.826 -0.0655 -0.8708 -0.3406
22319SOL     OW78610   4.027   1.425   6.390  0.5196  0.1204 -0.2775
22319SOL    HW178611   4.051   1.452   6.297  2.9493  0.6074  0.4523
22319SOL    HW278612   3.961   1.490   6.428  0.4484  0.6125 -1.2194
22320SOL     OW78613   9.883   7.323   1.121 -0.1119 -0.1242 -0.3879
22320SOL    HW178614   9.952   7.251   1.131  2.0283  1.8512 -0.5358
22320SOL    HW278615   9.873   7.347   1.025  0.8128  1.2952 -0.1459
22321SOL     OW78616   6.467   1.971   5.981 -1.0637 -0.0515  0.0136
22321SOL    HW178617   6.398   2.039   6.005 -0.2135  0.6760  0.4488
22321SOL    HW278618   6.497   1.924   6.064  0.1997  0.8406  0.0776
22322SOL     OW78619   2.618   8.338   6.649  0.3279  0.3556  0.1367
22322SOL    HW178620   2.553   8.262   6.646 -0.4912  1.0504  0.0218
22322SOL    HW278621   2.570   8.422   6.674  1.7581  0.3134  3.2256
22323SOL     OW78622   7.635   1.622   3.246  0.3792  0.3361  0.2184
22323SOL    HW178623   7.583   1.571   3.178  0.0446  1.8902 -0.7166
22323SOL    HW278624   7.579   1.696   3.282  1.1667  0.6123  0.8906
22324SOL     OW78625   1.481   1.519   3.207 -0.5828 -0.2900 -0.2485
22324SOL    HW178626   1.476   1.446   3.275 -2.1083  0.2793  0.2900
22324SOL    HW278627   1.530   1.487   3.126 -0.3248 -1.5660  0.4023
22325SOL     OW78628   7.986   9.750   4.135  0.0666 -0.0901  0.5741
22325SOL    HW178629   7.889   9.767   4.116  0.0354 -1.9277 -1.0465
22325SOL    HW278630   7.995   9.718   4.230 -0.8340  0.5978  0.9060
22326SOL     OW78631   9.875   8.273   5.263 -0.3612 -0.5423 -0.3767
22326SOL    HW178632   9.790   8.242   5.304 -1.3045 -0.9096 -2.5459
22326SOL    HW278633   9.856   8.344   5.195  1.0146 -0.8982 -1.1701
22327SOL     OW78634   5.927   4.992   7.249 -0.2180 -0.5429  0.2898
22327SOL    HW178635   5.878   5.060   7.304 -2.3689 -2.1609  0.4204
22327SOL    HW278636   5.990   5.039   7.188 -1.1873  1.5528  0.8417
22328SOL     OW78637   4.105   8.686   6.440 -0.4427  0.2653  0.1114
22328SOL    HW178638   4.133   8.616   6.375 -0.6302  1.2994 -1.1075
22328SOL    HW278639   4.036   8.648   6.501 -0.4970 -0.6352 -0.4947
22329SOL     OW78640   0.368   8.775   1.429  0.2766  0.1232 -0.0267
22329SOL    HW178641   0.303   8.849   1.414  1.3337  0.8706 -0.9759
22329SOL    HW278642   0.460   8.812   1.441  0.6845 -0.9761  0.3098
22330SOL     OW78643   5.948   9.830   1.542 -0.2742  0.1211 -0.1401
22330SOL    HW178644   5.973   9.734   1.527  1.3062  0.5583 -0.3230
22330SOL    HW278645   5.862   9.849   1.495 -2.2572 -2.0151  2.4345
22331SOL     OW78646   8.085   0.856   5.692 -0.7648 -0.0231  0.1958
22331SOL    HW178647   8.132   0.909   5.621 -3.2182 -0.2896 -1.7176
22331SOL    HW278648   8.050   0.917   5.762  1.4510  0.2788  1.0675
22332SOL     OW78649   6.993   8.683   4.196 -0.7108  0.2950 -0.0773
22332SOL    HW178650   6.980   8.586   4.176  0.0576  0.5040 -1.7574
22332SOL    HW278651   6.963   8.703   4.289 -0.7651 -1.5738  0.3232
22333SOL     OW78652   6.618   5.166   2.061  0.6591 -0.3768 -1.0169
22333SOL    HW178653   6.614   5.141   1.964  1.1310 -1.6635 -0.7180
22333SOL    HW278654   6.647   5.261   2.071 -2.2536  0.6999 -2.2562
22334SOL     OW78655   5.650   2.105   5.038 -0.5345 -0.0361 -0.0391
22334SOL    HW178656   5.711   2.106   4.959 -0.5751 -1.5882 -0.0962
22334SOL    HW278657   5.672   2.027   5.096 -1.5836  0.1666  0.6415
22335SOL     OW78658   2.400   5.840   4.348 -0.1690  0.3236  0.2630
22335SOL    HW178659   2.447   5.840   4.436 -1.4167  1.8966  0.9477
22335SOL    HW278660   2.354   5.752   4.335  3.4357 -1.4998 -0.7304
22336SOL     OW78661   4.307   1.978   4.538 -0.0359  0.4275 -0.1484
22336SOL    HW178662   4.270   1.892   4.504  1.5111 -0.6434  0.8295
22336SOL    HW278663   4.305   1.979   4.638 -0.4548  1.7087 -0.1599
22337SOL     OW78664   0.107   9.963   0.997  0.0427 -0.1205 -0.4311
22337SOL    HW178665   0.018   9.937   1.034  0.8205 -1.0086  0.8962
22337SOL    HW278666   0.122  10.061   1.012 -0.6032 -0.0194 -0.4194
22338SOL     OW78667   1.165   0.857   4.972  0.1745  0.5394  0.0246
22338SOL    HW178668   1.197   0.951   4.957 -0.5202  0.7660 -0.0849
22338SOL    HW278669   1.169   0.807   4.886  0.1425  0.5966 -0.0105
22339SOL     OW78670   9.614   2.655   1.420 -0.1912  0.2156 -0.3898
22339SOL    HW178671   9.691   2.623   1.475 -0.0102  0.3407 -0.5705
22339SOL    HW278672   9.571   2.577   1.374 -0.9770 -0.0268  0.7387
22340SOL     OW78673   2.155   2.866   2.825 -0.5919  0.2295 -0.2944
22340SOL    HW178674   2.140   2.840   2.920 -0.0584  1.2576  0.0760
22340SOL    HW278675   2.068   2.894   2.784 -0.6103  1.0467  0.2868
22341SOL     OW78676   6.531   8.070   5.821 -0.0674 -0.1330 -0.5612
22341SOL    HW178677   6.476   8.025   5.751 -1.2495 -0.0022  0.2646
22341SOL    HW278678   6.545   8.006   5.897 -1.0122  0.5932  0.2291
22342SOL     OW78679   5.037   8.646   7.920 -0.2868 -0.0689  0.1536
22342SOL    HW178680   4.944   8.627   7.890  0.5713 -2.4473 -1.1779
22342SOL    HW278681   5.078   8.717   7.862 -0.0209 -1.7187 -1.7290
22343SOL     OW78682   0.738   2.749   7.809 -0.1395  0.1917 -0.5092
22343SOL    HW178683   0.811   2.790   7.863 -1.3065  2.9767 -0.9550
22343SOL    HW278684   0.662   2.725   7.869 -1.1961  2.7368 -0.7865
22344SOL     OW78685   9.115   0.839   7.292 -0.3512  0.2196  0.3694
22344SOL    HW178686   9.126   0.744   7.323  1.4370  1.2037  2.8534
22344SOL    HW278687   9.018   0.862   7.291 -0.6251 -0.7810  2.4125
22345SOL     OW78688   4.484   1.756   2.920  0.2446 -0.1137 -0.0290
22345SOL    HW178689   4.386   1.768   2.934  0.3430 -0.8188  1.3989
22345SOL    HW278690   4.532   1.775   3.006  1.2245 -1.2153 -0.3177
22346SOL     OW78691   8.260   1.124   7.639  0.2916 -0.2262  0.0112
22346SOL    HW178692   8.263   1.223   7.651  1.1196 -0.5016  2.4898
22346SOL    HW278693   8.165   1.092   7.645  0.1339  0.3135  0.4533
22347SOL     OW78694   2.642   4.728   7.857 -0.5519 -0.2663 -0.0357
22347SOL    HW178695   2.648   4.807   7.795 -0.2131  0.6355  1.1249
22347SOL    HW278696   2.677   4.754   7.947  0.6847 -2.0886  0.0322
22348SOL     OW78697   5.275   7.702   4.486 -0.1204  0.0009  0.6625
22348SOL    HW178698   5.361   7.725   4.531  0.5185  0.0742 -0.5768
22348SOL    HW278699   5.294   7.672   4.392 -1.5552  1.3626 -0.0843
22349SOL     OW78700   9.646   5.052   7.511  1.1294  0.3245  0.2102
22349SOL    HW178701   9.618   4.986   7.441  1.2158  1.0099 -0.4733
22349SOL    HW278702   9.565   5.092   7.554  1.0404  2.0873 -1.5606
22350SOL     OW78703   0.835   8.692   2.436 -0.0139  0.5183  0.5394
22350SOL    HW178704   0.898   8.624   2.474 -1.0504 -0.4523  0.5400
22350SOL    HW278705   0.871   8.726   2.350  0.2497 -0.4353  0.2714
22351SOL     OW78706   4.525   9.127   3.240 -0.1503  0.4347 -0.2052
22351SOL    HW178707   4.554   9.145   3.146 -2.1656 -0.9882 -1.1393
22351SOL    HW278708   4.429   9.098   3.240 -0.1680  0.4128  2.2953
22352SOL     OW78709   0.079   7.758   2.252 -0.7531  0.0831  0.1222
22352SOL    HW178710   0.116   7.722   2.166 -0.7630 -0.5347  0.3716
22352SOL    HW278711   0.154   7.785   2.312 -0.7246 -0.3360  0.2767
22353SOL     OW78712   6.932   9.693   5.283  0.4094 -0.2153 -0.0564
22353SOL    HW178713   6.963   9.626   5.351 -0.1856 -0.3851  0.0508
22353SOL    HW278714   6.861   9.750   5.324 -0.4774 -0.7997 -0.7630
22354SOL     OW78715   0.755   7.779   2.820  0.0193  0.6092  0.3596
22354SOL    HW178716   0.829   7.725   2.859 -2.0100 -0.6290  2.6739
22354SOL    HW278717   0.771   7.876   2.836  0.8669  0.3116  1.3321
22355SOL     OW78718   9.231   8.285   7.906  0.0781  0.2645 -0.4022
22355SOL    HW178719   9.199   8.378   7.888  1.6074  0.4543 -2.3814
22355SOL    HW278720   9.291   8.285   7.986 -0.8831  0.7593  0.3279
22356SOL     OW78721   6.704   4.352   1.510 -0.5905 -0.0665 -0.2438
22356SOL    HW178722   6.688   4.262   1.467 -0.5924  0.8202 -2.1604
22356SOL    HW278723   6.738   4.339   1.603  2.1685 -2.1168 -1.4561
22357SOL     OW78724   4.852   1.637   7.813  0.0255  0.4243  0.1555
22357SOL    HW178725   4.890   1.583   7.738 -2.5673 -0.9743 -0.2212
22357SOL    HW278726   4.927   1.680   7.865  1.9318 -0.1547 -2.0308
22358SOL     OW78727   3.271   1.895   1.360  0.8504  0.1263 -0.2037
22358SOL    HW178728   3.321   1.834   1.299  0.8082  0.7254 -0.8461
22358SOL    HW278729   3.190   1.930   1.314  0.9294  0.7519  0.1193
22359SOL     OW78730   1.144   6.507   0.493  0.4396  0.1380  0.8301
22359SOL    HW178731   1.173   6.425   0.444  0.3827  0.7685 -0.2876
22359SOL    HW278732   1.080   6.482   0.566 -1.0743 -0.6310 -0.7264
22360SOL     OW78733   1.011   8.580   6.614  0.8528 -0.4782 -0.1958
22360SOL    HW178734   0.945   8.533   6.673 -0.6111 -0.3040 -1.6556
22360SOL    HW278735   1.033   8.669   6.654  0.3753 -0.6358  0.4278
22361SOL     OW78736   0.377   2.720   1.129 -0.0673  0.8001 -0.1297
22361SOL    HW178737   0.342   2.686   1.042 -1.1847  0.0038  0.6173
22361SOL    HW278738   0.467   2.679   1.147 -0.8648 -0.8651  0.1884
22362SOL     OW78739   7.161   1.606   4.529 -0.1094  0.2448 -0.0992
22362SOL    HW178740   7.107   1.555   4.462 -2.4969  0.4078  1.6260
22362SOL    HW278741   7.136   1.703   4.524  0.8682  0.5084 -0.0390
22363SOL     OW78742   1.616   2.002   4.746 -0.1872 -0.2138 -0.0977
22363SOL    HW178743   1.667   1.968   4.825 -0.5215 -0.8391 -0.1456
22363SOL    HW278744   1.667   2.076   4.702  1.5663 -2.0940 -1.2820
22364SOL     OW78745   9.770   1.495   5.993 -0.2536  0.2324 -0.2089
22364SOL    HW178746   9.701   1.518   6.061 -0.9165 -1.3386 -0.3321
22364SOL    HW278747   9.725   1.467   5.908  0.4362 -3.1595  0.4660
22365SOL     OW78748   1.402   6.774   3.023 -0.0205 -0.5227 -0.2094
22365SOL    HW178749   1.306   6.763   3.048 -0.1160 -0.9878 -0.7816
22365SOL    HW278750   1.445   6.840   3.085 -0.8607  0.1594 -0.3488
22366SOL     OW78751   4.922   2.869   5.631 -0.5094 -0.1329 -0.4045
22366SOL    HW178752   4.981   2.945   5.602  0.8457 -0.8878  0.3390
22366SOL    HW278753   4.884   2.890   5.722 -0.8631  0.0459 -0.5899
22367SOL     OW78754   2.295   3.491   7.937  0.1115 -0.3624 -0.6395
22367SOL    HW178755   2.348   3.416   7.897  0.2246 -0.0501 -1.0726
22367SOL    HW278756   2.345   3.577   7.926 -1.0408  0.1232 -2.1488
22368SOL     OW78757   9.463   7.735   7.697  0.4380 -0.0793 -0.5381
22368SOL    HW178758   9.442   7.646   7.738 -0.1049 -0.9573 -2.6731
22368SOL    HW278759   9.479   7.724   7.599  0.6969  2.1291 -0.7648
22369SOL     OW78760   0.699   7.689   0.788 -0.3810  0.5421  0.3853
22369SOL    HW178761   0.711   7.629   0.709 -0.2178  1.1993 -0.0927
22369SOL    HW278762   0.621   7.749   0.773  0.3473  1.4539  0.2344
22370SOL     OW78763   3.049   7.497   7.680  0.1314  0.2690 -0.4966
22370SOL    HW178764   3.015   7.591   7.689  0.2206  0.4274 -1.7751
22370SOL    HW278765   3.149   7.497   7.682  0.1200  0.0666  0.6870
22371SOL     OW78766   3.134   5.036   4.433 -0.3329  0.2366 -0.6026
22371SOL    HW178767   3.219   4.984   4.430 -0.3018  0.1934  0.7972
22371SOL    HW278768   3.061   4.983   4.388 -0.0192 -0.4747 -0.2845
22372SOL     OW78769   2.183   2.547   2.562 -0.1292 -0.6515 -0.0925
22372SOL    HW178770   2.107   2.609   2.582  0.8701  1.2417 -2.0342
22372SOL    HW278771   2.259   2.566   2.625 -0.2936 -0.8058  0.1565
22373SOL     OW78772   3.571   6.374   0.844 -0.1374 -0.0346 -0.2816
22373SOL    HW178773   3.503   6.401   0.912 -0.9063 -0.7405 -0.7586
22373SOL    HW278774   3.577   6.274   0.840  1.3222  0.0341  0.1373
22374SOL     OW78775   5.314   8.315   4.537 -0.0018  0.4844 -0.4860
22374SOL    HW178776   5.384   8.351   4.599 -0.7086  0.2721  0.4417
22374SOL    HW278777   5.241   8.383   4.528  0.1750  0.5778 -1.2116
22375SOL     OW78778   2.453   6.841   0.493  0.0018  0.1500  0.2552
22375SOL    HW178779   2.374   6.879   0.446  0.0120  1.3452  1.1865
22375SOL    HW278780   2.533   6.899   0.477  0.1118  0.3225  1.3740
22376SOL     OW78781   2.801   3.022   3.391 -0.2630 -0.0891  0.0078
22376SOL    HW178782   2.788   3.058   3.483 -3.1208 -1.4725  0.2028
22376SOL    HW278783   2.785   3.094   3.324 -2.0481 -0.0207  0.4957
22377SOL     OW78784   1.057   0.993   1.049 -0.2692  0.3810  0.3182
22377SOL    HW178785   1.070   1.092   1.058 -0.4367  0.3444  0.9961
22377SOL    HW278786   1.133   0.945   1.092 -0.3807  0.2109  0.3266
22378SOL     OW78787   3.765   0.569   3.980 -0.2822  0.0580  0.5358
22378SOL    HW178788   3.679   0.551   4.029  0.0664  0.8651  1.4426
22378SOL    HW278789   3.797   0.661   4.001  0.6167 -0.1058 -0.1028
22379SOL     OW78790   0.219   3.595   0.644  0.3458  0.4393  0.0902
22379SOL    HW178791   0.256   3.650   0.719  0.9800 -0.6747  0.6110
22379SOL    HW278792   0.202   3.502   0.677 -0.6103  0.2992 -0.8056
22380SOL     OW78793   1.194   0.259   4.503  0.0376  0.5359  0.0924
22380SOL    HW178794   1.249   0.184   4.467 -0.1817  0.2555  0.3439
22380SOL    HW278795   1.219   0.277   4.599 -1.4171 -0.6520  0.7174
22381SOL     OW78796   7.504   0.546   7.060  0.3213 -0.4366 -0.8651
22381SOL    HW178797   7.559   0.557   7.143 -0.9525  0.6396 -0.1192
22381SOL    HW278798   7.454   0.460   7.064  2.4175 -1.7358 -1.8559
22382SOL     OW78799   7.150   0.510   6.355  0.1241  0.5670 -0.0506
22382SOL    HW178800   7.051   0.525   6.354  0.0318  0.0950  1.2172
22382SOL    HW278801   7.197   0.596   6.372 -0.0761  0.7700 -0.5299
22383SOL     OW78802   7.614   0.188   3.407  0.9220  0.2897  0.5407
22383SOL    HW178803   7.661   0.274   3.383 -0.1946  1.0334  0.9703
22383SOL    HW278804   7.680   0.124   3.447  1.8940  0.7078 -0.3541
22384SOL     OW78805   9.502   5.886   2.995 -0.0589 -0.0379  0.2202
22384SOL    HW178806   9.552   5.859   2.913  0.0843  1.7124 -0.2912
22384SOL    HW278807   9.448   5.968   2.975 -0.9071 -0.2502  1.5696
22385SOL     OW78808   7.599   1.994   1.575  0.2336  0.4261 -0.1563
22385SOL    HW178809   7.561   1.916   1.624  3.6539  0.1769  2.2705
22385SOL    HW278810   7.652   1.961   1.497 -1.0345  0.5470 -1.0857
22386SOL     OW78811   2.031   3.949   1.113 -0.0390  0.0442 -0.1301
22386SOL    HW178812   2.064   3.905   1.029  0.1113  1.5205 -0.8647
22386SOL    HW278813   1.986   3.881   1.171 -0.0731 -1.0156 -1.3718
22387SOL     OW78814   2.135   0.030   2.518  0.4647  0.0756  0.1018
22387SOL    HW178815   2.115   0.097   2.446 -1.4714 -0.0922  0.4628
22387SOL    HW278816   2.127  -0.062   2.481 -1.3957 -0.0266  0.7341
22388SOL     OW78817   4.165   9.639   0.666 -0.1473  0.1607 -0.1937
22388SOL    HW178818   4.208   9.720   0.625  0.8780  0.8621  2.1668
22388SOL    HW278819   4.068   9.636   0.640  0.2208  1.1775 -1.7296
22389SOL     OW78820   8.979   6.165   6.526  0.1410  0.0510  0.0073
22389SOL    HW178821   8.908   6.096   6.537 -0.6085  0.5481 -1.5499
22389SOL    HW278822   9.067   6.128   6.556 -0.5118 -1.0658  0.5692
22390SOL     OW78823   2.120   8.616   2.124 -0.0711  0.0971 -0.3071
22390SOL    HW178824   2.144   8.691   2.063  0.8191 -0.2353 -0.3631
22390SOL    HW278825   2.080   8.541   2.070 -0.0945  0.1538 -0.3685
22391SOL     OW78826   9.452   5.410   4.416  0.0001  0.3113  0.2920
22391SOL    HW178827   9.469   5.413   4.514 -1.6822  1.0575  0.5809
22391SOL    HW278828   9.432   5.502   4.382 -0.8687 -0.1361 -0.4558
22392SOL     OW78829   2.785   7.246   6.863  0.1420 -0.1036  0.6240
22392SOL    HW178830   2.835   7.160   6.870 -0.5784 -0.5054  0.8075
22392SOL    HW278831   2.691   7.229   6.835  0.4031  0.7433 -0.8388
22393SOL     OW78832   2.226   5.544   7.917  0.4957 -0.5192  0.2849
22393SOL    HW178833   2.131   5.575   7.910  0.4536 -0.6984  0.0895
22393SOL    HW278834   2.234   5.451   7.882  0.8478 -0.3021 -0.2188
22394SOL     OW78835   4.863   9.680   4.216 -1.1602 -0.3842 -0.0577
22394SOL    HW178836   4.824   9.716   4.132 -0.9475  0.4327  0.1962
22394SOL    HW278837   4.955   9.717   4.229 -0.8084 -1.2626  0.0357
22395SOL     OW78838   3.792   9.006   6.039 -0.0135  0.7231  0.3969
22395SOL    HW178839   3.841   9.081   5.994 -3.0086  1.6491 -1.5263
22395SOL    HW278840   3.695   9.029   6.045 -0.9700 -2.8549  0.0267
22396SOL     OW78841   8.576   7.393   3.544 -0.0278  0.1523 -0.2027
22396SOL    HW178842   8.563   7.295   3.557 -1.2643  0.1371 -1.5113
22396SOL    HW278843   8.674   7.412   3.532  0.1215 -1.0608 -1.0473
  10.00000  10.00000   8.21137
