chitosan Film  in water:acetic acid 2%
10700
    1CHTO  H203    1   4.098   6.441   0.529 -0.5299 -3.2945  1.6023
    1CHTO   O82    2   4.170   6.408   0.478 -0.1421 -0.1802  0.0251
    1CHTO  C123    3   4.287   6.389   0.551  0.9287  0.1478  0.5258
    1CHTO  H227    4   4.270   6.419   0.656 -1.7594 -0.7342  0.3874
    1CHTO   O77    5   4.314   6.247   0.530  0.4857 -0.3031 -0.5719
    1CHTO  C118    6   4.412   6.202   0.628 -0.1212 -0.3060  0.1655
    1CHTO  H222    7   4.377   6.226   0.730 -0.0854  0.0949  0.0807
    1CHTO  C125    8   4.419   6.040   0.616 -0.1737  0.8473  0.8299
    1CHTO   O84    9   4.463   5.999   0.483  0.1633  1.3133  0.1622
    1CHTO  H205   10   4.543   5.954   0.503 -0.1076  1.0110  0.5803
    1CHTO  C114   11   4.549   6.263   0.606 -0.4800  0.3184  0.1858
    1CHTO  H218   12   4.588   6.234   0.508  0.8696 -0.1231  0.8555
    1CHTO  C116   13   4.544   6.422   0.591  1.1240  0.6123  0.0445
    1CHTO  H220   14   4.539   6.469   0.692  1.1421 -2.2443  1.4069
    1CHTO   O79   15   4.673   6.469   0.539 -0.4553  0.5198 -0.3664
    1CHTO  H201   16   4.662   6.555   0.503  0.4827  0.6294 -0.4055
    1CHTO  C120   17   4.420   6.463   0.502 -0.0405 -0.3768 -0.0225
    1CHTO  H224   18   4.439   6.435   0.396  2.0317 -0.1502  0.2719
    1CHTO   N21   19   4.408   6.613   0.492 -0.4648 -0.1599  0.8968
    1CHTO  H211   20   4.315   6.652   0.453 -0.8472 -1.9029  0.0121
    1CHTO  H212   21   4.490   6.643   0.428 -0.8121 -0.3033  0.3767
    1CHTO   O75   22   4.630   6.220   0.714  0.7122 -0.0679 -0.3888
    1CHTO  C112   23   4.776   6.195   0.666 -0.5201 -0.3730  0.4851
    1CHTO  H216   24   4.789   6.235   0.565 -3.3560 -0.9762 -0.1763
    1CHTO   O73   25   4.792   6.055   0.667 -0.0013 -0.3841  0.2379
    1CHTO  C113   26   4.907   6.021   0.589 -0.0137  0.1720 -0.2635
    1CHTO  H217   27   4.899   6.049   0.482  1.0475 -3.3454 -1.3555
    1CHTO  C124   28   4.919   5.866   0.590 -0.6059 -0.3596 -0.0865
    1CHTO   O83   29   4.839   5.812   0.479  0.6159 -0.6534  0.4914
    1CHTO  H204   30   4.813   5.880   0.420  0.1535 -1.4041 -0.1960
    1CHTO  C109   31   5.033   6.068   0.671 -0.2800  0.3995 -0.3709
    1CHTO  H213   32   5.030   6.019   0.770 -1.1544  1.5916  0.1966
    1CHTO  C110   33   5.020   6.221   0.694  0.4943  0.0193 -1.2432
    1CHTO  H214   34   5.043   6.281   0.606  3.6620  1.9365  0.7670
    1CHTO   O78   35   5.132   6.258   0.787 -0.4741 -0.4372 -0.0271
    1CHTO  H200   36   5.139   6.205   0.864  0.7483 -2.5894 -1.5556
    1CHTO  C111   37   4.885   6.264   0.756 -0.9043  0.4277 -0.1580
    1CHTO  H215   38   4.880   6.225   0.859  0.4411  1.6287  0.3732
    1CHTO   N19   39   4.878   6.414   0.767  0.1484  0.2259  0.6058
    1CHTO  H207   40   4.913   6.445   0.864 -1.5749  1.0017  0.9918
    1CHTO  H208   41   4.775   6.445   0.762 -0.2557 -0.7575  2.5742
    1CHTO   O74   42   5.154   6.038   0.595  0.0846 -0.8017 -0.0764
    1CHTO  C115   43   5.286   5.991   0.679  0.6646  0.3390 -0.0370
    1CHTO  H219   44   5.276   6.008   0.786  0.6280  0.5068 -0.0675
    1CHTO   O76   45   5.309   5.846   0.661 -0.9794  0.9115 -0.8968
    1CHTO  C122   46   5.346   5.800   0.530  0.5313 -0.0256 -0.5084
    1CHTO  H226   47   5.260   5.812   0.464 -1.1969  0.3204  1.7466
    1CHTO  C126   48   5.367   5.649   0.547  0.4361  0.1260 -0.0681
    1CHTO   O85   49   5.431   5.584   0.430 -0.2799 -0.0641  0.3168
    1CHTO  H206   50   5.376   5.519   0.393  1.6396 -0.2465 -2.3271
    1CHTO  C121   51   5.475   5.877   0.484 -0.8807  0.3776  0.9803
    1CHTO  H225   52   5.560   5.814   0.451 -1.4018  0.6976 -1.0179
    1CHTO   O81   53   5.445   5.951   0.360  0.1237 -0.2926  0.3413
    1CHTO  H202   54   5.499   6.024   0.336  0.0488 -0.9078 -1.8282
    1CHTO  C119   55   5.526   5.978   0.590  0.2451 -0.0254  0.1673
    1CHTO  H223   56   5.543   5.917   0.679  0.9999  1.7570  1.2632
    1CHTO  C117   57   5.412   6.076   0.632 -0.5612  0.7830 -0.8670
    1CHTO  H221   58   5.369   6.134   0.550 -1.0777  0.9390 -0.4867
    1CHTO   N20   59   5.453   6.174   0.739  0.0954 -0.1959  0.8533
    1CHTO  H209   60   5.362   6.202   0.791 -0.0642 -0.7442  0.8662
    1CHTO  H210   61   5.505   6.250   0.682  1.1412 -2.5710 -1.4148
    1CHTO   O80   62   5.667   6.029   0.563 -0.2715  0.6035  0.4640
    1CHTO  C103   63   5.791   5.940   0.600 -0.2384  0.0996  0.1706
    1CHTO  H190   64   5.810   5.956   0.706 -3.6268  0.5314  0.7590
    1CHTO  C101   65   5.786   5.791   0.566 -0.1399 -0.4329 -0.4455
    1CHTO  H188   66   5.759   5.777   0.462 -0.4059  0.1569 -0.4540
    1CHTO   O68   67   5.676   5.719   0.656 -0.1263 -0.4176 -0.0804
    1CHTO  H168   68   5.713   5.692   0.738  2.7679  0.2982 -1.0936
    1CHTO   C99   69   5.926   5.720   0.593  0.2073  0.0675 -0.1776
    1CHTO  H186   70   5.960   5.733   0.698  0.7763 -0.5967 -0.2748
    1CHTO   N17   71   5.938   5.571   0.572  0.2552 -0.3418 -0.1776
    1CHTO  H174   72   5.862   5.530   0.637  1.7622  2.8261  3.8027
    1CHTO  H175   73   6.036   5.553   0.614  1.2823  0.4114 -2.1796
    1CHTO   C97   74   6.034   5.797   0.516  0.4910 -0.5131 -0.0308
    1CHTO  H184   75   6.027   5.778   0.408 -0.3078 -1.1971  0.1330
    1CHTO   O64   76   6.025   5.938   0.550  0.1918  0.1008 -0.1039
    1CHTO  C104   77   5.904   6.012   0.526  1.4476 -0.5013 -0.0171
    1CHTO  H191   78   5.872   6.022   0.422  3.0568  1.3270 -0.3652
    1CHTO  C108   79   5.933   6.154   0.573  0.3054 -0.0224 -0.2233
    1CHTO   O71   80   5.854   6.256   0.514  0.3972 -0.7329 -0.3547
    1CHTO  H171   81   5.906   6.329   0.489 -0.2288  0.1204  0.8076
    1CHTO   O62   82   6.165   5.765   0.576  0.1929  0.0236  0.4519
    1CHTO   C91   83   6.273   5.746   0.481  0.3658 -0.4558  0.6455
    1CHTO  H178   84   6.258   5.816   0.399  0.2959  0.6986  1.6299
    1CHTO   C92   85   6.283   5.608   0.423 -0.5300  0.0530  0.0879
    1CHTO  H179   86   6.288   5.540   0.509  1.1348 -0.9127 -0.7514
    1CHTO   O66   87   6.157   5.578   0.354  0.3087  0.6389  0.4745
    1CHTO  H166   88   6.149   5.488   0.330 -2.2647  1.1609 -0.8442
    1CHTO   C93   89   6.410   5.586   0.332  0.3697 -0.3442  0.7997
    1CHTO  H180   90   6.407   5.639   0.236  0.7060 -2.3195 -0.3065
    1CHTO   N16   91   6.425   5.447   0.286 -0.0825 -0.3339 -0.6275
    1CHTO  H172   92   6.331   5.401   0.257 -0.5766  0.7266 -0.7229
    1CHTO  H173   93   6.490   5.455   0.200  1.3438 -1.2315  0.3423
    1CHTO   C94   94   6.535   5.623   0.416 -0.2230  0.6746 -0.1416
    1CHTO  H181   95   6.538   5.562   0.506  1.2677  0.3971 -0.3666
    1CHTO   O61   96   6.528   5.756   0.464 -0.5301  0.3588  0.0320
    1CHTO   C95   97   6.412   5.778   0.544  0.2838 -0.0651  0.0492
    1CHTO  H182   98   6.420   5.711   0.630 -0.5246  0.4017  0.4884
    1CHTO  C106   99   6.420   5.929   0.595  0.2395  0.4617  0.0060
    1CHTO   O69  100   6.532   5.966   0.666  0.4558 -0.0834 -0.4989
    1CHTO  H169  101   6.595   6.002   0.607 -1.2688  0.3941 -2.0767
    1CHTO   O63  102   6.670   5.610   0.328  0.2031  0.0120 -0.4973
    1CHTO   C96  103   6.798   5.662   0.392 -0.2635  0.0607  0.2950
    1CHTO  H183  104   6.782   5.767   0.414  1.3864 -0.3735  3.7268
    1CHTO   C98  105   6.929   5.649   0.301  0.1048  0.1718 -0.3107
    1CHTO  H185  106   6.914   5.702   0.205  0.0522 -0.4932 -0.6693
    1CHTO   O67  107   7.037   5.719   0.366  0.7722  0.5628 -0.2795
    1CHTO  H167  108   7.052   5.678   0.449  1.0003  2.0609  0.4256
    1CHTO  C102  109   6.974   5.502   0.283 -0.3945 -0.7867 -0.1146
    1CHTO  H189  110   7.084   5.504   0.283 -0.3818 -0.9948 -1.0603
    1CHTO   N18  111   6.937   5.432   0.154 -0.4694 -0.2030  0.3071
    1CHTO  H176  112   6.835   5.394   0.157 -0.1606 -0.9444  2.7163
    1CHTO  H177  113   6.956   5.485   0.062 -1.0578 -0.7509 -0.1391
    1CHTO  C105  114   6.945   5.414   0.412  0.2557 -0.1139 -0.4522
    1CHTO  H192  115   6.843   5.375   0.406  0.8487 -1.6890 -0.5737
    1CHTO   O65  116   6.941   5.499   0.526  0.1563 -0.2472 -0.0805
    1CHTO  C100  117   6.831   5.595   0.534 -0.2429  0.0514 -0.2958
    1CHTO  H187  118   6.746   5.538   0.574  0.6891 -1.6115 -0.6589
    1CHTO  C107  119   6.872   5.697   0.642 -0.2690 -0.0340 -0.1318
    1CHTO   O70  120   6.765   5.790   0.670  0.4863  0.4346  0.1275
    1CHTO  H170  121   6.696   5.748   0.716 -0.9542  0.4731 -1.9221
    1CHTO   O57  122   7.056   5.305   0.420  0.0425  0.0025 -0.9373
    1CHTO   C85  123   7.033   5.186   0.503  0.9106  0.4214 -0.5154
    1CHTO  H157  124   6.953   5.129   0.451  0.5624 -0.3161  0.8027
    1CHTO   C83  125   6.969   5.213   0.644 -0.3821 -0.1769 -0.1878
    1CHTO  H155  126   6.874   5.258   0.616  0.8115  1.6573 -1.4184
    1CHTO   O56  127   7.050   5.317   0.710  0.3459  0.4408 -0.1019
    1CHTO  H135  128   7.056   5.389   0.651 -0.8547  1.4229  0.9448
    1CHTO   C81  129   6.949   5.088   0.731  0.4056  0.0747  0.4666
    1CHTO  H153  130   6.889   5.017   0.674  1.9314 -0.9874  0.1520
    1CHTO   N14  131   6.867   5.111   0.855 -0.2893  0.2284 -0.1191
    1CHTO  H141  132   6.877   5.209   0.897  1.3424  0.5341 -1.1709
    1CHTO  H142  133   6.892   5.040   0.930  2.3132  0.5894 -0.6040
    1CHTO   C79  134   7.086   5.020   0.752 -0.0481 -0.9090 -0.2922
    1CHTO  H151  135   7.070   4.926   0.806  1.6007 -0.7505  0.5247
    1CHTO   O52  136   7.146   4.984   0.621 -0.5082  0.2847  0.5818
    1CHTO   C86  137   7.164   5.091   0.524  0.4210  0.4803  0.1279
    1CHTO  H158  138   7.255   5.144   0.559  0.6285  0.6119 -0.6091
    1CHTO   C90  139   7.207   5.025   0.386  0.1071 -0.3729 -0.4549
    1CHTO   O60  140   7.123   4.925   0.341 -0.0977 -0.4614  0.2502
    1CHTO  H138  141   7.154   4.839   0.363 -0.3823 -0.4662  0.6348
    1CHTO   O50  142   7.181   5.104   0.821  0.3504  0.3241 -0.1326
    1CHTO   C73  143   7.294   5.097   0.914  0.1987  1.2105 -0.3399
    1CHTO  H145  144   7.373   5.034   0.870 -0.0647  1.0682 -0.6113
    1CHTO   C74  145   7.245   5.041   1.054 -0.3250 -0.0976  0.3561
    1CHTO  H146  146   7.202   4.943   1.030 -0.9992  0.9213 -2.8867
    1CHTO   O54  147   7.360   5.023   1.136 -0.0648 -0.4897 -0.2478
    1CHTO  H133  148   7.341   4.946   1.185  0.4476  0.4283  1.4089
    1CHTO   C75  149   7.144   5.138   1.120  0.1371 -0.2464  0.5363
    1CHTO  H147  150   7.061   5.148   1.048  1.5968  1.8588 -0.8996
    1CHTO   N13  151   7.079   5.083   1.245  0.2536  0.3324  0.6347
    1CHTO  H139  152   6.972   5.093   1.256 -0.2587 -0.5006 -2.8740
    1CHTO  H140  153   7.091   4.977   1.262 -0.7738 -0.1385 -1.3098
    1CHTO   C76  154   7.215   5.274   1.141  0.0616  0.0377  0.4337
    1CHTO  H148  155   7.289   5.276   1.220 -0.0407  0.3972  0.5227
    1CHTO   O49  156   7.257   5.324   1.010 -0.1941 -0.7829  0.7169
    1CHTO   C77  157   7.352   5.243   0.936  0.4931 -0.2833 -0.1119
    1CHTO  H149  158   7.444   5.239   0.994 -0.4251 -0.2379  1.3781
    1CHTO   C88  159   7.373   5.325   0.805 -0.3626  0.5123  0.1259
    1CHTO   O58  160   7.415   5.479   0.830 -0.1166 -0.2220  0.0949
    1CHTO  H136  161   7.483   5.481   0.894 -1.2114  0.4826  1.2753
    1CHTO   O51  162   7.078   5.393   1.185 -0.7573 -0.3884  0.6886
    1CHTO   C78  163   7.082   5.550   1.105  0.2018  0.2787 -0.0708
    1CHTO  H150  164   7.123   5.536   1.003 -1.0212  2.1183 -0.8456
    1CHTO   C80  165   7.180   5.648   1.175  0.3508 -0.0833 -0.0474
    1CHTO  H152  166   7.133   5.679   1.271  1.4075  1.2889  0.0449
    1CHTO   O55  167   7.305   5.583   1.193  0.4065 -0.5876 -0.3806
    1CHTO  H134  168   7.360   5.652   1.225 -1.6480 -0.0140  2.1492
    1CHTO   C84  169   7.186   5.782   1.082  0.4488  0.0820  0.3857
    1CHTO  H156  170   7.231   5.760   0.985  0.4488 -1.6671  0.7579
    1CHTO   N15  171   7.290   5.876   1.138  0.2695 -0.2055 -0.4852
    1CHTO  H143  172   7.388   5.839   1.155 -0.6062 -1.5743  1.7742
    1CHTO  H144  173   7.257   5.929   1.225  3.5573  0.9757  0.1029
    1CHTO   C87  174   7.042   5.843   1.061  0.3007  0.1989 -0.0154
    1CHTO  H159  175   7.014   5.884   1.157  1.4061 -1.4422  1.0328
    1CHTO   O53  176   6.940   5.720   1.014  0.2457 -0.0037  0.7489
    1CHTO   C82  177   6.935   5.604   1.098 -0.0854 -0.8509 -0.3101
    1CHTO  H154  178   6.885   5.621   1.193  1.6151  1.0034  0.2917
    1CHTO   C89  179   6.844   5.509   1.018 -0.4628  0.2197  0.1286
    1CHTO   O59  180   6.787   5.396   1.090  0.4535 -0.6868 -0.2701
    1CHTO  H137  181   6.809   5.320   1.039 -0.7971 -2.2381  1.4664
    1CHTO   O45  182   7.046   5.976   0.948 -0.4554 -0.1984 -0.2008
    1CHTO   C67  183   6.961   6.090   0.969  0.6478  0.1043 -0.8661
    1CHTO  H124  184   6.997   6.174   0.909 -0.4968  1.9140  0.8953
    1CHTO   C65  185   6.812   6.061   0.911 -0.0806 -0.2626  0.5904
    1CHTO  H122  186   6.795   5.956   0.887 -0.2454  0.1242 -1.0431
    1CHTO   O44  187   6.798   6.124   0.787 -0.2502  0.1276  0.3130
    1CHTO  H102  188   6.731   6.078   0.740  0.3396 -0.2054 -0.2100
    1CHTO   C63  189   6.703   6.091   1.024  0.1881 -0.0238 -0.3051
    1CHTO  H120  190   6.712   6.019   1.105  1.4301 -0.4421 -0.8098
    1CHTO   N11  191   6.555   6.075   0.989  0.2052  0.3988  0.8581
    1CHTO  H108  192   6.492   6.153   1.026 -1.2668  0.2117 -1.1269
    1CHTO  H109  193   6.543   6.068   0.882  1.2213  2.2001  0.6131
    1CHTO   C61  194   6.723   6.231   1.089  0.5079  0.0869  0.5219
    1CHTO  H118  195   6.657   6.240   1.177  1.3363  0.9506  1.0607
    1CHTO   O40  196   6.857   6.249   1.136 -0.5160  0.0977 -0.2137
    1CHTO   C68  197   6.958   6.138   1.116 -0.3122 -0.4047  0.4015
    1CHTO  H125  198   6.930   6.055   1.184  1.2719 -0.5306  0.9258
    1CHTO   C72  199   7.097   6.191   1.164  0.2891 -0.0266 -0.8578
    1CHTO   O48  200   7.108   6.188   1.310  0.2159 -0.6059  0.1737
    1CHTO  H105  201   7.121   6.098   1.332  0.4675 -0.4489  0.6740
    1CHTO   O38  202   6.689   6.340   0.997 -0.1572  0.3257  0.7149
    1CHTO   C55  203   6.655   6.466   1.056  0.4589 -0.2471  0.0753
    1CHTO  H112  204   6.670   6.456   1.165  0.1043 -0.5628  0.0963
    1CHTO   C56  205   6.505   6.494   1.019  0.0272 -0.0498 -0.1882
    1CHTO  H113  206   6.493   6.488   0.910  0.7387 -0.3661 -0.2505
    1CHTO   O42  207   6.423   6.386   1.074  0.2043 -0.2173 -0.1708
    1CHTO  H100  208   6.473   6.333   1.134 -1.2780 -1.1209  0.2909
    1CHTO   C57  209   6.476   6.641   1.059 -0.8389 -0.6669 -0.3280
    1CHTO  H114  210   6.473   6.643   1.168  1.1860 -1.0809 -0.2597
    1CHTO   N10  211   6.337   6.687   1.024 -0.4398 -0.3544  0.6366
    1CHTO  H106  212   6.283   6.648   0.939  1.3778 -0.0582 -0.6860
    1CHTO  H107  213   6.275   6.694   1.112 -0.6019  1.2388  0.4019
    1CHTO   C58  214   6.578   6.746   1.011  0.2953  0.4506 -0.0922
    1CHTO  H115  215   6.560   6.764   0.903  0.2646  1.0601  0.0151
    1CHTO   O37  216   6.714   6.707   1.043  0.0576 -0.0472  0.9550
    1CHTO   C59  217   6.753   6.572   1.001  0.1118 -0.2779  0.1558
    1CHTO  H116  218   6.745   6.573   0.892  0.8276  0.0929  0.1036
    1CHTO   C70  219   6.900   6.546   1.033 -0.6161 -0.5652 -0.6348
    1CHTO   O46  220   6.947   6.579   1.163 -0.1885  0.4962  0.3240
    1CHTO  H103  221   6.898   6.537   1.231  0.0195 -0.8700 -0.3708
    1CHTO   O39  222   6.548   6.893   1.086 -0.2799 -0.9005  0.0411
    1CHTO   C60  223   6.629   7.002   1.046 -0.5693  0.3542  0.1539
    1CHTO  H117  224   6.733   6.973   1.033 -1.4942 -2.5732 -1.2214
    1CHTO   C62  225   6.577   7.060   0.902  0.6021  0.4922 -0.8432
    1CHTO  H119  226   6.582   6.976   0.829  2.1707 -0.7863  0.7253
    1CHTO   O43  227   6.434   7.093   0.912 -0.1746  0.0567 -0.2319
    1CHTO  H101  228   6.425   7.175   0.957  1.2672 -0.2438  0.6103
    1CHTO   C66  229   6.683   7.174   0.865  0.1746  0.2358 -0.5151
    1CHTO  H123  230   6.781   7.127   0.859  0.0533 -0.0667 -0.1600
    1CHTO   N12  231   6.657   7.235   0.735  0.4490 -0.0201  0.4966
    1CHTO  H110  232   6.736   7.224   0.662 -1.9053  0.3031 -2.1976
    1CHTO  H111  233   6.604   7.329   0.728 -0.4957 -0.6409 -0.8948
    1CHTO   C69  234   6.690   7.287   0.972 -0.3058  0.5675  1.2631
    1CHTO  H126  235   6.599   7.349   0.983 -1.4015 -0.7539 -0.1778
    1CHTO   O41  236   6.708   7.211   1.111  0.2225 -0.0173 -1.1260
    1CHTO   C64  237   6.621   7.115   1.150 -0.2463 -0.1916  0.0191
    1CHTO  H121  238   6.519   7.157   1.162 -1.1336 -2.2612 -0.0896
    1CHTO   C71  239   6.656   7.072   1.294 -0.5006  1.0511 -0.5361
    1CHTO   O47  240   6.626   7.182   1.374 -0.2859 -0.4187  0.6614
    1CHTO  H104  241   6.564   7.151   1.438  0.7195 -1.4710  1.1236
    1CHTO   O34  242   6.801   7.386   0.940  0.0597 -0.3089  0.3090
    1CHTO   C49  243   6.924   7.474   1.015 -0.0890  0.3566  0.3221
    1CHTO   H91  244   6.921   7.567   0.959  1.0430 -0.6603 -1.4727
    1CHTO   C47  245   7.058   7.402   0.999  0.3399 -1.6192 -0.2850
    1CHTO   H89  246   7.078   7.424   0.891 -1.5801 -1.8986 -0.7100
    1CHTO   O33  247   7.042   7.265   1.018  0.2025 -0.3426  0.2838
    1CHTO   H70  248   7.123   7.221   0.999  0.1317  0.4812 -2.0044
    1CHTO   C45  249   7.176   7.460   1.099  0.3902  0.1009  0.5007
    1CHTO   H87  250   7.180   7.400   1.190  0.7611 -1.8046 -0.7424
    1CHTO    N8  251   7.310   7.454   1.038 -0.0432  0.3084  0.5067
    1CHTO   H75  252   7.373   7.496   1.115  1.3991 -0.6876 -0.1002
    1CHTO   H76  253   7.349   7.353   1.027  0.5256  0.8612 -3.4328
    1CHTO   C43  254   7.132   7.599   1.155  0.8850 -0.4784  0.4332
    1CHTO   H85  255   7.215   7.624   1.222  1.7487  3.1923 -1.8400
    1CHTO   O29  256   7.009   7.580   1.226 -0.5579  0.2434 -0.4579
    1CHTO   C50  257   6.899   7.518   1.156  0.4808  0.8741 -0.4809
    1CHTO   H92  258   6.883   7.426   1.215 -0.7657  2.0417  1.0829
    1CHTO   C54  259   6.776   7.603   1.168  0.0678 -0.5051  0.0245
    1CHTO   O36  260   6.722   7.602   1.303 -0.6522  0.1866  0.8786
    1CHTO   H72  261   6.663   7.531   1.317 -0.6103 -0.3254 -1.2326
    1CHTO   O27  262   7.118   7.699   1.059  0.5656 -0.3300  0.4118
    1CHTO   C37  263   7.172   7.821   1.010  0.0563 -0.7084 -0.1763
    1CHTO   H79  264   7.164   7.903   1.082  1.4644 -0.9408  0.2646
    1CHTO   C38  265   7.319   7.817   0.979  0.1132 -0.0408 -0.1370
    1CHTO   H80  266   7.340   7.730   0.916 -0.3985  0.1864 -0.6216
    1CHTO   O31  267   7.389   7.793   1.107  0.3558  0.1906 -0.2630
    1CHTO   H68  268   7.377   7.705   1.137  0.6721  0.6265  1.1848
    1CHTO   C39  269   7.371   7.951   0.900 -0.6959 -0.5204 -0.0264
    1CHTO   H81  270   7.356   8.039   0.962 -2.3131 -0.4314 -0.5225
    1CHTO    N7  271   7.512   7.950   0.858  0.0623 -0.2775 -0.0529
    1CHTO   H73  272   7.577   7.973   0.942 -1.2644  3.9479 -0.0306
    1CHTO   H74  273   7.530   7.857   0.806  0.2956  0.4176 -1.2473
    1CHTO   C40  274   7.270   7.990   0.786  0.2523 -0.1260 -0.2616
    1CHTO   H82  275   7.276   7.913   0.709 -0.1076  1.1509 -1.5878
    1CHTO   O26  276   7.140   7.995   0.840  0.4167  0.0109 -0.3470
    1CHTO   C41  277   7.100   7.860   0.879 -0.0826  0.5971  0.2558
    1CHTO   H83  278   7.119   7.785   0.801  1.2810  1.5074 -0.2957
    1CHTO   C52  279   6.954   7.881   0.904 -0.1757  0.8538 -1.1182
    1CHTO   O35  280   6.876   7.911   0.779 -0.1065 -0.1018  0.0823
    1CHTO   H71  281   6.831   7.835   0.748 -1.6451  0.3722  1.1011
    1CHTO   O28  282   7.299   8.124   0.728 -0.0098  0.2694 -0.2364
    1CHTO   C42  283   7.254   8.143   0.589  0.3922  0.2214  0.5293
    1CHTO   H84  284   7.200   8.049   0.573  0.9383 -0.0418  0.1937
    1CHTO   C44  285   7.365   8.142   0.482  0.9830  0.2313  0.4432
    1CHTO   H86  286   7.416   8.238   0.479  0.7030  0.4039  1.0712
    1CHTO   O32  287   7.468   8.044   0.519  0.5424  0.0983 -0.0532
    1CHTO   H69  288   7.433   7.957   0.517  0.1072  0.2952 -1.1384
    1CHTO   C48  289   7.299   8.108   0.340  0.0848  0.6129  0.2656
    1CHTO   H90  290   7.261   8.006   0.350  2.4449 -0.0834  2.6366
    1CHTO    N9  291   7.395   8.105   0.219  0.0853  0.2286 -0.0554
    1CHTO   H77  292   7.480   8.171   0.228  2.1789 -1.9446 -2.6917
    1CHTO   H78  293   7.422   8.002   0.199 -2.7654 -0.5713  0.0224
    1CHTO   C51  294   7.172   8.196   0.299  0.4113 -0.3310  0.0777
    1CHTO   H93  295   7.207   8.282   0.243  0.9620 -0.4514  0.2412
    1CHTO   O30  296   7.087   8.234   0.414 -0.3471  0.3722 -0.0616
    1CHTO   C46  297   7.158   8.263   0.549 -1.3298  0.3070 -0.7804
    1CHTO   H88  298   7.223   8.350   0.544  1.1920 -1.4797  0.1235
    1CHTO   C53  299   7.048   8.278   0.659 -0.0429 -0.0273 -0.0625
    1CHTO   O72  300   7.116   8.332   0.776 -0.6471 -0.0557 -0.1891
    1CHTO  H199  301   7.070   8.413   0.789 -1.0537 -0.6621  2.2767
    1CHTO   O22  302   7.079   8.121   0.215 -0.6793 -0.6991 -0.0144
    1CHTO   C31  303   6.999   8.187   0.112 -0.7152  0.5072  0.4268
    1CHTO   H59  304   6.998   8.294   0.140 -0.9160  0.6229 -0.0118
    1CHTO   C29  305   7.063   8.171  -0.026  0.4198 -0.3779 -0.6063
    1CHTO   H57  306   7.094   8.065  -0.027  1.5049 -0.0676 -1.2196
    1CHTO   O21  307   7.183   8.244  -0.030  0.1691 -0.1388 -0.1663
    1CHTO   H37  308   7.247   8.201   0.024 -0.8204 -0.8345  0.4612
    1CHTO   C27  309   6.956   8.194  -0.146 -0.7846  0.0540 -0.0224
    1CHTO   H55  310   6.937   8.302  -0.155 -1.8419 -0.4079 -4.0542
    1CHTO    N5  311   7.005   8.143  -0.275  0.5648  0.7876  0.0646
    1CHTO   H43  312   7.104   8.099  -0.272  0.6512  0.8636 -1.1025
    1CHTO   H44  313   6.946   8.058  -0.306 -0.8835  1.5844  0.5764
    1CHTO   C25  314   6.813   8.139  -0.112 -0.1563  1.0299 -0.2751
    1CHTO   H53  315   6.810   8.029  -0.101  1.2801  0.9123 -0.9524
    1CHTO   O17  316   6.777   8.183   0.014 -0.3496 -0.5752 -0.2821
    1CHTO   C32  317   6.849   8.139   0.124 -0.1798 -0.1094 -0.5928
    1CHTO   H60  318   6.841   8.031   0.118 -0.3156 -0.3072  2.1241
    1CHTO   C36  319   6.784   8.204   0.257  0.1738  0.0450 -0.1136
    1CHTO   O25  320   6.646   8.171   0.258  0.0313 -0.1623 -0.2295
    1CHTO   H40  321   6.620   8.174   0.348  4.1068  0.7822  1.0121
    1CHTO   O15  322   6.689   8.186  -0.209  0.6843 -0.2252 -0.2080
    1CHTO   C19  323   6.609   8.091  -0.287 -0.1450  0.2396  0.4030
    1CHTO   H47  324   6.542   8.168  -0.328 -0.0947  0.3970  0.6165
    1CHTO   C20  325   6.684   8.006  -0.395  0.5434 -0.7706 -0.2282
    1CHTO   H48  326   6.760   7.941  -0.350  0.7710  1.7318  3.2557
    1CHTO   O19  327   6.750   8.086  -0.489  0.8893 -0.1923 -0.2460
    1CHTO   H35  328   6.689   8.142  -0.534  2.2104  2.0173  0.6087
    1CHTO   C21  329   6.584   7.898  -0.465  0.1912  1.0288 -0.5831
    1CHTO   H49  330   6.506   7.948  -0.524 -1.2655 -1.7797 -1.1150
    1CHTO    N4  331   6.655   7.812  -0.561  0.9636  0.3570 -0.2800
    1CHTO   H41  332   6.596   7.727  -0.593  2.1743 -0.7100  0.2863
    1CHTO   H42  333   6.750   7.777  -0.522  1.3854  1.2270 -0.5253
    1CHTO   C22  334   6.511   7.823  -0.355  0.0409 -0.3985  0.2376
    1CHTO   H50  335   6.581   7.750  -0.313  0.8606 -0.0019 -0.4296
    1CHTO   O14  336   6.446   7.906  -0.257 -0.2218 -0.2932 -0.3095
    1CHTO   C23  337   6.520   8.006  -0.189  0.9154 -0.7028  0.8067
    1CHTO   H51  338   6.581   7.961  -0.109  0.7657  1.3505  2.1163
    1CHTO   C34  339   6.421   8.100  -0.123  0.2289 -0.3938 -0.1865
    1CHTO   O23  340   6.479   8.178  -0.027 -0.0585  0.4526  0.3623
    1CHTO   H38  341   6.488   8.119   0.045 -0.8906  1.6011  1.4486
    1CHTO   O16  342   6.401   7.748  -0.411  0.4950 -0.2978 -0.2799
    1CHTO   C24  343   6.435   7.570  -0.398  1.0946 -0.7530 -0.0332
    1CHTO   H52  344   6.540   7.549  -0.419  1.6130  1.1851  0.5852
    1CHTO   C26  345   6.345   7.504  -0.505 -0.3766 -0.5825  0.5718
    1CHTO   H54  346   6.240   7.538  -0.495  0.6402  2.4893  1.4467
    1CHTO   O20  347   6.400   7.554  -0.629  0.1124  0.1453 -0.1088
    1CHTO   H36  348   6.378   7.645  -0.631  0.0368  0.1258 -0.1629
    1CHTO   C30  349   6.351   7.351  -0.505  0.0133  0.3656  0.5186
    1CHTO   H58  350   6.451   7.322  -0.542  0.3112  0.5720  1.1644
    1CHTO    N6  351   6.244   7.288  -0.598 -0.2714  0.1543 -0.0846
    1CHTO   H45  352   6.287   7.253  -0.690  0.7049 -1.7006  1.0546
    1CHTO   H46  353   6.200   7.200  -0.554  1.1769 -0.4265  0.2392
    1CHTO   C33  354   6.341   7.291  -0.362 -0.3720  0.0301  0.0370
    1CHTO   H61  355   6.237   7.308  -0.331 -0.8969  0.0349 -1.7054
    1CHTO   O18  356   6.433   7.364  -0.275 -0.6148  0.2121 -0.3716
    1CHTO   C28  357   6.397   7.502  -0.258  0.6534 -0.0861  0.1446
    1CHTO   H56  358   6.291   7.519  -0.240  0.6571 -1.1409  1.2056
    1CHTO   C35  359   6.475   7.539  -0.131 -0.1037 -0.3514  0.0335
    1CHTO   O24  360   6.449   7.478  -0.009  0.1781  0.5233  0.5289
    1CHTO   H39  361   6.514   7.410  -0.003 -0.7572 -0.3589  0.7308
    1CHTO    O9  362   6.358   7.151  -0.354  0.1923  0.0622  0.1272
    1CHTO   C13  363   6.318   7.100  -0.208 -0.0494  0.6674 -0.1781
    1CHTO   H26  364   6.242   7.169  -0.165 -0.7452 -0.0169 -0.3155
    1CHTO   C11  365   6.447   7.093  -0.114 -0.1547 -1.4136 -0.0077
    1CHTO   H24  366   6.485   7.195  -0.102  1.0482 -1.7951 -0.5024
    1CHTO    O8  367   6.552   7.026  -0.190  0.1822  0.3790 -0.1041
    1CHTO    H3  368   6.587   7.085  -0.254  3.2274 -1.3707 -0.1713
    1CHTO    C9  369   6.415   7.029   0.024  0.1522 -0.5776 -0.4987
    1CHTO   H22  370   6.343   7.097   0.072  1.1643  0.8044 -0.9030
    1CHTO    N2  371   6.520   7.038   0.124  0.0103  0.7810 -0.1541
    1CHTO   H10  372   6.505   6.961   0.198 -1.0643  1.2081  0.0942
    1CHTO   H11  373   6.619   7.026   0.082  0.4772 -1.2358  1.4410
    1CHTO    C7  374   6.344   6.891   0.002  0.0311 -0.1732  0.1819
    1CHTO   H20  375   6.306   6.871   0.104  1.2997 -2.1066  0.3069
    1CHTO    O4  376   6.233   6.906  -0.083  0.2964 -0.4773 -0.5819
    1CHTO   C14  377   6.240   6.961  -0.213 -0.6271 -0.1566  0.4954
    1CHTO   H27  378   6.133   6.983  -0.233 -0.6187 -0.6593 -0.1085
    1CHTO   C18  379   6.289   6.864  -0.326 -0.0292 -0.4918 -0.0641
    1CHTO   O13  380   6.189   6.767  -0.343 -0.2287  0.2402 -0.0855
    1CHTO    H7  381   6.145   6.787  -0.424  0.9090  3.5702  0.0445
    1CHTO    O2  382   6.444   6.767  -0.067  0.8709 -0.2398 -0.1279
    1CHTO    C1  383   6.474   6.659   0.024 -0.5248  0.9605 -0.1030
    1CHTO   H14  384   6.419   6.666   0.120  0.9199 -1.1008  0.9251
    1CHTO    C2  385   6.635   6.641   0.053 -0.4101 -0.3115 -0.5529
    1CHTO   H15  386   6.684   6.628  -0.044 -0.5974  0.3070 -0.7314
    1CHTO    O6  387   6.682   6.757   0.133  0.7178  0.1188  0.4796
    1CHTO    H1  388   6.760   6.795   0.096 -0.9517  1.2563 -1.9773
    1CHTO    C3  389   6.663   6.510   0.139  0.0366  0.4094  0.3994
    1CHTO   H16  390   6.616   6.518   0.238 -1.8941  1.3629 -0.5681
    1CHTO    N1  391   6.806   6.482   0.164  0.1343  0.0475 -0.0248
    1CHTO    H8  392   6.819   6.390   0.219 -1.2766  0.7143  1.4696
    1CHTO    H9  393   6.854   6.566   0.213 -1.3453  0.1253  1.3469
    1CHTO    C4  394   6.595   6.384   0.075  0.5128  0.0023 -0.0158
    1CHTO   H17  395   6.649   6.356  -0.016 -0.0486  1.1335 -0.6995
    1CHTO    O1  396   6.459   6.410   0.053  0.0953 -0.4867  0.0258
    1CHTO    C5  397   6.429   6.516  -0.039 -0.6091 -0.2803  0.5549
    1CHTO   H18  398   6.484   6.505  -0.132 -0.5050  0.1198  0.5696
    1CHTO   C16  399   6.278   6.513  -0.066 -0.7736 -0.2451 -0.2899
    1CHTO   O11  400   6.234   6.408  -0.157  0.0064  0.6081 -0.0098
    1CHTO    H5  401   6.251   6.322  -0.124  0.6294 -0.3463 -2.6715
    1CHTO    O3  402   6.597   6.268   0.163 -0.1942  0.1552 -0.0780
    1CHTO    C6  403   6.569   6.138   0.096  0.2883  0.7999 -0.3354
    1CHTO   H19  404   6.501   6.159   0.014 -0.3582 -0.4986 -0.1513
    1CHTO    C8  405   6.700   6.079   0.043 -0.1233  0.7879 -0.9848
    1CHTO   H21  406   6.775   6.087   0.122  0.1216  1.5371 -1.2877
    1CHTO    O7  407   6.748   6.146  -0.073 -0.1296 -0.2850 -0.0718
    1CHTO    H2  408   6.841   6.141  -0.080 -0.0855 -0.4815  0.6555
    1CHTO   C12  409   6.692   5.921   0.007  0.6601 -0.3032  0.7325
    1CHTO   H25  410   6.644   5.919  -0.093  0.3555  1.3870  0.8289
    1CHTO    N3  411   6.825   5.859  -0.018 -0.3048 -0.3304 -0.6720
    1CHTO   H12  412   6.860   5.800   0.065 -0.5503 -0.9897 -1.0316
    1CHTO   H13  413   6.899   5.928  -0.055  0.6550  0.7765  3.1631
    1CHTO   C15  414   6.601   5.844   0.112 -0.5369  0.1093  0.1377
    1CHTO   H28  415   6.654   5.827   0.205 -1.2910 -1.1463  0.3488
    1CHTO   O10  416   6.561   5.704   0.059 -0.0484  0.0573 -0.5711
    1CHTO    H4  417   6.625   5.642   0.090 -0.5016 -0.4241 -0.5913
    1CHTO    O5  418   6.473   5.902   0.138 -0.1467 -0.5741  0.3669
    1CHTO   C10  419   6.494   6.039   0.187 -0.2898 -0.2642  0.1598
    1CHTO   H23  420   6.549   6.032   0.281  0.9328 -1.1925 -0.6127
    1CHTO   C17  421   6.354   6.085   0.225 -0.4474 -0.5834 -0.5054
    1CHTO   O12  422   6.354   6.217   0.288  0.2559 -0.1710  0.0443
    1CHTO    H6  423   6.392   6.210   0.373  0.2847 -3.0202 -0.1459
    2CHTO  H203  424   3.421   4.251   1.479  0.6237  1.5877  0.7680
    2CHTO   O82  425   3.502   4.233   1.436 -0.0575 -0.4235  0.2441
    2CHTO  C123  426   3.590   4.352   1.446  0.9132 -0.0717 -0.4927
    2CHTO  H227  427   3.684   4.324   1.496  0.4064  0.9967  1.0944
    2CHTO   O77  428   3.603   4.359   1.302  0.1659 -0.0168  0.4415
    2CHTO  C118  429   3.691   4.466   1.255 -0.3780 -0.7406 -0.0025
    2CHTO  H222  430   3.786   4.458   1.310 -0.9666 -1.6345  0.9026
    2CHTO  C125  431   3.703   4.459   1.094 -0.0790  0.2067  0.3103
    2CHTO   O84  432   3.570   4.481   1.038  0.2671  0.0910 -0.0051
    2CHTO  H205  433   3.576   4.490   0.944 -0.5929 -1.7419 -0.2633
    2CHTO  C114  434   3.632   4.607   1.288 -0.3079 -0.7102 -0.4350
    2CHTO  H218  435   3.538   4.614   1.231 -1.3759 -4.7563  0.6544
    2CHTO  C116  436   3.599   4.614   1.443  0.2041 -0.2695 -0.5136
    2CHTO  H220  437   3.697   4.623   1.495  0.4690 -1.8121 -0.7267
    2CHTO   O79  438   3.527   4.736   1.467  0.0132 -0.7881  0.5495
    2CHTO  H201  439   3.560   4.806   1.414  2.7641 -2.6781 -0.3307
    2CHTO  C120  440   3.520   4.488   1.498  0.1992  0.6141  0.2564
    2CHTO  H224  441   3.420   4.496   1.452  1.0272 -1.7932 -2.0885
    2CHTO   N21  442   3.504   4.483   1.648  0.0513  0.0876  0.3808
    2CHTO  H211  443   3.591   4.435   1.691 -1.6255 -3.6752 -0.2363
    2CHTO  H212  444   3.485   4.585   1.678  0.7870  0.4554 -0.3803
    2CHTO   O75  445   3.727   4.704   1.250 -0.7865  0.4240 -0.3309
    2CHTO  C112  446   3.687   4.848   1.195  0.7959 -0.0034  0.3102
    2CHTO  H216  447   3.648   4.907   1.280 -0.7498 -0.2748 -0.2057
    2CHTO   O73  448   3.586   4.833   1.090  0.0648 -0.1607  0.2140
    2CHTO  C113  449   3.539   4.957   1.034  0.8983  0.5740  0.1737
    2CHTO  H217  450   3.497   5.017   1.117  1.2393  0.3646  0.5019
    2CHTO  C124  451   3.428   4.921   0.928  0.3367 -0.2794  0.0098
    2CHTO   O83  452   3.316   4.842   0.979 -0.0927 -0.3396  0.1415
    2CHTO  H204  453   3.343   4.765   1.024 -1.1442  0.0363  1.4343
    2CHTO  C109  454   3.660   5.033   0.964  0.1745  0.2966  0.0127
    2CHTO  H213  455   3.689   4.967   0.882 -2.4768 -3.2441  1.7682
    2CHTO  C110  456   3.780   5.049   1.061 -0.0615 -0.3961 -0.5601
    2CHTO  H214  457   3.745   5.118   1.138 -3.2341 -3.8360  1.3138
    2CHTO   O78  458   3.887   5.088   0.973 -0.4485 -0.0328 -0.6198
    2CHTO  H200  459   3.973   5.093   1.011  0.3970 -0.6233 -2.4137
    2CHTO  C111  460   3.813   4.916   1.131  0.0023  0.0677 -0.2978
    2CHTO  H215  461   3.861   4.849   1.058  1.4337 -0.0414  0.7094
    2CHTO   N19  462   3.918   4.940   1.234  0.1723 -0.0133  0.1139
    2CHTO  H207  463   3.958   4.854   1.287 -2.1204 -0.6274  0.9288
    2CHTO  H208  464   3.999   5.000   1.195  0.1837 -0.2815 -0.2717
    2CHTO   O74  465   3.616   5.157   0.908 -0.1672 -0.3729  0.3123
    2CHTO  C115  466   3.658   5.189   0.752  0.2747 -0.3748 -0.5563
    2CHTO  H219  467   3.751   5.139   0.723  0.9657  1.6317 -1.9138
    2CHTO   O76  468   3.550   5.134   0.656  0.9430 -0.1969  0.3273
    2CHTO  C122  469   3.424   5.188   0.686  0.1433  0.3290 -0.2516
    2CHTO  H226  470   3.395   5.166   0.788 -0.7714 -1.1034 -0.7993
    2CHTO  C126  471   3.312   5.127   0.597  0.2406 -0.4873  0.7786
    2CHTO   O85  472   3.192   5.181   0.651 -0.5287  0.4129 -0.0327
    2CHTO  H206  473   3.115   5.147   0.609 -0.5065 -0.0809  0.3199
    2CHTO  C121  474   3.426   5.347   0.663 -0.1532 -0.2973  0.7045
    2CHTO  H225  475   3.361   5.365   0.575  1.9474 -0.7371 -0.9793
    2CHTO   O81  476   3.377   5.409   0.777  0.0494 -0.3292 -0.1598
    2CHTO  H202  477   3.434   5.398   0.851 -1.6183  1.2976  1.3943
    2CHTO  C119  478   3.574   5.391   0.621  0.5743  0.4537 -0.4485
    2CHTO  H223  479   3.597   5.345   0.525  0.4853  2.7825 -1.6247
    2CHTO  C117  480   3.678   5.344   0.729 -0.5496  0.0563 -0.1825
    2CHTO  H221  481   3.670   5.387   0.829  1.7910  0.8241 -0.2979
    2CHTO   N20  482   3.819   5.381   0.691  0.2001  0.1469 -0.2071
    2CHTO  H209  483   3.845   5.335   0.597  0.2262 -0.5266  0.1256
    2CHTO  H210  484   3.824   5.488   0.677  3.0133  0.3812  2.2040
    2CHTO   O80  485   3.582   5.535   0.583 -0.1818  0.1956  0.0595
    2CHTO  C103  486   3.577   5.583   0.437 -0.3762  0.0874  0.0938
    2CHTO  H190  487   3.673   5.552   0.395 -0.8917 -0.4835 -0.6697
    2CHTO  C101  488   3.456   5.529   0.349  0.1888  0.3457  0.1215
    2CHTO  H188  489   3.359   5.543   0.397  0.9976 -0.9892  2.2245
    2CHTO   O68  490   3.475   5.371   0.302  0.4299 -0.4176  0.0026
    2CHTO  H168  491   3.475   5.316   0.378  0.6275  1.7684  1.6207
    2CHTO   C99  492   3.450   5.624   0.220 -0.6298 -0.4356  0.3785
    2CHTO  H186  493   3.540   5.601   0.158  0.2742 -0.5032  1.7006
    2CHTO   N17  494   3.339   5.591   0.125 -0.0249 -0.2745 -0.9477
    2CHTO  H174  495   3.327   5.664   0.047 -1.7264 -0.1348 -0.5644
    2CHTO  H175  496   3.244   5.564   0.169  0.1354 -0.5658 -0.7781
    2CHTO   C97  497   3.451   5.777   0.248 -0.1720  0.1949  0.6442
    2CHTO  H184  498   3.359   5.813   0.295  0.3549  1.1662  0.9361
    2CHTO   O64  499   3.571   5.801   0.330  0.4455  0.1403  0.7009
    2CHTO  C104  500   3.582   5.735   0.457  0.5529 -0.5332  0.4572
    2CHTO  H191  501   3.501   5.766   0.524  0.2898 -0.1254 -0.0479
    2CHTO  C108  502   3.711   5.777   0.527 -0.4608  0.2623  0.1041
    2CHTO   O71  503   3.722   5.919   0.535 -0.5749 -0.2963  0.1805
    2CHTO  H171  504   3.804   5.940   0.575  0.2354  1.1049 -2.0972
    2CHTO   O62  505   3.491   5.861   0.134 -0.7554 -0.3909 -0.4187
    2CHTO   C91  506   3.443   5.998   0.141  0.1770  0.0905 -0.3479
    2CHTO  H178  507   3.445   6.031   0.245 -4.5863 -1.1834  0.2584
    2CHTO   C92  508   3.295   6.010   0.105  0.5093 -0.3502  0.3296
    2CHTO  H179  509   3.234   5.929   0.146 -0.4679  0.2471  0.0835
    2CHTO   O66  510   3.250   6.132   0.165  0.2753 -0.3551 -0.8394
    2CHTO  H166  511   3.159   6.127   0.185  0.4096  0.4871  0.0264
    2CHTO   C93  512   3.280   6.010  -0.057 -0.6865 -0.7986 -0.6108
    2CHTO  H180  513   3.179   6.054  -0.065 -1.0069 -1.1620  1.2889
    2CHTO   N16  514   3.263   5.883  -0.120  0.7592  0.9882  0.0525
    2CHTO  H172  515   3.182   5.818  -0.089  1.1036 -0.2074 -1.5232
    2CHTO  H173  516   3.352   5.823  -0.114 -0.4874 -0.9141 -0.1820
    2CHTO   C94  517   3.388   6.101  -0.131 -0.1174  0.1091  0.3108
    2CHTO  H181  518   3.458   6.040  -0.188 -2.1254 -2.2459  0.3163
    2CHTO   O61  519   3.457   6.177  -0.031  0.2544 -0.3372 -0.2125
    2CHTO   C95  520   3.532   6.095   0.059 -0.3953 -0.5206 -0.2794
    2CHTO  H182  521   3.612   6.043   0.006  0.8378  0.4898  0.5441
    2CHTO  C106  522   3.605   6.197   0.161  0.4032 -0.7524  0.6576
    2CHTO   O69  523   3.653   6.307   0.083 -0.2682  0.1612  0.2235
    2CHTO  H169  524   3.704   6.363   0.139 -2.4398  0.1173  2.3356
    2CHTO   O63  525   3.305   6.202  -0.233 -0.2892 -0.2711  0.4224
    2CHTO   C96  526   3.214   6.324  -0.157 -0.2343 -0.8209  0.1530
    2CHTO  H183  527   3.233   6.318  -0.050  0.2010 -0.1952  0.1226
    2CHTO   C98  528   3.061   6.309  -0.191 -1.1196 -0.2569  0.5454
    2CHTO  H185  529   3.044   6.313  -0.300 -0.1975 -0.0393  0.4056
    2CHTO   O67  530   3.011   6.177  -0.154 -0.0182  0.9423  0.1469
    2CHTO  H167  531   2.926   6.173  -0.194 -0.4037  0.2383  1.0206
    2CHTO  C102  532   2.977   6.427  -0.124 -0.5305  0.3697 -0.4118
    2CHTO  H189  533   2.989   6.416  -0.015 -2.9894 -1.7906 -0.2929
    2CHTO   N18  534   2.830   6.424  -0.141  0.6005 -0.7253  0.7569
    2CHTO  H176  535   2.790   6.514  -0.186 -1.3748 -0.9975  1.9099
    2CHTO  H177  536   2.798   6.417  -0.038  3.3349 -1.8604  1.5711
    2CHTO  C105  537   3.043   6.567  -0.162  0.9393 -0.0352  0.2756
    2CHTO  H192  538   2.970   6.623  -0.221  0.1041 -1.3804  0.0096
    2CHTO   O65  539   3.165   6.562  -0.232 -0.3987 -0.0315 -0.2790
    2CHTO  C100  540   3.267   6.457  -0.209  0.3870  0.6628 -0.9556
    2CHTO  H187  541   3.300   6.428  -0.310 -0.0414 -3.1969 -0.0654
    2CHTO  C107  542   3.392   6.495  -0.129  0.6825 -0.9423 -0.0969
    2CHTO   O70  543   3.360   6.542   0.007  0.1194  0.0601 -0.3538
    2CHTO  H170  544   3.350   6.469   0.065 -0.7473  0.5406  0.1100
    2CHTO   O57  545   3.054   6.646  -0.028  0.7949 -0.2056  0.2300
    2CHTO   C85  546   3.034   6.787  -0.034  0.3808 -0.8110  0.5488
    2CHTO  H157  547   2.943   6.811  -0.092  0.8613  0.4170  0.3018
    2CHTO   C83  548   3.152   6.854  -0.112  0.5376  0.2991  0.0168
    2CHTO  H155  549   3.153   6.815  -0.214  0.6579 -1.7709  0.8006
    2CHTO   O56  550   3.273   6.809  -0.052 -0.3817 -0.0392  0.2196
    2CHTO  H135  551   3.281   6.716  -0.061 -2.0991 -0.7959  4.8797
    2CHTO   C81  552   3.151   7.013  -0.106 -0.1847  0.1037 -0.5715
    2CHTO  H153  553   3.059   7.048  -0.154 -1.1810  0.6212  1.6801
    2CHTO   N14  554   3.257   7.077  -0.189 -0.9284 -0.5925 -0.3531
    2CHTO  H141  555   3.343   7.018  -0.210 -0.9134  0.1001 -2.3591
    2CHTO  H142  556   3.289   7.169  -0.144  1.9182 -2.0945  0.7966
    2CHTO   C79  557   3.158   7.063   0.044 -0.0092 -0.1516  0.4409
    2CHTO  H151  558   3.145   7.171   0.040 -1.2785 -0.3393 -1.1375
    2CHTO   O52  559   3.046   7.004   0.122 -0.0292  0.5110 -0.0402
    2CHTO   C86  560   3.021   6.855   0.109 -0.1593 -0.0297 -0.2702
    2CHTO  H158  561   3.098   6.810   0.175 -0.3268 -0.6130 -0.4649
    2CHTO   C90  562   2.883   6.820   0.174 -0.0393  0.0287 -0.3014
    2CHTO   O60  563   2.874   6.677   0.179 -0.2159  0.6686  0.0835
    2CHTO  H138  564   2.857   6.659   0.269  1.5393  2.3918  0.7878
    2CHTO   O50  565   3.280   7.033   0.110  0.2917  0.2282 -0.7654
    2CHTO   C73  566   3.362   7.067   0.222 -0.4416 -0.0562 -0.3254
    2CHTO  H145  567   3.338   7.172   0.245 -1.5392 -0.2769 -0.4353
    2CHTO   C74  568   3.512   7.063   0.183 -0.6086 -0.4267 -0.7138
    2CHTO  H146  569   3.532   7.121   0.092 -3.1028 -2.0798 -2.3788
    2CHTO   O54  570   3.578   7.128   0.290 -0.0329 -0.1900 -0.1844
    2CHTO  H133  571   3.669   7.124   0.269  0.4955 -0.6132  2.0722
    2CHTO   C75  572   3.551   6.911   0.153 -0.7497  0.3759 -0.2882
    2CHTO  H147  573   3.493   6.874   0.068  1.3591  0.1586 -1.6811
    2CHTO   N13  574   3.689   6.898   0.111 -0.2480  0.6156  0.2648
    2CHTO  H139  575   3.688   6.843   0.018  1.2894  0.3594  0.3873
    2CHTO  H140  576   3.757   6.982   0.109  0.6579 -0.0946  0.5775
    2CHTO   C76  577   3.509   6.814   0.281 -0.3009  0.5698 -0.5993
    2CHTO  H148  578   3.570   6.838   0.368 -0.0234 -1.3570 -0.2360
    2CHTO   O49  579   3.364   6.841   0.321 -0.4736  0.4556 -0.1772
    2CHTO   C77  580   3.342   6.977   0.356  0.6857 -0.2161  0.5748
    2CHTO  H149  581   3.399   7.024   0.436 -1.2356 -0.1930  1.9479
    2CHTO   C88  582   3.199   6.988   0.405  0.3989  0.4783 -0.8872
    2CHTO   O58  583   3.184   6.876   0.546 -0.1928  0.1627  0.1516
    2CHTO  H136  584   3.095   6.856   0.569  0.3607  1.2343  3.6293
    2CHTO   O51  585   3.524   6.668   0.246 -0.2638 -0.0774  0.1632
    2CHTO   C78  586   3.521   6.568   0.396  0.6518 -0.0194 -0.2292
    2CHTO  H150  587   3.505   6.632   0.485 -1.3255 -0.3271 -0.3401
    2CHTO   C80  588   3.660   6.494   0.404  0.7097 -0.3265 -0.1355
    2CHTO  H152  589   3.678   6.433   0.313 -1.9859 -0.2763 -0.7485
    2CHTO   O55  590   3.758   6.599   0.403 -0.7283 -0.6483 -0.5627
    2CHTO  H134  591   3.848   6.577   0.421 -1.2240 -3.3511 -1.1969
    2CHTO   C84  592   3.652   6.409   0.538  0.9221 -0.3264 -0.2028
    2CHTO  H156  593   3.631   6.484   0.614  0.1573 -1.0223  0.2833
    2CHTO   N15  594   3.778   6.348   0.573 -0.3949 -0.1780  0.0515
    2CHTO  H143  595   3.852   6.414   0.613  0.5499 -2.3781  2.0918
    2CHTO  H144  596   3.816   6.296   0.488 -1.3782  0.7192 -0.9599
    2CHTO   C87  597   3.537   6.306   0.543  0.5002 -0.3117 -0.3610
    2CHTO  H159  598   3.553   6.211   0.492 -0.7002 -1.7534  1.8288
    2CHTO   O53  599   3.400   6.374   0.487 -0.4323  0.2215 -0.4839
    2CHTO   C82  600   3.410   6.467   0.374  0.7410 -0.4900 -0.6784
    2CHTO  H154  601   3.428   6.416   0.279  1.5481 -1.4348 -0.0235
    2CHTO   C89  602   3.273   6.541   0.352  0.4805 -0.3164  0.1280
    2CHTO   O59  603   3.174   6.447   0.300 -0.5194  0.1659  0.1307
    2CHTO  H137  604   3.202   6.407   0.220  2.0036  1.3215  0.3580
    2CHTO   O45  605   3.516   6.259   0.704 -0.1850  0.2206 -0.0795
    2CHTO   C67  606   3.433   6.348   0.782  0.3897 -0.4079 -0.2274
    2CHTO  H124  607   3.439   6.452   0.751 -3.2666 -0.0666 -0.0448
    2CHTO   C65  608   3.276   6.314   0.780  0.1801 -0.1060  0.6834
    2CHTO  H122  609   3.264   6.230   0.711  0.3385 -0.9665  1.6801
    2CHTO   O44  610   3.193   6.418   0.735  0.4433  0.3957  0.3580
    2CHTO  H102  611   3.111   6.375   0.719  0.2124  0.2833  1.7804
    2CHTO   C63  612   3.230   6.253   0.914  0.9041  0.4208 -0.6445
    2CHTO  H120  613   3.284   6.159   0.930  0.5444  0.0027 -1.8304
    2CHTO   N11  614   3.085   6.204   0.927  0.4552 -0.6184  0.4306
    2CHTO  H108  615   3.042   6.226   0.831  2.6798 -0.5804 -0.5954
    2CHTO  H109  616   3.032   6.281   0.979 -0.3882 -0.5996 -0.4398
    2CHTO   C61  617   3.268   6.345   1.036  0.3157 -0.1123  0.4543
    2CHTO  H118  618   3.262   6.289   1.130 -0.1046 -0.2718  0.3355
    2CHTO   O40  619   3.409   6.387   1.026 -0.2156 -0.6236  0.8966
    2CHTO   C68  620   3.497   6.342   0.922  0.2017  0.5378 -0.0100
    2CHTO  H125  621   3.529   6.240   0.950 -2.0642 -0.0756  0.3828
    2CHTO   C72  622   3.626   6.435   0.922  0.6007 -0.0824  0.0538
    2CHTO   O48  623   3.600   6.570   0.872 -0.6915 -0.0005  0.4308
    2CHTO  H105  624   3.685   6.604   0.849 -0.1984 -0.5029  1.4626
    2CHTO   O38  625   3.182   6.458   1.047  0.2400 -0.4427 -0.1823
    2CHTO   C55  626   3.217   6.560   1.142 -0.2680  0.0855 -0.2286
    2CHTO  H112  627   3.325   6.576   1.158 -0.4157 -0.5585  1.5248
    2CHTO   C56  628   3.143   6.526   1.276 -0.1328 -0.1135  0.1910
    2CHTO  H113  629   3.035   6.518   1.258  0.0980  0.8001 -1.7218
    2CHTO   O42  630   3.178   6.394   1.324  0.0779 -0.6281 -0.0900
    2CHTO  H100  631   3.139   6.331   1.267 -0.9804 -0.9325  0.9429
    2CHTO   C57  632   3.171   6.648   1.376  0.0628 -0.2392  0.0117
    2CHTO  H114  633   3.279   6.648   1.391 -0.1624  0.2284  1.7140
    2CHTO   N10  634   3.103   6.634   1.504  0.0231  0.1889  0.2685
    2CHTO  H106  635   3.132   6.540   1.549 -0.0046  0.4517  0.8440
    2CHTO  H107  636   3.131   6.708   1.577  0.5914  0.7931 -0.5512
    2CHTO   C58  637   3.137   6.785   1.307 -0.7706  0.8068 -0.0461
    2CHTO  H115  638   3.029   6.790   1.286 -0.8763  1.9262  0.7427
    2CHTO   O37  639   3.210   6.800   1.183 -0.3097 -0.3087 -0.2385
    2CHTO   C59  640   3.183   6.699   1.083 -0.1998  0.2044 -0.1686
    2CHTO  H116  641   3.075   6.704   1.066 -0.0003  1.7095 -1.0971
    2CHTO   C70  642   3.266   6.729   0.958 -0.0625 -0.6473  0.4759
    2CHTO   O46  643   3.394   6.779   0.982  0.3052 -0.0062  0.1951
    2CHTO  H103  644   3.396   6.838   1.054  2.2214  1.3555 -0.9455
    2CHTO   O39  645   3.184   6.906   1.406  0.5058 -0.4044  0.3542
    2CHTO   C60  646   3.091   7.018   1.405 -0.3641 -0.2794 -0.1918
    2CHTO  H117  647   3.079   7.039   1.298  1.0894  0.1526 -0.2805
    2CHTO   C62  648   2.966   6.981   1.491 -0.8133  0.4669  0.4539
    2CHTO  H119  649   2.920   6.891   1.444 -0.1414  0.2870  0.1431
    2CHTO   O43  650   3.016   6.938   1.623 -0.2900 -0.2346 -0.2218
    2CHTO  H101  651   3.084   6.872   1.619  1.4845  1.6094 -1.6007
    2CHTO   C66  652   2.870   7.103   1.494  0.0349 -0.2302  0.0508
    2CHTO  H123  653   2.848   7.126   1.390  0.2743  1.2662  0.3189
    2CHTO   N12  654   2.741   7.083   1.571  0.3514 -0.0822 -0.3322
    2CHTO  H110  655   2.766   7.077   1.676  0.4564  1.2433 -0.2757
    2CHTO  H111  656   2.668   7.154   1.536 -0.5692 -1.1973 -0.6976
    2CHTO   C69  657   2.941   7.228   1.554  0.5264  0.6091  0.0682
    2CHTO  H126  658   2.964   7.204   1.660 -2.6332 -1.7092  0.2994
    2CHTO   O41  659   3.083   7.257   1.476  0.1568 -0.5323 -0.4031
    2CHTO   C64  660   3.168   7.144   1.467  0.6225 -0.5095 -0.0611
    2CHTO  H121  661   3.203   7.121   1.570  0.0753 -1.5783 -0.1067
    2CHTO   C71  662   3.305   7.180   1.403 -0.1275  0.3230 -0.5534
    2CHTO   O47  663   3.403   7.075   1.374 -0.2676  0.4411 -0.5881
    2CHTO  H104  664   3.448   7.053   1.454  1.3560 -1.0081 -1.8649
    2CHTO   O34  665   2.863   7.343   1.561  0.3995  0.5088  0.1361
    2CHTO   C49  666   2.758   7.474   1.572 -0.5693 -0.5432  0.2059
    2CHTO   H91  667   2.717   7.454   1.671  0.5997 -1.8182  0.4379
    2CHTO   C47  668   2.645   7.473   1.456  0.2409  0.2735 -0.0342
    2CHTO   H89  669   2.578   7.561   1.462  0.0443  0.0736  0.8238
    2CHTO   O33  670   2.559   7.356   1.487 -0.4927  0.3495  1.1995
    2CHTO   H70  671   2.501   7.378   1.558 -0.5682  2.2913  0.5755
    2CHTO   C45  672   2.700   7.475   1.322 -0.0882  0.0221 -0.4433
    2CHTO   H87  673   2.758   7.382   1.311  0.9145  0.6666 -0.7393
    2CHTO    N8  674   2.601   7.476   1.213  0.3739  0.0759  0.3382
    2CHTO   H75  675   2.608   7.391   1.147 -1.6233 -0.5929  0.9369
    2CHTO   H76  676   2.598   7.571   1.162 -1.5450  0.8039  1.7424
    2CHTO   C43  677   2.808   7.597   1.303 -0.3448 -0.8714 -0.0498
    2CHTO   H85  678   2.863   7.571   1.212  2.0168 -1.2098  1.4101
    2CHTO   O29  679   2.895   7.609   1.415  0.2863  0.2265  0.4974
    2CHTO   C50  680   2.837   7.609   1.549  0.1224 -0.8425  0.1332
    2CHTO   H92  681   2.931   7.618   1.606  0.7126  3.3918 -1.3372
    2CHTO   C54  682   2.760   7.738   1.582  0.1470  0.7492  0.0061
    2CHTO   O36  683   2.736   7.740   1.722  0.1179 -0.0690  0.7232
    2CHTO   H72  684   2.705   7.826   1.743  0.1199  0.0090  0.4103
    2CHTO   O27  685   2.750   7.723   1.271 -0.5776  0.0452  0.0748
    2CHTO   C37  686   2.675   7.816   1.196 -0.2156  0.1704 -0.3390
    2CHTO   H79  687   2.600   7.763   1.136 -1.1160  0.2636  0.6853
    2CHTO   C38  688   2.605   7.918   1.288  0.1166  0.2373 -0.0546
    2CHTO   H80  689   2.675   7.951   1.366 -0.0109 -0.4169  0.3398
    2CHTO   O31  690   2.503   7.839   1.349 -0.2389  0.3922  0.2612
    2CHTO   H68  691   2.446   7.892   1.401  2.7145  1.5123  2.4713
    2CHTO   C39  692   2.543   8.037   1.209  0.0883 -0.5908  0.2024
    2CHTO   H81  693   2.475   7.995   1.136 -1.4452  2.9553 -0.4992
    2CHTO    N7  694   2.466   8.137   1.286 -0.2814 -0.2363  0.6196
    2CHTO   H73  695   2.510   8.139   1.384  2.4673  0.1312 -0.5747
    2CHTO   H74  696   2.475   8.234   1.238 -1.3067 -1.0588 -1.2930
    2CHTO   C40  697   2.665   8.105   1.131 -0.1893 -0.0788  0.6504
    2CHTO   H82  698   2.735   8.135   1.209 -0.4843  0.5752  0.6662
    2CHTO   O26  699   2.714   8.003   1.047  0.0473  0.1562 -0.1261
    2CHTO   C41  700   2.776   7.891   1.110 -0.7531  0.6061  0.7604
    2CHTO   H83  701   2.851   7.935   1.177 -0.3438  0.9425  0.0806
    2CHTO   C52  702   2.844   7.806   0.997  0.2024  0.4263 -0.5287
    2CHTO   O35  703   2.948   7.876   0.945 -0.4086  0.1573 -0.6377
    2CHTO   H71  704   3.011   7.825   0.899  1.8624  0.3547  2.0865
    2CHTO   O28  705   2.641   8.205   1.030 -0.4815  0.0440  0.3130
    2CHTO   C42  706   2.740   8.313   1.013  0.5520  0.0930 -0.0085
    2CHTO   H84  707   2.699   8.378   0.936  0.0578 -0.4424 -0.1918
    2CHTO   C44  708   2.877   8.260   0.959 -0.1013  0.4290  0.1958
    2CHTO   H86  709   2.912   8.176   1.019 -1.6818  0.4934  1.2432
    2CHTO   O32  710   2.847   8.207   0.833  0.1139 -0.4933 -0.2754
    2CHTO   H69  711   2.931   8.197   0.793 -0.2103  1.3599 -1.4976
    2CHTO   C48  712   2.999   8.369   0.972  0.5704 -0.4773 -0.6557
    2CHTO   H90  713   2.973   8.448   0.901 -0.7232 -1.4859 -1.3225
    2CHTO    N9  714   3.137   8.319   0.938 -0.9114  0.6648  0.1397
    2CHTO   H77  715   3.216   8.382   0.977  0.4836  0.6829 -2.6037
    2CHTO   H78  716   3.138   8.219   0.978  1.3717  0.4462 -0.4083
    2CHTO   C51  717   2.989   8.432   1.117 -0.6403  0.4508  0.3088
    2CHTO   H93  718   2.994   8.349   1.187  1.0950  0.8814  0.7065
    2CHTO   O30  719   2.864   8.504   1.126  0.1433  0.3049  0.3668
    2CHTO   C46  720   2.757   8.412   1.142 -0.5879 -0.0479 -0.7027
    2CHTO   H88  721   2.781   8.353   1.230 -1.7075 -1.2721 -1.2017
    2CHTO   C53  722   2.633   8.493   1.157 -0.0289 -0.3176  0.3685
    2CHTO   O72  723   2.627   8.546   1.292 -0.0444 -0.1394  0.3389
    2CHTO  H199  724   2.550   8.594   1.316 -0.9347 -1.3634 -0.0360
    2CHTO   O22  725   3.095   8.521   1.147  0.4825 -1.0469 -0.2029
    2CHTO   C31  726   3.138   8.547   1.280  0.0542  0.1776  0.1655
    2CHTO   H59  727   3.199   8.639   1.271 -0.6391  0.5723 -0.6093
    2CHTO   C29  728   3.029   8.577   1.386 -0.1452 -0.7034 -0.1640
    2CHTO   H57  729   2.971   8.484   1.396  0.5889 -1.1875 -0.3707
    2CHTO   O21  730   2.935   8.677   1.344  0.3296 -0.9030  0.0170
    2CHTO   H37  731   2.944   8.750   1.403  0.7749 -0.5097 -0.5345
    2CHTO   C27  732   3.093   8.611   1.532  0.3646 -0.2822  0.3028
    2CHTO   H55  733   3.145   8.708   1.528  0.8655 -0.5168  1.0177
    2CHTO    N5  734   2.983   8.622   1.632  0.3813 -0.5216 -0.1122
    2CHTO   H43  735   3.021   8.603   1.731  2.9550  0.1525 -0.9282
    2CHTO   H44  736   2.935   8.718   1.621  1.1804 -0.2646 -1.5397
    2CHTO   C25  737   3.198   8.500   1.574 -0.2538  0.0808  0.4061
    2CHTO   H53  738   3.145   8.406   1.599 -1.0948  0.9191  1.8037
    2CHTO   O17  739   3.289   8.469   1.463  0.5555 -0.0312 -0.2870
    2CHTO   C32  740   3.230   8.434   1.336  0.1713  0.3849  0.3677
    2CHTO   H60  741   3.173   8.342   1.355 -1.3493  0.9755 -1.1711
    2CHTO   C36  742   3.342   8.409   1.237  0.5186  0.1673 -0.4227
    2CHTO   O25  743   3.417   8.288   1.250  0.3126 -0.4804  0.4269
    2CHTO   H40  744   3.354   8.222   1.273 -0.3261  0.2551  0.8144
    2CHTO   O15  745   3.280   8.537   1.690 -0.2554 -1.4621  0.0774
    2CHTO   C19  746   3.278   8.440   1.799  0.2610  0.5319  0.9063
    2CHTO   H47  747   3.173   8.409   1.812  0.2204  0.2239 -0.1428
    2CHTO   C20  748   3.360   8.312   1.784 -0.5240 -0.4162 -0.0405
    2CHTO   H48  749   3.462   8.340   1.754 -0.6618  2.6811  2.0791
    2CHTO   O19  750   3.312   8.248   1.665 -0.1624  0.4953 -0.3826
    2CHTO   H35  751   3.346   8.161   1.670 -0.2308  0.5204  0.8792
    2CHTO   C21  752   3.348   8.208   1.903  0.6731  0.1951  0.3003
    2CHTO   H49  753   3.245   8.175   1.912  0.8976 -0.7170 -0.3411
    2CHTO    N4  754   3.432   8.082   1.884  0.0558 -0.5199 -0.2960
    2CHTO   H41  755   3.375   7.991   1.873 -0.0821 -0.4813  0.0742
    2CHTO   H42  756   3.511   8.070   1.957  1.8807  2.4824 -1.6869
    2CHTO   C22  757   3.363   8.282   2.041 -0.5089  0.1217 -0.4675
    2CHTO   H50  758   3.471   8.292   2.052 -0.0490 -2.4020 -2.2212
    2CHTO   O14  759   3.289   8.403   2.039  0.3611  0.4248 -0.0410
    2CHTO   C23  760   3.321   8.505   1.942 -0.6167 -0.0982  0.3729
    2CHTO   H51  761   3.427   8.533   1.943  0.1180 -2.7310  0.7228
    2CHTO   C34  762   3.236   8.630   1.972  0.6265  0.0936  0.2949
    2CHTO   O23  763   3.277   8.687   2.095  0.0079 -0.3068 -0.3744
    2CHTO   H38  764   3.231   8.652   2.169 -0.7074  1.9217  0.2754
    2CHTO   O16  765   3.308   8.211   2.154  0.1093  0.2770  0.5316
    2CHTO   C24  766   3.342   8.284   2.297  0.1546  0.1189  0.8839
    2CHTO   H52  767   3.365   8.389   2.281 -0.9594  0.4213  1.1917
    2CHTO   C26  768   3.452   8.202   2.376 -0.2991 -0.1418  0.1660
    2CHTO   H54  769   3.417   8.098   2.392 -0.4502  0.0651  1.2408
    2CHTO   O20  770   3.569   8.201   2.289  0.3448  0.0444 -0.1744
    2CHTO   H36  771   3.540   8.171   2.205 -0.6927  1.0801 -0.2089
    2CHTO   C30  772   3.476   8.262   2.518  0.1966 -0.2156  0.3715
    2CHTO   H58  773   3.494   8.370   2.520  1.8065 -0.4496 -0.9901
    2CHTO    N6  774   3.581   8.191   2.596 -0.0504  0.2421  0.2545
    2CHTO   H45  775   3.679   8.229   2.574 -0.3782 -1.4118 -4.7176
    2CHTO   H46  776   3.587   8.084   2.584  2.3085  0.3468  0.2972
    2CHTO   C33  777   3.339   8.251   2.596 -0.5081 -0.6706  0.2626
    2CHTO   H61  778   3.306   8.147   2.608  1.8843 -1.6341 -1.0634
    2CHTO   O18  779   3.234   8.322   2.521  0.3492  0.0956  0.0071
    2CHTO   C28  780   3.209   8.280   2.384 -0.2622 -0.2987 -0.1308
    2CHTO   H56  781   3.163   8.182   2.386  1.5195 -1.1240  1.5839
    2CHTO   C35  782   3.106   8.378   2.322 -0.2214 -0.1107 -0.4529
    2CHTO   O24  783   3.133   8.509   2.365  0.2246 -0.3257 -0.0836
    2CHTO   H39  784   3.063   8.532   2.424 -0.4808  1.0225 -1.4117
    2CHTO    O9  785   3.345   8.298   2.727 -0.4452  0.6368  0.2539
    2CHTO   C13  786   3.227   8.257   2.818  0.4415 -0.1482 -0.2579
    2CHTO   H26  787   3.202   8.151   2.798 -0.7430  0.0881 -0.0620
    2CHTO   C11  788   3.103   8.350   2.794  0.7638  0.1529  0.1458
    2CHTO   H24  789   3.077   8.343   2.688 -0.4146  1.2914  0.3558
    2CHTO    O8  790   3.145   8.487   2.817 -0.0795 -0.6970  0.4477
    2CHTO    H3  791   3.165   8.524   2.733 -3.2270  1.4263  0.5600
    2CHTO    C9  792   2.985   8.305   2.889  0.0210 -0.4360  0.0394
    2CHTO   H22  793   2.976   8.196   2.881  0.1138 -0.3466 -1.2790
    2CHTO    N2  794   2.857   8.368   2.859 -0.5980 -0.1497 -0.0717
    2CHTO   H10  795   2.849   8.409   2.760  0.1262  0.5386  0.1443
    2CHTO   H11  796   2.772   8.314   2.897 -0.1612 -0.3068  0.7069
    2CHTO    C7  797   3.024   8.344   3.031 -0.3650  0.3209 -0.0112
    2CHTO   H20  798   2.943   8.301   3.093  1.1387 -3.6360 -0.6611
    2CHTO    O4  799   3.154   8.292   3.073 -0.0783  0.1631  0.3508
    2CHTO   C14  800   3.262   8.271   2.975 -0.1978 -0.1210 -0.1399
    2CHTO   H27  801   3.304   8.171   2.998 -0.2823 -0.0817  0.1848
    2CHTO   C18  802   3.365   8.380   3.023  0.0391 -0.0969  0.0528
    2CHTO   O13  803   3.484   8.305   3.041  0.3347 -1.0702  0.2441
    2CHTO    H7  804   3.485   8.249   3.116 -3.6851  0.8271  1.8541
    2CHTO    O2  805   3.020   8.529   3.060  0.6629  0.1627  0.3670
    2CHTO    C1  806   3.002   8.550   3.201  0.4298 -0.5320 -0.5163
    2CHTO   H14  807   3.053   8.468   3.255 -2.7931 -1.5854  1.0568
    2CHTO    C2  808   2.851   8.562   3.245 -0.8720 -0.2113  0.7229
    2CHTO   H15  809   2.808   8.652   3.198  1.0059  1.2826  1.8137
    2CHTO    O6  810   2.775   8.449   3.186 -0.1860  0.0803 -0.1507
    2CHTO    H1  811   2.686   8.466   3.211 -0.2657  1.0706 -1.0639
    2CHTO    C3  812   2.845   8.576   3.411  0.0027  0.2218  0.1712
    2CHTO   H16  813   2.894   8.488   3.455  0.1769 -0.1670 -0.7788
    2CHTO    N1  814   2.704   8.589   3.455  0.2499  0.2600 -0.7787
    2CHTO    H8  815   2.640   8.643   3.387 -4.0172 -2.9382  0.4741
    2CHTO    H9  816   2.699   8.634   3.553  1.1126 -0.8827 -0.2008
    2CHTO    C4  817   2.935   8.705   3.445 -0.1463 -0.2789  0.2976
    2CHTO   H17  818   2.888   8.793   3.401 -0.1570 -0.8181 -0.7800
    2CHTO    O1  819   3.071   8.692   3.396  0.1294 -0.0117  0.9185
    2CHTO    C5  820   3.076   8.677   3.251 -0.0586  0.3685 -0.7549
    2CHTO   H18  821   3.031   8.761   3.198 -2.5355  0.3813  1.2189
    2CHTO   C16  822   3.233   8.673   3.219  0.2578 -0.2422 -0.4385
    2CHTO   O11  823   3.301   8.574   3.298  0.0040  0.3975 -0.3054
    2CHTO    H5  824   3.385   8.606   3.324 -0.0299 -0.2363  0.6084
    2CHTO    O3  825   2.948   8.718   3.584 -0.2395 -0.1206 -0.5216
    2CHTO    C6  826   2.996   8.838   3.647 -1.0390 -0.3607 -0.1583
    2CHTO   H19  827   3.036   8.909   3.574  1.3552  0.8979  2.3182
    2CHTO    C8  828   2.880   8.912   3.718 -0.1354  0.7843  0.4268
    2CHTO   H21  829   2.841   8.845   3.795 -0.6148  0.2897 -0.2430
    2CHTO    O7  830   2.781   8.951   3.619 -0.3448  0.4728 -0.3282
    2CHTO    H2  831   2.709   8.998   3.657  0.8373  1.8401  0.2462
    2CHTO   C12  832   2.943   9.038   3.799  0.3710 -0.1588  0.5896
    2CHTO   H25  833   2.992   9.106   3.726  0.1440  0.4568  1.0068
    2CHTO    N3  834   2.839   9.113   3.867 -0.2267  0.7342 -0.3099
    2CHTO   H12  835   2.773   9.172   3.805 -0.1305  1.5236  0.3374
    2CHTO   H13  836   2.788   9.051   3.938  1.5584  0.4892  0.7941
    2CHTO   C15  837   3.057   8.988   3.900 -0.1460  0.3431  0.1201
    2CHTO   H28  838   3.014   8.920   3.975  1.7189 -0.8973  0.0876
    2CHTO   O10  839   3.123   9.102   3.966  0.8821  0.0513  0.4690
    2CHTO    H4  840   3.074   9.122   4.043  1.2591 -0.8362  0.9562
    2CHTO    O5  841   3.158   8.924   3.820 -0.0958 -0.3665  0.2441
    2CHTO   C10  842   3.113   8.810   3.744  0.0491  0.4860 -0.2064
    2CHTO   H23  843   3.067   8.741   3.814  2.1746  0.2369  0.9824
    2CHTO   C17  844   3.231   8.740   3.673  0.3489 -0.8775  0.0875
    2CHTO   O12  845   3.325   8.702   3.770  0.3446 -0.4280  0.0127
    2CHTO    H6  846   3.389   8.767   3.791  0.2490 -0.8462  1.6734
    3CHTO  H203  847   7.054   2.875   2.388 -1.1762  0.9171  3.4656
    3CHTO   O82  848   7.144   2.883   2.412 -0.1074 -0.6911  0.3829
    3CHTO  C123  849   7.219   2.767   2.379 -0.6047 -0.1344  0.3920
    3CHTO  H227  850   7.324   2.792   2.398  0.0358 -2.3619  0.0140
    3CHTO   O77  851   7.174   2.669   2.476 -0.4138 -0.3929  0.0393
    3CHTO  C118  852   7.211   2.536   2.459 -0.1430  0.8887 -0.5808
    3CHTO  H222  853   7.319   2.517   2.467 -0.0295  0.5835 -2.4555
    3CHTO  C125  854   7.133   2.450   2.560 -0.2573 -0.1810  0.5276
    3CHTO   O84  855   6.989   2.461   2.575  0.5673 -0.3928  0.0472
    3CHTO  H205  856   6.976   2.525   2.642  1.1270 -0.7829  0.5231
    3CHTO  C114  857   7.172   2.491   2.315 -0.4978  0.9470 -0.6266
    3CHTO  H218  858   7.065   2.511   2.303 -1.1505 -0.3559  2.5866
    3CHTO  C116  859   7.239   2.579   2.204  0.1167 -0.2881  0.2064
    3CHTO  H220  860   7.348   2.569   2.224  0.3050  0.2811 -0.4931
    3CHTO   O79  861   7.195   2.524   2.078 -0.0160 -0.1926 -0.4930
    3CHTO  H201  862   7.167   2.590   2.018  0.1304 -1.8648 -2.4907
    3CHTO  C120  863   7.196   2.724   2.227 -0.1812 -0.4045 -0.1673
    3CHTO  H224  864   7.085   2.730   2.215 -0.2307  1.3896  0.8443
    3CHTO   N21  865   7.266   2.817   2.137 -0.2296 -0.1981 -0.2146
    3CHTO  H211  866   7.196   2.896   2.113 -0.1383 -0.2663 -0.7228
    3CHTO  H212  867   7.356   2.855   2.183  0.5556  0.3166 -2.1136
    3CHTO   O75  868   7.209   2.353   2.300 -0.5461  0.2804 -0.5182
    3CHTO  C112  869   7.103   2.256   2.218 -0.2302 -0.0774 -0.3041
    3CHTO  H216  870   7.082   2.296   2.118 -4.0865  2.2068  1.3418
    3CHTO   O73  871   6.982   2.251   2.294 -0.3706  0.1466 -0.4990
    3CHTO  C113  872   6.880   2.168   2.248 -0.3149  0.2427  0.5151
    3CHTO  H217  873   6.839   2.193   2.148  1.9430 -1.7107 -0.9523
    3CHTO  C124  874   6.760   2.193   2.338  0.1574  0.5492 -0.0662
    3CHTO   O83  875   6.770   2.149   2.476 -0.1171  0.3065  0.1817
    3CHTO  H204  876   6.687   2.153   2.519 -0.7644  3.0034 -1.2092
    3CHTO  C109  877   6.935   2.023   2.248 -0.1086  0.7163 -0.0836
    3CHTO  H213  878   6.948   1.996   2.354  1.2096  1.1179 -0.1439
    3CHTO  C110  879   7.058   2.006   2.168 -0.5312  0.5590 -0.3400
    3CHTO  H214  880   7.038   2.021   2.062  2.7997  1.9168 -0.8452
    3CHTO   O78  881   7.100   1.867   2.182 -0.0354 -0.0270 -0.0603
    3CHTO  H200  882   7.117   1.856   2.274 -1.3071 -0.3222  0.1511
    3CHTO  C111  883   7.162   2.110   2.213 -0.3951  0.5539  0.8549
    3CHTO  H215  884   7.182   2.083   2.318  1.0169 -1.3174  0.1323
    3CHTO   N19  885   7.291   2.108   2.136  0.1764 -0.6268  0.3552
    3CHTO  H207  886   7.271   2.163   2.045 -0.1534 -1.1295  0.1201
    3CHTO  H208  887   7.331   2.009   2.114 -2.9804 -1.8054 -0.3160
    3CHTO   O74  888   6.842   1.928   2.191 -0.0118 -0.4261 -0.3670
    3CHTO  C115  889   6.805   1.798   2.270  0.2910 -0.3473 -0.4538
    3CHTO  H219  890   6.892   1.752   2.318 -0.1184  1.8557  2.5330
    3CHTO   O76  891   6.708   1.831   2.396  0.5219  0.3492  0.2155
    3CHTO  C122  892   6.578   1.869   2.357 -0.1580  0.4313 -0.7545
    3CHTO  H226  893   6.586   1.971   2.318  0.3613  0.6045 -0.2057
    3CHTO  C126  894   6.480   1.877   2.480  0.5474 -0.2895 -0.0099
    3CHTO   O85  895   6.469   2.006   2.539 -0.1580  0.5174 -0.6118
    3CHTO  H206  896   6.403   2.011   2.606  2.5707 -0.2817  2.2646
    3CHTO  C121  897   6.506   1.789   2.240  0.0488 -0.1277 -0.6770
    3CHTO  H225  898   6.413   1.751   2.287 -0.6840 -1.3645 -3.0195
    3CHTO   O81  899   6.466   1.863   2.122 -0.6863 -0.1069  0.3269
    3CHTO  H202  900   6.531   1.850   2.055  0.3652 -1.0939  1.5039
    3CHTO  C119  901   6.597   1.666   2.207 -0.1344 -0.0900 -0.6109
    3CHTO  H223  902   6.601   1.616   2.304 -0.6916 -0.2999 -0.6945
    3CHTO  C117  903   6.745   1.695   2.170 -0.0749  0.6552 -0.1279
    3CHTO  H221  904   6.752   1.741   2.071  1.6381 -1.3441 -0.9525
    3CHTO   N20  905   6.821   1.571   2.158 -0.2119 -0.1876  0.2731
    3CHTO  H209  906   6.794   1.507   2.241 -0.0396 -0.0130  0.4643
    3CHTO  H210  907   6.797   1.524   2.064 -2.4724  0.5591  0.4457
    3CHTO   O80  908   6.523   1.557   2.118  0.2095 -0.4011 -0.4771
    3CHTO  C103  909   6.409   1.480   2.170  0.2767  0.3877  0.1100
    3CHTO  H190  910   6.388   1.510   2.273  2.8484  1.6805  0.2889
    3CHTO  C101  911   6.279   1.489   2.077 -0.8595  0.2175 -0.0281
    3CHTO  H188  912   6.319   1.455   1.982 -1.3686 -2.3575  0.6392
    3CHTO   O68  913   6.227   1.634   2.076 -0.6383 -0.2849  0.3115
    3CHTO  H168  914   6.228   1.663   1.987 -0.6214 -0.1245  0.3634
    3CHTO   C99  915   6.176   1.377   2.119 -0.3525 -0.9350 -0.5120
    3CHTO  H186  916   6.142   1.398   2.223 -0.1800 -0.6205 -0.5189
    3CHTO   N17  917   6.049   1.387   2.025 -0.5443  0.0995  0.1726
    3CHTO  H174  918   6.021   1.295   1.976  0.6801  0.1955 -0.7409
    3CHTO  H175  919   5.971   1.443   2.073 -0.3929  1.5262 -1.2212
    3CHTO   C97  920   6.238   1.242   2.116 -0.2733 -0.0177 -0.4907
    3CHTO  H184  921   6.266   1.215   2.013  0.7352 -1.1090  0.0524
    3CHTO   O64  922   6.359   1.243   2.205  0.2464  0.1491  0.4123
    3CHTO  C104  923   6.465   1.336   2.177  0.8838  0.2045 -0.1901
    3CHTO  H191  924   6.511   1.319   2.080 -2.2032 -0.1095 -1.6837
    3CHTO  C108  925   6.563   1.306   2.287  0.1062 -0.0220 -0.2938
    3CHTO   O71  926   6.639   1.184   2.263  0.7637 -0.0400  0.4324
    3CHTO  H171  927   6.694   1.162   2.336 -0.7531 -0.4032  1.4920
    3CHTO   O62  928   6.160   1.141   2.176 -0.0845 -0.1784  0.0397
    3CHTO   C91  929   6.132   1.032   2.089  0.0899  0.1740  0.4321
    3CHTO  H178  930   6.172   1.048   1.989 -0.1851  1.4409  0.5230
    3CHTO   C92  931   5.976   1.009   2.079 -0.2653 -0.3293  0.3376
    3CHTO  H179  932   5.934   1.018   2.180 -1.1668  0.4265 -0.1025
    3CHTO   O66  933   5.922   1.113   1.994 -0.2934 -0.2198  0.0099
    3CHTO  H166  934   5.830   1.121   2.010 -0.7948 -2.3084 -1.6561
    3CHTO   C93  935   5.941   0.867   2.019  0.0130  0.4814 -1.2514
    3CHTO  H180  936   5.967   0.876   1.912  1.7360  1.9274 -0.7306
    3CHTO   N16  937   5.798   0.828   2.027 -0.6154  0.3345 -0.5326
    3CHTO  H172  938   5.778   0.761   2.110  1.8548 -0.3271 -0.4470
    3CHTO  H173  939   5.738   0.917   2.024  1.2849  1.6759  0.4022
    3CHTO   C94  940   6.034   0.757   2.082  0.3059 -0.2679  0.7663
    3CHTO  H181  941   6.011   0.740   2.187 -0.9596 -1.0894  0.3776
    3CHTO   O61  942   6.169   0.799   2.052 -0.4851  0.2676 -0.1182
    3CHTO   C95  943   6.202   0.911   2.129 -0.3382 -0.1981 -0.6755
    3CHTO  H182  944   6.164   0.884   2.228 -0.3103 -0.5565 -0.7593
    3CHTO  C106  945   6.356   0.917   2.154 -0.1620  0.0122  0.2325
    3CHTO   O69  946   6.388   0.985   2.275  0.7057 -0.6445  0.0145
    3CHTO  H169  947   6.465   0.953   2.318 -0.0285 -3.3590 -0.5697
    3CHTO   O63  948   6.011   0.621   1.990 -0.1648 -0.5101  0.3613
    3CHTO   C96  949   5.967   0.492   2.050  0.1868 -0.2795 -0.4154
    3CHTO  H183  950   5.985   0.412   1.979  1.1219 -0.5602  0.1152
    3CHTO   C98  951   5.812   0.473   2.083 -0.0336 -0.1267  0.4992
    3CHTO  H185  952   5.779   0.559   2.143 -1.4950 -0.0593 -0.3877
    3CHTO   O67  953   5.735   0.480   1.955 -0.0446  0.0408  0.1955
    3CHTO  H167  954   5.751   0.567   1.924  1.2627  0.1754  1.2101
    3CHTO  C102  955   5.781   0.336   2.151  0.3513 -0.1339 -0.6475
    3CHTO  H189  956   5.789   0.257   2.075 -0.4392 -1.2716  0.4095
    3CHTO   N18  957   5.644   0.321   2.201  0.7030 -0.3474 -0.2246
    3CHTO  H176  958   5.600   0.243   2.141 -0.5808  0.5896 -0.5439
    3CHTO  H177  959   5.583   0.408   2.179  1.0847 -0.2688 -0.9962
    3CHTO  C105  960   5.886   0.301   2.263  0.1803 -0.4537  0.0141
    3CHTO  H192  961   5.875   0.368   2.348  1.3181  0.3672 -0.4670
    3CHTO   O65  962   6.019   0.323   2.220 -0.0460 -0.1368 -0.2003
    3CHTO  C100  963   6.044   0.458   2.179  0.0271 -0.3844 -0.0844
    3CHTO  H187  964   6.023   0.528   2.261  0.9875 -1.1119  0.7925
    3CHTO  C107  965   6.186   0.486   2.170 -0.7871  0.8665  0.3098
    3CHTO   O70  966   6.243   0.409   2.060 -0.0943 -0.3821  0.1814
    3CHTO  H170  967   6.266   0.325   2.096 -0.1940  0.1282  1.4904
    3CHTO   O57  968   5.862   0.128   2.299  0.9278 -0.3789 -0.4236
    3CHTO   C85  969   5.880   0.063   2.422 -0.6034  0.6125  0.1398
    3CHTO  H157  970   5.957  -0.014   2.401 -0.0699  1.5583 -1.4832
    3CHTO   C83  971   5.754  -0.027   2.441  0.0289 -0.4662 -0.4462
    3CHTO  H155  972   5.745  -0.092   2.354  2.1883  0.2428 -1.2172
    3CHTO   O56  973   5.637   0.057   2.444 -0.4248  0.4758 -0.9387
    3CHTO  H135  974   5.561   0.010   2.416 -0.3545  1.0288 -2.1115
    3CHTO   C81  975   5.780  -0.120   2.566  0.2430  0.4681  0.4009
    3CHTO  H153  976   5.870  -0.181   2.551 -0.5704 -0.8155  0.6949
    3CHTO   N14  977   5.664  -0.206   2.589  0.0651  0.2478 -0.3428
    3CHTO  H141  978   5.657  -0.280   2.512  0.8697  0.5951 -0.7572
    3CHTO  H142  979   5.674  -0.254   2.684 -0.1164 -2.9644 -1.8674
    3CHTO   C79  980   5.806  -0.032   2.698 -0.2286 -0.6288  0.6035
    3CHTO  H151  981   5.831  -0.100   2.779 -0.1278 -0.3225  0.8262
    3CHTO   O52  982   5.921   0.050   2.677 -1.0638 -0.4802  0.2585
    3CHTO   C86  983   5.914   0.144   2.552 -0.6254 -0.5548 -0.5013
    3CHTO  H158  984   5.838   0.224   2.566  1.7547  1.9052 -1.0927
    3CHTO   C90  985   6.046   0.215   2.536 -0.4167 -0.6487  0.1187
    3CHTO   O60  986   6.066   0.312   2.638  0.9242 -0.4577 -0.4658
    3CHTO  H138  987   6.046   0.273   2.720  1.2986 -0.3036 -0.3007
    3CHTO   O50  988   5.699   0.053   2.730 -0.3190 -0.5541  0.2911
    3CHTO   C73  989   5.646   0.102   2.854  0.1752  0.4076 -0.7902
    3CHTO  H145  990   5.683   0.042   2.939 -2.9598 -1.4664 -0.6541
    3CHTO   C74  991   5.489   0.095   2.849 -0.0364 -0.1295  0.0052
    3CHTO  H146  992   5.462  -0.011   2.837  0.2635 -0.4489  1.9994
    3CHTO   O54  993   5.443   0.136   2.980  0.6251  0.7428 -0.6121
    3CHTO  H133  994   5.383   0.071   3.011  0.9379 -0.1981 -1.9424
    3CHTO   C75  995   5.440   0.189   2.731 -0.2617 -0.6305 -0.2605
    3CHTO  H147  996   5.470   0.143   2.636  0.4125  1.5818 -1.1417
    3CHTO   N13  997   5.295   0.191   2.709 -0.4743  0.3344  0.5360
    3CHTO  H139  998   5.253   0.093   2.727  0.8247  0.1134  2.5149
    3CHTO  H140  999   5.246   0.261   2.775 -0.9421 -0.3696  0.9454
    3CHTO   C76 1000   5.506   0.333   2.739  0.1071  0.1825  0.6540
    3CHTO  H148 1001   5.448   0.385   2.815  1.5661  3.2895 -0.2749
    3CHTO   O49 1002   5.647   0.328   2.768  0.0853 -0.6734  0.1979
    3CHTO   C77 1003   5.684   0.248   2.877  0.5507  0.5220  0.3820
    3CHTO  H149 1004   5.641   0.285   2.970  2.2201  0.2699  1.2682
    3CHTO   C88 1005   5.838   0.267   2.901 -0.1679 -0.1790  0.2282
    3CHTO   O58 1006   5.891   0.191   2.990 -0.3622 -0.0717 -0.8220
    3CHTO  H136 1007   5.881   0.233   3.073  1.0934 -1.2222 -0.0394
    3CHTO   O51 1008   5.500   0.418   2.592  0.3526 -0.6165  0.5549
    3CHTO   C78 1009   5.497   0.570   2.618  0.9722 -0.1941  0.7686
    3CHTO  H150 1010   5.525   0.596   2.722  0.2079  2.3137  0.3742
    3CHTO   C80 1011   5.356   0.623   2.590  0.2294  0.5334  0.1252
    3CHTO  H152 1012   5.323   0.586   2.491  0.2396 -0.0080  0.3224
    3CHTO   O55 1013   5.278   0.555   2.688  0.3908  0.3181 -0.0842
    3CHTO  H134 1014   5.215   0.495   2.654 -2.1293  1.9103  1.6403
    3CHTO   C84 1015   5.342   0.780   2.604  0.1107 -0.2650  0.0039
    3CHTO  H156 1016   5.384   0.805   2.702 -2.1997 -0.1049  0.9840
    3CHTO   N15 1017   5.198   0.831   2.584 -0.4151  0.3252 -0.2273
    3CHTO  H143 1018   5.143   0.786   2.664  1.0650  1.9520  1.7448
    3CHTO  H144 1019   5.201   0.937   2.599 -1.4395  0.2362  0.6900
    3CHTO   C87 1020   5.445   0.840   2.508  0.1317 -0.2259 -0.3271
    3CHTO  H159 1021   5.426   0.826   2.401  0.0021  2.3708 -0.6814
    3CHTO   O53 1022   5.591   0.791   2.544  0.1163  0.0025  0.2334
    3CHTO   C82 1023   5.603   0.649   2.536  0.5731  0.5611  0.1465
    3CHTO  H154 1024   5.598   0.624   2.430  1.7587 -0.2711  0.2816
    3CHTO   C89 1025   5.750   0.614   2.578  0.0634 -0.2854  0.2931
    3CHTO   O59 1026   5.782   0.478   2.574  0.1821  0.4325 -0.6656
    3CHTO  H137 1027   5.746   0.436   2.649  2.6611 -0.2908  0.1586
    3CHTO   O45 1028   5.439   1.014   2.542  0.0414  0.2794  0.0859
    3CHTO   C67 1029   5.554   1.087   2.499  0.7166  0.4960  0.7836
    3CHTO  H124 1030   5.642   1.026   2.519 -0.5406 -1.1144  1.4506
    3CHTO   C65 1031   5.554   1.117   2.346 -0.1873  0.1279  0.1311
    3CHTO  H122 1032   5.451   1.130   2.311 -0.7242 -1.1762  1.2084
    3CHTO   O44 1033   5.616   1.002   2.280 -0.1161  0.4826 -0.3694
    3CHTO  H102 1034   5.554   0.932   2.270 -1.9745  2.2802 -1.9859
    3CHTO   C63 1035   5.625   1.254   2.309  0.2885 -0.1978 -0.0153
    3CHTO  H120 1036   5.547   1.328   2.324 -1.7555 -1.5189 -3.5588
    3CHTO   N11 1037   5.668   1.277   2.168  0.5058 -0.2530  0.2672
    3CHTO  H108 1038   5.608   1.212   2.109 -1.3669 -1.0091  2.9080
    3CHTO  H109 1039   5.769   1.243   2.157  0.3967 -0.0241 -1.6115
    3CHTO   C61 1040   5.739   1.280   2.412 -0.7615  0.6871 -0.5020
    3CHTO  H118 1041   5.786   1.377   2.390  0.8309  0.0993  0.2691
    3CHTO   O40 1042   5.700   1.286   2.544  0.0272  0.0440 -0.5191
    3CHTO   C68 1043   5.569   1.225   2.585  0.0384  0.6049  0.1245
    3CHTO  H125 1044   5.485   1.293   2.562 -0.0575  0.4916  0.1416
    3CHTO   C72 1045   5.569   1.200   2.736  0.0554  0.7539 -0.3494
    3CHTO   O48 1046   5.566   1.319   2.813 -0.2276 -0.3932  0.0703
    3CHTO  H105 1047   5.530   1.289   2.894 -1.2683  1.2421  0.2428
    3CHTO   O38 1048   5.848   1.184   2.396 -0.1018  0.4827  0.0792
    3CHTO   C55 1049   5.947   1.173   2.503 -0.2358 -0.0217 -0.1570
    3CHTO  H112 1050   5.893   1.160   2.598  1.2240  1.4368  0.9040
    3CHTO   C56 1051   6.051   1.298   2.506 -0.4654  0.1628  0.5478
    3CHTO  H113 1052   6.093   1.303   2.404 -1.1223  1.2928  0.3310
    3CHTO   O42 1053   5.982   1.423   2.535  0.0044  0.2845  0.3578
    3CHTO  H100 1054   6.053   1.477   2.562  2.2304 -2.6100  0.5195
    3CHTO   C57 1055   6.162   1.282   2.611 -0.7828 -0.7737 -0.5943
    3CHTO  H114 1056   6.101   1.295   2.701 -1.6209 -1.4538 -1.0575
    3CHTO   N10 1057   6.283   1.376   2.607  0.7072  0.3251 -0.7502
    3CHTO  H106 1058   6.282   1.477   2.647  1.4870  0.1637 -0.3020
    3CHTO  H107 1059   6.334   1.376   2.512  0.6718  0.2222 -0.7688
    3CHTO   C58 1060   6.212   1.130   2.613  0.5436 -0.6316  0.4850
    3CHTO  H115 1061   6.287   1.111   2.534  1.0084 -1.1770  1.0481
    3CHTO   O37 1062   6.103   1.037   2.606  0.0364  0.2271  0.2920
    3CHTO   C59 1063   6.034   1.044   2.479  0.1196 -0.4386 -0.2390
    3CHTO  H116 1064   6.094   1.056   2.389  0.8744  0.1163  0.3259
    3CHTO   C70 1065   5.939   0.921   2.472 -0.8299  0.0961 -0.1065
    3CHTO   O46 1066   6.009   0.798   2.441 -0.1987  0.0185 -0.1040
    3CHTO  H103 1067   5.961   0.736   2.389  0.3390 -1.2675  0.9025
    3CHTO   O39 1068   6.266   1.103   2.769 -0.0760 -0.2600  0.2466
    3CHTO   C60 1069   6.385   1.025   2.796 -0.6577  0.3925  0.0175
    3CHTO  H117 1070   6.456   1.067   2.724  0.1669 -1.1889 -0.1079
    3CHTO   C62 1071   6.456   1.043   2.935  0.1526  0.7402  0.1914
    3CHTO  H119 1072   6.483   1.150   2.945  1.4024  0.2979  1.7503
    3CHTO   O43 1073   6.362   1.022   3.041  0.3133 -0.9809 -0.5328
    3CHTO  H101 1074   6.373   0.936   3.078 -0.0627 -0.1985  1.4000
    3CHTO   C66 1075   6.580   0.948   2.951 -0.5219 -0.0782  0.8011
    3CHTO  H123 1076   6.657   0.980   2.881 -1.2100  2.7501  1.2687
    3CHTO   N12 1077   6.657   0.967   3.079  0.8722 -0.7978  0.2183
    3CHTO  H110 1078   6.687   1.065   3.113 -0.8982 -0.3482  0.5568
    3CHTO  H111 1079   6.604   0.916   3.158  1.0167 -0.4177  0.5662
    3CHTO   C69 1080   6.547   0.798   2.934  0.1347  0.1307  0.3737
    3CHTO  H126 1081   6.484   0.765   3.020 -1.3188  1.7430 -0.0420
    3CHTO   O41 1082   6.498   0.782   2.816 -0.7852  0.0431  1.0141
    3CHTO   C64 1083   6.370   0.867   2.771 -0.0033 -0.0408 -0.0669
    3CHTO  H121 1084   6.285   0.826   2.829 -0.1149 -2.1578 -1.6838
    3CHTO   C71 1085   6.360   0.836   2.628 -0.1967 -0.7310 -0.2364
    3CHTO   O47 1086   6.473   0.880   2.556 -0.0354  0.9005 -0.6302
    3CHTO  H104 1087   6.463   0.855   2.467  0.1549  1.5567 -0.8428
    3CHTO   O34 1088   6.677   0.697   2.934  0.1211 -0.0934 -0.0758
    3CHTO   C49 1089   6.682   0.550   2.898 -0.4726 -0.5441  0.4609
    3CHTO   H91 1090   6.636   0.538   2.800 -0.7470 -2.2219  0.7774
    3CHTO   C47 1091   6.589   0.462   2.981  0.0893  0.1883 -0.2390
    3CHTO   H89 1092   6.485   0.480   2.947 -1.8668 -2.4325  3.9003
    3CHTO   O33 1093   6.603   0.496   3.126 -0.1257 -0.0686 -0.1007
    3CHTO   H70 1094   6.544   0.561   3.158 -1.1280 -0.8919 -0.2393
    3CHTO   C45 1095   6.623   0.300   2.958 -0.1060  0.1051 -0.0923
    3CHTO   H87 1096   6.685   0.271   3.044 -1.2970 -0.5588  0.5567
    3CHTO    N8 1097   6.505   0.217   2.964  0.0617  0.1097 -0.3416
    3CHTO   H75 1098   6.521   0.134   2.896  0.1524  0.7388 -1.0894
    3CHTO   H76 1099   6.420   0.274   2.932  0.6491  1.4789  0.4965
    3CHTO   C43 1100   6.719   0.277   2.833  0.0081 -0.3474  0.2829
    3CHTO   H85 1101   6.751   0.173   2.829  1.0176 -0.0518  0.5386
    3CHTO   O29 1102   6.835   0.361   2.859  0.6025  0.2320 -0.7596
    3CHTO   C50 1103   6.827   0.501   2.893 -0.0387 -0.6700  0.2061
    3CHTO   H92 1104   6.876   0.521   2.989 -0.2617  0.3830  0.1096
    3CHTO   C54 1105   6.918   0.582   2.789  0.2729 -0.4830 -0.0786
    3CHTO   O36 1106   7.052   0.579   2.833 -0.0767  0.2315 -0.1621
    3CHTO   H72 1107   7.097   0.512   2.786  1.2186  1.3024 -0.4707
    3CHTO   O27 1108   6.654   0.307   2.709 -0.0292  0.0968 -0.0738
    3CHTO   C37 1109   6.659   0.293   2.569  0.5609 -0.4592 -0.2773
    3CHTO   H79 1110   6.759   0.304   2.524 -0.2399  2.6768 -1.4072
    3CHTO   C38 1111   6.624   0.147   2.535 -0.6104  0.1834 -0.3840
    3CHTO   H80 1112   6.518   0.135   2.559 -0.9270  1.2108 -1.2350
    3CHTO   O31 1113   6.704   0.055   2.613 -0.8923 -0.2372  0.3450
    3CHTO   H68 1114   6.719  -0.032   2.584 -0.1670 -1.1785  3.3805
    3CHTO   C39 1115   6.628   0.120   2.376 -1.0207 -0.9239  0.6082
    3CHTO   H81 1116   6.733   0.115   2.345 -0.6909 -0.4409  1.6230
    3CHTO    N7 1117   6.585  -0.018   2.343  0.1548  0.3631  0.5015
    3CHTO   H73 1118   6.651  -0.076   2.406  0.8587  0.1839 -0.3909
    3CHTO   H74 1119   6.596  -0.044   2.238 -1.0883  0.0835  0.4253
    3CHTO   C40 1120   6.547   0.232   2.297  0.2953  0.1308 -0.0511
    3CHTO   H82 1121   6.442   0.203   2.283  0.0537  0.6680  0.5762
    3CHTO   O26 1122   6.560   0.369   2.350  0.0685  0.2935  0.4955
    3CHTO   C41 1123   6.561   0.389   2.495  0.1305 -0.0651 -0.0962
    3CHTO   H83 1124   6.461   0.369   2.537  0.7472  0.1789  1.5268
    3CHTO   C52 1125   6.589   0.536   2.507 -0.3596 -0.8600 -0.6323
    3CHTO   O35 1126   6.482   0.607   2.456  0.7746 -0.2960  0.8498
    3CHTO   H71 1127   6.435   0.649   2.527  0.0139 -0.8733  0.6964
    3CHTO   O28 1128   6.602   0.245   2.163 -0.5979 -0.0845  0.2197
    3CHTO   C42 1129   6.706   0.327   2.104 -0.0018 -0.2576 -0.9467
    3CHTO   H84 1130   6.722   0.274   2.010  0.1294  1.1176 -1.7081
    3CHTO   C44 1131   6.846   0.333   2.178 -0.4199 -0.7152  0.7699
    3CHTO   H86 1132   6.835   0.357   2.284 -1.1630  0.1335  0.5150
    3CHTO   O32 1133   6.895   0.200   2.169  0.4032  0.1083 -0.4113
    3CHTO   H69 1134   6.989   0.193   2.160  0.4182  0.2688 -0.3689
    3CHTO   C48 1135   6.946   0.440   2.118  0.1864 -0.1500 -0.6566
    3CHTO   H90 1136   6.988   0.385   2.034 -0.3536 -3.0617  0.9190
    3CHTO    N9 1137   7.065   0.467   2.212 -0.4136  0.6494  0.0505
    3CHTO   H77 1138   7.160   0.441   2.167 -0.2389 -0.1625  0.8641
    3CHTO   H78 1139   7.066   0.566   2.255  2.8519  1.1940 -1.0916
    3CHTO   C51 1140   6.874   0.574   2.089  0.0573 -0.4961  0.0514
    3CHTO   H93 1141   6.835   0.615   2.182  0.5523 -3.4883  1.6510
    3CHTO   O30 1142   6.768   0.548   1.998 -0.0073 -0.2591 -0.4323
    3CHTO   C46 1143   6.664   0.473   2.068  0.6920  0.7179 -0.2527
    3CHTO   H88 1144   6.635   0.523   2.161 -1.4355  0.6036 -0.8469
    3CHTO   C53 1145   6.545   0.475   1.969 -0.0491  0.4372 -0.0141
    3CHTO   O72 1146   6.505   0.612   1.934 -0.1019 -0.4600 -0.1828
    3CHTO  H199 1147   6.445   0.643   2.000  0.9115  0.9910  0.0762
    3CHTO   O22 1148   6.955   0.672   2.018  0.6251 -0.1394 -0.0824
    3CHTO   C31 1149   6.900   0.809   2.010  0.2005 -0.2588  0.4219
    3CHTO   H59 1150   6.792   0.808   2.036 -0.2826  1.5285 -1.4327
    3CHTO   C29 1151   6.961   0.917   2.095  0.0193  0.0150 -0.3694
    3CHTO   H57 1152   7.067   0.940   2.078  0.1615  0.9979  1.7779
    3CHTO   O21 1153   6.950   0.867   2.231  0.6130  0.6042  0.2043
    3CHTO   H37 1154   6.860   0.866   2.257  0.0744  1.1611 -1.5727
    3CHTO   C27 1155   6.888   1.051   2.079 -0.1735  0.3837  0.3285
    3CHTO   H55 1156   6.787   1.040   2.121  0.0507  1.8637  1.3208
    3CHTO    N5 1157   6.957   1.162   2.147 -0.1130 -0.0391  0.5946
    3CHTO   H43 1158   6.884   1.242   2.143 -0.9573 -0.8144  0.0899
    3CHTO   H44 1159   6.996   1.135   2.244 -0.2314 -0.2205  0.5928
    3CHTO   C25 1160   6.861   1.087   1.928  0.4199 -0.3554 -1.0590
    3CHTO   H53 1161   6.946   1.144   1.887  0.0903  2.0641  1.4149
    3CHTO   O17 1162   6.821   0.975   1.851 -0.0193 -0.1117  0.5688
    3CHTO   C32 1163   6.905   0.861   1.868 -0.1311  0.4326  0.5803
    3CHTO   H60 1164   7.008   0.886   1.844 -0.2926 -0.6572 -1.3584
    3CHTO   C36 1165   6.855   0.769   1.754  0.5420  0.5472 -0.2546
    3CHTO   O25 1166   6.717   0.748   1.761 -0.2664 -0.3463 -0.4176
    3CHTO   H40 1167   6.703   0.657   1.780  0.1451 -0.5231 -0.9670
    3CHTO   O15 1168   6.748   1.176   1.919  0.4873 -0.0868  0.1531
    3CHTO   C19 1169   6.691   1.229   1.798  0.3428  0.1091 -0.0693
    3CHTO   H47 1170   6.734   1.165   1.719 -0.6885 -0.0140 -0.5378
    3CHTO   C20 1171   6.533   1.226   1.786 -0.0180 -0.3647  0.1422
    3CHTO   H48 1172   6.484   1.278   1.870 -2.2089 -0.7589 -0.8623
    3CHTO   O19 1173   6.516   1.082   1.806 -0.4929 -0.0854  0.0177
    3CHTO   H35 1174   6.433   1.054   1.838 -0.3124 -0.3843  0.2159
    3CHTO   C21 1175   6.476   1.273   1.651 -0.2867  0.0633 -0.9535
    3CHTO   H49 1176   6.505   1.203   1.572  1.2146 -1.7015  1.1267
    3CHTO    N4 1177   6.328   1.284   1.644 -0.5550  0.0874  0.0952
    3CHTO   H41 1178   6.283   1.318   1.736 -1.6832 -0.1661 -0.3576
    3CHTO   H42 1179   6.296   1.182   1.627  0.6612 -0.1412 -0.9460
    3CHTO   C22 1180   6.529   1.414   1.615  0.4604 -0.9124 -0.1079
    3CHTO   H50 1181   6.483   1.491   1.677  0.3083 -0.7012 -0.4861
    3CHTO   O14 1182   6.674   1.406   1.632 -0.5742 -0.9729  0.0085
    3CHTO   C23 1183   6.723   1.378   1.764 -0.9221 -0.4561 -0.5271
    3CHTO   H51 1184   6.673   1.442   1.838 -0.3920  0.6593 -1.1366
    3CHTO   C34 1185   6.876   1.409   1.775  0.1409  0.2277 -0.1572
    3CHTO   O23 1186   6.963   1.359   1.667 -0.7094 -0.1159 -0.3356
    3CHTO   H38 1187   6.964   1.266   1.665  1.7108 -0.1193  0.0892
    3CHTO   O16 1188   6.513   1.447   1.475 -0.3348  0.3595 -0.2581
    3CHTO   C24 1189   6.488   1.593   1.451 -0.5182 -0.3708 -0.3284
    3CHTO   H52 1190   6.510   1.652   1.541 -1.1017  1.2664 -1.2424
    3CHTO   C26 1191   6.343   1.615   1.412  0.6883 -0.2276  0.0211
    3CHTO   H54 1192   6.317   1.541   1.334  1.8508  1.2446 -1.7901
    3CHTO   O20 1193   6.250   1.601   1.526  0.5679 -0.2993  0.3978
    3CHTO   H36 1194   6.163   1.595   1.490  0.5526  1.1519  0.1542
    3CHTO   C30 1195   6.315   1.757   1.351  0.7197  0.0343 -0.2161
    3CHTO   H58 1196   6.326   1.832   1.431 -1.5740 -0.9570  1.0422
    3CHTO    N6 1197   6.179   1.776   1.294  0.1921  0.4301  0.3560
    3CHTO   H45 1198   6.150   1.687   1.240  0.2549  0.4984  0.2103
    3CHTO   H46 1199   6.101   1.798   1.365  0.4201 -1.5086  1.2535
    3CHTO   C33 1200   6.430   1.789   1.243  0.2523 -0.1506 -0.1955
    3CHTO   H61 1201   6.419   1.713   1.165 -1.4596  0.3412 -0.4709
    3CHTO   O18 1202   6.553   1.776   1.316 -0.4680  0.0308 -0.0455
    3CHTO   C28 1203   6.591   1.639   1.345  0.2657  0.6555  0.5997
    3CHTO   H56 1204   6.583   1.568   1.262  0.2063  0.9980  0.3104
    3CHTO   C35 1205   6.733   1.636   1.404  0.1193 -0.6847 -0.1944
    3CHTO   O24 1206   6.828   1.700   1.324 -0.1150  0.3093  0.3920
    3CHTO   H39 1207   6.820   1.674   1.234  0.4597  2.7897 -0.4136
    3CHTO    O9 1208   6.422   1.918   1.173 -0.1345  0.4456  0.3510
    3CHTO   C13 1209   6.481   2.034   1.262 -0.0778  0.3094  1.0844
    3CHTO   H26 1210   6.487   2.003   1.368  0.1221  1.9212  1.5572
    3CHTO   C11 1211   6.385   2.156   1.247  0.0511  0.2953 -1.2583
    3CHTO   H24 1212   6.293   2.130   1.301  0.2519 -2.0591 -1.9850
    3CHTO    O8 1213   6.359   2.177   1.110 -0.1351 -0.2634 -0.1023
    3CHTO    H3 1214   6.288   2.238   1.098  1.4550  1.1631 -2.5310
    3CHTO    C9 1215   6.445   2.278   1.325  0.0908  0.4381 -0.1350
    3CHTO   H22 1216   6.466   2.243   1.427  0.6954  1.6223  0.1556
    3CHTO    N2 1217   6.349   2.392   1.342 -0.5477  0.2710  0.5301
    3CHTO   H10 1218   6.309   2.424   1.247  0.7381  0.9115  0.1948
    3CHTO   H11 1219   6.396   2.468   1.403 -0.7265 -0.2860  1.3713
    3CHTO    C7 1220   6.581   2.320   1.253 -0.2302 -0.5083 -0.2065
    3CHTO   H20 1221   6.631   2.393   1.319 -0.9655 -0.0392 -0.1753
    3CHTO    O4 1222   6.671   2.211   1.233 -0.0595  0.5426 -0.2827
    3CHTO   C14 1223   6.629   2.073   1.226 -0.0392 -0.2665  0.4120
    3CHTO   H27 1224   6.691   2.019   1.300  2.0746 -2.1818 -2.6106
    3CHTO   C18 1225   6.677   2.021   1.088 -0.4548 -0.0170  0.2582
    3CHTO   O13 1226   6.731   1.889   1.100  0.2674 -0.2833 -0.0097
    3CHTO    H7 1227   6.818   1.888   1.134 -0.2729  0.9927  1.4390
    3CHTO    O2 1228   6.554   2.382   1.116 -0.0654  0.2076 -0.2739
    3CHTO    C1 1229   6.646   2.486   1.062 -0.2260  0.0100 -0.7213
    3CHTO   H14 1230   6.612   2.491   0.957  1.1522 -0.3341 -1.1852
    3CHTO    C2 1231   6.797   2.435   1.071 -0.0210  0.3564  0.8344
    3CHTO   H15 1232   6.817   2.381   1.165  2.3490  0.8680  0.6687
    3CHTO    O6 1233   6.806   2.334   0.967 -0.4401  0.0118 -0.3577
    3CHTO    H1 1234   6.880   2.279   0.985 -1.6282 -0.8730  2.0333
    3CHTO    C3 1235   6.904   2.556   1.047  0.1233 -1.1680 -0.0724
    3CHTO   H16 1236   6.893   2.589   0.943 -0.9807  0.1936  0.4728
    3CHTO    N1 1237   7.046   2.515   1.069 -0.2102  0.0216  0.0266
    3CHTO    H8 1238   7.110   2.592   1.111  0.6998 -0.3566 -0.6354
    3CHTO    H9 1239   7.100   2.495   0.977  1.3197  0.1746  0.8613
    3CHTO    C4 1240   6.854   2.689   1.134  0.0908 -0.2596  0.8768
    3CHTO   H17 1241   6.868   2.679   1.241 -2.5425  1.7990  1.4679
    3CHTO    O1 1242   6.720   2.728   1.109  0.0456 -0.7350  0.3746
    3CHTO    C5 1243   6.624   2.625   1.137  0.7645  0.1905 -0.7318
    3CHTO   H18 1244   6.617   2.607   1.244 -0.9919  0.1556 -0.8439
    3CHTO   C16 1245   6.489   2.682   1.098 -0.5459  0.6779  0.0255
    3CHTO   O11 1246   6.486   2.687   0.957 -0.4244  0.0019  0.1527
    3CHTO    H5 1247   6.488   2.604   0.914  0.0310 -0.4446  1.0147
    3CHTO    O3 1248   6.943   2.796   1.084  0.7657 -0.2882  0.7769
    3CHTO    C6 1249   6.967   2.900   1.177  0.6685 -0.2459  0.3601
    3CHTO   H19 1250   6.899   2.905   1.262 -4.3236  0.3532 -3.4625
    3CHTO    C8 1251   7.107   2.902   1.242  1.2222 -0.0590  0.1191
    3CHTO   H21 1252   7.175   2.893   1.157 -0.3763  1.2487 -1.3365
    3CHTO    O7 1253   7.105   2.786   1.327 -0.6377  0.4055 -0.5281
    3CHTO    H2 1254   7.131   2.704   1.289  0.7740  0.0866  1.0563
    3CHTO   C12 1255   7.152   3.034   1.308 -0.5460 -0.1869 -1.0341
    3CHTO   H25 1256   7.088   3.046   1.398  0.2056  0.8099 -0.6155
    3CHTO    N3 1257   7.303   3.032   1.341  0.0633  0.0740  0.5673
    3CHTO   H12 1258   7.359   3.022   1.249 -1.1981 -1.2230 -0.0935
    3CHTO   H13 1259   7.330   3.121   1.396 -0.3634  1.4349 -1.3694
    3CHTO   C15 1260   7.116   3.153   1.212  0.2650  0.1759 -0.7598
    3CHTO   H28 1261   7.179   3.164   1.124  0.3290 -0.5534 -0.8064
    3CHTO   O10 1262   7.130   3.284   1.297  0.1120  0.3372  0.3147
    3CHTO    H4 1263   7.214   3.283   1.339  0.4237  0.4009 -0.3048
    3CHTO    O5 1264   6.983   3.154   1.170 -0.1076 -0.2114  0.4330
    3CHTO   C10 1265   6.948   3.037   1.097 -0.1292 -0.3185 -0.0290
    3CHTO   H23 1266   7.020   3.027   1.015 -1.3816 -0.8430 -1.0798
    3CHTO   C17 1267   6.810   3.064   1.044  0.3265 -0.2443  0.3930
    3CHTO   O12 1268   6.802   3.171   0.947 -0.2721  0.4821  0.4067
    3CHTO    H6 1269   6.820   3.137   0.861  0.2213  0.1427  0.6445
    4CHTO  H203 1270   5.508   7.279   0.093 -1.2104  0.1123  1.4313
    4CHTO   O82 1271   5.590   7.311   0.126 -0.2267 -0.3761 -0.4698
    4CHTO  C123 1272   5.580   7.447   0.164 -0.2414  0.0094 -0.5959
    4CHTO  H227 1273   5.509   7.456   0.247  0.5269 -0.2769  0.1013
    4CHTO   O77 1274   5.704   7.503   0.201 -0.0720  0.3232 -0.0112
    4CHTO  C118 1275   5.697   7.633   0.252  0.0883 -0.1846 -0.5998
    4CHTO  H222 1276   5.623   7.639   0.333 -1.1048  0.5053 -1.7335
    4CHTO  C125 1277   5.845   7.652   0.315  0.1357 -0.5392  0.6338
    4CHTO   O84 1278   5.888   7.563   0.413 -0.3734  0.0131  0.2079
    4CHTO  H205 1279   5.952   7.510   0.370 -0.7709 -1.7707  1.7553
    4CHTO  C114 1280   5.667   7.733   0.138 -0.1854 -0.0840 -0.2106
    4CHTO  H218 1281   5.747   7.721   0.064  1.4440 -1.4555  1.7259
    4CHTO  C116 1282   5.537   7.694   0.073 -0.3009 -0.2193  0.4093
    4CHTO  H220 1283   5.450   7.724   0.135 -0.9324 -0.2002 -0.4752
    4CHTO   O79 1284   5.527   7.779  -0.043 -0.3605  0.4804  0.3453
    4CHTO  H201 1285   5.518   7.870  -0.022 -1.3755  0.4043  0.2215
    4CHTO  C120 1286   5.529   7.538   0.041 -0.0395 -0.4355  0.5187
    4CHTO  H224 1287   5.593   7.524  -0.049 -1.5498  0.8255 -0.7782
    4CHTO   N21 1288   5.394   7.491  -0.003  0.1577 -0.4299 -0.6354
    4CHTO  H211 1289   5.317   7.554   0.039  0.7736  0.3688 -0.6749
    4CHTO  H212 1290   5.379   7.385   0.011 -2.1976 -0.0245  0.0031
    4CHTO   O75 1291   5.662   7.863   0.198 -0.3689 -0.0751 -0.3780
    4CHTO  C112 1292   5.744   7.983   0.132  0.2061  0.3829 -0.1522
    4CHTO  H216 1293   5.740   7.978   0.022 -0.3857  2.5738 -0.2514
    4CHTO   O73 1294   5.879   7.978   0.182  0.1753  0.0256  0.2069
    4CHTO  C113 1295   5.970   8.083   0.146  0.1538  1.0011  0.4459
    4CHTO  H217 1296   5.986   8.074   0.036 -2.1159  0.8059  0.1057
    4CHTO  C124 1297   6.096   8.045   0.223  0.6691 -0.2205  0.4291
    4CHTO   O83 1298   6.211   8.127   0.201  0.0715 -0.2773  0.6551
    4CHTO  H204 1299   6.289   8.076   0.212 -0.3205 -1.5765 -2.0935
    4CHTO  C109 1300   5.921   8.225   0.186  0.2601  0.4681 -0.7599
    4CHTO  H213 1301   5.932   8.233   0.295  0.1744 -0.2441 -0.6921
    4CHTO  C110 1302   5.775   8.238   0.138 -0.3255 -0.3033 -0.2894
    4CHTO  H214 1303   5.767   8.259   0.032 -0.3335  1.7602  0.0913
    4CHTO   O78 1304   5.727   8.364   0.197  0.9729 -0.1303 -0.7662
    4CHTO  H200 1305   5.779   8.433   0.161  1.5877 -1.0226 -1.5937
    4CHTO  C111 1306   5.680   8.117   0.178 -0.4147  0.1071 -0.4390
    4CHTO  H215 1307   5.667   8.113   0.287  1.5401 -1.6227 -0.2478
    4CHTO   N19 1308   5.547   8.135   0.116  0.6308  0.3714 -0.2940
    4CHTO  H207 1309   5.509   8.234   0.135  1.3610  0.7511 -0.7923
    4CHTO  H208 1310   5.487   8.057   0.161  0.4535  1.6071  1.6997
    4CHTO   O74 1311   6.004   8.318   0.121  0.2657  0.0548  0.2481
    4CHTO  C115 1312   6.023   8.451   0.198 -0.0764 -0.0330 -0.4445
    4CHTO  H219 1313   5.962   8.454   0.289 -0.3603 -0.3832 -0.6214
    4CHTO   O76 1314   6.160   8.466   0.250  0.3147 -0.2794 -0.5408
    4CHTO  C122 1315   6.266   8.452   0.148 -0.2038  0.3947 -0.3831
    4CHTO  H226 1316   6.253   8.347   0.120  0.7568  0.2039 -0.1315
    4CHTO  C126 1317   6.405   8.460   0.224  0.7754 -0.0125 -0.3181
    4CHTO   O85 1318   6.434   8.360   0.317 -0.3917  0.3141  0.6681
    4CHTO  H206 1319   6.521   8.374   0.348 -0.0151  0.0286 -0.2442
    4CHTO  C121 1320   6.240   8.553   0.030  0.5183 -0.5298  0.7185
    4CHTO  H225 1321   6.334   8.611   0.020 -0.4104  1.2741  1.9556
    4CHTO   O81 1322   6.221   8.474  -0.086 -0.3309  0.0098  0.3502
    4CHTO  H202 1323   6.133   8.440  -0.081 -0.5811  0.8750  1.8603
    4CHTO  C119 1324   6.126   8.653   0.055  0.7481 -0.0722 -0.1620
    4CHTO  H223 1325   6.159   8.720   0.134  0.7763 -2.8240  2.2416
    4CHTO  C117 1326   5.994   8.576   0.101 -0.3373 -0.3634  0.1746
    4CHTO  H221 1327   5.938   8.521   0.026 -0.3570  0.6568 -0.5756
    4CHTO   N20 1328   5.888   8.670   0.166 -0.2582  0.3907  0.0944
    4CHTO  H209 1329   5.883   8.760   0.108  0.7826 -0.9152 -2.1027
    4CHTO  H210 1330   5.931   8.688   0.263 -1.7634  2.3739  0.4085
    4CHTO   O80 1331   6.103   8.760  -0.070 -0.5296  0.2656 -0.7352
    4CHTO  C103 1332   6.169   8.900  -0.068 -0.1254 -0.1357 -0.0391
    4CHTO  H190 1333   6.140   8.952   0.024 -0.0231 -0.0807 -0.0383
    4CHTO  C101 1334   6.328   8.896  -0.078  0.7743 -0.0448 -0.1856
    4CHTO  H188 1335   6.361   8.819  -0.148 -0.0278 -1.4015  0.9045
    4CHTO   O68 1336   6.380   8.857   0.062 -0.5047 -0.2423 -0.2429
    4CHTO  H168 1337   6.474   8.865   0.066 -0.5770  1.0114 -0.9466
    4CHTO   C99 1338   6.391   9.034  -0.115  0.2596  0.5211 -0.7208
    4CHTO  H186 1339   6.361   9.107  -0.038 -1.5295 -0.0269 -0.8688
    4CHTO   N17 1340   6.541   9.032  -0.133  0.1912  0.1665  0.5150
    4CHTO  H174 1341   6.583   8.945  -0.181 -0.5344 -0.1375  0.4289
    4CHTO  H175 1342   6.594   9.059  -0.042  1.2929 -1.9588  0.5244
    4CHTO   C97 1343   6.316   9.082  -0.244 -0.6508  0.9635  0.0737
    4CHTO  H184 1344   6.328   9.008  -0.325  1.4641  1.1578  0.1687
    4CHTO   O64 1345   6.181   9.098  -0.204 -0.5304  0.0440 -0.3890
    4CHTO  C104 1346   6.111   8.976  -0.191 -0.0915 -0.4118 -0.1750
    4CHTO  H191 1347   6.126   8.917  -0.282 -1.9964  0.1195 -0.8598
    4CHTO  C108 1348   5.961   9.012  -0.181 -0.2704 -0.4365 -0.3047
    4CHTO   O71 1349   5.914   9.094  -0.070  0.7026 -0.1335 -0.0467
    4CHTO  H171 1350   5.949   9.180  -0.079  1.4018 -0.5535 -1.4358
    4CHTO   O62 1351   6.355   9.218  -0.287  0.2628 -0.3865 -0.0952
    4CHTO   C91 1352   6.418   9.238  -0.416  0.3584 -0.5783  0.1637
    4CHTO  H178 1353   6.457   9.141  -0.448  0.2075 -0.1955 -1.2281
    4CHTO   C92 1354   6.531   9.348  -0.404  0.3641  0.0078  0.6115
    4CHTO  H179 1355   6.486   9.445  -0.376  1.0110  0.5981 -0.3542
    4CHTO   O66 1356   6.624   9.310  -0.303 -0.3091 -0.6758  0.7003
    4CHTO  H166 1357   6.660   9.375  -0.246  2.3629 -0.1567 -1.4658
    4CHTO   C93 1358   6.615   9.366  -0.532 -0.2138  0.2852 -0.0898
    4CHTO  H180 1359   6.693   9.288  -0.527 -0.1241  0.4752  1.4179
    4CHTO   N16 1360   6.686   9.494  -0.550  0.4991  0.6540 -0.5542
    4CHTO  H172 1361   6.609   9.569  -0.561  0.1023  0.6736  2.0945
    4CHTO  H173 1362   6.746   9.507  -0.461  2.0871  0.5518 -1.5756
    4CHTO   C94 1363   6.526   9.337  -0.665 -0.3874 -0.7327  0.1637
    4CHTO  H181 1364   6.549   9.408  -0.744  2.3417 -2.2544 -0.4534
    4CHTO   O61 1365   6.380   9.351  -0.642 -0.2668 -0.0702  0.3022
    4CHTO   C95 1366   6.318   9.272  -0.541 -0.2697 -0.4097  0.0104
    4CHTO  H182 1367   6.229   9.326  -0.509 -0.1381 -0.0468 -0.2223
    4CHTO  C106 1368   6.251   9.141  -0.601 -0.6377  0.4166 -0.1534
    4CHTO   O69 1369   6.344   9.043  -0.646 -0.3185 -0.0708 -0.3331
    4CHTO  H169 1370   6.333   9.034  -0.739  0.0760 -1.0368 -0.2977
    4CHTO   O63 1371   6.571   9.187  -0.710  0.5041  0.1420  0.2414
    4CHTO   C96 1372   6.674   9.152  -0.821  0.5787 -0.4129  0.0019
    4CHTO  H183 1373   6.743   9.234  -0.839 -0.0514  0.5153  1.7071
    4CHTO   C98 1374   6.592   9.145  -0.953 -0.4922 -0.4911  0.0412
    4CHTO  H185 1375   6.497   9.093  -0.935 -0.7821  1.4619  5.0927
    4CHTO   O67 1376   6.555   9.281  -0.983 -0.4583 -0.6866  0.3480
    4CHTO  H167 1377   6.464   9.290  -1.000  0.0115  2.6585 -0.7219
    4CHTO  C102 1378   6.666   9.086  -1.077 -0.8464  0.4405  0.3994
    4CHTO  H189 1379   6.741   9.163  -1.104 -2.0077  1.2820 -0.5148
    4CHTO   N18 1380   6.580   9.068  -1.200  0.6757  0.5774  0.0288
    4CHTO  H176 1381   6.644   9.027  -1.277  1.2827  0.4028  0.6153
    4CHTO  H177 1382   6.544   9.166  -1.224  0.3309  0.8601  1.6312
    4CHTO  C105 1383   6.751   8.958  -1.035  0.2278 -0.1757  0.2259
    4CHTO  H192 1384   6.682   8.875  -1.017 -1.3704  1.4222  1.6166
    4CHTO   O65 1385   6.830   8.975  -0.918  0.3200 -0.0160  0.1346
    4CHTO  C100 1386   6.750   9.015  -0.804  0.0956 -0.3244  0.5652
    4CHTO  H187 1387   6.670   8.942  -0.784 -1.9060  0.9688 -2.2670
    4CHTO  C107 1388   6.830   9.013  -0.670 -0.3941  0.2678  0.1975
    4CHTO   O70 1389   6.855   8.887  -0.617  0.1416 -0.3456 -0.8393
    4CHTO  H170 1390   6.938   8.857  -0.650  0.4881 -1.1937  0.7188
    4CHTO   O57 1391   6.854   8.931  -1.172 -0.4102 -0.1649  0.2566
    4CHTO   C85 1392   6.841   8.801  -1.232  0.4955 -1.0582 -0.0728
    4CHTO  H157 1393   6.733   8.782  -1.254  0.5794  0.2851 -1.7207
    4CHTO   C83 1394   6.888   8.687  -1.133 -0.4186  0.7366  0.2433
    4CHTO  H155 1395   6.833   8.689  -1.039 -1.4493 -0.1429 -0.3444
    4CHTO   O56 1396   7.024   8.715  -1.090  0.3446  0.2748  0.3860
    4CHTO  H135 1397   7.070   8.656  -1.146  1.0193  2.1417 -1.0825
    4CHTO   C81 1398   6.868   8.548  -1.201 -0.1571 -0.7502  0.0032
    4CHTO  H153 1399   6.764   8.544  -1.233 -0.0366  1.6278 -0.7174
    4CHTO   N14 1400   6.889   8.439  -1.100 -0.3747 -0.1295  0.4817
    4CHTO  H141 1401   6.804   8.425  -1.037  0.8720 -0.9343  2.0174
    4CHTO  H142 1402   6.973   8.465  -1.038 -0.7003  0.8002  0.5432
    4CHTO   C79 1403   6.952   8.537  -1.331  0.0591 -0.2890  0.0670
    4CHTO  H151 1404   6.912   8.449  -1.381 -1.4980  0.4443 -0.0258
    4CHTO   O52 1405   6.912   8.642  -1.425  0.3206  0.1389 -0.3114
    4CHTO   C86 1406   6.926   8.779  -1.363 -0.0777 -0.3348  0.4376
    4CHTO  H158 1407   7.033   8.791  -1.337  0.0502 -1.2296  0.3159
    4CHTO   C90 1408   6.888   8.882  -1.477  0.3705 -0.3555  0.0544
    4CHTO   O60 1409   6.979   8.877  -1.589 -0.7848  0.1139  0.0820
    4CHTO  H138 1410   6.942   8.926  -1.660  0.9204 -1.2101 -1.8007
    4CHTO   O50 1411   7.089   8.527  -1.305  0.3976  0.1125 -0.0664
    4CHTO   C73 1412   7.233   8.517  -1.324  0.1198 -0.0020 -0.0056
    4CHTO  H145 1413   7.277   8.613  -1.295  1.7872 -1.1784  1.3797
    4CHTO   C74 1414   7.258   8.493  -1.482  0.7747  0.6282  0.0721
    4CHTO  H146 1415   7.199   8.564  -1.543 -1.4246 -1.1216  0.0649
    4CHTO   O54 1416   7.393   8.523  -1.515 -0.1279  0.1636 -0.5893
    4CHTO  H133 1417   7.443   8.576  -1.455  1.0187 -0.8954 -0.5904
    4CHTO   C75 1418   7.214   8.340  -1.514  0.3474  0.4919  0.9030
    4CHTO  H147 1419   7.106   8.334  -1.499 -0.0491  4.1288 -0.0775
    4CHTO   N13 1420   7.236   8.304  -1.661 -0.2850  0.1887  0.7976
    4CHTO  H139 1421   7.209   8.201  -1.678 -0.3485  0.1863  0.9141
    4CHTO  H140 1422   7.180   8.365  -1.731  0.2826 -0.4588 -0.2259
    4CHTO   C76 1423   7.284   8.236  -1.422  0.0169 -0.4512  0.1311
    4CHTO  H148 1424   7.391   8.233  -1.439  0.3273  0.8859  1.7360
    4CHTO   O49 1425   7.259   8.271  -1.281 -0.0480 -0.0749  0.9597
    4CHTO   C77 1426   7.295   8.398  -1.242  0.5501  0.2236 -0.2477
    4CHTO  H149 1427   7.403   8.400  -1.251  0.6596  1.1565  1.1002
    4CHTO   C88 1428   7.270   8.406  -1.092  0.1484 -0.1911 -0.1823
    4CHTO   O58 1429   7.303   8.564  -1.042  0.3360  0.2257 -0.2563
    4CHTO  H136 1430   7.393   8.581  -1.060  0.2805  1.5393  0.7029
    4CHTO   O51 1431   7.211   8.085  -1.444 -0.4720  0.3833  0.0545
    4CHTO   C78 1432   7.251   7.977  -1.323  0.7584 -0.1567  0.0811
    4CHTO  H150 1433   7.229   8.036  -1.232 -1.6339 -1.9234  0.6804
    4CHTO   C80 1434   7.396   7.923  -1.321  0.3833  0.4142 -0.0163
    4CHTO  H152 1435   7.420   7.892  -1.425 -2.2859  0.1889 -0.5999
    4CHTO   O55 1436   7.482   8.026  -1.273  0.0310 -0.5333 -0.2265
    4CHTO  H134 1437   7.559   8.014  -1.327 -0.8032  1.2065 -1.8790
    4CHTO   C84 1438   7.413   7.800  -1.217  0.7367  0.1307  0.3891
    4CHTO  H156 1439   7.407   7.849  -1.120 -0.3813 -1.1353  0.9757
    4CHTO   N15 1440   7.548   7.734  -1.221  1.0905  0.0412 -0.5086
    4CHTO  H143 1441   7.564   7.709  -1.324 -2.6818  0.6588 -1.3096
    4CHTO  H144 1442   7.552   7.643  -1.165 -1.9416  0.3557  0.3340
    4CHTO   C87 1443   7.295   7.698  -1.238 -0.5452 -0.4870  0.1682
    4CHTO  H159 1444   7.294   7.660  -1.340  0.5726 -1.2630  0.4386
    4CHTO   O53 1445   7.155   7.773  -1.225 -0.4384 -0.8038 -0.7088
    4CHTO   C82 1446   7.146   7.867  -1.331  0.3093 -0.2647 -0.0730
    4CHTO  H154 1447   7.147   7.822  -1.430  1.5000 -2.0013  0.6851
    4CHTO   C89 1448   7.005   7.935  -1.315 -0.2608  0.2596  0.6270
    4CHTO   O59 1449   6.910   7.825  -1.312 -0.2175 -0.1700  0.1178
    4CHTO  H137 1450   6.820   7.852  -1.307 -0.4399 -1.1216  1.4951
    4CHTO   O45 1451   7.293   7.585  -1.128 -0.2207 -0.5157 -0.7276
    4CHTO   C67 1452   7.254   7.452  -1.170  0.1659  0.4352 -0.1278
    4CHTO  H124 1453   7.250   7.456  -1.279  2.1086  1.9553 -0.1725
    4CHTO   C65 1454   7.355   7.331  -1.135  0.3584 -0.4581 -0.9796
    4CHTO  H122 1455   7.456   7.363  -1.160  0.3675  1.8948  1.7108
    4CHTO   O44 1456   7.317   7.219  -1.216  0.3160 -0.8821  0.0392
    4CHTO  H102 1457   7.314   7.135  -1.174  2.4024  0.2160  2.4285
    4CHTO   C63 1458   7.348   7.305  -0.986  0.0496  0.2191 -1.1778
    4CHTO  H120 1459   7.370   7.399  -0.935 -1.7353 -0.4017  0.7900
    4CHTO   N11 1460   7.451   7.207  -0.932  0.5472  0.1760 -0.5540
    4CHTO  H108 1461   7.545   7.258  -0.923  0.3185  0.8616 -1.9678
    4CHTO  H109 1462   7.422   7.179  -0.833 -0.2259  0.8161 -0.5979
    4CHTO   C61 1463   7.194   7.264  -0.956 -0.1634  0.1118 -0.4043
    4CHTO  H118 1464   7.189   7.267  -0.846 -0.0725  0.1751 -0.4015
    4CHTO   O40 1465   7.098   7.360  -1.001  0.9897  0.6498 -0.2471
    4CHTO   C68 1466   7.108   7.434  -1.127 -0.2711 -0.5504  0.0007
    4CHTO  H125 1467   7.062   7.534  -1.108  0.7843 -0.2505  1.0103
    4CHTO   C72 1468   7.033   7.362  -1.240 -0.2839  0.6410  0.0406
    4CHTO   O48 1469   7.055   7.219  -1.248  0.2372  0.4160 -0.0575
    4CHTO  H105 1470   7.008   7.184  -1.322 -1.2157  0.4630  0.8351
    4CHTO   O38 1471   7.160   7.130  -0.995 -0.4096  0.6169 -0.1495
    4CHTO   C55 1472   7.069   7.059  -0.906 -0.5915 -0.2184  0.2148
    4CHTO  H112 1473   7.028   7.135  -0.838 -0.8637  0.1058 -0.3069
    4CHTO   C56 1474   7.144   6.945  -0.829  0.1763  0.8338 -0.0397
    4CHTO  H113 1475   7.201   6.879  -0.896 -0.3687 -1.6354  1.8442
    4CHTO   O42 1476   7.230   7.011  -0.733  0.1093 -0.5611  0.5064
    4CHTO  H100 1477   7.312   6.968  -0.749 -1.2545 -2.6850 -1.1273
    4CHTO   C57 1478   7.057   6.851  -0.746  0.5642  0.2761  0.5321
    4CHTO  H114 1479   7.016   6.906  -0.662  1.8857  0.6076  0.9656
    4CHTO   N10 1480   7.113   6.732  -0.674 -0.1809  0.0927 -0.4737
    4CHTO  H106 1481   7.135   6.758  -0.572 -3.6429 -1.2487  0.7080
    4CHTO  H107 1482   7.040   6.652  -0.670 -0.9108  0.8267  1.7944
    4CHTO   C58 1483   6.935   6.808  -0.825  0.6923 -0.0365  0.4392
    4CHTO  H115 1484   6.961   6.722  -0.890  1.0236 -0.3737  1.0149
    4CHTO   O37 1485   6.870   6.908  -0.901  1.0873 -0.5049 -0.3634
    4CHTO   C59 1486   6.951   6.999  -0.981 -0.5958 -0.7652  0.0825
    4CHTO  H116 1487   6.978   6.944  -1.071  0.2302  0.5673 -0.5028
    4CHTO   C70 1488   6.847   7.107  -1.022  0.1063  0.1613  0.1264
    4CHTO   O46 1489   6.757   7.050  -1.118  0.0048  0.2653  0.2991
    4CHTO  H103 1490   6.726   6.967  -1.087  0.9517  0.6028  2.2412
    4CHTO   O39 1491   6.821   6.765  -0.708 -0.3284  0.1001 -0.2430
    4CHTO   C60 1492   6.684   6.739  -0.758  0.2946 -0.5732 -0.4540
    4CHTO  H117 1493   6.672   6.798  -0.849 -0.7611 -0.3147 -0.1508
    4CHTO   C62 1494   6.665   6.591  -0.789  0.3857 -0.3791  0.0716
    4CHTO  H119 1495   6.749   6.565  -0.857  0.5152 -0.7924  0.3824
    4CHTO   O43 1496   6.698   6.525  -0.667  0.1032  0.0457 -0.0824
    4CHTO  H101 1497   6.695   6.431  -0.674  0.2855  0.0464 -0.1867
    4CHTO   C66 1498   6.519   6.561  -0.850  0.2332  0.2231  0.2429
    4CHTO  H123 1499   6.503   6.626  -0.936  0.9070 -0.4364 -0.3799
    4CHTO   N12 1500   6.506   6.426  -0.901  0.2261 -1.2462 -0.0626
    4CHTO  H110 1501   6.457   6.374  -0.820  2.3982 -0.4413  1.8312
    4CHTO  H111 1502   6.456   6.416  -0.996  0.3039 -0.1337 -0.2315
    4CHTO   C69 1503   6.408   6.607  -0.751 -0.3432 -0.1127  0.0228
    4CHTO  H126 1504   6.409   6.543  -0.660 -1.1979 -0.3395 -0.1150
    4CHTO   O41 1505   6.418   6.755  -0.715  0.0183 -0.2675  0.1785
    4CHTO   C64 1506   6.580   6.804  -0.660 -0.1541  0.1145  0.4494
    4CHTO  H121 1507   6.607   6.765  -0.560 -1.2099  2.1941  1.5663
    4CHTO   C71 1508   6.607   6.951  -0.660 -0.2187  0.4470 -0.1150
    4CHTO   O47 1509   6.528   7.013  -0.560 -0.3825 -0.5620  0.8745
    4CHTO  H104 1510   6.437   7.006  -0.583 -0.2013 -0.4889  0.1097
    4CHTO   O34 1511   6.276   6.586  -0.802  0.3238 -0.4299 -0.1378
    4CHTO   C49 1512   6.145   6.648  -0.843 -0.6789  0.6399 -0.3961
    4CHTO   H91 1513   6.108   6.706  -0.758  2.2242  2.7083 -0.4840
    4CHTO   C47 1514   6.062   6.528  -0.889 -0.2955 -0.3541  1.2255
    4CHTO   H89 1515   5.962   6.573  -0.904 -0.6079 -1.3067  0.3955
    4CHTO   O33 1516   6.052   6.424  -0.792  0.1758  0.1750  0.6513
    4CHTO   H70 1517   5.999   6.357  -0.830  0.5318  0.1285  0.2419
    4CHTO   C45 1518   6.116   6.464  -1.026 -0.1056  0.1185 -0.5131
    4CHTO   H87 1519   6.185   6.389  -0.985 -0.6356 -0.1015 -0.0172
    4CHTO    N8 1520   6.010   6.392  -1.107  0.3808  0.2705 -0.0906
    4CHTO   H75 1521   6.041   6.393  -1.211 -1.6641 -0.7406 -0.7349
    4CHTO   H76 1522   5.914   6.437  -1.085 -1.1254 -1.5530 -2.7192
    4CHTO   C43 1523   6.205   6.579  -1.113 -0.6761 -0.7090 -0.1646
    4CHTO   H85 1524   6.307   6.576  -1.073 -1.4510  2.6146  2.2488
    4CHTO   O29 1525   6.144   6.706  -1.088 -0.4369 -0.4455  0.7602
    4CHTO   C50 1526   6.167   6.756  -0.957 -0.0994 -0.2098 -0.4520
    4CHTO   H92 1527   6.273   6.782  -0.951 -0.0036 -0.7880  0.4639
    4CHTO   C54 1528   6.086   6.884  -0.926  0.3678  0.0867 -0.2932
    4CHTO   O36 1529   6.113   6.959  -0.806 -0.3020 -0.2570 -0.2251
    4CHTO   H72 1530   6.202   6.969  -0.779 -0.5181 -2.1599  1.2539
    4CHTO   O27 1531   6.208   6.557  -1.256 -0.0045  0.0633  0.2646
    4CHTO   C37 1532   6.336   6.560  -1.334 -0.4075  0.6035  0.0844
    4CHTO   H79 1533   6.315   6.576  -1.441 -1.2064 -2.0138 -0.1807
    4CHTO   C38 1534   6.427   6.688  -1.288  0.3522 -0.3097  0.4020
    4CHTO   H80 1535   6.410   6.705  -1.181  1.1443 -0.6478  0.5887
    4CHTO   O31 1536   6.389   6.815  -1.350 -0.1255  0.6477 -0.7721
    4CHTO   H68 1537   6.309   6.846  -1.312 -0.1515  0.4830 -0.6946
    4CHTO   C39 1538   6.589   6.658  -1.309 -0.1193 -0.3638  0.2760
    4CHTO   H81 1539   6.616   6.670  -1.414  1.1444 -1.3908  0.4684
    4CHTO    N7 1540   6.673   6.757  -1.235  0.6806 -0.4045  0.1880
    4CHTO   H73 1541   6.770   6.712  -1.219 -0.3241 -1.9647  2.0766
    4CHTO   H74 1542   6.674   6.847  -1.294 -2.7872 -0.7906 -0.5685
    4CHTO   C40 1543   6.626   6.503  -1.288  0.2954 -0.5851  0.0054
    4CHTO   H82 1544   6.623   6.478  -1.182 -2.8812  0.2253  0.1543
    4CHTO   O26 1545   6.542   6.414  -1.362  0.0526  0.5467 -0.7699
    4CHTO   C41 1546   6.408   6.416  -1.318 -0.5339  0.0250  0.0588
    4CHTO   H83 1547   6.408   6.384  -1.213  2.9463  0.1582  0.1542
    4CHTO   C52 1548   6.321   6.305  -1.387 -0.7693  0.1840 -0.2343
    4CHTO   O35 1549   6.364   6.170  -1.329  0.0353  0.1157  0.0852
    4CHTO   H71 1550   6.341   6.103  -1.390 -0.8307 -1.0891  1.7031
    4CHTO   O28 1551   6.756   6.463  -1.341  0.5675 -0.2847 -0.1134
    4CHTO   C42 1552   6.825   6.359  -1.255  0.1357  0.1418 -0.3793
    4CHTO   H84 1553   6.915   6.330  -1.310 -0.0921  1.0635 -1.2509
    4CHTO   C44 1554   6.750   6.224  -1.224 -0.1267  0.0458  0.3834
    4CHTO   H86 1555   6.648   6.247  -1.192  0.0919  1.7428 -0.0970
    4CHTO   O32 1556   6.730   6.160  -1.352 -0.3893  0.4570  0.0365
    4CHTO   H69 1557   6.692   6.075  -1.352  0.6367 -0.0922 -3.1302
    4CHTO   C48 1558   6.819   6.146  -1.100 -0.1948 -0.0644 -0.3893
    4CHTO   H90 1559   6.915   6.111  -1.140  0.8444  3.1951 -0.8606
    4CHTO    N9 1560   6.742   6.021  -1.057  0.3609  0.6014 -0.4883
    4CHTO   H77 1561   6.659   6.041  -0.991 -0.1279 -2.4975 -0.1076
    4CHTO   H78 1562   6.814   5.962  -1.002 -0.1619 -0.0584 -0.5117
    4CHTO   C51 1563   6.849   6.243  -0.985  0.3864 -0.3465 -0.5240
    4CHTO   H93 1564   6.760   6.295  -0.950  1.1761 -0.4488  1.7252
    4CHTO   O30 1565   6.947   6.336  -1.030  0.1130  0.4248 -0.6707
    4CHTO   C46 1566   6.876   6.427  -1.129 -0.3324  0.3511  0.4052
    4CHTO   H88 1567   6.798   6.472  -1.068 -1.5048  0.0528 -0.8465
    4CHTO   C53 1568   6.983   6.532  -1.162  0.1307 -0.8730 -0.4888
    4CHTO   O72 1569   7.101   6.461  -1.212 -0.5588  0.0863 -0.0158
    4CHTO  H199 1570   7.179   6.488  -1.168  0.1972  1.1248 -1.9286
    4CHTO   O22 1571   6.924   6.188  -0.871  0.0084  0.0019  0.3696
    4CHTO   C31 1572   6.908   6.234  -0.735 -0.0033 -0.5396 -0.3896
    4CHTO   H59 1573   6.883   6.342  -0.741  0.6816 -0.2831  1.1125
    4CHTO   C29 1574   6.791   6.163  -0.654 -0.0874 -0.6843 -0.2020
    4CHTO   H57 1575   6.799   6.053  -0.652  2.6317 -0.5251  0.3456
    4CHTO   O21 1576   6.681   6.178  -0.739 -0.0860  0.6913 -0.3034
    4CHTO   H37 1577   6.602   6.202  -0.694  0.1013 -0.1123  0.4745
    4CHTO   C27 1578   6.777   6.218  -0.511  0.4506 -0.8378  0.2751
    4CHTO   H55 1579   6.747   6.324  -0.515  3.0522  0.0242  2.1708
    4CHTO    N5 1580   6.680   6.135  -0.426  0.1099  0.3113 -0.5331
    4CHTO   H43 1581   6.725   6.052  -0.373  0.9303 -0.0077 -1.6979
    4CHTO   H44 1582   6.591   6.104  -0.479 -0.0424 -2.6735  1.3530
    4CHTO   C25 1583   6.922   6.232  -0.442 -0.6588 -0.6226 -0.1969
    4CHTO   H53 1584   6.961   6.133  -0.417  0.1868  0.0767  1.3136
    4CHTO   O17 1585   7.021   6.284  -0.528  0.1490 -0.0961 -0.3556
    4CHTO   C32 1586   7.044   6.227  -0.655  0.4603  0.1135  0.4942
    4CHTO   H60 1587   7.075   6.123  -0.645 -1.5009 -0.4867  0.6211
    4CHTO   C36 1588   7.156   6.310  -0.732  0.1310  0.2969 -0.1424
    4CHTO   O25 1589   7.225   6.239  -0.830 -0.2440  0.3400 -0.5439
    4CHTO   H40 1590   7.268   6.168  -0.784 -0.6786  1.0830  1.0437
    4CHTO   O15 1591   6.911   6.315  -0.329 -0.2405  0.0723 -0.0236
    4CHTO   C19 1592   6.945   6.447  -0.274 -0.7292  0.2079  0.5280
    4CHTO   H47 1593   6.911   6.421  -0.173  2.2400 -2.8900  0.8206
    4CHTO   C20 1594   7.091   6.491  -0.282  0.2018  0.1769  0.3974
    4CHTO   H48 1595   7.125   6.488  -0.387  0.9721 -2.0375  0.6932
    4CHTO   O19 1596   7.176   6.392  -0.226 -0.1528  0.0009 -0.2094
    4CHTO   H35 1597   7.171   6.307  -0.264  1.8334  0.8083 -2.4354
    4CHTO   C21 1598   7.124   6.630  -0.218  0.0410  0.1352 -0.5082
    4CHTO   H49 1599   7.106   6.626  -0.111  1.5742 -0.3727 -0.2635
    4CHTO    N4 1600   7.264   6.677  -0.243  0.4579  0.3066  0.7010
    4CHTO   H41 1601   7.258   6.783  -0.262  0.8128  0.4561  1.4015
    4CHTO   H42 1602   7.326   6.652  -0.158  1.4667 -1.7013 -0.5741
    4CHTO   C22 1603   7.017   6.731  -0.273  0.3972  0.8084  0.0746
    4CHTO   H50 1604   7.042   6.754  -0.376 -1.7663 -0.5068 -0.7766
    4CHTO   O14 1605   6.885   6.687  -0.256  0.2890  0.4286  0.4928
    4CHTO   C23 1606   6.854   6.563  -0.324  0.3356 -0.9742 -0.2112
    4CHTO   H51 1607   6.858   6.583  -0.432  0.3992  0.4247  0.0451
    4CHTO   C34 1608   6.709   6.535  -0.292 -0.0814  0.2490  0.0027
    4CHTO   O23 1609   6.612   6.623  -0.349 -0.2037 -0.0969  0.4171
    4CHTO   H38 1610   6.660   6.691  -0.394 -0.5704  0.3670  0.7314
    4CHTO   O16 1611   7.014   6.854  -0.199 -0.1772  0.5310  0.3771
    4CHTO   C24 1612   6.966   6.984  -0.271 -0.3818  0.4199 -0.4762
    4CHTO   H52 1613   6.902   6.963  -0.357  0.5238 -0.0186 -1.0430
    4CHTO   C26 1614   7.087   7.067  -0.313 -0.2710  0.7756  0.7584
    4CHTO   H54 1615   7.164   6.992  -0.342 -1.6848 -0.2531 -0.4081
    4CHTO   O20 1616   7.059   7.153  -0.424  0.2321 -0.0195 -0.2108
    4CHTO   H36 1617   6.968   7.174  -0.420 -0.0116 -1.4560  4.7374
    4CHTO   C30 1618   7.137   7.163  -0.197  0.0197 -0.1020 -0.4185
    4CHTO   H58 1619   7.095   7.264  -0.211  0.3437 -0.0280 -0.8543
    4CHTO    N6 1620   7.284   7.181  -0.200  0.1538  0.0025  0.0939
    4CHTO   H45 1621   7.328   7.111  -0.270 -0.0244  0.6586 -0.6771
    4CHTO   H46 1622   7.315   7.282  -0.220 -1.9451  0.7851  0.6273
    4CHTO   C33 1623   7.087   7.110  -0.058  0.0500 -0.0425  0.1872
    4CHTO   H61 1624   7.113   7.004  -0.046 -2.8441 -0.7974  0.1888
    4CHTO   O18 1625   6.949   7.116  -0.056 -0.2694  0.4470 -0.0741
    4CHTO   C28 1626   6.875   7.070  -0.170  0.2713  0.6784  0.2032
    4CHTO   H56 1627   6.798   7.002  -0.134 -0.4936 -0.0172 -2.5908
    4CHTO   C35 1628   6.813   7.197  -0.238 -0.2432 -0.6301 -0.0821
    4CHTO   O24 1629   6.700   7.254  -0.166 -0.3718  0.3987 -0.0661
    4CHTO   H39 1630   6.616   7.223  -0.195  1.2280 -2.0604 -2.3812
    4CHTO    O9 1631   7.147   7.178   0.051  0.6200  0.4215  0.2688
    4CHTO   C13 1632   7.230   7.082   0.157 -0.3619 -0.7505 -1.2236
    4CHTO   H26 1633   7.321   7.044   0.106  2.5996  0.3690  2.9188
    4CHTO   C11 1634   7.131   6.967   0.215  0.5063 -0.1301  0.3159
    4CHTO   H24 1635   7.112   6.903   0.128 -0.8457  0.5244  0.1229
    4CHTO    O8 1636   7.004   7.025   0.253 -0.4555  0.4636  0.2323
    4CHTO    H3 1637   7.008   7.097   0.314  0.1430  1.1414 -0.6057
    4CHTO    C9 1638   7.205   6.881   0.316 -0.2454 -0.0305 -0.7665
    4CHTO   H22 1639   7.298   6.847   0.267  1.8911  0.1687  2.9907
    4CHTO    N2 1640   7.133   6.756   0.354 -0.1063 -0.3504 -0.0889
    4CHTO   H10 1641   7.065   6.727   0.274 -1.7215 -0.4174  1.2711
    4CHTO   H11 1642   7.089   6.759   0.453 -0.0928  0.0879 -0.0965
    4CHTO    C7 1643   7.261   6.970   0.430  0.1110  0.8420 -0.5236
    4CHTO   H20 1644   7.312   6.895   0.494  0.1451  1.5248  0.2485
    4CHTO    O4 1645   7.346   7.078   0.382 -0.5360 -0.0534  0.3015
    4CHTO   C14 1646   7.296   7.163   0.273 -0.3214 -0.4677  0.2712
    4CHTO   H27 1647   7.387   7.212   0.232 -2.3306  2.5836 -0.6752
    4CHTO   C18 1648   7.204   7.277   0.324  0.7316 -0.0511  0.2173
    4CHTO   O13 1649   7.275   7.376   0.401  0.5203 -0.0766  0.1154
    4CHTO    H7 1650   7.248   7.462   0.379  0.4493 -0.5632 -1.7847
    4CHTO    O2 1651   7.132   7.028   0.521  0.6413 -0.2117  0.3240
    4CHTO    C1 1652   7.162   7.055   0.664  0.3284  0.3866  0.0021
    4CHTO   H14 1653   7.106   7.149   0.677  1.7487  1.0402  1.6150
    4CHTO    C2 1654   7.316   7.085   0.703 -0.3208 -0.0544  0.5693
    4CHTO   H15 1655   7.375   7.001   0.664 -1.8296 -0.1191 -1.6864
    4CHTO    O6 1656   7.360   7.202   0.624 -0.2982  0.0661 -0.4731
    4CHTO    H1 1657   7.396   7.169   0.543  0.0385  0.9829 -0.7009
    4CHTO    C3 1658   7.336   7.107   0.864 -0.3886  0.7743 -0.4765
    4CHTO   H16 1659   7.293   7.206   0.887  0.2203  0.3400  2.7585
    4CHTO    N1 1660   7.481   7.118   0.905  0.0168  0.0563 -0.2767
    4CHTO    H8 1661   7.534   7.199   0.855  0.9655 -1.1088 -1.2065
    4CHTO    H9 1662   7.486   7.129   1.012 -2.5792 -2.3381  0.1385
    4CHTO    C4 1663   7.250   7.007   0.953 -0.0433 -0.3612 -0.0039
    4CHTO   H17 1664   7.292   6.907   0.948 -1.1077 -0.8110  0.0039
    4CHTO    O1 1665   7.114   7.004   0.905 -1.0319  0.0942  0.3067
    4CHTO    C5 1666   7.103   6.950   0.769  0.6460 -0.0512 -1.0246
    4CHTO   H18 1667   7.157   6.856   0.754 -0.2620 -0.7016 -0.2961
    4CHTO   C16 1668   6.949   6.920   0.756  0.2503 -0.0759  0.2834
    4CHTO   O11 1669   6.904   6.840   0.860  0.2655 -0.2285  0.3347
    4CHTO    H5 1670   6.858   6.761   0.836 -1.6078  0.2244  2.2608
    4CHTO    O3 1671   7.229   7.052   1.090 -0.4790 -0.5540  0.3504
    4CHTO    C6 1672   7.239   6.945   1.192 -0.2423  0.0900  0.4911
    4CHTO   H19 1673   7.232   6.844   1.150 -1.1118 -0.8414  2.8041
    4CHTO    C8 1674   7.382   6.965   1.263 -0.1167 -0.2503 -0.1646
    4CHTO   H21 1675   7.393   7.068   1.296  1.8754 -0.6256  0.4072
    4CHTO    O7 1676   7.486   6.935   1.158 -0.3040 -0.3812 -0.4798
    4CHTO    H2 1677   7.524   6.851   1.173  1.1176  0.4231  0.5231
    4CHTO   C12 1678   7.395   6.865   1.387  0.4337 -0.3428  0.2676
    4CHTO   H25 1679   7.406   6.765   1.340 -0.9484 -0.5134  0.2758
    4CHTO    N3 1680   7.517   6.886   1.467 -0.0929  0.1325 -0.4431
    4CHTO   H12 1681   7.580   6.956   1.414 -1.9900  1.1392 -1.4014
    4CHTO   H13 1682   7.565   6.789   1.475  0.9675  0.7477  0.7410
    4CHTO   C15 1683   7.261   6.866   1.480 -0.1213  0.2953 -0.1479
    4CHTO   H28 1684   7.262   6.941   1.559  2.0717 -0.5956  0.7059
    4CHTO   O10 1685   7.270   6.723   1.565  0.7358  0.1479 -0.0433
    4CHTO    H4 1686   7.265   6.657   1.499  0.0506 -0.1431  0.2870
    4CHTO    O5 1687   7.134   6.860   1.402 -0.7587  0.0551 -0.2172
    4CHTO   C10 1688   7.124   6.962   1.298 -0.6067  0.3620 -0.7967
    4CHTO   H23 1689   7.138   7.061   1.341  0.1364 -0.1272  0.1065
    4CHTO   C17 1690   6.981   6.967   1.233 -0.3865  0.0496  0.3847
    4CHTO   O12 1691   6.964   6.847   1.153 -0.1894  0.8076 -0.4770
    4CHTO    H6 1692   6.880   6.848   1.110 -0.0975  0.8992 -0.6515
    5CHTO  H203 1693   7.556   3.822   2.367 -0.0974  1.0170  0.6456
    5CHTO   O82 1694   7.493   3.889   2.349 -0.2624  0.6340 -0.2762
    5CHTO  C123 1695   7.371   3.877   2.432 -0.9204  0.1477  0.5320
    5CHTO  H227 1696   7.406   3.825   2.522  0.2777  1.9400  1.1182
    5CHTO   O77 1697   7.331   4.011   2.455  0.0272 -0.1273  0.3859
    5CHTO  C118 1698   7.226   4.014   2.555 -0.1422 -0.2175  0.3063
    5CHTO  H222 1699   7.274   3.991   2.651 -1.0149  3.2189  1.6391
    5CHTO  C125 1700   7.168   4.170   2.566 -0.1932 -0.2850 -0.5528
    5CHTO   O84 1701   7.278   4.258   2.576 -0.2474 -0.3386 -0.0434
    5CHTO  H205 1702   7.318   4.246   2.659  0.5548 -0.6437 -0.4705
    5CHTO  C114 1703   7.107   3.921   2.535  0.1421  0.6983  0.1377
    5CHTO  H218 1704   7.043   3.977   2.467  0.7540  0.1954 -0.8710
    5CHTO  C116 1705   7.148   3.783   2.475  0.0463  0.4413 -0.6260
    5CHTO  H220 1706   7.197   3.723   2.556 -1.9557  0.9447  0.9889
    5CHTO   O79 1707   7.038   3.702   2.429 -0.4308 -0.1466 -0.1749
    5CHTO  H201 1708   6.966   3.753   2.397  0.3180 -1.2977 -3.9073
    5CHTO  C120 1709   7.256   3.797   2.363  0.0131  0.4407  0.2972
    5CHTO  H224 1710   7.213   3.856   2.279  1.1341  1.1778  0.2353
    5CHTO   N21 1711   7.305   3.669   2.303  0.5434  0.7976 -0.0765
    5CHTO  H211 1712   7.214   3.611   2.292  0.8735  0.2472  0.0437
    5CHTO  H212 1713   7.353   3.686   2.208 -0.7551  1.1178 -0.6793
    5CHTO   O75 1714   7.042   3.909   2.661  0.0875 -0.1252  0.4336
    5CHTO  C112 1715   6.873   3.897   2.638  0.3379  0.2695  0.1003
    5CHTO  H216 1716   6.853   3.872   2.533  0.0497 -0.5909  0.3629
    5CHTO   O73 1717   6.819   4.020   2.671 -0.2475 -0.4963 -0.1351
    5CHTO  C113 1718   6.678   4.020   2.636  0.1060 -0.2162 -0.0456
    5CHTO  H217 1719   6.669   3.992   2.529  0.5145 -2.1929  0.4226
    5CHTO  C124 1720   6.638   4.165   2.652 -0.0086 -0.2732 -0.7763
    5CHTO   O83 1721   6.501   4.207   2.627 -0.2882  0.1833 -0.0472
    5CHTO  H204 1722   6.442   4.137   2.647 -1.3887  0.6428 -1.6517
    5CHTO  C109 1723   6.592   3.915   2.719  0.4641 -0.3422  0.2874
    5CHTO  H213 1724   6.578   3.952   2.822 -0.1851 -0.1605  0.1325
    5CHTO  C110 1725   6.660   3.777   2.719 -0.3514  0.2623 -0.5375
    5CHTO  H214 1726   6.626   3.729   2.628  0.0919 -0.1432 -0.4895
    5CHTO   O78 1727   6.606   3.695   2.831  0.1339  0.0721  0.3677
    5CHTO  H200 1728   6.625   3.603   2.831  0.5896  0.1674  0.7440
    5CHTO  C111 1729   6.811   3.786   2.733  0.0022  0.1328 -0.2722
    5CHTO  H215 1730   6.836   3.807   2.838  0.1505  0.0884 -0.2979
    5CHTO   N19 1731   6.882   3.659   2.699  0.0402  0.7337 -1.0932
    5CHTO  H207 1732   6.941   3.675   2.609  0.1516  0.9521 -0.9815
    5CHTO  H208 1733   6.941   3.621   2.781 -0.4526 -2.5503 -2.1753
    5CHTO   O74 1734   6.458   3.906   2.654 -0.3385  0.0291 -0.2898
    5CHTO  C115 1735   6.322   4.012   2.720  1.1716  0.1100 -0.0473
    5CHTO  H219 1736   6.358   4.091   2.786 -1.1437  0.7178  0.5322
    5CHTO   O76 1737   6.243   4.098   2.600  0.1224  0.2027 -0.1533
    5CHTO  C122 1738   6.156   4.014   2.520  0.3866  0.9380 -0.1983
    5CHTO  H226 1739   6.220   3.972   2.442 -2.1123  0.8497 -2.2853
    5CHTO  C126 1740   6.066   4.113   2.440  0.2774  0.2417  0.9919
    5CHTO   O85 1741   6.125   4.198   2.333 -0.1215  0.4614  0.0191
    5CHTO  H206 1742   6.069   4.267   2.304  0.6534  1.3473  0.6154
    5CHTO  C121 1743   6.066   3.908   2.605 -0.3717  0.3987 -0.5117
    5CHTO  H225 1744   5.961   3.929   2.576 -0.9608 -0.7086  0.7379
    5CHTO   O81 1745   6.104   3.776   2.564 -0.3820 -0.0551  0.1662
    5CHTO  H202 1746   6.067   3.754   2.480 -0.4381 -2.5931  0.8305
    5CHTO  C119 1747   6.078   3.933   2.756  1.1777 -0.1181 -0.1327
    5CHTO  H223 1748   6.054   4.038   2.773  1.8412 -0.0082  0.1400
    5CHTO  C117 1749   6.228   3.910   2.796  0.0531 -0.1285  0.0982
    5CHTO  H221 1750   6.274   3.814   2.770  2.0002  0.8788 -0.2696
    5CHTO   N20 1751   6.244   3.923   2.943 -0.2846  0.2009 -0.0538
    5CHTO  H209 1752   6.339   3.879   2.969  0.8426  1.1845 -2.3004
    5CHTO  H210 1753   6.238   4.026   2.972 -0.0688  0.6402 -1.5214
    5CHTO   O80 1754   5.965   3.862   2.852  0.2963  0.1573  0.2935
    5CHTO  C103 1755   5.881   3.744   2.802 -0.8728  0.4149  0.3406
    5CHTO  H190 1756   5.881   3.739   2.693 -1.7065 -0.9752  0.3949
    5CHTO  C101 1757   5.936   3.607   2.855  0.6981 -0.0316 -0.7949
    5CHTO  H188 1758   5.933   3.606   2.964 -0.0444 -0.3719 -0.8158
    5CHTO   O68 1759   6.078   3.579   2.812 -0.5931  0.1197  0.0172
    5CHTO  H168 1760   6.123   3.549   2.889  1.0580 -0.1521 -1.0264
    5CHTO   C99 1761   5.830   3.499   2.805 -0.4586  0.4989  0.0185
    5CHTO  H186 1762   5.830   3.519   2.696 -1.2122  2.6514  0.4019
    5CHTO   N17 1763   5.860   3.355   2.838  0.5425 -0.2122 -0.5780
    5CHTO  H174 1764   5.819   3.337   2.936 -0.8603  1.5516 -0.8074
    5CHTO  H175 1765   5.826   3.283   2.765 -0.9581  1.1668 -1.2905
    5CHTO   C97 1766   5.686   3.545   2.855 -0.0126 -0.5940  0.4079
    5CHTO  H184 1767   5.685   3.548   2.965  1.1694  1.5483  0.3861
    5CHTO   O64 1768   5.648   3.666   2.802 -1.0571  0.2296  0.5443
    5CHTO  C104 1769   5.734   3.778   2.843  0.1357  0.1600  0.5055
    5CHTO  H191 1770   5.730   3.795   2.950 -1.4356 -0.6893  0.5943
    5CHTO  C108 1771   5.672   3.902   2.780  0.0177  0.1711  0.3741
    5CHTO   O71 1772   5.730   4.027   2.809  0.3817 -0.3970  0.2728
    5CHTO  H171 1773   5.820   4.034   2.782  0.9259 -0.9041  1.8367
    5CHTO   O62 1774   5.569   3.474   2.812  0.1864 -0.1904  0.0359
    5CHTO   C91 1775   5.475   3.440   2.911  1.6466  0.7434  0.2985
    5CHTO  H178 1776   5.500   3.514   2.988  1.5345  0.5140  0.5557
    5CHTO   C92 1777   5.489   3.296   2.977 -0.0910  0.4026  0.0084
    5CHTO  H179 1778   5.594   3.275   2.997 -0.2893  0.7149  1.4388
    5CHTO   O66 1779   5.411   3.300   3.094  0.0367  0.0383  0.1749
    5CHTO  H166 1780   5.462   3.322   3.170 -0.0320  1.5876 -0.2105
    5CHTO   C93 1781   5.431   3.178   2.883  0.4773  0.1442 -0.0120
    5CHTO  H180 1782   5.385   3.106   2.953 -1.0763 -0.8136 -1.9775
    5CHTO   N16 1783   5.539   3.119   2.806 -0.3458  0.1860 -0.1840
    5CHTO  H172 1784   5.565   3.024   2.851  1.7646  1.3034  1.0392
    5CHTO  H173 1785   5.629   3.178   2.815  0.4681 -0.7298 -1.9454
    5CHTO   C94 1786   5.320   3.236   2.790  0.0332  0.2983  0.5927
    5CHTO  H181 1787   5.357   3.265   2.692  0.0739  0.5268  0.6738
    5CHTO   O61 1788   5.245   3.353   2.845  0.3584  0.4276 -0.3668
    5CHTO   C95 1789   5.323   3.470   2.859 -0.4483  0.3307  0.1249
    5CHTO  H182 1790   5.317   3.525   2.766  0.1266  0.5170  0.1977
    5CHTO  C106 1791   5.241   3.543   2.966  0.2984 -0.2357 -0.4053
    5CHTO   O69 1792   5.294   3.675   2.977 -0.4535 -0.4792  0.6427
    5CHTO  H169 1793   5.370   3.675   3.031  1.1670  1.2706 -1.5393
    5CHTO   O63 1794   5.217   3.114   2.783  0.6186 -0.9131  0.2325
    5CHTO   C96 1795   5.166   3.103   2.626  0.3156  0.3132 -0.3601
    5CHTO  H183 1796   5.258   3.103   2.567 -0.4899  1.1165 -1.6331
    5CHTO   C98 1797   5.058   3.205   2.581 -0.5790  0.0181  0.2135
    5CHTO  H185 1798   4.988   3.219   2.665  0.7328  0.4220  1.2528
    5CHTO   O67 1799   5.122   3.335   2.578  0.6095 -0.5332 -0.1935
    5CHTO  H167 1800   5.053   3.397   2.593  0.6563 -0.8848  1.6328
    5CHTO  C102 1801   4.983   3.171   2.442 -0.2578  0.5583  0.6561
    5CHTO  H189 1802   5.058   3.185   2.363  0.6390 -1.6282  1.0874
    5CHTO   N18 1803   4.866   3.255   2.411  0.0964  0.2132  1.0457
    5CHTO  H176 1804   4.796   3.255   2.494 -0.1518 -0.4564  0.8453
    5CHTO  H177 1805   4.824   3.212   2.321  0.8502  0.6741  0.4755
    5CHTO  C105 1806   4.937   3.023   2.439 -0.2047  0.6292  0.4538
    5CHTO  H192 1807   4.851   3.006   2.503  0.5017 -0.8752  1.0389
    5CHTO   O65 1808   5.041   2.939   2.490  0.3406 -0.4451 -0.3229
    5CHTO  C100 1809   5.089   2.963   2.623  0.5855 -0.2549 -0.0644
    5CHTO  H187 1810   4.998   2.973   2.683  1.3621 -1.6107  1.4021
    5CHTO  C107 1811   5.176   2.835   2.658  0.5432  0.3751  0.4646
    5CHTO   O70 1812   5.108   2.707   2.668  0.0246  0.0917 -0.3303
    5CHTO  H170 1813   5.018   2.706   2.644  0.0094  0.3528 -0.2829
    5CHTO   O57 1814   4.912   2.984   2.286 -0.6777 -0.3753  0.0258
    5CHTO   C85 1815   4.868   2.860   2.233 -0.5137 -0.2293  0.4385
    5CHTO  H157 1816   4.770   2.845   2.284 -2.2461 -0.6901 -2.9002
    5CHTO   C83 1817   4.968   2.749   2.279  0.4262 -0.4718  0.1020
    5CHTO  H155 1818   4.970   2.742   2.388 -1.3200 -2.3379  0.0517
    5CHTO   O56 1819   5.100   2.788   2.238  0.2075 -0.6099  0.0411
    5CHTO  H135 1820   5.103   2.834   2.157 -0.8520  0.2232  0.4717
    5CHTO   C81 1821   4.930   2.612   2.216  0.0259  0.1730 -0.3240
    5CHTO  H153 1822   4.833   2.588   2.258  0.0238  0.2438 -0.2897
    5CHTO   N14 1823   5.004   2.493   2.274  0.6476  0.0468  0.4836
    5CHTO  H141 1824   4.939   2.412   2.299 -1.0248  0.5715 -1.9647
    5CHTO  H142 1825   5.063   2.511   2.361  0.7787 -1.9221  0.8231
    5CHTO   C79 1826   4.925   2.631   2.057  0.0456 -0.0002 -0.2310
    5CHTO  H151 1827   4.894   2.535   2.016  1.0625 -0.7073  0.6315
    5CHTO   O52 1828   4.823   2.730   2.017  1.1276  0.1302  0.2650
    5CHTO   C86 1829   4.844   2.864   2.071  0.3255 -0.0882  0.5076
    5CHTO  H158 1830   4.935   2.901   2.019 -1.1835  3.1865  0.0323
    5CHTO   C90 1831   4.724   2.949   2.023 -0.5123  0.0564  0.9324
    5CHTO   O60 1832   4.597   2.891   2.064  0.0121 -0.1648  0.1987
    5CHTO  H138 1833   4.589   2.808   2.022 -0.3106  1.3470 -2.8978
    5CHTO   O50 1834   5.057   2.656   2.003 -0.4892  0.0336 -0.0810
    5CHTO   C73 1835   5.142   2.620   1.893  0.4521  0.7317 -0.8094
    5CHTO  H145 1836   5.086   2.622   1.798  1.8301 -1.9525 -1.6989
    5CHTO   C74 1837   5.208   2.476   1.908 -0.0154 -0.1363  1.0669
    5CHTO  H146 1838   5.121   2.411   1.922 -0.5327  0.4850  0.7609
    5CHTO   O54 1839   5.271   2.440   1.786 -0.2413  0.0306  0.2930
    5CHTO  H133 1840   5.204   2.431   1.722  0.3930  0.3044 -0.4138
    5CHTO   C75 1841   5.312   2.469   2.028  0.0221 -0.0048  0.2862
    5CHTO  H147 1842   5.260   2.467   2.125  2.9213  1.5773  1.9591
    5CHTO   N13 1843   5.391   2.344   2.046 -0.1619 -0.1773 -0.3769
    5CHTO  H139 1844   5.320   2.263   2.045  1.1366 -1.3387 -1.6729
    5CHTO  H140 1845   5.459   2.329   1.963 -0.0392 -0.8973 -0.1469
    5CHTO   C76 1846   5.413   2.594   2.017  0.0638  0.0818 -0.0385
    5CHTO  H148 1847   5.474   2.579   1.928  0.2238  1.5049 -0.1846
    5CHTO   O49 1848   5.348   2.726   1.992  0.5643  0.1540  0.3944
    5CHTO   C77 1849   5.246   2.730   1.887  0.0933 -0.2332  0.1865
    5CHTO  H149 1850   5.306   2.720   1.797  1.2116  0.8872  0.7944
    5CHTO   C88 1851   5.181   2.872   1.878  0.4367 -0.0063 -0.1031
    5CHTO   O58 1852   5.060   2.891   1.759 -0.3157 -0.4580  0.0195
    5CHTO  H136 1853   5.093   2.867   1.675 -0.3004  2.5948 -0.8954
    5CHTO   O51 1854   5.498   2.611   2.141 -0.1882 -0.1830 -0.4362
    5CHTO   C78 1855   5.596   2.727   2.149 -0.3195 -0.9123 -0.2516
    5CHTO  H150 1856   5.562   2.812   2.086  0.4693  0.4063  1.0695
    5CHTO   C80 1857   5.737   2.683   2.113 -0.0978  0.2446 -0.0313
    5CHTO  H152 1858   5.766   2.595   2.174  1.1778 -0.4347 -1.5754
    5CHTO   O55 1859   5.732   2.641   1.979  0.2391 -0.6706  0.1082
    5CHTO  H134 1860   5.792   2.570   1.971 -0.4767 -1.4195  1.2735
    5CHTO   C84 1861   5.835   2.808   2.128 -0.3611 -0.3341  0.3104
    5CHTO  H156 1862   5.796   2.882   2.058  0.4415 -0.9741 -0.8339
    5CHTO   N15 1863   5.980   2.774   2.102 -0.2737  0.5424 -0.2906
    5CHTO  H143 1864   5.988   2.671   2.073 -1.5331 -0.1892  1.8160
    5CHTO  H144 1865   6.032   2.839   2.035  2.5070  0.1242  1.4131
    5CHTO   C87 1866   5.824   2.876   2.271 -0.3676  0.1241  0.1766
    5CHTO  H159 1867   5.877   2.815   2.344  0.7737 -0.5929 -1.2198
    5CHTO   O53 1868   5.660   2.895   2.303  0.3544  0.5548  0.7722
    5CHTO   C82 1869   5.582   2.775   2.294  0.0363  1.1444  0.8927
    5CHTO  H154 1870   5.619   2.695   2.359 -0.2909  0.4400  0.2299
    5CHTO   C89 1871   5.434   2.809   2.340  0.4237  0.4071 -0.0933
    5CHTO   O59 1872   5.435   2.862   2.475  0.1452 -0.4997  0.2034
    5CHTO  H137 1873   5.412   2.953   2.473  2.0370 -0.0209 -2.4520
    5CHTO   O45 1874   5.899   3.031   2.270  0.3054  0.3622 -0.2046
    5CHTO   C67 1875   5.999   3.047   2.370  0.0196  0.1077  0.1137
    5CHTO  H124 1876   5.955   3.002   2.459 -1.1333 -1.0459 -1.0181
    5CHTO   C65 1877   6.142   2.982   2.343 -0.1822  0.3456 -0.3117
    5CHTO  H122 1878   6.129   2.958   2.238 -2.1105  2.1328 -0.5097
    5CHTO   O44 1879   6.156   2.863   2.424  0.1426  0.2450  0.2681
    5CHTO  H102 1880   6.106   2.861   2.504  0.2559 -2.0010  0.3152
    5CHTO   C63 1881   6.263   3.084   2.353 -0.7830  0.3614 -0.1807
    5CHTO  H120 1882   6.248   3.158   2.275  0.1225 -1.5728 -2.2155
    5CHTO   N11 1883   6.405   3.038   2.335  0.6011  0.0607  0.5286
    5CHTO  H108 1884   6.450   2.995   2.422 -1.4057 -1.0122  1.0767
    5CHTO  H109 1885   6.413   2.947   2.279 -2.9848 -0.6439  1.0079
    5CHTO   C61 1886   6.241   3.159   2.495  0.1763  0.7707  0.1112
    5CHTO  H118 1887   6.323   3.232   2.491  1.4971 -0.5752  1.6602
    5CHTO   O40 1888   6.116   3.227   2.507 -0.1166  0.0769  0.6464
    5CHTO   C68 1889   6.014   3.196   2.408 -0.3256 -0.5575  0.3297
    5CHTO  H125 1890   6.054   3.252   2.321  1.6984 -0.6037  1.2051
    5CHTO   C72 1891   5.884   3.260   2.447 -0.2194  0.1419  0.9569
    5CHTO   O48 1892   5.883   3.398   2.411 -0.3264  0.9444  0.0483
    5CHTO  H105 1893   5.828   3.452   2.465 -0.6539  0.5113  0.1443
    5CHTO   O38 1894   6.269   3.077   2.614 -0.7759  0.3863 -0.4812
    5CHTO   C55 1895   6.242   3.133   2.745 -0.0568 -0.3014  0.5870
    5CHTO  H112 1896   6.161   3.207   2.741 -0.3238 -0.6576 -1.1533
    5CHTO   C56 1897   6.372   3.191   2.812 -0.8107  0.6659 -0.0016
    5CHTO  H113 1898   6.455   3.120   2.819 -1.6067  0.0220  4.1429
    5CHTO   O42 1899   6.418   3.292   2.725 -0.2720 -0.2606  0.7841
    5CHTO  H100 1900   6.511   3.303   2.729  0.0159 -2.1534 -0.1187
    5CHTO   C57 1901   6.339   3.255   2.950  0.2745 -0.0874  0.2455
    5CHTO  H114 1902   6.271   3.334   2.918  1.5116  1.3819  1.2264
    5CHTO   N10 1903   6.456   3.303   3.024  0.0104  0.5264 -0.3794
    5CHTO  H106 1904   6.446   3.399   3.072 -1.1072  0.0358  0.3982
    5CHTO  H107 1905   6.551   3.303   2.974  0.2277  0.0913  0.0344
    5CHTO   C58 1906   6.257   3.155   3.041  0.1853  0.3245 -0.8200
    5CHTO  H115 1907   6.326   3.074   3.073 -0.8690  0.0019  0.7024
    5CHTO   O37 1908   6.149   3.082   2.970 -0.1345  0.0963  0.4418
    5CHTO   C59 1909   6.192   3.025   2.841  0.3038  0.3679 -0.4355
    5CHTO  H116 1910   6.271   2.953   2.862  0.2847  1.0241  2.0329
    5CHTO   C70 1911   6.063   2.949   2.801  0.3527 -0.1197  0.0181
    5CHTO   O46 1912   5.956   3.036   2.770 -0.1068  0.1747 -0.3300
    5CHTO  H103 1913   5.954   3.058   2.679  1.1418  2.4411  0.1552
    5CHTO   O39 1914   6.208   3.235   3.184  0.2323 -0.0463 -0.0217
    5CHTO   C60 1915   6.069   3.283   3.180  0.1867  0.2778 -0.4835
    5CHTO  H117 1916   6.031   3.284   3.078 -0.1435 -0.5510 -0.3681
    5CHTO   C62 1917   5.962   3.192   3.245  1.4600 -0.2710 -0.2879
    5CHTO  H119 1918   5.974   3.091   3.199 -1.2987 -2.0164  2.5652
    5CHTO   O43 1919   5.999   3.170   3.380  0.7933  0.1346 -0.1479
    5CHTO  H101 1920   5.983   3.249   3.429  2.6893  1.4588 -1.6111
    5CHTO   C66 1921   5.822   3.261   3.216 -0.4654 -0.1746 -0.1155
    5CHTO  H123 1922   5.812   3.293   3.112 -1.6326  1.2465  0.4159
    5CHTO   N12 1923   5.710   3.167   3.246  0.1066  0.2661  0.8216
    5CHTO  H110 1924   5.624   3.226   3.276 -1.4324 -1.4848  0.0068
    5CHTO  H111 1925   5.688   3.122   3.150  1.3491 -0.1820  0.7445
    5CHTO   C69 1926   5.810   3.389   3.299  0.5321 -0.3845 -0.2751
    5CHTO  H126 1927   5.825   3.376   3.408  1.1407  2.1785 -0.0268
    5CHTO   O41 1928   5.909   3.488   3.246 -0.1413 -0.2532  0.4383
    5CHTO   C64 1929   6.068   3.428   3.240  0.7372  0.1288  0.3489
    5CHTO  H121 1930   6.104   3.434   3.345 -2.3682  1.1677  1.4016
    5CHTO   C71 1931   6.150   3.520   3.149 -0.2859 -0.3585  0.2650
    5CHTO   O47 1932   6.180   3.642   3.216 -0.0563  0.1141 -0.1844
    5CHTO  H104 1933   6.109   3.674   3.268  1.2660  2.6525  0.1047
    5CHTO   O34 1934   5.667   3.464   3.284 -0.1785  0.0247  0.1662
    5CHTO   C49 1935   5.589   3.553   3.376 -0.0443 -0.1891 -0.5594
    5CHTO   H91 1936   5.661   3.618   3.425 -1.6158  1.7214 -0.7015
    5CHTO   C47 1937   5.531   3.473   3.492  0.2481  0.2905 -0.1103
    5CHTO   H89 1938   5.489   3.546   3.564 -2.0253  1.8604 -2.9266
    5CHTO   O33 1939   5.630   3.402   3.566 -0.3900  0.6091  0.3388
    5CHTO   H70 1940   5.593   3.341   3.627 -0.6947  0.4050 -0.0467
    5CHTO   C45 1941   5.408   3.387   3.437  0.4896  0.4196 -0.0847
    5CHTO   H87 1942   5.430   3.329   3.347  2.6637  0.5187  0.3485
    5CHTO    N8 1943   5.355   3.294   3.542 -0.6454 -0.1749  0.5444
    5CHTO   H75 1944   5.355   3.349   3.634 -0.4274  1.5456 -0.4677
    5CHTO   H76 1945   5.260   3.259   3.502 -0.5024  0.7510 -0.6408
    5CHTO   C43 1946   5.307   3.491   3.375 -0.2933  0.0083 -0.4413
    5CHTO   H85 1947   5.235   3.420   3.333  2.2653 -3.1354  0.2615
    5CHTO   O29 1948   5.361   3.575   3.270  0.4478  0.0740  0.1347
    5CHTO   C50 1949   5.491   3.630   3.286  0.2172 -0.2473  0.6805
    5CHTO   H92 1950   5.522   3.636   3.181  0.8907 -1.4700  0.7937
    5CHTO   C54 1951   5.481   3.776   3.319 -0.4140  0.0266 -0.6481
    5CHTO   O36 1952   5.401   3.803   3.436  0.3941  0.0059 -0.2065
    5CHTO   H72 1953   5.325   3.749   3.423  1.1784 -1.5638  1.5908
    5CHTO   O27 1954   5.243   3.570   3.474 -0.2474  0.2274  0.0659
    5CHTO   C37 1955   5.155   3.601   3.582 -0.2844 -0.1619 -0.5134
    5CHTO   H79 1956   5.094   3.517   3.619 -2.3209  2.8518  3.3751
    5CHTO   C38 1957   5.226   3.647   3.712  0.0380  0.0228 -0.5969
    5CHTO   H80 1958   5.268   3.747   3.696 -0.9525  0.3292 -1.2918
    5CHTO   O31 1959   5.333   3.555   3.750 -0.5039  0.3200  0.1743
    5CHTO   H68 1960   5.401   3.548   3.687 -1.7726 -1.9876 -0.9909
    5CHTO   C39 1961   5.120   3.659   3.832 -0.0582 -0.4473  0.7610
    5CHTO   H81 1962   5.083   3.557   3.848  0.0056 -1.1708 -3.2159
    5CHTO    N7 1963   5.186   3.699   3.963 -0.1205  0.1413 -0.0095
    5CHTO   H73 1964   5.176   3.805   3.984 -1.7917 -0.0706  0.2548
    5CHTO   H74 1965   5.293   3.685   3.949 -0.7502 -2.3388 -2.6859
    5CHTO   C40 1966   5.004   3.760   3.790 -0.5917 -0.5353 -0.0957
    5CHTO   H82 1967   5.052   3.857   3.796 -1.6514  0.1876 -2.5540
    5CHTO   O26 1968   4.959   3.735   3.660 -0.5011 -0.1062  0.0696
    5CHTO   C41 1969   5.059   3.715   3.545  0.3203 -0.0204  0.3173
    5CHTO   H83 1970   5.103   3.815   3.533 -1.2298  1.4546  5.5181
    5CHTO   C52 1971   4.968   3.690   3.428 -0.1973  0.4902  0.6590
    5CHTO   O35 1972   5.038   3.674   3.286 -0.2220  0.1366  0.4858
    5CHTO   H71 1973   5.095   3.600   3.293  0.7937  0.7944 -0.7440
    5CHTO   O28 1974   4.882   3.759   3.865  0.3020 -0.2106 -0.0609
    5CHTO   C42 1975   4.804   3.634   3.895 -0.5889 -0.3360  0.4468
    5CHTO   H84 1976   4.708   3.683   3.911 -1.0258 -0.3174 -2.1544
    5CHTO   C44 1977   4.842   3.569   4.032  0.4438  0.4923 -0.1926
    5CHTO   H86 1978   4.950   3.551   4.030  0.4699  0.7539 -1.4587
    5CHTO   O32 1979   4.816   3.669   4.135  0.2542  0.0508 -0.4797
    5CHTO   H69 1980   4.842   3.634   4.218 -1.5110  0.7038  0.3807
    5CHTO   C48 1981   4.783   3.430   4.057 -0.4592 -0.3970  0.1724
    5CHTO   H90 1982   4.674   3.422   4.066 -0.4469 -0.1648  0.5392
    5CHTO    N9 1983   4.838   3.371   4.190  1.0659  0.6669 -0.0326
    5CHTO   H77 1984   4.797   3.433   4.268  0.7714  0.2566  0.1379
    5CHTO   H78 1985   4.945   3.382   4.189  1.0248  1.3423  1.3928
    5CHTO   C51 1986   4.814   3.345   3.930 -0.5703 -0.7029 -0.3669
    5CHTO   H93 1987   4.923   3.345   3.920 -0.6724 -0.5704 -1.6342
    5CHTO   O30 1988   4.749   3.414   3.822  0.1861  0.2005  0.7832
    5CHTO   C46 1989   4.792   3.527   3.776  0.7601  0.3459  0.8658
    5CHTO   H88 1990   4.891   3.506   3.736 -0.5148 -1.3383 -1.5724
    5CHTO   C53 1991   4.686   3.583   3.676  0.4388  0.0874  0.5882
    5CHTO   O72 1992   4.681   3.496   3.555  0.0923  0.1954  0.7752
    5CHTO  H199 1993   4.755   3.493   3.499 -0.9076  0.0902 -0.5669
    5CHTO   O22 1994   4.753   3.212   3.930  0.1079 -0.1995  0.3853
    5CHTO   C31 1995   4.806   3.107   3.832 -0.1944 -0.0635  0.3337
    5CHTO   H59 1996   4.734   3.023   3.834  0.7877 -0.9168 -0.0965
    5CHTO   C29 1997   4.827   3.152   3.682  0.1724  0.6036 -0.8107
    5CHTO   H57 1998   4.893   3.239   3.671  3.9652 -1.8758  1.3377
    5CHTO   O21 1999   4.701   3.198   3.629 -0.1216 -0.2766  0.4300
    5CHTO   H37 2000   4.706   3.238   3.545 -2.4631 -1.1062 -0.1625
    5CHTO   C27 2001   4.886   3.033   3.593 -0.2713 -0.1951 -0.6747
    5CHTO   H55 2002   4.814   2.950   3.595  0.3049 -0.6749  0.3113
    5CHTO    N5 2003   4.918   3.074   3.459  0.1086  0.5050 -0.1143
    5CHTO   H43 2004   4.985   3.158   3.460  1.5072 -0.6030  0.0194
    5CHTO   H44 2005   4.831   3.082   3.395 -0.3545  1.3094  0.6121
    5CHTO   C25 2006   5.023   2.986   3.662  0.2198  0.1593 -0.1543
    5CHTO   H53 2007   5.088   3.074   3.672 -0.4473  0.3760  2.8578
    5CHTO   O17 2008   4.985   2.937   3.801  0.2810 -0.1823 -0.1589
    5CHTO   C32 2009   4.937   3.042   3.885 -0.7707 -0.0837  0.1699
    5CHTO   H60 2010   5.020   3.114   3.884 -0.4584 -0.4455 -1.1629
    5CHTO   C36 2011   4.933   2.996   4.036 -0.2928  0.0893 -0.6211
    5CHTO   O25 2012   5.064   2.955   4.076  0.0847  0.1161 -0.4113
    5CHTO   H40 2013   5.096   3.022   4.133 -2.6476  2.2740 -1.3408
    5CHTO   O15 2014   5.109   2.872   3.586 -0.5508  0.1772 -0.3071
    5CHTO   C19 2015   5.234   2.830   3.649 -0.1259 -0.0646 -0.3765
    5CHTO   H47 2016   5.277   2.914   3.706  0.1198 -0.9396  0.7444
    5CHTO   C20 2017   5.227   2.710   3.744  0.2422  0.4261  0.8888
    5CHTO   H48 2018   5.204   2.618   3.688 -0.8195  1.0664  0.2500
    5CHTO   O19 2019   5.119   2.717   3.840  0.2268  0.4640  0.0259
    5CHTO   H35 2020   5.136   2.781   3.906  0.5275  0.1675  0.2330
    5CHTO   C21 2021   5.373   2.694   3.811  0.4624  0.0580 -0.2328
    5CHTO   H49 2022   5.383   2.773   3.886 -1.3072 -1.6003  1.8098
    5CHTO    N4 2023   5.377   2.567   3.887  0.5330 -0.7128  0.0487
    5CHTO   H41 2024   5.318   2.570   3.978  1.2661  2.3064  0.4537
    5CHTO   H42 2025   5.347   2.488   3.819  0.0921  1.1083 -1.9080
    5CHTO   C22 2026   5.481   2.703   3.702  0.7417  0.4438  0.6164
    5CHTO   H50 2027   5.469   2.621   3.631 -0.8077 -0.6372  2.1005
    5CHTO   O14 2028   5.460   2.817   3.616 -0.9793  0.4532  0.2229
    5CHTO   C23 2029   5.338   2.799   3.539  0.1506 -0.4330  1.2932
    5CHTO   H51 2030   5.320   2.702   3.490 -0.2147  0.4094 -0.2684
    5CHTO   C34 2031   5.335   2.899   3.421 -0.3644  0.3305  0.6601
    5CHTO   O23 2032   5.244   2.884   3.316  0.0499  0.0416 -0.4085
    5CHTO   H38 2033   5.158   2.906   3.347  0.5856  1.4644  0.0777
    5CHTO   O16 2034   5.615   2.707   3.769  0.0481  0.1092  0.7395
    5CHTO   C24 2035   5.742   2.691   3.677  0.3896 -0.2475  0.3017
    5CHTO   H52 2036   5.708   2.686   3.573  0.4295  1.3476  0.1991
    5CHTO   C26 2037   5.814   2.561   3.713 -0.4440  1.2675  0.2294
    5CHTO   H54 2038   5.818   2.553   3.824  0.9084  3.3212  0.3465
    5CHTO   O20 2039   5.744   2.446   3.668 -0.0004 -0.7008 -0.0123
    5CHTO   H36 2040   5.720   2.385   3.735  0.6678 -0.3660  0.5283
    5CHTO   C30 2041   5.967   2.559   3.662  0.0703 -0.7209 -0.1394
    5CHTO   H58 2042   5.957   2.535   3.555 -0.6313 -2.9720  0.3941
    5CHTO    N6 2043   6.035   2.441   3.727  0.2663 -0.1808  0.1625
    5CHTO   H45 2044   6.132   2.457   3.773  0.5550 -3.3876  0.7172
    5CHTO   H46 2045   6.036   2.355   3.661 -0.5226 -0.7100  0.8385
    5CHTO   C33 2046   6.044   2.689   3.675 -0.4296 -0.0578 -0.9700
    5CHTO   H61 2047   6.070   2.706   3.780 -0.7359 -0.9536 -0.7451
    5CHTO   O18 2048   5.958   2.796   3.632  0.4793 -0.1943  0.2009
    5CHTO   C28 2049   5.833   2.809   3.695  0.8300  0.6973 -0.9977
    5CHTO   H56 2050   5.851   2.825   3.801 -1.3689  2.7137 -0.8947
    5CHTO   C35 2051   5.771   2.933   3.630 -0.1929 -0.2258  0.0267
    5CHTO   O24 2052   5.736   3.039   3.719 -0.2551 -0.8165  0.0057
    5CHTO   H39 2053   5.704   3.108   3.664 -0.5702  0.8574  2.2290
    5CHTO    O9 2054   6.164   2.684   3.602 -0.3390  0.2454 -0.5681
    5CHTO   C13 2055   6.154   2.683   3.445  0.1765 -0.2300  0.7549
    5CHTO   H26 2056   6.046   2.668   3.426  0.3300 -0.1108 -0.2466
    5CHTO   C11 2057   6.236   2.569   3.374  1.4078 -0.8701 -0.0416
    5CHTO   H24 2058   6.183   2.480   3.409 -0.0837  0.3318  0.8347
    5CHTO    O8 2059   6.367   2.561   3.440  0.4587  0.8747  0.2884
    5CHTO    H3 2060   6.416   2.640   3.428  0.7507  0.8942  1.4973
    5CHTO    C9 2061   6.228   2.585   3.222  0.1787  0.5217 -0.5064
    5CHTO   H22 2062   6.120   2.595   3.203 -0.2091  1.2733  1.9639
    5CHTO    N2 2063   6.286   2.468   3.147 -0.3125 -0.5157  0.6409
    5CHTO   H10 2064   6.382   2.447   3.191  0.4859  0.0090 -0.8149
    5CHTO   H11 2065   6.225   2.381   3.166  1.6482 -2.7399 -2.7678
    5CHTO    C7 2066   6.284   2.723   3.172 -0.6464 -0.1098 -0.1141
    5CHTO   H20 2067   6.258   2.727   3.064 -1.3799  1.7770  0.1103
    5CHTO    O4 2068   6.212   2.831   3.235 -0.8507 -0.0083 -0.0411
    5CHTO   C14 2069   6.179   2.828   3.380 -0.0875  0.3089 -0.3855
    5CHTO   H27 2070   6.088   2.889   3.396  0.0802  0.0504  1.6951
    5CHTO   C18 2071   6.290   2.896   3.462  0.2287  0.1412 -0.8458
    5CHTO   O13 2072   6.280   3.034   3.434 -0.1193 -0.2295 -0.0991
    5CHTO    H7 2073   6.338   3.078   3.493 -1.1911 -1.2663  1.7556
    5CHTO    O2 2074   6.429   2.742   3.187 -0.1610 -0.1055 -0.5701
    5CHTO    C1 2075   6.496   2.803   3.074  0.1987  0.1588  0.2662
    5CHTO   H14 2076   6.431   2.878   3.025 -0.1925 -0.2864  0.1032
    5CHTO    C2 2077   6.538   2.690   2.956  0.5802 -0.0483  0.0114
    5CHTO   H15 2078   6.589   2.611   3.014  1.2642 -1.0735 -1.9471
    5CHTO    O6 2079   6.422   2.636   2.884 -0.2188 -0.8472 -0.9313
    5CHTO    H1 2080   6.439   2.550   2.851  0.1661 -1.9207  1.9147
    5CHTO    C3 2081   6.644   2.756   2.850 -1.2907  0.2272  0.1822
    5CHTO   H16 2082   6.591   2.819   2.778 -0.3958  0.0051 -0.6878
    5CHTO    N1 2083   6.715   2.650   2.763 -0.0792  0.0093 -0.3412
    5CHTO    H8 2084   6.690   2.653   2.658 -1.3535  0.5344 -0.0350
    5CHTO    H9 2085   6.822   2.648   2.779  0.1558 -0.1070 -1.8912
    5CHTO    C4 2086   6.749   2.846   2.924  0.5330 -0.1560  0.7966
    5CHTO   H17 2087   6.818   2.778   2.975  0.7285  0.4233  1.3148
    5CHTO    O1 2088   6.686   2.941   3.019  0.1555 -0.4748  0.1488
    5CHTO    C5 2089   6.616   2.883   3.129  0.1985 -0.2603  0.3921
    5CHTO   H18 2090   6.683   2.821   3.189 -2.6615 -2.8361  1.0113
    5CHTO   C16 2091   6.565   2.992   3.222 -0.1049  0.5514  0.0382
    5CHTO   O11 2092   6.668   3.080   3.262 -0.1971  0.5270 -0.3099
    5CHTO    H5 2093   6.712   3.110   3.185  0.8621  1.6502  0.7223
    5CHTO    O3 2094   6.821   2.935   2.833  0.7856 -0.2071 -0.6309
    5CHTO    C6 2095   6.955   2.966   2.878  0.1957 -0.6036 -0.4363
    5CHTO   H19 2096   6.975   2.924   2.976 -0.5408  0.4501  0.1784
    5CHTO    C8 2097   7.061   2.892   2.789  0.8058 -0.1408 -0.4457
    5CHTO   H21 2098   7.060   2.935   2.689 -0.2939  0.5108 -0.1662
    5CHTO    O7 2099   7.030   2.752   2.797  0.2441  0.6093  0.3545
    5CHTO    H2 2100   6.947   2.741   2.754  0.3847 -0.8036  0.4128
    5CHTO   C12 2101   7.208   2.931   2.850  0.4867  0.4219  0.7964
    5CHTO   H25 2102   7.198   2.892   2.953 -0.4648 -1.5811 -0.0173
    5CHTO    N3 2103   7.319   2.868   2.770  0.3218 -0.3518 -0.5470
    5CHTO   H12 2104   7.294   2.763   2.758  2.3409 -0.9332  0.1274
    5CHTO   H13 2105   7.330   2.917   2.674 -1.2404 -1.2362 -1.2048
    5CHTO   C15 2106   7.212   3.085   2.847  0.1341  0.3730  0.6136
    5CHTO   H28 2107   7.207   3.115   2.742  2.2878 -0.0423  0.3691
    5CHTO   O10 2108   7.333   3.140   2.909  0.0038 -0.2803  0.0006
    5CHTO    H4 2109   7.350   3.231   2.894 -0.6161 -0.2975 -0.8583
    5CHTO    O5 2110   7.121   3.148   2.929 -0.1661  0.5176  0.3191
    5CHTO   C10 2111   6.988   3.122   2.885 -0.5377 -0.2371 -0.9395
    5CHTO   H23 2112   6.985   3.162   2.783 -1.8497 -2.8662 -1.9615
    5CHTO   C17 2113   6.891   3.197   2.975 -0.3206  0.1204  0.4286
    5CHTO   O12 2114   6.764   3.211   2.909  0.3401  0.5070  0.2292
    5CHTO    H6 2115   6.744   3.141   2.850  0.6616  1.2259 -0.7347
    6CHTO  H203 2116   3.799   4.826   0.805  0.4173  0.0844 -0.2811
    6CHTO   O82 2117   3.849   4.746   0.806  0.4014  0.0772  0.0722
    6CHTO  C123 2118   3.988   4.765   0.775  0.3911  0.8111  0.0454
    6CHTO  H227 2119   4.009   4.724   0.675  0.2796 -1.5464  0.9657
    6CHTO   O77 2120   4.002   4.911   0.780 -0.0699 -0.5106  0.0218
    6CHTO  C118 2121   4.135   4.958   0.743  0.4135 -0.7489 -0.7763
    6CHTO  H222 2122   4.148   4.925   0.639  2.7652 -1.0415 -0.4034
    6CHTO  C125 2123   4.120   5.115   0.747  0.2705  0.1783  0.0896
    6CHTO   O84 2124   4.244   5.178   0.712  0.3570  0.4542  0.0291
    6CHTO  H205 2125   4.236   5.269   0.688  1.1296  0.2499 -1.0095
    6CHTO  C114 2126   4.250   4.901   0.837  0.0244  0.7910  0.1233
    6CHTO  H218 2127   4.230   4.936   0.938 -3.1656 -0.1483 -0.0983
    6CHTO  C116 2128   4.234   4.750   0.854 -0.2761  0.8131 -0.2463
    6CHTO  H220 2129   4.265   4.711   0.755 -0.8711  1.4162 -0.6726
    6CHTO   O79 2130   4.324   4.707   0.964  0.1340  0.8980 -0.0307
    6CHTO  H201 2131   4.370   4.630   0.935  0.5141  1.6590 -1.4565
    6CHTO  C120 2132   4.085   4.698   0.880  0.4874 -0.2115  0.0674
    6CHTO  H224 2133   4.068   4.736   0.983  0.9791 -0.6077  0.2986
    6CHTO   N21 2134   4.083   4.554   0.865 -0.3912  0.3456 -0.1545
    6CHTO  H211 2135   4.114   4.509   0.959  0.8507 -1.2358 -1.2811
    6CHTO  H212 2136   4.155   4.522   0.791  0.7186 -0.3178  1.1703
    6CHTO   O75 2137   4.371   4.952   0.782  0.4100 -0.4527  0.4216
    6CHTO  C112 2138   4.494   4.950   0.882  0.4202  0.0347 -0.2497
    6CHTO  H216 2139   4.521   4.844   0.887 -1.2288 -0.4030 -0.3474
    6CHTO   O73 2140   4.455   4.999   1.013  0.3536 -0.0617 -0.6013
    6CHTO  C113 2141   4.559   4.984   1.117  0.4288 -0.1338  0.1128
    6CHTO  H217 2142   4.581   4.875   1.128  0.5513 -0.2313 -1.0216
    6CHTO  C124 2143   4.509   5.034   1.252 -0.1183 -0.5736 -0.6717
    6CHTO   O83 2144   4.375   5.004   1.272  0.0103  0.3376  0.4066
    6CHTO  H204 2145   4.367   4.917   1.307 -0.2989  0.8063  1.5508
    6CHTO  C109 2146   4.684   5.060   1.073  0.3922  0.0751  0.2764
    6CHTO  H213 2147   4.660   5.167   1.078 -1.2908 -0.3078  0.7986
    6CHTO  C110 2148   4.729   5.025   0.933  0.0664 -0.3359 -0.4583
    6CHTO  H214 2149   4.770   4.924   0.936  0.2742 -0.2183  1.5519
    6CHTO   O78 2150   4.835   5.117   0.903 -0.0970 -0.3666 -0.1301
    6CHTO  H200 2151   4.918   5.075   0.913  0.8455  1.6711  0.8061
    6CHTO  C111 2152   4.623   5.022   0.825  0.1412  0.1965 -0.4045
    6CHTO  H215 2153   4.581   5.123   0.814 -2.1534 -0.7819 -0.8586
    6CHTO   N19 2154   4.659   4.976   0.690 -0.0417  0.7489  0.2235
    6CHTO  H207 2155   4.661   4.869   0.673 -0.8040  0.9229 -1.0538
    6CHTO  H208 2156   4.747   5.031   0.658 -0.9155  2.4284  0.6566
    6CHTO   O74 2157   4.791   5.034   1.174  0.5854  0.3733  0.0311
    6CHTO  C115 2158   4.907   5.178   1.186  0.0490 -0.2036 -0.9245
    6CHTO  H219 2159   4.942   5.207   1.087 -2.1655 -0.3086 -1.7555
    6CHTO   O76 2160   4.833   5.304   1.238 -0.2424 -0.2775  0.3575
    6CHTO  C122 2161   4.777   5.299   1.373  0.3855  0.2825  0.1227
    6CHTO  H226 2162   4.669   5.292   1.367  0.2237 -1.0616  3.5212
    6CHTO  C126 2163   4.810   5.447   1.423  0.0319  0.6771 -0.3735
    6CHTO   O85 2164   4.757   5.542   1.330  0.4682 -0.7138 -0.5948
    6CHTO  H206 2165   4.787   5.627   1.357 -2.2134  0.7661 -2.1135
    6CHTO  C121 2166   4.836   5.179   1.462 -0.6703 -0.5384 -0.8797
    6CHTO  H225 2167   4.826   5.203   1.570 -0.6024 -0.7597 -0.8226
    6CHTO   O81 2168   4.762   5.060   1.438  0.0924 -0.2364  0.1575
    6CHTO  H202 2169   4.757   4.990   1.501  0.1047 -1.7287 -1.4658
    6CHTO  C119 2170   4.990   5.151   1.433  0.0608 -0.6562 -0.0375
    6CHTO  H223 2171   5.046   5.238   1.468  1.8435 -1.0104 -1.9848
    6CHTO  C117 2172   5.022   5.121   1.283  0.1773 -0.4258  0.3558
    6CHTO  H221 2173   5.026   5.014   1.260  2.5050 -0.4101  0.5734
    6CHTO   N20 2174   5.151   5.166   1.238  0.3391 -0.7523  0.0798
    6CHTO  H209 2175   5.180   5.247   1.303 -2.8937 -1.1150  2.0685
    6CHTO  H210 2176   5.217   5.093   1.193  1.6095  1.2371 -1.3829
    6CHTO   O80 2177   5.047   5.026   1.531 -0.2733  0.0915  0.3766
    6CHTO  C103 2178   5.087   5.040   1.665 -0.6883  0.2882 -0.3751
    6CHTO  H190 2179   5.161   4.966   1.695 -0.6098  0.9543  1.1197
    6CHTO  C101 2180   5.153   5.179   1.699  0.2080 -0.0584 -0.0586
    6CHTO  H188 2181   5.083   5.261   1.679 -0.7500 -1.2155 -1.5376
    6CHTO   O68 2182   5.267   5.198   1.613 -0.0436  0.5214 -0.6598
    6CHTO  H168 2183   5.344   5.163   1.653 -1.3656 -0.1486  1.3776
    6CHTO   C99 2184   5.173   5.188   1.864 -0.2471  0.1588 -1.0783
    6CHTO  H186 2185   5.247   5.113   1.900 -1.2279 -0.2502  0.1175
    6CHTO   N17 2186   5.245   5.317   1.902  0.0618  0.2640 -0.4961
    6CHTO  H174 2187   5.289   5.316   2.001  3.0467  0.3799 -1.7743
    6CHTO  H175 2188   5.307   5.360   1.825 -1.8879 -1.3076 -3.0499
    6CHTO   C97 2189   5.039   5.156   1.933  0.0743  0.9645  0.2996
    6CHTO  H184 2190   4.967   5.227   1.889 -3.9419 -2.1822  1.5130
    6CHTO   O64 2191   5.005   5.020   1.897 -0.0835  0.5700 -0.0151
    6CHTO  C104 2192   4.964   5.014   1.759  0.5811  0.2378  0.2457
    6CHTO  H191 2193   4.887   5.090   1.742  1.5658  1.4773  1.1668
    6CHTO  C108 2194   4.900   4.877   1.727  0.5669 -0.2020 -0.5700
    6CHTO   O71 2195   4.800   4.841   1.820 -0.2859  0.3204 -0.4225
    6CHTO  H171 2196   4.741   4.780   1.781  0.8487 -0.4479 -0.9749
    6CHTO   O62 2197   5.048   5.158   2.079  0.1323  0.1369  0.2539
    6CHTO   C91 2198   4.940   5.233   2.151 -0.6125 -0.4803 -0.1323
    6CHTO  H178 2199   4.963   5.339   2.159 -1.9027 -0.2995  1.2552
    6CHTO   C92 2200   4.922   5.183   2.295 -0.0953 -0.6397 -0.7307
    6CHTO  H179 2201   5.021   5.176   2.345 -0.1922 -0.2004 -0.4791
    6CHTO   O66 2202   4.854   5.280   2.369 -0.2109 -0.2937 -0.4418
    6CHTO  H166 2203   4.900   5.289   2.450  2.0380 -0.8566 -1.6103
    6CHTO   C93 2204   4.849   5.041   2.316  1.0447  0.0460  0.6351
    6CHTO  H180 2205   4.806   5.044   2.418  0.7301 -1.6882  0.5597
    6CHTO   N16 2206   4.939   4.920   2.317  0.1921 -0.5890 -0.3811
    6CHTO  H172 2207   5.008   4.925   2.234 -1.4296 -1.9798 -1.8524
    6CHTO  H173 2208   4.990   4.902   2.410 -1.0589 -1.1675  0.1999
    6CHTO   C94 2209   4.732   5.028   2.215 -0.0096  0.6273  0.2561
    6CHTO  H181 2210   4.757   4.963   2.132 -0.3634 -0.7928  1.2482
    6CHTO   O61 2211   4.692   5.158   2.164 -0.4303 -0.0549 -0.0279
    6CHTO   C95 2212   4.790   5.231   2.084 -0.3946  0.3972  0.5529
    6CHTO  H182 2213   4.791   5.185   1.985  2.2699  2.6590 -0.5425
    6CHTO  C106 2214   4.735   5.378   2.062  0.0999 -0.5740 -0.4194
    6CHTO   O69 2215   4.802   5.466   1.965 -0.0965  0.1303 -0.4903
    6CHTO  H169 2216   4.808   5.417   1.886 -3.2419  0.4396 -1.0036
    6CHTO   O63 2217   4.610   4.968   2.300  0.3077 -0.2385  0.4279
    6CHTO   C96 2218   4.482   4.924   2.190 -0.1618 -0.0095 -0.0494
    6CHTO  H183 2219   4.516   4.945   2.089 -2.3187  0.2664 -0.7432
    6CHTO   C98 2220   4.347   4.997   2.222  0.4630 -0.7215 -0.1271
    6CHTO  H185 2221   4.325   5.010   2.329 -2.8029 -0.3431 -0.7999
    6CHTO   O67 2222   4.389   5.131   2.184 -0.3752  0.9219 -0.1346
    6CHTO  H167 2223   4.395   5.133   2.090  1.6338  0.9348 -0.0438
    6CHTO  C102 2224   4.223   4.949   2.135  0.0634  0.6009 -0.3079
    6CHTO  H189 2225   4.224   5.003   2.039 -0.2553 -0.0702 -0.6910
    6CHTO   N18 2226   4.086   4.971   2.187 -0.1571  0.5329 -0.0115
    6CHTO  H176 2227   4.082   4.994   2.293  0.8672 -0.2802  0.2076
    6CHTO  H177 2228   4.032   5.036   2.120 -0.3349  1.4430  1.0040
    6CHTO  C105 2229   4.243   4.801   2.089  0.0784 -0.4091 -0.0783
    6CHTO  H192 2230   4.148   4.749   2.076 -0.1658 -0.0351  0.2113
    6CHTO   O65 2231   4.330   4.723   2.175  0.2155  0.3217 -0.1312
    6CHTO  C100 2232   4.455   4.774   2.208 -1.4273 -0.3595 -0.3659
    6CHTO  H187 2233   4.455   4.743   2.314  0.6613  0.7802  0.0102
    6CHTO  C107 2234   4.558   4.677   2.128  0.8295  0.7613  0.8143
    6CHTO   O70 2235   4.695   4.720   2.147 -0.0518 -0.4631  0.3422
    6CHTO  H170 2236   4.754   4.666   2.097  0.2069  1.0573 -1.0369
    6CHTO   O57 2237   4.323   4.804   1.931  1.0320  0.0959 -0.3659
    6CHTO   C85 2238   4.236   4.822   1.818  1.2482  0.5166 -0.0068
    6CHTO  H157 2239   4.169   4.906   1.844  0.0063  0.2430 -2.1762
    6CHTO   C83 2240   4.136   4.705   1.803 -0.0384  1.0074  0.0686
    6CHTO  H155 2241   4.074   4.701   1.892  1.9412  0.3392  1.4419
    6CHTO   O56 2242   4.218   4.586   1.814 -0.4708  0.0029  0.3721
    6CHTO  H135 2243   4.280   4.583   1.744  0.7344  0.7638  1.3796
    6CHTO   C81 2244   4.055   4.709   1.670 -0.3548  0.0788  0.5076
    6CHTO  H153 2245   3.992   4.797   1.670  0.2353  0.5070  1.0049
    6CHTO   N14 2246   3.966   4.597   1.662  0.3053 -0.4386  0.3447
    6CHTO  H141 2247   3.996   4.542   1.575  2.3911 -0.0759  0.8066
    6CHTO  H142 2248   3.866   4.635   1.655 -0.2886 -2.1387 -0.7397
    6CHTO   C79 2249   4.151   4.720   1.550  0.2256  0.6747  0.2008
    6CHTO  H151 2250   4.091   4.732   1.459  0.8383  2.6281  0.0377
    6CHTO   O52 2251   4.227   4.837   1.551  0.4487  0.5800 -0.5128
    6CHTO   C86 2252   4.316   4.840   1.674  0.9126  0.0370 -0.2620
    6CHTO  H158 2253   4.381   4.750   1.664 -0.8472 -1.1875 -1.0860
    6CHTO   C90 2254   4.407   4.967   1.673 -0.0130  1.0451 -0.1519
    6CHTO   O60 2255   4.516   4.959   1.572 -0.1402  0.3227 -0.0542
    6CHTO  H138 2256   4.546   5.047   1.559 -2.0601  0.9199 -0.6150
    6CHTO   O50 2257   4.246   4.611   1.529 -0.1172 -0.1296 -0.0878
    6CHTO   C73 2258   4.304   4.491   1.472 -0.0655 -0.6343 -0.4297
    6CHTO  H145 2259   4.228   4.424   1.428  0.2091 -2.5990  1.9341
    6CHTO   C74 2260   4.383   4.396   1.573  0.5867 -0.4411 -0.7194
    6CHTO  H146 2261   4.311   4.378   1.653  1.5609 -1.3977 -0.0348
    6CHTO   O54 2262   4.406   4.273   1.504 -0.6214  0.6336  0.0884
    6CHTO  H133 2263   4.377   4.198   1.552  0.6709 -0.6938 -1.1583
    6CHTO   C75 2264   4.509   4.473   1.625 -0.0499 -0.2509 -0.2464
    6CHTO  H147 2265   4.473   4.560   1.680 -0.7536  0.6080 -2.0359
    6CHTO   N13 2266   4.594   4.411   1.735 -0.2688 -0.1775  0.4534
    6CHTO  H139 2267   4.577   4.305   1.734  1.1993 -0.4266  1.1131
    6CHTO  H140 2268   4.696   4.416   1.699 -0.0821 -2.1883  0.6544
    6CHTO   C76 2269   4.598   4.526   1.510 -0.3302 -0.4135  0.5005
    6CHTO  H148 2270   4.627   4.439   1.452  1.5847  1.8256 -2.0238
    6CHTO   O49 2271   4.513   4.611   1.421 -0.1035 -0.3482 -0.3242
    6CHTO   C77 2272   4.397   4.542   1.368  0.3271 -0.2001 -0.3239
    6CHTO  H149 2273   4.435   4.455   1.314 -0.7885 -1.0808  0.2884
    6CHTO   C88 2274   4.340   4.636   1.253 -0.1251  0.2161  0.3459
    6CHTO   O58 2275   4.196   4.588   1.213  0.0168  0.1972  0.6227
    6CHTO  H136 2276   4.126   4.626   1.262 -1.4915 -0.3778 -1.0545
    6CHTO   O51 2277   4.741   4.618   1.553  0.1070  0.9908 -0.1420
    6CHTO   C78 2278   4.849   4.623   1.460 -0.2342 -0.3943  0.2735
    6CHTO  H150 2279   4.913   4.708   1.492 -2.1227  1.5355 -0.9543
    6CHTO   C80 2280   4.797   4.661   1.317  0.6351  0.6279 -0.5766
    6CHTO  H152 2281   4.730   4.580   1.280  0.1555  1.3667 -1.3359
    6CHTO   O55 2282   4.715   4.776   1.326  0.2721 -0.4277 -0.5948
    6CHTO  H134 2283   4.650   4.785   1.259  1.0411 -0.3536 -1.3382
    6CHTO   C84 2284   4.917   4.677   1.215  0.3800 -0.0026 -0.1232
    6CHTO  H156 2285   4.953   4.778   1.236 -0.2044  0.2599 -0.3688
    6CHTO   N15 2286   4.873   4.693   1.072  0.0278  0.0667 -0.0612
    6CHTO  H143 2287   4.936   4.759   1.016  1.0857  0.7415  1.8719
    6CHTO  H144 2288   4.876   4.597   1.024 -2.0001  0.4959 -1.0859
    6CHTO   C87 2289   5.032   4.573   1.226  1.1940  0.6159  0.3998
    6CHTO  H159 2290   5.004   4.491   1.159  2.1578 -2.2969  3.3965
    6CHTO   O53 2291   5.048   4.508   1.387 -0.3042 -0.3818  0.0325
    6CHTO   C82 2292   4.924   4.487   1.459  0.2361 -0.7374 -0.7887
    6CHTO  H154 2293   4.857   4.414   1.414  1.6239 -2.7886  0.3965
    6CHTO   C89 2294   4.954   4.433   1.601  0.5861 -0.5434 -0.4161
    6CHTO   O59 2295   5.043   4.323   1.599 -1.0034 -0.7383 -0.1626
    6CHTO  H137 2296   5.033   4.254   1.661  0.1777 -0.3129  0.5189
    6CHTO   O45 2297   5.163   4.640   1.181 -0.1610  0.0999  0.5530
    6CHTO   C67 2298   5.272   4.623   1.272  0.8990  0.2682  0.3635
    6CHTO  H124 2299   5.274   4.525   1.319 -0.8273  1.2611  2.5953
    6CHTO   C65 2300   5.405   4.645   1.199  0.6322 -0.2198  0.7362
    6CHTO  H122 2301   5.403   4.591   1.104  2.4226  1.5108 -0.3092
    6CHTO   O44 2302   5.502   4.596   1.297 -0.3640 -0.0878 -0.2592
    6CHTO  H102 2303   5.464   4.572   1.379 -0.6156  1.6177  0.1345
    6CHTO   C63 2304   5.420   4.796   1.148 -1.1137 -0.3188  0.0942
    6CHTO  H120 2305   5.347   4.813   1.069 -1.9949  0.0589  0.9670
    6CHTO   N11 2306   5.536   4.815   1.063 -0.1069  0.0961  0.1970
    6CHTO  H108 2307   5.539   4.728   1.000 -0.2207  1.2609 -1.4673
    6CHTO  H109 2308   5.539   4.906   1.007  5.2288 -0.1504 -0.1741
    6CHTO   C61 2309   5.406   4.906   1.262  0.0079  0.7500 -1.0295
    6CHTO  H118 2310   5.384   5.006   1.222  0.5259  0.7109 -1.4140
    6CHTO   O40 2311   5.294   4.874   1.361 -0.2463  0.0158  0.0225
    6CHTO   C68 2312   5.257   4.740   1.387 -0.0817  0.9392 -0.1617
    6CHTO  H125 2313   5.148   4.742   1.407 -0.3080 -1.3988 -0.9638
    6CHTO   C72 2314   5.322   4.697   1.524 -0.4099 -0.0029  0.3157
    6CHTO   O48 2315   5.281   4.758   1.641  0.0334 -0.7551  0.2260
    6CHTO  H105 2316   5.197   4.794   1.619  0.0237 -0.0752  1.3182
    6CHTO   O38 2317   5.529   4.932   1.339  0.4482  0.0423 -0.2679
    6CHTO   C55 2318   5.535   5.065   1.394 -0.3775 -0.1915  0.1729
    6CHTO  H112 2319   5.439   5.114   1.417 -0.5509  0.3354 -1.6314
    6CHTO   C56 2320   5.623   5.154   1.297  0.3896  0.0607  0.5021
    6CHTO  H113 2321   5.714   5.099   1.272 -0.3909 -1.6630  1.3788
    6CHTO   O42 2322   5.550   5.176   1.174  0.0831  0.0330  0.0283
    6CHTO  H100 2323   5.614   5.163   1.106 -1.1210 -4.4147 -0.4195
    6CHTO   C57 2324   5.655   5.290   1.368  0.1628 -0.3410 -0.0282
    6CHTO  H114 2325   5.574   5.364   1.372  2.0894  1.8249  0.2210
    6CHTO   N10 2326   5.756   5.364   1.287  0.4684 -0.0441  0.4023
    6CHTO  H106 2327   5.780   5.461   1.328  0.3771  0.6209 -1.0626
    6CHTO  H107 2328   5.714   5.378   1.188 -0.8195 -1.7358  0.7012
    6CHTO   C58 2329   5.707   5.267   1.514 -0.5643  0.7664 -0.3205
    6CHTO  H115 2330   5.802   5.211   1.506 -2.0557 -1.3753 -4.7621
    6CHTO   O37 2331   5.616   5.187   1.584 -0.3759 -0.3302 -0.2043
    6CHTO   C59 2332   5.600   5.052   1.536  0.5170 -0.2838  0.3802
    6CHTO  H116 2333   5.696   5.001   1.526  1.0851  0.0317  3.7535
    6CHTO   C70 2334   5.518   4.974   1.642 -0.6071  0.3576  0.0231
    6CHTO   O46 2335   5.600   4.977   1.761  0.0200  0.5305  0.4674
    6CHTO  H103 2336   5.548   4.953   1.835  0.2182  0.9606  0.7550
    6CHTO   O39 2337   5.722   5.395   1.609 -0.1295  0.3556 -0.2729
    6CHTO   C60 2338   5.817   5.393   1.723 -0.5218  0.1729 -0.1100
    6CHTO  H117 2339   5.813   5.300   1.779 -0.8930  0.8334  1.0025
    6CHTO   C62 2340   5.963   5.415   1.674 -0.2026  0.5415  0.2308
    6CHTO  H119 2341   5.993   5.325   1.615 -2.5414  0.9461 -1.6619
    6CHTO   O43 2342   5.957   5.532   1.583 -0.2379  0.2552  0.2326
    6CHTO  H101 2343   6.017   5.526   1.511 -1.4061 -0.6936 -0.6987
    6CHTO   C66 2344   6.068   5.436   1.796 -0.5524  0.0916 -0.4173
    6CHTO  H123 2345   6.059   5.352   1.864  0.1202  0.5637  0.2540
    6CHTO   N12 2346   6.205   5.453   1.750 -0.1276 -0.2116  0.0132
    6CHTO  H110 2347   6.263   5.366   1.776 -2.1965 -1.4493  0.6501
    6CHTO  H111 2348   6.208   5.474   1.644 -1.5854  0.5569  0.1142
    6CHTO   C69 2349   6.015   5.557   1.877 -0.4032 -0.4627  0.7354
    6CHTO  H126 2350   6.019   5.650   1.816  1.2984 -1.2079 -0.3220
    6CHTO   O41 2351   5.887   5.512   1.933  0.1098 -0.5964 -0.9232
    6CHTO   C64 2352   5.782   5.502   1.825  0.6729 -0.2893  0.7298
    6CHTO  H121 2353   5.751   5.596   1.774 -1.5626 -1.1713  0.4490
    6CHTO   C71 2354   5.649   5.459   1.888  0.2834 -0.1575 -0.3033
    6CHTO   O47 2355   5.598   5.552   1.985  0.0575 -0.2162  0.4623
    6CHTO  H104 2356   5.623   5.534   2.074  1.7219 -0.2139  0.0065
    6CHTO   O34 2357   6.113   5.593   2.015  0.2146 -0.3765 -0.0993
    6CHTO   C49 2358   6.222   5.608   2.110 -0.0054  0.0397 -0.3586
    6CHTO   H91 2359   6.182   5.583   2.208 -0.3317  0.7866 -0.2976
    6CHTO   C47 2360   6.267   5.756   2.117 -0.6486 -0.2570 -0.3893
    6CHTO   H89 2361   6.334   5.772   2.204 -2.0789 -0.0974  0.6938
    6CHTO   O33 2362   6.153   5.832   2.140  0.8064  0.1454  0.1432
    6CHTO   H70 2363   6.096   5.797   2.206 -0.3683  1.8740  0.0683
    6CHTO   C45 2364   6.352   5.789   1.979 -0.4288 -0.2226  0.8247
    6CHTO   H87 2365   6.287   5.769   1.893  2.1828  0.7903 -1.4425
    6CHTO    N8 2366   6.377   5.935   1.980 -0.3264  0.3276 -0.3930
    6CHTO   H75 2367   6.412   5.971   2.076  0.5649 -0.7642 -0.3030
    6CHTO   H76 2368   6.449   5.951   1.901 -0.8630 -0.7405 -1.1046
    6CHTO   C43 2369   6.473   5.684   1.974  0.2123 -0.3355  0.5190
    6CHTO   H85 2370   6.513   5.700   1.874 -0.5579 -0.5902  0.1684
    6CHTO   O29 2371   6.438   5.549   1.992 -0.0334 -0.6833  0.7373
    6CHTO   C50 2372   6.343   5.514   2.089 -0.2968 -0.4437 -0.3652
    6CHTO   H92 2373   6.302   5.415   2.065  2.9044 -1.8073 -0.3570
    6CHTO   C54 2374   6.420   5.493   2.232  0.1071  0.4289  0.2913
    6CHTO   O36 2375   6.343   5.437   2.337 -0.0514  0.1450  0.6013
    6CHTO   H72 2376   6.284   5.504   2.367  1.3599  2.2164 -1.0587
    6CHTO   O27 2377   6.563   5.719   2.074  0.1494  0.8815 -0.0037
    6CHTO   C37 2378   6.708   5.686   2.078  0.7144 -0.3022 -0.4135
    6CHTO   H79 2379   6.735   5.580   2.067  2.1290 -0.1758  1.7191
    6CHTO   C38 2380   6.801   5.762   1.971  0.4155  0.2559 -0.2075
    6CHTO   H80 2381   6.769   5.867   1.958  2.3888  1.1085  1.5527
    6CHTO   O31 2382   6.774   5.708   1.838  0.5122  0.3150  0.1943
    6CHTO   H68 2383   6.793   5.616   1.842 -1.8052 -0.2107 -0.0447
    6CHTO   C39 2384   6.954   5.746   2.001  0.0929  0.5195 -0.2084
    6CHTO   H81 2385   6.975   5.647   1.962 -0.5747  0.6970 -1.0357
    6CHTO    N7 2386   7.034   5.846   1.921 -0.0133  0.8650 -0.6315
    6CHTO   H73 2387   7.140   5.840   1.939  0.2774  0.7702 -2.3061
    6CHTO   H74 2388   7.009   5.835   1.817 -2.8852 -0.7558  0.1971
    6CHTO   C40 2389   6.993   5.758   2.154 -0.1706  0.5009  1.4232
    6CHTO   H82 2390   6.987   5.863   2.180 -1.0432  0.1566  2.6481
    6CHTO   O26 2391   6.903   5.683   2.238 -0.8698  0.1599 -0.2588
    6CHTO   C41 2392   6.765   5.734   2.220 -0.6920 -0.5481 -0.9029
    6CHTO   H83 2393   6.765   5.844   2.218  1.2190 -0.4344  2.3728
    6CHTO   C52 2394   6.683   5.692   2.358  0.0522  0.5535  0.0446
    6CHTO   O35 2395   6.589   5.746   2.398 -0.3398  0.1950  0.1398
    6CHTO   H71 2396   6.556   5.705   2.475  0.0992 -0.1569  0.1373
    6CHTO   O28 2397   7.129   5.717   2.180  0.1791  0.3628 -0.3840
    6CHTO   C42 2398   7.191   5.738   2.310  0.3943 -0.5044  0.4564
    6CHTO   H84 2399   7.287   5.687   2.301  0.4333 -0.3756  0.1377
    6CHTO   C44 2400   7.133   5.667   2.440  0.3817 -0.4068  0.5438
    6CHTO   H86 2401   7.034   5.708   2.456 -0.0763  0.0963 -3.0665
    6CHTO   O32 2402   7.114   5.531   2.403  0.1560  0.1950 -0.2763
    6CHTO   H69 2403   7.054   5.491   2.463  1.0320 -0.7949 -0.0473
    6CHTO   C48 2404   7.223   5.679   2.565  0.4514  0.1723  0.3100
    6CHTO   H90 2405   7.320   5.638   2.535  0.4884  0.5121 -0.0435
    6CHTO    N9 2406   7.181   5.596   2.676  0.3599 -0.4393 -0.6189
    6CHTO   H77 2407   7.124   5.645   2.754  1.3409 -1.1337  0.5355
    6CHTO   H78 2408   7.113   5.525   2.631 -2.3302 -0.0635  2.6659
    6CHTO   C51 2409   7.241   5.831   2.602 -0.4840 -0.8177  0.5560
    6CHTO   H93 2410   7.143   5.874   2.625 -0.7479 -0.5425 -1.0548
    6CHTO   O30 2411   7.307   5.894   2.488 -0.6549  0.3331  0.4039
    6CHTO   C46 2412   7.213   5.889   2.352  0.0919 -0.0353  0.4051
    6CHTO   H88 2413   7.119   5.935   2.380  0.1140 -0.9887  2.1083
    6CHTO   C53 2414   7.293   5.961   2.244 -0.7250  0.9069 -0.6311
    6CHTO   O72 2415   7.422   5.911   2.208  0.0602  0.3191  0.0762
    6CHTO  H199 2416   7.416   5.819   2.228 -1.9376 -0.0459 -1.9715
    6CHTO   O22 2417   7.333   5.860   2.713  0.1391  0.4086  0.1327
    6CHTO   C31 2418   7.290   5.895   2.854  0.5294  0.8386  0.7092
    6CHTO   H59 2419   7.202   5.830   2.874  0.5499  0.6631  0.2236
    6CHTO   C29 2420   7.393   5.858   2.962  0.8654 -0.4359 -0.0181
    6CHTO   H57 2421   7.484   5.917   2.944 -1.3010  2.0122 -3.7111
    6CHTO   O21 2422   7.427   5.722   2.939 -0.6157  0.1669  0.1256
    6CHTO   H37 2423   7.393   5.660   3.001  0.8156 -2.5079 -1.6774
    6CHTO   C27 2424   7.341   5.888   3.112  0.0418 -0.0957 -0.1583
    6CHTO   H55 2425   7.265   5.813   3.136  1.4665 -1.2779  0.7669
    6CHTO    N5 2426   7.445   5.888   3.219 -0.3285  0.4039 -0.2549
    6CHTO   H43 2427   7.495   5.984   3.216  0.6207 -0.0505  0.6031
    6CHTO   H44 2428   7.391   5.857   3.307 -1.5400  1.3293 -0.6556
    6CHTO   C25 2429   7.270   6.024   3.129  0.2208  0.0687 -0.5470
    6CHTO   H53 2430   7.344   6.104   3.120 -1.9066  1.8909 -2.4674
    6CHTO   O17 2431   7.183   6.042   3.015 -0.3851 -0.5342 -0.4441
    6CHTO   C32 2432   7.243   6.041   2.890 -0.0432  0.0719  0.1213
    6CHTO   H60 2433   7.328   6.109   2.884 -1.8089  2.1564 -3.8137
    6CHTO   C36 2434   7.132   6.091   2.799  0.3170 -0.5989  0.5123
    6CHTO   O25 2435   7.112   6.236   2.797 -0.6558  0.3399  0.1455
    6CHTO   H40 2436   7.083   6.255   2.885  2.9628  0.8646  1.3286
    6CHTO   O15 2437   7.201   6.045   3.268  0.7999 -0.1847  0.2289
    6CHTO   C19 2438   7.107   6.141   3.329 -0.5659  0.6732  0.0757
    6CHTO   H47 2439   7.073   6.086   3.418 -0.5107  0.3530 -0.1021
    6CHTO   C20 2440   7.174   6.272   3.389 -0.0006  0.4287 -0.5076
    6CHTO   H48 2441   7.239   6.320   3.315 -0.2626 -0.5747 -1.4112
    6CHTO   O19 2442   7.261   6.221   3.496 -0.4178  0.1826  0.1865
    6CHTO   H35 2443   7.354   6.218   3.484 -0.5945 -0.6496 -1.1530
    6CHTO   C21 2444   7.069   6.375   3.452 -0.0781 -0.2587 -0.0383
    6CHTO   H49 2445   7.022   6.329   3.539 -1.4054 -0.5126 -0.8819
    6CHTO    N4 2446   7.121   6.512   3.489  0.6324  0.0875  0.5320
    6CHTO   H41 2447   7.222   6.521   3.451 -0.0362  0.5546 -1.2307
    6CHTO   H42 2448   7.113   6.526   3.596  0.1778  1.1900  0.3630
    6CHTO   C22 2449   6.949   6.389   3.348 -0.2536 -0.8472 -0.5060
    6CHTO   H50 2450   6.984   6.440   3.258  0.2625 -0.7758 -0.2689
    6CHTO   O14 2451   6.890   6.267   3.314  0.0288 -0.3562 -0.0732
    6CHTO   C23 2452   6.979   6.178   3.243 -0.6648  0.7053 -0.4091
    6CHTO   H51 2453   7.004   6.221   3.145 -0.5528  1.7469  0.0744
    6CHTO   C34 2454   6.909   6.045   3.217  0.3389 -0.3842 -0.4770
    6CHTO   O23 2455   6.801   6.048   3.123 -0.4605 -0.0929 -0.3995
    6CHTO   H38 2456   6.780   5.957   3.113 -0.5342 -0.3692  2.0161
    6CHTO   O16 2457   6.842   6.454   3.408  0.8376 -0.3867  0.4069
    6CHTO   C24 2458   6.728   6.505   3.308  0.0783 -0.3883  0.1955
    6CHTO   H52 2459   6.749   6.476   3.205 -0.4078 -2.4868  0.6791
    6CHTO   C26 2460   6.731   6.661   3.323  0.1688 -0.5170  0.3794
    6CHTO   H54 2461   6.709   6.682   3.430 -1.0304 -0.5695  0.1437
    6CHTO   O20 2462   6.856   6.717   3.282 -0.1890 -0.4374  0.2449
    6CHTO   H36 2463   6.927   6.670   3.321  1.3348  2.9642  1.6704
    6CHTO   C30 2464   6.615   6.732   3.244 -0.2272  0.0237  0.1638
    6CHTO   H58 2465   6.651   6.732   3.140 -2.7717 -2.1474 -0.7830
    6CHTO    N6 2466   6.608   6.881   3.281 -0.6192  0.1822 -0.0811
    6CHTO   H45 2467   6.635   6.897   3.385  1.0608  0.3638 -0.5248
    6CHTO   H46 2468   6.507   6.913   3.259 -1.0937 -1.6668 -0.6793
    6CHTO   C33 2469   6.477   6.658   3.259  0.4474 -0.0860 -0.5854
    6CHTO   H61 2470   6.437   6.675   3.360  1.9573 -0.5039  0.1120
    6CHTO   O18 2471   6.496   6.520   3.237  0.8461 -0.0746 -0.7946
    6CHTO   C28 2472   6.580   6.459   3.342 -0.1790  0.3008 -0.5419
    6CHTO   H56 2473   6.554   6.482   3.445  0.4223  2.1143 -0.7889
    6CHTO   C35 2474   6.577   6.308   3.329  0.3312 -0.4291  0.3593
    6CHTO   O24 2475   6.630   6.264   3.208  0.0792 -0.4846  0.1111
    6CHTO   H39 2476   6.584   6.290   3.130 -1.0372  1.4958  1.3724
    6CHTO    O9 2477   6.374   6.710   3.176  0.2209 -0.1075 -0.4505
    6CHTO   C13 2478   6.235   6.628   3.199  0.2074 -0.3750 -0.3905
    6CHTO   H26 2479   6.243   6.557   3.284 -1.4215  0.5583  0.5680
    6CHTO   C11 2480   6.187   6.560   3.066 -0.1207 -0.1353  0.5235
    6CHTO   H24 2481   6.269   6.499   3.026  0.6438  2.3536 -1.8967
    6CHTO    O8 2482   6.148   6.658   2.970 -0.3109  0.3247  0.3996
    6CHTO    H3 2483   6.224   6.681   2.919  0.6594  0.4200  1.8542
    6CHTO    C9 2484   6.069   6.470   3.102  0.2178  0.3759 -0.1595
    6CHTO   H22 2485   6.106   6.410   3.186  1.0494  2.4118  0.9876
    6CHTO    N2 2486   6.034   6.371   2.999  0.3013 -0.1309 -0.2053
    6CHTO   H10 2487   5.997   6.279   3.043 -0.3301 -0.7371 -1.9699
    6CHTO   H11 2488   5.955   6.421   2.944 -1.1475  1.1819  2.9277
    6CHTO    C7 2489   5.943   6.560   3.152 -0.1568 -0.0120  0.1840
    6CHTO   H20 2490   5.901   6.499   3.236 -1.6178  0.6711 -0.0222
    6CHTO    O4 2491   5.981   6.689   3.199 -0.0078 -1.0265 -0.1736
    6CHTO   C14 2492   6.117   6.723   3.249  0.1247  0.0516  0.0974
    6CHTO   H27 2493   6.111   6.713   3.359  0.0396  0.4935  0.1359
    6CHTO   C18 2494   6.151   6.871   3.222  0.1561  0.7265 -0.6470
    6CHTO   O13 2495   6.143   6.914   3.080  0.1427 -0.4659  0.0918
    6CHTO    H7 2496   6.123   7.005   3.077  0.0694 -0.5418 -1.8543
    6CHTO    O2 2497   5.809   6.579   3.060  0.0159  0.3133 -0.1695
    6CHTO    C1 2498   5.704   6.654   3.115 -0.2303 -0.3348  0.3873
    6CHTO   H14 2499   5.747   6.750   3.151 -0.9606 -0.3424  1.3162
    6CHTO    C2 2500   5.616   6.588   3.234 -0.5263 -0.2457 -0.3537
    6CHTO   H15 2501   5.592   6.484   3.207  0.6177 -0.5629 -0.1508
    6CHTO    O6 2502   5.701   6.583   3.348 -0.5037 -0.3424 -0.6323
    6CHTO    H1 2503   5.765   6.515   3.349  0.6901  0.7385 -1.8720
    6CHTO    C3 2504   5.485   6.672   3.274 -0.3169 -0.5426  0.3175
    6CHTO   H16 2505   5.508   6.757   3.339  0.7788  0.3087 -1.1529
    6CHTO    N1 2506   5.387   6.589   3.356  0.0771  0.0617  0.1468
    6CHTO    H8 2507   5.293   6.643   3.362  1.8624  3.3799 -0.3253
    6CHTO    H9 2508   5.426   6.566   3.454  0.6231 -1.9760 -0.5252
    6CHTO    C4 2509   5.417   6.734   3.138 -0.0851 -0.5718  0.4321
    6CHTO   H17 2510   5.365   6.653   3.086  0.9018 -0.7838 -0.2480
    6CHTO    O1 2511   5.515   6.794   3.046  0.1610  0.2874 -0.4590
    6CHTO    C5 2512   5.613   6.704   3.003 -0.1337 -1.0907 -0.5933
    6CHTO   H18 2513   5.575   6.615   2.954  0.1913 -0.5596 -1.8255
    6CHTO   C16 2514   5.696   6.780   2.897 -0.1612  0.5098 -0.1376
    6CHTO   O11 2515   5.613   6.846   2.808  0.1696  0.2806  0.3184
    6CHTO    H5 2516   5.637   6.936   2.798  0.2555  0.2621  0.3594
    6CHTO    O3 2517   5.323   6.835   3.175  0.3217  0.6936  0.2666
    6CHTO    C6 2518   5.206   6.860   3.089 -0.0006  0.0230 -0.0743
    6CHTO   H19 2519   5.146   6.931   3.146 -1.9526 -0.0430 -1.9789
    6CHTO    C8 2520   5.239   6.913   2.944 -0.5042  0.5000  0.1524
    6CHTO   H21 2521   5.281   6.830   2.886  0.7034  0.8044  0.5780
    6CHTO    O7 2522   5.339   7.016   2.970  0.1518 -0.1538  0.6901
    6CHTO    H2 2523   5.388   7.020   2.890 -1.4433  1.1998 -0.2387
    6CHTO   C12 2524   5.107   6.962   2.876  0.4660  0.4601  0.4339
    6CHTO   H25 2525   5.052   7.034   2.940 -1.4562  1.4918 -2.2984
    6CHTO    N3 2526   5.139   7.034   2.748 -0.7483 -0.0340 -0.0739
    6CHTO   H12 2527   5.240   7.012   2.717  1.1087  3.6772  3.0143
    6CHTO   H13 2528   5.128   7.139   2.768 -0.1872  0.4966 -2.4859
    6CHTO   C15 2529   5.024   6.832   2.861  0.0932 -0.1942  1.1951
    6CHTO   H28 2530   5.065   6.762   2.788 -1.4087 -2.4071  2.3838
    6CHTO   O10 2531   4.856   6.869   2.824  0.0479  0.1231 -0.4572
    6CHTO    H4 2532   4.842   6.919   2.746  1.7083  0.1801 -0.7242
    6CHTO    O5 2533   5.000   6.777   2.992  0.1030  0.2138 -0.3730
    6CHTO   C10 2534   5.115   6.734   3.070 -0.1892  0.3051  0.1550
    6CHTO   H23 2535   5.180   6.664   3.017  0.7949  1.8250 -0.6580
    6CHTO   C17 2536   5.056   6.668   3.197  0.7449  0.3000 -0.2695
    6CHTO   O12 2537   4.991   6.762   3.287 -0.4215  0.5852  0.3280
    6CHTO    H6 2538   5.061   6.804   3.333 -1.1811  3.7327 -1.2213
    7CHTO  H203 2539   4.665   1.788   0.260  0.6493  1.2574  1.2001
    7CHTO   O82 2540   4.595   1.845   0.235  0.1504  0.3848  0.5899
    7CHTO  C123 2541   4.657   1.973   0.204  0.2953 -0.3422 -0.0783
    7CHTO  H227 2542   4.582   2.050   0.227  0.1653 -0.5257  0.1131
    7CHTO   O77 2543   4.765   1.990   0.298 -0.0783 -0.0098 -0.1125
    7CHTO  C118 2544   4.832   2.113   0.284 -0.2794 -0.3799 -0.2856
    7CHTO  H222 2545   4.773   2.206   0.279  2.0569  1.1229 -1.0114
    7CHTO  C125 2546   4.922   2.118   0.416  0.0961  0.0313 -0.6422
    7CHTO   O84 2547   5.033   2.032   0.412  0.1588  0.5385  0.4843
    7CHTO  H205 2548   5.065   2.006   0.497 -1.8582  1.5155  1.5799
    7CHTO  C114 2549   4.905   2.108   0.148 -0.0467 -0.0235  0.7517
    7CHTO  H218 2550   4.984   2.033   0.161  0.0804  0.4585  3.0599
    7CHTO  C116 2551   4.807   2.092   0.027 -0.8196  0.1989  0.4148
    7CHTO  H220 2552   4.749   2.185   0.013 -2.2188 -0.7189  0.0297
    7CHTO   O79 2553   4.901   2.054  -0.080  0.0057 -0.1778 -0.7112
    7CHTO  H201 2554   4.882   2.101  -0.158  2.1873 -0.0208 -1.1772
    7CHTO  C120 2555   4.702   1.977   0.049 -0.0819  0.5423 -0.2560
    7CHTO  H224 2556   4.751   1.880   0.028 -0.9880  0.1233 -0.4432
    7CHTO   N21 2557   4.579   1.993  -0.039 -0.2392  0.2498 -0.3791
    7CHTO  H211 2558   4.499   1.936   0.005  2.1520 -2.6306  0.4102
    7CHTO  H212 2559   4.593   1.985  -0.146  0.2934 -1.2073 -0.2009
    7CHTO   O75 2560   4.975   2.236   0.137  0.0936  0.0781  0.6362
    7CHTO  C112 2561   5.128   2.218   0.106  0.1717  0.0152  0.3890
    7CHTO  H216 2562   5.145   2.121   0.058  1.5336 -0.7931  2.4110
    7CHTO   O73 2563   5.196   2.221   0.233 -0.0252  0.0061  0.0890
    7CHTO  C113 2564   5.338   2.225   0.216 -0.1664  0.2021  0.1584
    7CHTO  H217 2565   5.362   2.146   0.141  0.0910  1.4260 -1.0723
    7CHTO  C124 2566   5.400   2.203   0.352 -0.4091 -0.3497  0.0302
    7CHTO   O83 2567   5.349   2.101   0.429  0.2834  0.4057 -0.0319
    7CHTO  H204 2568   5.396   2.086   0.509 -1.2258  0.3249  0.8757
    7CHTO  C109 2569   5.370   2.364   0.152  0.3006  0.0433  0.6534
    7CHTO  H213 2570   5.317   2.440   0.211  0.8221  2.3121 -1.6925
    7CHTO  C110 2571   5.319   2.354   0.005  0.0787  0.1796  0.8655
    7CHTO  H214 2572   5.358   2.263  -0.040 -2.3248 -0.0985 -0.7490
    7CHTO   O78 2573   5.368   2.469  -0.070  0.1193 -0.0079 -0.4015
    7CHTO  H200 2574   5.459   2.464  -0.091  0.4688 -0.7309  1.1401
    7CHTO  C111 2575   5.171   2.335   0.011 -0.2393 -0.1490 -0.7477
    7CHTO  H215 2576   5.126   2.423   0.059  1.9718 -0.0260  1.1870
    7CHTO   N19 2577   5.101   2.312  -0.119  0.5438  0.5765  0.2209
    7CHTO  H207 2578   4.994   2.322  -0.113  0.3960 -0.6992 -0.3006
    7CHTO  H208 2579   5.147   2.358  -0.206  0.5380 -0.6260 -0.4169
    7CHTO   O74 2580   5.508   2.387   0.159 -0.1570  0.4014  0.4358
    7CHTO  C115 2581   5.552   2.550   0.176 -1.1516  0.3644  0.1587
    7CHTO  H219 2582   5.498   2.618   0.110  0.6704  2.3639  0.6802
    7CHTO   O76 2583   5.530   2.605   0.331 -0.1412 -0.0212  0.3798
    7CHTO  C122 2584   5.628   2.545   0.416  0.3796 -0.1834 -0.4562
    7CHTO  H226 2585   5.613   2.437   0.412  0.4991 -0.2313  0.2592
    7CHTO  C126 2586   5.596   2.589   0.567  0.8505 -0.0214 -0.5508
    7CHTO   O85 2587   5.595   2.731   0.579  0.1761 -0.6747 -0.6454
    7CHTO  H206 2588   5.662   2.770   0.526  0.4404 -2.5307 -1.7350
    7CHTO  C121 2589   5.776   2.573   0.378  0.1021 -0.0013 -0.0437
    7CHTO  H225 2590   5.798   2.681   0.367 -1.2460  0.5145  1.9665
    7CHTO   O81 2591   5.861   2.515   0.479 -0.3451  0.0490 -0.1653
    7CHTO  H202 2592   5.826   2.434   0.512 -0.0278 -0.2860 -0.6373
    7CHTO  C119 2593   5.790   2.500   0.241 -0.5851  0.7345 -0.4035
    7CHTO  H223 2594   5.894   2.516   0.212 -0.7820 -0.7245 -2.0143
    7CHTO  C117 2595   5.701   2.563   0.133  0.3332 -0.0826 -0.6180
    7CHTO  H221 2596   5.688   2.516   0.036  0.7619 -0.4005 -0.5257
    7CHTO   N20 2597   5.743   2.705   0.100 -0.5306  0.3148  0.1618
    7CHTO  H209 2598   5.659   2.768   0.124 -0.0436  0.9808  0.1308
    7CHTO  H210 2599   5.777   2.708  -0.003  1.7635  1.6218  0.9422
    7CHTO   O80 2600   5.786   2.334   0.245  0.0122 -0.1555  0.0365
    7CHTO  C103 2601   5.874   2.240   0.148 -0.2458 -0.6164  1.0179
    7CHTO  H190 2602   5.832   2.248   0.048 -0.0105  0.6179  1.0135
    7CHTO  C101 2603   6.027   2.266   0.133 -0.7623  0.3475  0.0783
    7CHTO  H188 2604   6.063   2.280   0.234 -2.4940 -0.6266  0.8541
    7CHTO   O68 2605   6.043   2.407   0.054  0.5222 -0.3374  0.0727
    7CHTO  H168 2606   6.044   2.473   0.120  0.8864 -0.4188  0.1459
    7CHTO   C99 2607   6.093   2.139   0.056  0.2335  0.3771  0.5403
    7CHTO  H186 2608   6.047   2.121  -0.043 -0.0908 -0.7866  0.8967
    7CHTO   N17 2609   6.234   2.160   0.025  0.4768 -0.4988 -0.1794
    7CHTO  H174 2610   6.286   2.232   0.087  2.7851 -0.2570 -2.2570
    7CHTO  H175 2611   6.281   2.064   0.037  1.4433 -0.0277 -0.1018
    7CHTO   C97 2612   6.057   2.016   0.138 -0.0884  0.2065  0.3635
    7CHTO  H184 2613   6.094   2.039   0.239  0.8739  1.0375 -0.1762
    7CHTO   O64 2614   5.912   1.995   0.141  0.2338 -0.3580 -0.0558
    7CHTO  C104 2615   5.831   2.099   0.206 -0.4768  0.0774  0.9805
    7CHTO  H191 2616   5.846   2.103   0.314  0.5005 -0.7224  0.8795
    7CHTO  C108 2617   5.683   2.074   0.173  0.2531 -0.0877  0.3858
    7CHTO   O71 2618   5.661   2.050   0.037  0.1634 -0.4153  0.3062
    7CHTO  H171 2619   5.595   2.107   0.003 -0.4939 -1.8658 -0.9355
    7CHTO   O62 2620   6.108   1.894   0.083 -0.2867 -0.3532  0.7660
    7CHTO   C91 2621   6.127   1.776   0.172  0.4840 -0.6115  0.2467
    7CHTO  H178 2622   6.235   1.775   0.191  0.3237  0.7829  1.2458
    7CHTO   C92 2623   6.107   1.642   0.099  0.6243 -0.3941 -0.3211
    7CHTO  H179 2624   6.157   1.639   0.001 -0.9181  1.1376 -1.1970
    7CHTO   O66 2625   6.162   1.537   0.174  0.1552  0.1021 -0.0121
    7CHTO  H166 2626   6.179   1.477   0.104 -0.3851  1.1734 -1.0953
    7CHTO   C93 2627   5.949   1.621   0.082 -0.3772  0.0011 -0.1201
    7CHTO  H180 2628   5.923   1.517   0.058  2.5752 -0.6111 -0.8723
    7CHTO   N16 2629   5.887   1.692  -0.032  0.2710  0.2214  0.4037
    7CHTO  H172 2630   5.914   1.797  -0.026  0.1870  0.2562  0.1588
    7CHTO  H173 2631   5.919   1.655  -0.128 -0.1362  1.7960 -0.3643
    7CHTO   C94 2632   5.876   1.654   0.217  0.7868 -0.0680 -0.6084
    7CHTO  H181 2633   5.821   1.748   0.215  2.3733  0.9522  1.4025
    7CHTO   O61 2634   5.962   1.677   0.332 -0.6096  0.2893  0.0186
    7CHTO   C95 2635   6.056   1.783   0.315 -0.0822 -0.6120 -0.1608
    7CHTO  H182 2636   6.004   1.877   0.333 -1.7427 -1.4002 -0.8205
    7CHTO  C106 2637   6.167   1.772   0.428  0.4126 -0.1540  0.0348
    7CHTO   O69 2638   6.112   1.781   0.560 -0.1920  0.0638 -0.2894
    7CHTO  H169 2639   6.032   1.829   0.567  0.2202  0.5589  1.3236
    7CHTO   O63 2640   5.776   1.538   0.262 -0.1957  0.3667  0.3112
    7CHTO   C96 2641   5.780   1.476   0.411 -0.1988 -0.1112 -0.3252
    7CHTO  H183 2642   5.774   1.568   0.470  2.1100  0.5314 -1.0207
    7CHTO   C98 2643   5.913   1.394   0.442  0.0818  0.0682 -0.0069
    7CHTO  H185 2644   6.005   1.454   0.433 -0.2009  0.1397 -2.7570
    7CHTO   O67 2645   5.909   1.344   0.578 -0.2424 -0.1505 -0.1774
    7CHTO  H167 2646   5.883   1.416   0.631 -0.6239 -1.2403  1.1355
    7CHTO  C102 2647   5.923   1.263   0.343 -0.8298  0.4242  0.0350
    7CHTO  H189 2648   6.000   1.198   0.387 -1.4125 -0.6431 -0.5222
    7CHTO   N18 2649   5.978   1.293   0.208  0.2076  0.4491  0.0330
    7CHTO  H176 2650   6.062   1.361   0.214  0.5988 -0.0863  0.6424
    7CHTO  H177 2651   5.901   1.344   0.153  0.4305 -0.3828 -1.0595
    7CHTO  C105 2652   5.784   1.201   0.332 -0.1699  0.5262  0.2935
    7CHTO  H192 2653   5.740   1.225   0.235 -1.7668  3.1041  1.6213
    7CHTO   O65 2654   5.687   1.242   0.437 -0.1382  0.3764 -0.4499
    7CHTO  C100 2655   5.656   1.385   0.435  0.4437 -1.1550  0.6020
    7CHTO  H187 2656   5.595   1.398   0.345  1.0196  0.9999  0.5029
    7CHTO  C107 2657   5.559   1.415   0.551  0.3696  0.6330 -0.3827
    7CHTO   O70 2658   5.527   1.555   0.546 -0.1283 -0.3211  0.3691
    7CHTO  H170 2659   5.478   1.576   0.468  2.0130 -0.4250 -1.0366
    7CHTO   O57 2660   5.817   1.058   0.348  0.5690  0.3943  0.3988
    7CHTO   C85 2661   5.752   0.956   0.270  0.3523 -0.3450 -0.2903
    7CHTO  H157 2662   5.740   0.996   0.167  2.1558  0.8848 -0.0404
    7CHTO   C83 2663   5.601   0.922   0.304 -0.0822 -0.5036 -0.1009
    7CHTO  H155 2664   5.546   1.010   0.271  0.3788  1.1786  3.4025
    7CHTO   O56 2665   5.582   0.929   0.449 -0.3321  0.3845  0.0594
    7CHTO  H135 2666   5.655   0.886   0.489 -1.2121 -0.6087  0.6313
    7CHTO   C81 2667   5.548   0.798   0.226 -0.5250 -0.1896  0.0270
    7CHTO  H153 2668   5.560   0.817   0.119 -0.4782  0.4709  0.1485
    7CHTO   N14 2669   5.402   0.783   0.241 -0.4165 -0.6675  0.3582
    7CHTO  H141 2670   5.370   0.705   0.175 -1.4069  1.4612 -1.7755
    7CHTO  H142 2671   5.350   0.873   0.214  1.4463 -0.0535 -1.2939
    7CHTO   C79 2672   5.631   0.671   0.252 -0.4469  0.2462 -0.4774
    7CHTO  H151 2673   5.591   0.593   0.187 -2.5710  0.0453  1.0384
    7CHTO   O52 2674   5.765   0.713   0.208 -0.6616  0.5320 -0.0983
    7CHTO   C86 2675   5.830   0.822   0.272 -0.0462 -0.6713  0.3354
    7CHTO  H158 2676   5.850   0.792   0.377 -2.4085  0.3190  1.0914
    7CHTO   C90 2677   5.967   0.844   0.205 -0.2201 -0.0610  0.3412
    7CHTO   O60 2678   5.946   0.864   0.062 -0.2069 -0.0791 -0.8881
    7CHTO  H138 2679   5.893   0.941   0.056  1.4296  1.4101  2.3073
    7CHTO   O50 2680   5.624   0.626   0.392  0.6541  0.1777  0.0952
    7CHTO   C73 2681   5.626   0.526   0.493  0.0956  0.1609 -0.1359
    7CHTO  H145 2682   5.719   0.470   0.480 -0.1049 -0.0846 -0.5461
    7CHTO   C74 2683   5.509   0.420   0.487  0.4104  0.5929  0.3403
    7CHTO  H146 2684   5.509   0.368   0.390  1.3755  0.1376  0.5799
    7CHTO   O54 2685   5.540   0.321   0.584  0.5024 -0.4521 -0.1553
    7CHTO  H133 2686   5.536   0.351   0.672 -1.7186  0.6713 -0.6041
    7CHTO   C75 2687   5.379   0.509   0.504  0.6218 -0.1643  0.7094
    7CHTO  H147 2688   5.377   0.591   0.431  0.3517  0.0796  0.9899
    7CHTO   N13 2689   5.261   0.420   0.478 -0.4563 -0.0746 -0.5168
    7CHTO  H139 2690   5.278   0.358   0.390  1.3038  2.1770 -1.8080
    7CHTO  H140 2691   5.168   0.473   0.475 -0.0465  0.7013  0.2930
    7CHTO   C76 2692   5.384   0.573   0.644  0.2724 -0.2833 -0.2585
    7CHTO  H148 2693   5.405   0.493   0.714  2.5557 -1.3365 -2.0886
    7CHTO   O49 2694   5.496   0.666   0.652  0.4804 -0.3924  0.3234
    7CHTO   C77 2695   5.621   0.594   0.632  0.3140  0.0888  0.1992
    7CHTO  H149 2696   5.622   0.516   0.709 -0.0026  0.0286  0.1444
    7CHTO   C88 2697   5.726   0.696   0.648 -0.9989  0.5101  0.1625
    7CHTO   O58 2698   5.718   0.763   0.785  0.1789 -0.1088  0.1879
    7CHTO  H136 2699   5.771   0.713   0.845  0.1463 -1.2136 -0.6841
    7CHTO   O51 2700   5.271   0.662   0.677  0.1514  0.1161 -0.0347
    7CHTO   C78 2701   5.220   0.648   0.810  0.8087 -0.0605 -0.4684
    7CHTO  H150 2702   5.305   0.614   0.872 -0.7159 -1.2746  1.0035
    7CHTO   C80 2703   5.097   0.552   0.830  0.1325  0.6790  0.1434
    7CHTO  H152 2704   5.019   0.584   0.758 -1.9803  2.3601  3.1379
    7CHTO   O55 2705   5.149   0.425   0.801  0.8938 -0.5571 -0.6817
    7CHTO  H134 2706   5.078   0.378   0.763  0.2156  0.4866 -0.7236
    7CHTO   C84 2707   5.038   0.555   0.973 -0.1285  0.3350 -0.9958
    7CHTO  H156 2708   5.110   0.511   1.043 -0.3002 -0.0301 -1.0481
    7CHTO   N15 2709   4.915   0.465   0.992  0.3149  0.0424 -0.2592
    7CHTO  H143 2710   4.894   0.404   0.906  0.6851 -0.2736 -0.1248
    7CHTO  H144 2711   4.930   0.403   1.078  3.2386  0.2319 -0.6079
    7CHTO   C87 2712   5.008   0.700   1.013  0.3493  0.1955  0.5285
    7CHTO  H159 2713   4.933   0.742   0.947 -0.6574 -2.5757 -0.1603
    7CHTO   O53 2714   5.151   0.780   0.991  0.5267  0.5525  0.4196
    7CHTO   C82 2715   5.189   0.797   0.855  0.2002  0.3742 -0.5457
    7CHTO  H154 2716   5.113   0.850   0.798  2.1605  4.0244  0.0283
    7CHTO   C89 2717   5.313   0.893   0.851  0.0121  0.0876 -0.0397
    7CHTO   O59 2718   5.412   0.864   0.952 -0.4104 -0.4315 -0.0010
    7CHTO  H137 2719   5.389   0.901   1.035 -0.8854 -0.8393  0.0537
    7CHTO   O45 2720   4.953   0.728   1.164 -0.2039  0.0403  0.0339
    7CHTO   C67 2721   5.021   0.818   1.257  0.1329 -0.9035  0.2940
    7CHTO  H124 2722   5.114   0.859   1.218 -1.4786  1.8576 -0.8569
    7CHTO   C65 2723   4.934   0.940   1.302  0.1976 -0.1228  0.0978
    7CHTO  H122 2724   4.832   0.902   1.294  0.1497  0.4790 -2.4145
    7CHTO   O44 2725   4.947   1.040   1.200 -0.2030 -0.0415 -0.1792
    7CHTO  H102 2726   4.919   1.126   1.226 -1.1809 -0.3661 -0.1466
    7CHTO   C63 2727   4.949   0.986   1.455 -0.0896  0.6100  0.3923
    7CHTO  H120 2728   4.905   0.912   1.522  0.7688  1.0508  1.4655
    7CHTO   N11 2729   4.885   1.117   1.481  0.1341 -0.3349  0.4612
    7CHTO  H108 2730   4.837   1.108   1.576 -1.0037 -1.0964 -0.1782
    7CHTO  H109 2731   4.956   1.196   1.472  2.2399 -2.2941 -0.5287
    7CHTO   C61 2732   5.099   0.970   1.497  0.1276  0.2733  0.5091
    7CHTO  H118 2733   5.112   0.997   1.603 -0.5005 -0.2264  0.7187
    7CHTO   O40 2734   5.144   0.828   1.482 -0.2152 -0.7362 -0.0431
    7CHTO   C68 2735   5.061   0.748   1.390  0.1963  0.0460  0.3090
    7CHTO  H125 2736   4.965   0.717   1.436 -0.1158 -1.3477 -1.2297
    7CHTO   C72 2737   5.146   0.624   1.367 -0.2139 -0.3553 -0.3661
    7CHTO   O48 2738   5.070   0.519   1.301 -0.5623  0.2959 -0.6021
    7CHTO  H105 2739   5.047   0.556   1.218  0.6132  1.1432 -0.5584
    7CHTO   O38 2740   5.188   1.048   1.405  0.3719  0.4266 -0.4195
    7CHTO   C55 2741   5.299   1.114   1.464  0.4597 -0.5761  0.1352
    7CHTO  H112 2742   5.340   1.041   1.537  0.5771  0.4502  1.1181
    7CHTO   C56 2743   5.265   1.255   1.535 -0.1831 -0.1008 -0.5460
    7CHTO  H113 2744   5.192   1.288   1.459 -1.3317  1.6785  1.2821
    7CHTO   O42 2745   5.208   1.213   1.658  0.0583 -0.0333 -0.0124
    7CHTO  H100 2746   5.266   1.221   1.730  0.2273 -1.6665  0.0475
    7CHTO   C57 2747   5.382   1.361   1.552 -0.8571  0.4187 -0.2985
    7CHTO  H114 2748   5.439   1.342   1.643 -1.2562 -0.2725 -0.1825
    7CHTO   N10 2749   5.332   1.501   1.576  0.2509  0.0740  0.0324
    7CHTO  H106 2750   5.257   1.492   1.653  0.4527 -2.8961 -0.0472
    7CHTO  H107 2751   5.409   1.571   1.605 -1.3607  1.0521  2.1060
    7CHTO   C58 2752   5.480   1.352   1.434  0.3755  0.3942 -0.0614
    7CHTO  H115 2753   5.435   1.393   1.341 -1.1731  0.2766  0.6238
    7CHTO   O37 2754   5.513   1.213   1.405  0.4903 -0.3603  0.2221
    7CHTO   C59 2755   5.403   1.136   1.353  0.2123 -0.2129 -1.2358
    7CHTO  H116 2756   5.359   1.195   1.272 -1.0807 -0.7262 -0.9137
    7CHTO   C70 2757   5.464   1.003   1.304 -0.1015 -0.2915 -0.1895
    7CHTO   O46 2758   5.366   0.911   1.259  0.0114 -0.4167  1.0328
    7CHTO  H103 2759   5.377   0.900   1.167 -3.1169  0.6190  0.4714
    7CHTO   O39 2760   5.621   1.432   1.459  0.5036  0.1052 -0.0649
    7CHTO   C60 2761   5.714   1.430   1.351 -1.0436 -0.3074  0.0502
    7CHTO  H117 2762   5.741   1.325   1.337  1.5483  0.2440  0.6183
    7CHTO   C62 2763   5.660   1.477   1.213  0.2695  0.0700  0.2356
    7CHTO  H119 2764   5.565   1.423   1.196  1.2092 -0.9864 -1.9593
    7CHTO   O43 2765   5.618   1.610   1.223 -0.1370 -0.6039 -0.0261
    7CHTO  H101 2766   5.683   1.670   1.191  1.2157 -2.7707 -1.4800
    7CHTO   C66 2767   5.763   1.458   1.086 -0.1495 -0.1583  0.1332
    7CHTO  H123 2768   5.776   1.350   1.073 -2.0658 -0.1622 -2.0544
    7CHTO   N12 2769   5.704   1.506   0.959 -0.0715 -0.3652 -0.4617
    7CHTO  H110 2770   5.689   1.613   0.954 -2.4381 -0.5636  1.3667
    7CHTO  H111 2771   5.761   1.459   0.881 -1.9623  0.2909 -2.2607
    7CHTO   C69 2772   5.899   1.530   1.117  0.2811 -0.4003 -0.0141
    7CHTO  H126 2773   5.885   1.639   1.127  1.5226 -0.0310 -1.9753
    7CHTO   O41 2774   5.947   1.484   1.260  0.5585 -0.0331 -0.1386
    7CHTO   C64 2775   5.842   1.504   1.385  0.1470  0.0415 -0.1230
    7CHTO  H121 2776   5.819   1.610   1.408 -1.7980 -0.8201  2.1519
    7CHTO   C71 2777   5.898   1.454   1.526 -0.1517  0.6166 -0.2167
    7CHTO   O47 2778   5.967   1.328   1.515 -0.6655  0.5830  0.2480
    7CHTO  H104 2779   5.943   1.283   1.593  1.2453 -1.3024 -0.1911
    7CHTO   O34 2780   6.003   1.492   1.015  0.8278 -0.6011  0.4925
    7CHTO   C49 2781   6.109   1.373   0.994  0.2287 -0.4190 -0.2716
    7CHTO   H91 2782   6.164   1.402   0.905  0.1876 -0.5456 -0.3382
    7CHTO   C47 2783   6.043   1.238   0.979 -0.1535  0.0545  0.3975
    7CHTO   H89 2784   6.126   1.177   0.938  0.4306  1.1322 -0.0476
    7CHTO   O33 2785   5.931   1.242   0.892  0.1089 -0.4490 -0.7625
    7CHTO   H70 2786   5.914   1.152   0.872 -1.1675 -0.5030  0.5074
    7CHTO   C45 2787   6.002   1.173   1.124 -0.3787 -0.2697  0.2053
    7CHTO   H87 2788   5.936   1.243   1.177 -2.9455 -1.6071 -1.1075
    7CHTO    N8 2789   5.924   1.045   1.120 -0.3235 -0.4059 -0.6024
    7CHTO   H75 2790   5.877   1.026   1.216  0.4584  0.6900  0.0153
    7CHTO   H76 2791   5.980   0.961   1.082  0.9072 -0.7571  1.8946
    7CHTO   C43 2792   6.137   1.163   1.204  0.2808  0.0320  0.2090
    7CHTO   H85 2793   6.113   1.119   1.301 -1.1720  0.6823  0.1453
    7CHTO   O29 2794   6.194   1.288   1.221  0.3890 -0.0092  0.0853
    7CHTO   C50 2795   6.217   1.371   1.105 -0.0560 -0.3043  0.5265
    7CHTO   H92 2796   6.222   1.476   1.139  1.7820  0.8408 -3.0137
    7CHTO   C54 2797   6.355   1.342   1.036 -0.8764  0.1911 -0.7323
    7CHTO   O36 2798   6.466   1.383   1.113  0.4481  0.9231 -0.0339
    7CHTO   H72 2799   6.500   1.310   1.161 -1.0012  1.1689  1.4310
    7CHTO   O27 2800   6.219   1.066   1.137 -0.5791 -0.6557  0.0482
    7CHTO   C37 2801   6.290   0.944   1.178  0.2255 -0.1446 -0.3540
    7CHTO   H79 2802   6.268   0.922   1.284 -1.5028 -0.1233 -0.6987
    7CHTO   C38 2803   6.246   0.828   1.084 -0.3783  0.2157 -0.2821
    7CHTO   H80 2804   6.257   0.864   0.981 -2.2187 -4.4286 -2.2240
    7CHTO   O31 2805   6.111   0.787   1.103 -0.0634  0.0578  0.2353
    7CHTO   H68 2806   6.065   0.868   1.117 -0.1617 -0.0705  0.6592
    7CHTO   C39 2807   6.342   0.703   1.100  0.7284 -0.3560 -0.0627
    7CHTO   H81 2808   6.335   0.671   1.203  1.0840 -0.3776 -0.0437
    7CHTO    N7 2809   6.318   0.582   1.017  0.4995  0.4306 -0.1400
    7CHTO   H73 2810   6.241   0.607   0.946  1.8820 -0.1529 -1.9031
    7CHTO   H74 2811   6.290   0.501   1.083  0.2561  0.6918  0.0742
    7CHTO   C40 2812   6.491   0.744   1.083 -0.2672  0.1616 -0.1703
    7CHTO   H82 2813   6.514   0.782   0.984 -2.0788 -0.1548 -0.7267
    7CHTO   O26 2814   6.505   0.848   1.186 -0.8390  0.1628  0.4242
    7CHTO   C41 2815   6.445   0.969   1.164  1.0417  0.0678  0.3582
    7CHTO   H83 2816   6.472   1.014   1.067  1.8005 -2.3360 -0.5917
    7CHTO   C52 2817   6.491   1.065   1.280 -0.6355  0.2278  0.1681
    7CHTO   O35 2818   6.621   1.115   1.270  0.0487  0.1448 -0.2826
    7CHTO   H71 2819   6.623   1.201   1.307 -2.2814 -0.5178  1.5277
    7CHTO   O28 2820   6.596   0.651   1.116 -0.4782  0.3458  0.0961
    7CHTO   C42 2821   6.738   0.669   1.086 -0.1851 -0.3250  0.4339
    7CHTO   H84 2822   6.785   0.581   1.131  1.5795  0.5448  0.3313
    7CHTO   C44 2823   6.813   0.794   1.151 -0.0183 -0.2108 -0.5994
    7CHTO   H86 2824   6.770   0.887   1.112  0.6210 -0.6242 -2.3174
    7CHTO   O32 2825   6.787   0.800   1.293  0.6877  0.4355 -0.7446
    7CHTO   H69 2826   6.868   0.819   1.337  0.4900  1.6153 -0.8853
    7CHTO   C48 2827   6.963   0.795   1.111  0.0884 -0.1939 -0.0706
    7CHTO   H90 2828   7.011   0.699   1.130  1.3751  0.2504 -0.9988
    7CHTO    N9 2829   7.040   0.903   1.184  0.0088 -0.2658 -0.4078
    7CHTO   H77 2830   7.026   0.902   1.291 -0.8196 -5.2934 -0.4860
    7CHTO   H78 2831   7.146   0.893   1.164 -0.2283  1.6942 -2.9878
    7CHTO   C51 2832   6.963   0.799   0.959 -0.4823  0.0789  0.3250
    7CHTO   H93 2833   6.906   0.882   0.917 -1.4533 -0.1562  1.1541
    7CHTO   O30 2834   6.910   0.672   0.914  0.1507 -0.0712  0.1260
    7CHTO   C46 2835   6.759   0.653   0.932 -0.6506  0.0875  0.8632
    7CHTO   H88 2836   6.705   0.732   0.879 -0.6481 -1.0284 -0.8604
    7CHTO   C53 2837   6.725   0.516   0.873 -0.0960 -0.4086 -0.5634
    7CHTO   O72 2838   6.585   0.488   0.864 -0.4192  0.1929 -0.1729
    7CHTO  H199 2839   6.547   0.496   0.949  0.5958  1.3344  0.1905
    7CHTO   O22 2840   7.097   0.792   0.909  0.2403  0.0313  0.1797
    7CHTO   C31 2841   7.125   0.828   0.766 -0.0736  1.1629  0.4642
    7CHTO   H59 2842   7.232   0.801   0.755 -0.6456 -0.5940 -1.0171
    7CHTO   C29 2843   7.050   0.747   0.659  0.2240 -0.1247  0.4799
    7CHTO   H57 2844   6.942   0.751   0.679  0.0962  0.3683 -0.3090
    7CHTO   O21 2845   7.100   0.613   0.686 -0.4157 -0.0538 -0.1534
    7CHTO   H37 2846   7.031   0.556   0.658  0.2967  0.1834 -2.5733
    7CHTO   C27 2847   7.080   0.778   0.510  0.2362  0.2942 -0.0378
    7CHTO   H55 2848   7.178   0.729   0.494  0.1750  0.3920 -0.7430
    7CHTO    N5 2849   6.989   0.714   0.414  0.1491  0.3426 -0.4670
    7CHTO   H43 2850   6.900   0.767   0.383  0.4338  1.8250  1.1224
    7CHTO   H44 2851   7.052   0.693   0.329 -2.2239 -2.9490 -1.5238
    7CHTO   C25 2852   7.068   0.933   0.493 -0.7022 -0.8664  0.3267
    7CHTO   H53 2853   6.962   0.962   0.493 -0.4547  0.0973 -1.7983
    7CHTO   O17 2854   7.155   1.000   0.592  0.3547 -0.0510 -0.5680
    7CHTO   C32 2855   7.116   0.979   0.728 -0.9901 -0.1191  0.4151
    7CHTO   H60 2856   7.013   1.012   0.739 -1.5023 -1.1539 -1.1660
    7CHTO   C36 2857   7.213   1.069   0.811  0.4097  0.0979  0.6225
    7CHTO   O25 2858   7.158   1.204   0.819 -0.5652  0.5257  0.0228
    7CHTO   H40 2859   7.069   1.202   0.850 -0.7354  2.9154 -0.2187
    7CHTO   O15 2860   7.126   0.985   0.352  0.0467 -0.6163 -0.1141
    7CHTO   C19 2861   7.086   1.068   0.241  0.7234 -0.1939  0.9906
    7CHTO   H47 2862   7.182   1.116   0.219  0.1657  1.1529  1.4051
    7CHTO   C20 2863   7.027   0.995   0.115  0.3953  0.3010 -0.5057
    7CHTO   H48 2864   6.947   0.924   0.141  0.6049  0.3223  0.2020
    7CHTO   O19 2865   7.127   0.914   0.062  0.0743  0.2040  0.0512
    7CHTO   H35 2866   7.206   0.954   0.031 -0.6778  1.0998 -0.7440
    7CHTO   C21 2867   6.970   1.088   0.002 -0.5692 -1.0306 -0.1954
    7CHTO   H49 2868   7.048   1.151  -0.040  0.2986 -0.8879  1.5701
    7CHTO    N4 2869   6.902   1.020  -0.110 -0.0421 -0.3440  0.1486
    7CHTO   H41 2870   6.812   1.072  -0.137 -0.0701  0.9695  2.6001
    7CHTO   H42 2871   6.967   1.026  -0.196 -1.2502 -1.5447 -0.8680
    7CHTO   C22 2872   6.876   1.193   0.071 -0.9924  0.6321  0.0880
    7CHTO   H50 2873   6.793   1.150   0.126 -0.2912  0.6705  1.2001
    7CHTO   O14 2874   6.958   1.263   0.167  0.1014 -0.4754 -0.1568
    7CHTO   C23 2875   6.987   1.179   0.280 -0.3038  0.1065 -0.2397
    7CHTO   H51 2876   6.895   1.136   0.323  1.0323 -1.8979  0.7051
    7CHTO   C34 2877   7.045   1.262   0.400  0.5313  0.2921  0.0026
    7CHTO   O23 2878   6.947   1.340   0.470 -0.0340 -0.1399  0.7182
    7CHTO   H38 2879   6.937   1.289   0.549 -0.9194 -0.7279  0.2257
    7CHTO   O16 2880   6.829   1.298  -0.016 -0.5542 -0.1540 -0.0210
    7CHTO   C24 2881   6.809   1.450   0.034  0.1224  0.4902  0.5346
    7CHTO   H52 2882   6.864   1.474   0.125  1.6375  1.5242 -0.6054
    7CHTO   C26 2883   6.657   1.472   0.071  0.2052  0.1428  0.9944
    7CHTO   H54 2884   6.595   1.454  -0.019  1.6794 -2.4147  0.4517
    7CHTO   O20 2885   6.621   1.377   0.176 -0.6033  0.2082 -0.3731
    7CHTO   H36 2886   6.533   1.395   0.204 -0.4739  1.3371 -0.6660
    7CHTO   C30 2887   6.644   1.620   0.117 -0.1677 -0.6974 -0.2280
    7CHTO   H58 2888   6.694   1.613   0.215 -1.3027 -0.1685  0.4013
    7CHTO    N6 2889   6.501   1.664   0.137 -0.8006 -0.5432 -0.0233
    7CHTO   H45 2890   6.441   1.650   0.048  0.3544  0.0812 -0.9217
    7CHTO   H46 2891   6.462   1.605   0.218 -1.1355 -1.3084 -0.7366
    7CHTO   C33 2892   6.720   1.727   0.031  0.3096  0.1757 -0.0491
    7CHTO   H61 2893   6.661   1.754  -0.057  1.8092  0.7260 -0.9143
    7CHTO   O18 2894   6.848   1.681  -0.013 -0.3957 -0.0229  0.2262
    7CHTO   C28 2895   6.850   1.551  -0.075  0.3052  0.3545  0.6373
    7CHTO   H56 2896   6.794   1.539  -0.167 -1.5532  2.1927  1.4912
    7CHTO   C35 2897   6.990   1.501  -0.117 -0.3977 -0.1969  0.8374
    7CHTO   O24 2898   7.049   1.578  -0.215 -0.2054  0.4875  0.1600
    7CHTO   H39 2899   7.137   1.597  -0.187 -0.5336 -1.5998  2.8575
    7CHTO    O9 2900   6.732   1.847   0.106 -0.2756  0.2183 -0.0222
    7CHTO   C13 2901   6.774   1.968   0.041 -0.6849  0.0082 -0.2855
    7CHTO   H26 2902   6.767   1.958  -0.070  0.0655  0.4439 -0.3762
    7CHTO   C11 2903   6.922   1.991   0.093 -0.4757 -0.2869 -0.3698
    7CHTO   H24 2904   6.979   1.904   0.055 -1.4995 -1.9375  1.7957
    7CHTO    O8 2905   6.923   1.976   0.235 -0.3369 -0.0518  0.4144
    7CHTO    H3 2906   7.007   1.953   0.271  1.0939  4.0629 -0.0328
    7CHTO    C9 2907   6.980   2.128   0.041  1.0776 -0.5595  0.1529
    7CHTO   H22 2908   6.961   2.133  -0.067 -1.9583 -0.7582  0.6488
    7CHTO    N2 2909   7.127   2.139   0.066 -0.1351 -0.3276  0.1790
    7CHTO   H10 2910   7.172   2.053   0.019  1.7497 -0.1522  1.5966
    7CHTO   H11 2911   7.138   2.144   0.174  1.0758 -2.0802  0.1526
    7CHTO    C7 2912   6.887   2.252   0.097 -0.1972  0.0446 -0.0346
    7CHTO   H20 2913   6.917   2.328   0.021  1.4154 -0.9283 -0.4036
    7CHTO    O4 2914   6.747   2.222   0.090  0.1108  0.3723  0.0970
    7CHTO   C14 2915   6.684   2.094   0.071 -0.4956 -1.1234 -0.2533
    7CHTO   H27 2916   6.622   2.097  -0.020  1.8898 -0.5212 -1.9207
    7CHTO   C18 2917   6.583   2.069   0.186  0.7904 -0.8485  0.5187
    7CHTO   O13 2918   6.532   2.194   0.241  0.5461 -0.2482  0.5383
    7CHTO    H7 2919   6.457   2.182   0.295 -0.0422  1.0236  0.0137
    7CHTO    O2 2920   6.927   2.289   0.244  0.2636 -0.0385 -0.4691
    7CHTO    C1 2921   6.941   2.433   0.266 -0.4353  0.2476 -0.4538
    7CHTO   H14 2922   6.869   2.488   0.201  1.0732 -0.2077 -2.5600
    7CHTO    C2 2923   7.084   2.483   0.252 -0.8988 -0.3188  0.8561
    7CHTO   H15 2924   7.137   2.391   0.280  3.1779  1.9886  1.1043
    7CHTO    O6 2925   7.125   2.501   0.111 -0.4651 -0.0870  0.0179
    7CHTO    H1 2926   7.216   2.519   0.101 -0.5742  0.2153 -0.4372
    7CHTO    C3 2927   7.122   2.615   0.328 -0.5953 -0.1369 -0.0559
    7CHTO   H16 2928   7.079   2.697   0.268  1.0958  1.5661  1.0086
    7CHTO    N1 2929   7.270   2.640   0.349 -0.3209  0.3535 -0.1468
    7CHTO    H8 2930   7.304   2.626   0.451  0.4338 -1.8233 -0.6751
    7CHTO    H9 2931   7.327   2.580   0.279  0.0590  1.7347 -1.0450
    7CHTO    C4 2932   7.050   2.642   0.461  0.3424  0.1740 -0.7787
    7CHTO   H17 2933   7.109   2.612   0.548 -0.6354  2.3175  0.6427
    7CHTO    O1 2934   6.923   2.583   0.469  0.1300 -0.2495  0.4101
    7CHTO    C5 2935   6.898   2.454   0.416  0.2103 -0.2179 -0.6130
    7CHTO   H18 2936   6.960   2.381   0.469 -0.8210 -0.1908  0.6697
    7CHTO   C16 2937   6.745   2.415   0.432  0.2158 -0.3510  0.2505
    7CHTO   O11 2938   6.700   2.433   0.561 -0.0164 -0.0763 -0.0024
    7CHTO    H5 2939   6.659   2.516   0.568 -1.7000 -0.9359  0.4289
    7CHTO    O3 2940   7.015   2.782   0.470  0.4949 -0.1010 -0.1619
    7CHTO    C6 2941   7.071   2.862   0.577  0.1410 -0.1855 -0.2558
    7CHTO   H19 2942   7.131   2.799   0.642  1.1108  1.7835  0.7924
    7CHTO    C8 2943   7.162   2.986   0.531  0.6196  0.6225  0.0386
    7CHTO   H21 2944   7.105   3.049   0.463 -3.2262 -1.8598  0.8286
    7CHTO    O7 2945   7.275   2.938   0.458  0.1718  0.3361  0.3016
    7CHTO    H2 2946   7.322   2.865   0.496  0.9119 -0.3336 -1.8386
    7CHTO   C12 2947   7.200   3.075   0.651 -0.0905  0.8724 -0.7217
    7CHTO   H25 2948   7.260   3.005   0.712  0.7483  0.6216 -1.8169
    7CHTO    N3 2949   7.281   3.191   0.603  1.0130  0.0486 -0.4504
    7CHTO   H12 2950   7.367   3.209   0.666  0.8336 -1.4587  0.2506
    7CHTO   H13 2951   7.224   3.281   0.592  0.6421 -0.1701 -0.3215
    7CHTO   C15 2952   7.071   3.113   0.730 -0.2878  0.0691  0.1923
    7CHTO   H28 2953   7.012   3.184   0.672  1.3843  0.1866 -1.3998
    7CHTO   O10 2954   7.101   3.193   0.865  0.0512 -0.3874  0.4354
    7CHTO    H4 2955   7.115   3.137   0.938 -1.0367 -0.9341  0.2377
    7CHTO    O5 2956   7.001   2.996   0.776 -0.8983  0.6066 -0.0567
    7CHTO   C10 2957   6.947   2.914   0.666  0.5388 -0.5898 -0.4094
    7CHTO   H23 2958   6.870   2.963   0.607  2.5421  0.6980 -2.0187
    7CHTO   C17 2959   6.877   2.797   0.734  1.4930 -0.4543  0.0171
    7CHTO   O12 2960   6.754   2.838   0.795 -0.3326 -0.3654 -0.1103
    7CHTO    H6 2961   6.787   2.876   0.874 -1.0170  2.5887 -1.2046
    8CHTO  H203 2962   7.055   8.698   2.644  0.1819  0.0399  1.9725
    8CHTO   O82 2963   7.009   8.618   2.661  0.1444 -0.2262  0.6499
    8CHTO  C123 2964   6.906   8.615   2.560 -0.4208 -0.0955 -1.3526
    8CHTO  H227 2965   6.885   8.717   2.524  1.1847  0.6375 -0.2763
    8CHTO   O77 2966   6.960   8.530   2.460 -0.4717  0.2053  0.1282
    8CHTO  C118 2967   6.878   8.527   2.343 -0.0972 -0.3514  0.7112
    8CHTO  H222 2968   6.867   8.631   2.307  2.3591 -0.8324 -1.5645
    8CHTO  C125 2969   6.950   8.440   2.234  0.2857 -0.3512 -0.6364
    8CHTO   O84 2970   7.058   8.520   2.190 -0.1525  0.0773 -0.1446
    8CHTO  H205 2971   7.102   8.461   2.132 -0.4624  1.4063 -1.7600
    8CHTO  C114 2972   6.741   8.464   2.369  0.5694  0.3786 -0.2430
    8CHTO  H218 2973   6.759   8.362   2.403 -1.5234 -0.0988 -0.5138
    8CHTO  C116 2974   6.667   8.538   2.487  0.0695  0.5692 -0.2490
    8CHTO  H220 2975   6.621   8.636   2.461 -2.4054 -0.4163  0.1915
    8CHTO   O79 2976   6.553   8.456   2.527  0.3658 -0.1966  0.1328
    8CHTO  H201 2977   6.493   8.499   2.585  1.9824 -0.1602  1.8177
    8CHTO  C120 2978   6.774   8.552   2.611  0.1665 -0.0216 -0.2830
    8CHTO  H224 2979   6.795   8.451   2.651  1.2105  0.4596  0.4088
    8CHTO   N21 2980   6.705   8.629   2.712 -0.2553  0.2204  0.1648
    8CHTO  H211 2981   6.771   8.701   2.757  0.8705 -0.5994 -0.1513
    8CHTO  H212 2982   6.671   8.556   2.784 -1.7874 -1.4865 -2.2148
    8CHTO   O75 2983   6.672   8.466   2.246  0.5452  0.1699  0.1635
    8CHTO  C112 2984   6.567   8.602   2.213 -0.1236 -0.3247 -0.3027
    8CHTO  H216 2985   6.618   8.695   2.242  0.5939 -0.0287 -2.3628
    8CHTO   O73 2986   6.442   8.578   2.289  0.3347  0.1578  0.1129
    8CHTO  C113 2987   6.338   8.671   2.258  0.8803 -0.6076 -0.7826
    8CHTO  H217 2988   6.376   8.767   2.298  1.5937 -0.8106 -0.9719
    8CHTO  C124 2989   6.214   8.626   2.342  0.0280 -0.3867  0.0905
    8CHTO   O83 2990   6.113   8.727   2.347 -0.6742  0.5600 -0.7147
    8CHTO  H204 2991   6.047   8.688   2.400 -1.2718 -0.9072 -2.4583
    8CHTO  C109 2992   6.307   8.682   2.104  0.1029  0.7266 -0.9061
    8CHTO  H213 2993   6.268   8.585   2.070 -0.8161  0.3131  1.2321
    8CHTO  C110 2994   6.431   8.721   2.024  0.2209  0.4480 -0.1051
    8CHTO  H214 2995   6.460   8.822   2.055 -0.8003  0.4756  0.7737
    8CHTO   O78 2996   6.401   8.724   1.881 -1.1384  0.1022  0.6851
    8CHTO  H200 2997   6.466   8.775   1.836 -2.1406  0.3565 -0.5051
    8CHTO  C111 2998   6.542   8.621   2.057  0.4984 -0.0314 -0.2625
    8CHTO  H215 2999   6.505   8.521   2.030  1.0866 -0.1120 -0.7859
    8CHTO   N19 3000   6.671   8.644   1.978  0.1045 -0.1659  0.0716
    8CHTO  H207 3001   6.655   8.658   1.872 -0.4273 -1.1373  0.0171
    8CHTO  H208 3002   6.731   8.557   2.003 -1.9106 -1.1038  1.7517
    8CHTO   O74 3003   6.203   8.787   2.078 -0.4992  0.8815  0.0860
    8CHTO  C115 3004   6.059   8.731   2.057 -0.8387 -0.5060 -1.0113
    8CHTO  H219 3005   6.050   8.629   2.094 -1.7944  0.4163  1.4569
    8CHTO   O76 3006   5.955   8.817   2.136 -0.1015 -0.3920  0.0273
    8CHTO  C122 3007   5.926   8.947   2.088 -0.0080 -0.7831  0.7238
    8CHTO  H226 3008   6.023   8.996   2.081 -0.6087  0.0413 -2.5578
    8CHTO  C126 3009   5.836   9.024   2.201 -0.3318  0.6578 -0.3508
    8CHTO   O85 3010   5.867   9.157   2.202 -0.1940 -0.3134  0.1716
    8CHTO  H206 3011   5.800   9.202   2.154  0.2403  1.0614  0.8174
    8CHTO  C121 3012   5.862   8.927   1.951  0.1653  0.4074  0.0840
    8CHTO  H225 3013   5.788   8.846   1.970 -2.0909  2.2222 -0.7987
    8CHTO   O81 3014   5.795   9.038   1.891 -0.2823 -0.3088  0.0638
    8CHTO  H202 3015   5.822   9.121   1.925  1.9502 -0.8107 -0.3997
    8CHTO  C119 3016   5.982   8.870   1.858  0.3331  0.2134 -0.4411
    8CHTO  H223 3017   5.945   8.872   1.756  1.7163  1.0062 -0.9414
    8CHTO  C117 3018   6.031   8.728   1.903  0.4697 -0.2804 -0.4432
    8CHTO  H221 3019   6.125   8.699   1.856  1.5318  1.6058  0.4325
    8CHTO   N20 3020   5.925   8.627   1.870 -0.2316 -0.2654 -0.3243
    8CHTO  H209 3021   5.883   8.647   1.773 -1.8622 -1.2566  0.1597
    8CHTO  H210 3022   5.974   8.531   1.863 -0.4986 -0.5917  1.8617
    8CHTO   O80 3023   6.105   8.969   1.846  0.3655 -0.0059 -0.6901
    8CHTO  C103 3024   6.087   9.111   1.771 -0.0650  0.0757  0.6164
    8CHTO  H190 3025   5.991   9.111   1.719  0.4210 -0.3076 -0.2876
    8CHTO  C101 3026   6.111   9.242   1.852 -0.1374  0.1399 -0.0578
    8CHTO  H188 3027   6.201   9.233   1.912 -0.6221  1.8948  0.9599
    8CHTO   O68 3028   5.992   9.254   1.945  0.1439 -0.1622  0.0833
    8CHTO  H168 3029   5.935   9.180   1.941  2.0117 -1.6476  0.5590
    8CHTO   C99 3030   6.126   9.374   1.753 -0.2796 -0.1784  0.7749
    8CHTO  H186 3031   6.028   9.384   1.701 -1.3954  0.4592  2.9185
    8CHTO   N17 3032   6.148   9.503   1.825  0.2000 -0.3065  0.0655
    8CHTO  H174 3033   6.070   9.518   1.899  1.7140 -1.5102  1.9620
    8CHTO  H175 3034   6.234   9.483   1.886 -1.0321  3.2620  3.1324
    8CHTO   C97 3035   6.232   9.348   1.640  0.2036 -0.4124 -0.0783
    8CHTO  H184 3036   6.328   9.349   1.694 -0.8713 -2.4413  1.9617
    8CHTO   O64 3037   6.211   9.218   1.570  0.1282  0.0916  0.8369
    8CHTO  C104 3038   6.199   9.102   1.657  0.1849  0.1046  0.2626
    8CHTO  H191 3039   6.298   9.104   1.703  0.4019  0.2420 -0.2153
    8CHTO  C108 3040   6.194   8.978   1.574  0.1821  0.1842 -0.7569
    8CHTO   O71 3041   6.068   8.944   1.515 -0.4590 -0.5817 -0.3851
    8CHTO  H171 3042   6.052   8.852   1.504  0.9670 -0.9014  0.0547
    8CHTO   O62 3043   6.229   9.450   1.536  0.6519 -0.1104  0.5249
    8CHTO   C91 3044   6.326   9.436   1.429  0.0582  0.8710 -0.1856
    8CHTO  H178 3045   6.344   9.335   1.392  0.4859  0.2462  1.6511
    8CHTO   C92 3046   6.460   9.494   1.495 -0.0627 -0.3641  0.0741
    8CHTO  H179 3047   6.487   9.443   1.589  1.4574 -0.0168 -0.1668
    8CHTO   O66 3048   6.564   9.452   1.400 -0.5487 -0.1219 -0.1396
    8CHTO  H166 3049   6.580   9.360   1.403  0.1813  0.0349  1.5369
    8CHTO   C93 3050   6.465   9.650   1.495 -0.3523 -0.2158  0.9748
    8CHTO  H180 3051   6.572   9.673   1.494 -0.3422 -0.2664  0.4625
    8CHTO   N16 3052   6.405   9.705   1.622 -0.3254 -0.2643  0.3956
    8CHTO  H172 3053   6.389   9.812   1.618 -0.4410 -0.3365 -1.5000
    8CHTO  H173 3054   6.306   9.663   1.629  0.3515 -1.4406  3.8874
    8CHTO   C94 3055   6.399   9.718   1.369 -0.7563  0.7384 -0.4217
    8CHTO  H181 3056   6.300   9.757   1.390 -0.7759  0.3355  0.2569
    8CHTO   O61 3057   6.376   9.623   1.265 -0.4681  0.3903 -0.5227
    8CHTO   C95 3058   6.288   9.512   1.296 -0.2534 -0.2484  0.1179
    8CHTO  H182 3059   6.187   9.552   1.301  0.7961  2.5511 -0.2917
    8CHTO  C106 3060   6.274   9.410   1.179  0.3388 -0.0792 -0.5925
    8CHTO   O69 3061   6.167   9.314   1.198  0.0136 -0.0280  0.0868
    8CHTO  H169 3062   6.202   9.227   1.191 -0.3742 -0.2040  0.3404
    8CHTO   O63 3063   6.471   9.834   1.328  0.1090 -0.5347 -0.7305
    8CHTO   C96 3064   6.393   9.936   1.231 -0.0593  0.6623 -0.3273
    8CHTO  H183 3065   6.309   9.877   1.193 -0.2304  0.2506  0.6550
    8CHTO   C98 3066   6.474   9.988   1.111  0.3814  0.0342 -0.8609
    8CHTO  H185 3067   6.568  10.022   1.157  0.0796  1.3279 -1.1967
    8CHTO   O67 3068   6.504   9.868   1.039 -0.0984  0.0459 -0.2950
    8CHTO  H167 3069   6.557   9.883   0.963 -2.0250  1.9592 -1.3335
    8CHTO  C102 3070   6.416  10.103   1.017 -0.3470  0.5053 -0.1710
    8CHTO  H189 3071   6.372  10.048   0.932  0.4653 -0.9872  0.3718
    8CHTO   N18 3072   6.524  10.184   0.955 -0.3254 -0.3687  0.1006
    8CHTO  H176 3073   6.482  10.274   0.911  1.1788  0.2464 -0.1399
    8CHTO  H177 3074   6.563  10.126   0.873 -1.3765 -2.8975  1.3640
    8CHTO  C105 3075   6.302  10.185   1.080  0.1036  0.1033  0.3923
    8CHTO  H192 3076   6.307  10.290   1.052  0.3983  0.2083  0.8365
    8CHTO   O65 3077   6.286  10.182   1.225 -0.2198  0.0514  0.3838
    8CHTO  C100 3078   6.327  10.061   1.306  0.5434 -0.0979 -0.2222
    8CHTO  H187 3079   6.405  10.101   1.371  1.8007 -3.2950  0.3604
    8CHTO  C107 3080   6.214  10.024   1.406  0.3317 -0.4879  0.1108
    8CHTO   O70 3081   6.102   9.996   1.326  0.3317  0.1411  0.7964
    8CHTO  H170 3082   6.045   9.938   1.374  0.2557  0.3355  0.9422
    8CHTO   O57 3083   6.165  10.117   1.013  0.4164 -0.2130  0.4451
    8CHTO   C85 3084   6.080  10.198   0.932  0.5176 -0.0137 -0.3505
    8CHTO  H157 3085   6.150  10.261   0.872 -0.5476  0.8059 -0.7631
    8CHTO   C83 3086   5.997  10.288   1.019  0.2007 -0.8288  0.6742
    8CHTO  H155 3087   6.067  10.347   1.079 -0.0973 -2.2834  2.5140
    8CHTO   O56 3088   5.925  10.224   1.120 -0.1063 -0.2871  0.1905
    8CHTO  H135 3089   5.899  10.288   1.183  1.6540  0.5509  0.0773
    8CHTO   C81 3090   5.921  10.386   0.924  0.7822 -0.0181 -0.5852
    8CHTO  H153 3091   5.993  10.416   0.848 -0.4308  1.8721 -1.0321
    8CHTO   N14 3092   5.867  10.505   0.996  0.3948  0.2557 -0.0813
    8CHTO  H141 3093   5.815  10.462   1.078 -1.4736  0.3505 -1.1980
    8CHTO  H142 3094   5.799  10.556   0.930  3.4126  2.7403 -1.4464
    8CHTO   C79 3095   5.812  10.288   0.858 -1.0382 -0.9381 -0.3216
    8CHTO  H151 3096   5.751  10.349   0.790  3.1499  1.6200 -1.9742
    8CHTO   O52 3097   5.875  10.183   0.771 -0.3827 -0.8408  0.4690
    8CHTO   C86 3098   5.985  10.113   0.836  0.4131 -0.0353 -0.5026
    8CHTO  H158 3099   5.928  10.035   0.890 -0.3696  1.4607  0.8974
    8CHTO   C90 3100   6.066  10.046   0.728 -0.0599 -0.1415 -0.0929
    8CHTO   O60 3101   5.977   9.951   0.669 -0.3494  0.0378  0.2539
    8CHTO  H138 3102   5.996   9.954   0.577 -0.1388 -0.2198  0.2873
    8CHTO   O50 3103   5.718  10.220   0.942 -0.0486 -0.1320 -0.3726
    8CHTO   C73 3104   5.578  10.188   0.940  0.4972 -0.4177 -0.3950
    8CHTO  H145 3105   5.555  10.142   0.843  0.2954 -2.0550  0.4032
    8CHTO   C74 3106   5.498  10.321   0.950 -0.2972 -0.1754  0.2177
    8CHTO  H146 3107   5.532  10.384   0.867  1.7736 -1.2250  0.2348
    8CHTO   O54 3108   5.360  10.295   0.921 -0.4807  0.1279  0.1892
    8CHTO  H133 3109   5.308  10.371   0.902  1.6648  2.0161  1.6909
    8CHTO   C75 3110   5.531  10.383   1.091 -0.3608 -0.4479  0.3029
    8CHTO  H147 3111   5.635  10.417   1.096 -0.2498 -0.5383 -1.1050
    8CHTO   N13 3112   5.452  10.508   1.107 -0.4466 -0.4791  0.5099
    8CHTO  H139 3113   5.391  10.503   1.196 -1.4816 -0.3153 -0.1764
    8CHTO  H140 3114   5.512  10.597   1.106 -1.0742 -0.0527  0.4803
    8CHTO   C76 3115   5.510  10.280   1.211 -0.7790  0.9726  0.5031
    8CHTO  H148 3116   5.404  10.264   1.229 -0.4288 -2.6358 -0.3036
    8CHTO   O49 3117   5.566  10.153   1.184  0.4734  0.3763  0.6144
    8CHTO   C77 3118   5.536  10.092   1.058 -0.1584  0.1134  0.4884
    8CHTO  H149 3119   5.428  10.080   1.052 -0.4918  3.4585 -1.1890
    8CHTO   C88 3120   5.590   9.945   1.037 -0.3297 -0.1573  0.0949
    8CHTO   O58 3121   5.717   9.945   1.070 -0.3452 -0.1657  0.4762
    8CHTO  H136 3122   5.761   9.999   1.008  0.4690  0.1730  1.3452
    8CHTO   O51 3123   5.596  10.325   1.329 -0.2065  0.0550  0.3600
    8CHTO   C78 3124   5.578  10.223   1.462 -0.4047 -0.0495  0.3687
    8CHTO  H150 3125   5.546  10.124   1.421  0.7756  0.2564 -1.3340
    8CHTO   C80 3126   5.472  10.274   1.565  0.2240 -0.0330  0.5138
    8CHTO  H152 3127   5.486  10.384   1.570  0.5910  0.1012 -2.4885
    8CHTO   O55 3128   5.347  10.260   1.495 -0.0337  0.7167 -1.0713
    8CHTO  H134 3129   5.351  10.293   1.408  0.9379  3.5287 -0.0153
    8CHTO   C84 3130   5.485  10.203   1.708 -0.0154  0.1565 -0.4258
    8CHTO  H156 3131   5.451  10.102   1.683 -1.1651 -0.0891  1.9993
    8CHTO   N15 3132   5.391  10.262   1.802  0.2516 -0.1125 -0.2504
    8CHTO  H143 3133   5.430  10.288   1.898  0.5241 -1.4309  0.0040
    8CHTO  H144 3134   5.294  10.217   1.809 -0.9484  1.9922 -2.3414
    8CHTO   C87 3135   5.635  10.202   1.754 -0.2323  0.2203 -0.3010
    8CHTO  H159 3136   5.661  10.306   1.767  0.7119 -0.1344  0.6760
    8CHTO   O53 3137   5.716  10.129   1.644 -0.3212  0.1358  0.0504
    8CHTO   C82 3138   5.721  10.207   1.525 -0.2456 -0.5210 -0.5282
    8CHTO  H154 3139   5.759  10.307   1.547  1.5626 -1.0097 -1.3245
    8CHTO   C89 3140   5.818  10.143   1.417 -0.9339 -0.7883  0.3691
    8CHTO   O59 3141   5.792  10.010   1.368 -0.9314  0.0750 -0.5266
    8CHTO  H137 3142   5.723   9.964   1.413 -2.7813  3.2057 -0.0179
    8CHTO   O45 3143   5.668  10.120   1.909 -0.0148  0.6023 -0.2477
    8CHTO   C67 3144   5.702   9.984   1.890 -0.2735  0.1755  0.4620
    8CHTO  H124 3145   5.637   9.938   1.816  0.8472 -0.8145  0.0879
    8CHTO   C65 3146   5.856   9.958   1.857  0.1535 -0.4904  0.2532
    8CHTO  H122 3147   5.903  10.046   1.813  0.5740 -1.6435 -1.6862
    8CHTO   O44 3148   5.864   9.845   1.766 -0.4155 -0.7512 -0.4477
    8CHTO  H102 3149   5.924   9.781   1.799 -1.2290 -1.7558 -0.9053
    8CHTO   C63 3150   5.935   9.933   1.993  0.6540  0.1235 -0.3893
    8CHTO  H120 3151   5.930  10.025   2.051 -0.9785  1.1268 -2.0742
    8CHTO   N11 3152   6.080   9.934   1.984  0.1944  0.1639 -0.3696
    8CHTO  H108 3153   6.111  10.022   1.932  0.5153  1.5282  2.0219
    8CHTO  H109 3154   6.110   9.846   1.930 -0.8349 -1.1204  1.0944
    8CHTO   C61 3155   5.861   9.813   2.078  0.1396  0.2396  0.5917
    8CHTO  H118 3156   5.896   9.819   2.182 -0.8651 -1.1850  1.0265
    8CHTO   O40 3157   5.717   9.813   2.075  0.4044  0.3509  0.0141
    8CHTO   C68 3158   5.649   9.927   2.031  0.0570  0.6143  0.7407
    8CHTO  H125 3159   5.656  10.012   2.103 -1.1129  0.0109  1.5870
    8CHTO   C72 3160   5.507   9.886   2.036 -0.1927 -0.2147  0.0083
    8CHTO   O48 3161   5.433   9.928   2.155  0.0427 -0.8178  0.0048
    8CHTO  H105 3162   5.446   9.868   2.226  0.3184  0.1081  0.7314
    8CHTO   O38 3163   5.915   9.688   2.032 -0.6392  0.4442 -0.0872
    8CHTO   C55 3164   5.858   9.559   2.051 -0.0783  0.4467 -0.1401
    8CHTO  H112 3165   5.936   9.481   2.054 -0.1954  0.3034 -0.7387
    8CHTO   C56 3166   5.750   9.528   1.935 -0.1493 -0.5826 -0.1960
    8CHTO  H113 3167   5.696   9.622   1.914  2.4356  0.9409 -0.2971
    8CHTO   O42 3168   5.822   9.495   1.813 -0.1150  0.1750  0.0126
    8CHTO  H100 3169   5.781   9.532   1.738  0.0155  1.0389  0.3702
    8CHTO   C57 3170   5.656   9.409   1.973  0.0286 -0.0800  0.3725
    8CHTO  H114 3171   5.699   9.309   1.971 -1.6903 -0.8683  1.8084
    8CHTO   N10 3172   5.538   9.398   1.880  0.1182 -0.0403  0.0227
    8CHTO  H106 3173   5.534   9.315   1.811 -3.3624 -1.0427  1.3369
    8CHTO  H107 3174   5.530   9.487   1.819 -1.5409  1.9279  2.9860
    8CHTO   C58 3175   5.597   9.434   2.120  0.6784 -0.3658 -0.6214
    8CHTO  H115 3176   5.545   9.531   2.128  1.8996  0.1947  0.9292
    8CHTO   O37 3177   5.713   9.428   2.209  0.6886 -0.2048 -0.7906
    8CHTO   C59 3178   5.796   9.541   2.197 -1.1757 -0.1619 -0.8807
    8CHTO  H116 3179   5.737   9.627   2.229 -1.4080 -0.1892 -1.2268
    8CHTO   C70 3180   5.919   9.534   2.293  0.1851 -0.2318  0.4051
    8CHTO   O46 3181   5.892   9.552   2.431 -0.2316 -0.0373 -0.5461
    8CHTO  H103 3182   5.970   9.585   2.473  0.2614 -0.0524 -1.4512
    8CHTO   O39 3183   5.480   9.318   2.188 -0.0982 -0.0153 -0.1242
    8CHTO   C60 3184   5.352   9.373   2.209  0.1120  0.1060 -0.1541
    8CHTO  H117 3185   5.355   9.475   2.172  0.0260  0.1719  0.0191
    8CHTO   C62 3186   5.241   9.293   2.130 -0.0422 -0.3384  0.2373
    8CHTO  H119 3187   5.268   9.280   2.023 -0.0587 -1.3514  0.3440
    8CHTO   O43 3188   5.239   9.157   2.177  0.4372 -0.0146  0.9248
    8CHTO  H101 3189   5.173   9.108   2.132  0.0208  1.2013  0.1883
    8CHTO   C66 3190   5.103   9.373   2.149  0.5910 -0.4227 -0.0143
    8CHTO  H123 3191   5.121   9.477   2.123  0.4184 -0.2543  0.5391
    8CHTO   N12 3192   4.987   9.333   2.073 -0.5967 -0.4613 -0.4141
    8CHTO  H110 3193   4.907   9.403   2.090 -0.9678 -1.5900  2.7376
    8CHTO  H111 3194   4.946   9.238   2.104 -0.2840  0.2099  2.1703
    8CHTO   C69 3195   5.067   9.379   2.300 -0.1022 -0.6102  0.0086
    8CHTO  H126 3196   5.057   9.274   2.333  1.2383 -0.3175  1.3609
    8CHTO   O41 3197   5.181   9.448   2.390  0.3276  0.2699 -0.1076
    8CHTO   C64 3198   5.322   9.385   2.361  0.0694 -0.1210  0.2128
    8CHTO  H121 3199   5.334   9.286   2.410  0.7050  0.3864  1.0861
    8CHTO   C71 3200   5.425   9.478   2.433  0.3793 -0.1037  0.4229
    8CHTO   O47 3201   5.406   9.464   2.574 -0.5468  0.4458  0.8651
    8CHTO  H104 3202   5.320   9.488   2.604 -0.1070  0.0774  2.4317
    8CHTO   O34 3203   4.929   9.455   2.336  0.6821  0.0778 -0.4070
    8CHTO   C49 3204   4.887   9.604   2.365 -0.3403 -0.6054  0.1464
    8CHTO   H91 3205   4.876   9.624   2.472 -0.2415 -1.8506  0.4015
    8CHTO   C47 3206   4.750   9.635   2.303 -0.5785 -0.3229 -0.0140
    8CHTO   H89 3207   4.704   9.721   2.355  2.0201  1.0409  0.0795
    8CHTO   O33 3208   4.671   9.516   2.331  0.4583 -0.1860  0.5595
    8CHTO   H70 3209   4.596   9.546   2.377 -0.3617 -0.8744 -0.3104
    8CHTO   C45 3210   4.762   9.658   2.142  0.4642 -0.3238  0.1726
    8CHTO   H87 3211   4.814   9.573   2.095 -1.1852 -1.1564 -0.1985
    8CHTO    N8 3212   4.621   9.674   2.081 -0.3189  0.7836 -0.9065
    8CHTO   H75 3213   4.586   9.581   2.040 -0.1188  0.8827 -1.3074
    8CHTO   H76 3214   4.617   9.746   2.001  0.3739  0.4744 -1.2241
    8CHTO   C43 3215   4.858   9.779   2.111  0.1165  0.6472  0.3282
    8CHTO   H85 3216   4.865   9.788   2.002  3.2833  0.1345  0.4351
    8CHTO   O29 3217   4.987   9.747   2.170  0.5183 -0.4158 -0.5573
    8CHTO   C50 3218   4.993   9.692   2.303  0.3392 -0.1158 -0.3517
    8CHTO   H92 3219   5.090   9.639   2.299  1.4660  1.9439 -1.4274
    8CHTO   C54 3220   5.019   9.821   2.390 -0.0471 -0.3071  0.4226
    8CHTO   O36 3221   5.143   9.886   2.364  0.3437  0.0900 -0.6641
    8CHTO   H72 3222   5.218   9.835   2.388  0.0285  0.3300  0.8924
    8CHTO   O27 3223   4.799   9.904   2.154 -0.3364  0.1195 -0.0790
    8CHTO   C37 3224   4.766  10.021   2.070  0.5696  0.2254 -0.5648
    8CHTO   H79 3225   4.745   9.989   1.967 -0.5922 -0.3488 -0.1665
    8CHTO   C38 3226   4.642  10.090   2.133 -0.3829 -0.0506  1.0837
    8CHTO   H80 3227   4.667  10.116   2.238 -1.9585 -0.4504  1.5664
    8CHTO   O31 3228   4.524  10.007   2.132  0.3393  0.0061  0.1125
    8CHTO   H68 3229   4.508   9.973   2.046 -0.5379 -0.1195  0.3249
    8CHTO   C39 3230   4.610  10.230   2.065  0.0123  0.1220  0.3240
    8CHTO   H81 3231   4.575  10.200   1.966  1.1117  0.5973 -0.2292
    8CHTO    N7 3232   4.504  10.317   2.132  0.0168 -0.0856  0.2408
    8CHTO   H73 3233   4.411  10.264   2.115  0.5697 -0.7561 -0.7402
    8CHTO   H74 3234   4.506  10.418   2.094 -0.3633 -0.2394 -0.1909
    8CHTO   C40 3235   4.740  10.322   2.035 -0.6759  0.1372 -0.2146
    8CHTO   H82 3236   4.770  10.371   2.127 -0.8658 -2.5366  1.3013
    8CHTO   O26 3237   4.844  10.243   1.989 -0.0929 -0.5599 -0.1571
    8CHTO   C41 3238   4.881  10.125   2.068  0.4261  0.9482  0.6940
    8CHTO   H83 3239   4.898  10.162   2.170  4.4778 -0.5539  0.6322
    8CHTO   C52 3240   5.011  10.053   2.020 -0.4837  0.1305  0.1769
    8CHTO   O35 3241   5.118  10.155   1.978 -0.5449 -0.1366  0.2055
    8CHTO   H71 3242   5.184  10.150   2.044 -0.3367  2.1062  0.2176
    8CHTO   O28 3243   4.702  10.428   1.938 -0.7719 -0.1036  0.6282
    8CHTO   C42 3244   4.697  10.415   1.790 -0.1749  0.3952 -0.3661
    8CHTO   H84 3245   4.666  10.516   1.766  2.5786  1.3178 -0.1798
    8CHTO   C44 3246   4.590  10.316   1.730  0.5283  0.6313  0.1874
    8CHTO   H86 3247   4.609  10.216   1.768 -1.1367 -1.0898 -3.3083
    8CHTO   O32 3248   4.471  10.374   1.776 -0.1606  0.4985 -0.1432
    8CHTO   H69 3249   4.424  10.427   1.714 -1.2037  0.5990  0.7135
    8CHTO   C48 3250   4.608  10.319   1.576  1.0106  0.5798  0.2521
    8CHTO   H90 3251   4.585  10.418   1.537 -2.8959 -0.8439 -1.3428
    8CHTO    N9 3252   4.510  10.229   1.508 -0.4376  0.1849  0.5596
    8CHTO   H77 3253   4.549  10.212   1.408 -1.1864  0.6673  0.1793
    8CHTO   H78 3254   4.492  10.134   1.557 -2.3671 -0.4994 -1.3871
    8CHTO   C51 3255   4.756  10.301   1.530 -0.3727 -0.2350  0.6060
    8CHTO   H93 3256   4.785  10.198   1.550 -0.1462 -0.2084  0.4159
    8CHTO   O30 3257   4.844  10.391   1.589 -0.4001 -0.2769 -0.1611
    8CHTO   C46 3258   4.842  10.396   1.728 -0.6373  0.0426  0.5398
    8CHTO   H88 3259   4.889  10.300   1.749  0.3530 -0.2438 -2.6654
    8CHTO   C53 3260   4.937  10.512   1.780 -0.3746  0.0414 -0.0214
    8CHTO   O72 3261   4.892  10.645   1.765 -0.0841  0.0429  0.0753
    8CHTO  H199 3262   4.803  10.663   1.789  1.1167  4.1622  1.8503
    8CHTO   O22 3263   4.780  10.342   1.391 -0.0221 -0.2539  0.0407
    8CHTO   C31 3264   4.837  10.244   1.286  0.2759 -0.0704 -0.7662
    8CHTO   H59 3265   4.885  10.309   1.210  3.8925 -0.5933  0.9847
    8CHTO   C29 3266   4.943  10.138   1.329  0.0809 -0.3842  0.3798
    8CHTO   H57 3267   4.917  10.085   1.422 -0.3634 -0.3749  0.2591
    8CHTO   O21 3268   5.057  10.211   1.371 -0.0223 -0.6066 -0.0223
    8CHTO   H37 3269   5.100  10.161   1.438  0.5879  0.3062  0.2744
    8CHTO   C27 3270   4.975  10.026   1.220  0.3305  0.1132  0.5018
    8CHTO   H55 3271   5.034  10.077   1.142 -0.8138  2.2435  0.9759
    8CHTO    N5 3272   5.053   9.909   1.275 -0.4781  0.1451 -0.7166
    8CHTO   H43 3273   4.998   9.859   1.353 -0.7382  2.5748  0.7065
    8CHTO   H44 3274   5.097   9.848   1.198  0.9120  2.6254 -1.9368
    8CHTO   C25 3275   4.837   9.981   1.163  0.2142  0.4832 -0.5879
    8CHTO   H53 3276   4.777   9.937   1.244  2.9868  1.0575  1.8704
    8CHTO   O17 3277   4.757  10.097   1.116 -0.4605  0.3166  0.2230
    8CHTO   C32 3278   4.714  10.182   1.211  0.1897  1.1689 -0.0158
    8CHTO   H60 3279   4.650  10.129   1.281  0.0278  1.5447  0.1225
    8CHTO   C36 3280   4.627  10.294   1.149  0.0354 -0.1968  0.6207
    8CHTO   O25 3281   4.506  10.236   1.093 -0.4247 -0.0424  0.0255
    8CHTO   H40 3282   4.422  10.274   1.113  0.1259  1.2774 -0.1035
    8CHTO   O15 3283   4.851   9.882   1.035  0.1668  0.7170  0.8083
    8CHTO   C19 3284   4.911   9.881   0.904 -0.2322  0.3738  0.0193
    8CHTO   H47 3285   4.842   9.816   0.848 -0.2995 -0.2647  0.8402
    8CHTO   C20 3286   4.928  10.018   0.840  0.0243 -0.1820 -0.0921
    8CHTO   H48 3287   4.994  10.081   0.901  0.1829 -0.4635  0.0306
    8CHTO   O19 3288   4.795  10.077   0.841 -0.4654 -0.5349  0.4330
    8CHTO   H35 3289   4.783  10.124   0.921  0.3741 -0.2186  0.3790
    8CHTO   C21 3290   4.992  10.013   0.698 -0.3169 -1.3920  0.5099
    8CHTO   H49 3291   4.930   9.950   0.634 -0.1637 -1.5090  0.4783
    8CHTO    N4 3292   5.008  10.147   0.634 -0.0715 -0.6754 -0.0614
    8CHTO   H41 3293   4.997  10.151   0.527 -2.8795  2.0729  0.2593
    8CHTO   H42 3294   5.098  10.198   0.665  0.4495 -0.4672 -1.8776
    8CHTO   C22 3295   5.125   9.938   0.705  0.1420  0.0509  0.1997
    8CHTO   H50 3296   5.197   9.989   0.769 -0.0766 -1.3088  1.5703
    8CHTO   O14 3297   5.107   9.811   0.764  0.0342 -0.1098  0.0228
    8CHTO   C23 3298   5.050   9.805   0.894 -0.3937  0.2340  0.6027
    8CHTO   H51 3299   5.125   9.834   0.969 -0.8010 -1.2786  1.6365
    8CHTO   C34 3300   5.023   9.655   0.916  0.3037 -0.8115 -0.1662
    8CHTO   O23 3301   5.139   9.577   0.930 -0.6128  0.3866 -0.2307
    8CHTO   H38 3302   5.174   9.537   0.853  3.7860 -0.5157  2.0091
    8CHTO   O16 3303   5.184   9.904   0.575  0.1048 -0.1237 -0.2112
    8CHTO   C24 3304   5.345   9.846   0.578  0.1963 -0.8487 -0.3446
    8CHTO   H52 3305   5.377   9.808   0.675  0.3263 -2.9199 -1.1800
    8CHTO   C26 3306   5.438   9.966   0.541 -0.5398  0.4610  0.3237
    8CHTO   H54 3307   5.402  10.002   0.442 -0.1633  0.0590  0.0337
    8CHTO   O20 3308   5.417  10.062   0.650 -0.7955  0.2639 -0.1202
    8CHTO   H36 3309   5.398  10.144   0.610  0.2235  2.3884  3.5846
    8CHTO   C30 3310   5.588   9.919   0.518  0.5151  0.0934  0.0102
    8CHTO   H58 3311   5.626   9.888   0.616 -0.1664 -0.3331  0.1500
    8CHTO    N6 3312   5.672  10.030   0.465 -0.1659 -0.1167 -0.0659
    8CHTO   H45 3313   5.619  10.091   0.394 -0.6080  0.4215  0.7105
    8CHTO   H46 3314   5.724  10.095   0.535 -2.0625 -0.7719  2.0131
    8CHTO   C33 3315   5.586   9.795   0.426 -0.2336  0.1100 -0.3018
    8CHTO   H61 3316   5.568   9.819   0.320  2.1421 -1.2749 -1.0561
    8CHTO   O18 3317   5.493   9.695   0.461 -0.0450  0.3063 -1.0729
    8CHTO   C28 3318   5.354   9.725   0.487 -0.1302  0.2055 -0.1784
    8CHTO   H56 3319   5.310   9.755   0.392  1.3324  1.4167 -0.5000
    8CHTO   C35 3320   5.287   9.603   0.546  0.5957 -0.4063 -0.1143
    8CHTO   O24 3321   5.268   9.505   0.440 -0.0031 -0.4458  0.2219
    8CHTO   H39 3322   5.354   9.479   0.414 -0.1603 -0.5701 -0.1700
    8CHTO    O9 3323   5.719   9.740   0.428 -0.1248  0.1654  0.1929
    8CHTO   C13 3324   5.776   9.698   0.287  0.6058 -0.3597 -0.4869
    8CHTO   H26 3325   5.749   9.778   0.215 -0.5587 -1.2365 -1.0271
    8CHTO   C11 3326   5.730   9.554   0.238  0.2112  0.4252  0.0496
    8CHTO   H24 3327   5.621   9.568   0.233  0.1729 -0.1006 -0.8556
    8CHTO    O8 3328   5.766   9.455   0.342  0.0786  0.6885  0.5658
    8CHTO    H3 3329   5.721   9.373   0.339  0.6435  0.2944  2.3978
    8CHTO    C9 3330   5.801   9.529   0.096 -0.0617 -0.0457 -0.2309
    8CHTO   H22 3331   5.769   9.613   0.033 -0.4839 -2.0008 -2.6948
    8CHTO    N2 3332   5.746   9.421   0.009  0.1361 -0.2845 -0.3958
    8CHTO   H10 3333   5.650   9.393   0.051  0.1108  1.4127  0.7450
    8CHTO   H11 3334   5.737   9.448  -0.095 -0.2603  3.4850  0.5691
    8CHTO    C7 3335   5.960   9.538   0.110  0.1195 -0.4122 -0.3939
    8CHTO   H20 3336   6.001   9.600   0.028 -0.7177  0.4242 -0.1808
    8CHTO    O4 3337   5.996   9.585   0.241 -0.4615  0.4531  0.7686
    8CHTO   C14 3338   5.934   9.708   0.282 -0.0656 -0.1716 -0.1152
    8CHTO   H27 3339   5.954   9.784   0.203 -2.9984 -0.7661 -1.5027
    8CHTO   C18 3340   6.009   9.763   0.408 -0.4108 -0.0063  0.8692
    8CHTO   O13 3341   6.139   9.816   0.359  0.1004 -0.1324 -0.4109
    8CHTO    H7 3342   6.175   9.748   0.306 -0.3794  0.6311 -1.7649
    8CHTO    O2 3343   6.041   9.386   0.078  0.2646 -0.5719 -0.0659
    8CHTO    C1 3344   6.156   9.378   0.164  0.7924  0.2699 -0.1072
    8CHTO   H14 3345   6.132   9.403   0.270  2.1573 -0.6363  0.4438
    8CHTO    C2 3346   6.287   9.448   0.112  0.1944  0.7044 -0.2242
    8CHTO   H15 3347   6.299   9.425   0.006 -0.6809 -0.3802 -0.0932
    8CHTO    O6 3348   6.268   9.591   0.127 -0.2027  0.0412  0.3386
    8CHTO    H1 3349   6.292   9.643   0.053 -0.7848 -0.3210 -0.1166
    8CHTO    C3 3350   6.411   9.406   0.201  0.7863 -0.2673 -0.4116
    8CHTO   H16 3351   6.408   9.442   0.305  2.4965  0.1705 -0.5021
    8CHTO    N1 3352   6.535   9.455   0.136  0.1848  0.2451 -0.4337
    8CHTO    H8 3353   6.531   9.443   0.028  0.1823 -0.6925 -0.3310
    8CHTO    H9 3354   6.626   9.407   0.170 -1.3207 -0.9779  1.9293
    8CHTO    C4 3355   6.415   9.252   0.217 -0.2385 -1.1384  0.8382
    8CHTO   H17 3356   6.429   9.208   0.118  0.0184  0.8632 -0.0393
    8CHTO    O1 3357   6.288   9.205   0.271 -0.1011  0.0920  0.2270
    8CHTO    C5 3358   6.176   9.226   0.185  0.1655 -0.4637 -0.1710
    8CHTO   H18 3359   6.200   9.175   0.092  0.8252  0.1274 -0.3370
    8CHTO   C16 3360   6.060   9.154   0.243 -0.3583  0.1972  0.3507
    8CHTO   O11 3361   6.084   9.013   0.249 -0.0361  0.1795  0.1837
    8CHTO    H5 3362   6.017   8.964   0.208 -0.3910  2.3688 -1.9511
    8CHTO    O3 3363   6.516   9.199   0.309 -0.0198 -0.0968  0.1070
    8CHTO    C6 3364   6.572   9.065   0.278 -0.5765  0.1685 -0.2206
    8CHTO   H19 3365   6.516   9.013   0.200 -0.9713 -0.9578  0.8127
    8CHTO    C8 3366   6.717   9.075   0.237 -0.0556  0.3436  0.3589
    8CHTO   H21 3367   6.770   9.136   0.310 -0.2035  0.9169 -0.0083
    8CHTO    O7 3368   6.706   9.154   0.110 -0.3403 -0.0607  0.2596
    8CHTO    H2 3369   6.784   9.179   0.065 -0.0378 -1.0009  0.2451
    8CHTO   C12 3370   6.770   8.935   0.207 -0.2354  0.0136  0.1607
    8CHTO   H25 3371   6.705   8.889   0.130 -0.3515 -0.2665  0.4256
    8CHTO    N3 3372   6.907   8.938   0.160  0.1730  1.2336  0.6692
    8CHTO   H12 3373   6.954   8.843   0.182  1.3904  1.6472 -0.0836
    8CHTO   H13 3374   6.907   8.945   0.052  2.7591  1.1126  0.6250
    8CHTO   C15 3375   6.757   8.849   0.341  0.1301  0.7662 -0.2525
    8CHTO   H28 3376   6.816   8.889   0.424  2.3224 -2.5323 -0.0912
    8CHTO   O10 3377   6.785   8.711   0.317  0.6476 -0.1600 -0.0282
    8CHTO    H4 3378   6.876   8.693   0.315  1.0359  1.6406  0.2146
    8CHTO    O5 3379   6.621   8.851   0.380  0.0243  0.2271 -0.7275
    8CHTO   C10 3380   6.562   8.981   0.403  0.3460  0.8731  0.5095
    8CHTO   H23 3381   6.612   9.040   0.479 -1.5195  0.7563  1.8477
    8CHTO   C17 3382   6.419   8.956   0.452 -0.2438 -0.0731 -0.6489
    8CHTO   O12 3383   6.438   8.905   0.586  0.2676  0.1268 -0.3985
    8CHTO    H6 3384   6.357   8.867   0.615  0.9394  0.0244  1.3899
    9CHTO  H203 3385   6.553   3.635   0.972  0.6413 -0.5562  1.1032
    9CHTO   O82 3386   6.644   3.644   0.953  0.4077 -0.1791  0.1594
    9CHTO  C123 3387   6.689   3.563   0.840  0.1412  0.5290  0.1301
    9CHTO  H227 3388   6.649   3.461   0.850  2.2450 -0.3716 -0.5497
    9CHTO   O77 3389   6.635   3.634   0.725 -0.1616 -0.0523 -0.1970
    9CHTO  C118 3390   6.673   3.594   0.590 -0.7468 -0.2378  0.0393
    9CHTO  H222 3391   6.643   3.490   0.567 -0.7954 -0.4161  0.9106
    9CHTO  C125 3392   6.595   3.686   0.491  0.0550  1.2526 -0.4143
    9CHTO   O84 3393   6.631   3.819   0.516 -0.5541 -0.2170 -0.2618
    9CHTO  H205 3394   6.704   3.840   0.461 -2.0321 -1.6328 -2.8696
    9CHTO  C114 3395   6.828   3.607   0.583  0.0131 -0.3432  0.1114
    9CHTO  H218 3396   6.855   3.706   0.619  1.4471 -0.2498 -1.1518
    9CHTO  C116 3397   6.885   3.512   0.692 -0.0549 -0.6392 -0.8645
    9CHTO  H220 3398   6.846   3.409   0.677  0.0015 -0.9302  0.9489
    9CHTO   O79 3399   7.033   3.501   0.687 -0.3610 -0.2896  0.3016
    9CHTO  H201 3400   7.063   3.511   0.599  1.3805  2.3050  1.1225
    9CHTO  C120 3401   6.847   3.562   0.834  0.0281 -0.3787 -0.2617
    9CHTO  H224 3402   6.889   3.664   0.848 -1.7057  0.5865 -1.8032
    9CHTO   N21 3403   6.898   3.475   0.944 -0.4466  0.3622 -0.3629
    9CHTO  H211 3404   6.844   3.381   0.947  2.3703 -1.3174 -0.4290
    9CHTO  H212 3405   7.005   3.461   0.933 -0.6545 -0.5633 -1.2793
    9CHTO   O75 3406   6.876   3.585   0.450  0.1511  0.3271 -0.3987
    9CHTO  C112 3407   6.987   3.700   0.418  1.0801  0.1891 -0.0343
    9CHTO  H216 3408   7.064   3.704   0.497  0.8600 -2.0636  0.3234
    9CHTO   O73 3409   6.914   3.825   0.403  0.5589 -0.5613  0.1052
    9CHTO  C113 3410   6.994   3.944   0.386  1.1206  1.0179 -0.0876
    9CHTO  H217 3411   7.068   3.961   0.468 -0.1412  0.3577  1.1938
    9CHTO  C124 3412   6.890   4.057   0.383 -0.1357 -0.0051 -0.7252
    9CHTO   O83 3413   6.948   4.166   0.446 -0.1627 -0.0261 -0.2896
    9CHTO  H204 3414   6.993   4.214   0.379  0.8854 -1.8548 -0.9333
    9CHTO  C109 3415   7.078   3.932   0.248 -0.3906  0.2704 -0.2344
    9CHTO  H213 3416   7.008   3.939   0.163  0.4103  0.1651 -0.9117
    9CHTO  C110 3417   7.141   3.788   0.242 -0.0784  0.2073  0.1902
    9CHTO  H214 3418   7.229   3.794   0.306  0.4020 -0.5190 -0.3958
    9CHTO   O78 3419   7.202   3.770   0.107 -0.1900  0.6661  0.1681
    9CHTO  H200 3420   7.146   3.716   0.055 -1.7604  0.9657  1.4838
    9CHTO  C111 3421   7.053   3.668   0.288  0.1192  0.2819 -0.8920
    9CHTO  H215 3422   6.970   3.648   0.220  0.3821  0.7085 -1.3414
    9CHTO   N19 3423   7.133   3.546   0.300 -0.4998  0.0986  0.0892
    9CHTO  H207 3424   7.064   3.466   0.321  1.4155 -1.1298  1.8265
    9CHTO  H208 3425   7.182   3.536   0.204  2.8378  1.5179  1.5506
    9CHTO   O74 3426   7.173   4.044   0.232 -0.0100  0.0463  0.2116
    9CHTO  C115 3427   7.325   4.042   0.286  1.0423 -0.4751 -1.0056
    9CHTO  H219 3428   7.344   3.957   0.351  0.9264  0.6808  0.5595
    9CHTO   O76 3429   7.442   4.015   0.153 -0.0688 -0.3681  0.2859
    9CHTO  C122 3430   7.458   4.142   0.082 -0.2949  0.6496 -0.8463
    9CHTO  H226 3431   7.362   4.171   0.039 -0.6892  1.8713  0.8297
    9CHTO  C126 3432   7.566   4.129  -0.040  0.1517  0.2456  0.2160
    9CHTO   O85 3433   7.686   4.067  -0.001 -0.3914  0.4937  0.2902
    9CHTO  H206 3434   7.729   4.061  -0.084 -0.2759  2.4664  0.1700
    9CHTO  C121 3435   7.496   4.261   0.174  0.5433 -0.5140  0.7692
    9CHTO  H225 3436   7.584   4.226   0.233  0.7499 -0.9884  0.1819
    9CHTO   O81 3437   7.541   4.378   0.098 -0.7126  0.1014  0.0313
    9CHTO  H202 3438   7.502   4.385   0.012 -1.8363  1.7774  0.6515
    9CHTO  C119 3439   7.381   4.292   0.272  0.0915 -0.0513 -0.1794
    9CHTO  H223 3440   7.415   4.373   0.335  0.3302  0.6370 -1.1889
    9CHTO  C117 3441   7.342   4.174   0.372  0.2200 -0.3897  0.3410
    9CHTO  H221 3442   7.248   4.179   0.428  0.4759 -1.0194  0.8463
    9CHTO   N20 3443   7.446   4.150   0.481 -0.5210 -0.1704 -0.4315
    9CHTO  H209 3444   7.528   4.220   0.479  1.5130 -2.4393  0.9976
    9CHTO  H210 3445   7.410   4.157   0.582 -0.4525  2.5317 -0.5474
    9CHTO   O80 3446   7.250   4.356   0.189 -0.3695  0.1503 -0.1315
    9CHTO  C103 3447   7.123   4.417   0.279  0.0595 -1.0581  0.3935
    9CHTO  H190 3448   7.081   4.332   0.333  1.4921 -1.5467  0.7638
    9CHTO  C101 3449   7.144   4.534   0.387 -0.1568 -0.2611 -0.1278
    9CHTO  H188 3450   7.184   4.621   0.335 -2.5420 -0.3730 -2.2185
    9CHTO   O68 3451   7.238   4.486   0.506 -0.6018 -0.4572  0.1337
    9CHTO  H168 3452   7.311   4.541   0.529 -0.5810 -0.6293  0.4839
    9CHTO   C99 3453   6.994   4.587   0.427 -0.4271  0.2777 -0.1800
    9CHTO  H186 3454   6.941   4.507   0.483  0.4902  0.5699  1.1078
    9CHTO   N17 3455   6.999   4.700   0.521 -0.2811 -0.4257 -0.4832
    9CHTO  H174 3456   6.938   4.678   0.607 -1.1265 -0.5641 -1.1089
    9CHTO  H175 3457   7.101   4.721   0.547 -0.8197 -1.5712  2.7921
    9CHTO   C97 3458   6.908   4.619   0.305  0.4774 -0.1779  0.1186
    9CHTO  H184 3459   6.958   4.701   0.252  0.9843 -1.1180 -0.8589
    9CHTO   O64 3460   6.893   4.505   0.228  0.3468  0.1188  0.4259
    9CHTO  C104 3461   7.017   4.464   0.170  0.0299  0.3511  0.0205
    9CHTO  H191 3462   7.061   4.543   0.110  0.7490 -0.1691 -0.1412
    9CHTO  C108 3463   6.992   4.343   0.077  0.6378 -0.2832 -0.2855
    9CHTO   O71 3464   6.890   4.370  -0.016 -0.0680 -0.1907 -0.0671
    9CHTO  H171 3465   6.812   4.357   0.035 -1.1103  0.2502 -1.5151
    9CHTO   O62 3466   6.772   4.641   0.343  0.2727 -0.1399 -0.1429
    9CHTO   C91 3467   6.694   4.728   0.257 -0.0847 -0.4405 -0.5745
    9CHTO  H178 3468   6.729   4.726   0.153  1.8569 -0.9958  0.0646
    9CHTO   C92 3469   6.701   4.876   0.304 -0.0855 -1.2986 -0.5119
    9CHTO  H179 3470   6.800   4.908   0.340 -0.2517 -2.3955  0.9753
    9CHTO   O66 3471   6.672   4.967   0.200 -0.0874 -0.2566  0.2150
    9CHTO  H166 3472   6.583   4.972   0.172  0.4666  0.6484 -1.4319
    9CHTO   C93 3473   6.594   4.895   0.413  1.9198  0.0141 -0.4878
    9CHTO  H180 3474   6.587   5.003   0.436  3.5603  0.5595 -2.4082
    9CHTO   N16 3475   6.635   4.832   0.539 -0.7072 -0.3180  0.0941
    9CHTO  H172 3476   6.710   4.754   0.542  1.1106  1.4330  2.5331
    9CHTO  H173 3477   6.551   4.802   0.599 -1.1473 -0.8161 -0.7720
    9CHTO   C94 3478   6.445   4.851   0.366  0.3825 -0.3367  0.4973
    9CHTO  H181 3479   6.399   4.773   0.428 -0.4062 -1.3675 -1.3504
    9CHTO   O61 3480   6.449   4.791   0.237 -0.2911  0.2715 -0.2985
    9CHTO   C95 3481   6.545   4.686   0.234 -0.5422  0.8337  0.3732
    9CHTO  H182 3482   6.526   4.609   0.309 -2.4985  3.3698  2.5622
    9CHTO  C106 3483   6.527   4.621   0.091  0.4348 -0.2386  0.4339
    9CHTO   O69 3484   6.624   4.517   0.068  0.4467  0.5001  0.1378
    9CHTO  H169 3485   6.601   4.455   0.002 -0.2687 -0.3932  1.2049
    9CHTO   O63 3486   6.352   4.979   0.365  0.7214 -0.9409  0.1167
    9CHTO   C96 3487   6.301   5.038   0.503  0.0750  0.6949 -1.2220
    9CHTO  H183 3488   6.329   4.974   0.587 -1.6189  1.0020 -0.4082
    9CHTO   C98 3489   6.148   5.026   0.534 -1.0708  0.4813  0.0930
    9CHTO  H185 3490   6.094   5.071   0.450 -0.2889 -0.4715 -0.9423
    9CHTO   O67 3491   6.107   4.889   0.521  0.5996 -0.3289  0.1334
    9CHTO  H167 3492   6.167   4.833   0.567 -0.5901 -1.6908  0.0728
    9CHTO  C102 3493   6.121   5.103   0.676 -0.1090 -0.4640 -0.2170
    9CHTO  H189 3494   6.194   5.056   0.744 -1.4876 -3.9393 -1.0542
    9CHTO   N18 3495   5.987   5.080   0.729 -0.4287  0.2497 -0.1066
    9CHTO  H176 3496   5.967   4.996   0.794 -0.1787 -0.6550 -1.1934
    9CHTO  H177 3497   5.928   5.161   0.770 -1.3564  0.9226 -2.6794
    9CHTO  C105 3498   6.156   5.249   0.655  0.1760  0.3959 -0.1273
    9CHTO  H192 3499   6.065   5.308   0.639  0.6441  0.7663 -1.4905
    9CHTO   O65 3500   6.233   5.276   0.540  0.0523  0.2684  0.7433
    9CHTO  C100 3501   6.343   5.189   0.519  0.2093  0.0810 -0.3209
    9CHTO  H187 3502   6.381   5.213   0.418 -2.0343  1.9737 -0.7543
    9CHTO  C107 3503   6.459   5.201   0.613  0.2215 -0.0748 -0.2376
    9CHTO   O70 3504   6.533   5.325   0.619  0.0165 -1.0918 -0.7363
    9CHTO  H170 3505   6.587   5.326   0.542  0.6420 -0.3412 -0.2908
    9CHTO   O57 3506   6.229   5.296   0.801 -0.0468  0.6710 -0.3137
    9CHTO   C85 3507   6.228   5.436   0.849 -0.4137  0.3437 -0.6484
    9CHTO  H157 3508   6.173   5.499   0.776  0.6290  0.4639 -1.3321
    9CHTO   C83 3509   6.373   5.485   0.860  0.9230 -0.0532  0.3851
    9CHTO  H155 3510   6.409   5.486   0.757 -1.1822 -1.0710 -0.3903
    9CHTO   O56 3511   6.441   5.392   0.945 -0.1378 -0.0722  0.4730
    9CHTO  H135 3512   6.534   5.403   0.938 -0.5188  2.5039 -1.0896
    9CHTO   C81 3513   6.385   5.627   0.920  0.5364  0.0389  0.1947
    9CHTO  H153 3514   6.334   5.696   0.851  1.4007  0.0123 -0.4774
    9CHTO   N14 3515   6.517   5.691   0.922 -0.0672  0.4657  0.0118
    9CHTO  H141 3516   6.573   5.634   0.994 -0.5393  0.2617  0.2211
    9CHTO  H142 3517   6.505   5.788   0.965 -0.2453 -0.3856  1.9501
    9CHTO   C79 3518   6.303   5.642   1.051 -0.6012 -0.5007 -0.1978
    9CHTO  H151 3519   6.299   5.750   1.070 -0.6092 -0.4755 -0.3428
    9CHTO   O52 3520   6.170   5.591   1.039 -0.8014  0.2026 -0.7264
    9CHTO   C86 3521   6.169   5.452   0.991  0.4295 -0.1505  0.6221
    9CHTO  H158 3522   6.229   5.408   1.073  0.5205  1.2156  1.2940
    9CHTO   C90 3523   6.022   5.388   0.990 -0.5107 -1.1386 -0.1788
    9CHTO   O60 3524   5.930   5.469   0.922 -1.1590 -0.3560  0.4247
    9CHTO  H138 3525   5.850   5.421   0.915 -0.4270 -1.5735  0.1938
    9CHTO   O50 3526   6.377   5.593   1.165 -0.1374  0.4464  0.2271
    9CHTO   C73 3527   6.326   5.614   1.298  0.0780 -0.5317  0.6285
    9CHTO  H145 3528   6.216   5.621   1.295  0.2101  1.2436 -0.9517
    9CHTO   C74 3529   6.373   5.752   1.352  0.2789  0.0699  0.1305
    9CHTO  H146 3530   6.332   5.828   1.284 -0.8801  0.1413  0.8877
    9CHTO   O54 3531   6.320   5.777   1.484 -0.0057  0.6007 -0.0026
    9CHTO  H133 3532   6.349   5.862   1.509 -0.5547  0.4005  1.3243
    9CHTO   C75 3533   6.534   5.742   1.348  0.1926  0.6907  0.1651
    9CHTO  H147 3534   6.566   5.723   1.245 -1.8343  1.6428 -0.6635
    9CHTO   N13 3535   6.591   5.877   1.380 -0.5679 -0.0102  0.7659
    9CHTO  H139 3536   6.642   5.922   1.297  0.8450 -1.8248  0.6179
    9CHTO  H140 3537   6.677   5.865   1.445  0.2018  0.9495 -0.0635
    9CHTO   C76 3538   6.584   5.616   1.429  0.1032  0.3160  0.5934
    9CHTO  H148 3539   6.562   5.628   1.535 -0.8848 -2.6329  0.7741
    9CHTO   O49 3540   6.515   5.496   1.384  0.2336  0.1265 -0.1514
    9CHTO   C77 3541   6.371   5.498   1.388 -1.0750 -1.4722 -0.1420
    9CHTO  H149 3542   6.339   5.526   1.488  1.5273 -0.9307  0.5823
    9CHTO   C88 3543   6.297   5.371   1.338 -0.2300  0.0582 -0.5186
    9CHTO   O58 3544   6.151   5.350   1.414  0.6370  0.0140  0.2384
    9CHTO  H136 3545   6.096   5.417   1.381  0.8250 -0.4340 -0.9975
    9CHTO   O51 3546   6.741   5.604   1.402 -0.2813  0.2462  0.6203
    9CHTO   C78 3547   6.824   5.535   1.502 -0.5397  0.1822 -1.3177
    9CHTO  H150 3548   6.774   5.521   1.600  0.8244 -0.3696 -0.6874
    9CHTO   C80 3549   6.949   5.626   1.523  0.0091  0.2139  0.3491
    9CHTO  H152 3550   6.992   5.649   1.423 -0.0662  0.0060  0.2694
    9CHTO   O55 3551   6.918   5.756   1.575  0.0531  0.1715 -0.2064
    9CHTO  H134 3552   6.995   5.786   1.618  0.6490  0.0043 -1.1411
    9CHTO   C84 3553   7.061   5.559   1.612  0.0330 -0.2530  0.5997
    9CHTO  H156 3554   7.031   5.567   1.717 -0.7364  1.0826  0.2943
    9CHTO   N15 3555   7.186   5.632   1.602 -0.1065  0.6923 -0.1884
    9CHTO  H143 3556   7.225   5.644   1.503  1.3228  1.7833  0.4795
    9CHTO  H144 3557   7.189   5.727   1.650  0.8071  0.7539 -0.3414
    9CHTO   C87 3558   7.087   5.413   1.568 -0.2453  0.0774 -0.7426
    9CHTO  H159 3559   7.150   5.402   1.480  1.2415  0.3890  0.2675
    9CHTO   O53 3560   6.968   5.338   1.551  0.8674  0.4148  0.2594
    9CHTO   C82 3561   6.869   5.393   1.458  0.1106  0.8939  0.7128
    9CHTO  H154 3562   6.924   5.393   1.363 -0.5188 -1.5267  0.3170
    9CHTO   C89 3563   6.759   5.289   1.440  0.0615 -0.4311 -0.1571
    9CHTO   O59 3564   6.787   5.168   1.368  0.0544  0.5144  0.0922
    9CHTO  H137 3565   6.829   5.189   1.286 -0.7483 -0.3469 -0.5581
    9CHTO   O45 3566   7.180   5.339   1.688 -0.0922  0.4003  0.3355
    9CHTO   C67 3567   7.203   5.200   1.656 -0.2505  0.8742 -0.0607
    9CHTO  H124 3568   7.166   5.179   1.556 -0.1373 -1.5402  0.3700
    9CHTO   C65 3569   7.359   5.179   1.655  0.3286  0.1589 -0.0610
    9CHTO  H122 3570   7.409   5.272   1.682  0.2549  0.1164  0.2169
    9CHTO   O44 3571   7.405   5.134   1.523  0.4470 -0.5910 -0.1681
    9CHTO  H102 3572   7.425   5.042   1.524  1.6856 -0.3169  1.1172
    9CHTO   C63 3573   7.405   5.091   1.782 -0.4850 -0.1060  0.2812
    9CHTO  H120 3574   7.372   5.142   1.872 -1.0259  1.5014 -0.8089
    9CHTO   N11 3575   7.553   5.083   1.796  0.0315  0.3785 -0.4024
    9CHTO  H108 3576   7.576   5.187   1.793  0.5837  0.2790  0.3856
    9CHTO  H109 3577   7.593   5.041   1.706 -0.8356  1.4170 -1.2847
    9CHTO   C61 3578   7.332   4.948   1.774 -0.0643 -1.2081  0.0445
    9CHTO  H118 3579   7.339   4.910   1.877 -1.6284 -1.0642  0.2144
    9CHTO   O40 3580   7.190   4.963   1.738 -0.3817  0.5069  0.2738
    9CHTO   C68 3581   7.137   5.095   1.754  0.3873 -0.3013  0.3276
    9CHTO  H125 3582   7.158   5.119   1.860 -0.5880  1.7310  0.0933
    9CHTO   C72 3583   6.984   5.080   1.741 -0.6114 -0.0471  0.1930
    9CHTO   O48 3584   6.942   5.048   1.611 -0.1586 -0.0663 -0.2707
    9CHTO  H105 3585   6.932   4.955   1.606 -1.7322  0.0851 -0.0474
    9CHTO   O38 3586   7.392   4.855   1.678  0.1959  0.0098 -0.0874
    9CHTO   C55 3587   7.314   4.739   1.662 -0.1343  0.0125 -0.3044
    9CHTO  H112 3588   7.206   4.758   1.674 -0.1469 -0.3371  0.1474
    9CHTO   C56 3589   7.362   4.612   1.756  0.3474 -0.0244  0.3543
    9CHTO  H113 3590   7.470   4.595   1.742  0.3374 -1.3422  1.7019
    9CHTO   O42 3591   7.339   4.653   1.893 -0.5554 -0.2296  0.4636
    9CHTO  H100 3592   7.402   4.715   1.925  0.0742 -0.0244 -1.1028
    9CHTO   C57 3593   7.264   4.491   1.718  0.0172  0.4226  0.4125
    9CHTO  H114 3594   7.162   4.519   1.741 -0.5446 -0.3665 -1.0747
    9CHTO   N10 3595   7.287   4.367   1.796  0.3415 -0.3130  0.1668
    9CHTO  H106 3596   7.250   4.376   1.898  0.3804 -0.2776  0.1778
    9CHTO  H107 3597   7.256   4.276   1.748  0.0975 -0.8069  1.2405
    9CHTO   C58 3598   7.277   4.471   1.565  1.1269  0.6134  0.3424
    9CHTO  H115 3599   7.382   4.443   1.543  0.0002 -1.8186 -2.2415
    9CHTO   O37 3600   7.241   4.583   1.486 -0.0130  0.9946  0.5833
    9CHTO   C59 3601   7.330   4.694   1.510  0.2617 -0.1933  0.5158
    9CHTO  H116 3602   7.431   4.655   1.496  0.3431 -0.5096  1.9284
    9CHTO   C70 3603   7.286   4.808   1.418  0.0609  0.3091 -0.2424
    9CHTO   O46 3604   7.282   4.760   1.279 -0.3337  0.7828 -0.0567
    9CHTO  H103 3605   7.294   4.837   1.227  2.6785 -0.1998 -0.9072
    9CHTO   O39 3606   7.185   4.355   1.511 -0.4400  0.0646 -0.3927
    9CHTO   C60 3607   7.195   4.333   1.372  0.2410 -0.1444 -0.0452
    9CHTO  H117 3608   7.221   4.422   1.316 -0.2965 -1.2367 -2.0709
    9CHTO   C62 3609   7.300   4.221   1.346  0.0648 -0.0591 -0.8341
    9CHTO  H119 3610   7.396   4.268   1.379 -1.0566  2.7146 -1.3701
    9CHTO   O43 3611   7.269   4.099   1.420  0.0782 -1.1276 -0.2823
    9CHTO  H101 3612   7.183   4.067   1.402 -0.4018 -0.3890  0.7148
    9CHTO   C66 3613   7.311   4.199   1.187  0.4589  0.4665  0.5575
    9CHTO  H123 3614   7.323   4.295   1.137  1.1758 -1.0050 -2.1543
    9CHTO   N12 3615   7.425   4.117   1.146 -0.0981 -0.3084 -0.6920
    9CHTO  H110 3616   7.408   4.012   1.162  0.2313 -0.2167  0.2846
    9CHTO  H111 3617   7.477   4.148   1.056 -0.7301 -0.2751 -1.0452
    9CHTO   C69 3618   7.175   4.141   1.133  0.2187 -0.2014  0.1959
    9CHTO  H126 3619   7.147   4.038   1.166  0.1300 -0.2832 -0.1272
    9CHTO   O41 3620   7.048   4.249   1.180 -0.8488  0.3063  0.4718
    9CHTO   C64 3621   7.052   4.285   1.330  0.4932 -0.0800 -0.2181
    9CHTO  H121 3622   7.026   4.197   1.393 -2.0340 -0.0909 -1.2513
    9CHTO   C71 3623   6.939   4.383   1.366  0.5903  0.1056 -0.2717
    9CHTO   O47 3624   6.801   4.345   1.335 -0.3534 -0.6398 -0.6101
    9CHTO  H104 3625   6.739   4.370   1.400 -1.1746  1.5077 -2.1646
    9CHTO   O34 3626   7.179   4.154   0.963  0.0836 -0.3956 -0.1373
    9CHTO   C49 3627   7.157   4.024   0.856 -0.7586  0.8464  0.4412
    9CHTO   H91 3628   7.242   4.033   0.789  1.1425 -2.0005  2.3915
    9CHTO   C47 3629   7.030   4.047   0.771 -0.4597 -1.2588  0.7138
    9CHTO   H89 3630   7.043   3.974   0.688 -0.4285  0.7178 -1.0546
    9CHTO   O33 3631   7.040   4.178   0.713  0.2027  0.2929  0.2198
    9CHTO   H70 3632   6.992   4.252   0.745 -0.5699  0.1703 -0.6396
    9CHTO   C45 3633   6.894   4.024   0.841 -0.1501 -1.0835 -0.3776
    9CHTO   H87 3634   6.856   4.126   0.862  0.6553 -1.0261  0.8283
    9CHTO    N8 3635   6.788   3.960   0.757  0.4528  0.5825 -0.2188
    9CHTO   H75 3636   6.739   3.883   0.814  0.9726  1.5086  1.5292
    9CHTO   H76 3637   6.708   4.031   0.742  0.4606  0.6751  0.1505
    9CHTO   C43 3638   6.918   3.961   0.989  0.2586  0.9780  0.3877
    9CHTO   H85 3639   6.950   4.047   1.048 -0.7291  1.0219  0.8642
    9CHTO   O29 3640   7.013   3.857   0.983  0.2174  0.1964  0.1324
    9CHTO   C50 3641   7.144   3.887   0.927 -0.1546  0.2479 -0.2045
    9CHTO   H92 3642   7.218   3.887   1.007 -2.0081  1.5684  1.5702
    9CHTO   C54 3643   7.187   3.767   0.837 -0.2954  0.5262 -0.3526
    9CHTO   O36 3644   7.188   3.639   0.898  0.0043  0.4219 -0.2645
    9CHTO   H72 3645   7.215   3.564   0.848 -0.3153 -2.0710  3.1217
    9CHTO   O27 3646   6.796   3.910   1.051  0.2179 -0.2444 -0.4755
    9CHTO   C37 3647   6.754   3.891   1.191  0.7174  0.4465 -0.5037
    9CHTO   H79 3648   6.665   3.826   1.199  0.8263  0.1914 -1.3587
    9CHTO   C38 3649   6.875   3.829   1.273  0.6192 -0.0292  0.9780
    9CHTO   H80 3650   6.962   3.894   1.255  0.0127  0.4045 -0.4386
    9CHTO   O31 3651   6.900   3.695   1.224  0.1811 -0.7689  0.3627
    9CHTO   H68 3652   6.959   3.652   1.283  0.9825  0.7449  0.7010
    9CHTO   C39 3653   6.841   3.842   1.427  0.4523  0.7101 -0.0294
    9CHTO   H81 3654   6.764   3.765   1.435  1.9840 -0.6746  2.1787
    9CHTO    N7 3655   6.971   3.804   1.508 -0.3507 -0.4397  0.3277
    9CHTO   H73 3656   7.014   3.708   1.487  1.2001  0.5249 -1.0854
    9CHTO   H74 3657   7.048   3.875   1.482 -0.2263 -0.3824  0.8472
    9CHTO   C40 3658   6.782   3.983   1.470  0.2362  0.7365  0.0149
    9CHTO   H82 3659   6.868   4.051   1.464  3.6457 -3.2434  1.1689
    9CHTO   O26 3660   6.675   4.016   1.376  0.0875 -0.4693  0.2535
    9CHTO   C41 3661   6.713   4.036   1.240  0.3542  0.3128 -0.2624
    9CHTO   H83 3662   6.799   4.105   1.237  1.1235 -0.6208 -0.1792
    9CHTO   C52 3663   6.605   4.106   1.152 -0.0204  0.4689 -0.1792
    9CHTO   O35 3664   6.526   4.232   1.235 -0.1522 -0.0284 -0.9666
    9CHTO   H71 3665   6.581   4.288   1.286  0.1776 -0.2925 -1.0351
    9CHTO   O28 3666   6.739   3.984   1.609 -0.4661 -0.8766 -0.4253
    9CHTO   C42 3667   6.668   4.088   1.671 -0.2945 -0.3105  0.0224
    9CHTO   H84 3668   6.665   4.060   1.776 -0.0844 -4.2275 -0.9292
    9CHTO   C44 3669   6.518   4.098   1.627 -0.5429 -0.0091  0.5577
    9CHTO   H86 3670   6.516   4.093   1.519  1.6617  0.4926  0.4798
    9CHTO   O32 3671   6.461   3.976   1.672 -0.3826 -0.1719 -0.3140
    9CHTO   H69 3672   6.377   3.963   1.633 -0.7193  1.6640 -0.2381
    9CHTO   C48 3673   6.442   4.223   1.681  0.9232 -0.5115 -0.0031
    9CHTO   H90 3674   6.426   4.206   1.788  0.2649  1.1810  0.1872
    9CHTO    N9 3675   6.302   4.247   1.625 -0.8243  0.7140 -0.3061
    9CHTO   H77 3676   6.239   4.163   1.649  0.2299 -0.0757 -0.2574
    9CHTO   H78 3677   6.304   4.254   1.517 -1.3884  1.1026 -0.2945
    9CHTO   C51 3678   6.536   4.352   1.653 -1.1276  0.1947 -0.9821
    9CHTO   H93 3679   6.557   4.358   1.546  0.6981  2.7661 -0.5093
    9CHTO   O30 3680   6.659   4.339   1.732 -0.3663  0.2636 -0.1099
    9CHTO   C46 3681   6.739   4.221   1.663 -0.7583 -0.2893  0.3689
    9CHTO   H88 3682   6.755   4.254   1.561 -0.3558  1.7037  1.0571
    9CHTO   C53 3683   6.879   4.217   1.736 -0.6897  0.8690  0.1276
    9CHTO   O72 3684   6.976   4.159   1.648 -0.0902  0.9850 -0.5718
    9CHTO  H199 3685   6.953   4.071   1.625 -0.0155  0.8426 -0.1195
    9CHTO   O22 3686   6.470   4.483   1.691 -0.1990  0.5403  0.6192
    9CHTO   C31 3687   6.503   4.607   1.619 -0.1804 -0.8129 -0.8488
    9CHTO   H59 3688   6.456   4.686   1.681  1.6596  0.5509 -1.1664
    9CHTO   C29 3689   6.654   4.640   1.626 -0.5294 -0.2490  0.2776
    9CHTO   H57 3690   6.703   4.545   1.599  0.3357  0.0216  0.8851
    9CHTO   O21 3691   6.699   4.655   1.761  0.0178  0.2367  0.6473
    9CHTO   H37 3692   6.642   4.614   1.824  1.3747 -3.0353 -0.1516
    9CHTO   C27 3693   6.696   4.753   1.516 -0.4362  0.3791 -0.4449
    9CHTO   H55 3694   6.657   4.850   1.551  1.9140  1.1194  0.2747
    9CHTO    N5 3695   6.839   4.770   1.504  0.2144 -0.4784  0.3482
    9CHTO   H43 3696   6.882   4.747   1.600  0.2232 -1.6202  0.0776
    9CHTO   H44 3697   6.866   4.869   1.470 -1.5702  0.0078  0.2927
    9CHTO   C25 3698   6.637   4.707   1.375  0.3583 -0.3714 -0.5987
    9CHTO   H53 3699   6.669   4.602   1.369 -0.5863 -0.7760  1.0246
    9CHTO   O17 3700   6.492   4.715   1.390 -0.2203 -0.3166  0.3452
    9CHTO   C32 3701   6.436   4.618   1.479 -0.5799 -0.1227  0.2307
    9CHTO   H60 3702   6.450   4.521   1.430 -0.0334  0.3274 -0.5186
    9CHTO   C36 3703   6.288   4.637   1.503  0.1960  0.3955 -0.3482
    9CHTO   O25 3704   6.217   4.650   1.383 -0.4158  0.3807  0.5995
    9CHTO   H40 3705   6.132   4.610   1.387 -0.9381  1.2031 -1.6478
    9CHTO   O15 3706   6.683   4.803   1.254 -0.3794 -0.2336  0.3999
    9CHTO   C19 3707   6.698   4.750   1.118 -1.0413 -0.2082 -0.1171
    9CHTO   H47 3708   6.757   4.825   1.062  0.9234 -2.4432 -1.1085
    9CHTO   C20 3709   6.778   4.609   1.107 -0.6974 -0.6584  0.3299
    9CHTO   H48 3710   6.733   4.531   1.170 -2.0124 -1.0365 -1.0692
    9CHTO   O19 3711   6.909   4.628   1.158 -0.1678 -0.5681  0.2325
    9CHTO   H35 3712   6.972   4.568   1.124 -0.8232 -1.7124  1.0168
    9CHTO   C21 3713   6.785   4.570   0.950  0.4717  0.1702  0.4342
    9CHTO   H49 3714   6.856   4.637   0.900  0.6639 -1.7837 -2.0031
    9CHTO    N4 3715   6.853   4.441   0.919 -0.5267  0.0502  0.0278
    9CHTO   H41 3716   6.867   4.417   0.815 -1.0539  1.5430 -0.4115
    9CHTO   H42 3717   6.946   4.438   0.973 -0.4974  0.9748  0.0435
    9CHTO   C22 3718   6.641   4.578   0.883 -0.2180  1.5941 -0.1653
    9CHTO   H50 3719   6.576   4.508   0.935 -2.1156  2.9553 -0.6749
    9CHTO   O14 3720   6.580   4.704   0.910 -0.4406 -0.0112  0.0544
    9CHTO   C23 3721   6.554   4.747   1.045 -0.1383 -0.3046 -0.3025
    9CHTO   H51 3722   6.490   4.667   1.083  1.9487 -1.3756  1.0507
    9CHTO   C34 3723   6.486   4.885   1.050  0.3809  0.7331  0.2451
    9CHTO   O23 3724   6.373   4.879   0.966  0.2799  0.2034  0.0057
    9CHTO   H38 3725   6.300   4.914   1.014  0.1873 -0.2751  0.2106
    9CHTO   O16 3726   6.641   4.569   0.734 -0.6479 -0.3687 -0.0552
    9CHTO   C24 3727   6.544   4.471   0.676  0.5462  0.3732  0.1275
    9CHTO   H52 3728   6.521   4.393   0.748 -0.1911  2.4662  2.2096
    9CHTO   C26 3729   6.606   4.387   0.562 -0.2780 -0.3029 -0.9847
    9CHTO   H54 3730   6.652   4.459   0.491  1.3130 -0.1648  0.1490
    9CHTO   O20 3731   6.717   4.312   0.620 -0.4327 -0.1277  0.7633
    9CHTO   H36 3732   6.763   4.262   0.555  2.3581 -0.8707  3.2396
    9CHTO   C30 3733   6.499   4.299   0.492  0.3827 -0.7393 -0.3097
    9CHTO   H58 3734   6.462   4.219   0.558 -0.9278 -0.7621 -1.0528
    9CHTO    N6 3735   6.560   4.232   0.368  0.6685  0.8085 -0.0063
    9CHTO   H45 3736   6.481   4.171   0.326 -0.7065  1.7514  1.1758
    9CHTO   H46 3737   6.636   4.164   0.405  0.9519  0.3231 -1.4260
    9CHTO   C33 3738   6.375   4.385   0.456  0.5341 -0.4574  0.4618
    9CHTO   H61 3739   6.403   4.455   0.376 -0.6572  1.0734  1.3415
    9CHTO   O18 3740   6.326   4.455   0.568 -0.3540  0.0083 -0.4721
    9CHTO   C28 3741   6.413   4.548   0.635 -0.1548 -0.1808  0.0125
    9CHTO   H56 3742   6.445   4.634   0.577  3.8133 -0.6809  1.2790
    9CHTO   C35 3743   6.330   4.602   0.757 -0.6714  0.7675  0.1550
    9CHTO   O24 3744   6.203   4.655   0.716  0.2018  0.4699  0.3282
    9CHTO   H39 3745   6.145   4.583   0.706  0.6974 -0.3447  2.7967
    9CHTO    O9 3746   6.272   4.306   0.400  0.1756  0.2997  0.3087
    9CHTO   C13 3747   6.178   4.366   0.295 -0.1404  0.5218  0.2078
    9CHTO   H26 3748   6.239   4.387   0.204  1.1972 -2.1676  0.4145
    9CHTO   C11 3749   6.093   4.494   0.352  0.0062 -0.5879  0.6173
    9CHTO   H24 3750   6.164   4.574   0.377  1.3541 -1.0362 -1.6390
    9CHTO    O8 3751   6.028   4.462   0.475  0.0812 -0.4204 -0.4069
    9CHTO    H3 3752   6.007   4.370   0.470  0.6688 -0.6415  0.9052
    9CHTO    C9 3753   6.005   4.545   0.235 -0.1001  0.7193  0.6261
    9CHTO   H22 3754   6.077   4.558   0.154 -0.3305  0.2638  0.3423
    9CHTO    N2 3755   5.942   4.680   0.267  0.0681  0.1872 -0.2438
    9CHTO   H10 3756   5.999   4.770   0.287 -0.6026  0.6005 -0.1774
    9CHTO   H11 3757   5.864   4.660   0.339 -2.0772  3.2246 -1.6189
    9CHTO    C7 3758   5.904   4.442   0.185  0.7739 -0.3254  0.3697
    9CHTO   H20 3759   5.863   4.486   0.092 -1.1036 -0.1187  1.2859
    9CHTO    O4 3760   5.972   4.318   0.159 -0.3190  0.2631  0.2538
    9CHTO   C14 3761   6.071   4.262   0.234 -0.3724 -0.6320  0.7560
    9CHTO   H27 3762   6.134   4.194   0.173 -2.5068  0.8847 -3.2934
    9CHTO   C18 3763   5.994   4.173   0.342  0.3234 -0.9111  0.3631
    9CHTO   O13 3764   5.920   4.060   0.288 -0.0641 -0.1092  0.0801
    9CHTO    H7 3765   5.852   4.100   0.237 -0.2409  0.0248  0.4227
    9CHTO    O2 3766   5.777   4.417   0.290 -0.3549  0.7405 -0.1895
    9CHTO    C1 3767   5.650   4.398   0.231 -0.4310  0.3469 -0.3315
    9CHTO   H14 3768   5.667   4.340   0.138 -1.6494  1.1378 -1.0502
    9CHTO    C2 3769   5.574   4.537   0.200  1.2948 -0.7972 -0.1260
    9CHTO   H15 3770   5.581   4.590   0.296  2.5564  0.7650 -1.0339
    9CHTO    O6 3771   5.641   4.616   0.099 -0.6701 -0.2134  0.2057
    9CHTO    H1 3772   5.594   4.692   0.071 -0.7509 -1.2619 -2.6540
    9CHTO    C3 3773   5.414   4.518   0.158 -0.0402 -0.0747 -1.1068
    9CHTO   H16 3774   5.422   4.491   0.052 -0.8949 -2.1416 -0.6852
    9CHTO    N1 3775   5.342   4.646   0.180  0.7607  0.2980  0.1901
    9CHTO    H8 3776   5.338   4.673   0.285  1.4604 -0.1093  0.3259
    9CHTO    H9 3777   5.401   4.723   0.133  1.5619  0.3738  1.2868
    9CHTO    C4 3778   5.344   4.397   0.236  0.7139  0.5380 -0.6857
    9CHTO   H17 3779   5.319   4.428   0.337  0.9157 -0.3706 -0.3538
    9CHTO    O1 3780   5.430   4.287   0.260 -0.2268 -0.4224  0.3673
    9CHTO    C5 3781   5.554   4.317   0.329 -0.6446 -0.5066  0.2114
    9CHTO   H18 3782   5.546   4.368   0.425  0.7416 -4.5935  2.6318
    9CHTO   C16 3783   5.618   4.173   0.358  0.0622  0.1123 -0.4546
    9CHTO   O11 3784   5.526   4.095   0.444 -0.2782  0.2654  0.1943
    9CHTO    H5 3785   5.571   4.013   0.453  0.6962  0.8622  0.7661
    9CHTO    O3 3786   5.236   4.329   0.171  0.0649  0.7394 -0.6394
    9CHTO    C6 3787   5.103   4.365   0.216 -0.0969  0.0540  0.1236
    9CHTO   H19 3788   5.102   4.443   0.292 -2.4474  0.6988 -0.5040
    9CHTO    C8 3789   5.006   4.419   0.102  0.0508  0.6719  0.2289
    9CHTO   H21 3790   5.000   4.345   0.022  0.1791  1.1495 -0.2228
    9CHTO    O7 3791   5.067   4.545   0.054  0.2681 -0.0025 -0.1673
    9CHTO    H2 3792   5.031   4.566  -0.030 -1.8259  2.0030  1.1671
    9CHTO   C12 3793   4.860   4.442   0.151 -0.3664 -0.5435  0.1596
    9CHTO   H25 3794   4.879   4.510   0.237  1.9658 -2.4499  1.2259
    9CHTO    N3 3795   4.761   4.498   0.047  0.1822 -0.4845 -0.2810
    9CHTO   H12 3796   4.741   4.422  -0.028 -3.2119  0.0770 -0.0378
    9CHTO   H13 3797   4.791   4.592   0.004  0.6757 -0.7900 -0.6053
    9CHTO   C15 3798   4.813   4.313   0.220  0.1505 -0.5401 -0.2348
    9CHTO   H28 3799   4.805   4.230   0.149  2.1018 -1.6317  0.7799
    9CHTO   O10 3800   4.674   4.327   0.298 -0.2938 -0.2107  0.0820
    9CHTO    H4 3801   4.683   4.402   0.354 -0.2607  0.0855 -0.3197
    9CHTO    O5 3802   4.909   4.274   0.320  0.2912 -0.5671 -0.0535
    9CHTO   C10 3803   5.042   4.242   0.288  0.3141  0.3505  0.7596
    9CHTO   H23 3804   5.034   4.160   0.216  2.5375  1.0084 -0.2826
    9CHTO   C17 3805   5.121   4.192   0.414 -0.2744  0.1923  0.6223
    9CHTO   O12 3806   5.141   4.299   0.508  0.1993  0.2176  0.4170
    9CHTO    H6 3807   5.151   4.262   0.594 -0.7834 -1.0668 -0.0154
   10CHTO  H203 3808   3.873   7.444   2.441 -0.4593  0.2658 -0.5279
   10CHTO   O82 3809   3.799   7.405   2.484 -0.0129  0.0087  0.0135
   10CHTO  C123 3810   3.808   7.434   2.626 -0.2598  0.1299  0.2209
   10CHTO  H227 3811   3.851   7.534   2.643 -2.0000  0.7290  1.2618
   10CHTO   O77 3812   3.670   7.442   2.671  0.5880  0.3410 -0.0386
   10CHTO  C118 3813   3.645   7.504   2.803  0.6723  0.0758  0.0465
   10CHTO  H222 3814   3.666   7.612   2.806 -1.6934  0.5421  1.2896
   10CHTO  C125 3815   3.478   7.479   2.821  0.4738 -0.3843  0.1997
   10CHTO   O84 3816   3.439   7.496   2.957  0.9618  0.5460  0.1958
   10CHTO  H205 3817   3.390   7.576   2.969 -1.4752 -0.9487  0.6459
   10CHTO  C114 3818   3.717   7.425   2.915  0.1923  0.1467 -0.2533
   10CHTO  H218 3819   3.659   7.335   2.935 -0.1556  0.1222 -1.3950
   10CHTO  C116 3820   3.857   7.359   2.874 -0.5819 -0.2518 -0.0262
   10CHTO  H220 3821   3.923   7.445   2.900 -1.5036  0.4411  0.0598
   10CHTO   O79 3822   3.889   7.254   2.969  0.2873 -0.1778 -0.9672
   10CHTO  H201 3823   3.883   7.292   3.054 -0.5028 -2.0465 -0.1693
   10CHTO  C120 3824   3.864   7.322   2.721 -0.1037  0.0077 -0.1494
   10CHTO  H224 3825   3.808   7.226   2.714  2.1784 -1.1433 -3.6178
   10CHTO   N21 3826   4.003   7.288   2.688 -0.7383  0.3889 -0.2110
   10CHTO  H211 3827   4.065   7.375   2.702 -0.5912  0.1160  0.8733
   10CHTO  H212 3828   4.036   7.221   2.765 -0.3905  0.2824 -0.4518
   10CHTO   O75 3829   3.719   7.519   3.019  0.2224 -0.4810 -0.5164
   10CHTO  C112 3830   3.691   7.447   3.185  0.8686  0.3806  0.0987
   10CHTO  H216 3831   3.715   7.340   3.191 -0.2140  0.0696 -1.0051
   10CHTO   O73 3832   3.552   7.472   3.218 -0.9059  1.2375  0.7127
   10CHTO  C113 3833   3.509   7.444   3.350 -0.6922 -0.3206  0.1880
   10CHTO  H217 3834   3.535   7.340   3.377  0.0464 -0.1909  0.0033
   10CHTO  C124 3835   3.356   7.462   3.352  0.1171 -0.2555 -0.5442
   10CHTO   O83 3836   3.294   7.407   3.236  0.2155  0.5027 -0.0914
   10CHTO  H204 3837   3.217   7.459   3.229 -0.5969 -0.5362  1.0169
   10CHTO  C109 3838   3.578   7.546   3.440  0.1704  0.5701 -0.2358
   10CHTO  H213 3839   3.556   7.645   3.399  0.1317 -0.4241 -2.7200
   10CHTO  C110 3840   3.728   7.526   3.433 -0.2718  0.1848 -0.0967
   10CHTO  H214 3841   3.744   7.430   3.481 -1.2919 -1.6465 -3.2449
   10CHTO   O78 3842   3.794   7.623   3.515 -0.0988 -0.0125 -0.9511
   10CHTO  H200 3843   3.757   7.705   3.487  0.8701  0.8792  0.2988
   10CHTO  C111 3844   3.778   7.531   3.285  0.2841  0.1192  0.4278
   10CHTO  H215 3845   3.766   7.634   3.247 -1.0326 -0.5190 -0.9536
   10CHTO   N19 3846   3.922   7.500   3.279  0.1011  0.3685  0.4818
   10CHTO  H207 3847   3.962   7.431   3.352 -0.4677  0.6465  1.0715
   10CHTO  H208 3848   3.973   7.595   3.284  1.1227 -0.1326 -0.3159
   10CHTO   O74 3849   3.533   7.526   3.579  0.3632 -0.2722  0.0567
   10CHTO  C115 3850   3.574   7.633   3.695 -0.1626 -0.0892 -0.2583
   10CHTO  H219 3851   3.681   7.630   3.714 -0.2065 -2.6341 -0.2432
   10CHTO   O76 3852   3.544   7.779   3.654 -0.3960 -0.2972 -0.2682
   10CHTO  C122 3853   3.401   7.803   3.616 -0.1066 -0.4433 -0.7929
   10CHTO  H226 3854   3.375   7.750   3.524 -0.5549 -0.1124 -0.8611
   10CHTO  C126 3855   3.385   7.960   3.586 -0.6020  0.1034  0.0902
   10CHTO   O85 3856   3.249   8.006   3.557 -0.0279 -0.4402  0.3693
   10CHTO  H206 3857   3.263   8.072   3.493  1.6464 -1.4993 -0.3902
   10CHTO  C121 3858   3.308   7.747   3.733 -0.2075 -0.3005  0.4054
   10CHTO  H225 3859   3.228   7.822   3.752  0.8542  0.8650  0.4021
   10CHTO   O81 3860   3.236   7.625   3.693 -0.3808  0.2423 -0.4535
   10CHTO  H202 3861   3.152   7.648   3.657  0.1236 -0.7080 -2.2886
   10CHTO  C119 3862   3.391   7.720   3.862 -0.8043 -0.5873  0.4684
   10CHTO  H223 3863   3.449   7.810   3.883 -0.1775 -1.1208  1.0705
   10CHTO  C117 3864   3.500   7.604   3.832  0.1149 -0.1733 -0.5161
   10CHTO  H221 3865   3.458   7.505   3.815 -1.2602  0.2149  0.4572
   10CHTO   N20 3866   3.583   7.591   3.955  0.0531  1.0914  0.0918
   10CHTO  H209 3867   3.552   7.666   4.027  0.5753  0.5201  0.9281
   10CHTO  H210 3868   3.557   7.490   3.986  1.1910  1.0378  0.9051
   10CHTO   O80 3869   3.292   7.712   4.003 -0.0838 -0.0511 -0.2053
   10CHTO  C103 3870   3.264   7.825   4.080 -0.4154 -0.8550  0.2413
   10CHTO  H190 3871   3.353   7.885   4.100 -0.0594 -1.4800  0.5410
   10CHTO  C101 3872   3.140   7.929   4.047 -0.3429  0.4526 -0.9143
   10CHTO  H188 3873   3.050   7.869   4.033 -0.3341  0.4446 -0.9377
   10CHTO   O68 3874   3.167   8.025   3.917 -0.0203 -0.0982 -0.7132
   10CHTO  H168 3875   3.224   8.096   3.939  1.2035 -1.4456  0.6558
   10CHTO   C99 3876   3.106   8.028   4.161  0.1499  1.0433 -0.1498
   10CHTO  H186 3877   3.190   8.100   4.170  2.0563 -1.4391  2.9067
   10CHTO   N17 3878   2.976   8.101   4.136  0.3921  0.2931 -0.1143
   10CHTO  H174 3879   2.926   8.134   4.226  1.0589 -1.6987  1.0107
   10CHTO  H175 3880   2.902   8.034   4.093 -0.1149  0.5236  0.3863
   10CHTO   C97 3881   3.097   7.953   4.301  0.4549 -0.1354 -0.3415
   10CHTO  H184 3882   3.003   7.897   4.295 -0.2965  0.8111  2.1515
   10CHTO   O64 3883   3.212   7.869   4.315 -0.5481 -0.1909 -0.1594
   10CHTO  C104 3884   3.226   7.760   4.218  0.9163 -0.5763  0.4328
   10CHTO  H191 3885   3.128   7.712   4.213  0.9687 -0.5055 -1.7164
   10CHTO  C108 3886   3.324   7.654   4.274 -0.3236 -0.0347 -0.3197
   10CHTO   O71 3887   3.272   7.583   4.386 -0.2863  0.3626 -0.3787
   10CHTO  H171 3888   3.344   7.554   4.437 -1.9268 -0.8793  1.2975
   10CHTO   O62 3889   3.102   8.049   4.414 -0.1119  0.0294 -0.5205
   10CHTO   C91 3890   2.996   8.042   4.518 -0.1406  0.3329 -0.1702
   10CHTO  H178 3891   2.913   7.987   4.473 -2.9770  1.3887  3.4448
   10CHTO   C92 3892   2.938   8.187   4.549 -0.4942 -0.2687  0.0890
   10CHTO  H179 3893   3.027   8.248   4.572  2.2482 -4.6727  1.9835
   10CHTO   O66 3894   2.878   8.234   4.426  0.0902 -0.6019  0.2558
   10CHTO  H166 3895   2.829   8.313   4.438 -0.8710 -1.2162  0.4357
   10CHTO   C93 3896   2.832   8.188   4.669  0.1942 -0.9618 -0.4236
   10CHTO  H180 3897   2.735   8.157   4.627  0.8343 -1.1347 -1.7904
   10CHTO   N16 3898   2.817   8.324   4.726 -0.5868  0.2786 -0.2971
   10CHTO  H172 3899   2.727   8.327   4.786  0.0870  1.2280  0.6928
   10CHTO  H173 3900   2.909   8.362   4.767 -1.5859  1.3749  0.9928
   10CHTO   C94 3901   2.869   8.087   4.786 -0.3188 -0.4423  0.4067
   10CHTO  H181 3902   2.960   8.114   4.839 -0.7302 -1.5720  1.7143
   10CHTO   O61 3903   2.904   7.964   4.733  0.4711 -0.2311  0.0914
   10CHTO   C95 3904   3.024   7.970   4.654  0.1062 -0.0087  0.3878
   10CHTO  H182 3905   3.098   8.030   4.707  0.6914  0.1182 -0.5523
   10CHTO  C106 3906   3.079   7.824   4.649 -0.3671  0.0825 -0.6430
   10CHTO   O69 3907   3.216   7.824   4.698 -0.1775 -0.2213 -0.0204
   10CHTO  H169 3908   3.274   7.856   4.631 -0.4503 -0.3467 -0.3203
   10CHTO   O63 3909   2.745   8.063   4.887 -0.0900 -0.2653  0.2862
   10CHTO   C96 3910   2.772   7.939   4.997  0.3019 -0.2527 -0.1988
   10CHTO  H183 3911   2.873   7.898   4.985  0.5187  0.6777 -1.7155
   10CHTO   C98 3912   2.661   7.821   4.984  0.1229 -0.4058  0.2685
   10CHTO  H185 3913   2.559   7.862   4.984  0.1404 -0.3634  0.9006
   10CHTO   O67 3914   2.684   7.759   4.855  1.2741  1.0217  0.3686
   10CHTO  H167 3915   2.663   7.821   4.788  0.8096 -1.5423 -1.9436
   10CHTO  C102 3916   2.680   7.708   5.092  0.1521  0.2296  0.1018
   10CHTO  H189 3917   2.781   7.670   5.071  0.5550 -0.3016  2.8564
   10CHTO   N18 3918   2.593   7.590   5.088  0.2694  0.0990  0.0098
   10CHTO  H176 3919   2.489   7.621   5.092 -0.0691 -1.2494  2.3066
   10CHTO  H177 3920   2.610   7.512   5.160 -0.3764  1.6369  1.8895
   10CHTO  C105 3921   2.675   7.784   5.231 -0.4298 -0.2678  1.4819
   10CHTO  H192 3922   2.574   7.819   5.250 -1.0246  1.0852 -3.5960
   10CHTO   O65 3923   2.773   7.893   5.237  0.3319 -0.0426 -0.2340
   10CHTO  C100 3924   2.774   7.999   5.140 -0.0713 -0.7103 -0.3297
   10CHTO  H187 3925   2.685   8.062   5.154 -1.1401 -1.3887 -3.6052
   10CHTO  C107 3926   2.906   8.079   5.169 -0.2699  0.2294 -0.2394
   10CHTO   O70 3927   2.918   8.138   5.301 -0.1913 -0.0363  0.0444
   10CHTO  H170 3928   2.867   8.097   5.368 -0.3337  0.1356  0.0411
   10CHTO   O57 3929   2.723   7.664   5.343  0.3017 -0.5310  0.4348
   10CHTO   C85 3930   2.644   7.668   5.464  0.3122  0.6304  0.0466
   10CHTO  H157 3931   2.538   7.694   5.444 -0.0303 -0.8676 -0.1273
   10CHTO   C83 3932   2.685   7.790   5.557  0.0871 -0.3867  0.2124
   10CHTO  H155 3933   2.653   7.881   5.505  2.0248  0.9199  1.2536
   10CHTO   O56 3934   2.830   7.790   5.559  0.9364  0.6608 -0.3685
   10CHTO  H135 3935   2.852   7.882   5.560 -0.0797  0.9112  1.2510
   10CHTO   C81 3936   2.606   7.787   5.689  0.2457 -0.2994  0.1301
   10CHTO  H153 3937   2.500   7.791   5.663 -0.4139  0.8625  2.7424
   10CHTO   N14 3938   2.625   7.908   5.771 -0.6895  0.0154  0.6404
   10CHTO  H141 3939   2.533   7.949   5.807 -0.4402 -1.0884  2.6480
   10CHTO  H142 3940   2.679   7.985   5.720  0.1687 -0.0860  1.3743
   10CHTO   C79 3941   2.625   7.647   5.768 -0.3527  0.0325  0.8013
   10CHTO  H151 3942   2.558   7.647   5.853 -1.5927  0.9696 -0.1527
   10CHTO   O52 3943   2.581   7.544   5.673 -0.5269  0.0868  0.5616
   10CHTO   C86 3944   2.656   7.534   5.550 -0.3333  0.1347  0.5422
   10CHTO  H158 3945   2.762   7.520   5.581 -0.2676 -1.3321 -0.2951
   10CHTO   C90 3946   2.617   7.415   5.459 -0.6134  0.5463 -0.0980
   10CHTO   O60 3947   2.484   7.408   5.416  0.4326  0.2651  0.0398
   10CHTO  H138 3948   2.477   7.417   5.323 -1.8285 -0.7756  0.0706
   10CHTO   O50 3949   2.762   7.632   5.808  0.2078  0.2366 -0.3426
   10CHTO   C73 3950   2.859   7.587   5.905  0.6293  0.2567  0.4396
   10CHTO  H145 3951   2.827   7.495   5.955 -1.5186  1.9934  2.3577
   10CHTO   C74 3952   2.877   7.701   6.015  0.4390 -0.4310  0.9158
   10CHTO  H146 3953   2.778   7.729   6.051 -0.2315 -0.8442 -0.5674
   10CHTO   O54 3954   2.952   7.643   6.125  0.3762 -0.6532  0.1742
   10CHTO  H133 3955   2.967   7.707   6.192 -1.4535 -2.4505  2.3861
   10CHTO   C75 3956   2.954   7.824   5.948 -0.1117 -0.7978  0.3709
   10CHTO  H147 3957   2.889   7.873   5.874  2.2948  1.9056 -0.0435
   10CHTO   N13 3958   2.973   7.929   6.045 -0.2423  0.0491  0.0439
   10CHTO  H139 3959   3.046   7.917   6.123 -2.0228  0.4704  1.8259
   10CHTO  H140 3960   2.889   7.986   6.081 -0.8380  0.4530 -1.9229
   10CHTO   C76 3961   3.091   7.783   5.886  0.1982  0.2830  0.0268
   10CHTO  H148 3962   3.159   7.744   5.961  0.7868 -1.1428 -1.2196
   10CHTO   O49 3963   3.066   7.668   5.791  0.1530 -0.3783  0.1306
   10CHTO   C77 3964   2.998   7.553   5.842 -0.4274 -0.3640 -0.2366
   10CHTO  H149 3965   3.058   7.510   5.922  3.5949  1.4858 -2.1279
   10CHTO   C88 3966   2.982   7.449   5.726 -0.0269  0.4614 -0.7497
   10CHTO   O58 3967   3.114   7.416   5.673 -0.6035 -0.0007 -0.3999
   10CHTO  H136 3968   3.181   7.480   5.659 -0.1695 -0.4009 -0.1603
   10CHTO   O51 3969   3.166   7.881   5.803 -0.0891 -0.2782 -0.0128
   10CHTO   C78 3970   3.342   7.847   5.792  0.0495 -0.7179  0.2233
   10CHTO  H150 3971   3.356   7.737   5.806 -0.4903 -0.6014  1.7430
   10CHTO   C80 3972   3.416   7.916   5.908 -0.1333 -0.8977  0.1996
   10CHTO  H152 3973   3.421   8.027   5.895 -1.3931 -0.6755  1.4751
   10CHTO   O55 3974   3.352   7.889   6.034 -0.3390  0.4048 -0.3244
   10CHTO  H134 3975   3.384   7.940   6.106 -1.3005 -0.5603  0.7979
   10CHTO   C84 3976   3.567   7.864   5.903 -0.4320 -0.0447  0.9017
   10CHTO  H156 3977   3.564   7.758   5.925 -1.1387 -0.4733 -1.1446
   10CHTO   N15 3978   3.649   7.933   6.013 -0.5414 -0.1648  0.6718
   10CHTO  H143 3979   3.743   7.882   6.021 -1.5455 -2.4032 -1.2058
   10CHTO  H144 3980   3.662   8.038   6.001 -2.8603  0.3175  2.0663
   10CHTO   C87 3981   3.632   7.906   5.769  0.3556  0.4503  0.3087
   10CHTO  H159 3982   3.650   8.013   5.776 -0.7948  0.6082  0.9637
   10CHTO   O53 3983   3.538   7.862   5.644  0.4039  0.3370  0.2221
   10CHTO   C82 3984   3.404   7.896   5.659  0.4042  0.1722  0.5888
   10CHTO  H154 3985   3.390   8.004   5.656 -0.1438  0.0619 -1.7069
   10CHTO   C89 3986   3.324   7.839   5.544  0.5223 -0.5199 -0.5740
   10CHTO   O59 3987   3.368   7.898   5.422  0.2515 -0.4807 -0.6883
   10CHTO  H137 3988   3.325   7.980   5.411 -0.3517 -0.8071 -0.7614
   10CHTO   O45 3989   3.785   7.821   5.763  0.5215 -0.1885 -0.0171
   10CHTO   C67 3990   3.897   7.898   5.730 -0.0086 -0.0842  0.5756
   10CHTO  H124 3991   3.871   8.004   5.732 -0.1045 -0.0968  0.0502
   10CHTO   C65 3992   4.005   7.870   5.841 -0.8934  0.0151  0.6322
   10CHTO  H122 3993   3.962   7.795   5.907 -2.1144  0.3582  0.2309
   10CHTO   O44 3994   4.030   7.997   5.904  0.4696 -0.5263  0.5851
   10CHTO  H102 3995   4.072   7.989   5.988  0.7356 -0.4327  0.4613
   10CHTO   C63 3996   4.141   7.805   5.782 -0.4062 -0.1557 -0.4548
   10CHTO  H120 3997   4.117   7.707   5.743 -0.0913  0.3481 -1.9389
   10CHTO   N11 3998   4.246   7.759   5.884  0.7927 -0.2054  0.1442
   10CHTO  H108 3999   4.344   7.765   5.841  0.3569  0.1629 -0.8259
   10CHTO  H109 4000   4.216   7.665   5.924  2.2328 -1.8323 -2.3980
   10CHTO   C61 4001   4.187   7.889   5.662  0.0607  0.4234 -0.6174
   10CHTO  H118 4002   4.269   7.829   5.620  1.2523  1.9687 -0.5517
   10CHTO   O40 4003   4.084   7.908   5.559 -0.4313 -0.2198 -0.4006
   10CHTO   C68 4004   3.951   7.864   5.586 -0.2713  0.6048 -0.5895
   10CHTO  H125 4005   3.954   7.755   5.565  0.5725  0.4735  0.1970
   10CHTO   C72 4006   3.855   7.930   5.480 -0.4531  0.1985  0.6320
   10CHTO   O48 4007   3.890   7.896   5.346 -0.1092  0.4636 -0.1419
   10CHTO  H105 4008   3.821   7.850   5.304  1.1560 -0.5071 -1.2193
   10CHTO   O38 4009   4.234   8.021   5.696 -0.0854 -0.0035 -0.2599
   10CHTO   C55 4010   4.349   8.076   5.632 -0.7374 -0.2554 -0.2500
   10CHTO  H112 4011   4.376   8.011   5.547  1.9691  0.5765 -0.0793
   10CHTO   C56 4012   4.464   8.079   5.741  0.0574  0.5197  0.1195
   10CHTO  H113 4013   4.410   8.117   5.829  0.0478  0.9689 -0.0808
   10CHTO   O42 4014   4.510   7.951   5.776 -0.3935 -0.0756 -0.0743
   10CHTO  H100 4015   4.509   7.900   5.697  0.9257 -1.0933  0.5443
   10CHTO   C57 4016   4.579   8.180   5.695 -0.2876 -0.5258 -0.0605
   10CHTO  H114 4017   4.630   8.129   5.614  1.6866 -0.3727  1.0375
   10CHTO   N10 4018   4.678   8.195   5.805 -0.9094 -0.0696 -0.0784
   10CHTO  H106 4019   4.749   8.274   5.785 -0.0478 -0.5209  1.1809
   10CHTO  H107 4020   4.729   8.106   5.840  1.3311  0.9344 -0.6940
   10CHTO   C58 4021   4.512   8.306   5.642 -0.7544  0.0183 -0.5624
   10CHTO  H115 4022   4.449   8.355   5.719  0.6295 -1.8737  1.8574
   10CHTO   O37 4023   4.430   8.274   5.527  0.4735 -0.4948 -0.9656
   10CHTO   C59 4024   4.311   8.206   5.561  0.0226 -1.1590 -0.0613
   10CHTO  H116 4025   4.255   8.271   5.628 -0.1208 -0.7502 -0.5735
   10CHTO   C70 4026   4.231   8.196   5.433 -0.0600  1.2146  0.2538
   10CHTO   O46 4027   4.300   8.126   5.328  0.2659  0.1143 -0.3783
   10CHTO  H103 4028   4.311   8.192   5.263 -1.9376  0.6126 -0.2858
   10CHTO   O39 4029   4.620   8.416   5.569  0.2282  0.0299 -0.0035
   10CHTO   C60 4030   4.586   8.554   5.575  0.2640 -0.0344  0.2185
   10CHTO  H117 4031   4.492   8.569   5.627  0.0342 -0.4902 -0.0625
   10CHTO   C62 4032   4.684   8.643   5.650 -0.3064  0.3107  0.2718
   10CHTO  H119 4033   4.677   8.611   5.756 -1.0828 -0.3798  0.0168
   10CHTO   O43 4034   4.812   8.620   5.592 -0.3109  0.5932 -0.3217
   10CHTO  H101 4035   4.880   8.638   5.654 -0.6023  1.5409 -0.2660
   10CHTO   C66 4036   4.639   8.799   5.645 -0.6231 -0.4162  0.3229
   10CHTO  H123 4037   4.543   8.810   5.694 -0.4107 -2.3822  1.2267
   10CHTO   N12 4038   4.732   8.887   5.709 -0.3108  0.3085 -0.3177
   10CHTO  H110 4039   4.708   8.992   5.697  0.1010  0.6075  1.3618
   10CHTO  H111 4040   4.838   8.872   5.696 -0.4812 -0.4729 -0.8286
   10CHTO   C69 4041   4.624   8.845   5.494  0.0063  0.9991  1.1129
   10CHTO  H126 4042   4.715   8.829   5.434 -0.8594  1.4560 -0.3324
   10CHTO   O41 4043   4.520   8.745   5.426 -0.3879  0.3648 -0.6699
   10CHTO   C64 4044   4.568   8.602   5.423  0.2238  0.3953 -0.1208
   10CHTO  H121 4045   4.672   8.600   5.385  0.7153 -0.5832  1.2069
   10CHTO   C71 4046   4.464   8.530   5.340 -0.2823 -0.5409  0.3292
   10CHTO   O47 4047   4.450   8.579   5.209  0.0295 -0.0554  0.0915
   10CHTO  H104 4048   4.520   8.538   5.162 -0.5777 -1.3313  0.2729
   10CHTO   O34 4049   4.576   9.002   5.493 -0.0490 -0.2258  1.0738
   10CHTO   C49 4050   4.443   9.084   5.434  0.4818 -0.3689  0.4812
   10CHTO   H91 4051   4.474   9.189   5.437 -0.7410  0.0070  0.2942
   10CHTO   C47 4052   4.316   9.067   5.524  0.4084  0.0671  0.0147
   10CHTO   H89 4053   4.324   9.130   5.615  1.5713  1.6395 -1.1542
   10CHTO   O33 4054   4.323   8.931   5.571 -0.2516  0.1717  0.3817
   10CHTO   H70 4055   4.398   8.935   5.628 -0.3765 -0.7880  0.6183
   10CHTO   C45 4056   4.181   9.107   5.442 -0.5882 -0.9674 -0.2118
   10CHTO   H87 4057   4.133   9.015   5.404 -1.2241 -0.6122 -0.2713
   10CHTO    N8 4058   4.089   9.168   5.542  0.2809  0.1957 -0.2577
   10CHTO   H75 4059   3.996   9.114   5.551  1.1192 -1.2751 -0.2226
   10CHTO   H76 4060   4.069   9.271   5.518 -0.0904  0.1087 -0.3287
   10CHTO   C43 4061   4.220   9.189   5.318 -0.2102 -0.4625  0.1468
   10CHTO   H85 4062   4.130   9.229   5.270  2.1100  1.9418 -2.4105
   10CHTO   O29 4063   4.295   9.102   5.230 -0.2097 -0.3372  0.6195
   10CHTO   C50 4064   4.413   9.041   5.287 -0.1957  0.3722 -0.2117
   10CHTO   H92 4065   4.406   8.931   5.280 -1.4499  0.5691 -3.0091
   10CHTO   C54 4066   4.532   9.072   5.193 -0.6076 -0.2389 -0.0342
   10CHTO   O36 4067   4.550   9.203   5.158 -0.3394 -0.6209  0.1464
   10CHTO   H72 4068   4.625   9.220   5.103 -0.2648 -0.9872  0.1315
   10CHTO   O27 4069   4.292   9.311   5.352  0.0216 -0.1157  0.1975
   10CHTO   C37 4070   4.366   9.422   5.297  0.7157 -0.1588 -0.3386
   10CHTO   H79 4071   4.467   9.386   5.273  0.5565 -0.8923  0.1026
   10CHTO   C38 4072   4.290   9.489   5.172  0.1414  0.5900  0.4470
   10CHTO   H80 4073   4.185   9.506   5.200  0.6282  1.6002  1.6931
   10CHTO   O31 4074   4.303   9.397   5.060 -0.1609 -0.1394  0.2992
   10CHTO   H68 4075   4.299   9.436   4.975  1.8372  0.7605  0.5886
   10CHTO   C39 4076   4.350   9.634   5.129  0.0865 -0.1771  0.3611
   10CHTO   H81 4077   4.448   9.613   5.084 -0.7012 -2.4040 -0.3820
   10CHTO    N7 4078   4.267   9.705   5.031 -0.7952 -0.0892  0.8092
   10CHTO   H73 4079   4.305   9.674   4.935 -0.7260  1.4806  0.3206
   10CHTO   H74 4080   4.267   9.813   5.034 -0.5006 -0.0294 -0.8630
   10CHTO   C40 4081   4.388   9.730   5.249  0.5265 -0.0313 -0.9500
   10CHTO   H82 4082   4.288   9.767   5.275  0.6728 -0.4053  0.1774
   10CHTO   O26 4083   4.453   9.654   5.355 -0.0675  0.6905  0.0922
   10CHTO   C41 4084   4.376   9.542   5.405 -0.6110  0.0616 -0.2467
   10CHTO   H83 4085   4.272   9.569   5.429 -0.3734  0.9847 -0.2440
   10CHTO   C52 4086   4.457   9.493   5.525  0.0868 -0.7065 -0.4488
   10CHTO   O35 4087   4.511   9.613   5.612 -0.6247 -0.6974 -0.5945
   10CHTO   H71 4088   4.438   9.653   5.656  0.8764 -0.1664  1.4548
   10CHTO   O28 4089   4.482   9.832   5.207  0.1671 -0.2504 -0.2404
   10CHTO   C42 4090   4.498   9.960   5.283 -0.6664  0.4973 -0.0888
   10CHTO   H84 4091   4.457   9.930   5.380 -1.6440 -2.5687 -1.3992
   10CHTO   C44 4092   4.407  10.073   5.236 -0.3082  0.0203  0.4953
   10CHTO   H86 4093   4.408  10.070   5.127 -2.2868  0.6217  0.4456
   10CHTO   O32 4094   4.271  10.037   5.267  0.1778 -0.4415 -0.7155
   10CHTO   H69 4095   4.237   9.970   5.211 -1.1609 -0.5556  0.1994
   10CHTO   C48 4096   4.446  10.214   5.302 -0.3008  0.4103 -0.1166
   10CHTO   H90 4097   4.427  10.215   5.409 -0.2816  1.0614 -0.1130
   10CHTO    N9 4098   4.362  10.328   5.243 -0.3425 -0.1752  0.4506
   10CHTO   H77 4099   4.369  10.427   5.285 -0.2914  0.6877 -1.5628
   10CHTO   H78 4100   4.377  10.328   5.136  0.4821  0.6038  0.5610
   10CHTO   C51 4101   4.603  10.240   5.289  0.2251  0.6819  0.0151
   10CHTO   H93 4102   4.637  10.240   5.186  2.5359  1.8013  0.7360
   10CHTO   O30 4103   4.662  10.143   5.360  0.3003  0.8216 -0.3043
   10CHTO   C46 4104   4.649  10.003   5.307 -0.7641  1.1691 -0.2363
   10CHTO   H88 4105   4.703  10.000   5.213  0.5070  0.6843  0.4893
   10CHTO   C53 4106   4.723   9.913   5.414 -0.3837  0.1244 -0.3167
   10CHTO   O72 4107   4.705   9.775   5.388  0.2902  0.1804 -0.3761
   10CHTO  H199 4108   4.790   9.745   5.362  0.5494  1.0742 -0.5695
   10CHTO   O22 4109   4.656  10.353   5.355 -0.7621  0.1281  0.4119
   10CHTO   C31 4110   4.770  10.432   5.308 -0.3579  0.3241  0.2098
   10CHTO   H59 4111   4.791  10.501   5.392  4.8795 -0.3198 -0.3704
   10CHTO   C29 4112   4.900  10.348   5.283 -0.5758 -0.0015 -0.6720
   10CHTO   H57 4113   4.881  10.266   5.212 -1.1420  0.0349 -0.5616
   10CHTO   O21 4114   4.927  10.282   5.411  0.4636  0.2654 -0.5784
   10CHTO   H37 4115   4.979  10.205   5.402  2.0987  1.0814  1.4179
   10CHTO   C27 4116   5.023  10.430   5.222  0.5009 -0.2430 -0.6751
   10CHTO   H55 4117   5.052  10.507   5.295 -1.3383 -1.4122  1.3791
   10CHTO    N5 4118   5.136  10.339   5.188  0.5812 -0.1127  0.2730
   10CHTO   H43 4119   5.104  10.277   5.106  2.4447 -2.7912  1.5376
   10CHTO   H44 4120   5.172  10.293   5.278 -1.4388 -2.6425 -0.1503
   10CHTO   C25 4121   4.970  10.503   5.094  0.5829 -0.3523 -0.5471
   10CHTO   H53 4122   4.937  10.427   5.022  0.7958 -1.1377  0.1803
   10CHTO   O17 4123   4.851  10.591   5.131  0.1033 -0.5126 -0.5961
   10CHTO   C32 4124   4.739  10.515   5.174  0.5614  0.9740 -0.0579
   10CHTO   H60 4125   4.699  10.449   5.097 -0.1634 -0.0893  1.1985
   10CHTO   C36 4126   4.624  10.615   5.198 -0.3839  0.3104  0.0581
   10CHTO   O25 4127   4.606  10.705   5.089 -0.5466  0.0386 -0.0046
   10CHTO   H40 4128   4.524  10.751   5.086 -0.6430 -0.1580 -0.5073
   10CHTO   O15 4129   5.085  10.602   5.038 -0.4045 -0.4484 -0.2994
   10CHTO   C19 4130   5.131  10.669   4.923 -0.3991  0.3672 -0.4280
   10CHTO   H47 4131   5.119  10.598   4.840 -0.9209 -0.6069  0.4825
   10CHTO   C20 4132   5.043  10.785   4.872  0.7403 -0.0495 -0.0431
   10CHTO   H48 4133   5.037  10.867   4.945  1.3858  0.5777 -0.6819
   10CHTO   O19 4134   4.908  10.746   4.838  0.1937  0.2889  0.5635
   10CHTO   H35 4135   4.883  10.688   4.907 -0.4237 -1.6014 -1.2104
   10CHTO   C21 4136   5.092  10.860   4.737 -0.1845  0.1938 -0.1090
   10CHTO   H49 4137   5.061  10.804   4.649  2.2367 -0.4460 -0.5974
   10CHTO    N4 4138   5.019  10.989   4.714  0.4571 -0.2203  0.3826
   10CHTO   H41 4139   4.980  11.034   4.804 -1.9185 -0.1983 -0.6026
   10CHTO   H42 4140   4.935  10.965   4.650  0.2750  0.3268  0.4157
   10CHTO   C22 4141   5.242  10.890   4.740  0.4069 -0.5724  0.0864
   10CHTO   H50 4142   5.257  10.983   4.795 -2.1771  0.0779 -0.2634
   10CHTO   O14 4143   5.310  10.776   4.794  0.4267 -0.0165 -0.1569
   10CHTO   C23 4144   5.276  10.716   4.918  0.0344  0.1898 -0.4299
   10CHTO   H51 4145   5.299  10.793   4.993  1.1784 -0.3780 -0.1913
   10CHTO   C34 4146   5.368  10.592   4.956 -0.2661 -0.2828 -0.0019
   10CHTO   O23 4147   5.345  10.495   4.856 -0.3959  0.1465  0.0218
   10CHTO   H38 4148   5.396  10.417   4.868 -0.2831  0.1238 -0.5617
   10CHTO   O16 4149   5.294  10.914   4.605  0.2841  0.0675 -0.3130
   10CHTO   C24 4150   5.451  10.930   4.592  0.7524 -0.4137  0.3918
   10CHTO   H52 4151   5.502  10.888   4.679  0.5688  1.7833  1.5841
   10CHTO   C26 4152   5.490  11.080   4.576  0.2253 -0.5361  0.8576
   10CHTO   H54 4153   5.426  11.125   4.498  1.3136  0.2862  0.4270
   10CHTO   O20 4154   5.453  11.151   4.696 -0.2914 -0.3908 -0.1277
   10CHTO   H36 4155   5.506  11.117   4.766  0.8046 -0.7056 -1.1095
   10CHTO   C30 4156   5.641  11.094   4.539 -0.7415  0.0944 -0.6398
   10CHTO   H58 4157   5.696  11.075   4.632 -1.7126  0.6217  0.0511
   10CHTO    N6 4158   5.674  11.234   4.507  0.6751 -0.5299 -0.1613
   10CHTO   H45 4159   5.663  11.290   4.599 -1.9881  1.4994 -1.6490
   10CHTO   H46 4160   5.774  11.246   4.467  1.4378 -0.7833  1.6301
   10CHTO   C33 4161   5.681  10.999   4.418 -0.2660  0.4163  0.3607
   10CHTO   H61 4162   5.628  11.025   4.326  1.7856  1.3743 -0.5946
   10CHTO   O18 4163   5.644  10.869   4.454 -0.3712  0.4894  0.0249
   10CHTO   C28 4164   5.500  10.851   4.471  0.0317  0.2573 -0.6406
   10CHTO   H56 4165   5.452  10.883   4.379  0.8410  0.8040 -0.8820
   10CHTO   C35 4166   5.468  10.697   4.489  0.1776 -0.8536 -0.4029
   10CHTO   O24 4167   5.482  10.631   4.367 -0.2244  0.5103 -0.1292
   10CHTO   H39 4168   5.397  10.608   4.335 -1.6677  2.2015  2.3070
   10CHTO    O9 4169   5.820  11.009   4.386  0.5328 -0.0811  0.4180
   10CHTO   C13 4170   5.887  10.914   4.274 -0.4507  0.2831  0.6385
   10CHTO   H26 4171   5.861  10.963   4.177  1.1546 -0.1748 -0.0530
   10CHTO   C11 4172   5.845  10.758   4.285  0.0079  0.1975 -0.4439
   10CHTO   H24 4173   5.739  10.751   4.253  0.1033  0.7940 -0.8991
   10CHTO    O8 4174   5.851  10.712   4.419  0.1593  0.4788 -0.5649
   10CHTO    H3 4175   5.782  10.651   4.434 -0.5552  1.3237 -0.3335
   10CHTO    C9 4176   5.924  10.675   4.180  0.1839  1.0567  0.1968
   10CHTO   H22 4177   5.903  10.729   4.086  0.1468  1.4113  0.4098
   10CHTO    N2 4178   5.884  10.534   4.162  0.5237 -0.1516  0.7442
   10CHTO   H10 4179   5.777  10.520   4.171  0.4091 -1.3671 -1.9819
   10CHTO   H11 4180   5.931  10.475   4.239  2.7906  0.5263 -0.0679
   10CHTO    C7 4181   6.076  10.688   4.210  0.0694 -0.6915  0.9005
   10CHTO   H20 4182   6.113  10.628   4.124  0.2565  1.5442 -0.6007
   10CHTO    O4 4183   6.120  10.831   4.200  0.0579  0.1876  0.1041
   10CHTO   C14 4184   6.043  10.922   4.283 -0.0739  0.9579 -0.3805
   10CHTO   H27 4185   6.066  11.021   4.238  0.2207  0.2235 -1.8794
   10CHTO   C18 4186   6.095  10.931   4.431 -0.5116  0.2302 -0.1501
   10CHTO   O13 4187   6.237  10.946   4.456 -0.0227 -0.3168  0.1081
   10CHTO    H7 4188   6.246  11.037   4.480  1.7117 -0.4011 -0.1332
   10CHTO    O2 4189   6.113  10.621   4.360  0.0302  0.8034  0.2048
   10CHTO    C1 4190   6.246  10.569   4.380 -0.2253 -0.0332 -0.1208
   10CHTO   H14 4191   6.275  10.599   4.483 -1.8680  1.3533 -0.0240
   10CHTO    C2 4192   6.364  10.610   4.292 -0.7268  0.5448 -0.2503
   10CHTO   H15 4193   6.326  10.602   4.189  0.1071  0.5250 -0.5626
   10CHTO    O6 4194   6.402  10.753   4.314 -0.5525  0.1115  0.2207
   10CHTO    H1 4195   6.460  10.793   4.253  2.4690  0.8008  3.4043
   10CHTO    C3 4196   6.497  10.520   4.320 -0.4647 -0.4537  0.5873
   10CHTO   H16 4197   6.542  10.547   4.416  1.2092 -2.1978  0.3249
   10CHTO    N1 4198   6.606  10.542   4.211  1.3109  0.7546 -0.4003
   10CHTO    H8 4199   6.618  10.643   4.176 -1.2215  0.7036 -1.6111
   10CHTO    H9 4200   6.569  10.486   4.126  0.1438  2.8183 -1.3118
   10CHTO    C4 4201   6.461  10.370   4.330 -0.1658 -0.2426  0.2229
   10CHTO   H17 4202   6.443  10.335   4.228  2.1299  2.3020 -1.0871
   10CHTO    O1 4203   6.343  10.349   4.408  0.3023 -0.6877  0.7040
   10CHTO    C5 4204   6.221  10.416   4.374 -0.0259  0.5076 -0.3327
   10CHTO   H18 4205   6.180  10.398   4.274 -0.4179 -0.4268 -0.0128
   10CHTO   C16 4206   6.120  10.353   4.472  0.0006 -0.0963  0.4608
   10CHTO   O11 4207   6.091  10.221   4.427  0.5132  0.3987  0.2027
   10CHTO    H5 4208   6.013  10.231   4.376 -0.7013  1.9824  2.2927
   10CHTO    O3 4209   6.552  10.288   4.399  0.1658 -0.2920 -0.1869
   10CHTO    C6 4210   6.564  10.144   4.400  0.2485  0.3764 -0.8802
   10CHTO   H19 4211   6.477  10.102   4.349 -1.1919  1.3275  0.7429
   10CHTO    C8 4212   6.685  10.090   4.316  0.5224  0.4821 -0.1751
   10CHTO   H21 4213   6.769  10.157   4.338  0.2597  1.1455 -1.1711
   10CHTO    O7 4214   6.642  10.108   4.181  0.2719  0.0045  0.0044
   10CHTO    H2 4215   6.697  10.056   4.124  1.5037 -0.7104  1.7887
   10CHTO   C12 4216   6.727   9.944   4.342 -0.1177 -0.1641  0.4026
   10CHTO   H25 4217   6.654   9.878   4.289 -0.7565  0.6920  0.1927
   10CHTO    N3 4218   6.860   9.903   4.274 -0.0486 -0.2000  0.6186
   10CHTO   H12 4219   6.935   9.979   4.291 -1.2627  1.5888 -1.8102
   10CHTO   H13 4220   6.868   9.891   4.167 -0.0111 -0.1816  0.6192
   10CHTO   C15 4221   6.718   9.918   4.501 -0.2989  0.2767  0.3654
   10CHTO   H28 4222   6.803   9.960   4.555  1.2320 -1.9853 -0.1919
   10CHTO   O10 4223   6.722   9.770   4.531  0.2889 -0.3884 -0.6842
   10CHTO    H4 4224   6.674   9.713   4.474 -0.5494 -2.4411  1.9690
   10CHTO    O5 4225   6.602   9.957   4.566  0.4997 -0.0603 -0.6359
   10CHTO   C10 4226   6.561  10.092   4.550 -0.3459 -0.4775 -0.2851
   10CHTO   H23 4227   6.632  10.156   4.602 -1.6665  0.4229  0.4270
   10CHTO   C17 4228   6.427  10.102   4.613  0.6398  0.2893 -0.6232
   10CHTO   O12 4229   6.440  10.090   4.752  0.4125  0.2033 -0.4291
   10CHTO    H6 4230   6.378  10.156   4.778 -0.0384 -0.2329 -0.3786
   11CHTO  H203 4231   4.987   5.594   1.425 -0.7384 -0.0060 -0.1709
   11CHTO   O82 4232   5.072   5.631   1.412 -0.5770 -0.4965 -0.5234
   11CHTO  C123 4233   5.153   5.605   1.532 -0.2857 -0.1698  0.2249
   11CHTO  H227 4234   5.149   5.499   1.563 -0.2614 -0.2121  0.0870
   11CHTO   O77 4235   5.291   5.625   1.479 -0.3435  0.4574  0.5331
   11CHTO  C118 4236   5.393   5.644   1.577  0.5016 -0.6454 -0.4236
   11CHTO  H222 4237   5.411   5.550   1.631  3.0228 -0.4246 -0.8172
   11CHTO  C125 4238   5.530   5.695   1.509  0.2670 -0.0758 -0.5834
   11CHTO   O84 4239   5.573   5.633   1.390  0.0544  0.3335 -0.0144
   11CHTO  H205 4240   5.510   5.654   1.324  1.0070 -2.1454 -1.7953
   11CHTO  C114 4241   5.351   5.749   1.686 -0.0523 -0.2913  0.0730
   11CHTO  H218 4242   5.346   5.845   1.635  1.0530 -1.1758 -1.7955
   11CHTO  C116 4243   5.214   5.722   1.755  0.0805 -0.1737 -0.4390
   11CHTO  H220 4244   5.223   5.627   1.812  0.2663  0.3410  0.4015
   11CHTO   O79 4245   5.188   5.826   1.852  0.2892 -0.0312  0.2733
   11CHTO  H201 4246   5.098   5.824   1.879  0.0757 -1.6913 -0.4971
   11CHTO  C120 4247   5.111   5.707   1.645  0.4843  0.7260 -0.2734
   11CHTO  H224 4248   5.101   5.803   1.591 -0.5203  0.6020 -0.3129
   11CHTO   N21 4249   4.983   5.658   1.699  0.5860  1.0806  0.2240
   11CHTO  H211 4250   4.987   5.601   1.790  0.2915  2.0152  0.8232
   11CHTO  H212 4251   4.907   5.622   1.631  0.4313 -0.3516  1.1162
   11CHTO   O75 4252   5.467   5.761   1.776  0.0865  0.8546 -0.2585
   11CHTO  C112 4253   5.503   5.918   1.838 -0.1182  0.1998  0.4352
   11CHTO  H216 4254   5.515   5.897   1.946  0.4592 -3.7019 -0.3164
   11CHTO   O73 4255   5.393   6.003   1.813  0.8287  0.4596 -0.0975
   11CHTO  C113 4256   5.401   6.128   1.883  0.2811  0.2161  0.5621
   11CHTO  H217 4257   5.406   6.098   1.990 -2.0903  2.1242  1.2355
   11CHTO  C124 4258   5.271   6.202   1.859  0.1085  0.2474  0.1573
   11CHTO   O83 4259   5.230   6.242   1.730 -0.0170 -0.0565  0.2590
   11CHTO  H204 4260   5.251   6.183   1.661 -1.4247 -1.7461  1.2425
   11CHTO  C109 4261   5.519   6.213   1.825  0.0904  1.2060  0.3739
   11CHTO  H213 4262   5.493   6.232   1.720  1.4569 -1.4772 -0.4779
   11CHTO  C110 4263   5.649   6.127   1.836 -0.0701 -0.3994  0.1644
   11CHTO  H214 4264   5.684   6.121   1.939  0.8792  1.7734  0.0074
   11CHTO   O78 4265   5.746   6.204   1.761  0.8894 -0.1727 -0.5172
   11CHTO  H200 4266   5.779   6.278   1.808 -1.3058 -0.0122  0.8318
   11CHTO  C111 4267   5.631   5.982   1.773  0.5206 -0.3071  0.0333
   11CHTO  H215 4268   5.601   5.995   1.667  1.4144 -2.6297 -0.5448
   11CHTO   N19 4269   5.752   5.898   1.767 -0.0413 -0.7147  0.2904
   11CHTO  H207 4270   5.743   5.817   1.838  1.5436 -0.8371  0.3580
   11CHTO  H208 4271   5.838   5.957   1.795 -0.8511  0.1477  0.9858
   11CHTO   O74 4272   5.522   6.336   1.899 -0.3547  0.3960 -0.5851
   11CHTO  C115 4273   5.506   6.468   1.835 -0.8319  0.0921  0.1960
   11CHTO  H219 4274   5.478   6.463   1.730 -0.4668  2.4171 -0.0517
   11CHTO   O76 4275   5.392   6.535   1.897 -0.0583  0.0727 -0.1454
   11CHTO  C122 4276   5.404   6.537   2.038 -0.2732  0.0276  0.5664
   11CHTO  H226 4277   5.399   6.437   2.080  0.1266  0.1901  1.0109
   11CHTO  C126 4278   5.280   6.612   2.104  0.5993  0.6985 -0.5902
   11CHTO   O85 4279   5.160   6.547   2.061 -0.1550  0.1792  0.2296
   11CHTO  H206 4280   5.142   6.473   2.115 -1.5434  0.4976  0.2211
   11CHTO  C121 4281   5.545   6.588   2.093 -0.6980  1.3759 -0.2183
   11CHTO  H225 4282   5.531   6.668   2.168  0.1099  1.7749 -0.4854
   11CHTO   O81 4283   5.607   6.481   2.171 -0.2999 -0.1061  0.4224
   11CHTO  H202 4284   5.675   6.513   2.227  0.7084 -1.0636 -0.2408
   11CHTO  C119 4285   5.644   6.635   1.988 -0.2598 -0.3142  0.6214
   11CHTO  H223 4286   5.594   6.726   1.958  0.1824 -0.0486  0.6869
   11CHTO  C117 4287   5.641   6.549   1.856  1.0642 -0.2335  0.4424
   11CHTO  H221 4288   5.712   6.467   1.847  0.0675 -1.0077 -0.4354
   11CHTO   N20 4289   5.667   6.628   1.735  0.3896  0.0526  0.0038
   11CHTO  H209 4290   5.772   6.649   1.722  0.3322 -0.2095 -0.8623
   11CHTO  H210 4291   5.599   6.712   1.729 -0.2715 -0.5336 -0.7950
   11CHTO   O80 4292   5.781   6.682   2.031 -0.1450 -0.8902  0.0019
   11CHTO  C103 4293   5.810   6.840   2.065 -0.0476 -0.7923  0.7983
   11CHTO  H190 4294   5.914   6.864   2.045 -0.7825  0.9417 -1.0951
   11CHTO  C101 4295   5.724   6.955   1.990 -0.8226  0.1930  0.4671
   11CHTO  H188 4296   5.618   6.936   2.007 -1.0988  2.4806  1.3625
   11CHTO   O68 4297   5.753   6.938   1.844  0.2383 -0.1238  0.2475
   11CHTO  H168 4298   5.711   7.007   1.797  1.7110 -0.6826 -1.9996
   11CHTO   C99 4299   5.749   7.098   2.054 -0.2524 -0.2061  0.1333
   11CHTO  H186 4300   5.852   7.130   2.028 -0.4178  1.9938  2.0300
   11CHTO   N17 4301   5.672   7.213   1.991 -0.6632 -0.3390 -0.5643
   11CHTO  H174 4302   5.683   7.212   1.883  1.7755 -2.0022 -0.3537
   11CHTO  H175 4303   5.569   7.198   2.016 -0.4897 -0.2238  0.2260
   11CHTO   C97 4304   5.747   7.088   2.209 -0.3345 -0.1092 -0.5018
   11CHTO  H184 4305   5.642   7.071   2.240  0.4736  0.1132  2.5456
   11CHTO   O64 4306   5.834   6.988   2.256  0.5232 -0.0228 -0.1317
   11CHTO  C104 4307   5.790   6.857   2.219  0.1353  0.1218  0.0774
   11CHTO  H191 4308   5.684   6.846   2.241 -0.3278  1.2425 -1.4805
   11CHTO  C108 4309   5.871   6.737   2.287  0.4573 -0.1312 -0.1973
   11CHTO   O71 4310   5.875   6.740   2.432 -0.4558 -0.3938 -0.2579
   11CHTO  H171 4311   5.788   6.730   2.466 -0.0135 -1.9520  0.4223
   11CHTO   O62 4312   5.794   7.214   2.264 -0.8442 -0.0161  0.0953
   11CHTO   C91 4313   5.709   7.259   2.369  0.0506 -0.1806 -0.6637
   11CHTO  H178 4314   5.611   7.219   2.345  0.8695 -1.5109 -1.8736
   11CHTO   C92 4315   5.692   7.415   2.358 -0.2507 -0.7503  0.2268
   11CHTO  H179 4316   5.669   7.439   2.253 -0.2476  0.8722  0.5847
   11CHTO   O66 4317   5.581   7.474   2.427  0.1533  0.5513  0.1691
   11CHTO  H166 4318   5.497   7.443   2.400  0.9018 -0.8471 -0.6218
   11CHTO   C93 4319   5.818   7.493   2.407  0.3028  0.1181 -0.2015
   11CHTO  H180 4320   5.782   7.595   2.426  0.1760  0.2878 -1.3433
   11CHTO   N16 4321   5.923   7.511   2.299 -0.1964 -0.5925  0.4926
   11CHTO  H172 4322   6.016   7.458   2.309  0.2365  0.7429  4.3038
   11CHTO  H173 4323   5.880   7.482   2.204  2.1196  0.4983 -0.9210
   11CHTO   C94 4324   5.872   7.431   2.542  0.7045  0.4003 -0.0911
   11CHTO  H181 4325   5.961   7.369   2.527  1.8258  2.3469 -1.8356
   11CHTO   O61 4326   5.781   7.338   2.608 -0.3434 -0.6450  0.4307
   11CHTO   C95 4327   5.767   7.215   2.520  0.6833 -0.6315 -0.6649
   11CHTO  H182 4328   5.866   7.170   2.507  1.3432  0.9250 -1.1933
   11CHTO  C106 4329   5.681   7.116   2.590 -0.6880 -0.7584 -0.0969
   11CHTO   O69 4330   5.685   6.987   2.530  0.2161  0.1628 -0.1589
   11CHTO  H169 4331   5.602   6.946   2.542  0.8108 -1.1421 -0.3338
   11CHTO   O63 4332   5.913   7.538   2.642  0.1481  0.1361 -0.6140
   11CHTO   C96 4333   6.051   7.507   2.720  0.0437  0.0515  0.5394
   11CHTO  H183 4334   6.114   7.475   2.636 -2.2259 -1.8616 -0.4890
   11CHTO   C98 4335   6.040   7.390   2.820  0.2022  0.4893  0.1789
   11CHTO  H185 4336   5.944   7.402   2.873 -0.0269 -1.2777  0.1906
   11CHTO   O67 4337   6.028   7.273   2.742  0.1758 -0.0526  0.3819
   11CHTO  H167 4338   5.954   7.277   2.683  1.0235 -0.7975 -0.7549
   11CHTO  C102 4339   6.158   7.367   2.919  0.4262 -0.0599  1.0898
   11CHTO  H189 4340   6.245   7.333   2.860 -0.1548 -0.7386  0.6162
   11CHTO   N18 4341   6.140   7.262   3.024  0.4106 -1.0543  0.7850
   11CHTO  H176 4342   6.085   7.306   3.106 -2.0592 -0.1066 -1.2748
   11CHTO  H177 4343   6.107   7.167   2.985 -0.0371  0.2052 -2.0495
   11CHTO  C105 4344   6.203   7.507   2.972  0.9365  0.1106  1.1810
   11CHTO  H192 4345   6.132   7.541   3.048 -1.0538 -2.1630  0.4054
   11CHTO   O65 4346   6.221   7.606   2.868 -0.0902  0.4512 -0.1095
   11CHTO  C100 4347   6.107   7.634   2.783  0.2395 -0.5101 -1.3218
   11CHTO  H187 4348   6.026   7.687   2.835  1.4503  1.0422 -0.9831
   11CHTO  C107 4349   6.150   7.728   2.669 -0.4830  0.0412  0.5300
   11CHTO   O70 4350   6.208   7.849   2.718  0.1954 -0.2209 -0.8310
   11CHTO  H170 4351   6.139   7.895   2.761  1.1266 -0.3726  0.8596
   11CHTO   O57 4352   6.339   7.482   3.046  0.2825 -0.1172 -0.3208
   11CHTO   C85 4353   6.386   7.565   3.145  0.1319 -0.2199 -0.0976
   11CHTO  H157 4354   6.296   7.626   3.168  0.3599  0.3160 -0.6191
   11CHTO   C83 4355   6.487   7.666   3.090 -0.1822  0.0122 -0.0957
   11CHTO  H155 4356   6.427   7.733   3.030 -1.4347  0.2272  1.3620
   11CHTO   O56 4357   6.582   7.597   3.009 -0.3555 -0.6253  0.2370
   11CHTO  H135 4358   6.642   7.655   2.966  2.4646 -3.1776  0.5259
   11CHTO   C81 4359   6.547   7.747   3.210  0.8264  0.7486  0.1044
   11CHTO  H153 4360   6.461   7.792   3.259  0.6197 -0.6607  1.0477
   11CHTO   N14 4361   6.629   7.862   3.160 -0.1763  0.5880 -0.5410
   11CHTO  H141 4362   6.664   7.911   3.248 -0.8017  2.2970 -1.2068
   11CHTO  H142 4363   6.561   7.930   3.112  0.7217  0.9281 -1.3315
   11CHTO   C79 4364   6.617   7.651   3.309  0.1338 -0.6037 -0.0111
   11CHTO  H151 4365   6.657   7.711   3.391  0.1559  0.2250 -0.6232
   11CHTO   O52 4366   6.522   7.559   3.371 -0.0687  0.1458 -0.1869
   11CHTO   C86 4367   6.443   7.487   3.270  0.3985  0.2945  0.4722
   11CHTO  H158 4368   6.503   7.401   3.233 -0.9175 -0.6671  0.5501
   11CHTO   C90 4369   6.330   7.416   3.349 -0.3041  0.2216  0.4108
   11CHTO   O60 4370   6.254   7.508   3.419 -0.1184 -0.7215 -0.2520
   11CHTO  H138 4371   6.170   7.466   3.423 -1.2879  1.5997  0.7170
   11CHTO   O50 4372   6.727   7.583   3.243 -0.2658 -0.6766  0.0997
   11CHTO   C73 4373   6.837   7.496   3.275 -0.7216  0.3371  0.3143
   11CHTO  H145 4374   6.809   7.423   3.352  1.0914  1.8618  2.5053
   11CHTO   C74 4375   6.961   7.569   3.325  0.2037  0.2920  0.3599
   11CHTO  H146 4376   6.934   7.619   3.419 -0.1468  0.7370  0.0213
   11CHTO   O54 4377   7.063   7.466   3.357 -0.1714  0.4567  0.0860
   11CHTO  H133 4378   7.071   7.408   3.284  1.6835 -0.8631  1.3029
   11CHTO   C75 4379   7.007   7.672   3.216  0.3370 -0.0251 -0.4550
   11CHTO  H147 4380   6.928   7.746   3.196 -0.6352 -1.2134 -1.0413
   11CHTO   N13 4381   7.126   7.751   3.255  0.1778 -0.0052 -0.1750
   11CHTO  H139 4382   7.109   7.799   3.350  1.4460  0.6970 -0.2782
   11CHTO  H140 4383   7.143   7.830   3.182 -4.4619  0.1577 -1.1954
   11CHTO   C76 4384   7.032   7.595   3.073  0.1207 -0.6463  0.8252
   11CHTO  H148 4385   7.121   7.532   3.082  1.3278  1.0059  0.7603
   11CHTO   O49 4386   6.920   7.506   3.046 -0.7381 -0.1603 -0.2115
   11CHTO   C77 4387   6.877   7.416   3.148  0.2474 -0.1137 -0.6061
   11CHTO  H149 4388   6.957   7.347   3.177 -0.6213 -1.6270 -1.7353
   11CHTO   C88 4389   6.766   7.321   3.099  0.6361 -0.8592 -0.7303
   11CHTO   O58 4390   6.793   7.259   2.952 -0.6012 -0.1025  0.0964
   11CHTO  H136 4391   6.844   7.316   2.897 -0.1702 -2.1529 -1.6736
   11CHTO   O51 4392   7.041   7.699   2.950 -0.3122  0.3317  0.3693
   11CHTO   C78 4393   7.107   7.650   2.831 -0.3579  0.7243  0.5620
   11CHTO  H150 4394   7.120   7.542   2.851  1.0910  0.6258 -0.7721
   11CHTO   C80 4395   7.243   7.718   2.818  0.2229 -0.5419 -0.6200
   11CHTO  H152 4396   7.231   7.828   2.831 -1.0752 -0.7249 -0.1851
   11CHTO   O55 4397   7.339   7.674   2.916  0.1301 -0.3695  0.8583
   11CHTO  H134 4398   7.365   7.734   2.983  1.7747  1.1399 -1.0663
   11CHTO   C84 4399   7.304   7.680   2.676 -0.6104  0.4075  0.3926
   11CHTO  H156 4400   7.331   7.575   2.689 -0.8124  0.0645 -1.8550
   11CHTO   N15 4401   7.435   7.755   2.645 -0.2354  0.4162  0.1672
   11CHTO  H143 4402   7.460   7.831   2.716 -0.6777  0.4082  0.3333
   11CHTO  H144 4403   7.511   7.680   2.643 -2.3140 -1.7331 -1.3658
   11CHTO   C87 4404   7.204   7.689   2.560  0.3756  0.4496  0.7186
   11CHTO  H159 4405   7.186   7.795   2.540  3.2788  0.6382 -1.3440
   11CHTO   O53 4406   7.081   7.625   2.595  0.0890 -0.1185  0.4497
   11CHTO   C82 4407   7.018   7.680   2.705 -0.3302  0.2203  0.0304
   11CHTO  H154 4408   6.989   7.784   2.685 -1.1280  0.1603  0.8693
   11CHTO   C89 4409   6.879   7.605   2.729 -0.3827  0.0932  0.1015
   11CHTO   O59 4410   6.806   7.614   2.612 -0.1040  0.6780  0.0612
   11CHTO  H137 4411   6.756   7.536   2.599  1.4679 -0.7301  2.1505
   11CHTO   O45 4412   7.267   7.629   2.414  0.1670 -0.0956 -0.8960
   11CHTO   C67 4413   7.172   7.624   2.307 -0.0337  0.4978  0.1714
   11CHTO  H124 4414   7.089   7.561   2.336  0.2488 -0.9633 -2.0414
   11CHTO   C65 4415   7.113   7.763   2.274  0.3192  1.0004  0.0627
   11CHTO  H122 4416   7.182   7.829   2.326  0.3235  0.4135  0.8077
   11CHTO   O44 4417   6.987   7.778   2.339 -0.3836  0.5731  0.3276
   11CHTO  H102 4418   6.929   7.708   2.316 -0.5757  0.3155  1.5414
   11CHTO   C63 4419   7.127   7.798   2.126  0.9626  0.8029 -0.8088
   11CHTO  H120 4420   7.234   7.807   2.107  1.5512 -0.6881  1.6529
   11CHTO   N11 4421   7.086   7.933   2.076  1.1028  0.5936 -0.4440
   11CHTO  H108 4422   7.037   7.988   2.154 -0.1390  1.6252 -1.9205
   11CHTO  H109 4423   7.028   7.918   1.987  1.1383 -0.3104 -0.3242
   11CHTO   C61 4424   7.089   7.672   2.040  0.1939  0.5918 -0.7283
   11CHTO  H118 4425   7.119   7.694   1.936 -1.1073 -1.6800 -1.6085
   11CHTO   O40 4426   7.145   7.547   2.075 -0.1101  0.1627 -0.1028
   11CHTO   C68 4427   7.234   7.550   2.181  0.0106  0.0956  0.0515
   11CHTO  H125 4428   7.325   7.604   2.148  0.3870 -1.0258 -0.7813
   11CHTO   C72 4429   7.280   7.407   2.211 -0.4955 -0.0980 -0.1202
   11CHTO   O48 4430   7.350   7.352   2.101  0.0854 -0.4487 -0.3572
   11CHTO  H105 4431   7.297   7.356   2.024 -0.1074 -1.5873 -0.2901
   11CHTO   O38 4432   6.948   7.645   2.037 -0.5464 -0.6491 -0.9294
   11CHTO   C55 4433   6.893   7.555   1.937  0.6289 -0.4881 -0.6475
   11CHTO  H112 4434   6.974   7.495   1.893  0.5962 -0.5602 -0.6083
   11CHTO   C56 4435   6.827   7.647   1.833 -0.1420 -0.1916  0.1524
   11CHTO  H113 4436   6.774   7.731   1.881 -2.3772 -0.0226 -2.5173
   11CHTO   O42 4437   6.931   7.713   1.757 -0.3146 -0.6898  0.2431
   11CHTO  H100 4438   6.979   7.760   1.824 -1.7482  0.9127  0.1884
   11CHTO   C57 4439   6.746   7.560   1.731 -0.1337  0.3614 -0.9417
   11CHTO  H114 4440   6.824   7.498   1.688  0.6148  0.6002  0.0506
   11CHTO   N10 4441   6.675   7.642   1.626 -0.9831 -0.1574  0.4159
   11CHTO  H106 4442   6.656   7.736   1.676  0.1128 -1.0733  2.5975
   11CHTO  H107 4443   6.740   7.654   1.540 -0.3397  1.3902  1.1025
   11CHTO   C58 4444   6.650   7.470   1.810  0.0831 -0.0561  0.2514
   11CHTO  H115 4445   6.573   7.534   1.857  1.5932  0.9765  1.3656
   11CHTO   O37 4446   6.717   7.389   1.904  0.1689  0.3228 -1.0710
   11CHTO   C59 4447   6.785   7.464   2.007 -0.1684  0.3103  0.1591
   11CHTO  H116 4448   6.708   7.518   2.064  0.1874 -0.1012  1.0331
   11CHTO   C70 4449   6.853   7.368   2.107  0.5683  0.0266 -0.2501
   11CHTO   O46 4450   6.878   7.440   2.236  0.3170  0.2831  0.0776
   11CHTO  H103 4451   6.906   7.380   2.302  1.8765 -0.0924 -0.8939
   11CHTO   O39 4452   6.573   7.361   1.700 -0.5469  0.0667  0.0769
   11CHTO   C60 4453   6.432   7.345   1.698  1.1166 -0.0218 -0.2830
   11CHTO  H117 4454   6.392   7.352   1.799 -0.2437 -0.8106 -0.7600
   11CHTO   C62 4455   6.369   7.453   1.606  0.3400  0.1877  0.6150
   11CHTO  H119 4456   6.396   7.549   1.655  2.6277 -2.0355  3.8858
   11CHTO   O43 4457   6.428   7.450   1.470  0.4974  0.0486 -0.1550
   11CHTO  H101 4458   6.510   7.406   1.465  1.0214  1.1573 -1.8047
   11CHTO   C66 4459   6.209   7.438   1.603  0.1549 -0.7442  0.7380
   11CHTO  H123 4460   6.169   7.419   1.703 -0.7645 -1.5357  0.2251
   11CHTO   N12 4461   6.152   7.570   1.545 -0.1185  0.1588 -0.3522
   11CHTO  H110 4462   6.227   7.643   1.519  0.3864 -1.1122 -2.5388
   11CHTO  H111 4463   6.077   7.602   1.616  0.5627 -0.7261  0.7891
   11CHTO   C69 4464   6.162   7.318   1.522  0.8103 -0.1891  0.1549
   11CHTO  H126 4465   6.208   7.311   1.421  1.7925  0.0881  0.5744
   11CHTO   O41 4466   6.228   7.180   1.614 -0.3009  0.2754  0.0907
   11CHTO   C64 4467   6.387   7.202   1.656 -0.5385  0.3407  0.5524
   11CHTO  H121 4468   6.451   7.173   1.570  0.1223 -0.8810  1.4453
   11CHTO   C71 4469   6.414   7.093   1.762 -0.4242 -0.2447 -0.6769
   11CHTO   O47 4470   6.317   7.106   1.866 -0.2889  0.0214 -0.6523
   11CHTO  H104 4471   6.348   7.047   1.931 -1.2901  0.0504 -0.1468
   11CHTO   O34 4472   6.002   7.304   1.513  0.5263 -0.0420  0.1409
   11CHTO   C49 4473   5.876   7.325   1.597  0.6003  0.3025  0.4255
   11CHTO   H91 4474   5.903   7.366   1.694  0.4229  1.1802  0.1011
   11CHTO   C47 4475   5.802   7.188   1.613 -0.9693 -0.2960 -0.4743
   11CHTO   H89 4476   5.715   7.201   1.680  0.4357  0.9753  1.1633
   11CHTO   O33 4477   5.897   7.096   1.679 -0.6185  0.0259  0.0584
   11CHTO   H70 4478   5.857   7.013   1.691 -3.4352  1.3041 -0.1168
   11CHTO   C45 4479   5.760   7.128   1.470  0.0752 -0.6789 -0.3507
   11CHTO   H87 4480   5.849   7.120   1.404 -0.5604 -1.1683 -1.1588
   11CHTO    N8 4481   5.696   6.997   1.473  0.0106  0.2929 -0.4394
   11CHTO   H75 4482   5.652   6.982   1.375 -1.6532  0.0480  0.3209
   11CHTO   H76 4483   5.613   6.977   1.539 -0.0796  0.2212 -0.5719
   11CHTO   C43 4484   5.658   7.239   1.394  0.2538  0.1355 -0.1294
   11CHTO   H85 4485   5.648   7.215   1.288 -0.3838  1.1472 -0.2994
   11CHTO   O29 4486   5.706   7.372   1.414  0.3687  0.2737  0.4954
   11CHTO   C50 4487   5.774   7.415   1.528 -0.2626 -0.2486 -0.6498
   11CHTO   H92 4488   5.835   7.501   1.496 -1.0832  0.5892  0.0061
   11CHTO   C54 4489   5.671   7.485   1.626  0.2418  0.3019  0.1485
   11CHTO   O36 4490   5.617   7.612   1.582 -0.5535 -0.5480 -0.2135
   11CHTO   H72 4491   5.533   7.610   1.541  1.2050 -1.4425 -3.9512
   11CHTO   O27 4492   5.521   7.239   1.444 -0.2306  0.4148  0.1274
   11CHTO   C37 4493   5.386   7.227   1.489  0.2107  0.1989  0.5131
   11CHTO   H79 4494   5.354   7.314   1.547 -0.1879  1.1184 -1.0519
   11CHTO   C38 4495   5.301   7.221   1.364  0.2574 -0.0202  0.6139
   11CHTO   H80 4496   5.352   7.151   1.296  3.0852  2.8998 -0.4079
   11CHTO   O31 4497   5.298   7.352   1.311 -0.3723 -0.0396  0.4741
   11CHTO   H68 4498   5.230   7.355   1.247  2.1896  0.6427 -2.3581
   11CHTO   C39 4499   5.154   7.179   1.395 -0.0053 -0.2684  0.5409
   11CHTO   H81 4500   5.106   7.268   1.435  0.4836  0.4408 -0.4048
   11CHTO    N7 4501   5.088   7.138   1.271  0.4242 -0.4238  0.7466
   11CHTO   H73 4502   5.068   7.224   1.209 -1.6326 -0.6757  1.0307
   11CHTO   H74 4503   4.993   7.089   1.287 -0.9783  1.9319 -0.1177
   11CHTO   C40 4504   5.154   7.050   1.481  0.3582  0.5213  0.2815
   11CHTO   H82 4505   5.179   6.958   1.428  0.7603  0.3418  0.7799
   11CHTO   O26 4506   5.233   7.070   1.601  0.1483  0.4284 -0.3016
   11CHTO   C41 4507   5.367   7.104   1.573  0.2014 -0.4803  0.6039
   11CHTO   H83 4508   5.415   7.021   1.520  0.5467 -0.1421  0.3859
   11CHTO   C52 4509   5.433   7.123   1.712  0.0272  0.0190 -0.0891
   11CHTO   O35 4510   5.401   7.001   1.824 -0.1856 -0.3824 -0.2565
   11CHTO   H71 4511   5.432   6.917   1.796 -2.2272 -0.9403 -0.8536
   11CHTO   O28 4512   5.033   7.022   1.551 -0.0934 -0.2239 -0.5202
   11CHTO   C42 4513   4.955   6.897   1.549  0.1284  0.5632 -0.2802
   11CHTO   H84 4514   5.007   6.837   1.474 -1.0893 -0.0567 -0.6493
   11CHTO   C44 4515   4.809   6.907   1.502 -0.5644  0.0670  0.1444
   11CHTO   H86 4516   4.750   6.955   1.580 -0.5062  0.4319 -0.0340
   11CHTO   O32 4517   4.802   6.989   1.376 -0.2271 -0.4074  0.0988
   11CHTO   H69 4518   4.844   7.073   1.385 -0.1520 -0.4089 -0.2319
   11CHTO   C48 4519   4.736   6.768   1.484 -0.4690  0.5733  0.2662
   11CHTO   H90 4520   4.784   6.717   1.400 -0.3539 -0.8532  1.1766
   11CHTO    N9 4521   4.593   6.776   1.441 -0.8142 -0.2582  0.0517
   11CHTO   H77 4522   4.545   6.855   1.497 -1.8695 -1.7362  1.2776
   11CHTO   H78 4523   4.582   6.810   1.339  2.1849  0.7045 -0.0026
   11CHTO   C51 4524   4.739   6.686   1.622  0.8726  0.7069  0.4686
   11CHTO   H93 4525   4.680   6.740   1.696 -0.1226  0.9261 -0.4666
   11CHTO   O30 4526   4.872   6.669   1.656  0.3462 -0.0212 -0.2704
   11CHTO   C46 4527   4.951   6.813   1.684 -0.8639  0.1418  0.9085
   11CHTO   H88 4528   4.897   6.866   1.763 -0.4181  1.0050  0.6397
   11CHTO   C53 4529   5.098   6.781   1.725  0.1605  0.0615 -0.0763
   11CHTO   O72 4530   5.181   6.717   1.634  0.4646  0.4270 -0.1643
   11CHTO  H199 4531   5.270   6.747   1.635  0.4508  0.4604  0.5728
   11CHTO   O22 4532   4.705   6.547   1.597  0.0399  0.5712  0.2608
   11CHTO   C31 4533   4.630   6.466   1.693 -0.4306  0.0692 -0.1792
   11CHTO   H59 4534   4.659   6.506   1.793  3.3598  1.4449 -1.7525
   11CHTO   C29 4535   4.478   6.485   1.679 -0.0521  0.3928  0.0902
   11CHTO   H57 4536   4.455   6.462   1.574 -0.6077  1.1983  0.0305
   11CHTO   O21 4537   4.447   6.624   1.697  0.0367 -0.0389 -0.0271
   11CHTO   H37 4538   4.356   6.629   1.720 -0.0199  0.0260 -0.2659
   11CHTO   C27 4539   4.402   6.387   1.774 -0.0179  0.3896 -0.2404
   11CHTO   H55 4540   4.417   6.420   1.878 -2.2886 -2.3302  1.0078
   11CHTO    N5 4541   4.256   6.379   1.749 -0.2046  0.4832 -0.1304
   11CHTO   H43 4542   4.206   6.464   1.792 -3.2981 -0.8555 -0.8925
   11CHTO   H44 4543   4.217   6.294   1.804 -0.3689  0.9808  0.5283
   11CHTO   C25 4544   4.463   6.241   1.749  0.1478  0.7351 -0.1361
   11CHTO   H53 4545   4.430   6.196   1.655 -1.5249  0.9746  0.3259
   11CHTO   O17 4546   4.604   6.230   1.766  0.4512  0.1050 -0.5586
   11CHTO   C32 4547   4.682   6.321   1.687 -0.0407 -0.0766 -0.4819
   11CHTO   H60 4548   4.686   6.294   1.581  0.3804  0.8232 -0.7030
   11CHTO   C36 4549   4.816   6.309   1.756 -0.0920 -0.4645 -0.4089
   11CHTO   O25 4550   4.920   6.376   1.679  0.6697  0.0034 -1.1357
   11CHTO   H40 4551   4.977   6.309   1.646  0.6332 -0.5244 -0.1474
   11CHTO   O15 4552   4.385   6.132   1.853  0.2309 -0.5848 -0.2553
   11CHTO   C19 4553   4.385   5.987   1.882  0.4764  0.0758  0.3311
   11CHTO   H47 4554   4.396   5.931   1.788  0.2501  0.5888 -0.0007
   11CHTO   C20 4555   4.507   5.952   1.973 -0.0785 -0.4590  0.3374
   11CHTO   H48 4556   4.502   6.011   2.066 -0.3004  0.6920 -0.3904
   11CHTO   O19 4557   4.626   5.976   1.899 -0.0855  0.1302 -0.0002
   11CHTO   H35 4558   4.678   6.049   1.926  1.9338 -0.7102 -1.5373
   11CHTO   C21 4559   4.508   5.797   2.018 -0.1835 -0.3979 -0.1541
   11CHTO   H49 4560   4.535   5.736   1.933 -2.8306 -1.7513 -0.0752
   11CHTO    N4 4561   4.616   5.752   2.115 -0.1652  0.4513 -0.2745
   11CHTO   H41 4562   4.618   5.817   2.201 -1.2739  0.8672 -0.5508
   11CHTO   H42 4563   4.715   5.734   2.076  0.7623  0.9995  1.7731
   11CHTO   C22 4564   4.370   5.746   2.064 -0.2802  0.7125 -0.1447
   11CHTO   H50 4565   4.347   5.804   2.154 -1.7273  1.1511 -0.7744
   11CHTO   O14 4566   4.272   5.785   1.967  0.4196  0.1150 -0.0827
   11CHTO   C23 4567   4.264   5.926   1.947  0.4590 -0.1810 -0.0855
   11CHTO   H51 4568   4.241   5.973   2.045  0.6867 -0.1689 -0.0378
   11CHTO   C34 4569   4.135   5.953   1.863 -0.4342  0.0165  0.7912
   11CHTO   O23 4570   4.020   5.903   1.925 -0.7584  0.3653 -0.6993
   11CHTO   H38 4571   4.034   5.918   2.017 -2.4127  2.6459 -0.7949
   11CHTO   O16 4572   4.370   5.601   2.091 -0.4834 -0.6044 -0.2705
   11CHTO   C24 4573   4.265   5.512   1.996 -0.8233  0.5952 -0.3868
   11CHTO   H52 4574   4.216   5.574   1.920 -2.7551 -1.7045 -1.0626
   11CHTO   C26 4575   4.155   5.455   2.088 -0.5359 -0.1979  0.1455
   11CHTO   H54 4576   4.201   5.396   2.170  0.6522  0.2818 -0.1614
   11CHTO   O20 4577   4.091   5.567   2.160 -0.2887 -0.3307 -0.5015
   11CHTO   H36 4578   4.004   5.584   2.130 -0.2162 -0.5218 -0.8237
   11CHTO   C30 4579   4.057   5.362   2.015 -0.3875 -0.2895 -0.5577
   11CHTO   H58 4580   4.002   5.416   1.937 -0.3047  0.7467  0.0971
   11CHTO    N6 4581   3.952   5.306   2.101 -0.2516  0.5467 -0.0298
   11CHTO   H45 4582   3.987   5.249   2.186  0.8134 -0.6313 -1.2433
   11CHTO   H46 4583   3.864   5.264   2.055  0.4629 -0.0128 -0.8862
   11CHTO   C33 4584   4.138   5.255   1.935 -0.1920  0.5225 -0.1826
   11CHTO   H61 4585   4.191   5.193   2.010 -0.4939  2.6367  1.8536
   11CHTO   O18 4586   4.238   5.322   1.857  0.3165 -0.8822 -0.1746
   11CHTO   C28 4587   4.333   5.399   1.918  0.6066  0.5854 -0.8648
   11CHTO   H56 4588   4.384   5.335   1.991 -1.5403 -0.0552  0.1243
   11CHTO   C35 4589   4.424   5.455   1.806 -0.5343  0.6061  0.1901
   11CHTO   O24 4590   4.517   5.353   1.763 -0.5276  0.3375  0.1043
   11CHTO   H39 4591   4.566   5.392   1.694 -0.0717 -2.9073 -1.4948
   11CHTO    O9 4592   4.058   5.159   1.860 -0.3461 -0.2789  0.1759
   11CHTO   C13 4593   3.946   5.238   1.739  0.2508 -0.5083  0.1898
   11CHTO   H26 4594   3.913   5.326   1.797 -2.1821 -1.1779 -0.1195
   11CHTO   C11 4595   3.824   5.145   1.708 -0.2903 -0.0667  0.6368
   11CHTO   H24 4596   3.777   5.115   1.803 -0.9015 -0.8026  0.1039
   11CHTO    O8 4597   3.884   5.031   1.656 -0.4883  0.5110  0.2033
   11CHTO    H3 4598   3.876   4.963   1.720 -0.6601 -1.1832 -1.5732
   11CHTO    C9 4599   3.720   5.230   1.628 -0.1812 -0.1375  0.7231
   11CHTO   H22 4600   3.677   5.291   1.709  0.2074  0.2750  0.6221
   11CHTO    N2 4601   3.599   5.150   1.598 -0.3173 -0.5458 -0.1513
   11CHTO   H10 4602   3.612   5.100   1.504 -3.0172 -0.9372 -0.3603
   11CHTO   H11 4603   3.586   5.083   1.681  0.2994 -0.3422  0.1178
   11CHTO    C7 4604   3.786   5.323   1.510  0.5211  0.8077 -0.0792
   11CHTO   H20 4605   3.778   5.428   1.544 -0.9868  0.6001  0.2538
   11CHTO    O4 4606   3.924   5.283   1.483  0.1259 -0.2245 -0.2226
   11CHTO   C14 4607   4.006   5.287   1.602  0.1433  0.2939 -0.2906
   11CHTO   H27 4608   4.031   5.394   1.617  1.0253 -0.1531  1.6419
   11CHTO   C18 4609   4.139   5.221   1.563  0.3778 -0.0356 -0.0922
   11CHTO   O13 4610   4.228   5.312   1.496  0.2129 -0.0922 -0.4549
   11CHTO    H7 4611   4.255   5.280   1.412 -0.1638  1.0301 -1.0234
   11CHTO    O2 4612   3.695   5.322   1.359 -0.0866 -0.7346  0.0068
   11CHTO    C1 4613   3.648   5.453   1.326 -0.6445 -0.0685  0.3385
   11CHTO   H14 4614   3.721   5.530   1.359  0.0803 -0.4542 -0.3399
   11CHTO    C2 4615   3.508   5.499   1.382 -0.2318 -0.2993  0.2242
   11CHTO   H15 4616   3.435   5.425   1.344 -1.1321  0.0560  1.2216
   11CHTO    O6 4617   3.514   5.503   1.526  0.3836  0.3886  0.1938
   11CHTO    H1 4618   3.442   5.452   1.558 -0.8259  1.0104 -1.4813
   11CHTO    C3 4619   3.474   5.645   1.316 -0.0948 -0.1303  0.0467
   11CHTO   H16 4620   3.552   5.719   1.343 -0.9391 -0.1977  2.7334
   11CHTO    N1 4621   3.343   5.685   1.371 -0.4088  0.4749 -0.1870
   11CHTO    H8 4622   3.332   5.678   1.479 -0.9839 -0.7381 -0.3200
   11CHTO    H9 4623   3.263   5.621   1.336 -0.8188  1.3040 -0.7685
   11CHTO    C4 4624   3.473   5.637   1.161 -0.2266  0.7734  0.7072
   11CHTO   H17 4625   3.392   5.571   1.131 -0.1445  0.1323  1.8530
   11CHTO    O1 4626   3.602   5.586   1.109  0.3821 -0.2828  0.1358
   11CHTO    C5 4627   3.648   5.462   1.162 -0.6641 -0.2935 -0.1077
   11CHTO   H18 4628   3.566   5.403   1.124 -0.6201 -2.1061  2.4562
   11CHTO   C16 4629   3.781   5.427   1.097  0.2341 -0.5100 -1.0014
   11CHTO   O11 4630   3.876   5.518   1.149  0.2404  0.2392 -0.4122
   11CHTO    H5 4631   3.838   5.603   1.143 -0.0478  0.3118  1.9892
   11CHTO    O3 4632   3.460   5.761   1.095 -0.1435 -0.7057 -0.5504
   11CHTO    C6 4633   3.449   5.767   0.946 -0.3768  0.2644 -0.7501
   11CHTO   H19 4634   3.486   5.678   0.896 -0.1475  1.9554 -3.7403
   11CHTO    C8 4635   3.293   5.790   0.913 -0.2465  0.2171 -0.5277
   11CHTO   H21 4636   3.254   5.876   0.969  1.4636  1.7650 -1.6442
   11CHTO    O7 4637   3.218   5.668   0.946 -0.5026 -0.3938 -0.0534
   11CHTO    H2 4638   3.131   5.676   0.914 -0.7575  0.6770  0.8832
   11CHTO   C12 4639   3.285   5.820   0.757 -0.8492  0.1512  0.3832
   11CHTO   H25 4640   3.336   5.732   0.714  0.2233  0.3918  1.1289
   11CHTO    N3 4641   3.144   5.838   0.703  0.2329 -0.5027  0.5838
   11CHTO   H12 4642   3.082   5.769   0.758 -1.2858 -1.4457 -2.1739
   11CHTO   H13 4643   3.111   5.936   0.732 -1.5362 -0.5427 -1.2087
   11CHTO   C15 4644   3.376   5.949   0.725 -1.3953  0.3982  1.0659
   11CHTO   H28 4645   3.347   6.039   0.779 -1.4756  0.4888  0.8712
   11CHTO   O10 4646   3.393   5.983   0.568 -0.2648  0.0996  0.3336
   11CHTO    H4 4647   3.435   6.067   0.564  0.3586 -0.2062  0.3708
   11CHTO    O5 4648   3.514   5.918   0.753 -0.4387 -0.2562 -0.0064
   11CHTO   C10 4649   3.532   5.885   0.896 -0.1725 -0.9518  0.5940
   11CHTO   H23 4650   3.504   5.978   0.945  1.3528 -1.2478  2.0612
   11CHTO   C17 4651   3.685   5.861   0.896  0.0545 -0.1261 -0.1735
   11CHTO   O12 4652   3.765   5.975   0.860  0.3134  0.0337 -0.0515
   11CHTO    H6 4653   3.711   6.048   0.836  2.7779  2.0000  0.2114
   12CHTO  H203 4654   5.376   1.969   0.088  0.5900  0.4390 -1.2482
   12CHTO   O82 4655   5.297   1.923   0.068  0.1865  0.7505 -0.4084
   12CHTO  C123 4656   5.265   1.825   0.168 -0.1543  0.4150  0.4160
   12CHTO  H227 4657   5.271   1.875   0.266 -0.1552  1.4995 -0.1281
   12CHTO   O77 4658   5.123   1.786   0.142  0.0012 -0.0470 -0.4901
   12CHTO  C118 4659   5.068   1.721   0.253  0.0775  0.1031 -0.0433
   12CHTO  H222 4660   5.068   1.781   0.346 -2.3983 -1.1453  0.8119
   12CHTO  C125 4661   4.926   1.689   0.218 -0.6420  1.1332 -0.0470
   12CHTO   O84 4662   4.827   1.691   0.322  0.1780  0.4510 -0.1154
   12CHTO  H205 4663   4.864   1.662   0.403 -0.8809 -0.5080  0.0322
   12CHTO  C114 4664   5.134   1.588   0.278 -0.4526  0.0644  0.5144
   12CHTO  H218 4665   5.099   1.516   0.205 -2.1999  0.4187  0.9815
   12CHTO  C116 4666   5.288   1.594   0.278  0.4778 -0.1092  0.1858
   12CHTO  H220 4667   5.316   1.630   0.379  1.1310 -0.4992  0.1454
   12CHTO   O79 4668   5.331   1.462   0.269  0.3045 -0.3637  0.0621
   12CHTO  H201 4669   5.424   1.470   0.270  0.3274 -0.4995 -0.7222
   12CHTO  C120 4670   5.345   1.689   0.163 -0.3408  0.4198 -0.0026
   12CHTO  H224 4671   5.319   1.636   0.068  0.9622  1.5513 -1.0098
   12CHTO   N21 4672   5.494   1.705   0.176 -0.2569 -0.0275  0.6605
   12CHTO  H211 4673   5.516   1.784   0.247 -0.1862  0.0556  0.5468
   12CHTO  H212 4674   5.551   1.623   0.217 -1.6801 -0.5449  1.6178
   12CHTO   O75 4675   5.086   1.552   0.407  0.7315  0.2164 -0.0308
   12CHTO  C112 4676   5.057   1.397   0.452  0.5523  0.1114 -0.2976
   12CHTO  H216 4677   5.112   1.378   0.545  2.2947  0.7458 -1.1757
   12CHTO   O73 4678   5.106   1.314   0.347 -0.1687  0.0029  0.0769
   12CHTO  C113 4679   5.097   1.181   0.384 -0.0379 -0.0159  0.1139
   12CHTO  H217 4680   5.151   1.164   0.480 -2.3213 -1.7901  1.1270
   12CHTO  C124 4681   5.172   1.111   0.276 -0.2250 -0.5309  0.1942
   12CHTO   O83 4682   5.309   1.143   0.254  0.5454 -0.1243 -0.2666
   12CHTO  H204 4683   5.357   1.097   0.319  0.0401  0.5658  0.6008
   12CHTO  C109 4684   4.955   1.132   0.404  0.1269 -0.1242  0.4416
   12CHTO  H213 4685   4.898   1.149   0.312 -2.4015 -0.1549  1.9547
   12CHTO  C110 4686   4.884   1.218   0.512 -0.2277  0.6671  0.5070
   12CHTO  H214 4687   4.930   1.191   0.608  1.8126  1.2431 -0.2688
   12CHTO   O78 4688   4.752   1.178   0.536 -0.1024  0.0563 -1.0861
   12CHTO  H200 4689   4.757   1.086   0.549 -0.5987  0.2409  0.6089
   12CHTO  C111 4690   4.905   1.364   0.471 -0.3860  0.3338 -0.2502
   12CHTO  H215 4691   4.848   1.386   0.380  0.0471 -0.3220 -0.6883
   12CHTO   N19 4692   4.855   1.457   0.569  0.0257  0.5228 -0.8080
   12CHTO  H207 4693   4.788   1.403   0.635  0.5668 -0.2174 -0.8474
   12CHTO  H208 4694   4.791   1.520   0.511 -1.5643 -0.1592  0.1664
   12CHTO   O74 4695   4.965   0.992   0.426  0.3242  0.4154  0.5502
   12CHTO  C115 4696   4.823   0.897   0.374  0.5620 -0.4512  0.3001
   12CHTO  H219 4697   4.730   0.938   0.415  1.1237 -0.4300  1.5756
   12CHTO   O76 4698   4.805   0.905   0.210 -1.2765 -0.7063  0.2316
   12CHTO  C122 4699   4.740   0.796   0.142 -0.6134  0.0253 -0.6098
   12CHTO  H226 4700   4.789   0.804   0.045  0.9928 -2.5257 -0.0784
   12CHTO  C126 4701   4.583   0.827   0.128 -0.0734  0.1174  0.3965
   12CHTO   O85 4702   4.546   0.911   0.020 -0.1721  0.4028 -0.1111
   12CHTO  H206 4703   4.516   0.995   0.047 -0.9726  0.2056 -0.3684
   12CHTO  C121 4704   4.765   0.654   0.208 -0.9629  0.4818 -0.1798
   12CHTO  H225 4705   4.686   0.589   0.166 -1.5123 -0.1540  1.7896
   12CHTO   O81 4706   4.896   0.611   0.168 -0.5842  0.2326  0.8654
   12CHTO  H202 4707   4.963   0.667   0.201  1.2041 -1.2717 -0.0678
   12CHTO  C119 4708   4.736   0.653   0.363  0.7200 -0.2839 -0.1208
   12CHTO  H223 4709   4.630   0.674   0.372  0.5590 -1.2282  0.2619
   12CHTO  C117 4710   4.832   0.746   0.440  0.3126 -0.3246  0.4141
   12CHTO  H221 4711   4.937   0.717   0.438  0.7640  1.3117 -2.6554
   12CHTO   N20 4712   4.797   0.758   0.584 -0.0590 -0.3672  0.0494
   12CHTO  H209 4713   4.712   0.822   0.596 -0.0907 -0.7325  1.9250
   12CHTO  H210 4714   4.882   0.780   0.647 -1.5608 -0.1474  2.0245
   12CHTO   O80 4715   4.748   0.490   0.422 -0.2275  0.4924 -0.3080
   12CHTO  C103 4716   4.628   0.396   0.414 -0.0859 -0.6127 -0.0806
   12CHTO  H190 4717   4.543   0.457   0.447  0.0432 -0.4151 -0.1092
   12CHTO  C101 4718   4.598   0.309   0.292  0.4401 -0.2637  0.0176
   12CHTO  H188 4719   4.691   0.263   0.257  0.7158  1.6480 -1.8983
   12CHTO   O68 4720   4.528   0.398   0.204  0.1568 -0.2023  0.4072
   12CHTO  H168 4721   4.515   0.357   0.120 -1.9230 -0.7873  0.9802
   12CHTO   C99 4722   4.504   0.182   0.320  0.1169  0.0068 -0.2024
   12CHTO  H186 4723   4.397   0.209   0.332  0.1754 -0.8865  2.6460
   12CHTO   N17 4724   4.497   0.087   0.203  0.4090 -0.5673  0.2547
   12CHTO  H174 4725   4.597   0.053   0.179  0.7047  0.7665 -0.4407
   12CHTO  H175 4726   4.423   0.101   0.126  0.0544  1.1921  0.8944
   12CHTO   C97 4727   4.540   0.109   0.448  0.1673 -0.6391 -0.0740
   12CHTO  H184 4728   4.634   0.053   0.434 -0.9124 -2.5803  0.3153
   12CHTO   O64 4729   4.552   0.205   0.556 -0.1406  0.5386  0.2819
   12CHTO  C104 4730   4.658   0.292   0.537  0.2442  0.1860 -0.0699
   12CHTO  H191 4731   4.754   0.243   0.519 -0.5756 -0.5772 -2.6656
   12CHTO  C108 4732   4.681   0.366   0.670  0.3224  0.1137 -0.1710
   12CHTO   O71 4733   4.561   0.436   0.717  0.2421 -0.3516 -0.1882
   12CHTO  H171 4734   4.500   0.384   0.766  1.3017  0.5370  2.1437
   12CHTO   O62 4735   4.437   0.030   0.511 -0.1830  0.4652 -0.4882
   12CHTO   C91 4736   4.454  -0.114   0.508 -1.1232  0.1224 -0.2761
   12CHTO  H178 4737   4.462  -0.135   0.401  3.7040 -1.7740  0.2993
   12CHTO   C92 4738   4.318  -0.186   0.557 -0.2426  0.7904  0.7744
   12CHTO  H179 4739   4.234  -0.136   0.506 -0.4654 -0.4365 -0.0587
   12CHTO   O66 4740   4.319  -0.328   0.522  0.3029  0.9416 -1.0865
   12CHTO  H166 4741   4.233  -0.365   0.523  0.4765  0.5254  1.4932
   12CHTO   C93 4742   4.303  -0.185   0.713  0.0864 -0.1703  1.0167
   12CHTO  H180 4743   4.241  -0.273   0.738 -0.0618 -0.2609  0.3455
   12CHTO   N16 4744   4.223  -0.071   0.766 -0.3578 -1.3557  0.0455
   12CHTO  H172 4745   4.272   0.014   0.720  1.4574 -2.5098 -0.2003
   12CHTO  H173 4746   4.123  -0.074   0.726 -0.6958  0.0473  0.7565
   12CHTO   C94 4747   4.436  -0.205   0.791 -0.8432 -0.2326  0.5256
   12CHTO  H181 4748   4.467  -0.110   0.835 -0.7657  0.7755 -1.6178
   12CHTO   O61 4749   4.546  -0.249   0.710  0.0789  0.1171  0.5300
   12CHTO   C95 4750   4.581  -0.174   0.592  0.0506  0.1962  0.2616
   12CHTO  H182 4751   4.641  -0.085   0.615  2.3492 -1.0155 -0.8731
   12CHTO  C106 4752   4.660  -0.265   0.499 -0.1593  0.3538  0.0241
   12CHTO   O69 4753   4.777  -0.318   0.569  0.1990 -0.2204  0.3395
   12CHTO  H169 4754   4.781  -0.406   0.537  1.2394 -0.3516  0.8097
   12CHTO   O63 4755   4.408  -0.304   0.901  0.2362 -0.0051 -1.0173
   12CHTO   C96 4756   4.536  -0.315   1.007 -0.3129  0.4174  0.1287
   12CHTO  H183 4757   4.613  -0.243   0.978  1.5969 -0.7686  2.0392
   12CHTO   C98 4758   4.595  -0.454   1.033  0.3075 -0.1036  0.0963
   12CHTO  H185 4759   4.601  -0.514   0.941  0.1653  0.4999 -0.3101
   12CHTO   O67 4760   4.731  -0.432   1.069 -0.2617 -0.4360  0.0057
   12CHTO  H167 4761   4.786  -0.392   1.004  0.5880  1.6414  1.9295
   12CHTO  C102 4762   4.520  -0.545   1.144 -0.0840 -0.2515  0.1947
   12CHTO  H189 4763   4.586  -0.631   1.166  0.1818 -0.0905  0.0228
   12CHTO   N18 4764   4.385  -0.601   1.104 -0.2252 -0.7169 -0.1003
   12CHTO  H176 4765   4.403  -0.686   1.040 -1.4033 -0.0974 -1.2585
   12CHTO  H177 4766   4.330  -0.524   1.053 -0.6133 -0.7338  0.2882
   12CHTO  C105 4767   4.521  -0.459   1.276 -0.2802  0.6872  1.3316
   12CHTO  H192 4768   4.428  -0.474   1.331 -0.6952 -0.6114  0.2978
   12CHTO   O65 4769   4.539  -0.314   1.262 -0.0053  0.3345  0.7160
   12CHTO  C100 4770   4.475  -0.253   1.143  0.1300 -0.2852  0.4627
   12CHTO  H187 4771   4.367  -0.272   1.142  0.6117 -3.4060 -2.6609
   12CHTO  C107 4772   4.514  -0.102   1.155  0.6261  0.2217 -0.1520
   12CHTO   O70 4773   4.457  -0.025   1.263  0.0375  0.4516  0.2921
   12CHTO  H170 4774   4.505   0.054   1.276  0.0119  0.5275 -0.1025
   12CHTO   O57 4775   4.656  -0.522   1.368  0.0748 -0.0363  0.4861
   12CHTO   C85 4776   4.660  -0.477   1.508 -0.7708 -0.0554 -0.7146
   12CHTO  H157 4777   4.556  -0.455   1.538 -1.0216 -1.3051 -0.6668
   12CHTO   C83 4778   4.745  -0.344   1.505 -0.2273 -0.1668  0.1745
   12CHTO  H155 4779   4.697  -0.263   1.450  1.0569  1.6355  1.6579
   12CHTO   O56 4780   4.865  -0.371   1.423  0.0088 -0.4065  0.5637
   12CHTO  H135 4781   4.903  -0.286   1.421 -0.3752 -0.2059  1.4893
   12CHTO   C81 4782   4.768  -0.303   1.655  0.2604  0.2868  0.0034
   12CHTO  H153 4783   4.671  -0.289   1.703  0.1662  1.7779 -0.5732
   12CHTO   N14 4784   4.825  -0.165   1.653 -0.1537 -0.3833  0.4577
   12CHTO  H141 4785   4.753  -0.105   1.705 -1.0453 -1.8267  0.9050
   12CHTO  H142 4786   4.918  -0.167   1.707  0.7261 -0.9317 -1.0701
   12CHTO   C79 4787   4.848  -0.412   1.733  0.5402 -0.6264  0.8113
   12CHTO  H151 4788   4.861  -0.372   1.833  0.9664  0.4267  0.3393
   12CHTO   O52 4789   4.785  -0.538   1.735  0.1376  0.0868 -0.2236
   12CHTO   C86 4790   4.729  -0.582   1.603 -0.1441  0.2994 -0.4186
   12CHTO  H158 4791   4.818  -0.631   1.559  0.4323 -0.7046  1.7816
   12CHTO   C90 4792   4.634  -0.703   1.634 -0.8886  0.3337  0.0756
   12CHTO   O60 4793   4.692  -0.828   1.677 -0.2412 -0.2807  0.0333
   12CHTO  H138 4794   4.671  -0.828   1.768 -0.1490  3.4272  0.1582
   12CHTO   O50 4795   4.982  -0.432   1.677  0.3417 -0.4362 -0.0420
   12CHTO   C73 4796   5.091  -0.477   1.756  0.0804  0.6733 -0.4332
   12CHTO  H145 4797   5.051  -0.546   1.833  0.3761  1.2049  0.2025
   12CHTO   C74 4798   5.177  -0.358   1.822  0.3696  0.1276 -0.9363
   12CHTO  H146 4799   5.105  -0.302   1.883  0.6146  0.7551 -1.2231
   12CHTO   O54 4800   5.279  -0.395   1.912  0.4751  0.0927 -0.7293
   12CHTO  H133 4801   5.342  -0.455   1.875 -0.3903  0.7212 -3.3049
   12CHTO   C75 4802   5.233  -0.269   1.702  0.0419  0.5652  0.1115
   12CHTO  H147 4803   5.152  -0.234   1.637 -0.7607 -0.8932  0.3113
   12CHTO   N13 4804   5.314  -0.157   1.742 -0.0886 -0.5080 -0.6572
   12CHTO  H139 4805   5.339  -0.102   1.653 -4.0115  0.9924 -0.9188
   12CHTO  H140 4806   5.406  -0.193   1.787 -0.0195  1.0750  0.5128
   12CHTO   C76 4807   5.313  -0.371   1.604 -0.5016 -0.1030  0.1598
   12CHTO  H148 4808   5.399  -0.416   1.655 -0.1906  1.2693  0.8837
   12CHTO   O49 4809   5.233  -0.478   1.558 -0.1231 -0.0039 -0.1618
   12CHTO   C77 4810   5.192  -0.559   1.664  0.4693 -0.8017 -0.8870
   12CHTO  H149 4811   5.274  -0.596   1.726 -0.2820  0.5754  0.9717
   12CHTO   C88 4812   5.120  -0.683   1.613  0.0017 -0.2738 -0.0043
   12CHTO   O58 4813   5.231  -0.771   1.545 -0.9188 -0.5026  0.0041
   12CHTO  H136 4814   5.258  -0.741   1.461  1.6504  0.5639  1.1676
   12CHTO   O51 4815   5.366  -0.306   1.483  0.2526  0.2351 -0.9801
   12CHTO   C78 4816   5.494  -0.389   1.411 -0.5671 -0.0621  0.5024
   12CHTO  H150 4817   5.477  -0.499   1.416  2.2137 -0.5420  0.1594
   12CHTO   C80 4818   5.630  -0.355   1.482  0.2634  0.1505  0.5256
   12CHTO  H152 4819   5.647  -0.245   1.483  2.4477 -0.1598 -0.2601
   12CHTO   O55 4820   5.627  -0.411   1.615  0.3550  0.1787  0.1444
   12CHTO  H134 4821   5.707  -0.380   1.653  0.7548 -0.4107 -0.2061
   12CHTO   C84 4822   5.749  -0.432   1.408 -0.1205 -0.0090 -0.5058
   12CHTO  H156 4823   5.730  -0.539   1.417 -1.2949  0.2848  0.8008
   12CHTO   N15 4824   5.888  -0.409   1.469  0.0215 -0.6556  0.6070
   12CHTO  H143 4825   5.878  -0.350   1.557 -0.2926  1.6665 -0.9509
   12CHTO  H144 4826   5.938  -0.502   1.487  1.2372 -0.3569 -1.0624
   12CHTO   C87 4827   5.739  -0.414   1.251  0.3717  0.1491  0.4058
   12CHTO  H159 4828   5.771  -0.310   1.244  2.7130 -0.5363  0.4694
   12CHTO   O53 4829   5.594  -0.441   1.196  0.4538  0.0216 -0.3073
   12CHTO   C82 4830   5.502  -0.355   1.264  0.5831 -0.1225 -0.6799
   12CHTO  H154 4831   5.536  -0.252   1.249 -0.0473  0.0980 -0.6483
   12CHTO   C89 4832   5.364  -0.375   1.200 -0.3616  0.5062  0.5751
   12CHTO   O59 4833   5.365  -0.348   1.060 -0.1263  0.3383 -0.2592
   12CHTO  H137 4834   5.438  -0.384   1.015  2.3485  1.6964  2.4998
   12CHTO   O45 4835   5.833  -0.512   1.172  0.2453  0.0061  0.4159
   12CHTO   C67 4836   5.869  -0.487   1.036  0.8144 -0.0934  0.8050
   12CHTO  H124 4837   5.956  -0.546   1.008  0.5213 -0.4333  0.6006
   12CHTO   C65 4838   5.749  -0.529   0.944 -0.1862  0.3448 -0.2691
   12CHTO  H122 4839   5.663  -0.486   0.995 -0.5715  0.3410 -0.9082
   12CHTO   O44 4840   5.749  -0.674   0.935  0.0741 -0.0728  0.4207
   12CHTO  H102 4841   5.816  -0.707   0.877  0.6205  1.1595  0.3265
   12CHTO   C63 4842   5.761  -0.459   0.802  0.3769 -0.6943 -0.0770
   12CHTO  H120 4843   5.704  -0.366   0.805  1.2594 -0.1882  1.4320
   12CHTO   N11 4844   5.686  -0.533   0.692  0.9984  0.5205 -0.1798
   12CHTO  H108 4845   5.591  -0.486   0.679  0.0248 -1.2216  0.4768
   12CHTO  H109 4846   5.732  -0.507   0.600 -0.4914  0.4555 -0.9625
   12CHTO   C61 4847   5.914  -0.424   0.769  0.2515 -0.4079  0.1215
   12CHTO  H118 4848   5.906  -0.365   0.676 -1.4490  0.7878  1.0004
   12CHTO   O40 4849   5.972  -0.331   0.868  0.6267 -0.8478  0.1498
   12CHTO   C68 4850   5.912  -0.339   1.003 -0.5741 -0.4510  0.0306
   12CHTO  H125 4851   5.825  -0.271   1.015  1.1629  1.6510  0.9484
   12CHTO   C72 4852   6.020  -0.290   1.104 -0.2632  0.4709 -0.3020
   12CHTO   O48 4853   6.061  -0.159   1.069  0.2733  0.2884 -0.3726
   12CHTO  H105 4854   6.129  -0.136   1.131 -0.5966 -0.3591  0.8475
   12CHTO   O38 4855   5.993  -0.535   0.735 -0.1588 -0.4439 -0.5158
   12CHTO   C55 4856   6.122  -0.575   0.783 -0.3773  0.0301 -0.1178
   12CHTO  H112 4857   6.120  -0.582   0.893 -1.0512  1.3284 -0.0295
   12CHTO   C56 4858   6.238  -0.475   0.732 -0.0753 -0.4490  0.7086
   12CHTO  H113 4859   6.237  -0.492   0.623 -5.1068 -1.3637  0.7823
   12CHTO   O42 4860   6.212  -0.338   0.757  1.1413  0.3854 -0.1613
   12CHTO  H100 4861   6.274  -0.292   0.704  0.2722  1.6164 -0.1238
   12CHTO   C57 4862   6.380  -0.518   0.788 -0.1015 -1.0874  0.1368
   12CHTO  H114 4863   6.396  -0.499   0.894 -2.1689  2.3004 -0.1075
   12CHTO   N10 4864   6.490  -0.447   0.725 -0.3245  0.1574 -0.1106
   12CHTO  H106 4865   6.587  -0.494   0.713 -0.3875  0.4506 -1.8575
   12CHTO  H107 4866   6.462  -0.411   0.627 -1.1680 -1.4680 -0.4805
   12CHTO   C58 4867   6.385  -0.670   0.761 -0.5526 -0.0818  0.2267
   12CHTO  H115 4868   6.418  -0.694   0.658 -3.9041 -0.1417 -0.8918
   12CHTO   O37 4869   6.276  -0.747   0.807  0.0471  0.3608  0.7192
   12CHTO   C59 4870   6.154  -0.727   0.740  0.0803 -0.3737  0.4654
   12CHTO  H116 4871   6.166  -0.733   0.631 -4.2211  1.7799 -0.2487
   12CHTO   C70 4872   6.050  -0.824   0.793  0.6849  0.3193 -0.3445
   12CHTO   O46 4873   5.930  -0.827   0.712 -0.0924 -0.8324  0.7843
   12CHTO  H103 4874   5.859  -0.813   0.772 -0.5415  1.4847 -0.2581
   12CHTO   O39 4875   6.502  -0.713   0.868 -1.0898 -0.1953  0.1868
   12CHTO   C60 4876   6.597  -0.813   0.833  0.3316  0.1972  0.0258
   12CHTO  H117 4877   6.536  -0.888   0.782 -0.3271 -0.1098  1.2631
   12CHTO   C62 4878   6.706  -0.778   0.729  0.2510  0.2399  0.0243
   12CHTO  H119 4879   6.647  -0.752   0.638  1.6577  1.3609 -0.5902
   12CHTO   O43 4880   6.778  -0.667   0.787  0.1171  0.5860 -0.0606
   12CHTO  H101 4881   6.865  -0.689   0.812  0.8163  2.7237 -0.5003
   12CHTO   C66 4882   6.793  -0.906   0.691  0.3457 -0.1966  0.6835
   12CHTO  H123 4883   6.725  -0.975   0.641 -0.0509 -0.1930  1.2085
   12CHTO   N12 4884   6.905  -0.875   0.596 -0.6588  0.2117 -0.7171
   12CHTO  H110 4885   6.938  -0.775   0.575 -2.7275  0.6889 -1.8024
   12CHTO  H111 4886   6.988  -0.943   0.607 -0.7554  0.1721 -0.1775
   12CHTO   C69 4887   6.837  -0.982   0.821 -0.1353 -0.6168 -0.4593
   12CHTO  H126 4888   6.917  -0.928   0.875 -1.0699 -0.5046  0.8292
   12CHTO   O41 4889   6.721  -1.004   0.913 -0.1497 -0.2025 -0.2982
   12CHTO   C64 4890   6.645  -0.880   0.961 -0.0076  0.2405  0.1254
   12CHTO  H121 4891   6.712  -0.804   1.008  1.3193  0.5797 -2.2229
   12CHTO   C71 4892   6.538  -0.929   1.064  0.0894  0.1498 -0.3370
   12CHTO   O47 4893   6.598  -1.008   1.169  0.2131  0.3235 -0.1373
   12CHTO  H104 4894   6.637  -1.080   1.125  2.9184  0.6203  1.6208
   12CHTO   O34 4895   6.882  -1.123   0.767  0.0404  0.4097 -0.2137
   12CHTO   C49 4896   6.904  -1.279   0.815  0.3118  0.6129 -0.1507
   12CHTO   H91 4897   7.011  -1.292   0.834  0.1644 -0.5445 -0.1325
   12CHTO   C47 4898   6.868  -1.361   0.694 -0.5746 -0.8036 -0.4569
   12CHTO   H89 4899   6.882  -1.468   0.722  0.3938 -1.1734 -2.2395
   12CHTO   O33 4900   6.957  -1.332   0.582  0.2022  0.1070 -0.3948
   12CHTO   H70 4901   7.048  -1.330   0.605  0.6028  0.3120 -1.9180
   12CHTO   C45 4902   6.713  -1.336   0.645 -0.4145  0.0642  0.1654
   12CHTO   H87 4903   6.711  -1.243   0.586 -0.9617 -1.1186 -1.7005
   12CHTO    N8 4904   6.659  -1.446   0.565 -0.5335  0.2015  0.3856
   12CHTO   H75 4905   6.552  -1.436   0.553 -0.6333 -0.8257  0.3243
   12CHTO   H76 4906   6.698  -1.439   0.465 -2.4319  1.8845 -0.2785
   12CHTO   C43 4907   6.626  -1.293   0.778 -0.7980 -0.6594  0.1561
   12CHTO   H85 4908   6.638  -1.185   0.785  0.1036 -0.7035 -0.5863
   12CHTO   O29 4909   6.681  -1.357   0.892 -0.1427 -0.4547 -0.3460
   12CHTO   C50 4910   6.820  -1.331   0.925  0.3739  0.2096 -0.2807
   12CHTO   H92 4911   6.833  -1.271   1.016 -0.6551 -0.5657  0.3950
   12CHTO   C54 4912   6.860  -1.469   0.986  0.2522 -0.1603  0.4643
   12CHTO   O36 4913   6.774  -1.512   1.088 -0.3342 -0.1327 -0.1714
   12CHTO   H72 4914   6.814  -1.580   1.140 -2.3874  0.8179  2.7707
   12CHTO   O27 4915   6.480  -1.312   0.770  0.7005 -0.4214  0.1038
   12CHTO   C37 4916   6.364  -1.330   0.853  0.0894  0.1255 -0.3217
   12CHTO   H79 4917   6.338  -1.437   0.851 -1.0076  0.3792 -0.4255
   12CHTO   C38 4918   6.394  -1.273   1.001  0.3047 -0.0026 -0.0523
   12CHTO   H80 4919   6.446  -1.177   1.005 -2.8117  1.6886  1.6213
   12CHTO   O31 4920   6.483  -1.368   1.055 -0.3120 -0.0325 -0.0868
   12CHTO   H68 4921   6.504  -1.363   1.146  1.2415  0.1437 -0.4460
   12CHTO   C39 4922   6.265  -1.271   1.098 -0.0760 -0.6726  0.4976
   12CHTO   H81 4923   6.234  -1.372   1.122 -0.8803 -0.7242 -0.7226
   12CHTO    N7 4924   6.293  -1.207   1.225 -0.1735  0.4738  0.3937
   12CHTO   H73 4925   6.380  -1.243   1.277  0.4578  3.0695  1.2549
   12CHTO   H74 4926   6.307  -1.101   1.206  0.2326  0.2464 -0.5727
   12CHTO   C40 4927   6.142  -1.204   1.015  0.5257 -1.0065 -1.0284
   12CHTO   H82 4928   6.161  -1.097   1.008 -0.4331 -0.9006 -2.1349
   12CHTO   O26 4929   6.122  -1.262   0.883 -0.2515  0.1941 -0.2461
   12CHTO   C41 4930   6.244  -1.251   0.799 -0.0722  0.0955 -0.8312
   12CHTO   H83 4931   6.277  -1.146   0.794  0.5103 -0.1096 -1.3086
   12CHTO   C52 4932   6.193  -1.293   0.664  0.0272 -0.1469 -0.8209
   12CHTO   O35 4933   6.115  -1.208   0.591 -0.2192  0.2335  0.3361
   12CHTO   H71 4934   6.175  -1.155   0.542 -1.2505 -0.3275 -1.6172
   12CHTO   O28 4935   6.015  -1.228   1.087  0.2615  0.4281 -0.2741
   12CHTO   C42 4936   5.909  -1.114   1.082 -0.0001  0.3143  0.1476
   12CHTO   H84 4937   5.934  -1.044   1.003  0.4707 -0.4377 -0.3813
   12CHTO   C44 4938   5.911  -1.024   1.209 -0.4025  0.0586 -0.2562
   12CHTO   H86 4939   5.866  -1.074   1.295  0.4966  0.7734  0.6411
   12CHTO   O32 4940   6.048  -0.990   1.242  0.1508  0.0704 -0.3283
   12CHTO   H69 4941   6.084  -0.946   1.167  0.0205  2.9597  1.2129
   12CHTO   C48 4942   5.814  -0.901   1.193  0.3693 -0.0893 -0.5345
   12CHTO   H90 4943   5.849  -0.822   1.127 -0.5216 -0.5851 -1.5998
   12CHTO    N9 4944   5.801  -0.823   1.321 -0.1146  0.5400  0.1717
   12CHTO   H77 4945   5.896  -0.798   1.367  0.6124 -2.5775  0.4617
   12CHTO   H78 4946   5.731  -0.741   1.312 -0.5720  0.1159 -0.1624
   12CHTO   C51 4947   5.668  -0.959   1.157 -0.8824  0.7030 -0.0027
   12CHTO   H93 4948   5.615  -1.001   1.242 -0.2041  1.7081  0.9426
   12CHTO   O30 4949   5.674  -1.052   1.049 -0.4121 -0.4712 -0.1541
   12CHTO   C46 4950   5.762  -1.168   1.056 -0.8717 -0.2730 -0.1330
   12CHTO   H88 4951   5.726  -1.231   1.137  1.0426  1.6601  2.3156
   12CHTO   C53 4952   5.759  -1.248   0.921  0.1347  0.2425  0.1963
   12CHTO   O72 4953   5.620  -1.288   0.892 -0.8678  0.2792  0.7262
   12CHTO  H199 4954   5.589  -1.207   0.858  2.7281  1.7448  0.6828
   12CHTO   O22 4955   5.595  -0.850   1.099 -0.0539 -0.2440 -0.0676
   12CHTO   C31 4956   5.445  -0.865   1.065  0.0365 -0.0959  0.1271
   12CHTO   H59 4957   5.416  -0.972   1.074 -3.5534  0.7720 -0.1934
   12CHTO   C29 4958   5.358  -0.783   1.167  0.5801 -1.1830  0.8485
   12CHTO   H57 4959   5.375  -0.676   1.146  1.9324 -1.6742 -0.6763
   12CHTO   O21 4960   5.394  -0.806   1.305 -0.2629 -0.2754  0.7991
   12CHTO   H37 4961   5.480  -0.777   1.330 -0.5614 -2.0895  4.1787
   12CHTO   C27 4962   5.203  -0.812   1.131 -0.6754 -1.0293  0.3935
   12CHTO   H55 4963   5.174  -0.915   1.158 -0.1234 -0.1356  4.8066
   12CHTO    N5 4964   5.104  -0.717   1.195 -0.1160  0.1711 -0.1637
   12CHTO   H43 4965   5.042  -0.754   1.275 -2.1830  2.9034 -0.4472
   12CHTO   H44 4966   5.146  -0.619   1.211  1.2780 -0.1011 -1.9476
   12CHTO   C25 4967   5.182  -0.806   0.974 -0.9606  0.2953  1.0161
   12CHTO   H53 4968   5.196  -0.702   0.941 -1.5536 -0.0511 -0.3718
   12CHTO   O17 4969   5.280  -0.871   0.894 -0.1565  0.6068  0.0502
   12CHTO   C32 4970   5.411  -0.827   0.916  0.6179 -0.1516  0.2802
   12CHTO   H60 4971   5.415  -0.719   0.897 -0.1454 -0.5845 -2.4342
   12CHTO   C36 4972   5.502  -0.901   0.818 -0.0965  0.2037 -0.2933
   12CHTO   O25 4973   5.481  -0.868   0.678 -0.2040 -0.7482  0.5900
   12CHTO   H40 4974   5.538  -0.799   0.650  0.7169 -1.1403  1.4494
   12CHTO   O15 4975   5.040  -0.849   0.920 -0.0450  0.2015  0.3018
   12CHTO   C19 4976   4.953  -0.758   0.851 -0.3064 -0.5559  0.5174
   12CHTO   H47 4977   4.969  -0.664   0.906  0.9825 -0.4256 -0.0687
   12CHTO   C20 4978   4.991  -0.744   0.701 -0.2475 -0.5097 -0.0985
   12CHTO   H48 4979   4.976  -0.838   0.646 -0.2897 -1.8029  2.0621
   12CHTO   O19 4980   5.130  -0.707   0.691  0.2910  0.1505 -0.2252
   12CHTO   H35 4981   5.153  -0.663   0.612 -0.5856  1.1995  0.0936
   12CHTO   C21 4982   4.902  -0.637   0.631  0.4909 -0.2503  0.4723
   12CHTO   H49 4983   4.916  -0.539   0.677  0.4401  0.2676 -0.5955
   12CHTO    N4 4984   4.932  -0.600   0.491 -0.0805  0.4257 -0.3403
   12CHTO   H41 4985   4.944  -0.692   0.436 -0.2483 -0.6798  1.4343
   12CHTO   H42 4986   4.837  -0.557   0.459  0.0012 -0.4578 -1.8281
   12CHTO   C22 4987   4.755  -0.684   0.651  0.2981 -0.1377 -0.0448
   12CHTO   H50 4988   4.735  -0.782   0.610 -1.8435  0.8745 -1.4508
   12CHTO   O14 4989   4.726  -0.681   0.791 -0.2022  0.2534  0.2502
   12CHTO   C23 4990   4.798  -0.790   0.862  0.3682 -0.1272 -0.4779
   12CHTO   H51 4991   4.772  -0.880   0.806  0.7466  0.9548 -2.4226
   12CHTO   C34 4992   4.738  -0.807   1.003 -0.4679  0.5811 -0.3084
   12CHTO   O23 4993   4.823  -0.897   1.073  0.1507 -0.2436  0.1168
   12CHTO   H38 4994   4.893  -0.850   1.114 -0.8961  1.8291 -0.4237
   12CHTO   O16 4995   4.656  -0.595   0.593 -0.5822 -0.3129 -0.4309
   12CHTO   C24 4996   4.491  -0.653   0.571 -0.1230 -1.0968  0.0191
   12CHTO   H52 4997   4.432  -0.584   0.510  0.3088  2.6711  3.5754
   12CHTO   C26 4998   4.419  -0.670   0.701  0.3327 -0.6330 -0.9303
   12CHTO   H54 4999   4.475  -0.743   0.762  1.8113  1.0830 -0.2158
   12CHTO   O20 5000   4.423  -0.543   0.762  0.3613 -0.3844  0.0237
   12CHTO   H36 5001   4.494  -0.522   0.820  0.1721 -0.9094  0.4595
   12CHTO   C30 5002   4.284  -0.744   0.668 -0.0722  0.0622  0.4646
   12CHTO   H58 5003   4.224  -0.679   0.602  0.3724 -0.4320 -0.4406
   12CHTO    N6 5004   4.200  -0.766   0.790 -0.6819  0.3098 -0.1821
   12CHTO   H45 5005   4.243  -0.834   0.862 -1.6538 -1.5698 -1.3355
   12CHTO   H46 5006   4.103  -0.807   0.765  1.0404 -3.2576 -1.3127
   12CHTO   C33 5007   4.313  -0.876   0.588 -0.5097 -0.5487 -0.2411
   12CHTO   H61 5008   4.379  -0.943   0.646  1.0509  0.0560 -1.2899
   12CHTO   O18 5009   4.377  -0.839   0.470  0.5948 -0.0053 -0.2039
   12CHTO   C28 5010   4.508  -0.784   0.496  1.1300 -0.2934  0.0069
   12CHTO   H56 5011   4.571  -0.847   0.558  0.5838 -2.4148 -1.5672
   12CHTO   C35 5012   4.583  -0.768   0.359 -0.4814  0.1845  0.2698
   12CHTO   O24 5013   4.499  -0.680   0.274 -0.2549  0.1959  0.2407
   12CHTO   H39 5014   4.415  -0.721   0.267  0.9760 -2.2051 -1.4055
   12CHTO    O9 5015   4.191  -0.953   0.559 -0.4008 -0.4650 -0.4040
   12CHTO   C13 5016   4.216  -1.086   0.481 -0.9865 -0.3942  0.0847
   12CHTO   H26 5017   4.294  -1.072   0.404  0.0433 -1.1919  0.9630
   12CHTO   C11 5018   4.070  -1.124   0.413  0.1758  0.2030 -0.4705
   12CHTO   H24 5019   4.051  -1.042   0.342  0.5440  2.3538  1.8196
   12CHTO    O8 5020   3.962  -1.130   0.510  0.1507 -0.2839  0.0866
   12CHTO    H3 5021   3.878  -1.127   0.467  0.5953 -1.7719 -0.9245
   12CHTO    C9 5022   4.091  -1.259   0.337 -0.1623  0.0098  0.3352
   12CHTO   H22 5023   4.176  -1.233   0.272 -1.3844  1.8425 -0.5790
   12CHTO    N2 5024   3.976  -1.291   0.247  0.3593  0.1979  0.6859
   12CHTO   H10 5025   3.885  -1.305   0.304  0.6585  2.2361  1.7114
   12CHTO   H11 5026   3.990  -1.374   0.180 -0.7031  2.3583 -2.3491
   12CHTO    C7 5027   4.141  -1.371   0.441 -0.0349  0.4725  0.2603
   12CHTO   H20 5028   4.158  -1.459   0.375  0.8438 -0.4029  1.6275
   12CHTO    O4 5029   4.262  -1.329   0.503  0.3966 -0.4959  0.6911
   12CHTO   C14 5030   4.266  -1.206   0.579 -0.2569  0.3174  0.6306
   12CHTO   H27 5031   4.371  -1.179   0.599  0.1962  0.0600 -1.2719
   12CHTO   C18 5032   4.188  -1.192   0.715 -0.3340  0.1652 -0.0868
   12CHTO   O13 5033   4.216  -1.309   0.790 -0.4526  0.3324 -0.1181
   12CHTO    H7 5034   4.159  -1.379   0.765 -0.2645  0.0347  0.2626
   12CHTO    O2 5035   4.024  -1.401   0.561 -0.3693 -0.0030 -0.6899
   12CHTO    C1 5036   3.957  -1.533   0.567  0.4515  0.5242  0.0456
   12CHTO   H14 5037   3.990  -1.588   0.476  0.7639  0.7569  0.0151
   12CHTO    C2 5038   3.801  -1.522   0.567  0.2089 -1.1935 -0.3872
   12CHTO   H15 5039   3.776  -1.450   0.646 -3.2663 -2.8542  0.0867
   12CHTO    O6 5040   3.753  -1.479   0.437 -0.2283 -1.1609 -0.0923
   12CHTO    H1 5041   3.664  -1.451   0.446 -0.2832 -1.8677  1.9971
   12CHTO    C3 5042   3.727  -1.662   0.612 -0.2069  0.0207  0.1866
   12CHTO   H16 5043   3.742  -1.731   0.528 -0.5609 -1.0117  0.9727
   12CHTO    N1 5044   3.576  -1.646   0.628 -0.1604 -0.4131 -0.2732
   12CHTO    H8 5045   3.553  -1.562   0.693  0.7881  0.8421 -1.5374
   12CHTO    H9 5046   3.530  -1.738   0.661 -0.0563  0.4680  2.4826
   12CHTO    C4 5047   3.800  -1.728   0.735  0.0781 -0.1709  0.6614
   12CHTO   H17 5048   3.784  -1.668   0.825  1.5437  0.8716  0.2481
   12CHTO    O1 5049   3.940  -1.744   0.706 -0.0632  0.0103 -0.2525
   12CHTO    C5 5050   4.007  -1.616   0.687 -0.8721 -0.3335  0.7994
   12CHTO   H18 5051   3.984  -1.565   0.780  0.8501  0.3640  0.8673
   12CHTO   C16 5052   4.163  -1.644   0.687 -0.3037 -0.0314  1.4370
   12CHTO   O11 5053   4.201  -1.714   0.802 -0.0358  0.4019  0.2814
   12CHTO    H5 5054   4.144  -1.690   0.873  0.4792  0.6224  0.6253
   12CHTO    O3 5055   3.761  -1.864   0.758  0.3391  0.1674 -0.5707
   12CHTO    C6 5056   3.807  -1.908   0.893 -0.1459 -0.2458 -0.0404
   12CHTO   H19 5057   3.887  -1.845   0.930 -0.9904  0.7637  0.1141
   12CHTO    C8 5058   3.697  -1.909   1.006 -0.8131  0.2978  0.4806
   12CHTO   H21 5059   3.618  -1.971   0.963 -0.7393  0.3687  0.2424
   12CHTO    O7 5060   3.650  -1.773   1.026  0.0537 -0.2713 -0.0894
   12CHTO    H2 5061   3.557  -1.782   1.035  0.1168 -0.8108  0.0273
   12CHTO   C12 5062   3.750  -1.970   1.139 -0.1630  0.1404  0.1411
   12CHTO   H25 5063   3.826  -1.899   1.180 -0.0224 -0.2166  0.5077
   12CHTO    N3 5064   3.642  -1.980   1.241 -0.0818 -0.3281 -0.2377
   12CHTO   H12 5065   3.566  -2.056   1.230 -0.5736 -0.3001  2.5856
   12CHTO   H13 5066   3.692  -1.995   1.335  1.6130 -1.8273 -1.3427
   12CHTO   C15 5067   3.817  -2.112   1.114  0.7565 -0.7112  0.4113
   12CHTO   H28 5068   3.738  -2.187   1.111 -0.6647  0.8062 -0.6620
   12CHTO   O10 5069   3.914  -2.147   1.211 -0.7157  0.6608  0.5409
   12CHTO    H4 5070   3.937  -2.237   1.222 -0.0267  0.8369  0.5976
   12CHTO    O5 5071   3.910  -2.105   1.003  0.1538 -0.1928  0.0908
   12CHTO   C10 5072   3.863  -2.054   0.876  0.2974  1.1880 -0.5406
   12CHTO   H23 5073   3.780  -2.115   0.840  1.2070 -1.7897  2.1812
   12CHTO   C17 5074   3.986  -2.058   0.780  0.4550  0.1872  0.3559
   12CHTO   O12 5075   4.012  -2.195   0.746 -0.6119 -0.2070  0.3336
   12CHTO    H6 5076   4.058  -2.199   0.665 -3.1985 -0.7656 -1.1860
   13CHTO  H203 5077   7.316   4.553   2.596 -0.2092  1.4109 -0.8078
   13CHTO   O82 5078   7.292   4.616   2.661  0.0867 -0.0592  0.7745
   13CHTO  C123 5079   7.211   4.727   2.617  0.2110 -0.3585 -1.1485
   13CHTO  H227 5080   7.234   4.758   2.514 -3.1671  0.1079 -1.8447
   13CHTO   O77 5081   7.081   4.678   2.614 -0.6539 -0.2103 -0.6988
   13CHTO  C118 5082   6.981   4.750   2.540 -0.0221 -0.2483  0.8695
   13CHTO  H222 5083   7.010   4.767   2.436 -0.3050  1.4447  1.0576
   13CHTO  C125 5084   6.855   4.663   2.543  0.7182 -0.2869  0.0628
   13CHTO   O84 5085   6.749   4.705   2.459 -0.4997 -0.1464 -0.4565
   13CHTO  H205 5086   6.665   4.671   2.482 -1.4313  1.5048 -1.3544
   13CHTO  C114 5087   6.967   4.882   2.616 -0.2909 -0.1975 -0.5482
   13CHTO  H218 5088   6.907   4.869   2.706  1.0004 -2.0517  0.0715
   13CHTO  C116 5089   7.110   4.951   2.655  0.1254  0.3499 -0.3036
   13CHTO  H220 5090   7.160   4.984   2.562  1.8600  3.0563  1.4823
   13CHTO   O79 5091   7.091   5.068   2.738 -0.3155 -0.3746  0.3885
   13CHTO  H201 5092   7.177   5.093   2.766  0.2166 -0.6447 -0.9744
   13CHTO  C120 5093   7.211   4.845   2.719 -0.1865  0.5962  0.4857
   13CHTO  H224 5094   7.164   4.818   2.815 -1.2585 -0.7958 -0.4103
   13CHTO   N21 5095   7.339   4.909   2.738 -0.4184 -0.2206  0.7082
   13CHTO  H211 5096   7.324   4.960   2.832  0.2892 -1.1002  1.2987
   13CHTO  H212 5097   7.425   4.844   2.730  0.7547  1.4252 -0.6684
   13CHTO   O75 5098   6.885   4.950   2.512 -0.3635 -0.4366  0.2164
   13CHTO  C112 5099   6.773   5.037   2.580 -0.0022 -0.3394  0.9254
   13CHTO  H216 5100   6.802   5.057   2.684  1.0433  2.2175  0.1542
   13CHTO   O73 5101   6.651   4.960   2.566 -0.4454 -0.0308 -0.6786
   13CHTO  C113 5102   6.521   5.016   2.598 -0.3281  0.2800  0.1187
   13CHTO  H217 5103   6.505   5.021   2.708  0.3212  0.7374  0.1942
   13CHTO  C124 5104   6.430   4.909   2.548  0.4252  0.2605  0.0337
   13CHTO   O83 5105   6.459   4.777   2.591  0.0632  0.7855 -1.0848
   13CHTO  H204 5106   6.551   4.759   2.598 -0.1045  0.1415 -0.4289
   13CHTO  C109 5107   6.504   5.150   2.525 -0.0711  0.0831  0.0702
   13CHTO  H213 5108   6.476   5.126   2.422  1.0958 -2.6864  0.3340
   13CHTO  C110 5109   6.628   5.241   2.548 -0.1950  0.7608  0.4659
   13CHTO  H214 5110   6.638   5.263   2.654  1.8361 -1.4748  0.7618
   13CHTO   O78 5111   6.599   5.359   2.475 -0.2085  0.0547 -0.7769
   13CHTO  H200 5112   6.651   5.426   2.515  0.3852 -1.0725  0.3651
   13CHTO  C111 5113   6.760   5.171   2.509  1.0090  0.6706  0.5272
   13CHTO  H215 5114   6.762   5.152   2.400  3.1711  0.2538  0.6062
   13CHTO   N19 5115   6.875   5.261   2.539 -0.3468 -0.0622 -0.5742
   13CHTO  H207 5116   6.970   5.222   2.504  0.2791  0.2004  0.7647
   13CHTO  H208 5117   6.846   5.363   2.518 -0.7786 -0.0161  0.2236
   13CHTO   O74 5118   6.401   5.221   2.594  0.7805 -0.1271  0.3786
   13CHTO  C115 5119   6.252   5.208   2.561  0.0166  0.0568  0.6143
   13CHTO  H219 5120   6.205   5.305   2.542  0.2596 -0.1269 -1.0079
   13CHTO   O76 5121   6.231   5.138   2.441 -0.4149 -0.0308  0.3238
   13CHTO  C122 5122   6.095   5.116   2.399 -0.4919  0.2047 -0.1827
   13CHTO  H226 5123   6.093   5.045   2.316 -0.2850  0.5435 -0.4764
   13CHTO  C126 5124   6.024   5.237   2.346 -0.3135 -0.2747 -0.1809
   13CHTO   O85 5125   6.080   5.279   2.220  0.2215  0.4318 -0.2563
   13CHTO  H206 5126   6.083   5.372   2.210  2.9690  0.5621  1.3016
   13CHTO  C121 5127   6.003   5.056   2.513 -0.1693  0.7794  0.5952
   13CHTO  H225 5128   5.895   5.064   2.490  0.1954 -1.1456 -2.0901
   13CHTO   O81 5129   6.027   4.911   2.506 -0.0264  0.1752  0.8141
   13CHTO  H202 5130   5.963   4.868   2.560 -0.3722  0.4512  0.6225
   13CHTO  C119 5131   6.028   5.121   2.652  0.0229 -0.4749  0.6738
   13CHTO  H223 5132   5.995   5.225   2.642  0.8042 -0.1844  1.0869
   13CHTO  C117 5133   6.183   5.122   2.673  0.2862 -0.3403  0.0781
   13CHTO  H221 5134   6.228   5.023   2.659 -0.0894 -0.4166 -0.6480
   13CHTO   N20 5135   6.219   5.178   2.809  0.0859  0.3983  0.4618
   13CHTO  H209 5136   6.227   5.101   2.884 -0.6330 -0.4686 -0.3435
   13CHTO  H210 5137   6.139   5.242   2.844  1.7809  3.2372 -0.6912
   13CHTO   O80 5138   5.941   5.063   2.761  0.4939 -0.4797 -0.5853
   13CHTO  C103 5139   5.849   5.166   2.861  0.0476 -0.4752  0.9115
   13CHTO  H190 5140   5.818   5.119   2.954 -2.4150  0.7634  0.7464
   13CHTO  C101 5141   5.906   5.309   2.911 -0.1794 -0.3216  0.5989
   13CHTO  H188 5142   5.975   5.350   2.838  0.1804 -1.6904  0.1459
   13CHTO   O68 5143   5.987   5.286   3.048 -0.8475 -0.9484  0.2693
   13CHTO  H168 5144   5.944   5.220   3.099 -1.3243  0.9709  2.4718
   13CHTO   C99 5145   5.788   5.417   2.946  0.1967 -0.0292 -0.4251
   13CHTO  H186 5146   5.753   5.405   3.050 -1.1615 -2.2881 -1.1096
   13CHTO   N17 5147   5.840   5.564   2.944 -0.0130  0.0859 -0.1198
   13CHTO  H174 5148   5.809   5.630   3.024 -0.9283  1.3740 -1.5140
   13CHTO  H175 5149   5.811   5.612   2.851 -0.2738 -2.5846 -1.4649
   13CHTO   C97 5150   5.665   5.397   2.852 -1.1564 -0.0967 -0.0673
   13CHTO  H184 5151   5.693   5.448   2.759 -1.9785 -3.7354 -2.4029
   13CHTO   O64 5152   5.621   5.262   2.824  0.6032 -0.5781 -0.0265
   13CHTO  C104 5153   5.716   5.169   2.770 -0.7970 -0.0452 -0.4353
   13CHTO  H191 5154   5.745   5.193   2.668 -0.7391 -0.4751 -0.5188
   13CHTO  C108 5155   5.661   5.030   2.763  0.2708  0.5497 -0.2961
   13CHTO   O71 5156   5.539   5.017   2.692  0.1809 -0.1503 -0.1905
   13CHTO  H171 5157   5.532   5.056   2.607  2.7399  0.7379 -0.0301
   13CHTO   O62 5158   5.551   5.462   2.917  0.1121 -0.2099  0.1075
   13CHTO   C91 5159   5.450   5.515   2.825  0.3287 -0.6747 -0.7749
   13CHTO  H178 5160   5.460   5.464   2.729  2.7127 -0.5394 -0.6202
   13CHTO   C92 5161   5.481   5.671   2.802  0.4949 -0.2993 -0.0384
   13CHTO  H179 5162   5.505   5.708   2.903  1.8579  0.4988 -0.6315
   13CHTO   O66 5163   5.604   5.685   2.729 -0.4144  0.7890 -0.2983
   13CHTO  H166 5164   5.672   5.638   2.772 -1.5719 -0.0408  0.6626
   13CHTO   C93 5165   5.364   5.746   2.725  0.6649 -0.0875 -0.2988
   13CHTO  H180 5166   5.372   5.714   2.620 -1.7103  3.4584 -1.6423
   13CHTO   N16 5167   5.383   5.889   2.717  0.1806  0.0713  0.0557
   13CHTO  H172 5168   5.484   5.925   2.733  0.4409 -1.4100  1.9434
   13CHTO  H173 5169   5.347   5.927   2.623  2.6546  1.3986 -0.3962
   13CHTO   C94 5170   5.227   5.707   2.778  0.5733  0.1821  0.2979
   13CHTO  H181 5171   5.206   5.747   2.877  1.4772 -2.4897  1.6218
   13CHTO   O61 5172   5.215   5.561   2.776 -0.6720  0.2269  0.2537
   13CHTO   C95 5173   5.298   5.501   2.873  0.3008 -0.0856  0.0886
   13CHTO  H182 5174   5.268   5.538   2.971 -1.3069 -2.0907  0.3620
   13CHTO  C106 5175   5.264   5.343   2.858 -0.2054  0.0255 -0.2035
   13CHTO   O69 5176   5.127   5.315   2.898  0.5132  0.6208 -0.1533
   13CHTO  H169 5177   5.091   5.252   2.839  1.8453 -1.0506  0.7449
   13CHTO   O63 5178   5.123   5.759   2.666 -0.2163  0.7096 -0.4952
   13CHTO   C96 5179   4.965   5.695   2.661  0.4356  0.7174 -0.8383
   13CHTO  H183 5180   4.896   5.768   2.618 -1.9999 -1.0068  0.0183
   13CHTO   C98 5181   4.914   5.672   2.806  0.4187  0.2400 -0.3456
   13CHTO  H185 5182   4.978   5.595   2.851 -2.0372 -2.7448 -1.7688
   13CHTO   O67 5183   4.931   5.789   2.888  0.1257 -0.0670  0.0116
   13CHTO  H167 5184   5.023   5.796   2.901 -0.0001 -2.5442  2.6330
   13CHTO  C102 5185   4.765   5.619   2.808 -0.1736 -0.1310 -0.6011
   13CHTO  H189 5186   4.700   5.693   2.760 -0.1190 -0.2169 -0.8071
   13CHTO   N18 5187   4.707   5.592   2.937 -0.0441  0.1921 -0.4043
   13CHTO  H176 5188   4.732   5.493   2.974  1.4815  0.7770  0.1298
   13CHTO  H177 5189   4.723   5.670   3.009  0.0588  1.4569 -1.7893
   13CHTO  C105 5190   4.753   5.496   2.707  0.2728 -0.3893 -0.2186
   13CHTO  H192 5191   4.806   5.411   2.751 -0.7765 -0.0453  1.7603
   13CHTO   O65 5192   4.817   5.521   2.580  0.3443 -0.0341 -0.6662
   13CHTO  C100 5193   4.954   5.560   2.582  0.0389 -0.1864  0.2072
   13CHTO  H187 5194   5.020   5.485   2.628 -1.9290 -1.6377  0.7314
   13CHTO  C107 5195   5.008   5.586   2.447 -0.7451  0.6806  0.2408
   13CHTO   O70 5196   5.086   5.478   2.408  0.5422 -0.2181 -0.6097
   13CHTO  H170 5197   5.170   5.471   2.448  0.3035 -1.9480 -0.3681
   13CHTO   O57 5198   4.571   5.465   2.692  0.2810  0.3688 -0.3263
   13CHTO   C85 5199   4.480   5.531   2.599 -0.8297 -0.3536  0.5992
   13CHTO  H157 5200   4.546   5.598   2.540 -0.8435  0.8261  1.9124
   13CHTO   C83 5201   4.383   5.616   2.686  0.2695 -0.1732  0.3421
   13CHTO  H155 5202   4.435   5.697   2.737  2.4479 -1.3159  0.0130
   13CHTO   O56 5203   4.329   5.534   2.790 -0.2757  0.2668  0.2348
   13CHTO  H135 5204   4.262   5.583   2.833 -0.5676  0.3681 -0.3390
   13CHTO   C81 5205   4.270   5.677   2.589 -0.6431  0.1493 -0.7026
   13CHTO  H153 5206   4.321   5.741   2.518 -2.0585  1.0732 -0.8964
   13CHTO   N14 5207   4.177   5.767   2.659 -0.4222  0.1953 -0.4547
   13CHTO  H141 5208   4.228   5.827   2.731 -1.1702 -0.3906  0.5825
   13CHTO  H142 5209   4.132   5.837   2.592 -2.3248 -0.7983 -0.2621
   13CHTO   C79 5210   4.191   5.561   2.510  0.4062 -0.4744  0.8008
   13CHTO  H151 5211   4.118   5.613   2.449  2.5316  0.3991 -1.0492
   13CHTO   O52 5212   4.283   5.489   2.437 -0.5878 -0.4549  0.2458
   13CHTO   C86 5213   4.394   5.428   2.508 -0.1600 -0.3042 -0.4430
   13CHTO  H158 5214   4.349   5.347   2.569 -0.8930  0.8413  0.5321
   13CHTO   C90 5215   4.492   5.366   2.398 -0.2556  0.2364 -0.5990
   13CHTO   O60 5216   4.500   5.446   2.284  0.2280  0.0090 -0.3576
   13CHTO  H138 5217   4.412   5.441   2.252  0.1833 -1.1043 -0.0907
   13CHTO   O50 5218   4.113   5.470   2.593  0.2492 -0.2172 -0.1854
   13CHTO   C73 5219   4.005   5.396   2.536 -0.3509  0.0272 -0.2199
   13CHTO  H145 5220   4.021   5.365   2.431  3.7977 -1.2004  0.6919
   13CHTO   C74 5221   3.870   5.468   2.541  0.8801 -0.0351 -0.4925
   13CHTO  H146 5222   3.883   5.558   2.479 -1.6855 -0.7848 -2.2026
   13CHTO   O54 5223   3.776   5.390   2.468  0.3410  0.4244 -0.1782
   13CHTO  H133 5224   3.775   5.406   2.375  1.0766 -0.4208 -0.3335
   13CHTO   C75 5225   3.823   5.499   2.688  0.3430  0.2414  0.0317
   13CHTO  H147 5226   3.889   5.573   2.736 -1.2153  2.2089 -0.7827
   13CHTO   N13 5227   3.692   5.565   2.700 -0.6852  0.3362 -0.3372
   13CHTO  H139 5228   3.607   5.500   2.689 -1.0714  0.9873 -1.2919
   13CHTO  H140 5229   3.685   5.608   2.799 -0.1211  0.3033 -0.2772
   13CHTO   C76 5230   3.830   5.359   2.773  0.6226 -0.6520 -0.1110
   13CHTO  H148 5231   3.762   5.290   2.724 -0.8204  0.9865 -0.4765
   13CHTO   O49 5232   3.964   5.301   2.761 -0.7666  0.6525 -0.2738
   13CHTO   C77 5233   3.987   5.265   2.624 -0.4014  0.3862  0.0180
   13CHTO  H149 5234   3.897   5.215   2.588 -1.2588  1.4610  0.6308
   13CHTO   C88 5235   4.104   5.172   2.624  0.0845  0.3514 -0.1370
   13CHTO   O58 5236   4.120   5.109   2.486 -0.2958  0.3024 -0.6861
   13CHTO  H136 5237   4.139   5.017   2.492 -0.5333  0.2642 -0.4928
   13CHTO   O51 5238   3.795   5.368   2.931 -0.0447  0.3927  0.4609
   13CHTO   C78 5239   3.906   5.398   3.048 -0.3050  0.3009  0.8936
   13CHTO  H150 5240   3.868   5.417   3.150  1.0096 -0.8557  1.6265
   13CHTO   C80 5241   3.990   5.515   3.002 -0.3161 -0.3906 -0.3073
   13CHTO  H152 5242   4.043   5.488   2.908 -1.7779 -2.1189 -0.6393
   13CHTO   O55 5243   3.909   5.633   2.985  0.3113 -1.2375  0.3015
   13CHTO  H134 5244   3.858   5.644   3.063 -0.6739  2.0245 -0.7353
   13CHTO   C84 5245   4.102   5.553   3.114 -0.7623  0.3265 -0.0195
   13CHTO  H156 5246   4.060   5.583   3.210  0.0624  0.4419  0.3127
   13CHTO   N15 5247   4.197   5.658   3.058  0.4185 -0.3145  0.2121
   13CHTO  H143 5248   4.146   5.751   3.068 -1.0492 -1.0141 -0.5489
   13CHTO  H144 5249   4.290   5.668   3.110 -0.1238  0.4228  1.0366
   13CHTO   C87 5250   4.182   5.420   3.140  0.3652 -0.6645  0.6724
   13CHTO  H159 5251   4.245   5.379   3.062  1.2055 -1.3747  1.7122
   13CHTO   O53 5252   4.084   5.303   3.180  0.2549 -0.2836  1.0611
   13CHTO   C82 5253   3.990   5.267   3.083  0.2443  0.2030  0.0379
   13CHTO  H154 5254   4.038   5.228   2.993  0.6197 -0.8932  0.7081
   13CHTO   C89 5255   3.904   5.152   3.141  0.6224  0.4479 -0.3983
   13CHTO   O59 5256   3.972   5.028   3.160 -0.0933 -0.2757  0.3953
   13CHTO  H137 5257   3.962   4.995   3.247  0.1253 -0.0772  0.4984
   13CHTO   O45 5258   4.284   5.441   3.261  0.3234 -0.2790  0.6806
   13CHTO   C67 5259   4.430   5.456   3.241  0.2415  0.1254  0.1486
   13CHTO  H124 5260   4.453   5.459   3.135 -0.9514 -0.4426 -0.1327
   13CHTO   C65 5261   4.479   5.589   3.313 -0.4881 -0.8826  0.1815
   13CHTO  H122 5262   4.385   5.645   3.319 -0.8659 -1.5741  0.8458
   13CHTO   O44 5263   4.577   5.653   3.230 -0.3403  0.2181  0.4520
   13CHTO  H102 5264   4.630   5.586   3.191 -2.5485 -0.9152 -0.7132
   13CHTO   C63 5265   4.531   5.560   3.461  0.5431  0.1362 -0.0162
   13CHTO  H120 5266   4.449   5.509   3.511  0.6033 -0.3826 -0.4376
   13CHTO   N11 5267   4.563   5.679   3.553  0.1092  0.1207  1.1159
   13CHTO  H108 5268   4.476   5.741   3.556 -0.1502 -0.2739  1.9029
   13CHTO  H109 5269   4.607   5.643   3.643  0.6894 -0.1885  0.7158
   13CHTO   C61 5270   4.655   5.459   3.450 -0.4088  0.1823 -0.3946
   13CHTO  H118 5271   4.659   5.390   3.535  1.2298  0.0603 -0.5555
   13CHTO   O40 5272   4.643   5.376   3.332  0.0746 -0.2090 -0.6472
   13CHTO   C68 5273   4.508   5.335   3.303 -0.3842  0.9078  0.6574
   13CHTO  H125 5274   4.467   5.298   3.400 -0.3185 -2.2581 -0.4538
   13CHTO   C72 5275   4.502   5.222   3.201  0.4424  0.1718 -0.0770
   13CHTO   O48 5276   4.370   5.171   3.169  0.7863 -0.0709  1.1045
   13CHTO  H105 5277   4.391   5.092   3.123 -1.9112  0.9797 -2.1214
   13CHTO   O38 5278   4.777   5.531   3.433  0.3227  0.7294 -0.2167
   13CHTO   C55 5279   4.878   5.490   3.528  0.3508  0.1217  0.1162
   13CHTO  H112 5280   4.861   5.382   3.541 -1.3904  0.3010 -0.5960
   13CHTO   C56 5281   4.885   5.574   3.669 -0.1354 -0.0556  0.1662
   13CHTO  H113 5282   4.857   5.680   3.654 -1.9833 -0.3270  1.4791
   13CHTO   O42 5283   4.775   5.525   3.752 -0.0953  0.6043 -0.0053
   13CHTO  H100 5284   4.731   5.603   3.780  0.8401  0.5159  1.8445
   13CHTO   C57 5285   5.025   5.571   3.745 -0.3178 -0.7326  0.5352
   13CHTO  H114 5286   5.031   5.476   3.798 -0.4948 -1.0123  0.0599
   13CHTO   N10 5287   5.036   5.671   3.851  0.0658 -0.8900 -0.7322
   13CHTO  H106 5288   4.938   5.703   3.884  0.1598 -1.1073 -0.2409
   13CHTO  H107 5289   5.087   5.630   3.937  1.0525 -2.0345 -1.8379
   13CHTO   C58 5290   5.144   5.582   3.645  0.7189 -0.3494  0.2059
   13CHTO  H115 5291   5.145   5.686   3.607 -0.4699  0.4831  2.3630
   13CHTO   O37 5292   5.130   5.486   3.535  0.2163  0.1564 -0.0164
   13CHTO   C59 5293   5.015   5.506   3.455 -0.1000  1.0902  0.4765
   13CHTO  H116 5294   5.024   5.607   3.414 -0.5920  0.8843 -0.1294
   13CHTO   C70 5295   5.012   5.408   3.333 -0.8792 -0.2048 -0.6622
   13CHTO   O46 5296   5.112   5.441   3.247  0.0296 -0.1272  0.4840
   13CHTO  H103 5297   5.114   5.372   3.184 -1.8285 -0.0466  0.3310
   13CHTO   O39 5298   5.286   5.539   3.738 -0.2018  0.5737  0.2545
   13CHTO   C60 5299   5.398   5.618   3.708 -1.2223  0.3813 -0.5800
   13CHTO  H117 5300   5.407   5.632   3.600 -1.5059  0.9636 -0.5330
   13CHTO   C62 5301   5.382   5.750   3.780  0.0299 -0.4838 -0.1430
   13CHTO  H119 5302   5.297   5.797   3.727 -2.1531 -4.5922 -0.4885
   13CHTO   O43 5303   5.356   5.719   3.924 -0.4486 -0.5244  0.5077
   13CHTO  H101 5304   5.292   5.650   3.922 -0.8323 -0.1846  1.1936
   13CHTO   C66 5305   5.509   5.844   3.760 -0.5172  0.2623 -0.5209
   13CHTO  H123 5306   5.516   5.866   3.654  1.8418  1.7790 -0.0919
   13CHTO   N12 5307   5.509   5.976   3.837  0.3356  0.1364 -0.0224
   13CHTO  H110 5308   5.579   5.970   3.918  0.5284  1.5164 -0.0707
   13CHTO  H111 5309   5.545   6.059   3.777 -1.3273  0.7762 -0.1654
   13CHTO   C69 5310   5.635   5.764   3.808 -0.9483  0.7205 -0.8084
   13CHTO  H126 5311   5.635   5.750   3.919  0.5509 -1.6767 -1.0733
   13CHTO   O41 5312   5.646   5.652   3.743 -0.2039  0.3508  1.4597
   13CHTO   C64 5313   5.539   5.554   3.749  0.7114  0.2699 -0.2574
   13CHTO  H121 5314   5.539   5.515   3.853 -2.4465 -2.5974 -1.2247
   13CHTO   C71 5315   5.575   5.439   3.661 -0.2771  0.1733 -0.3201
   13CHTO   O47 5316   5.487   5.330   3.668 -0.3881 -0.1780  0.1467
   13CHTO  H104 5317   5.472   5.296   3.755 -1.6910  2.9656  1.2286
   13CHTO   O34 5318   5.772   5.839   3.769  0.8859  0.3000 -0.0648
   13CHTO   C49 5319   5.919   5.837   3.812 -0.2114 -0.0021  0.0074
   13CHTO   H91 5320   5.963   5.745   3.774  1.1290  1.7696 -2.9016
   13CHTO   C47 5321   5.943   5.838   3.959 -0.0336 -0.8671 -0.7420
   13CHTO   H89 5322   6.054   5.831   3.956 -0.0489 -1.0008 -1.0203
   13CHTO   O33 5323   5.879   5.725   4.019 -0.8455  0.1100  0.0315
   13CHTO   H70 5324   5.926   5.645   4.006  2.4802  1.5415  2.5577
   13CHTO   C45 5325   5.894   5.978   4.021  0.1052 -0.3751 -0.1452
   13CHTO   H87 5326   5.785   5.979   4.036 -0.1251  1.8984 -1.6000
   13CHTO    N8 5327   5.965   6.000   4.150  0.3202 -0.6938 -0.1040
   13CHTO   H75 5328   5.893   5.988   4.230  3.1587 -3.3533  2.1472
   13CHTO   H76 5329   6.016   6.095   4.149  0.7459 -0.9046  0.9983
   13CHTO   C43 5330   5.904   6.103   3.917 -0.1727 -0.0365  0.5892
   13CHTO   H85 5331   5.810   6.097   3.863  1.2752 -0.2723 -1.9987
   13CHTO   O29 5332   6.016   6.079   3.830 -0.6499 -0.8044  0.3629
   13CHTO   C50 5333   5.988   5.959   3.746 -0.4432  0.8915  0.4206
   13CHTO   H92 5334   5.929   5.993   3.659 -1.1399 -0.7943  0.2172
   13CHTO   C54 5335   6.125   5.929   3.678  0.0531  0.2267  0.1126
   13CHTO   O36 5336   6.188   6.041   3.610 -0.4065  0.4995 -0.1463
   13CHTO   H72 5337   6.267   6.021   3.565 -0.8621  2.8088 -2.0887
   13CHTO   O27 5338   5.909   6.241   3.964 -0.1121 -0.2187 -0.0893
   13CHTO   C37 5339   5.895   6.378   3.932  0.4495 -0.3950  0.3934
   13CHTO   H79 5340   5.792   6.400   3.900  0.6998  0.2124 -0.0065
   13CHTO   C38 5341   5.905   6.457   4.059 -0.2450 -0.7959  0.5140
   13CHTO   H80 5342   6.004   6.436   4.103  0.2902  1.1010  0.2614
   13CHTO   O31 5343   5.807   6.415   4.155  0.3259  0.3556 -0.2521
   13CHTO   H68 5344   5.730   6.401   4.104  0.8062 -2.2916 -0.3041
   13CHTO   C39 5345   5.888   6.613   4.029  0.2404  0.1691 -1.3090
   13CHTO   H81 5346   5.784   6.623   3.996 -0.2456  0.0393  0.1293
   13CHTO    N7 5347   5.904   6.698   4.151  0.0219  0.4729  0.0040
   13CHTO   H73 5348   5.907   6.801   4.119  0.5861  0.4525 -0.0227
   13CHTO   H74 5349   5.995   6.656   4.191 -0.2692 -1.2681 -1.1194
   13CHTO   C40 5350   5.979   6.663   3.912 -0.6204 -0.4108  0.0997
   13CHTO   H82 5351   6.072   6.708   3.945 -3.5967  3.3917  3.7756
   13CHTO   O26 5352   6.002   6.565   3.802 -0.4474 -0.1376 -0.4205
   13CHTO   C41 5353   5.999   6.423   3.821 -0.1031  0.1841 -0.9038
   13CHTO   H83 5354   6.098   6.384   3.846 -0.2053 -1.3450 -2.7299
   13CHTO   C52 5355   5.957   6.379   3.681 -0.0245  1.1539  0.1093
   13CHTO   O35 5356   6.060   6.413   3.564  0.3498  0.5166 -0.6888
   13CHTO   H71 5357   6.135   6.359   3.579 -0.9828 -0.8787  1.1253
   13CHTO   O28 5358   5.896   6.759   3.836  0.1799 -0.0094  0.0085
   13CHTO   C42 5359   5.969   6.866   3.771  0.3338 -0.8149  0.4930
   13CHTO   H84 5360   6.066   6.824   3.741  0.9978  1.3867 -0.5150
   13CHTO   C44 5361   6.000   6.993   3.860  0.3007  0.6245 -0.0478
   13CHTO   H86 5362   5.911   7.028   3.913 -0.7778 -2.1181  0.0561
   13CHTO   O32 5363   6.084   6.944   3.963  0.0916 -0.3971 -0.0629
   13CHTO   H69 5364   6.164   6.993   3.960 -1.3563  1.9767 -0.8444
   13CHTO   C48 5365   6.068   7.111   3.777  0.3543  0.1260  0.4211
   13CHTO   H90 5366   6.168   7.077   3.749 -0.0877 -0.0944 -0.9394
   13CHTO    N9 5367   6.103   7.238   3.851 -0.2630  0.1023 -0.0480
   13CHTO   H77 5368   6.040   7.315   3.809  1.3039  0.0540 -2.5568
   13CHTO   H78 5369   6.206   7.267   3.843 -0.8014  1.8635 -0.9557
   13CHTO   C51 5370   5.983   7.147   3.647  1.1845  0.0671  0.1407
   13CHTO   H93 5371   5.887   7.187   3.678 -0.9614 -1.5061 -4.0126
   13CHTO   O30 5372   5.966   7.024   3.573 -0.6440 -0.3093 -0.2698
   13CHTO   C46 5373   5.901   6.910   3.638  0.4647 -0.5585 -1.6532
   13CHTO   H88 5374   5.801   6.942   3.668  1.3115  0.5779  0.0858
   13CHTO   C53 5375   5.900   6.797   3.536 -0.6706  0.3927 -0.2211
   13CHTO   O72 5376   5.811   6.835   3.431 -0.6103  0.9179 -0.2898
   13CHTO  H199 5377   5.791   6.755   3.386 -1.1577  1.1198 -0.4019
   13CHTO   O22 5378   6.034   7.235   3.548  0.1015  0.2291 -0.1773
   13CHTO   C31 5379   5.943   7.299   3.447  0.7203 -0.2709  0.3214
   13CHTO   H59 5380   6.006   7.355   3.374 -0.8419  2.7924  1.2178
   13CHTO   C29 5381   5.861   7.201   3.363  0.1358  0.5875  0.6690
   13CHTO   H57 5382   5.800   7.142   3.432 -0.8466 -0.5552 -1.1329
   13CHTO   O21 5383   5.947   7.114   3.287  0.3338 -0.9320  0.0377
   13CHTO   H37 5384   5.895   7.045   3.251  1.4213  0.1870 -3.9163
   13CHTO   C27 5385   5.774   7.273   3.255 -0.3259 -0.3452  0.2490
   13CHTO   H55 5386   5.840   7.322   3.181 -0.6564  1.1986  0.9670
   13CHTO    N5 5387   5.692   7.182   3.174 -0.3441 -0.4699 -0.3073
   13CHTO   H43 5388   5.600   7.227   3.139 -1.0915 -0.3178  1.7816
   13CHTO   H44 5389   5.748   7.154   3.086  1.1535 -2.3837  1.2021
   13CHTO   C25 5390   5.682   7.371   3.343  0.3433  0.4846  0.0936
   13CHTO   H53 5391   5.625   7.314   3.418 -2.5836  1.4210 -1.3635
   13CHTO   O17 5392   5.771   7.474   3.397 -0.0029  0.2172  0.0181
   13CHTO   C32 5393   5.843   7.407   3.506  0.7235  0.5033  0.2845
   13CHTO   H60 5394   5.776   7.363   3.580 -0.8482  0.4721 -1.1373
   13CHTO   C36 5395   5.921   7.521   3.570 -0.7327  0.3397  0.1565
   13CHTO   O25 5396   5.844   7.620   3.642 -0.0289 -0.5716 -0.2985
   13CHTO   H40 5397   5.884   7.640   3.724 -0.1154 -2.6485  0.2791
   13CHTO   O15 5398   5.583   7.440   3.250  0.4765 -0.2193 -0.6951
   13CHTO   C19 5399   5.455   7.491   3.309  0.0304  0.0552 -0.3402
   13CHTO   H47 5400   5.462   7.463   3.415  2.4836  4.3857  0.7682
   13CHTO   C20 5401   5.426   7.647   3.294  0.3917 -0.9540 -0.8129
   13CHTO   H48 5402   5.421   7.677   3.188 -3.8400 -1.8608 -0.9771
   13CHTO   O19 5403   5.524   7.713   3.372 -0.2901  0.2259  0.0097
   13CHTO   H35 5404   5.609   7.722   3.333 -0.7074 -1.8805 -1.4724
   13CHTO   C21 5405   5.290   7.699   3.343 -0.3535  0.1380  0.6294
   13CHTO   H49 5406   5.295   7.701   3.452 -0.2565 -0.3033  0.6340
   13CHTO    N4 5407   5.261   7.840   3.296 -0.7363 -0.7436 -0.0608
   13CHTO   H41 5408   5.179   7.897   3.337  0.1065  0.2345  0.3170
   13CHTO   H42 5409   5.345   7.909   3.297 -0.3924 -1.1304 -1.8575
   13CHTO   C22 5410   5.178   7.600   3.297  0.2458  0.4414 -1.0577
   13CHTO   H50 5411   5.155   7.614   3.192  1.5215 -2.3547 -1.7590
   13CHTO   O14 5412   5.205   7.465   3.327  0.1543 -0.1406 -0.2317
   13CHTO   C23 5413   5.323   7.423   3.253 -0.5589  0.3774 -0.6052
   13CHTO   H51 5414   5.303   7.453   3.149 -1.4687  1.2521 -0.1977
   13CHTO   C34 5415   5.326   7.272   3.251  0.3295  0.0983 -0.2087
   13CHTO   O23 5416   5.212   7.209   3.194  0.4305  0.2450 -0.2831
   13CHTO   H38 5417   5.169   7.263   3.131 -0.0325  0.5938  0.3256
   13CHTO   O16 5418   5.059   7.624   3.373  0.5932 -0.4313  0.0487
   13CHTO   C24 5419   4.916   7.586   3.312 -0.5148  0.2572 -0.2181
   13CHTO   H52 5420   4.931   7.555   3.209  0.7909  0.1280  0.0031
   13CHTO   C26 5421   4.818   7.708   3.324  0.3202  0.4187 -0.5220
   13CHTO   H54 5422   4.807   7.739   3.430 -3.1948  0.3955 -0.8153
   13CHTO   O20 5423   4.877   7.826   3.265 -0.0128  0.3450 -0.6194
   13CHTO   H36 5424   4.813   7.884   3.230 -1.1278 -0.7904 -0.4968
   13CHTO   C30 5425   4.675   7.681   3.275 -0.6478 -0.3056 -0.0558
   13CHTO   H58 5426   4.672   7.669   3.166 -3.7735 -0.3381 -0.0104
   13CHTO    N6 5427   4.579   7.797   3.312 -0.5082  0.5898  0.1800
   13CHTO   H45 5428   4.602   7.897   3.280  0.2511  0.5567  0.5790
   13CHTO   H46 5429   4.477   7.770   3.292 -1.2627  1.5423  2.5877
   13CHTO   C33 5430   4.622   7.550   3.343 -0.0425 -0.5981  0.8261
   13CHTO   H61 5431   4.597   7.560   3.450  1.0166 -0.9265  1.1047
   13CHTO   O18 5432   4.725   7.454   3.329  0.0039  0.1947 -0.9363
   13CHTO   C28 5433   4.852   7.465   3.391  0.0765  0.6878 -0.9534
   13CHTO   H56 5434   4.843   7.494   3.496 -2.0747 -4.4876  0.4282
   13CHTO   C35 5435   4.930   7.332   3.367 -0.3549  0.5688  0.0481
   13CHTO   O24 5436   4.901   7.230   3.466 -0.2869  0.2554 -0.2811
   13CHTO   H39 5437   4.814   7.244   3.499  0.8549  2.3955  2.0736
   13CHTO    O9 5438   4.501   7.503   3.276 -0.0761  0.1284  0.1668
   13CHTO   C13 5439   4.450   7.357   3.326  0.0250  0.4280  0.9251
   13CHTO   H26 5440   4.540   7.297   3.350 -0.1615 -1.1524 -2.0871
   13CHTO   C11 5441   4.357   7.282   3.224  0.6094  0.5990 -0.0749
   13CHTO   H24 5442   4.425   7.274   3.137  0.5005 -0.3169 -0.0814
   13CHTO    O8 5443   4.246   7.364   3.182  0.3924  0.1050 -0.2766
   13CHTO    H3 5444   4.230   7.365   3.090 -0.0812 -1.2768 -0.2159
   13CHTO    C9 5445   4.323   7.144   3.280  0.1403  0.3556  0.1070
   13CHTO   H22 5446   4.416   7.089   3.299  0.5180  1.0126  0.1829
   13CHTO    N2 5447   4.248   7.052   3.187  0.8331  0.3408  0.2010
   13CHTO   H10 5448   4.272   7.085   3.088  3.2727 -1.3695  0.1782
   13CHTO   H11 5449   4.279   6.949   3.202  0.0722  0.1513  0.5152
   13CHTO    C7 5450   4.257   7.160   3.418 -0.1391 -0.1872  0.6448
   13CHTO   H20 5451   4.257   7.058   3.462 -0.3672 -0.4651 -0.0006
   13CHTO    O4 5452   4.325   7.246   3.513 -0.0680  0.6032 -0.1497
   13CHTO   C14 5453   4.386   7.367   3.463  0.2226  0.8945  0.0183
   13CHTO   H27 5454   4.478   7.377   3.526  0.3651 -2.3839  0.4258
   13CHTO   C18 5455   4.294   7.488   3.486  0.1295 -0.1283 -0.0382
   13CHTO   O13 5456   4.362   7.600   3.544  0.0908  0.2058  0.4774
   13CHTO    H7 5457   4.311   7.678   3.541 -1.4425 -0.8446 -1.9748
   13CHTO    O2 5458   4.100   7.198   3.408 -0.2356  0.5810 -0.1037
   13CHTO    C1 5459   4.010   7.113   3.480  0.5174  0.4058 -0.5532
   13CHTO   H14 5460   4.064   7.069   3.566 -1.8365 -0.5082  0.4956
   13CHTO    C2 5461   3.938   7.001   3.392 -0.6227 -0.2189  0.0779
   13CHTO   H15 5462   3.914   7.038   3.291  1.6942  2.4654  0.4563
   13CHTO    O6 5463   4.035   6.898   3.376 -0.0788  0.0509 -0.6594
   13CHTO    H1 5464   4.036   6.838   3.448  0.2946  1.9989  1.0171
   13CHTO    C3 5465   3.796   6.941   3.455  0.2155  0.2143  0.7226
   13CHTO   H16 5466   3.815   6.881   3.545 -1.6502 -0.6089  0.5895
   13CHTO    N1 5467   3.733   6.847   3.361 -0.6805 -0.0801 -0.0327
   13CHTO    H8 5468   3.638   6.881   3.324 -1.1023  0.2333  1.3096
   13CHTO    H9 5469   3.726   6.749   3.406  0.0866 -0.1915 -0.1345
   13CHTO    C4 5470   3.716   7.063   3.505  0.6854  0.5510 -0.0122
   13CHTO   H17 5471   3.679   7.117   3.418  3.9416 -0.8477 -2.3343
   13CHTO    O1 5472   3.787   7.150   3.597  0.1041  0.5838 -0.0408
   13CHTO    C5 5473   3.908   7.212   3.545  0.2428 -0.3735  0.2008
   13CHTO   H18 5474   3.893   7.286   3.467  0.4398 -0.4814  0.0608
   13CHTO   C16 5475   3.978   7.277   3.666 -0.7273  0.2079  0.1788
   13CHTO   O11 5476   3.887   7.338   3.765  0.0176 -0.0810  0.0663
   13CHTO    H5 5477   3.838   7.413   3.738 -1.2510 -1.5509 -1.8550
   13CHTO    O3 5478   3.601   7.021   3.586  0.4944 -0.7262  0.2096
   13CHTO    C6 5479   3.507   7.122   3.637  0.3899  0.2583  0.1285
   13CHTO   H19 5480   3.536   7.222   3.606 -1.6315  0.3714 -1.5018
   13CHTO    C8 5481   3.370   7.099   3.566  1.0007  0.7587  0.1414
   13CHTO   H21 5482   3.344   6.994   3.577  2.7984  0.1858 -1.0126
   13CHTO    O7 5483   3.412   7.116   3.427  0.0684  0.4059 -0.5884
   13CHTO    H2 5484   3.343   7.084   3.372  2.3922 -1.6241 -2.4414
   13CHTO   C12 5485   3.257   7.202   3.621  0.8379 -0.2690  0.3575
   13CHTO   H25 5486   3.292   7.305   3.601  1.0267  0.2348  3.1938
   13CHTO    N3 5487   3.118   7.180   3.548 -0.5374  0.3204 -0.1328
   13CHTO   H12 5488   3.109   7.080   3.510  2.4477  0.2771 -0.8611
   13CHTO   H13 5489   3.088   7.260   3.482 -0.0479 -1.5557 -2.6932
   13CHTO   C15 5490   3.261   7.194   3.774 -0.1507  0.0297 -0.3039
   13CHTO   H28 5491   3.241   7.096   3.818  0.3723  0.5655  1.1603
   13CHTO   O10 5492   3.173   7.315   3.839 -0.1746  0.3024  0.0537
   13CHTO    H4 5493   3.089   7.318   3.799  0.1691  0.8347 -0.6314
   13CHTO    O5 5494   3.392   7.230   3.816  0.2865  0.1860  0.1672
   13CHTO   C10 5495   3.484   7.126   3.788 -0.0719 -0.4875 -0.6057
   13CHTO   H23 5496   3.446   7.027   3.816 -1.2770  0.5005  1.4087
   13CHTO   C17 5497   3.609   7.158   3.861  0.2592  0.4390  0.1248
   13CHTO   O12 5498   3.701   7.051   3.869 -0.4036  0.2502 -0.2925
   13CHTO    H6 5499   3.771   7.067   3.929 -0.3635 -1.1722  0.0584
   14CHTO  H203 5500   5.751   4.921   0.715 -0.2961 -1.9662 -1.4916
   14CHTO   O82 5501   5.681   4.979   0.694  0.5684 -0.0665  0.6165
   14CHTO  C123 5502   5.565   4.903   0.706  0.7921  0.1699  0.7407
   14CHTO  H227 5503   5.575   4.847   0.800  2.8349  3.0588  2.3371
   14CHTO   O77 5504   5.458   5.004   0.719  0.0904  0.0070 -0.4697
   14CHTO  C118 5505   5.324   4.947   0.744 -0.3272  0.0624  0.2118
   14CHTO  H222 5506   5.332   4.906   0.846  1.0870  0.8143  0.4212
   14CHTO  C125 5507   5.221   5.064   0.743 -0.0549 -0.5836 -0.2878
   14CHTO   O84 5508   5.221   5.142   0.870  0.3694  0.4453  0.1473
   14CHTO  H205 5509   5.187   5.228   0.854  2.0363  1.2211  0.7366
   14CHTO  C114 5510   5.281   4.839   0.640  0.6803  0.5552  0.8065
   14CHTO  H218 5511   5.267   4.888   0.543  2.5199 -0.3586  0.0583
   14CHTO  C116 5512   5.397   4.731   0.621  0.4526  0.0020  0.6413
   14CHTO  H220 5513   5.412   4.670   0.712 -1.4838 -1.1899  0.1795
   14CHTO   O79 5514   5.346   4.641   0.527  0.1863  0.1885  0.1279
   14CHTO  H201 5515   5.397   4.563   0.515 -1.4731 -1.3399  2.3474
   14CHTO  C120 5516   5.533   4.808   0.582 -0.1501  0.9212  0.1522
   14CHTO  H224 5517   5.521   4.867   0.488 -2.1516  0.1982 -0.0661
   14CHTO   N21 5518   5.635   4.702   0.560  0.0054  0.2761 -0.1064
   14CHTO  H211 5519   5.736   4.740   0.571  0.9094 -1.3573 -2.3336
   14CHTO  H212 5520   5.610   4.674   0.459  2.3570  0.9692 -0.9279
   14CHTO   O75 5521   5.159   4.774   0.678  0.2736  0.1633 -0.2421
   14CHTO  C112 5522   5.057   4.724   0.547 -0.4835  0.6127 -0.7757
   14CHTO  H216 5523   5.109   4.643   0.494 -0.0874 -1.5290  2.7748
   14CHTO   O73 5524   5.039   4.836   0.458  0.1518  0.2688  0.2771
   14CHTO  C113 5525   4.940   4.815   0.355  0.0115  0.6785 -0.3889
   14CHTO  H217 5526   4.973   4.732   0.289 -0.8729 -0.9410  1.1651
   14CHTO  C124 5527   4.936   4.940   0.265 -0.0689 -1.0310  0.1422
   14CHTO   O83 5528   4.888   5.057   0.328  0.1143  0.0671  0.3579
   14CHTO  H204 5529   4.829   5.099   0.269 -0.3849 -2.0167 -0.6618
   14CHTO  C109 5530   4.799   4.776   0.409  0.0021 -0.6893 -0.5556
   14CHTO  H213 5531   4.764   4.864   0.465 -0.1806  1.1671 -3.4208
   14CHTO  C110 5532   4.815   4.654   0.494  0.8220  0.1780 -0.7664
   14CHTO  H214 5533   4.834   4.574   0.423  0.4066 -1.1711  0.6243
   14CHTO   O78 5534   4.684   4.624   0.541 -0.3297  0.4189  0.2268
   14CHTO  H200 5535   4.680   4.538   0.578  0.9829 -1.0565 -2.8834
   14CHTO  C111 5536   4.922   4.677   0.603 -0.3126 -0.2217 -0.9062
   14CHTO  H215 5537   4.886   4.755   0.671  1.1813 -0.0506 -0.2994
   14CHTO   N19 5538   4.946   4.562   0.690  0.2696  0.4649 -0.0058
   14CHTO  H207 5539   4.860   4.528   0.747 -0.3176 -1.4357 -1.9487
   14CHTO  H208 5540   5.023   4.577   0.764 -1.6508  2.3339  1.6665
   14CHTO   O74 5541   4.708   4.750   0.298 -0.4676  0.0278 -0.2228
   14CHTO  C115 5542   4.583   4.816   0.303  0.5122  0.3026  0.6739
   14CHTO  H219 5543   4.548   4.833   0.405 -0.4079  2.1397  0.0778
   14CHTO   O76 5544   4.584   4.960   0.238  0.5571 -0.0112 -0.0959
   14CHTO  C122 5545   4.586   4.968   0.101 -0.4953  0.3029 -0.6318
   14CHTO  H226 5546   4.690   4.942   0.082 -0.4492 -0.2756  0.3501
   14CHTO  C126 5547   4.560   5.123   0.070 -1.0069  0.6456  0.2875
   14CHTO   O85 5548   4.425   5.159   0.094 -0.3861 -0.0645 -0.3004
   14CHTO  H206 5549   4.367   5.093   0.128  0.0262 -1.0718 -1.5101
   14CHTO  C121 5550   4.475   4.873   0.029  0.5536 -0.2215 -0.1814
   14CHTO  H225 5551   4.406   4.941  -0.025 -0.7350 -0.2886  1.3614
   14CHTO   O81 5552   4.557   4.782  -0.052 -0.6691 -0.1011 -0.2116
   14CHTO  H202 5553   4.536   4.790  -0.143 -2.5954  1.1315  0.3102
   14CHTO  C119 5554   4.395   4.790   0.125 -0.3319 -0.2954 -0.7889
   14CHTO  H223 5555   4.338   4.863   0.183 -0.1931 -0.7386 -0.0936
   14CHTO  C117 5556   4.479   4.717   0.233 -0.2500  0.6023  0.2277
   14CHTO  H221 5557   4.541   4.634   0.200 -2.2579 -0.2315 -1.5659
   14CHTO   N20 5558   4.387   4.663   0.335 -0.2807 -0.2247  0.4580
   14CHTO  H209 5559   4.441   4.624   0.419  0.0613  2.4913  1.5419
   14CHTO  H210 5560   4.310   4.737   0.356  0.7312  0.9393  0.1098
   14CHTO   O80 5561   4.279   4.696   0.047  0.5065 -0.1315  0.4277
   14CHTO  C103 5562   4.186   4.755  -0.063 -0.8302 -0.6268 -0.0913
   14CHTO  H190 5563   4.236   4.843  -0.105  1.4870 -1.4305  0.8647
   14CHTO  C101 5564   4.151   4.657  -0.180 -0.4268 -0.0087  0.3063
   14CHTO  H188 5565   4.107   4.571  -0.129 -0.8079 -0.2881 -0.4932
   14CHTO   O68 5566   4.282   4.612  -0.259 -0.0432  0.3043  0.2149
   14CHTO  H168 5567   4.352   4.577  -0.209  0.0483  0.3292  0.1035
   14CHTO   C99 5568   4.028   4.702  -0.280  0.6667 -0.0468  0.4392
   14CHTO  H186 5569   4.072   4.784  -0.339  1.0572  1.0642  2.2291
   14CHTO   N17 5570   3.981   4.594  -0.371  0.1211 -0.1298  0.0273
   14CHTO  H174 5571   4.068   4.536  -0.401 -0.1746  0.2336 -1.6151
   14CHTO  H175 5572   3.964   4.639  -0.468  1.9688  0.9446  0.1654
   14CHTO   C97 5573   3.908   4.765  -0.203  0.1554  0.3737  0.6187
   14CHTO  H184 5574   3.852   4.679  -0.163  1.1065 -0.8986 -0.6900
   14CHTO   O64 5575   3.958   4.850  -0.094 -0.1917  0.3551  0.0441
   14CHTO  C104 5576   4.052   4.797   0.000  0.4500 -0.6004 -0.3759
   14CHTO  H191 5577   4.002   4.710   0.042 -1.5576 -0.4747 -2.3685
   14CHTO  C108 5578   4.057   4.903   0.114 -0.2654  0.0846  0.9878
   14CHTO   O71 5579   4.058   4.839   0.237 -0.6126 -0.5326 -0.0370
   14CHTO  H171 5580   4.143   4.853   0.275 -0.3060  1.4271 -1.3783
   14CHTO   O62 5581   3.836   4.843  -0.302  0.4683  0.3678 -0.0638
   14CHTO   C91 5582   3.695   4.867  -0.276 -0.1697 -0.7026 -0.3753
   14CHTO  H178 5583   3.670   4.805  -0.190 -0.9582  0.2642  0.1035
   14CHTO   C92 5584   3.616   4.826  -0.408 -0.1998  0.1200 -0.1685
   14CHTO  H179 5585   3.658   4.735  -0.453 -2.8653 -0.5845 -1.2983
   14CHTO   O66 5586   3.487   4.786  -0.358 -0.0858  0.0908 -0.3569
   14CHTO  H166 5587   3.465   4.702  -0.393  0.2577 -0.5371  0.8685
   14CHTO   C93 5588   3.591   4.937  -0.522  0.6942  0.3075  0.7948
   14CHTO  H180 5589   3.497   4.904  -0.568  1.2302 -0.1863  0.0478
   14CHTO   N16 5590   3.687   4.929  -0.635  0.2877 -0.3042  0.9389
   14CHTO  H172 5591   3.639   4.932  -0.732 -1.5949  0.5142  1.8758
   14CHTO  H173 5592   3.766   5.001  -0.621  1.0986 -1.1630  0.8529
   14CHTO   C94 5593   3.577   5.079  -0.452  0.1799  0.4610  0.0126
   14CHTO  H181 5594   3.663   5.145  -0.465  1.8007 -1.6829 -0.4518
   14CHTO   O61 5595   3.550   5.075  -0.317  0.5764  0.1450 -0.2672
   14CHTO   C95 5596   3.665   5.018  -0.243 -0.0331  0.0961 -0.7961
   14CHTO  H182 5597   3.753   5.076  -0.271  1.1751 -0.1922  2.1979
   14CHTO  C106 5598   3.638   5.033  -0.080  0.2718  0.3962  0.4596
   14CHTO   O69 5599   3.730   4.979   0.011  0.2718 -0.1769  0.0506
   14CHTO  H169 5600   3.706   5.004   0.098 -1.8815  0.5468 -0.7170
   14CHTO   O63 5601   3.451   5.147  -0.524 -0.0687  0.0527  0.1913
   14CHTO   C96 5602   3.439   5.298  -0.489  0.2408  1.2587  0.1484
   14CHTO  H183 5603   3.519   5.327  -0.422  1.0559  1.8123 -1.0624
   14CHTO   C98 5604   3.306   5.341  -0.424 -0.0472 -0.6867  0.1433
   14CHTO  H185 5605   3.219   5.315  -0.487  0.6601  0.2705 -1.2598
   14CHTO   O67 5606   3.292   5.265  -0.306  0.5593  0.1447 -0.0016
   14CHTO  H167 5607   3.232   5.193  -0.314 -2.4074  2.6632 -1.7639
   14CHTO  C102 5608   3.308   5.500  -0.388 -0.1583 -0.0304  0.1216
   14CHTO  H189 5609   3.384   5.515  -0.310  1.3939  1.2053 -1.5898
   14CHTO   N18 5610   3.187   5.555  -0.326  0.9953  0.4096  0.4188
   14CHTO  H176 5611   3.096   5.521  -0.374  1.3918 -1.6924  1.0820
   14CHTO  H177 5612   3.180   5.534  -0.220  0.3492  0.2680  0.3498
   14CHTO  C105 5613   3.364   5.583  -0.502  0.0069  0.3265  1.0555
   14CHTO  H192 5614   3.281   5.594  -0.572 -0.4255  0.9707  1.6684
   14CHTO   O65 5615   3.479   5.525  -0.566 -0.0142 -0.9514 -0.1270
   14CHTO  C100 5616   3.453   5.391  -0.614 -0.4190 -0.3881  0.4435
   14CHTO  H187 5617   3.359   5.391  -0.670  0.8764  0.2973 -1.7851
   14CHTO  C107 5618   3.566   5.353  -0.712  0.0095  0.5012  0.4454
   14CHTO   O70 5619   3.552   5.438  -0.828  0.3190  0.0068  0.2209
   14CHTO  H170 5620   3.460   5.446  -0.845 -0.1039 -0.0191  2.3605
   14CHTO   O57 5621   3.415   5.718  -0.437 -0.6716  0.0054 -0.3911
   14CHTO   C85 5622   3.494   5.819  -0.511  0.1179  0.4022  0.1520
   14CHTO  H157 5623   3.482   5.796  -0.619 -1.1557  0.3420  0.3056
   14CHTO   C83 5624   3.645   5.793  -0.465  0.1071  0.0477 -0.1579
   14CHTO  H155 5625   3.671   5.690  -0.489  0.0505 -0.2072  0.8356
   14CHTO   O56 5626   3.661   5.797  -0.321 -0.2893 -0.6607 -0.3541
   14CHTO  H135 5627   3.613   5.870  -0.288 -1.2806 -0.7218 -1.5958
   14CHTO   C81 5628   3.734   5.894  -0.543 -0.2769  0.5664 -0.2924
   14CHTO  H153 5629   3.710   5.885  -0.649 -2.7347 -1.1735  0.3910
   14CHTO   N14 5630   3.880   5.867  -0.533 -0.1845  0.3781 -0.5351
   14CHTO  H141 5631   3.917   5.828  -0.626 -1.4746  0.5563 -1.1386
   14CHTO  H142 5632   3.931   5.960  -0.517 -0.7738  0.5602  0.3119
   14CHTO   C79 5633   3.693   6.042  -0.503  0.0561 -0.1510 -0.0100
   14CHTO  H151 5634   3.751   6.107  -0.568  0.2829 -0.6488 -0.3090
   14CHTO   O52 5635   3.559   6.064  -0.539  0.3431  0.0558 -0.4142
   14CHTO   C86 5636   3.460   5.967  -0.483 -0.1491  0.2408 -0.1161
   14CHTO  H158 5637   3.449   6.005  -0.380 -0.8511  3.1208 -1.1816
   14CHTO   C90 5638   3.321   5.991  -0.545  0.8948 -0.0916 -0.2730
   14CHTO   O60 5639   3.274   6.124  -0.507 -0.3393 -0.2678  0.5242
   14CHTO  H138 5640   3.213   6.123  -0.436  2.7576 -2.2065  3.2887
   14CHTO   O50 5641   3.728   6.082  -0.368  0.4874 -1.1276 -0.2065
   14CHTO   C73 5642   3.733   6.176  -0.263 -0.0814 -0.1630  0.1733
   14CHTO  H145 5643   3.649   6.168  -0.192  1.0143 -1.0226  1.3906
   14CHTO   C74 5644   3.751   6.325  -0.314  0.4457  0.7815  0.0960
   14CHTO  H146 5645   3.664   6.355  -0.373  1.0868  0.9576 -0.7731
   14CHTO   O54 5646   3.743   6.408  -0.198 -0.7417 -0.0340  0.3425
   14CHTO  H133 5647   3.764   6.497  -0.222  4.4718 -1.1748 -0.0148
   14CHTO   C75 5648   3.883   6.335  -0.394 -0.1292  0.6747 -0.0249
   14CHTO  H147 5649   3.880   6.266  -0.480  4.2140  0.7435 -0.3644
   14CHTO   N13 5650   3.916   6.484  -0.428  0.8292  0.3607  0.2898
   14CHTO  H139 5651   3.875   6.513  -0.524  0.3025 -0.1677  0.3531
   14CHTO  H140 5652   3.883   6.556  -0.355 -0.4068  1.8408 -1.6546
   14CHTO   C76 5653   4.011   6.280  -0.321 -0.0654 -0.2555 -0.3462
   14CHTO  H148 5654   4.046   6.339  -0.237 -0.4833 -1.6299  0.8218
   14CHTO   O49 5655   3.984   6.143  -0.260  0.0265  0.3184 -0.3852
   14CHTO   C77 5656   3.857   6.136  -0.186 -0.7444 -0.3364  0.1893
   14CHTO  H149 5657   3.866   6.201  -0.098 -1.5921 -2.1706  1.6740
   14CHTO   C88 5658   3.852   5.995  -0.129 -0.1693  0.0705 -0.6282
   14CHTO   O58 5659   3.936   5.992  -0.018 -0.5240 -0.8365  0.0565
   14CHTO  H136 5660   4.022   6.016  -0.046 -0.3460  0.2850  1.5320
   14CHTO   O51 5661   4.125   6.249  -0.446  0.0321 -0.1424 -0.4459
   14CHTO   C78 5662   4.274   6.268  -0.422  0.6922 -0.5471  0.1426
   14CHTO  H150 5663   4.295   6.299  -0.317  0.3090  1.1331 -0.2590
   14CHTO   C80 5664   4.325   6.386  -0.514 -0.2702 -0.6091  0.5536
   14CHTO  H152 5665   4.310   6.358  -0.620  2.5819 -0.3563  0.0487
   14CHTO   O55 5666   4.249   6.503  -0.482  0.1905  0.0079 -0.4194
   14CHTO  H134 5667   4.245   6.567  -0.550 -1.1978  0.5567  0.1633
   14CHTO   C84 5668   4.485   6.407  -0.501 -0.1831  0.2693 -0.7596
   14CHTO  H156 5669   4.516   6.436  -0.400  1.9598 -1.3417 -0.9251
   14CHTO   N15 5670   4.540   6.520  -0.585 -0.5619  0.1229 -0.6226
   14CHTO  H143 5671   4.473   6.604  -0.584 -1.5127 -0.6350  0.1606
   14CHTO  H144 5672   4.557   6.484  -0.684  0.4909 -2.0353  0.2978
   14CHTO   C87 5673   4.561   6.270  -0.526 -0.5799 -0.0258 -0.4700
   14CHTO  H159 5674   4.556   6.251  -0.633 -1.2006  2.6185 -0.9394
   14CHTO   O53 5675   4.491   6.152  -0.448 -0.2453 -0.3527 -0.0071
   14CHTO   C82 5676   4.346   6.136  -0.460  0.5966 -1.0779 -0.0261
   14CHTO  H154 5677   4.330   6.117  -0.567  1.7875  1.6421 -0.7407
   14CHTO   C89 5678   4.300   6.014  -0.383 -0.0792  0.1511 -0.2403
   14CHTO   O59 5679   4.297   6.045  -0.244 -0.0389 -0.6213  0.5107
   14CHTO  H137 5680   4.271   5.965  -0.203  0.1806 -1.7350 -1.4390
   14CHTO   O45 5681   4.728   6.287  -0.475 -0.4635  0.5191  0.3304
   14CHTO   C67 5682   4.779   6.165  -0.416  0.1579 -0.5109 -0.7265
   14CHTO  H124 5683   4.711   6.124  -0.341 -0.1199  0.9961 -0.1265
   14CHTO   C65 5684   4.813   6.056  -0.525 -0.1267 -0.1557 -0.3465
   14CHTO  H122 5685   4.717   6.064  -0.576  0.3081 -0.2110 -1.1785
   14CHTO   O44 5686   4.828   5.927  -0.460 -0.5148  0.0220  0.1619
   14CHTO  H102 5687   4.821   5.858  -0.522  2.4841 -0.1174 -0.1185
   14CHTO   C63 5688   4.922   6.098  -0.620  0.3225 -0.2084  0.6157
   14CHTO  H120 5689   4.904   6.200  -0.655  0.0137 -0.3952  0.2338
   14CHTO   N11 5690   4.938   6.013  -0.746  0.6297 -0.2686  0.4102
   14CHTO  H108 5691   4.951   5.909  -0.725 -1.0332 -0.8802 -1.4314
   14CHTO  H109 5692   5.022   6.046  -0.804  0.5095 -1.0258 -0.2085
   14CHTO   C61 5693   5.053   6.124  -0.532 -0.4062  0.0617  0.8115
   14CHTO  H118 5694   5.127   6.170  -0.599  0.4993 -2.8465 -0.2456
   14CHTO   O40 5695   5.024   6.221  -0.430  0.5273  0.9186  1.1537
   14CHTO   C68 5696   4.914   6.214  -0.341 -0.4536 -0.3223  0.1722
   14CHTO  H125 5697   4.900   6.318  -0.305  2.1618  1.2187 -2.9604
   14CHTO   C72 5698   4.945   6.128  -0.211  0.2434 -0.5860 -0.6383
   14CHTO   O48 5699   5.066   6.164  -0.147  0.8992  0.2697  0.0958
   14CHTO  H105 5700   5.126   6.094  -0.162  0.6145  0.0409  0.0024
   14CHTO   O38 5701   5.109   6.004  -0.469  0.0440 -0.1008  0.0145
   14CHTO   C55 5702   5.235   5.953  -0.521  0.1749 -0.2975  0.3102
   14CHTO  H112 5703   5.246   6.003  -0.618 -1.5472 -1.8275 -0.7054
   14CHTO   C56 5704   5.215   5.792  -0.537 -0.2300 -0.7744 -0.3443
   14CHTO  H113 5705   5.194   5.755  -0.435 -1.4600 -1.9134 -1.0053
   14CHTO   O42 5706   5.108   5.759  -0.624 -0.2341  0.2928  0.2976
   14CHTO  H100 5707   5.051   5.695  -0.586 -2.5039 -0.0095 -3.3607
   14CHTO   C57 5708   5.351   5.716  -0.575  0.3780  0.2435 -0.2233
   14CHTO  H114 5709   5.373   5.743  -0.678 -1.6767  0.3481 -0.6664
   14CHTO   N10 5710   5.338   5.565  -0.570  0.3662 -0.2897 -0.3817
   14CHTO  H106 5711   5.436   5.522  -0.583  0.6721  0.3219 -0.1515
   14CHTO  H107 5712   5.308   5.540  -0.469 -0.0191  1.7065  0.0220
   14CHTO   C58 5713   5.461   5.768  -0.480  0.1452 -0.3993  0.0441
   14CHTO  H115 5714   5.449   5.737  -0.374  2.2445 -0.3128  0.3334
   14CHTO   O37 5715   5.473   5.901  -0.487  0.4211  0.0647  0.1391
   14CHTO   C59 5716   5.361   5.979  -0.439  0.1884 -0.6924  0.4318
   14CHTO  H116 5717   5.339   5.961  -0.334 -0.4423 -0.8033  0.2842
   14CHTO   C70 5718   5.401   6.128  -0.451 -0.2020 -0.8378 -0.4455
   14CHTO   O46 5719   5.500   6.155  -0.356 -0.1936  0.2361 -0.3748
   14CHTO  H103 5720   5.559   6.215  -0.397 -2.9877  1.9994 -1.9644
   14CHTO   O39 5721   5.600   5.714  -0.526 -0.0393 -0.3156  0.8742
   14CHTO   C60 5722   5.710   5.732  -0.431 -0.1068 -0.1533  0.0891
   14CHTO  H117 5723   5.687   5.811  -0.359  3.0438  2.2495 -1.4492
   14CHTO   C62 5724   5.741   5.607  -0.349 -0.1465  0.4417  0.0063
   14CHTO  H119 5725   5.649   5.599  -0.287 -0.1531 -1.0630 -0.1886
   14CHTO   O43 5726   5.744   5.505  -0.440  0.9333 -0.3665 -0.8143
   14CHTO  H101 5727   5.740   5.425  -0.391  0.9760  0.6571  0.8652
   14CHTO   C66 5728   5.874   5.615  -0.258 -0.2631 -0.0147  0.5778
   14CHTO  H123 5729   5.857   5.687  -0.178  1.1040  0.0322  0.8353
   14CHTO   N12 5730   5.909   5.489  -0.187 -0.1063  0.1759 -0.7026
   14CHTO  H110 5731   5.949   5.419  -0.259 -1.3120 -0.1790 -1.0310
   14CHTO  H111 5732   5.976   5.522  -0.109 -1.9058  2.2013  0.0354
   14CHTO   C69 5733   5.986   5.664  -0.346  0.3614  0.0188 -0.4611
   14CHTO  H126 5734   5.995   5.580  -0.419  0.1430  0.3508 -0.8727
   14CHTO   O41 5735   5.951   5.783  -0.424 -0.3992  0.1065 -0.5446
   14CHTO   C64 5736   5.832   5.775  -0.515  0.5876 -0.2454 -0.2040
   14CHTO  H121 5737   5.851   5.697  -0.591 -1.3827  0.8878 -1.9313
   14CHTO   C71 5738   5.813   5.914  -0.583 -0.2014 -0.1658  0.3957
   14CHTO   O47 5739   5.781   6.010  -0.488 -0.2570  0.0022 -0.1529
   14CHTO  H104 5740   5.728   6.079  -0.524 -0.1821  1.0957  1.7615
   14CHTO   O34 5741   6.133   5.685  -0.276 -0.3680 -0.2272 -0.5869
   14CHTO   C49 5742   6.228   5.764  -0.169 -0.0941 -0.1877 -0.0218
   14CHTO   H91 5743   6.330   5.729  -0.183  0.5174  1.5725 -0.0903
   14CHTO   C47 5744   6.186   5.740  -0.023  0.1542 -1.4378  0.4149
   14CHTO   H89 5745   6.266   5.776   0.045 -0.1134 -1.0896  0.5509
   14CHTO   O33 5746   6.185   5.598  -0.008  0.2002  0.6702  0.4124
   14CHTO   H70 5747   6.113   5.566  -0.058  0.1171  2.3434 -0.5791
   14CHTO   C45 5748   6.047   5.821   0.017 -0.7535  0.2242 -0.1523
   14CHTO   H87 5749   5.969   5.744   0.016 -0.0033 -0.5641  0.9135
   14CHTO    N8 5750   6.056   5.876   0.148  0.1122 -0.2122 -0.4799
   14CHTO   H75 5751   6.150   5.928   0.163 -1.1727  2.1546 -0.5273
   14CHTO   H76 5752   5.974   5.944   0.161 -1.3935 -1.6920 -2.1070
   14CHTO   C43 5753   6.007   5.928  -0.096 -0.5981 -0.7281 -0.0160
   14CHTO   H85 5754   5.971   5.873  -0.184  1.3026 -0.1752 -1.1796
   14CHTO   O29 5755   6.128   5.999  -0.129  0.2968  0.4124  0.0233
   14CHTO   C50 5756   6.223   5.920  -0.198  0.3326  0.1650  0.1002
   14CHTO   H92 5757   6.199   5.928  -0.305  3.0221  0.1565 -0.5347
   14CHTO   C54 5758   6.361   5.989  -0.184 -0.7961  0.0659  0.0832
   14CHTO   O36 5759   6.361   6.110  -0.263 -0.0932  0.4288  0.3381
   14CHTO   H72 5760   6.322   6.091  -0.346 -1.3956 -2.0918  1.4598
   14CHTO   O27 5761   5.907   6.023  -0.053 -0.1657 -0.0667 -0.2172
   14CHTO   C37 5762   5.830   6.144  -0.030  0.2162 -0.6408  0.3598
   14CHTO   H79 5763   5.876   6.206   0.048 -0.6581 -1.4302  1.5189
   14CHTO   C38 5764   5.810   6.226  -0.164  0.3463 -0.0482  0.1175
   14CHTO   H80 5765   5.751   6.162  -0.231 -1.2240  0.3075  1.1391
   14CHTO   O31 5766   5.941   6.243  -0.230 -0.1073 -0.4563 -0.0567
   14CHTO   H68 5767   5.925   6.250  -0.322  2.5436 -1.8117 -0.6576
   14CHTO   C39 5768   5.733   6.357  -0.118  0.0579  0.5414  0.2434
   14CHTO   H81 5769   5.788   6.406  -0.037  1.1230  1.2171 -0.8800
   14CHTO    N7 5770   5.709   6.455  -0.223  0.4001  0.1089  0.1761
   14CHTO   H73 5771   5.613   6.503  -0.210 -1.1986 -1.8123 -3.8487
   14CHTO   H74 5772   5.782   6.534  -0.207 -0.4677  0.5060  2.4209
   14CHTO   C40 5773   5.597   6.322  -0.049  0.4699  0.5080 -0.3543
   14CHTO   H82 5774   5.521   6.276  -0.113 -1.3381  0.9946  1.4097
   14CHTO   O26 5775   5.626   6.238   0.063  0.2401 -0.5976  0.5873
   14CHTO   C41 5776   5.689   6.108   0.028  0.4622 -0.7534  0.0716
   14CHTO   H83 5777   5.647   6.036  -0.044 -1.3915  1.3574 -1.0586
   14CHTO   C52 5778   5.690   6.039   0.168  0.3606 -0.1832 -0.3610
   14CHTO   O35 5779   5.710   5.901   0.161 -0.7218  0.4615  0.2357
   14CHTO   H71 5780   5.761   5.873   0.235  0.3718  2.1859  0.1734
   14CHTO   O28 5781   5.531   6.432   0.019 -1.0230  0.1839 -0.4586
   14CHTO   C42 5782   5.396   6.441   0.055  0.1815 -0.1120 -0.1194
   14CHTO   H84 5783   5.390   6.539   0.102 -0.7022  0.6816 -1.8621
   14CHTO   C44 5784   5.363   6.336   0.172 -0.0785 -0.1617 -1.1630
   14CHTO   H86 5785   5.358   6.235   0.133 -0.5661  0.1797 -1.9919
   14CHTO   O32 5786   5.463   6.353   0.279  0.3663  0.0658 -0.0045
   14CHTO   H69 5787   5.437   6.298   0.350 -1.7052  0.0053 -0.7715
   14CHTO   C48 5788   5.214   6.362   0.222  0.2063 -0.3035 -0.3568
   14CHTO   H90 5789   5.206   6.466   0.255 -0.5417 -0.8694  1.3047
   14CHTO    N9 5790   5.177   6.269   0.335 -0.1360 -0.2346 -0.5769
   14CHTO   H77 5791   5.252   6.197   0.364 -0.5637 -0.7218 -0.6716
   14CHTO   H78 5792   5.084   6.218   0.319 -0.3979  0.6659 -1.9976
   14CHTO   C51 5793   5.118   6.367   0.098  0.0426 -0.5601 -0.0600
   14CHTO   H93 5794   5.115   6.267   0.055 -2.5800 -0.7902  0.5754
   14CHTO   O30 5795   5.155   6.466   0.003  0.0884 -0.3557 -0.1077
   14CHTO   C46 5796   5.290   6.435  -0.057  0.0513 -0.2457 -0.0787
   14CHTO   H88 5797   5.290   6.333  -0.094 -0.2022  0.0965 -1.0170
   14CHTO   C53 5798   5.322   6.540  -0.163 -0.0128  0.2687 -0.0053
   14CHTO   O72 5799   5.343   6.669  -0.113  0.0980 -0.6825  0.6162
   14CHTO  H199 5800   5.284   6.728  -0.157 -1.0752 -1.4617  1.1255
   14CHTO   O22 5801   4.990   6.407   0.145 -0.3464  0.1617 -0.4383
   14CHTO   C31 5802   4.878   6.334   0.101  0.0474  0.1430 -0.1620
   14CHTO   H59 5803   4.904   6.292   0.001 -1.6681  3.5508 -2.1509
   14CHTO   C29 5804   4.832   6.212   0.183  0.2034  1.1663 -0.6610
   14CHTO   H57 5805   4.795   6.263   0.273  1.6728 -0.5501  0.9670
   14CHTO   O21 5806   4.951   6.127   0.206 -0.3727 -0.2300  0.6921
   14CHTO   H37 5807   4.991   6.141   0.289 -0.3741 -0.5819  0.7514
   14CHTO   C27 5808   4.702   6.140   0.122 -0.3586 -0.2558 -0.1225
   14CHTO   H55 5809   4.720   6.108   0.018  1.5325  0.4241 -0.0231
   14CHTO    N5 5810   4.658   6.024   0.202 -0.5458 -0.0469 -0.4009
   14CHTO   H43 5811   4.610   5.949   0.141 -0.1600 -0.6561  0.0411
   14CHTO   H44 5812   4.590   6.057   0.279  1.2790  0.9548  0.8442
   14CHTO   C25 5813   4.592   6.255   0.114 -0.2776  0.0330 -0.2674
   14CHTO   H53 5814   4.564   6.289   0.214 -1.1551  0.0885 -0.5236
   14CHTO   O17 5815   4.640   6.372   0.040 -0.3090  0.4190  0.8449
   14CHTO   C32 5816   4.767   6.437   0.073  0.4055  0.0761  0.2755
   14CHTO   H60 5817   4.751   6.498   0.162 -0.7440 -0.3280  0.3571
   14CHTO   C36 5818   4.796   6.524  -0.052 -0.4246  0.3541  0.5158
   14CHTO   O25 5819   4.714   6.642  -0.038  0.0914 -0.0261  0.3647
   14CHTO   H40 5820   4.739   6.704   0.027  0.7151  0.3219 -0.2010
   14CHTO   O15 5821   4.456   6.192   0.050 -0.2403  0.1298 -0.1716
   14CHTO   C19 5822   4.327   6.254   0.035 -1.0972  0.4494  0.4556
   14CHTO   H47 5823   4.287   6.213  -0.059  1.0234  1.0141 -0.7207
   14CHTO   C20 5824   4.221   6.204   0.142 -0.7856 -0.4760 -0.3678
   14CHTO   H48 5825   4.254   6.220   0.245  0.2366 -2.4474 -0.3784
   14CHTO   O19 5826   4.200   6.060   0.124  0.3841  0.0783 -0.6147
   14CHTO   H35 5827   4.282   6.015   0.116  2.0102  2.6009  0.8341
   14CHTO   C21 5828   4.080   6.280   0.133 -0.3041  0.5078 -0.2312
   14CHTO   H49 5829   4.028   6.249   0.042 -1.5490  0.5300  0.4518
   14CHTO    N4 5830   3.987   6.257   0.248 -0.3975 -0.0924  0.4377
   14CHTO   H41 5831   3.907   6.328   0.258 -2.6528 -2.6408  0.8379
   14CHTO   H42 5832   3.943   6.160   0.263  0.5792 -0.5534  0.4031
   14CHTO   C22 5833   4.104   6.429   0.116 -1.0885 -0.6976  0.0144
   14CHTO   H50 5834   4.161   6.469   0.201  2.7494 -4.6551 -0.5098
   14CHTO   O14 5835   4.189   6.454  -0.004 -0.8022  0.2167  0.2227
   14CHTO   C23 5836   4.328   6.415   0.014  0.5409  0.2155  0.2222
   14CHTO   H51 5837   4.361   6.464   0.107 -2.5010  0.3402  1.3086
   14CHTO   C34 5838   4.409   6.465  -0.109 -0.0119  0.0503 -0.2526
   14CHTO   O23 5839   4.423   6.607  -0.124  0.3755 -0.2544  0.2649
   14CHTO   H38 5840   4.453   6.623  -0.211 -0.4879  1.1433  0.2101
   14CHTO   O16 5841   3.982   6.498   0.081 -0.5602 -0.2409 -0.1557
   14CHTO   C24 5842   3.991   6.660   0.045 -0.0514 -1.0676 -0.1054
   14CHTO   H52 5843   3.899   6.709   0.075 -0.2334 -0.8173 -1.0391
   14CHTO   C26 5844   4.001   6.672  -0.108  0.1208  0.5365  0.2278
   14CHTO   H54 5845   4.091   6.615  -0.141 -1.0376 -0.9131 -0.4761
   14CHTO   O20 5846   3.873   6.630  -0.151 -0.3612  0.4627 -0.0767
   14CHTO   H36 5847   3.862   6.538  -0.136 -0.0173  0.5870  0.9425
   14CHTO   C30 5848   4.029   6.822  -0.149 -1.3952  0.4009  0.3566
   14CHTO   H58 5849   3.956   6.894  -0.109  0.9420  1.7386  2.3198
   14CHTO    N6 5850   4.035   6.846  -0.295 -0.0680 -0.3557  0.5067
   14CHTO   H45 5851   3.937   6.819  -0.330  1.1057 -3.2698 -0.7796
   14CHTO   H46 5852   4.054   6.951  -0.306 -0.7456 -0.4180 -1.4778
   14CHTO   C33 5853   4.157   6.869  -0.072  0.3344  0.0299  0.1022
   14CHTO   H61 5854   4.237   6.797  -0.095  1.3298  1.0951  0.2293
   14CHTO   O18 5855   4.124   6.863   0.073  0.6320 -0.0169  0.0895
   14CHTO   C28 5856   4.103   6.732   0.123 -0.4411 -0.3487 -0.0330
   14CHTO   H56 5857   4.195   6.674   0.109 -0.2360  0.2216 -1.0909
   14CHTO   C35 5858   4.074   6.740   0.271 -0.6580 -0.0608  0.6569
   14CHTO   O24 5859   3.982   6.835   0.321  0.0713 -0.0875 -0.0298
   14CHTO   H39 5860   3.900   6.819   0.279 -0.0369  0.9287 -0.2249
   14CHTO    O9 5861   4.206   7.002  -0.112 -0.5785  0.1614  0.5321
   14CHTO   C13 5862   4.376   7.025  -0.086  0.4159  0.6901 -0.5219
   14CHTO   H26 5863   4.438   6.944  -0.130  0.0565  0.0106  0.2020
   14CHTO   C11 5864   4.403   7.040   0.068 -0.2636 -0.3388 -0.9529
   14CHTO   H24 5865   4.376   6.942   0.111  2.8853 -0.6652  0.4041
   14CHTO    O8 5866   4.326   7.148   0.126  0.0533  0.0604 -0.1532
   14CHTO    H3 5867   4.236   7.121   0.116  0.4229 -1.2758  0.0542
   14CHTO    C9 5868   4.557   7.066   0.084  0.5347 -0.0314  0.1286
   14CHTO   H22 5869   4.606   6.983   0.030 -1.0458 -1.1798  0.3973
   14CHTO    N2 5870   4.592   7.060   0.226  0.0890  0.1882 -0.2279
   14CHTO   H10 5871   4.518   7.107   0.288 -0.5118  1.5994 -1.9565
   14CHTO   H11 5872   4.599   6.957   0.255  2.3969  0.3332 -0.1192
   14CHTO    C7 5873   4.604   7.196   0.017  0.9143 -0.2756 -0.5546
   14CHTO   H20 5874   4.712   7.177   0.000  0.8523 -1.2204  0.0584
   14CHTO    O4 5875   4.537   7.230  -0.104  0.3689 -0.2805 -0.5181
   14CHTO   C14 5876   4.428   7.159  -0.163 -0.4582  0.3207  0.2573
   14CHTO   H27 5877   4.464   7.125  -0.262  1.5555  1.4935  0.5591
   14CHTO   C18 5878   4.323   7.264  -0.192 -0.0402  0.1438 -0.0955
   14CHTO   O13 5879   4.362   7.364  -0.281  0.0950 -0.2269  0.1426
   14CHTO    H7 5880   4.298   7.433  -0.282  1.3908  0.9968 -0.3881
   14CHTO    O2 5881   4.595   7.330   0.122 -0.6133  0.2173  0.1381
   14CHTO    C1 5882   4.693   7.432   0.077  0.1190  0.6473 -0.8805
   14CHTO   H14 5883   4.708   7.433  -0.032 -2.2477  2.2401 -1.2216
   14CHTO    C2 5884   4.834   7.413   0.142 -0.3830 -0.0751  0.4609
   14CHTO   H15 5885   4.809   7.414   0.249 -2.2765 -1.0806  0.0668
   14CHTO    O6 5886   4.895   7.292   0.102  0.0473  0.2700 -0.1366
   14CHTO    H1 5887   4.926   7.244   0.177  1.6561  2.0904  0.4069
   14CHTO    C3 5888   4.928   7.543   0.100 -0.4306  0.8432 -0.5659
   14CHTO   H16 5889   4.950   7.535  -0.007 -0.4221 -1.2991 -0.4205
   14CHTO    N1 5890   5.058   7.540   0.180 -0.5392 -0.7371  0.0738
   14CHTO    H8 5891   5.112   7.633   0.167 -1.4768 -0.3441 -1.0115
   14CHTO    H9 5892   5.027   7.534   0.284  0.3105 -2.4522  0.2429
   14CHTO    C4 5893   4.849   7.680   0.115 -0.0113  0.1527  0.8077
   14CHTO   H17 5894   4.838   7.705   0.221  0.4744 -1.6887  1.3309
   14CHTO    O1 5895   4.722   7.678   0.060  0.2185 -0.4339 -0.6807
   14CHTO    C5 5896   4.637   7.575   0.111 -0.2018  0.4573 -0.2442
   14CHTO   H18 5897   4.620   7.583   0.218 -0.8203 -0.3894 -0.2810
   14CHTO   C16 5898   4.497   7.587   0.038 -0.9369 -0.0186  0.7646
   14CHTO   O11 5899   4.514   7.581  -0.100  0.0188 -0.8093  0.0134
   14CHTO    H5 5900   4.433   7.611  -0.136  0.7706 -0.5838 -1.5515
   14CHTO    O3 5901   4.914   7.787   0.041 -0.5405 -0.5249 -0.6336
   14CHTO    C6 5902   4.916   7.926   0.080  0.3675 -0.5274 -0.1741
   14CHTO   H19 5903   4.836   7.950   0.151  1.3355  1.8958  0.1419
   14CHTO    C8 5904   5.049   7.958   0.146 -0.3274  0.2491 -0.4957
   14CHTO   H21 5905   5.128   7.935   0.074 -1.0024  0.7940 -1.4220
   14CHTO    O7 5906   5.064   7.875   0.264  0.6069 -0.2653 -0.3934
   14CHTO    H2 5907   5.019   7.794   0.248  0.5023  0.2670 -2.8406
   14CHTO   C12 5908   5.058   8.109   0.176  0.3173  0.1235 -0.2502
   14CHTO   H25 5909   4.985   8.129   0.258  0.2548  1.2977 -0.5767
   14CHTO    N3 5910   5.184   8.146   0.233  0.2636 -0.8124  0.3687
   14CHTO   H12 5911   5.216   8.062   0.293  0.8114 -0.4381  0.6138
   14CHTO   H13 5912   5.173   8.236   0.291 -1.4623  0.0238 -1.2176
   14CHTO   C15 5913   5.022   8.200   0.049 -0.0111  0.5192  0.0119
   14CHTO   H28 5914   5.105   8.196  -0.021 -0.3461  0.9620 -0.4105
   14CHTO   O10 5915   4.984   8.348   0.078  0.0770  0.5137  0.1310
   14CHTO    H4 5916   5.041   8.372   0.148  2.2748 -0.4243 -1.2965
   14CHTO    O5 5917   4.897   8.161  -0.011  0.3156 -0.3171  0.1573
   14CHTO   C10 5918   4.894   8.022  -0.042 -0.3049 -0.1444  0.4923
   14CHTO   H23 5919   4.972   8.005  -0.116  0.7529  1.3668  1.2224
   14CHTO   C17 5920   4.757   7.995  -0.108 -0.0825 -0.0063  0.0704
   14CHTO   O12 5921   4.763   8.036  -0.245  0.0939 -0.3353  0.0367
   14CHTO    H6 5922   4.674   8.039  -0.275 -1.1670 -1.7142  3.3694
   15CHTO  H203 5923   5.751   5.284   2.449  0.1666  1.9860 -0.7750
   15CHTO   O82 5924   5.661   5.290   2.473  0.1278 -0.6372 -0.1924
   15CHTO  C123 5925   5.572   5.251   2.360 -0.6074  0.2759 -0.0876
   15CHTO  H227 5926   5.535   5.344   2.316  0.7823  2.3074  2.8925
   15CHTO   O77 5927   5.653   5.171   2.275  0.0158 -0.7058  0.2966
   15CHTO  C118 5928   5.587   5.137   2.155  0.2147  0.8680 -0.1391
   15CHTO  H222 5929   5.544   5.228   2.110  0.1271  1.0913  0.3969
   15CHTO  C125 5930   5.691   5.074   2.055 -0.1116 -0.0490  0.0716
   15CHTO   O84 5931   5.780   5.175   2.004 -0.3084 -0.3546 -0.0524
   15CHTO  H205 5932   5.730   5.228   1.945  1.9461  0.6813 -1.1129
   15CHTO  C114 5933   5.467   5.044   2.188  0.2355  0.2507 -0.0486
   15CHTO  H218 5934   5.500   4.961   2.251 -1.0499  0.8248  1.3983
   15CHTO  C116 5935   5.366   5.134   2.273 -0.5727 -0.2444 -0.6222
   15CHTO  H220 5936   5.325   5.225   2.223 -1.5228 -0.6145 -0.5048
   15CHTO   O79 5937   5.260   5.046   2.289 -0.3275  0.5680  0.0268
   15CHTO  H201 5938   5.179   5.092   2.301  0.7856  2.0301  2.2038
   15CHTO  C120 5939   5.441   5.175   2.407  0.0325  0.3294  0.2312
   15CHTO  H224 5940   5.473   5.079   2.452  0.5158 -0.3779 -1.5819
   15CHTO   N21 5941   5.357   5.260   2.494 -0.4071  0.2919  0.1085
   15CHTO  H211 5942   5.316   5.180   2.554  0.0826 -2.8956 -3.5652
   15CHTO  H212 5943   5.278   5.307   2.438 -1.4521 -1.3955  0.1362
   15CHTO   O75 5944   5.423   4.997   2.066  0.2595  0.8199  0.2646
   15CHTO  C112 5945   5.435   4.823   2.059 -0.5652  0.4356 -0.6130
   15CHTO  H216 5946   5.446   4.777   2.159 -1.2246 -2.5251 -1.8560
   15CHTO   O73 5947   5.548   4.794   1.978  0.8596 -0.1063 -0.4080
   15CHTO  C113 5948   5.590   4.660   1.976 -0.3895  0.5629 -0.5660
   15CHTO  H217 5949   5.612   4.631   2.081  1.0541 -2.1441 -1.5921
   15CHTO  C124 5950   5.725   4.672   1.900  0.2508  0.3361  0.2695
   15CHTO   O83 5951   5.812   4.769   1.955  0.1406  0.1865 -0.0369
   15CHTO  H204 5952   5.900   4.746   1.976  0.4713  0.8809 -0.6261
   15CHTO  C109 5953   5.482   4.574   1.910  0.3590  0.0951 -0.9279
   15CHTO  H213 5954   5.487   4.590   1.802 -0.1327  1.3926 -0.7592
   15CHTO  C110 5955   5.336   4.610   1.967  0.1470  0.0255  0.0668
   15CHTO  H214 5956   5.328   4.552   2.059  1.7046 -1.9503 -1.0054
   15CHTO   O78 5957   5.229   4.558   1.881 -0.6902 -0.0363 -0.2111
   15CHTO  H200 5958   5.189   4.621   1.825 -1.1919  0.9344  1.2088
   15CHTO  C111 5959   5.315   4.761   1.992 -0.1230 -0.4856  0.5056
   15CHTO  H215 5960   5.306   4.812   1.895  2.6178  0.7432  0.8308
   15CHTO   N19 5961   5.188   4.789   2.069 -0.0729  0.2639  0.4151
   15CHTO  H207 5962   5.197   4.746   2.168 -0.4670 -1.0552 -0.1184
   15CHTO  H208 5963   5.178   4.896   2.079 -1.0564  0.1867  0.2932
   15CHTO   O74 5964   5.519   4.434   1.946  0.6982 -0.4201  0.2926
   15CHTO  C115 5965   5.563   4.357   1.831  0.3657  0.7386  0.3846
   15CHTO  H219 5966   5.598   4.424   1.752  1.3202 -1.9781 -1.5468
   15CHTO   O76 5967   5.682   4.266   1.867  0.5392  0.7559  0.3505
   15CHTO  C122 5968   5.649   4.184   1.981 -0.1065  0.2375 -0.2944
   15CHTO  H226 5969   5.633   4.240   2.073 -1.4518  0.2698 -0.5405
   15CHTO  C126 5970   5.784   4.102   1.994  0.7050 -0.3577  0.8609
   15CHTO   O85 5971   5.876   4.165   2.082 -0.3084  0.0712  0.1207
   15CHTO  H206 5972   5.906   4.250   2.056 -0.7094  0.1162 -0.1873
   15CHTO  C121 5973   5.521   4.092   1.954  0.0072 -0.1516  0.2789
   15CHTO  H225 5974   5.563   3.989   1.959 -1.0530 -0.5233  1.6057
   15CHTO   O81 5975   5.420   4.114   2.055  0.6618 -0.0331  0.0265
   15CHTO  H202 5976   5.338   4.078   2.025  1.3627 -1.7572  0.1563
   15CHTO  C119 5977   5.460   4.122   1.812 -0.2148 -0.6357  0.6996
   15CHTO  H223 5978   5.538   4.107   1.738 -1.3626  2.2585 -1.2251
   15CHTO  C117 5979   5.429   4.279   1.790 -0.5483  0.2064 -0.5626
   15CHTO  H221 5980   5.348   4.314   1.853 -1.0923 -0.3799 -0.9196
   15CHTO   N20 5981   5.392   4.313   1.649 -0.5253 -0.3279 -0.6118
   15CHTO  H209 5982   5.343   4.409   1.657  3.3790  1.6491  1.2017
   15CHTO  H210 5983   5.477   4.323   1.583 -0.7780  1.6221 -0.6689
   15CHTO   O80 5984   5.337   4.025   1.762  0.4144  0.3480 -0.4273
   15CHTO  C103 5985   5.348   3.867   1.771 -0.1757 -0.1545 -0.3683
   15CHTO  H190 5986   5.398   3.834   1.862 -1.5725  0.6742  0.7106
   15CHTO  C101 5987   5.213   3.790   1.763  0.0175  0.0860  0.0879
   15CHTO  H188 5988   5.152   3.837   1.685 -1.8842 -1.4015  0.6440
   15CHTO   O68 5989   5.133   3.825   1.900 -0.0781 -0.0043 -0.6112
   15CHTO  H168 5990   5.126   3.917   1.918  2.4005 -0.1724  1.4537
   15CHTO   C99 5991   5.218   3.634   1.738  0.2569 -0.0575 -0.2663
   15CHTO  H186 5992   5.266   3.579   1.822  1.0145 -2.1690 -2.0612
   15CHTO   N17 5993   5.087   3.571   1.716 -0.0222 -0.0049  0.0869
   15CHTO  H174 5994   5.101   3.464   1.722 -1.5972 -0.1667  1.0620
   15CHTO  H175 5995   5.022   3.607   1.795 -0.8740 -0.3400 -0.4626
   15CHTO   C97 5996   5.298   3.608   1.613 -0.1406  0.0698 -0.1655
   15CHTO  H184 5997   5.249   3.657   1.528  1.6473  2.3721  0.0754
   15CHTO   O64 5998   5.427   3.667   1.638  0.0343  0.0050 -0.2088
   15CHTO  C104 5999   5.430   3.809   1.648 -0.2601  0.2132  0.4039
   15CHTO  H191 6000   5.392   3.846   1.553 -1.3560 -0.6696  0.4747
   15CHTO  C108 6001   5.578   3.851   1.652 -0.5100  0.0497 -0.2213
   15CHTO   O71 6002   5.651   3.821   1.531 -0.3210  0.2251  0.3059
   15CHTO  H171 6003   5.737   3.821   1.568 -0.7753  1.1091  1.3753
   15CHTO   O62 6004   5.320   3.465   1.584 -0.8465 -0.2881 -0.4463
   15CHTO   C91 6005   5.372   3.426   1.455 -0.5395  0.0579  0.0661
   15CHTO  H178 6006   5.376   3.511   1.387  0.6261 -1.4239 -1.7864
   15CHTO   C92 6007   5.286   3.316   1.390 -0.7387 -0.5234  0.2928
   15CHTO  H179 6008   5.183   3.354   1.386 -0.6937 -0.4788 -0.7651
   15CHTO   O66 6009   5.327   3.313   1.252 -0.5614  0.3862 -0.3168
   15CHTO  H166 6010   5.415   3.289   1.229 -0.2906  1.5282 -0.4637
   15CHTO   C93 6011   5.306   3.182   1.461 -0.1118 -0.7095 -0.0838
   15CHTO  H180 6012   5.255   3.104   1.402  0.7974 -0.4831 -1.2064
   15CHTO   N16 6013   5.241   3.174   1.594 -0.2785  0.4383  0.3114
   15CHTO  H172 6014   5.313   3.174   1.675 -1.4234 -1.2935  1.3526
   15CHTO  H173 6015   5.185   3.082   1.596  1.5640 -0.7426 -0.6664
   15CHTO   C94 6016   5.459   3.139   1.468 -0.0241  0.2402 -0.1753
   15CHTO  H181 6017   5.492   3.115   1.569  0.9798 -1.7651 -0.9529
   15CHTO   O61 6018   5.541   3.242   1.416  0.2925  0.0571 -0.5640
   15CHTO   C95 6019   5.523   3.376   1.463  0.1995 -0.0872  0.9320
   15CHTO  H182 6020   5.539   3.369   1.571 -1.0884  1.0526  1.2128
   15CHTO  C106 6021   5.628   3.471   1.394 -0.9194 -0.1906 -0.1378
   15CHTO   O69 6022   5.760   3.453   1.438  0.3069 -0.0351 -0.3773
   15CHTO  H169 6023   5.766   3.468   1.530  2.6759 -1.7893 -0.2006
   15CHTO   O63 6024   5.488   3.010   1.364  0.3549  0.0949  0.6639
   15CHTO   C96 6025   5.587   2.908   1.427  0.1958  0.2972  0.3178
   15CHTO  H183 6026   5.592   2.930   1.534  2.7632  1.3589  0.0049
   15CHTO   C98 6027   5.732   2.904   1.362  0.6617  0.6681 -0.0255
   15CHTO  H185 6028   5.724   2.887   1.254 -3.4297 -1.6902  0.5475
   15CHTO   O67 6029   5.799   3.028   1.379 -0.5243 -0.1789 -0.2663
   15CHTO  H167 6030   5.865   3.044   1.314 -0.2984 -0.4315 -0.1029
   15CHTO  C102 6031   5.824   2.783   1.415  0.5245  0.1406 -0.6708
   15CHTO  H189 6032   5.856   2.810   1.516  0.6412 -1.0332 -0.3860
   15CHTO   N18 6033   5.955   2.760   1.341 -0.6401  0.0804  0.1329
   15CHTO  H176 6034   6.009   2.679   1.387 -1.2657 -0.6465 -0.4003
   15CHTO  H177 6035   5.942   2.747   1.235 -1.3101  1.8571 -0.0136
   15CHTO  C105 6036   5.739   2.658   1.416 -0.3131 -0.2929 -0.7011
   15CHTO  H192 6037   5.719   2.624   1.314  0.7266  0.2431 -1.0874
   15CHTO   O65 6038   5.611   2.672   1.481 -0.2520 -0.3416  0.2853
   15CHTO  C100 6039   5.523   2.763   1.417 -1.0241 -0.3490  0.2425
   15CHTO  H187 6040   5.511   2.746   1.309 -0.4360  0.2883  0.0750
   15CHTO  C107 6041   5.389   2.760   1.496  0.1672 -0.6499  0.6285
   15CHTO   O70 6042   5.327   2.631   1.479 -0.1492 -0.6855  0.0558
   15CHTO  H170 6043   5.294   2.638   1.392  0.9006 -0.1473 -0.3001
   15CHTO   O57 6044   5.827   2.538   1.488  0.9093  0.3529 -0.3080
   15CHTO   C85 6045   5.846   2.534   1.633 -0.4870 -0.7318  0.7613
   15CHTO  H157 6046   5.802   2.630   1.666 -1.0599 -0.3295 -1.0935
   15CHTO   C83 6047   6.000   2.539   1.657 -0.6593  0.2469  0.6175
   15CHTO  H155 6048   6.036   2.639   1.634  0.6405 -0.7181 -1.7451
   15CHTO   O56 6049   6.064   2.453   1.557 -0.4647 -0.5056 -0.6876
   15CHTO  H135 6050   6.107   2.508   1.493  0.6474  0.5927  0.9560
   15CHTO   C81 6051   6.034   2.503   1.804 -0.7789  0.4667 -0.0059
   15CHTO  H153 6052   5.989   2.578   1.870 -0.6844 -1.2637  2.0618
   15CHTO   N14 6053   6.181   2.501   1.856  0.5453  0.1317  0.0768
   15CHTO  H141 6054   6.228   2.407   1.837  1.9571  0.6304  1.0327
   15CHTO  H142 6055   6.243   2.579   1.818 -0.2185  0.5679 -0.2688
   15CHTO   C79 6056   5.974   2.367   1.833 -0.8368 -0.2803 -0.1286
   15CHTO  H151 6057   5.986   2.346   1.939 -1.0571 -0.5795 -0.1643
   15CHTO   O52 6058   5.826   2.373   1.824  0.1857 -0.1435  0.1460
   15CHTO   C86 6059   5.767   2.411   1.696 -0.0187  0.7896 -0.2508
   15CHTO  H158 6060   5.780   2.319   1.634  1.1397  0.2168  0.8129
   15CHTO   C90 6061   5.611   2.429   1.720  0.1894 -0.3730  0.3148
   15CHTO   O60 6062   5.547   2.307   1.740  0.0201 -0.1183 -0.1011
   15CHTO  H138 6063   5.458   2.322   1.716 -0.4292 -2.3240  0.0592
   15CHTO   O50 6064   6.022   2.261   1.754 -0.0913  0.2734  0.2236
   15CHTO   C73 6065   5.986   2.124   1.741 -0.1440  0.1943 -0.3590
   15CHTO  H145 6066   5.884   2.113   1.702 -0.3027  0.9100 -0.1671
   15CHTO   C74 6067   5.988   2.051   1.873  0.6407 -0.1628  0.0718
   15CHTO  H146 6068   5.912   2.091   1.942 -1.0869 -2.2106 -0.5575
   15CHTO   O54 6069   5.939   1.913   1.835  0.0779  0.1464  0.2333
   15CHTO  H133 6070   5.949   1.852   1.905  1.1846 -1.1437 -1.0073
   15CHTO   C75 6071   6.135   2.048   1.933  0.9123  0.3624  0.2984
   15CHTO  H147 6072   6.181   2.146   1.953 -0.0169  0.4716  1.9723
   15CHTO   N13 6073   6.147   1.987   2.065 -0.2516  0.3478  0.1133
   15CHTO  H139 6074   6.104   1.889   2.076  0.4355  0.0707  0.3808
   15CHTO  H140 6075   6.092   2.041   2.141 -0.3083 -1.2564  1.2281
   15CHTO   C76 6076   6.233   1.985   1.829 -0.0212  0.5222  0.0657
   15CHTO  H148 6077   6.208   1.879   1.819 -1.2892  0.7422  0.8595
   15CHTO   O49 6078   6.219   2.049   1.698  0.2888 -0.0432  0.3108
   15CHTO   C77 6079   6.088   2.057   1.642  0.4396 -0.3123  0.7500
   15CHTO  H149 6080   6.056   1.954   1.623  1.1557 -0.3184 -0.4550
   15CHTO   C88 6081   6.098   2.135   1.506  0.2441 -0.0960  0.5414
   15CHTO   O58 6082   5.964   2.150   1.455 -0.6011  0.1974  0.2914
   15CHTO  H136 6083   5.963   2.230   1.406  1.3893  0.0461 -0.0441
   15CHTO   O51 6084   6.375   2.012   1.860  0.6932 -0.6396 -0.1703
   15CHTO   C78 6085   6.501   2.024   1.752  0.0762  0.3376 -0.2798
   15CHTO  H150 6086   6.474   1.996   1.647  0.0725  1.4840 -0.5947
   15CHTO   C80 6087   6.612   1.926   1.817  0.7451 -0.0417  0.1839
   15CHTO  H152 6088   6.635   1.951   1.923  3.1408  0.1701 -0.3595
   15CHTO   O55 6089   6.557   1.794   1.825  0.0096 -0.5178 -0.2076
   15CHTO  H134 6090   6.528   1.773   1.912  1.0554  0.1270  0.3141
   15CHTO   C84 6091   6.739   1.922   1.736 -0.6564  0.6752 -0.1068
   15CHTO  H156 6092   6.725   1.888   1.633  1.7247  2.4421 -1.0633
   15CHTO   N15 6093   6.844   1.831   1.786  0.0603 -0.2787  0.0375
   15CHTO  H143 6094   6.920   1.814   1.713  0.7495 -0.9477  0.9103
   15CHTO  H144 6095   6.885   1.868   1.877  2.2718 -1.0713 -0.5962
   15CHTO   C87 6096   6.790   2.065   1.727  0.2374 -0.1266  0.3267
   15CHTO  H159 6097   6.830   2.092   1.824 -0.7126  0.9065  0.4385
   15CHTO   O53 6098   6.671   2.168   1.681  0.1476  0.6312 -0.0578
   15CHTO   C82 6099   6.551   2.167   1.756 -0.2733  0.4278  0.0175
   15CHTO  H154 6100   6.578   2.195   1.858  1.6588 -1.3144  0.0090
   15CHTO   C89 6101   6.446   2.271   1.703  0.6836 -0.2107  0.8043
   15CHTO   O59 6102   6.505   2.403   1.715 -0.2647 -0.2826 -0.2870
   15CHTO  H137 6103   6.485   2.459   1.787 -0.9285  0.4578 -1.0217
   15CHTO   O45 6104   6.910   2.084   1.621  0.5732 -0.1157  0.3278
   15CHTO   C67 6105   6.974   2.210   1.626 -0.1433  0.0569 -0.0380
   15CHTO  H124 6106   6.893   2.283   1.626 -0.9617 -0.8528 -0.6229
   15CHTO   C65 6107   7.068   2.221   1.757  0.7036  0.3574  0.3297
   15CHTO  H122 6108   7.098   2.119   1.780  1.8740  0.9214  1.3793
   15CHTO   O44 6109   6.994   2.271   1.864 -0.0797  0.4489 -0.0553
   15CHTO  H102 6110   7.051   2.295   1.935 -1.7074 -2.4918  2.3568
   15CHTO   C63 6111   7.206   2.288   1.716  0.4505 -0.5631 -0.4913
   15CHTO  H120 6112   7.261   2.216   1.656  0.8115  1.2013 -2.3244
   15CHTO   N11 6113   7.303   2.324   1.830 -0.6215  0.7707  0.9099
   15CHTO  H108 6114   7.400   2.307   1.789  0.2434  1.4643  2.6187
   15CHTO  H109 6115   7.288   2.265   1.918 -1.8706 -0.1538  0.1003
   15CHTO   C61 6116   7.183   2.402   1.617 -0.2008  0.6427 -0.0307
   15CHTO  H118 6117   7.279   2.449   1.591 -0.0835 -0.0068 -0.7858
   15CHTO   O40 6118   7.135   2.348   1.494  0.6956  0.4000  0.0314
   15CHTO   C68 6119   7.059   2.223   1.494  0.0037 -0.1990 -0.1422
   15CHTO  H125 6120   7.129   2.138   1.480 -0.9607 -0.5857 -3.0877
   15CHTO   C72 6121   6.977   2.227   1.372  0.4618  0.1039 -0.6414
   15CHTO   O48 6122   7.039   2.202   1.244  0.7204 -0.2447  0.0640
   15CHTO  H105 6123   7.090   2.275   1.214 -0.4496  0.1298 -1.0906
   15CHTO   O38 6124   7.087   2.492   1.674  0.0964  0.2566 -0.2582
   15CHTO   C55 6125   7.069   2.618   1.617  0.8661  0.3363  0.8635
   15CHTO  H112 6126   7.127   2.609   1.524  0.1773 -1.7329  0.6050
   15CHTO   C56 6127   7.124   2.729   1.721 -0.3415  0.4401  0.3919
   15CHTO  H113 6128   7.091   2.700   1.822 -0.1656  1.4904  0.7621
   15CHTO   O42 6129   7.268   2.729   1.724  0.5078 -0.7455  0.0393
   15CHTO  H100 6130   7.302   2.654   1.768  0.0966 -0.0235  1.6411
   15CHTO   C57 6131   7.072   2.874   1.685 -0.5075  0.2152 -0.5292
   15CHTO  H114 6132   7.130   2.897   1.596 -2.1311  1.6284 -1.2346
   15CHTO   N10 6133   7.098   2.974   1.790 -0.1409  0.1066 -0.2094
   15CHTO  H106 6134   7.189   3.023   1.760  0.4825  0.4616  2.1619
   15CHTO  H107 6135   7.120   2.919   1.880  0.4783  0.0986 -0.3652
   15CHTO   C58 6136   6.923   2.875   1.653  0.6312 -0.1408 -0.8418
   15CHTO  H115 6137   6.873   2.832   1.742  1.1678 -2.0786 -1.4697
   15CHTO   O37 6138   6.903   2.785   1.545  0.2459  0.2424 -0.2810
   15CHTO   C59 6139   6.918   2.650   1.586  0.0413 -0.8055 -0.2833
   15CHTO  H116 6140   6.860   2.623   1.674  0.3751  2.3122  0.9188
   15CHTO   C70 6141   6.859   2.558   1.481  0.9098  0.4270 -0.4393
   15CHTO   O46 6142   6.717   2.565   1.468 -0.1842  0.5489  0.2996
   15CHTO  H103 6143   6.677   2.488   1.431  2.2121 -0.5376 -0.0791
   15CHTO   O39 6144   6.855   3.017   1.618  0.0273 -0.1887  0.2929
   15CHTO   C60 6145   6.733   3.019   1.534 -0.2037 -0.2698  0.1596
   15CHTO  H117 6146   6.747   2.977   1.435  0.8775  2.1352 -0.7458
   15CHTO   C62 6147   6.620   2.937   1.598 -0.2188 -0.0049 -0.1917
   15CHTO  H119 6148   6.663   2.835   1.610 -1.1774 -0.5344 -1.2011
   15CHTO   O43 6149   6.605   2.990   1.732  0.4000 -0.2579 -0.0517
   15CHTO  H101 6150   6.660   2.948   1.795 -0.0531 -0.2601  0.3443
   15CHTO   C66 6151   6.488   2.935   1.512 -0.1045  0.6226  0.2536
   15CHTO  H123 6152   6.517   2.907   1.410 -0.5331 -0.2202  0.3530
   15CHTO   N12 6153   6.390   2.832   1.548 -0.0044  0.1158 -0.4809
   15CHTO  H110 6154   6.317   2.878   1.612  1.7584  0.5650  1.2629
   15CHTO  H111 6155   6.338   2.788   1.464 -0.6357  0.2093 -0.1354
   15CHTO   C69 6156   6.429   3.079   1.516  0.7252 -0.2370 -0.4027
   15CHTO  H126 6157   6.404   3.098   1.622  2.4784  2.0645 -0.3563
   15CHTO   O41 6158   6.544   3.182   1.462  0.4183  0.1942 -0.5713
   15CHTO   C64 6159   6.696   3.169   1.521  0.5469  0.5595  0.0704
   15CHTO  H121 6160   6.700   3.209   1.624 -1.2651  0.9724 -0.0090
   15CHTO   C71 6161   6.792   3.235   1.417  0.4936 -0.0179 -0.7934
   15CHTO   O47 6162   6.775   3.374   1.448 -0.1346 -0.1211 -0.0859
   15CHTO  H104 6163   6.721   3.414   1.383 -0.3552 -1.5803 -0.8205
   15CHTO   O34 6164   6.307   3.091   1.428 -0.4039 -0.5372 -0.5497
   15CHTO   C49 6165   6.259   3.079   1.271 -0.6022 -0.1153 -0.2033
   15CHTO   H91 6166   6.239   2.974   1.248 -1.1992 -0.6968  2.8271
   15CHTO   C47 6167   6.368   3.140   1.178  0.0178 -0.1052  0.1556
   15CHTO   H89 6168   6.334   3.120   1.074  1.1672 -0.3636 -0.1754
   15CHTO   O33 6169   6.492   3.072   1.200 -0.2393  0.0183 -0.6142
   15CHTO   H70 6170   6.536   3.107   1.275 -0.8037  0.8024 -0.6463
   15CHTO   C45 6171   6.382   3.303   1.197  0.2165 -0.0751 -0.6818
   15CHTO   H87 6172   6.402   3.309   1.305 -0.0349 -0.4832 -0.6122
   15CHTO    N8 6173   6.491   3.380   1.128  0.2771  0.5461  0.5754
   15CHTO   H75 6174   6.464   3.409   1.027 -2.7260  4.4115  2.3128
   15CHTO   H76 6175   6.585   3.330   1.118  0.1747  0.1970  1.3700
   15CHTO   C43 6176   6.237   3.361   1.154  0.0389 -0.0418 -0.5498
   15CHTO   H85 6177   6.244   3.467   1.179  1.5811 -0.1591 -0.4250
   15CHTO   O29 6178   6.131   3.300   1.229  0.2461 -0.1402 -0.4241
   15CHTO   C50 6179   6.130   3.154   1.246 -0.2589 -0.6038 -0.6186
   15CHTO   H92 6180   6.063   3.127   1.330 -0.6048  1.6483 -0.1418
   15CHTO   C54 6181   6.046   3.115   1.117 -0.2490 -0.5613 -0.2687
   15CHTO   O36 6182   6.051   2.975   1.079  0.2484 -0.3399 -0.2691
   15CHTO   H72 6183   6.131   2.953   1.035 -0.1576 -1.4558 -0.4883
   15CHTO   O27 6184   6.208   3.351   1.010  0.1730  0.6748  0.4212
   15CHTO   C37 6185   6.135   3.420   0.907 -0.2943 -0.0229 -0.1970
   15CHTO   H79 6186   6.110   3.354   0.823  1.9286 -1.5169  0.2664
   15CHTO   C38 6187   6.006   3.477   0.959 -0.1295 -0.1509  0.1090
   15CHTO   H80 6188   6.022   3.511   1.063  0.4088  0.3565 -0.1381
   15CHTO   O31 6189   5.907   3.377   0.969  0.8854 -0.0004  0.0044
   15CHTO   H68 6190   5.940   3.307   1.022  0.9305  0.7196  0.9468
   15CHTO   C39 6191   5.944   3.605   0.877 -0.0588  0.4239 -0.2123
   15CHTO   H81 6192   5.882   3.568   0.795 -2.0025  3.1108 -0.0531
   15CHTO    N7 6193   5.852   3.679   0.963  0.1564 -0.5489 -0.1462
   15CHTO   H73 6194   5.822   3.770   0.914 -0.8708 -1.9221 -2.1364
   15CHTO   H74 6195   5.770   3.628   1.012  1.8608 -2.3448  0.9172
   15CHTO   C40 6196   6.057   3.701   0.823  0.2822 -0.3265  0.2089
   15CHTO   H82 6197   6.103   3.765   0.899  2.6601 -0.9478 -0.6568
   15CHTO   O26 6198   6.162   3.617   0.755  0.4157 -0.0952  0.2562
   15CHTO   C41 6199   6.229   3.532   0.853 -0.5097  0.1026  0.2520
   15CHTO   H83 6200   6.255   3.592   0.942 -0.4462  0.8010 -0.2400
   15CHTO   C52 6201   6.356   3.482   0.784 -0.4460 -0.0901 -0.1720
   15CHTO   O35 6202   6.340   3.399   0.673 -0.2215 -0.0071  0.1466
   15CHTO   H71 6203   6.352   3.451   0.596  0.4268  0.6227  0.6723
   15CHTO   O28 6204   6.015   3.779   0.710  0.3631  0.5900  0.2492
   15CHTO   C42 6205   6.059   3.914   0.686 -0.1302 -0.4810 -0.1793
   15CHTO   H84 6206   6.054   3.923   0.578 -1.5691 -1.2028 -0.1792
   15CHTO   C44 6207   6.207   3.953   0.732 -0.2506 -0.0753 -0.0448
   15CHTO   H86 6208   6.215   3.915   0.834  2.0628 -1.8635 -0.8596
   15CHTO   O32 6209   6.302   3.886   0.646 -0.1231  0.2544  0.2080
   15CHTO   H69 6210   6.352   3.820   0.689 -1.9648  0.0155  2.0530
   15CHTO   C48 6211   6.235   4.110   0.749  0.0045  0.4070  0.2393
   15CHTO   H90 6212   6.253   4.139   0.646 -1.0388  2.9246  0.7185
   15CHTO    N9 6213   6.362   4.131   0.822  0.8029 -0.1529 -0.3927
   15CHTO   H77 6214   6.445   4.091   0.766  1.3971 -1.5935  1.4601
   15CHTO   H78 6215   6.369   4.238   0.830 -0.5968 -0.0788  0.0322
   15CHTO   C51 6216   6.114   4.180   0.818 -0.3463  0.1507 -0.3247
   15CHTO   H93 6217   6.103   4.143   0.921  0.3875  0.9824  0.0588
   15CHTO   O30 6218   5.997   4.152   0.737  0.0091 -0.1445 -0.1623
   15CHTO   C46 6219   5.952   4.011   0.747  0.4308 -0.4744 -0.4766
   15CHTO   H88 6220   5.933   3.985   0.851  0.5563  2.4386  0.3158
   15CHTO   C53 6221   5.815   4.008   0.667 -0.7647  0.1929  0.1386
   15CHTO   O72 6222   5.721   4.098   0.730  0.4677  0.3401 -0.0512
   15CHTO  H199 6223   5.718   4.185   0.695 -0.4099 -0.3563 -1.7598
   15CHTO   O22 6224   6.133   4.322   0.833  0.0370  0.0647 -0.2495
   15CHTO   C31 6225   6.045   4.406   0.922  0.3708  0.0428  0.1944
   15CHTO   H59 6226   6.077   4.511   0.902  2.7501 -0.6870 -0.0178
   15CHTO   C29 6227   5.892   4.404   0.899 -0.2620  0.4892  0.3132
   15CHTO   H57 6228   5.864   4.300   0.922  0.0881  0.8535  2.4822
   15CHTO   O21 6229   5.867   4.438   0.762 -0.4769  0.4321  0.6973
   15CHTO   H37 6230   5.917   4.377   0.712  0.7325  0.5664  1.7249
   15CHTO   C27 6231   5.818   4.504   0.997  0.5908  0.1669 -1.0139
   15CHTO   H55 6232   5.836   4.607   0.966  0.3525  0.5379  0.0604
   15CHTO    N5 6233   5.672   4.475   0.990  0.4240  0.0302  0.8314
   15CHTO   H43 6234   5.635   4.423   0.903  0.8757  0.2236  0.5227
   15CHTO   H44 6235   5.619   4.440   1.078 -2.0649  1.3864 -0.1022
   15CHTO   C25 6236   5.867   4.492   1.150  0.5345  0.4393 -0.0160
   15CHTO   H53 6237   5.829   4.401   1.199 -2.5612  0.5380 -2.0408
   15CHTO   O17 6238   6.010   4.478   1.155 -0.3246  0.3035 -0.3449
   15CHTO   C32 6239   6.080   4.383   1.072  0.9924 -0.3156  0.4420
   15CHTO   H60 6240   6.041   4.288   1.108  0.9642 -0.6358 -0.4208
   15CHTO   C36 6241   6.234   4.391   1.082 -0.2372 -0.1165  0.1671
   15CHTO   O25 6242   6.287   4.522   1.066  0.2971 -0.0428 -0.2017
   15CHTO   H40 6243   6.283   4.564   0.982  0.2030  0.9786  0.3038
   15CHTO   O15 6244   5.824   4.615   1.241 -0.0660 -0.1433  0.0173
   15CHTO   C19 6245   5.900   4.718   1.305 -0.2849  0.3501 -0.1373
   15CHTO   H47 6246   5.983   4.653   1.336 -2.4099 -1.0767  2.7370
   15CHTO   C20 6247   5.960   4.830   1.216  0.1703 -0.1794 -0.5583
   15CHTO   H48 6248   5.881   4.895   1.176 -1.4449 -0.5339  1.9373
   15CHTO   O19 6249   6.032   4.768   1.116  0.3098  0.8103  0.5259
   15CHTO   H35 6250   5.974   4.736   1.049  1.2097 -0.4025  0.3125
   15CHTO   C21 6251   6.045   4.934   1.296  0.1733 -0.6506 -0.0780
   15CHTO   H49 6252   6.127   4.882   1.345  1.8817  1.2874 -0.8282
   15CHTO    N4 6253   6.099   5.052   1.217 -0.1959  0.2252  0.9457
   15CHTO   H41 6254   6.195   5.028   1.172 -0.8018  0.6467 -0.5895
   15CHTO   H42 6255   6.108   5.132   1.289 -0.0692  0.2629  0.8877
   15CHTO   C22 6256   5.958   4.983   1.415 -0.5392 -0.2395  0.7040
   15CHTO   H50 6257   5.874   5.047   1.386  0.2804  0.7807  0.5417
   15CHTO   O14 6258   5.916   4.874   1.492  0.0374  0.3732  0.3578
   15CHTO   C23 6259   5.830   4.776   1.431  0.4105  1.7247  0.7648
   15CHTO   H51 6260   5.730   4.816   1.410 -0.4857 -1.7187 -1.8885
   15CHTO   C34 6261   5.820   4.669   1.538  0.2858  0.2551 -0.2531
   15CHTO   O23 6262   5.699   4.592   1.502  0.5061 -0.3867 -1.0994
   15CHTO   H38 6263   5.625   4.647   1.521  0.7883 -0.5426  0.5693
   15CHTO   O16 6264   6.036   5.070   1.508  0.1672 -0.1394 -0.3063
   15CHTO   C24 6265   6.131   5.001   1.628 -0.9591  1.0497  0.6937
   15CHTO   H52 6266   6.133   4.892   1.618 -1.1651  1.1871 -0.9521
   15CHTO   C26 6267   6.080   5.032   1.769 -0.2146 -0.0562 -0.3649
   15CHTO   H54 6268   6.074   5.141   1.791  3.5063  0.1399 -0.0290
   15CHTO   O20 6269   5.942   4.990   1.773  0.0005  0.2337  0.8753
   15CHTO   H36 6270   5.890   5.068   1.780 -0.2594  0.1822 -0.4119
   15CHTO   C30 6271   6.167   4.964   1.879  0.4578  0.7079  0.2784
   15CHTO   H58 6272   6.157   4.855   1.867  1.4037  0.8360 -1.7963
   15CHTO    N6 6273   6.128   4.995   2.019 -0.9295 -0.0407  0.1943
   15CHTO   H45 6274   6.200   5.053   2.074  0.4166 -0.9392 -0.5836
   15CHTO   H46 6275   6.030   5.038   2.031 -0.6045  0.1070  2.6735
   15CHTO   C33 6276   6.319   4.998   1.856 -0.8867  0.6607  0.3125
   15CHTO   H61 6277   6.336   5.106   1.873 -0.4031  0.8106 -1.0150
   15CHTO   O18 6278   6.354   4.972   1.720  0.4775 -0.2118  0.3559
   15CHTO   C28 6279   6.281   5.045   1.621  0.2604 -0.3355 -0.0984
   15CHTO   H56 6280   6.290   5.151   1.643  1.4502 -0.4595  0.0487
   15CHTO   C35 6281   6.349   5.023   1.482 -0.2535  0.1407  0.6652
   15CHTO   O24 6282   6.484   5.077   1.476 -0.0799  0.4278  0.6726
   15CHTO   H39 6283   6.549   5.033   1.526  1.4848  3.4550  1.3427
   15CHTO    O9 6284   6.413   4.931   1.944 -0.0863  0.1375  0.5428
   15CHTO   C13 6285   6.506   5.012   2.028  0.7152  0.4207  0.1643
   15CHTO   H26 6286   6.441   5.084   2.082  0.6889  0.6122 -0.1175
   15CHTO   C11 6287   6.615   5.086   1.940  0.6806  0.0822 -0.1499
   15CHTO   H24 6288   6.566   5.157   1.871 -0.2284 -1.2984 -0.9355
   15CHTO    O8 6289   6.695   4.998   1.856 -0.1418 -0.7117  0.4191
   15CHTO    H3 6290   6.659   4.915   1.830  2.0676 -1.4972 -0.2439
   15CHTO    C9 6291   6.696   5.167   2.046 -0.5567  0.6997  0.2647
   15CHTO   H22 6292   6.621   5.204   2.118 -0.0998 -1.3879  1.8606
   15CHTO    N2 6293   6.768   5.277   1.984  0.5738  0.6612 -0.5008
   15CHTO   H10 6294   6.821   5.336   2.057  0.9616  0.5468 -0.6835
   15CHTO   H11 6295   6.703   5.322   1.911 -2.5340 -0.6178  1.3710
   15CHTO    C7 6296   6.784   5.062   2.131 -0.0126 -0.5721  0.0422
   15CHTO   H20 6297   6.837   5.128   2.203 -1.2602  1.8893 -1.2071
   15CHTO    O4 6298   6.707   4.957   2.191  0.2208 -0.1150 -0.0534
   15CHTO   C14 6299   6.573   4.915   2.143  0.0197 -0.5157  0.1259
   15CHTO   H27 6300   6.505   4.924   2.231  0.6292  1.1121  0.4441
   15CHTO   C18 6301   6.580   4.760   2.113  0.4368 -0.0008  0.6872
   15CHTO   O13 6302   6.551   4.680   2.228 -0.5376  0.0324  0.2262
   15CHTO    H7 6303   6.611   4.711   2.293  2.2064 -0.5072 -1.9571
   15CHTO    O2 6304   6.892   4.987   2.036 -0.2325 -0.7532 -0.6282
   15CHTO    C1 6305   6.993   4.920   2.114 -0.8600 -0.0841  0.2913
   15CHTO   H14 6306   6.943   4.888   2.207  0.9582  0.8052  1.6099
   15CHTO    C2 6307   7.123   5.005   2.156  0.0744 -0.3306  0.0627
   15CHTO   H15 6308   7.183   5.044   2.073 -1.8436  0.6259 -0.8895
   15CHTO    O6 6309   7.069   5.116   2.228 -0.4023 -0.1109  0.5267
   15CHTO    H1 6310   7.119   5.194   2.215 -0.9903 -0.1283 -2.2386
   15CHTO    C3 6311   7.212   4.917   2.248 -0.1025  0.6752  0.6962
   15CHTO   H16 6312   7.156   4.907   2.342  0.2980  1.1879  0.9909
   15CHTO    N1 6313   7.348   4.979   2.281  0.4756  0.0817 -0.6262
   15CHTO    H8 6314   7.410   4.982   2.193 -1.8200  1.1013 -2.2398
   15CHTO    H9 6315   7.333   5.075   2.327 -1.3429 -1.6510  2.6099
   15CHTO    C4 6316   7.241   4.767   2.193  0.9966 -0.0515 -0.5678
   15CHTO   H17 6317   7.313   4.777   2.112  0.9202  0.6626 -0.5474
   15CHTO    O1 6318   7.123   4.702   2.137  0.3363 -0.6085  0.2508
   15CHTO    C5 6319   7.049   4.789   2.048 -0.7008  0.0189  0.2725
   15CHTO   H18 6320   7.114   4.830   1.971  0.2007 -0.7228  0.6310
   15CHTO   C16 6321   6.931   4.713   1.982 -0.2103  0.0954 -0.6513
   15CHTO   O11 6322   6.976   4.588   1.930  0.2680 -0.2173 -0.4714
   15CHTO    H5 6323   6.908   4.541   1.886  0.6237 -0.5981 -0.6160
   15CHTO    O3 6324   7.284   4.670   2.294 -0.2873 -0.4377  0.0572
   15CHTO    C6 6325   7.379   4.569   2.238  0.1126 -0.5190  0.0175
   15CHTO   H19 6326   7.377   4.567   2.129 -0.4427  1.0987 -0.0247
   15CHTO    C8 6327   7.522   4.595   2.287  0.2997  0.2867  0.2037
   15CHTO   H21 6328   7.520   4.608   2.395 -1.8993  0.9479  0.0985
   15CHTO    O7 6329   7.570   4.706   2.215  0.1715  0.6308 -0.7203
   15CHTO    H2 6330   7.651   4.689   2.172 -0.2062  0.5652 -1.4098
   15CHTO   C12 6331   7.616   4.465   2.272  0.7017  0.0279 -0.3914
   15CHTO   H25 6332   7.645   4.459   2.165  0.1084 -0.2572 -0.5371
   15CHTO    N3 6333   7.743   4.490   2.358  0.1369  0.3763 -0.3076
   15CHTO   H12 6334   7.717   4.506   2.461  1.1398  0.1787 -0.0235
   15CHTO   H13 6335   7.798   4.399   2.344 -0.9980 -0.2525 -0.7538
   15CHTO   C15 6336   7.540   4.327   2.312 -0.0777 -0.2041  0.7496
   15CHTO   H28 6337   7.516   4.318   2.418 -0.8829  1.4741  0.7286
   15CHTO   O10 6338   7.595   4.202   2.252 -0.0330  0.3995 -0.2921
   15CHTO    H4 6339   7.687   4.193   2.265 -0.1333  0.8955  0.8203
   15CHTO    O5 6340   7.411   4.326   2.248 -0.0633 -0.1256  0.5761
   15CHTO   C10 6341   7.321   4.432   2.287 -0.5101 -0.8120  0.4264
   15CHTO   H23 6342   7.322   4.435   2.396 -2.4799  0.6769  0.4263
   15CHTO   C17 6343   7.176   4.404   2.238  0.1478  0.1272 -0.4863
   15CHTO   O12 6344   7.136   4.275   2.269 -0.2431 -0.0764  0.2622
   15CHTO    H6 6345   7.145   4.262   2.361  0.8849 -1.9997 -0.1136
   16CHTO  H203 6346   4.489   4.323   0.718 -0.2045  0.2338 -1.4329
   16CHTO   O82 6347   4.471   4.236   0.750  0.4999  0.4906 -0.3108
   16CHTO  C123 6348   4.564   4.188   0.849  0.2309 -0.6415  0.3382
   16CHTO  H227 6349   4.540   4.082   0.865 -0.5984 -0.5978 -0.5979
   16CHTO   O77 6350   4.697   4.207   0.792  0.2973 -0.2707  0.0886
   16CHTO  C118 6351   4.796   4.135   0.866 -0.0500 -0.0326 -0.2476
   16CHTO  H222 6352   4.762   4.031   0.865  0.3487 -0.2424  2.9921
   16CHTO  C125 6353   4.928   4.157   0.791 -0.3058  0.0377 -0.3895
   16CHTO   O84 6354   5.014   4.054   0.836 -0.6072  0.2550  0.2603
   16CHTO  H205 6355   5.043   4.077   0.923 -0.2536 -0.7751  0.4169
   16CHTO  C114 6356   4.801   4.184   1.021  1.2997 -0.4140  0.9341
   16CHTO  H218 6357   4.849   4.282   1.023  3.7411 -1.4260 -2.5116
   16CHTO  C116 6358   4.661   4.182   1.085 -0.5816 -0.1266 -1.2272
   16CHTO  H220 6359   4.636   4.075   1.103 -2.1882  0.5867  1.0105
   16CHTO   O79 6360   4.667   4.251   1.210  0.1921  0.5234  0.2300
   16CHTO  H201 6361   4.577   4.259   1.237  0.0159 -2.5595  0.7730
   16CHTO  C120 6362   4.559   4.257   0.987  0.2768  0.1101 -0.4453
   16CHTO  H224 6363   4.589   4.364   0.980  0.4603 -0.1150 -3.7271
   16CHTO   N21 6364   4.428   4.258   1.048 -0.0232 -0.4908 -0.1459
   16CHTO  H211 6365   4.365   4.174   1.021 -0.8494  0.0377  0.1298
   16CHTO  H212 6366   4.377   4.348   1.016  1.9146  1.1446  1.2616
   16CHTO   O75 6367   4.886   4.094   1.086  0.5452  0.5941  0.7518
   16CHTO  C112 6368   5.007   4.164   1.171  0.1299 -0.9964  0.1760
   16CHTO  H216 6369   4.971   4.259   1.213 -2.1226 -2.1176  0.8532
   16CHTO   O73 6370   5.116   4.184   1.081 -0.4716 -0.5691  0.1089
   16CHTO  C113 6371   5.232   4.246   1.138  0.6735 -0.1146  0.4583
   16CHTO  H217 6372   5.194   4.340   1.185 -0.7859 -2.1171  3.3996
   16CHTO  C124 6373   5.335   4.285   1.027  0.3702  0.0685 -0.3955
   16CHTO   O83 6374   5.303   4.410   0.963  1.2197  0.8314  1.4881
   16CHTO  H204 6375   5.333   4.400   0.875  1.0616 -0.9271  1.6129
   16CHTO  C109 6376   5.289   4.153   1.241  0.1678  0.2738 -0.1217
   16CHTO  H213 6377   5.315   4.058   1.192  0.6925 -0.0240  0.7247
   16CHTO  C110 6378   5.176   4.128   1.346 -0.5113  0.9656 -0.3073
   16CHTO  H214 6379   5.156   4.214   1.410  0.4984 -0.7462  2.4113
   16CHTO   O78 6380   5.243   4.026   1.427  0.0871  0.3734  0.2775
   16CHTO  H200 6381   5.193   4.008   1.505  0.5271  4.2082  1.5511
   16CHTO  C111 6382   5.044   4.066   1.283  0.1502  0.4528 -0.0494
   16CHTO  H215 6383   5.064   3.972   1.229 -0.6365  0.5321 -0.4897
   16CHTO   N19 6384   4.933   4.043   1.373 -0.1128 -0.1176  0.1552
   16CHTO  H207 6385   4.967   3.981   1.455 -3.1857 -0.6529  1.0924
   16CHTO  H208 6386   4.843   4.014   1.321 -0.4209 -1.5820  1.4618
   16CHTO   O74 6387   5.411   4.209   1.306  0.4043 -0.0725  0.1035
   16CHTO  C115 6388   5.532   4.104   1.359 -0.1152 -0.9717  0.4875
   16CHTO  H219 6389   5.528   4.081   1.466 -0.9060  0.5705  0.8009
   16CHTO   O76 6390   5.529   3.957   1.282 -0.3720 -0.2256 -0.1168
   16CHTO  C122 6391   5.586   3.979   1.154 -0.2228  0.2539  0.2098
   16CHTO  H226 6392   5.545   4.066   1.104  1.9213 -0.4530 -2.8841
   16CHTO  C126 6393   5.540   3.858   1.074  0.5734 -0.1180 -0.1607
   16CHTO   O85 6394   5.552   3.869   0.924 -0.0920 -0.1808 -0.3338
   16CHTO  H206 6395   5.634   3.901   0.892  0.0609  0.4410  0.6468
   16CHTO  C121 6396   5.745   3.985   1.172  0.2034  0.3891 -0.1063
   16CHTO  H225 6397   5.778   3.879   1.171 -2.5747 -0.4966 -0.8118
   16CHTO   O81 6398   5.808   4.061   1.064 -0.2772  0.3252 -0.3100
   16CHTO  H202 6399   5.900   4.046   1.061 -0.5654 -1.2575 -4.6077
   16CHTO  C119 6400   5.780   4.057   1.307  0.1010 -0.6130  0.2348
   16CHTO  H223 6401   5.752   3.976   1.374  0.8341  0.0965  1.4000
   16CHTO  C117 6402   5.672   4.174   1.334  0.4122 -0.1926 -1.1999
   16CHTO  H221 6403   5.663   4.244   1.251  1.7673 -1.3395 -2.3493
   16CHTO   N20 6404   5.705   4.265   1.452 -0.5259 -0.3353 -0.1357
   16CHTO  H209 6405   5.634   4.267   1.534 -0.8317  0.4911 -0.4255
   16CHTO  H210 6406   5.802   4.240   1.492  0.2267 -1.4355 -2.6016
   16CHTO   O80 6407   5.918   4.072   1.328  0.4486 -0.0372  0.3652
   16CHTO  C103 6408   6.010   3.941   1.323  0.2581  0.3169  0.2228
   16CHTO  H190 6409   5.948   3.851   1.320  2.6754 -1.3927  0.3477
   16CHTO  C101 6410   6.117   3.923   1.208 -1.5578  0.2109 -0.1880
   16CHTO  H188 6411   6.173   4.015   1.196  1.5247 -1.4080  1.2271
   16CHTO   O68 6412   6.044   3.909   1.101  0.0929  0.5665 -0.1129
   16CHTO  H168 6413   6.095   3.866   1.035  0.9620 -1.7053  1.9501
   16CHTO   C99 6414   6.223   3.805   1.237 -0.4426  0.1005 -0.2507
   16CHTO  H186 6415   6.166   3.712   1.216 -0.7924  0.3274 -0.3076
   16CHTO   N17 6416   6.343   3.809   1.143 -0.2473  0.4874  0.3176
   16CHTO  H174 6417   6.422   3.751   1.188 -1.3641 -0.7833  0.6615
   16CHTO  H175 6418   6.317   3.775   1.044  0.5980 -5.0150  1.8245
   16CHTO   C97 6419   6.273   3.799   1.392 -0.3693 -0.4423  0.2179
   16CHTO  H184 6420   6.357   3.865   1.417 -0.8459 -0.3234  1.4977
   16CHTO   O64 6421   6.161   3.823   1.479 -0.0476  0.1457 -0.0232
   16CHTO  C104 6422   6.084   3.935   1.456 -0.0998 -0.3075 -0.3274
   16CHTO  H191 6423   6.147   4.024   1.458 -1.9508  1.0662 -1.3456
   16CHTO  C108 6424   5.986   3.956   1.574 -0.6217 -0.3210  0.1602
   16CHTO   O71 6425   6.054   3.964   1.697 -0.4593  0.1090 -0.0888
   16CHTO  H171 6426   6.010   3.908   1.758 -1.4780 -2.1401 -2.8014
   16CHTO   O62 6427   6.315   3.659   1.408  0.1422  0.7260  0.5545
   16CHTO   C91 6428   6.341   3.614   1.542 -0.1522  0.5735  0.5855
   16CHTO  H178 6429   6.295   3.681   1.614  1.9656  2.2782  0.3915
   16CHTO   C92 6430   6.495   3.603   1.568  0.0141  0.3238 -0.0438
   16CHTO  H179 6431   6.541   3.534   1.495 -0.8336  0.2833 -0.5482
   16CHTO   O66 6432   6.561   3.723   1.545 -0.1844 -0.1233 -0.2196
   16CHTO  H166 6433   6.647   3.718   1.582  0.8748 -1.5764 -2.7605
   16CHTO   C93 6434   6.517   3.559   1.727 -0.4464  0.7744 -0.5460
   16CHTO  H180 6435   6.486   3.651   1.778  0.6112  1.1668 -0.5959
   16CHTO   N16 6436   6.661   3.533   1.764  0.3397 -0.0926  0.4023
   16CHTO  H172 6437   6.713   3.525   1.670 -1.4523 -1.7844 -0.4802
   16CHTO  H173 6438   6.705   3.612   1.824  2.7831 -0.6152 -0.6355
   16CHTO   C94 6439   6.427   3.440   1.772  0.4530  0.1155 -0.0711
   16CHTO  H181 6440   6.465   3.346   1.732  0.0885  0.1690 -0.5488
   16CHTO   O61 6441   6.297   3.460   1.725 -0.4195 -0.7111  0.2502
   16CHTO   C95 6442   6.278   3.468   1.586  0.1012  0.9408  0.5839
   16CHTO  H182 6443   6.331   3.393   1.526 -1.8723  1.5694 -2.0435
   16CHTO  C106 6444   6.129   3.447   1.553  0.2995 -0.1653  0.0351
   16CHTO   O69 6445   6.051   3.550   1.621 -0.7815  0.1853  0.7389
   16CHTO  H169 6446   5.972   3.521   1.662 -1.3661  2.5448  1.3999
   16CHTO   O63 6447   6.419   3.432   1.945  0.5316 -0.5821  0.8499
   16CHTO   C96 6448   6.303   3.314   1.990 -0.7250 -0.4183 -0.0087
   16CHTO  H183 6449   6.328   3.278   2.090  0.7122  1.4018  0.3211
   16CHTO   C98 6450   6.298   3.176   1.906  0.1154 -0.8007  0.8168
   16CHTO  H185 6451   6.291   3.198   1.799 -1.4058 -0.1386  1.0402
   16CHTO   O67 6452   6.421   3.104   1.933 -0.0306  0.9164  0.8270
   16CHTO  H167 6453   6.492   3.111   1.872 -1.6448 -1.7943 -1.4955
   16CHTO  C102 6454   6.177   3.087   1.946 -0.3015  0.0452 -0.0869
   16CHTO  H189 6455   6.193   3.047   2.047  0.7567  1.1644  0.2102
   16CHTO   N18 6456   6.161   2.969   1.860  0.3616 -0.5128 -0.7155
   16CHTO  H176 6457   6.251   2.913   1.842  0.7985 -0.7646  2.0502
   16CHTO  H177 6458   6.083   2.905   1.898  0.6361  0.3410  1.3523
   16CHTO  C105 6459   6.051   3.178   1.945 -0.7952  0.3452 -0.0257
   16CHTO  H192 6460   6.051   3.238   1.854 -1.4304 -0.1716 -0.3686
   16CHTO   O65 6461   6.063   3.281   2.047 -0.0510  0.6394  0.3675
   16CHTO  C100 6462   6.164   3.376   2.009  0.5369  0.1235  0.3151
   16CHTO  H187 6463   6.132   3.424   1.915 -0.4465  0.9416  1.0688
   16CHTO  C107 6464   6.163   3.497   2.106 -0.1869  0.2116  0.2755
   16CHTO   O70 6465   6.043   3.572   2.090  0.0543  0.3421 -0.0182
   16CHTO  H170 6466   6.032   3.612   2.174 -2.4400 -0.0051 -0.1369
   16CHTO   O57 6467   5.916   3.116   1.954 -0.3950  0.5109  0.1402
   16CHTO   C85 6468   5.803   3.173   1.881  0.2403  0.0507 -0.7223
   16CHTO  H157 6469   5.832   3.186   1.774  0.6807 -2.0514 -0.8845
   16CHTO   C83 6470   5.775   3.322   1.934  0.2182  0.3856  0.0877
   16CHTO  H155 6471   5.861   3.381   1.901  0.9121 -0.5110  0.2913
   16CHTO   O56 6472   5.764   3.338   2.072  0.1261 -0.1206  0.0841
   16CHTO  H135 6473   5.793   3.425   2.088 -0.4212 -0.0895  0.9194
   16CHTO   C81 6474   5.646   3.376   1.862  0.4907  0.2131  0.0032
   16CHTO  H153 6475   5.665   3.373   1.755  0.5512  2.1081 -0.0496
   16CHTO   N14 6476   5.613   3.512   1.896  0.8291 -0.1190  0.2890
   16CHTO  H141 6477   5.657   3.584   1.830  0.4289 -0.6447 -0.5554
   16CHTO  H142 6478   5.639   3.530   1.998 -1.5627  0.3240  0.8448
   16CHTO   C79 6479   5.525   3.273   1.898 -0.0190  0.1320  0.3179
   16CHTO  H151 6480   5.438   3.304   1.841 -0.2171 -1.9681 -0.5945
   16CHTO   O52 6481   5.546   3.145   1.842 -0.6273  0.0460 -0.2293
   16CHTO   C86 6482   5.669   3.084   1.893  0.0712 -0.2382 -0.8273
   16CHTO  H158 6483   5.637   3.047   1.993 -0.4318  1.8250 -0.1901
   16CHTO   C90 6484   5.686   2.960   1.805 -0.1007 -0.0596  0.5592
   16CHTO   O60 6485   5.585   2.864   1.830  0.6505  0.5058  0.1559
   16CHTO  H138 6486   5.577   2.808   1.754 -1.1640 -2.1365  2.1824
   16CHTO   O50 6487   5.486   3.256   2.036  0.2821 -0.4076  0.6086
   16CHTO   C73 6488   5.401   3.199   2.140  0.1680 -0.3396  0.3451
   16CHTO  H145 6489   5.450   3.108   2.179 -2.1359 -1.5413  0.5177
   16CHTO   C74 6490   5.263   3.155   2.084 -0.0030  0.1261  0.1300
   16CHTO  H146 6491   5.294   3.093   1.999 -0.5785  0.7901 -0.5789
   16CHTO   O54 6492   5.198   3.066   2.174  0.3386  0.7353  0.1839
   16CHTO  H133 6493   5.190   2.983   2.131 -1.5962  0.7714  0.4219
   16CHTO   C75 6494   5.189   3.287   2.034  0.3388 -0.2469 -0.0020
   16CHTO  H147 6495   5.248   3.342   1.960  0.7761 -0.5628  0.1052
   16CHTO   N13 6496   5.060   3.269   1.974 -0.2429  0.3752  0.2152
   16CHTO  H139 6497   4.977   3.286   2.041  0.3645  0.9812  0.8181
   16CHTO  H140 6498   5.043   3.333   1.888 -2.2477 -0.5946 -0.1196
   16CHTO   C76 6499   5.182   3.398   2.160  0.0554  0.4157 -0.0967
   16CHTO  H148 6500   5.111   3.364   2.236  1.7333  1.9545  2.2152
   16CHTO   O49 6501   5.316   3.416   2.214  0.4383 -0.3733 -0.1530
   16CHTO   C77 6502   5.385   3.297   2.261  0.2042  0.2551 -0.1305
   16CHTO  H149 6503   5.327   3.261   2.346  0.2453  0.0696 -0.1799
   16CHTO   C88 6504   5.524   3.331   2.318 -0.4397 -0.5913 -0.9022
   16CHTO   O58 6505   5.498   3.392   2.451  0.1161  0.0617 -0.1555
   16CHTO  H136 6506   5.458   3.330   2.509 -0.8559 -1.0059 -1.9191
   16CHTO   O51 6507   5.138   3.537   2.114  0.0782 -0.4429  0.5305
   16CHTO   C78 6508   5.122   3.643   2.230 -0.1938  0.0485  1.0461
   16CHTO  H150 6509   5.149   3.600   2.329  2.1107 -0.4949  0.1965
   16CHTO   C80 6510   4.972   3.680   2.223  0.2570 -0.8640  0.0825
   16CHTO  H152 6511   4.950   3.703   2.117  1.3667  2.0814  0.4511
   16CHTO   O55 6512   4.894   3.566   2.252 -0.3056  0.5726 -0.4503
   16CHTO  H134 6513   4.857   3.530   2.174  2.4442 -1.6837 -0.8105
   16CHTO   C84 6514   4.930   3.798   2.312 -0.4919 -0.2308 -0.2121
   16CHTO  H156 6515   4.942   3.758   2.413 -0.7773  0.6782  0.1897
   16CHTO   N15 6516   4.791   3.848   2.294 -0.9270  0.4675  0.2599
   16CHTO  H143 6517   4.741   3.848   2.388 -0.1602  3.4080  0.7305
   16CHTO  H144 6518   4.738   3.786   2.225 -0.6036  1.0028 -0.4774
   16CHTO   C87 6519   5.041   3.912   2.312  0.6172  0.2978  0.0545
   16CHTO  H159 6520   5.042   3.971   2.220  1.7735 -1.1467 -0.8888
   16CHTO   O53 6521   5.183   3.850   2.336 -0.4346 -0.4936 -0.0717
   16CHTO   C82 6522   5.214   3.766   2.222  0.4356 -0.8502  0.8078
   16CHTO  H154 6523   5.209   3.826   2.131  0.2657 -0.3537  1.1453
   16CHTO   C89 6524   5.365   3.719   2.235  1.0998  0.0732  0.2572
   16CHTO   O59 6525   5.460   3.825   2.220 -0.8116  0.4051  0.2509
   16CHTO  H137 6526   5.467   3.849   2.130 -1.4308 -1.2176 -0.2416
   16CHTO   O45 6527   5.008   4.024   2.436  0.2022 -0.2987  0.0409
   16CHTO   C67 6528   5.108   4.130   2.431  0.8533  0.0036 -0.2774
   16CHTO  H124 6529   5.187   4.106   2.360 -0.3348  2.9363 -2.6999
   16CHTO   C65 6530   5.052   4.273   2.383 -0.0588  0.4590 -0.6233
   16CHTO  H122 6531   4.944   4.273   2.399 -0.5282 -1.4162 -3.3678
   16CHTO   O44 6532   5.087   4.280   2.242  0.2575  0.4032  0.5169
   16CHTO  H102 6533   5.028   4.334   2.192  0.4864 -0.1542 -0.3553
   16CHTO   C63 6534   5.105   4.393   2.471  0.8063 -0.5132  0.3880
   16CHTO  H120 6535   5.059   4.387   2.570 -2.9243 -0.8714 -1.3074
   16CHTO   N11 6536   5.046   4.525   2.429 -0.5386  0.4609 -0.6054
   16CHTO  H108 6537   5.101   4.606   2.473 -1.6734  1.1902 -0.5176
   16CHTO  H109 6538   5.007   4.527   2.330  0.2051 -0.7972 -0.9308
   16CHTO   C61 6539   5.258   4.381   2.496  0.0720  0.4450  0.6599
   16CHTO  H118 6540   5.288   4.464   2.563 -1.2426  2.0074 -0.6304
   16CHTO   O40 6541   5.292   4.249   2.568  0.5695  0.0039 -0.0849
   16CHTO   C68 6542   5.179   4.151   2.577 -0.5729 -0.2002  0.5174
   16CHTO  H125 6543   5.107   4.184   2.655  1.3591 -1.3231  2.8240
   16CHTO   C72 6544   5.245   4.019   2.632 -0.1090  0.2862 -0.0839
   16CHTO   O48 6545   5.306   4.043   2.758  0.0389  0.1273 -0.5736
   16CHTO  H105 6546   5.305   3.958   2.798 -1.6400  0.0891 -0.6304
   16CHTO   O38 6547   5.336   4.394   2.376  0.2166 -0.0356  0.1494
   16CHTO   C55 6548   5.469   4.439   2.413 -0.6006 -0.5194 -0.6388
   16CHTO  H112 6549   5.491   4.402   2.514  3.4555  1.4719 -0.6803
   16CHTO   C56 6550   5.487   4.599   2.409 -0.1574  0.5382 -0.0168
   16CHTO  H113 6551   5.484   4.627   2.302 -0.8935 -0.6587 -0.3282
   16CHTO   O42 6552   5.382   4.668   2.476 -0.0662  0.3532  0.1830
   16CHTO  H100 6553   5.297   4.638   2.452  1.3189 -3.8222  0.0226
   16CHTO   C57 6554   5.628   4.642   2.464  0.2973 -0.5769 -0.0815
   16CHTO  H114 6555   5.635   4.613   2.569  0.6991  0.3937  0.1613
   16CHTO   N10 6556   5.648   4.788   2.447  0.2656  0.1439 -0.5663
   16CHTO  H106 6557   5.753   4.806   2.429  0.5268  0.7495  1.4310
   16CHTO  H107 6558   5.617   4.843   2.535  0.2019  1.2764 -1.2960
   16CHTO   C58 6559   5.729   4.560   2.374 -0.2419 -0.2444 -0.6094
   16CHTO  H115 6560   5.722   4.593   2.269 -2.3193  0.5665 -0.2533
   16CHTO   O37 6561   5.703   4.421   2.380  0.6125  0.0140 -0.2599
   16CHTO   C59 6562   5.580   4.367   2.330 -0.3872  0.2886 -0.2431
   16CHTO  H116 6563   5.580   4.381   2.222  0.3993  1.0814 -0.1433
   16CHTO   C70 6564   5.564   4.218   2.374  0.0445 -0.2061  0.3055
   16CHTO   O46 6565   5.663   4.129   2.328 -0.1461 -0.0808  0.0941
   16CHTO  H103 6566   5.744   4.163   2.360 -0.1001  0.9911 -1.1126
   16CHTO   O39 6567   5.890   4.591   2.429  0.5026  0.0374  0.3612
   16CHTO   C60 6568   5.997   4.539   2.360 -0.2588  0.3492  0.0952
   16CHTO  H117 6569   5.984   4.431   2.353 -0.5484  0.2390  2.2332
   16CHTO   C62 6570   6.016   4.592   2.209 -0.2964 -0.3816  0.1264
   16CHTO  H119 6571   5.929   4.561   2.146 -0.1237  1.2712 -0.9582
   16CHTO   O43 6572   6.026   4.730   2.204  0.3034 -0.1583 -0.2194
   16CHTO  H101 6573   5.943   4.764   2.178  0.7372  1.5032  0.4701
   16CHTO   C66 6574   6.137   4.515   2.138  0.1961 -0.2329 -1.0165
   16CHTO  H123 6575   6.120   4.408   2.150  0.5851  0.0869  2.8445
   16CHTO   N12 6576   6.176   4.543   1.997  0.8950 -0.0737  0.4749
   16CHTO  H110 6577   6.232   4.633   1.975 -0.0453 -0.0369 -1.9656
   16CHTO  H111 6578   6.106   4.511   1.921  0.6934  0.5380  0.3957
   16CHTO   C69 6579   6.264   4.544   2.222 -0.5809 -0.0351 -0.0220
   16CHTO  H126 6580   6.276   4.654   2.219  1.8086 -0.2189  1.4714
   16CHTO   O41 6581   6.238   4.493   2.366 -0.1194 -0.1469  0.1382
   16CHTO   C64 6582   6.134   4.560   2.431  0.3778 -0.0172 -0.1458
   16CHTO  H121 6583   6.167   4.665   2.441 -1.1103  0.4593 -0.1631
   16CHTO   C71 6584   6.119   4.512   2.568  0.1581 -0.4955 -0.0005
   16CHTO   O47 6585   6.245   4.520   2.638  0.2047 -0.0880 -0.0843
   16CHTO  H104 6586   6.279   4.433   2.639 -1.2231 -0.7424 -2.7528
   16CHTO   O34 6587   6.409   4.458   2.161 -0.4308 -0.3514  0.0386
   16CHTO   C49 6588   6.422   4.293   2.197  0.2181 -0.3648  1.2204
   16CHTO   H91 6589   6.339   4.275   2.265  0.0258 -0.5291  0.9442
   16CHTO   C47 6590   6.553   4.285   2.272  0.2081  0.8402 -0.7980
   16CHTO   H89 6591   6.552   4.185   2.319 -0.2076  0.5186 -1.5007
   16CHTO   O33 6592   6.557   4.382   2.374  0.2025  0.2156  0.2193
   16CHTO   H70 6593   6.517   4.463   2.347 -1.3584 -0.5667  0.0955
   16CHTO   C45 6594   6.675   4.302   2.167 -0.8881 -0.5537  0.8957
   16CHTO   H87 6595   6.656   4.394   2.110 -3.3102 -0.5533  1.6348
   16CHTO    N8 6596   6.811   4.310   2.228 -0.1057 -0.0591  0.3355
   16CHTO   H75 6597   6.798   4.387   2.303 -0.6071  0.7134 -0.5288
   16CHTO   H76 6598   6.823   4.211   2.269  0.8006 -0.3420 -0.5760
   16CHTO   C43 6599   6.666   4.190   2.061 -0.4289  0.0300 -0.2738
   16CHTO   H85 6600   6.753   4.188   1.995 -0.6134 -2.6503 -0.4699
   16CHTO   O29 6601   6.545   4.206   1.989 -0.0753 -0.3295  0.0994
   16CHTO   C50 6602   6.420   4.212   2.064 -0.1841 -0.0101  0.0202
   16CHTO   H92 6603   6.360   4.269   1.992 -2.1555 -1.8170  0.2081
   16CHTO   C54 6604   6.347   4.078   2.081  0.7725  0.3111  0.2801
   16CHTO   O36 6605   6.323   4.014   1.954 -0.5898  0.2234 -0.4313
   16CHTO   H72 6606   6.229   4.012   1.948 -0.6630  1.0678  0.3532
   16CHTO   O27 6607   6.668   4.057   2.124  0.0904  0.3015  0.0827
   16CHTO   C37 6608   6.702   3.934   2.193 -0.4012 -0.0171  0.0862
   16CHTO   H79 6609   6.761   3.958   2.283 -0.3964  0.4912 -0.0488
   16CHTO   C38 6610   6.579   3.853   2.234 -0.1285  0.0830 -0.0638
   16CHTO   H80 6611   6.517   3.834   2.145 -1.0006 -1.2571  0.8167
   16CHTO   O31 6612   6.508   3.939   2.331 -0.1061 -0.4192 -0.0708
   16CHTO   H68 6613   6.475   4.021   2.299 -0.2786 -0.2264  0.6010
   16CHTO   C39 6614   6.614   3.717   2.307 -0.4137 -0.2811  0.5815
   16CHTO   H81 6615   6.667   3.732   2.401 -1.2641 -0.8705  1.1563
   16CHTO    N7 6616   6.491   3.636   2.331 -0.6400 -0.1747  0.1933
   16CHTO   H73 6617   6.408   3.695   2.368 -0.6542  0.1157 -0.2914
   16CHTO   H74 6618   6.505   3.533   2.358  0.0994 -0.9884 -3.0816
   16CHTO   C40 6619   6.723   3.640   2.216  0.3924 -0.4526  0.9070
   16CHTO   H82 6620   6.675   3.589   2.133  1.6659 -0.5872  0.2424
   16CHTO   O26 6621   6.838   3.722   2.174  0.1047 -0.3812  0.0061
   16CHTO   C41 6622   6.788   3.842   2.105  0.1812 -0.0026  0.5555
   16CHTO   H83 6623   6.726   3.814   2.019 -0.8961  2.3002  0.5316
   16CHTO   C52 6624   6.901   3.917   2.039  0.2335  0.4458 -0.0330
   16CHTO   O35 6625   6.945   3.852   1.941 -0.3287 -0.2012  0.7635
   16CHTO   H71 6626   7.022   3.892   1.905 -2.0282  1.1582 -1.5140
   16CHTO   O28 6627   6.786   3.541   2.301 -0.1986 -0.2611  0.8679
   16CHTO   C42 6628   6.829   3.402   2.265 -0.2656  0.0874 -0.5606
   16CHTO   H84 6629   6.937   3.398   2.279 -0.4187 -0.6451  0.5233
   16CHTO   C44 6630   6.800   3.359   2.115 -0.6621  0.2447 -0.2628
   16CHTO   H86 6631   6.694   3.375   2.095 -0.8027  0.4520  0.6481
   16CHTO   O32 6632   6.861   3.460   2.027 -0.4058 -0.8560 -0.7207
   16CHTO   H69 6633   6.953   3.474   2.041 -0.9094  1.7467  0.2111
   16CHTO   C48 6634   6.845   3.210   2.083 -0.2142 -0.5376 -0.4288
   16CHTO   H90 6635   6.953   3.194   2.081 -0.4927 -2.9531  1.1676
   16CHTO    N9 6636   6.799   3.169   1.943 -0.0955  0.2811  0.4160
   16CHTO   H77 6637   6.824   3.066   1.927  1.5762  0.7942 -0.4027
   16CHTO   H78 6638   6.831   3.227   1.857 -2.5854 -0.9526 -1.4190
   16CHTO   C51 6639   6.789   3.105   2.187 -0.0590  0.9637 -0.9248
   16CHTO   H93 6640   6.683   3.100   2.164 -0.9216  0.1758  2.9214
   16CHTO   O30 6641   6.810   3.146   2.319  0.4027  0.2743 -0.0873
   16CHTO   C46 6642   6.763   3.295   2.362 -0.6547  0.4383  0.7543
   16CHTO   H88 6643   6.654   3.305   2.353 -0.5792 -0.1989 -1.1600
   16CHTO   C53 6644   6.807   3.307   2.512 -0.2883  0.3424  0.0839
   16CHTO   O72 6645   6.766   3.194   2.593 -0.0140  0.0915  0.2089
   16CHTO  H199 6646   6.709   3.135   2.548 -0.4469  0.0692  0.7792
   16CHTO   O22 6647   6.859   2.981   2.181 -0.2827  0.0787  0.2180
   16CHTO   C31 6648   6.783   2.858   2.195  0.1127 -0.3329 -0.8930
   16CHTO   H59 6649   6.678   2.893   2.204  0.3455  0.1175  0.1449
   16CHTO   C29 6650   6.782   2.768   2.071 -0.0124  0.2544  0.1221
   16CHTO   H57 6651   6.884   2.730   2.057 -0.1364  0.5357 -1.6382
   16CHTO   O21 6652   6.748   2.843   1.952  0.2029 -0.3436  0.0287
   16CHTO   H37 6653   6.813   2.907   1.931 -0.8743  0.3516 -1.2053
   16CHTO   C27 6654   6.683   2.644   2.092 -0.6168  0.2760  0.7097
   16CHTO   H55 6655   6.579   2.680   2.097 -0.6052  0.5199 -0.5986
   16CHTO    N5 6656   6.694   2.550   1.973  0.3497 -0.8056  0.4979
   16CHTO   H43 6657   6.634   2.460   1.979  3.5063 -2.9784  0.2237
   16CHTO   H44 6658   6.652   2.603   1.889  1.6195  0.1079  0.4366
   16CHTO   C25 6659   6.711   2.576   2.228  0.4365 -0.4061 -0.7788
   16CHTO   H53 6660   6.808   2.526   2.212 -0.0506 -1.3292 -0.8623
   16CHTO   O17 6661   6.704   2.673   2.335 -0.5589  0.3616  0.0518
   16CHTO   C32 6662   6.806   2.776   2.328 -0.2972  0.2668 -0.0451
   16CHTO   H60 6663   6.907   2.737   2.323 -0.5449 -0.5195  0.7905
   16CHTO   C36 6664   6.808   2.860   2.460 -0.5490  1.0529  0.1735
   16CHTO   O25 6665   6.674   2.910   2.488 -0.3572  0.5252 -0.0878
   16CHTO   H40 6666   6.683   2.964   2.564 -0.1972 -2.1473  1.8654
   16CHTO   O15 6667   6.599   2.472   2.261  0.5730  0.0685 -0.3923
   16CHTO   C19 6668   6.469   2.437   2.319  0.0425 -0.2365 -0.0927
   16CHTO   H47 6669   6.484   2.340   2.369  0.0409  0.0184  0.4116
   16CHTO   C20 6670   6.416   2.537   2.426 -0.0551  0.1377 -0.1798
   16CHTO   H48 6671   6.394   2.633   2.378  0.3284 -0.3761 -1.4074
   16CHTO   O19 6672   6.523   2.541   2.531 -0.2264  0.1747 -0.0522
   16CHTO   H35 6673   6.594   2.590   2.494 -0.6517  0.2069 -0.8547
   16CHTO   C21 6674   6.284   2.486   2.496 -0.3984 -0.4724 -0.7694
   16CHTO   H49 6675   6.310   2.409   2.569 -0.2220 -0.6132 -0.9758
   16CHTO    N4 6676   6.223   2.599   2.571  0.0612  0.2378 -0.5666
   16CHTO   H41 6677   6.123   2.620   2.536 -0.4076 -1.5333 -0.3560
   16CHTO   H42 6678   6.280   2.689   2.551  0.7156  0.3514  1.6113
   16CHTO   C22 6679   6.181   2.421   2.401  0.0728 -0.0033 -0.3352
   16CHTO   H50 6680   6.123   2.497   2.348  0.4170  0.1886 -0.4336
   16CHTO   O14 6681   6.247   2.348   2.301 -0.1391  0.0052  0.2808
   16CHTO   C23 6682   6.353   2.412   2.225  0.0643  0.4533 -0.1976
   16CHTO   H51 6683   6.312   2.504   2.182  1.6990  0.5921 -1.4712
   16CHTO   C34 6684   6.392   2.319   2.117  0.1923  0.5623 -0.0047
   16CHTO   O23 6685   6.437   2.187   2.138  0.2528 -0.1920  0.2068
   16CHTO   H38 6686   6.475   2.153   2.059 -2.1760 -1.0316 -0.6672
   16CHTO   O16 6687   6.100   2.335   2.483  0.0938 -0.7887 -0.2547
   16CHTO   C24 6688   5.951   2.301   2.417 -0.5283 -0.2869 -0.0451
   16CHTO   H52 6689   5.956   2.299   2.308 -2.3012  1.9750 -0.2169
   16CHTO   C26 6690   5.839   2.402   2.449 -0.4385 -0.8077 -0.0513
   16CHTO   H54 6691   5.825   2.396   2.559 -0.4137  0.8275  0.0508
   16CHTO   O20 6692   5.874   2.539   2.407 -0.7861  0.2162 -0.0509
   16CHTO   H36 6693   5.801   2.585   2.370 -0.3156  1.2172  0.2491
   16CHTO   C30 6694   5.703   2.348   2.387  0.7614  0.7182 -0.4716
   16CHTO   H58 6695   5.712   2.346   2.278 -0.0014  0.4151 -0.5306
   16CHTO    N6 6696   5.582   2.437   2.415 -0.1086 -0.0644  0.2148
   16CHTO   H45 6697   5.591   2.488   2.509 -0.9266  0.7026 -0.1207
   16CHTO   H46 6698   5.580   2.512   2.337 -1.7485 -0.3646 -0.0459
   16CHTO   C33 6699   5.674   2.203   2.432  0.2461 -0.2540  0.5718
   16CHTO   H61 6700   5.669   2.205   2.542  0.3583 -0.2729  0.5777
   16CHTO   O18 6701   5.788   2.122   2.397 -0.5662 -0.0121 -0.1444
   16CHTO   C28 6702   5.905   2.162   2.465 -0.0949  0.4451  0.3518
   16CHTO   H56 6703   5.879   2.170   2.571  3.0911  0.9294  1.1637
   16CHTO   C35 6704   6.009   2.050   2.423  0.8618  0.7757 -0.2465
   16CHTO   O24 6705   5.978   1.910   2.457  0.7595 -0.1434  1.2636
   16CHTO   H39 6706   6.006   1.859   2.383  0.5672  1.9204 -0.2915
   16CHTO    O9 6707   5.551   2.150   2.384 -0.1170  0.3101  0.0445
   16CHTO   C13 6708   5.480   2.035   2.474  0.1278 -0.2835  0.3310
   16CHTO   H26 6709   5.491   2.053   2.583  1.7042  1.1106 -0.0438
   16CHTO   C11 6710   5.542   1.898   2.429 -0.2887  0.0416 -0.4915
   16CHTO   H24 6711   5.650   1.909   2.449 -0.0168 -0.0250 -1.8828
   16CHTO    O8 6712   5.527   1.879   2.287 -0.3210 -0.2887 -0.0972
   16CHTO    H3 6713   5.563   1.955   2.244  1.9041 -0.8385  0.7496
   16CHTO    C9 6714   5.487   1.780   2.519  0.5827 -0.6604 -0.1308
   16CHTO   H22 6715   5.500   1.813   2.623 -2.0509 -0.7020  0.2487
   16CHTO    N2 6716   5.574   1.662   2.498  0.0826  0.5496  0.0824
   16CHTO   H10 6717   5.679   1.684   2.515  0.7028 -1.6587 -0.7144
   16CHTO   H11 6718   5.552   1.573   2.555 -1.3504  1.5440  1.1248
   16CHTO    C7 6719   5.329   1.770   2.495 -0.1738 -0.2851 -0.0710
   16CHTO   H20 6720   5.290   1.765   2.598 -0.1631 -0.3037 -0.0677
   16CHTO    O4 6721   5.275   1.890   2.433  0.0178 -0.2169  0.0079
   16CHTO   C14 6722   5.324   2.023   2.454 -0.4316 -0.3086  0.6871
   16CHTO   H27 6723   5.273   2.067   2.542 -1.0584  0.9212 -0.2676
   16CHTO   C18 6724   5.275   2.101   2.330 -0.2704 -0.0979  0.3778
   16CHTO   O13 6725   5.137   2.132   2.345  0.2656  0.3246 -0.3996
   16CHTO    H7 6726   5.125   2.195   2.413 -1.5711  0.5386 -0.8940
   16CHTO    O2 6727   5.266   1.628   2.408 -0.0136 -0.1270  0.5892
   16CHTO    C1 6728   5.129   1.591   2.445  0.4309 -0.3520 -0.3660
   16CHTO   H14 6729   5.109   1.496   2.392 -1.5100 -1.6660  2.6041
   16CHTO    C2 6730   5.021   1.691   2.402  0.6942 -0.8477 -0.0353
   16CHTO   H15 6731   5.040   1.779   2.464  0.8562  0.9934 -2.6153
   16CHTO    O6 6732   5.039   1.729   2.263  0.0767  0.2190 -0.5393
   16CHTO    H1 6733   5.038   1.652   2.210 -1.6027 -1.7379  2.1966
   16CHTO    C3 6734   4.877   1.623   2.428  0.4719 -0.4945 -0.7353
   16CHTO   H16 6735   4.877   1.534   2.362 -0.4443 -1.9023  1.0995
   16CHTO    N1 6736   4.754   1.707   2.406  0.1312  0.1637 -0.1022
   16CHTO    H8 6737   4.746   1.782   2.484 -1.8831  0.2496 -0.3691
   16CHTO    H9 6738   4.762   1.751   2.308 -0.9222  0.3493 -0.1121
   16CHTO    C4 6739   4.882   1.572   2.579  0.4728  0.9445 -0.1532
   16CHTO   H17 6740   4.870   1.654   2.650  1.8830  0.3564  0.7843
   16CHTO    O1 6741   4.988   1.484   2.609 -0.0682 -0.0112 -0.0468
   16CHTO    C5 6742   5.119   1.539   2.589 -0.2578  0.3721  0.0929
   16CHTO   H18 6743   5.123   1.622   2.659  0.0674  0.7661 -0.3895
   16CHTO   C16 6744   5.232   1.441   2.619 -0.2730 -0.6807 -0.3423
   16CHTO   O11 6745   5.222   1.382   2.749 -0.0824  0.1648  0.2181
   16CHTO    H5 6746   5.132   1.372   2.774  0.2571  2.8814  2.7628
   16CHTO    O3 6747   4.773   1.476   2.597 -0.0514 -0.5528 -0.2141
   16CHTO    C6 6748   4.736   1.457   2.741 -0.0594  0.2578 -0.6200
   16CHTO   H19 6749   4.799   1.502   2.817 -0.3168  1.8476 -1.3255
   16CHTO    C8 6750   4.593   1.513   2.754  0.0952 -0.2508 -0.8171
   16CHTO   H21 6751   4.530   1.475   2.674 -0.7972 -0.7983  0.1200
   16CHTO    O7 6752   4.603   1.657   2.731 -0.0911 -0.3933 -0.0438
   16CHTO    H2 6753   4.518   1.695   2.721  0.8826  1.7159 -0.7921
   16CHTO   C12 6754   4.524   1.486   2.900 -0.3519  0.1666  0.3624
   16CHTO   H25 6755   4.591   1.542   2.968 -1.4142  1.8943  0.0355
   16CHTO    N3 6756   4.389   1.550   2.917 -0.0246  0.0258 -0.1405
   16CHTO   H12 6757   4.361   1.546   3.021 -3.4009 -1.4726 -1.0465
   16CHTO   H13 6758   4.377   1.643   2.864  1.9517  0.4939  0.1812
   16CHTO   C15 6759   4.536   1.332   2.929  0.5649  0.5641 -0.3804
   16CHTO   H28 6760   4.465   1.272   2.872 -1.3722 -0.0505  2.5613
   16CHTO   O10 6761   4.518   1.318   3.084  0.0930  0.0903 -0.4412
   16CHTO    H4 6762   4.516   1.396   3.135  1.4295  0.9724 -1.7050
   16CHTO    O5 6763   4.669   1.284   2.912  0.9860  0.3114  0.4075
   16CHTO   C10 6764   4.716   1.307   2.781  0.2540 -0.2262 -0.9496
   16CHTO   H23 6765   4.646   1.269   2.707 -0.4285 -0.1731 -0.3340
   16CHTO   C17 6766   4.842   1.230   2.766 -0.7897 -0.5995 -0.0760
   16CHTO   O12 6767   4.948   1.285   2.846 -0.3512  0.2492  0.3883
   16CHTO    H6 6768   5.030   1.251   2.814 -1.7335 -1.3455 -1.5914
   17CHTO  H203 6769   4.184   5.611   0.700 -0.9380  2.0879 -1.0453
   17CHTO   O82 6770   4.100   5.619   0.740 -0.5899  0.1667  0.1662
   17CHTO  C123 6771   4.112   5.656   0.873 -0.3334  0.2276 -0.2359
   17CHTO  H227 6772   4.016   5.646   0.924  0.0909 -0.9255  0.3516
   17CHTO   O77 6773   4.201   5.557   0.918 -0.3713 -0.2846 -0.3280
   17CHTO  C118 6774   4.232   5.563   1.061  0.2357 -0.2499  0.4326
   17CHTO  H222 6775   4.134   5.562   1.111 -0.0305  2.7852  0.0713
   17CHTO  C125 6776   4.318   5.441   1.112  0.4750 -0.0331 -0.4435
   17CHTO   O84 6777   4.448   5.437   1.044  0.2853  0.1085  0.0570
   17CHTO  H205 6778   4.452   5.494   0.970  1.8813 -1.4973 -1.1210
   17CHTO  C114 6779   4.304   5.698   1.091 -0.1423 -0.1841  0.5795
   17CHTO  H218 6780   4.392   5.702   1.027 -1.1773 -0.3374 -0.8649
   17CHTO  C116 6781   4.210   5.812   1.044  0.1677  0.3120 -0.3392
   17CHTO  H220 6782   4.120   5.804   1.109 -0.2536  0.1808 -0.9371
   17CHTO   O79 6783   4.271   5.936   1.079  0.2131 -0.1737 -0.1398
   17CHTO  H201 6784   4.216   5.990   1.132 -0.2910  1.5009 -2.2985
   17CHTO  C120 6785   4.179   5.793   0.890  0.1848  0.0085  1.0162
   17CHTO  H224 6786   4.278   5.790   0.840  0.5033 -2.4628  1.7198
   17CHTO   N21 6787   4.099   5.908   0.839 -0.7441  0.9516  0.2648
   17CHTO  H211 6788   4.170   5.985   0.813 -1.1477  1.4223  0.5347
   17CHTO  H212 6789   4.041   5.936   0.926  0.3539 -1.0017  1.6487
   17CHTO   O75 6790   4.338   5.697   1.235  0.2562 -0.0709 -0.6882
   17CHTO  C112 6791   4.433   5.818   1.283 -0.2365 -0.2915  0.0976
   17CHTO  H216 6792   4.369   5.903   1.311 -0.3286 -0.0875 -0.6956
   17CHTO   O73 6793   4.522   5.849   1.177  0.2008  0.4779  0.3989
   17CHTO  C113 6794   4.603   5.963   1.200  0.4009  0.2500 -0.5120
   17CHTO  H217 6795   4.530   6.047   1.193  0.2197  0.1292 -0.0656
   17CHTO  C124 6796   4.693   5.979   1.074  0.8064 -0.2106  0.3426
   17CHTO   O83 6797   4.616   6.025   0.959 -0.2996 -0.1354  0.1452
   17CHTO  H204 6798   4.546   5.967   0.937 -0.2725 -0.3752  0.6790
   17CHTO  C109 6799   4.690   5.960   1.333 -0.7056  0.2684  0.3121
   17CHTO  H213 6800   4.779   5.899   1.312  0.1469  1.3050  0.9110
   17CHTO  C110 6801   4.609   5.902   1.452 -0.4405 -0.3282  0.3688
   17CHTO  H214 6802   4.563   5.988   1.501  0.6572 -0.5697  1.8586
   17CHTO   O78 6803   4.711   5.850   1.536  0.2654 -0.5281  0.0709
   17CHTO  H200 6804   4.699   5.878   1.624  1.8648 -1.2489  0.5352
   17CHTO  C111 6805   4.511   5.787   1.418  0.2904 -0.0120 -0.3737
   17CHTO  H215 6806   4.571   5.695   1.406 -1.1474 -0.9715 -0.3118
   17CHTO   N19 6807   4.422   5.761   1.535 -0.0979  0.2409  0.0620
   17CHTO  H207 6808   4.463   5.729   1.630  1.1403 -0.8213 -0.8119
   17CHTO  H208 6809   4.354   5.843   1.549 -1.3201 -0.9419  1.1772
   17CHTO   O74 6810   4.735   6.098   1.362  1.0252  0.1850  0.3252
   17CHTO  C115 6811   4.895   6.134   1.363 -0.2525  0.2338  0.3346
   17CHTO  H219 6812   4.926   6.166   1.462 -1.0972 -0.3868  0.8090
   17CHTO   O76 6813   4.982   6.006   1.336 -0.4970 -0.0637 -0.0514
   17CHTO  C122 6814   5.122   6.027   1.298  0.8661  0.0482 -0.1872
   17CHTO  H226 6815   5.164   5.934   1.258 -2.4944 -2.0820  1.0172
   17CHTO  C126 6816   5.198   6.066   1.443  1.0251  0.7289  0.0505
   17CHTO   O85 6817   5.331   6.110   1.422 -0.5894  0.2145  0.4906
   17CHTO  H206 6818   5.381   6.066   1.357  0.0461  1.4436  0.1237
   17CHTO  C121 6819   5.148   6.139   1.187 -0.1880  0.0775 -0.4467
   17CHTO  H225 6820   5.254   6.173   1.192 -0.1381 -0.2351  0.8311
   17CHTO   O81 6821   5.125   6.091   1.051  0.2301 -0.1148  0.5391
   17CHTO  H202 6822   5.186   6.022   1.030  0.1179  0.2085 -0.8253
   17CHTO  C119 6823   5.073   6.272   1.216  0.5132  1.0702 -0.0875
   17CHTO  H223 6824   5.130   6.316   1.297  1.7692 -0.1941 -0.2766
   17CHTO  C117 6825   4.920   6.259   1.259  0.4676  0.2650 -0.1139
   17CHTO  H221 6826   4.853   6.241   1.174 -0.1438  0.3436  0.3538
   17CHTO   N20 6827   4.872   6.376   1.335 -0.0135 -0.1842 -0.1571
   17CHTO  H209 6828   4.840   6.368   1.438 -2.7544 -0.1755 -0.9775
   17CHTO  H210 6829   4.931   6.464   1.314 -2.2195  2.2071  3.2244
   17CHTO   O80 6830   5.092   6.377   1.110  0.4801 -0.2312  0.2087
   17CHTO  C103 6831   5.220   6.477   1.116  0.9192  0.0054 -0.2778
   17CHTO  H190 6832   5.238   6.488   1.223  0.2593  1.5345 -0.3072
   17CHTO  C101 6833   5.353   6.445   1.035  0.7316  0.3491  1.0304
   17CHTO  H188 6834   5.327   6.411   0.935  2.1112  0.8096  0.4962
   17CHTO   O68 6835   5.426   6.324   1.105  0.8432 -0.3816  0.9863
   17CHTO  H168 6836   5.362   6.256   1.118  2.7206 -2.8139 -1.9273
   17CHTO   C99 6837   5.449   6.572   1.016 -0.8241 -0.3483 -0.3239
   17CHTO  H186 6838   5.492   6.602   1.114 -1.0461  1.7749 -0.8514
   17CHTO   N17 6839   5.574   6.543   0.938 -0.2350  0.1176  0.5520
   17CHTO  H174 6840   5.659   6.605   0.963  0.2401 -0.5636  0.6400
   17CHTO  H175 6841   5.606   6.441   0.952  2.2412  0.7372 -0.3351
   17CHTO   C97 6842   5.365   6.694   0.961  0.2714 -0.1618 -0.7816
   17CHTO  H184 6843   5.323   6.661   0.865  0.4174 -1.7300 -0.3213
   17CHTO   O64 6844   5.260   6.720   1.060  0.2846  0.4897 -0.6846
   17CHTO  C104 6845   5.157   6.615   1.065 -0.0207  0.1270  0.0450
   17CHTO  H191 6846   5.114   6.603   0.965  1.1822  3.5832 -0.9301
   17CHTO  C108 6847   5.046   6.659   1.158 -0.6957 -0.0943 -0.2672
   17CHTO   O71 6848   4.967   6.772   1.126 -0.1821  0.0747  0.4600
   17CHTO  H171 6849   4.913   6.756   1.051 -1.7937 -3.1253  2.2144
   17CHTO   O62 6850   5.423   6.826   0.954  0.4501 -0.0971  0.0197
   17CHTO   C91 6851   5.383   6.912   0.847 -1.0607 -0.4846  0.7745
   17CHTO  H178 6852   5.362   6.842   0.767  0.7260  1.1436 -1.1732
   17CHTO   C92 6853   5.518   6.984   0.813  0.0350 -0.3469 -0.4164
   17CHTO  H179 6854   5.601   6.911   0.820  0.0780 -0.3543 -0.9385
   17CHTO   O66 6855   5.505   7.015   0.675  0.0689  0.6510  0.4822
   17CHTO  H166 6856   5.577   7.070   0.652 -1.1282  1.6478 -0.9921
   17CHTO   C93 6857   5.545   7.117   0.891  0.0506  0.3962 -0.1815
   17CHTO  H180 6858   5.608   7.176   0.823 -2.3160  1.0861 -1.8085
   17CHTO   N16 6859   5.610   7.096   1.028  0.4335  0.9574 -0.1671
   17CHTO  H172 6860   5.713   7.067   1.012 -0.1308 -0.3052 -1.6138
   17CHTO  H173 6861   5.602   7.182   1.092 -1.0734 -1.1233  2.5854
   17CHTO   C94 6862   5.410   7.195   0.906  0.5443 -0.5040 -0.1150
   17CHTO  H181 6863   5.365   7.190   1.006 -1.3922 -0.9678 -0.9827
   17CHTO   O61 6864   5.311   7.137   0.818  0.0525 -0.5792 -0.3744
   17CHTO   C95 6865   5.266   7.014   0.865 -0.7141 -0.0577 -0.5792
   17CHTO  H182 6866   5.237   7.019   0.970 -0.6771 -0.6737 -0.5381
   17CHTO  C106 6867   5.134   6.985   0.787 -0.2788  0.4008 -0.0948
   17CHTO   O69 6868   5.112   6.843   0.788  0.4931  0.6313  0.0864
   17CHTO  H169 6869   5.073   6.824   0.872  1.7295  2.3178  1.0652
   17CHTO   O63 6870   5.416   7.337   0.869 -0.4084 -0.3689  0.3783
   17CHTO   C96 6871   5.322   7.441   0.966 -0.3701  0.0368 -0.8659
   17CHTO  H183 6872   5.317   7.385   1.060 -0.3976 -0.1650 -0.9876
   17CHTO   C98 6873   5.181   7.474   0.918  0.9001  0.4275  0.2849
   17CHTO  H185 6874   5.203   7.512   0.817  0.5726  0.6891  0.3089
   17CHTO   O67 6875   5.104   7.347   0.897 -0.1300 -0.2961 -0.0045
   17CHTO  H167 6876   5.109   7.311   0.811 -0.5659  1.9737 -1.0372
   17CHTO  C102 6877   5.093   7.564   1.015  0.4018 -0.1219  0.5641
   17CHTO  H189 6878   5.055   7.494   1.091 -0.6859  3.0722  3.1060
   17CHTO   N18 6879   4.971   7.624   0.954  0.1650  0.7206 -0.2706
   17CHTO  H176 6880   4.952   7.564   0.866  0.9950  2.6058 -1.7759
   17CHTO  H177 6881   4.891   7.615   1.026  0.7864  0.7312  0.4321
   17CHTO  C105 6882   5.191   7.678   1.065  0.9681  0.5631  1.0534
   17CHTO  H192 6883   5.150   7.776   1.039  0.8964  0.9232  2.4869
   17CHTO   O65 6884   5.324   7.684   1.009  0.2911  0.3760  0.6684
   17CHTO  C100 6885   5.401   7.567   0.990 -0.0249 -0.9637 -0.0427
   17CHTO  H187 6886   5.448   7.589   0.893  0.7770 -2.5078 -0.0343
   17CHTO  C107 6887   5.517   7.564   1.097  0.1583  0.0091  0.5458
   17CHTO   O70 6888   5.457   7.560   1.226 -0.3382  0.4625 -0.6132
   17CHTO  H170 6889   5.475   7.475   1.262 -1.1537 -0.3543 -2.0821
   17CHTO   O57 6890   5.186   7.657   1.229 -0.4914 -0.1151  0.0120
   17CHTO   C85 6891   5.172   7.777   1.311 -0.2841 -0.1637 -0.0390
   17CHTO  H157 6892   5.140   7.860   1.245  0.6067 -0.4035 -0.7738
   17CHTO   C83 6893   5.310   7.825   1.382  0.4076  0.5671 -0.1135
   17CHTO  H155 6894   5.384   7.849   1.305  1.1048  0.8545  0.6329
   17CHTO   O56 6895   5.365   7.720   1.461  0.2866  0.3926 -0.9342
   17CHTO  H135 6896   5.302   7.690   1.523  1.9754 -1.9690 -0.2969
   17CHTO   C81 6897   5.284   7.952   1.465  0.0398  0.1146  0.9114
   17CHTO  H153 6898   5.242   8.024   1.395 -0.1217 -1.6677 -0.8886
   17CHTO   N14 6899   5.410   8.008   1.524 -0.6379  0.2903  0.1894
   17CHTO  H141 6900   5.386   8.055   1.617  1.8452  1.4236  0.2832
   17CHTO  H142 6901   5.451   8.083   1.460 -0.0370  1.2559  1.6961
   17CHTO   C79 6902   5.169   7.922   1.572 -0.1116 -0.3470  0.2399
   17CHTO  H151 6903   5.146   8.022   1.608  2.1873  1.0181 -1.8760
   17CHTO   O52 6904   5.047   7.865   1.513  0.2379 -0.3655  0.3106
   17CHTO   C86 6905   5.064   7.753   1.423 -0.5193 -0.0826  0.1912
   17CHTO  H158 6906   5.082   7.666   1.489 -1.7643 -0.2155  0.3648
   17CHTO   C90 6907   4.934   7.722   1.350 -0.1713 -0.1719  0.4659
   17CHTO   O60 6908   4.878   7.834   1.286 -0.2163 -0.3475 -0.1311
   17CHTO  H138 6909   4.812   7.881   1.333 -0.7094  0.4380 -1.5581
   17CHTO   O50 6910   5.212   7.836   1.680  0.5906 -0.0338 -0.2946
   17CHTO   C73 6911   5.201   7.838   1.824 -0.3783 -0.1437 -0.2341
   17CHTO  H145 6912   5.182   7.939   1.865  0.8120  0.0983 -0.2580
   17CHTO   C74 6913   5.319   7.774   1.904 -0.4570 -0.2139  0.2376
   17CHTO  H146 6914   5.410   7.831   1.881 -0.6441 -0.0452 -0.0853
   17CHTO   O54 6915   5.294   7.798   2.043  0.2729 -0.2783  0.2706
   17CHTO  H133 6916   5.373   7.833   2.078  1.9526 -2.1249 -1.5562
   17CHTO   C75 6917   5.332   7.626   1.856 -0.4984  0.3577  0.5611
   17CHTO  H147 6918   5.348   7.618   1.747  1.6633  1.8519  0.7257
   17CHTO   N13 6919   5.450   7.562   1.919  0.2024 -0.2563  0.3734
   17CHTO  H139 6920   5.533   7.625   1.891 -0.2186  1.0551  2.0123
   17CHTO  H140 6921   5.430   7.544   2.024 -0.2619 -0.3870  0.2628
   17CHTO   C76 6922   5.196   7.549   1.894 -0.2588  0.1268 -0.7824
   17CHTO  H148 6923   5.177   7.560   2.001 -1.8128  3.1254 -1.3355
   17CHTO   O49 6924   5.084   7.611   1.825 -0.1976 -0.4285  0.0226
   17CHTO   C77 6925   5.079   7.752   1.866  0.1395 -0.2508 -0.1213
   17CHTO  H149 6926   5.063   7.768   1.972 -0.8095 -0.9505 -0.1552
   17CHTO   C88 6927   4.948   7.810   1.812  0.0130 -0.3592 -0.2276
   17CHTO   O58 6928   4.841   7.756   1.862  0.0588 -0.3819  0.0509
   17CHTO  H136 6929   4.770   7.814   1.879 -0.0355 -0.1321 -1.1667
   17CHTO   O51 6930   5.208   7.383   1.849 -0.6527 -0.0013 -0.2672
   17CHTO   C78 6931   5.083   7.300   1.924 -0.1309 -0.1018  0.6299
   17CHTO  H150 6932   5.016   7.366   1.982 -1.0944  2.0263 -2.7286
   17CHTO   C80 6933   5.124   7.187   2.018  0.0033  0.5432  0.4583
   17CHTO  H152 6934   5.206   7.129   1.971 -1.2480 -0.6066 -0.3623
   17CHTO   O55 6935   5.187   7.247   2.133 -0.1398  0.3322 -0.1072
   17CHTO  H134 6936   5.217   7.181   2.193 -1.7537 -1.2614 -1.0037
   17CHTO   C84 6937   5.001   7.093   2.073 -0.4572  1.0969  0.0367
   17CHTO  H156 6938   4.944   7.151   2.145 -0.7131  0.6606  0.1810
   17CHTO   N15 6939   5.059   6.974   2.148  0.3710 -0.6430 -0.0617
   17CHTO  H143 6940   5.164   6.969   2.130  0.1361 -1.1921 -1.3722
   17CHTO  H144 6941   5.011   6.878   2.148 -1.1547  0.0920 -1.0364
   17CHTO   C87 6942   4.926   7.051   1.952 -0.3629 -0.1132 -0.4177
   17CHTO  H159 6943   4.991   6.982   1.897  1.9277  0.5094  1.4243
   17CHTO   O53 6944   4.883   7.174   1.863  0.9118  0.0570  0.1545
   17CHTO   C82 6945   4.993   7.248   1.810 -0.0108 -0.4289 -0.0283
   17CHTO  H154 6946   5.051   7.185   1.742  0.9287  1.2646 -0.8455
   17CHTO   C89 6947   4.926   7.362   1.727 -0.3456  0.0952  0.1692
   17CHTO   O59 6948   4.846   7.458   1.801  0.8162  0.1248  0.1138
   17CHTO  H137 6949   4.906   7.485   1.868  0.4135 -0.1249  0.5814
   17CHTO   O45 6950   4.788   6.963   1.983  0.2215  0.1400 -0.2881
   17CHTO   C67 6951   4.664   7.026   2.016  0.6488  0.0951  0.1813
   17CHTO  H124 6952   4.682   7.121   2.066  1.7677  0.1430 -0.3082
   17CHTO   C65 6953   4.576   7.061   1.886  0.0346 -0.0576 -0.0261
   17CHTO  H122 6954   4.644   7.070   1.802 -0.9571 -1.0503 -0.9403
   17CHTO   O44 6955   4.501   7.183   1.907 -0.2415  0.3702  0.4934
   17CHTO  H102 6956   4.424   7.161   1.956  0.0454 -1.6207  0.0654
   17CHTO   C63 6957   4.473   6.941   1.856 -0.6664 -0.3385  0.3008
   17CHTO  H120 6958   4.530   6.849   1.850 -1.9601 -1.0129 -2.0719
   17CHTO   N11 6959   4.408   6.934   1.724  1.0065  0.9261  0.3285
   17CHTO  H108 6960   4.306   6.905   1.739  0.4015  1.5975 -2.2349
   17CHTO  H109 6961   4.399   7.030   1.677  0.3688  0.5321 -0.3863
   17CHTO   C61 6962   4.377   6.931   1.979  0.7626 -0.2977 -0.8373
   17CHTO  H118 6963   4.347   6.825   1.977 -0.7790  0.1218 -0.5652
   17CHTO   O40 6964   4.439   6.959   2.112  0.1710  0.0977  0.4721
   17CHTO   C68 6965   4.581   6.928   2.124 -0.6791  0.1442 -0.0538
   17CHTO  H125 6966   4.595   6.820   2.102 -1.8467 -0.1341  0.5112
   17CHTO   C72 6967   4.619   6.961   2.269  0.5698 -0.1878  0.2241
   17CHTO   O48 6968   4.734   6.881   2.304 -0.4885 -1.0273  0.2313
   17CHTO  H105 6969   4.728   6.790   2.282 -1.3559 -1.1219  0.8427
   17CHTO   O38 6970   4.262   7.018   1.968 -0.2450 -0.2215  0.3093
   17CHTO   C55 6971   4.140   6.977   2.037  0.6315  0.1891 -0.0378
   17CHTO  H112 6972   4.156   6.897   2.110 -1.0519 -2.3052 -2.3254
   17CHTO   C56 6973   4.033   6.938   1.925 -0.2877  0.0746 -0.4388
   17CHTO  H113 6974   4.039   7.019   1.850  2.3821 -1.0881 -1.5259
   17CHTO   O42 6975   4.075   6.832   1.839  0.5215  0.4181 -0.2995
   17CHTO  H100 6976   4.005   6.798   1.786  1.6340  0.6347 -1.9379
   17CHTO   C57 6977   3.894   6.918   1.988  0.1301 -0.0279  0.1748
   17CHTO  H114 6978   3.895   6.830   2.051 -0.8754 -0.8695 -0.9720
   17CHTO   N10 6979   3.786   6.898   1.890  0.0465 -0.0997 -0.6420
   17CHTO  H106 6980   3.727   6.985   1.863 -1.4022 -1.3276 -1.4903
   17CHTO  H107 6981   3.808   6.843   1.799 -0.4661  0.7148 -1.2668
   17CHTO   C58 6982   3.855   7.047   2.079  0.6395  0.0176  0.6959
   17CHTO  H115 6983   3.854   7.137   2.013 -1.3369  0.5993  1.4825
   17CHTO   O37 6984   3.957   7.066   2.172  0.1046  0.1535  0.1861
   17CHTO   C59 6985   4.082   7.098   2.116  0.5512  0.4537 -0.2635
   17CHTO  H116 6986   4.080   7.178   2.042 -0.4060 -1.3823 -2.2979
   17CHTO   C70 6987   4.169   7.149   2.238  0.0688  0.1470 -0.1047
   17CHTO   O46 6988   4.289   7.208   2.185  0.2431 -0.0190 -0.4413
   17CHTO  H103 6989   4.269   7.259   2.109  0.6501 -0.8359 -1.1034
   17CHTO   O39 6990   3.710   7.023   2.166  0.1774  0.0150 -0.1248
   17CHTO   C60 6991   3.653   7.141   2.220  0.1034  0.0886  0.1814
   17CHTO  H117 6992   3.731   7.211   2.246  0.5911 -0.7647  1.0390
   17CHTO   C62 6993   3.568   7.207   2.106  0.4580  0.4650  0.0049
   17CHTO  H119 6994   3.643   7.224   2.026  0.2676  2.6849  0.2550
   17CHTO   O43 6995   3.461   7.119   2.070  0.1466  0.0069  0.4124
   17CHTO  H101 6996   3.488   7.048   2.015 -1.9031  0.1028 -0.7268
   17CHTO   C66 6997   3.516   7.354   2.158  0.3554 -0.4637  0.0978
   17CHTO  H123 6998   3.601   7.414   2.188  0.3552 -0.1974 -0.4362
   17CHTO   N12 6999   3.436   7.429   2.058  0.1626  0.4175  0.4059
   17CHTO  H110 7000   3.337   7.390   2.039  1.1177 -0.8083 -2.2652
   17CHTO  H111 7001   3.484   7.421   1.962  1.2816 -2.9683  1.1914
   17CHTO   C69 7002   3.439   7.325   2.294  0.0076  0.6076 -0.3650
   17CHTO  H126 7003   3.353   7.261   2.265 -0.9649  0.7130  2.1802
   17CHTO   O41 7004   3.528   7.254   2.398 -0.0005 -0.1827  1.1078
   17CHTO   C64 7005   3.579   7.113   2.352 -0.0544 -0.8203  0.2178
   17CHTO  H121 7006   3.498   7.039   2.335  0.1536 -0.8173 -0.8604
   17CHTO   C71 7007   3.663   7.060   2.456  0.4587 -0.8549 -0.1346
   17CHTO   O47 7008   3.595   7.066   2.585  0.1529 -0.1550  0.4217
   17CHTO  H104 7009   3.660   7.087   2.649 -0.2616 -0.7372  1.0392
   17CHTO   O34 7010   3.393   7.449   2.366 -0.0559 -0.3064 -0.5613
   17CHTO   C49 7011   3.290   7.569   2.422  0.1372 -0.2403 -0.1891
   17CHTO   H91 7012   3.355   7.639   2.474  2.0134 -1.5004 -0.7686
   17CHTO   C47 7013   3.186   7.505   2.523 -0.7315 -0.3947  0.0826
   17CHTO   H89 7014   3.128   7.591   2.562 -1.3547  0.0868 -1.8664
   17CHTO   O33 7015   3.250   7.434   2.629 -0.4576  0.1301 -0.2375
   17CHTO   H70 7016   3.316   7.376   2.596 -1.9997 -0.8690 -1.6758
   17CHTO   C45 7017   3.084   7.401   2.451 -0.3255 -0.5020 -0.1182
   17CHTO   H87 7018   3.135   7.303   2.458  1.6995  0.3933 -1.8114
   17CHTO    N8 7019   2.955   7.392   2.525  0.2339 -0.3006  0.3949
   17CHTO   H75 7020   2.889   7.318   2.483 -1.2032  2.3588 -2.2616
   17CHTO   H76 7021   2.981   7.360   2.624 -0.5369 -0.4351  0.5596
   17CHTO   C43 7022   3.077   7.425   2.297 -0.0090 -0.0579 -1.2261
   17CHTO   H85 7023   3.172   7.380   2.266  0.2516 -0.5624  0.2703
   17CHTO   O29 7024   3.079   7.568   2.269  0.6106  0.2801  0.1694
   17CHTO   C50 7025   3.206   7.635   2.303 -0.1925  0.1488  0.0833
   17CHTO   H92 7026   3.272   7.640   2.216 -1.7736  1.8096 -1.0504
   17CHTO   C54 7027   3.191   7.783   2.337  0.4081 -0.2256 -0.3790
   17CHTO   O36 7028   3.323   7.840   2.364 -0.0792  0.5000  0.1484
   17CHTO   H72 7029   3.313   7.918   2.416  0.9092 -0.8928  2.4907
   17CHTO   O27 7030   2.977   7.355   2.224  0.0502 -0.3793 -0.0573
   17CHTO   C37 7031   2.962   7.246   2.127  0.1139  0.1766 -0.5611
   17CHTO   H79 7032   2.863   7.249   2.078  0.7114  1.3498 -1.7486
   17CHTO   C38 7033   3.075   7.268   2.026 -0.7310 -0.2512  0.8324
   17CHTO   H80 7034   3.167   7.264   2.086 -0.9031  0.6320  1.1618
   17CHTO   O31 7035   3.041   7.385   1.953  0.5062 -0.6314  0.1527
   17CHTO   H68 7036   3.099   7.456   1.974  2.4090 -0.8395 -3.9268
   17CHTO   C39 7037   3.091   7.146   1.932 -0.2200  0.6558  0.5638
   17CHTO   H81 7038   3.001   7.139   1.871  0.5125  0.3265 -0.4882
   17CHTO    N7 7039   3.211   7.151   1.838 -0.0541  0.4344  0.4701
   17CHTO   H73 7040   3.301   7.139   1.897  0.0402  0.0318  0.2426
   17CHTO   H74 7041   3.213   7.225   1.760  1.3305  2.1154  2.0696
   17CHTO   C40 7042   3.093   7.010   2.016 -0.9137 -0.0231  0.0046
   17CHTO   H82 7043   3.190   6.986   2.059 -1.5710 -2.9819 -0.0780
   17CHTO   O26 7044   2.997   7.003   2.113  0.4398  0.0400 -0.5030
   17CHTO   C41 7045   2.983   7.114   2.203  0.7134  0.7980 -0.3401
   17CHTO   H83 7046   3.065   7.127   2.275 -1.9417 -0.8225  3.1431
   17CHTO   C52 7047   2.863   7.092   2.297  0.6352 -0.4454  0.1430
   17CHTO   O35 7048   2.869   6.972   2.370  0.0438  0.6652  0.0126
   17CHTO   H71 7049   2.832   6.984   2.456 -0.0818  1.3112 -0.1287
   17CHTO   O28 7050   3.066   6.898   1.928  0.2210 -0.3646  0.0230
   17CHTO   C42 7051   3.120   6.763   1.946  0.5570  0.1602  0.3719
   17CHTO   H84 7052   3.081   6.695   1.870  1.0628 -2.1196  2.0773
   17CHTO   C44 7053   3.081   6.695   2.089 -0.1264  0.2089 -0.8419
   17CHTO   H86 7054   3.134   6.744   2.170  1.7712 -2.1318 -0.6031
   17CHTO   O32 7055   2.938   6.710   2.106  0.0052 -0.7862 -0.3352
   17CHTO   H69 7056   2.912   6.800   2.112  1.4163 -0.4726  1.9146
   17CHTO   C48 7057   3.135   6.547   2.090  0.1540 -0.9745  0.3039
   17CHTO   H90 7058   3.077   6.488   2.020 -1.4787  1.1104 -0.1720
   17CHTO    N9 7059   3.095   6.477   2.223  0.0969 -0.4432 -0.8683
   17CHTO   H77 7060   3.016   6.522   2.280  0.1609  0.2600 -1.3356
   17CHTO   H78 7061   3.184   6.463   2.283 -1.1904  0.6590  1.3364
   17CHTO   C51 7062   3.291   6.536   2.062 -0.8408  0.5730  0.3161
   17CHTO   H93 7063   3.341   6.587   2.144  0.0173 -1.1497  0.9030
   17CHTO   O30 7064   3.303   6.605   1.934 -0.2305 -0.2013 -0.1089
   17CHTO   C46 7065   3.277   6.749   1.937 -0.2154 -0.4759  0.1981
   17CHTO   H88 7066   3.318   6.801   2.023 -0.9990  1.0344 -0.3349
   17CHTO   C53 7067   3.329   6.805   1.806  0.1547  0.2304 -0.2896
   17CHTO   O72 7068   3.461   6.761   1.781 -0.5978  0.3645 -0.3611
   17CHTO  H199 7069   3.460   6.668   1.798  0.7822 -0.0081 -2.1813
   17CHTO   O22 7070   3.340   6.400   2.049  0.6800 -0.0523 -0.0561
   17CHTO   C31 7071   3.426   6.338   1.951 -0.7536  0.0829 -0.1031
   17CHTO   H59 7072   3.470   6.251   2.004 -1.0427  0.4983  0.8387
   17CHTO   C29 7073   3.343   6.290   1.823  0.2935  0.0962 -0.7794
   17CHTO   H57 7074   3.281   6.378   1.797 -2.0183 -1.2013  0.1972
   17CHTO   O21 7075   3.248   6.193   1.866 -0.5386  0.0861 -0.0478
   17CHTO   H37 7076   3.293   6.111   1.863  1.2955  1.0567  0.6090
   17CHTO   C27 7077   3.437   6.250   1.703 -0.3155 -0.6593  0.4095
   17CHTO   H55 7078   3.499   6.162   1.729  1.1938  0.3777  0.3346
   17CHTO    N5 7079   3.368   6.211   1.579 -0.1913 -0.0153  0.0859
   17CHTO   H43 7080   3.281   6.152   1.603 -0.0462 -0.6905 -1.0227
   17CHTO   H44 7081   3.350   6.302   1.524 -2.8832  1.4260  3.1747
   17CHTO   C25 7082   3.544   6.360   1.686 -0.0815  0.3831  0.6646
   17CHTO   H53 7083   3.487   6.452   1.668 -1.3896 -0.0554  2.3740
   17CHTO   O17 7084   3.623   6.356   1.808  0.4506  0.4272 -0.2030
   17CHTO   C32 7085   3.557   6.421   1.921  0.6070 -0.4468 -0.0913
   17CHTO   H60 7086   3.521   6.522   1.900  1.1603  0.6392  3.7398
   17CHTO   C36 7087   3.652   6.446   2.035 -0.2539 -0.0623 -0.1049
   17CHTO   O25 7088   3.732   6.563   2.034 -0.1969 -0.1349  0.4479
   17CHTO   H40 7089   3.790   6.564   2.108 -0.9561  0.3080  1.0407
   17CHTO   O15 7090   3.639   6.334   1.553 -1.1682 -0.0125  0.1426
   17CHTO   C19 7091   3.701   6.446   1.489  0.7313  0.1484  0.1313
   17CHTO   H47 7092   3.752   6.397   1.405 -2.9058 -1.1628 -1.4143
   17CHTO   C20 7093   3.594   6.543   1.425 -0.5794  0.1863 -0.5098
   17CHTO   H48 7094   3.523   6.585   1.498  0.7055 -0.4086  1.0928
   17CHTO   O19 7095   3.522   6.465   1.339  0.2054  0.6364  0.4426
   17CHTO   H35 7096   3.450   6.514   1.302 -0.6456 -0.9253 -0.0395
   17CHTO   C21 7097   3.664   6.665   1.352  0.7867 -0.2811 -1.1958
   17CHTO   H49 7098   3.723   6.627   1.269  3.0358  0.4737  0.0254
   17CHTO    N4 7099   3.568   6.765   1.289  0.0418  1.0482  0.0266
   17CHTO   H41 7100   3.502   6.795   1.369  0.7577 -0.9707  1.4033
   17CHTO   H42 7101   3.514   6.717   1.209  0.6258 -0.0330  0.2746
   17CHTO   C22 7102   3.757   6.733   1.457  0.6038  0.1270  0.5377
   17CHTO   H50 7103   3.695   6.765   1.540  0.4136 -1.7978  1.1535
   17CHTO   O14 7104   3.856   6.641   1.500  0.4229 -0.0303 -0.0819
   17CHTO   C23 7105   3.808   6.527   1.574 -0.1043  0.2192 -0.4212
   17CHTO   H51 7106   3.765   6.569   1.666 -2.8052  2.9651 -2.8325
   17CHTO   C34 7107   3.935   6.440   1.597  0.3925  0.1257  0.5657
   17CHTO   O23 7108   3.911   6.341   1.698  0.3285  0.0254  0.0896
   17CHTO   H38 7109   3.993   6.295   1.699 -0.7095 -1.8891  1.0903
   17CHTO   O16 7110   3.830   6.844   1.404  0.5833  0.0648  0.4685
   17CHTO   C24 7111   3.882   6.954   1.515 -0.0554 -0.0865 -0.8774
   17CHTO   H52 7112   3.883   6.912   1.616  2.2042  1.2066 -0.3329
   17CHTO   C26 7113   3.792   7.075   1.513  0.2547 -1.2728 -0.0760
   17CHTO   H54 7114   3.786   7.107   1.407 -0.8004  1.9755  0.9148
   17CHTO   O20 7115   3.667   7.034   1.558 -0.3066 -0.0640 -0.2437
   17CHTO   H36 7116   3.630   7.110   1.599  0.9229  0.8433 -0.7834
   17CHTO   C30 7117   3.857   7.189   1.594  0.4956  0.2509 -0.5826
   17CHTO   H58 7118   3.857   7.157   1.700 -0.7964  0.8952 -0.3730
   17CHTO    N6 7119   3.759   7.307   1.594 -0.3316  0.0061  0.3848
   17CHTO   H45 7120   3.764   7.352   1.496 -0.5064 -0.7835  0.0117
   17CHTO   H46 7121   3.806   7.373   1.666 -0.2184  1.0425 -0.6193
   17CHTO   C33 7122   4.002   7.219   1.553 -0.0485  0.4010  0.0150
   17CHTO   H61 7123   4.008   7.241   1.445  2.5659 -2.1380 -0.4240
   17CHTO   O18 7124   4.073   7.093   1.572 -0.0759 -0.2976  0.1598
   17CHTO   C28 7125   4.028   6.985   1.484 -0.1121 -0.4659  0.0777
   17CHTO   H56 7126   4.029   7.020   1.381 -0.3958  1.7857  0.8064
   17CHTO   C35 7127   4.116   6.863   1.504  0.0862  0.0347  0.9286
   17CHTO   O24 7128   4.250   6.886   1.468  0.3914  0.9364  0.6394
   17CHTO   H39 7129   4.301   6.809   1.454  0.7125  1.3904 -0.8453
   17CHTO    O9 7130   4.070   7.330   1.621  0.2264 -0.5921 -0.0008
   17CHTO   C13 7131   4.191   7.384   1.544 -0.2286  0.6754 -0.8306
   17CHTO   H26 7132   4.192   7.337   1.443  2.3311  1.7790 -1.3635
   17CHTO   C11 7133   4.321   7.348   1.626 -0.0694  0.7103 -0.8312
   17CHTO   H24 7134   4.347   7.242   1.611 -1.6645  0.0483  0.9044
   17CHTO    O8 7135   4.308   7.370   1.767  0.3486  0.0623  0.1070
   17CHTO    H3 7136   4.388   7.403   1.803  1.5376 -0.3574 -2.0696
   17CHTO    C9 7137   4.441   7.424   1.564 -0.2206 -0.1660 -0.4278
   17CHTO   H22 7138   4.449   7.385   1.462  0.3739  0.9311 -0.8047
   17CHTO    N2 7139   4.576   7.386   1.609  0.1904  0.2517  0.2615
   17CHTO   H10 7140   4.644   7.338   1.540 -2.3543  1.0149 -2.9680
   17CHTO   H11 7141   4.601   7.360   1.710  1.5223  2.0171  0.4050
   17CHTO    C7 7142   4.409   7.573   1.560  0.0386  0.3826  0.4484
   17CHTO   H20 7143   4.429   7.613   1.458 -1.7647 -0.9491 -0.4536
   17CHTO    O4 7144   4.278   7.613   1.603 -0.4743  0.0425  0.2099
   17CHTO   C14 7145   4.181   7.547   1.520 -0.0875  0.4298 -0.0348
   17CHTO   H27 7146   4.188   7.569   1.411  1.1589 -2.4193 -0.5837
   17CHTO   C18 7147   4.044   7.593   1.564 -0.1703 -0.1529  0.1985
   17CHTO   O13 7148   4.028   7.722   1.511 -0.2128  0.3039 -0.0328
   17CHTO    H7 7149   3.970   7.779   1.558 -0.0851  0.5435 -0.1627
   17CHTO    O2 7150   4.516   7.658   1.660 -0.1446  0.3952 -0.1974
   17CHTO    C1 7151   4.507   7.801   1.644 -0.3340  0.1817  0.6805
   17CHTO   H14 7152   4.422   7.835   1.581  0.4492  1.9086  0.5165
   17CHTO    C2 7153   4.631   7.855   1.571 -0.3648 -0.3252  0.5054
   17CHTO   H15 7154   4.718   7.824   1.630 -1.2900  0.3711  2.3143
   17CHTO    O6 7155   4.638   7.803   1.439 -0.0954 -0.1317  0.2681
   17CHTO    H1 7156   4.660   7.713   1.458 -1.5922 -0.5295  0.2140
   17CHTO    C3 7157   4.632   8.016   1.568  0.3466 -0.3406  0.0931
   17CHTO   H16 7158   4.554   8.044   1.496  0.6341 -2.0284 -0.9185
   17CHTO    N1 7159   4.757   8.069   1.512  0.4723  0.6761 -0.0489
   17CHTO    H8 7160   4.766   8.174   1.539  0.5209  1.0013 -1.3065
   17CHTO    H9 7161   4.852   8.041   1.556  1.1867  1.7661 -0.8402
   17CHTO    C4 7162   4.600   8.079   1.715  0.1400  0.4565 -0.0762
   17CHTO   H17 7163   4.689   8.070   1.778  0.5606  0.4875 -0.6653
   17CHTO    O1 7164   4.492   8.011   1.779  0.1124  0.1085 -0.1415
   17CHTO    C5 7165   4.497   7.867   1.781  0.3569  0.3665  0.1560
   17CHTO   H18 7166   4.591   7.835   1.826 -1.0124 -4.9122 -0.3470
   17CHTO   C16 7167   4.384   7.803   1.860 -0.2027  0.4917 -1.2204
   17CHTO   O11 7168   4.250   7.836   1.821  0.1513 -0.0928 -0.0628
   17CHTO    H5 7169   4.208   7.761   1.784 -0.4683 -0.2972  1.0259
   17CHTO    O3 7170   4.558   8.219   1.701 -0.4003  0.2393  0.4494
   17CHTO    C6 7171   4.558   8.310   1.824 -0.2359 -0.3847 -0.1425
   17CHTO   H19 7172   4.501   8.400   1.803 -0.6557 -0.6928 -0.3316
   17CHTO    C8 7173   4.498   8.264   1.957 -0.7026  0.2127 -0.7171
   17CHTO   H21 7174   4.526   8.160   1.974  1.0034  0.7295 -0.2428
   17CHTO    O7 7175   4.355   8.263   1.946  0.0120  0.0278 -0.1114
   17CHTO    H2 7176   4.329   8.353   1.943 -2.1683 -0.5891 -0.7749
   17CHTO   C12 7177   4.541   8.359   2.081  0.5288  0.2335 -0.4042
   17CHTO   H25 7178   4.475   8.444   2.053  0.1862 -0.1334 -0.7307
   17CHTO    N3 7179   4.500   8.306   2.217 -0.1199  0.1605  0.3810
   17CHTO   H12 7180   4.543   8.213   2.254 -0.4010  0.4529  1.4719
   17CHTO   H13 7181   4.394   8.316   2.228 -0.1151  3.0292 -1.6949
   17CHTO   C15 7182   4.692   8.394   2.066  1.2291 -0.1001 -0.4430
   17CHTO   H28 7183   4.759   8.315   2.101  1.5281  0.2971 -0.1055
   17CHTO   O10 7184   4.724   8.536   2.144  0.0613 -0.1842  0.5630
   17CHTO    H4 7185   4.816   8.533   2.165  0.4241  0.4419 -0.8658
   17CHTO    O5 7186   4.734   8.434   1.937  0.2471 -0.3305  0.3461
   17CHTO   C10 7187   4.710   8.341   1.835  0.4835 -0.3217 -0.3295
   17CHTO   H23 7188   4.759   8.250   1.866  0.8637 -0.3410 -0.9802
   17CHTO   C17 7189   4.776   8.406   1.709  0.0173 -0.5304 -0.3079
   17CHTO   O12 7190   4.912   8.369   1.707 -0.7426  0.2725  0.2330
   17CHTO    H6 7191   4.952   8.398   1.627 -0.8366  1.9234  0.7694
   18CHTO  H203 7192   6.121   8.310   2.570 -0.7651  0.5237 -0.5548
   18CHTO   O82 7193   6.117   8.217   2.560  0.5903  0.4007 -0.0808
   18CHTO  C123 7194   6.098   8.186   2.425  0.2426  0.3393 -0.6004
   18CHTO  H227 7195   6.022   8.252   2.381  0.4305  1.1371  0.2645
   18CHTO   O77 7196   6.227   8.208   2.363  0.0992 -0.3578  0.5198
   18CHTO  C118 7197   6.221   8.196   2.217 -0.1129  0.0742 -0.0205
   18CHTO  H222 7198   6.129   8.238   2.173  0.5079  0.9510 -0.4871
   18CHTO  C125 7199   6.345   8.279   2.158 -0.0953 -0.3129  0.0114
   18CHTO   O84 7200   6.466   8.231   2.213 -0.2766 -0.5353 -0.3037
   18CHTO  H205 7201   6.503   8.161   2.163  0.7981 -0.8252  0.8671
   18CHTO  C114 7202   6.216   8.049   2.192 -0.1334  0.3273  0.1985
   18CHTO  H218 7203   6.305   8.002   2.233 -2.1581 -3.2865  0.6661
   18CHTO  C116 7204   6.086   7.995   2.253  0.3383 -0.0921 -0.9642
   18CHTO  H220 7205   5.998   8.038   2.200  0.4556  0.5417 -0.6480
   18CHTO   O79 7206   6.079   7.854   2.225  0.0638 -0.1644 -0.5739
   18CHTO  H201 7207   6.159   7.814   2.255 -0.9632 -1.0627  1.0527
   18CHTO  C120 7208   6.070   8.033   2.406  0.2417  0.1365 -0.1589
   18CHTO  H224 7209   6.145   7.974   2.463 -0.8843 -0.4556  0.7347
   18CHTO   N21 7210   5.936   7.998   2.455  0.2631  0.0561 -0.5589
   18CHTO  H211 7211   5.854   8.065   2.434  0.7354  0.8407  0.0889
   18CHTO  H212 7212   5.909   7.903   2.411 -2.6436  0.9195 -0.7353
   18CHTO   O75 7213   6.221   8.036   2.049  0.3171  0.7654  0.3334
   18CHTO  C112 7214   6.362   7.978   1.966  0.5269  0.6240  0.3633
   18CHTO  H216 7215   6.422   7.921   2.038  1.9723  1.0702 -0.4818
   18CHTO   O73 7216   6.428   8.088   1.914 -0.3781 -0.1720  0.1986
   18CHTO  C113 7217   6.537   8.063   1.823  0.0547 -0.3486 -0.3912
   18CHTO  H217 7218   6.605   7.991   1.873  0.1855  0.2809  0.3632
   18CHTO  C124 7219   6.620   8.194   1.809  1.1703  0.1893  0.5282
   18CHTO   O83 7220   6.663   8.254   1.936 -0.1876  0.0649 -0.1868
   18CHTO  H204 7221   6.753   8.276   1.920 -0.0148 -0.3072  0.2789
   18CHTO  C109 7222   6.479   8.010   1.691 -0.3272 -0.5014 -0.4797
   18CHTO  H213 7223   6.409   8.088   1.660  1.2921  0.6093 -1.4341
   18CHTO  C110 7224   6.400   7.875   1.729 -0.0996  0.6219 -0.2939
   18CHTO  H214 7225   6.481   7.807   1.756 -0.1704  0.1477 -1.2692
   18CHTO   O78 7226   6.345   7.808   1.615  0.0906  0.4252  0.0395
   18CHTO  H200 7227   6.421   7.776   1.570  1.0705 -0.0402  1.9785
   18CHTO  C111 7228   6.301   7.887   1.851 -0.7477  1.0750  0.6732
   18CHTO  H215 7229   6.214   7.943   1.815 -0.7097  0.3197 -0.6181
   18CHTO   N19 7230   6.254   7.753   1.902 -0.1839 -0.2306 -0.4992
   18CHTO  H207 7231   6.293   7.744   2.002 -0.5951  0.1531 -0.2992
   18CHTO  H208 7232   6.146   7.759   1.901 -0.3591 -2.9321 -0.7853
   18CHTO   O74 7233   6.585   7.992   1.589  0.1345 -0.5088  0.2064
   18CHTO  C115 7234   6.563   8.062   1.459  0.5524 -0.2440  0.4041
   18CHTO  H219 7235   6.459   8.092   1.449 -0.2269 -2.0113  2.7863
   18CHTO   O76 7236   6.647   8.211   1.455 -0.4193  0.0879  0.3305
   18CHTO  C122 7237   6.645   8.270   1.329  0.0858 -0.6060 -0.7816
   18CHTO  H226 7238   6.706   8.360   1.334 -3.4048  1.8148  0.4572
   18CHTO  C126 7239   6.508   8.321   1.285  0.0877 -0.0631 -0.3024
   18CHTO   O85 7240   6.464   8.446   1.334  0.8779 -0.6043 -0.3746
   18CHTO  H206 7241   6.536   8.505   1.322  1.2432 -0.9008  0.2579
   18CHTO  C121 7242   6.701   8.171   1.224 -0.4129 -0.3178  0.0942
   18CHTO  H225 7243   6.722   8.223   1.128  0.2469  0.7836  0.8137
   18CHTO   O81 7244   6.826   8.129   1.271  0.2298 -0.1096 -0.2159
   18CHTO  H202 7245   6.830   8.090   1.356  3.5018 -0.8185 -0.6246
   18CHTO  C119 7246   6.607   8.051   1.206 -0.1704 -0.3251  0.6553
   18CHTO  H223 7247   6.506   8.069   1.168  0.1576  0.9282  0.3638
   18CHTO  C117 7248   6.597   7.971   1.341 -0.1065  0.2554 -0.3181
   18CHTO  H221 7249   6.687   7.918   1.371  1.0948  1.8186 -1.1220
   18CHTO   N20 7250   6.501   7.861   1.329  0.3321 -0.4048  0.1439
   18CHTO  H209 7251   6.453   7.846   1.425  1.0442  1.2466  0.7630
   18CHTO  H210 7252   6.431   7.867   1.246 -1.2067 -1.4868  1.3225
   18CHTO   O80 7253   6.667   7.948   1.092 -0.5152 -0.0590 -0.0139
   18CHTO  C103 7254   6.581   7.917   0.956 -0.3499  0.5294 -0.3606
   18CHTO  H190 7255   6.642   7.854   0.892  0.1831  0.7748 -0.0967
   18CHTO  C101 7256   6.448   7.835   0.991  0.2146  0.6174 -0.1232
   18CHTO  H188 7257   6.409   7.887   1.079 -1.5864 -2.9328  1.2762
   18CHTO   O68 7258   6.487   7.675   1.058 -1.0531 -0.2056  0.2041
   18CHTO  H168 7259   6.551   7.704   1.120 -1.7188 -1.8094  1.6643
   18CHTO   C99 7260   6.346   7.834   0.874  0.1416 -0.4869  0.0427
   18CHTO  H186 7261   6.386   7.771   0.792  1.2228  1.2466 -0.7987
   18CHTO   N17 7262   6.217   7.764   0.917  0.0305  0.0917 -0.1110
   18CHTO  H174 7263   6.153   7.749   0.831 -0.2483 -0.3231  0.1636
   18CHTO  H175 7264   6.246   7.678   0.975  1.3648 -0.0653 -0.9945
   18CHTO   C97 7265   6.336   7.979   0.811  0.1268 -0.3885  0.2106
   18CHTO  H184 7266   6.288   8.043   0.886 -2.3004  0.1374 -1.7072
   18CHTO   O64 7267   6.465   8.025   0.773 -0.9058  0.0716 -0.2183
   18CHTO  C104 7268   6.551   8.054   0.891  0.0410  0.8776  0.0943
   18CHTO  H191 7269   6.503   8.115   0.967 -0.1656  3.3692 -1.9711
   18CHTO  C108 7270   6.674   8.133   0.853  0.2744  0.0713 -0.0146
   18CHTO   O71 7271   6.660   8.269   0.881  0.0962 -0.1978 -0.3198
   18CHTO  H171 7272   6.617   8.269   0.964 -0.7511  0.2600 -0.7590
   18CHTO   O62 7273   6.261   7.978   0.686 -0.0244 -0.1200  0.1114
   18CHTO   C91 7274   6.141   8.056   0.688  0.3025  0.2523 -0.1093
   18CHTO  H178 7275   6.102   8.056   0.790  0.1602  0.0501 -0.1627
   18CHTO   C92 7276   6.026   7.983   0.611 -0.1066 -0.0414  0.2647
   18CHTO  H179 7277   6.040   7.990   0.502  1.1013 -2.7415  0.2023
   18CHTO   O66 7278   6.040   7.845   0.645 -0.0970  0.1600 -0.3453
   18CHTO  H166 7279   5.971   7.812   0.590 -0.3818  1.2584 -0.6587
   18CHTO   C93 7280   5.890   8.056   0.646  0.1172  0.3845 -0.0788
   18CHTO  H180 7281   5.864   8.040   0.751  1.1154 -0.6786  0.0107
   18CHTO   N16 7282   5.774   7.994   0.567 -0.6436  0.0241  0.4819
   18CHTO  H172 7283   5.792   7.892   0.536  0.5094  0.2618  0.3367
   18CHTO  H173 7284   5.767   8.058   0.480  1.4637  2.4227  2.0252
   18CHTO   C94 7285   5.902   8.208   0.621  0.3894 -0.8885 -0.3990
   18CHTO  H181 7286   5.896   8.236   0.516 -1.9730  1.5498  0.3263
   18CHTO   O61 7287   6.022   8.274   0.657  0.3050 -0.0059 -0.1773
   18CHTO   C95 7288   6.146   8.203   0.635 -0.0820  1.0327  1.1763
   18CHTO  H182 7289   6.165   8.197   0.528 -1.5057  0.1401  0.9638
   18CHTO  C106 7290   6.256   8.283   0.704  0.7371 -0.0361 -0.0959
   18CHTO   O69 7291   6.298   8.381   0.611  0.3957 -0.4383 -0.7834
   18CHTO  H169 7292   6.390   8.373   0.591  0.7536 -1.8468  1.2236
   18CHTO   O63 7293   5.778   8.274   0.690 -0.2470  0.4877 -0.0302
   18CHTO   C96 7294   5.712   8.392   0.588  0.3643  0.1109 -0.8324
   18CHTO  H183 7295   5.733   8.366   0.484  1.0224 -0.2887 -0.6029
   18CHTO   C98 7296   5.767   8.535   0.603 -0.2205 -0.1493 -0.0520
   18CHTO  H185 7297   5.750   8.574   0.704  2.9783 -1.3649  1.0482
   18CHTO   O67 7298   5.911   8.533   0.589  0.0024  0.3006  0.0541
   18CHTO  H167 7299   5.955   8.614   0.571 -0.5226  0.1438 -2.0763
   18CHTO  C102 7300   5.694   8.636   0.503 -0.0031  0.4258 -0.7649
   18CHTO  H189 7301   5.732   8.609   0.403  0.0425  2.2505 -1.2491
   18CHTO   N18 7302   5.728   8.780   0.524 -0.1649 -0.0516 -0.1080
   18CHTO  H176 7303   5.651   8.831   0.581 -0.7379 -1.7291  0.6647
   18CHTO  H177 7304   5.757   8.826   0.431  0.3450 -0.5807 -0.2156
   18CHTO  C105 7305   5.542   8.606   0.495  0.0434 -0.0082  0.6102
   18CHTO  H192 7306   5.496   8.668   0.572 -2.6850 -0.8734 -0.2855
   18CHTO   O65 7307   5.496   8.468   0.489  0.1917 -0.2125  0.0053
   18CHTO  C100 7308   5.553   8.395   0.595  0.1026 -0.1474 -0.6504
   18CHTO  H187 7309   5.520   8.442   0.688 -3.1553  0.5271 -2.0754
   18CHTO  C107 7310   5.501   8.258   0.577 -0.1885 -0.0680  0.2447
   18CHTO   O70 7311   5.358   8.235   0.570 -0.4269 -0.1287  0.0895
   18CHTO  H170 7312   5.339   8.279   0.489  0.9882 -0.1826 -0.2848
   18CHTO   O57 7313   5.497   8.676   0.332 -0.0085  0.2478  0.2115
   18CHTO   C85 7314   5.358   8.703   0.308 -0.7165  0.1582 -0.1206
   18CHTO  H157 7315   5.374   8.755   0.212  2.3020  2.3597  1.4760
   18CHTO   C83 7316   5.290   8.815   0.397 -0.2837 -0.2412 -0.1054
   18CHTO  H155 7317   5.356   8.901   0.399 -0.2900 -0.2587  1.6115
   18CHTO   O56 7318   5.283   8.768   0.534  0.2706 -0.4155 -0.0317
   18CHTO  H135 7319   5.230   8.691   0.548 -1.7010  0.5486 -1.9451
   18CHTO   C81 7320   5.153   8.854   0.336 -0.2026 -0.0725 -0.0901
   18CHTO  H153 7321   5.172   8.882   0.232 -1.3163 -1.8077 -0.7722
   18CHTO   N14 7322   5.082   8.975   0.391  0.0241 -0.2387 -0.1618
   18CHTO  H141 7323   5.037   8.963   0.488  0.0891  1.3567  0.0876
   18CHTO  H142 7324   5.166   9.040   0.406 -0.8130  1.5175 -2.7650
   18CHTO   C79 7325   5.058   8.735   0.333 -0.2916  0.2405 -0.3013
   18CHTO  H151 7326   4.979   8.758   0.261  0.5853  0.3250 -1.2553
   18CHTO   O52 7327   5.120   8.616   0.279  0.2986  0.3290 -0.2127
   18CHTO   C86 7328   5.266   8.577   0.294 -0.2723  0.0440 -0.4067
   18CHTO  H158 7329   5.270   8.517   0.387 -1.9268  1.4463  0.6045
   18CHTO   C90 7330   5.314   8.499   0.181 -0.2268  0.4766 -0.5394
   18CHTO   O60 7331   5.441   8.435   0.198  0.5486 -0.1929 -0.0016
   18CHTO  H138 7332   5.438   8.370   0.130 -2.5371 -1.3102  1.1321
   18CHTO   O50 7333   5.006   8.684   0.460 -0.3156 -0.6634  0.1352
   18CHTO   C73 7334   4.910   8.586   0.512  0.5489 -0.4698  0.0064
   18CHTO  H145 7335   4.897   8.512   0.432  1.1942 -0.1063 -0.4371
   18CHTO   C74 7336   4.784   8.665   0.550 -0.0601  0.5823 -0.7300
   18CHTO  H146 7337   4.744   8.715   0.460 -2.7165  1.2597  0.7934
   18CHTO   O54 7338   4.690   8.566   0.585  0.9719  0.0294 -0.2769
   18CHTO  H133 7339   4.639   8.538   0.511  0.5636 -1.1542  0.4418
   18CHTO   C75 7340   4.817   8.766   0.664  0.1525 -0.3516  0.6131
   18CHTO  H147 7341   4.896   8.837   0.634  0.6588  0.4681  3.7112
   18CHTO   N13 7342   4.700   8.843   0.712 -0.4310 -0.1322 -0.0042
   18CHTO  H139 7343   4.606   8.792   0.694  0.0411 -0.1604 -2.6091
   18CHTO  H140 7344   4.701   8.946   0.677 -1.9889  0.3320  1.2661
   18CHTO   C76 7345   4.883   8.681   0.787 -0.1319  0.3038 -0.3510
   18CHTO  H148 7346   4.807   8.615   0.829  0.4281  0.4798  0.9929
   18CHTO   O49 7347   5.002   8.605   0.747  0.5676  0.6098  0.6589
   18CHTO   C77 7348   4.974   8.518   0.636  0.0833 -0.0981  0.0010
   18CHTO  H149 7349   4.907   8.438   0.667  0.4771 -0.3276  0.2711
   18CHTO   C88 7350   5.105   8.448   0.613 -1.3593  0.2115 -0.5103
   18CHTO   O58 7351   5.145   8.380   0.732 -0.4427 -0.1509 -1.0338
   18CHTO  H136 7352   5.215   8.320   0.718 -0.6826 -0.7283  0.1425
   18CHTO   O51 7353   4.948   8.789   0.891 -0.1544  0.0774 -0.7433
   18CHTO   C78 7354   4.995   8.720   1.026 -0.7862 -0.0464 -0.3394
   18CHTO  H150 7355   5.012   8.612   1.007  1.6713  0.3225 -0.3464
   18CHTO   C80 7356   4.883   8.734   1.132 -0.6953  0.4106  0.4668
   18CHTO  H152 7357   4.867   8.843   1.148  3.3084  1.3573 -1.3896
   18CHTO   O55 7358   4.771   8.662   1.083 -0.0577 -0.3131  0.2356
   18CHTO  H134 7359   4.747   8.589   1.137 -0.5268 -1.8228 -1.9603
   18CHTO   C84 7360   4.934   8.675   1.268  0.1990  0.0976  0.5704
   18CHTO  H156 7361   4.942   8.567   1.251  1.7460  0.1536  0.8253
   18CHTO   N15 7362   4.832   8.698   1.375  0.1269 -0.0190  0.3822
   18CHTO  H143 7363   4.857   8.767   1.453  0.5858  0.5570 -0.2729
   18CHTO  H144 7364   4.731   8.713   1.342  0.5637  1.0081 -0.5058
   18CHTO   C87 7365   5.070   8.738   1.315  0.3053  0.6762  0.1815
   18CHTO  H159 7366   5.070   8.847   1.326 -0.3409  0.5632  1.3664
   18CHTO   O53 7367   5.156   8.719   1.195  0.2411 -0.1364 -0.6621
   18CHTO   C82 7368   5.126   8.783   1.076  0.3538  0.2166 -0.3501
   18CHTO  H154 7369   5.116   8.891   1.087 -2.2339  0.3416 -3.1765
   18CHTO   C89 7370   5.246   8.761   0.985 -0.0794 -0.4664  0.3700
   18CHTO   O59 7371   5.233   8.831   0.859  0.0317  0.2252  0.1419
   18CHTO  H137 7372   5.301   8.798   0.803 -1.2018 -2.5469  0.2038
   18CHTO   O45 7373   5.137   8.676   1.447 -0.3290  0.5187  0.2288
   18CHTO   C67 7374   5.276   8.660   1.461 -0.1846  0.1848 -0.3196
   18CHTO  H124 7375   5.312   8.596   1.381 -2.3045 -2.6891  0.9256
   18CHTO   C65 7376   5.354   8.796   1.459  0.1605  0.3373  0.3844
   18CHTO  H122 7377   5.286   8.873   1.497  1.8745  1.3884  1.4030
   18CHTO   O44 7378   5.380   8.827   1.320 -0.0196  0.0465 -0.1240
   18CHTO  H102 7379   5.452   8.886   1.320  0.3679 -0.4272  0.0688
   18CHTO   C63 7380   5.481   8.796   1.558  0.2164  0.7703  0.2821
   18CHTO  H120 7381   5.443   8.801   1.660  1.5714  0.8771  0.7888
   18CHTO   N11 7382   5.567   8.921   1.542  0.1709 -0.0374 -0.3631
   18CHTO  H108 7383   5.629   8.918   1.455 -0.1323  1.6498 -0.6671
   18CHTO  H109 7384   5.627   8.928   1.631 -2.8389 -1.3678  1.8556
   18CHTO   C61 7385   5.550   8.663   1.557 -0.1001  0.3577 -0.4186
   18CHTO  H118 7386   5.622   8.674   1.640 -0.3130  1.8952 -0.4232
   18CHTO   O40 7387   5.458   8.556   1.598  0.3925 -0.0916  0.1869
   18CHTO   C68 7388   5.313   8.582   1.596  0.2854 -0.0703  0.1416
   18CHTO  H125 7389   5.292   8.635   1.692  1.3191 -0.4793  0.5929
   18CHTO   C72 7390   5.245   8.444   1.604  0.0521  0.2214 -0.0008
   18CHTO   O48 7391   5.248   8.392   1.734 -1.2231 -0.4132 -0.1007
   18CHTO  H105 7392   5.240   8.458   1.801 -1.7453 -2.8259  2.2867
   18CHTO   O38 7393   5.609   8.619   1.434  1.2081 -0.4358  0.2322
   18CHTO   C55 7394   5.724   8.536   1.461 -0.5194  0.5683  0.2738
   18CHTO  H112 7395   5.733   8.509   1.568 -0.5046  2.4174  0.7519
   18CHTO   C56 7396   5.854   8.602   1.406  0.4728 -0.3117 -0.5364
   18CHTO  H113 7397   5.856   8.601   1.296 -0.7379  1.1104 -0.5815
   18CHTO   O42 7398   5.860   8.740   1.448 -0.5892 -0.1308 -0.3624
   18CHTO  H100 7399   5.922   8.792   1.402  0.1627 -0.0515  0.7314
   18CHTO   C57 7400   5.984   8.522   1.456  0.3235 -0.3930  0.3335
   18CHTO  H114 7401   5.991   8.529   1.564 -0.0906  1.4771  0.2534
   18CHTO   N10 7402   6.116   8.574   1.419  0.2659  0.4200  0.7929
   18CHTO  H106 7403   6.188   8.552   1.497  0.9634 -0.0272  0.0194
   18CHTO  H107 7404   6.150   8.530   1.327 -0.4839  0.6169  0.4206
   18CHTO   C58 7405   5.963   8.374   1.411 -0.5335  0.2000  0.3803
   18CHTO  H115 7406   5.992   8.359   1.305 -2.1686 -0.2909 -0.0059
   18CHTO   O37 7407   5.833   8.314   1.419  0.1938 -0.2281  0.1871
   18CHTO   C59 7408   5.718   8.395   1.386  0.5287 -0.6678  0.1479
   18CHTO  H116 7409   5.717   8.405   1.277  0.2786 -1.2662  0.0927
   18CHTO   C70 7410   5.602   8.308   1.431  0.1666  0.3024 -0.6536
   18CHTO   O46 7411   5.604   8.283   1.570  0.0530 -1.0305 -0.0473
   18CHTO  H103 7412   5.671   8.219   1.581 -0.8977 -2.4778 -2.2564
   18CHTO   O39 7413   6.071   8.290   1.519 -0.2613  0.6532  0.1742
   18CHTO   C60 7414   6.003   8.240   1.640  0.3646  0.1603 -0.9095
   18CHTO  H117 7415   5.927   8.308   1.677 -0.9252 -1.9725  0.4910
   18CHTO   C62 7416   5.933   8.107   1.621 -0.1207  0.2225 -0.3205
   18CHTO  H119 7417   5.870   8.107   1.530  0.0603  1.0780 -0.4499
   18CHTO   O43 7418   6.033   8.010   1.580 -0.1606  0.5354 -0.1000
   18CHTO  H101 7419   5.993   7.930   1.551 -0.1972  0.7942 -0.7891
   18CHTO   C66 7420   5.846   8.066   1.757  0.8696 -0.2558 -0.8273
   18CHTO  H123 7421   5.769   8.142   1.770 -0.6415 -1.7283 -1.0442
   18CHTO   N12 7422   5.780   7.932   1.751  0.2225 -0.5739 -0.9309
   18CHTO  H110 7423   5.699   7.921   1.680 -0.2976 -0.2147 -0.3904
   18CHTO  H111 7424   5.849   7.849   1.738  1.4958  0.7293 -2.8368
   18CHTO   C69 7425   5.933   8.072   1.883  0.2133  0.8231 -0.6192
   18CHTO  H126 7426   5.997   7.983   1.897 -0.9350 -0.2978 -2.3618
   18CHTO   O41 7427   6.034   8.205   1.878  0.5090  0.1993  0.1120
   18CHTO   C64 7428   6.106   8.222   1.762  0.5564 -0.0246 -0.7722
   18CHTO  H121 7429   6.168   8.133   1.736  0.0851  0.5117 -3.8253
   18CHTO   C71 7430   6.197   8.347   1.769  0.2652  0.1194  0.0763
   18CHTO   O47 7431   6.294   8.354   1.663 -0.0786  0.4567 -0.1707
   18CHTO  H104 7432   6.258   8.392   1.586 -1.9137  1.0277  0.9297
   18CHTO   O34 7433   5.823   8.098   2.012 -0.0794  0.0024 -0.1530
   18CHTO   C49 7434   5.740   8.203   2.089  0.2986  0.3263 -0.0330
   18CHTO   H91 7435   5.778   8.185   2.189  0.1053 -0.6521 -0.1352
   18CHTO   C47 7436   5.586   8.163   2.091  0.1775  0.4483  0.1083
   18CHTO   H89 7437   5.552   8.224   2.177  0.4219  1.9440 -0.8332
   18CHTO   O33 7438   5.577   8.022   2.113  0.0936  0.4904 -0.0037
   18CHTO   H70 7439   5.611   7.973   2.041  2.5770 -3.9774  3.9396
   18CHTO   C45 7440   5.520   8.213   1.950  0.4220  0.1105 -0.3705
   18CHTO   H87 7441   5.589   8.180   1.871 -0.3778 -2.4181 -0.0516
   18CHTO    N8 7442   5.380   8.160   1.930  0.4156 -0.0307 -0.1288
   18CHTO   H75 7443   5.378   8.106   1.837 -3.8023 -0.7763  0.2998
   18CHTO   H76 7444   5.311   8.242   1.915  1.2049  0.3995 -1.6049
   18CHTO   C43 7445   5.529   8.368   1.943 -0.8053 -0.2056 -0.3891
   18CHTO   H85 7446   5.491   8.399   1.845 -2.0055 -0.0440  0.1264
   18CHTO   O29 7447   5.670   8.408   1.955 -0.0869 -0.8234  0.2411
   18CHTO   C50 7448   5.760   8.350   2.052 -0.2169 -0.6638 -0.5365
   18CHTO   H92 7449   5.861   8.366   2.012  0.6555  1.3491  2.3037
   18CHTO   C54 7450   5.759   8.448   2.175 -0.4694  0.1011  0.4990
   18CHTO   O36 7451   5.845   8.426   2.281  0.5760  0.6387  0.1555
   18CHTO   H72 7452   5.859   8.508   2.325 -2.7560  1.6111 -0.4903
   18CHTO   O27 7453   5.446   8.433   2.053  0.2119 -0.4331  0.1439
   18CHTO   C37 7454   5.387   8.562   2.078 -0.5721 -1.0398 -0.3810
   18CHTO   H79 7455   5.384   8.579   2.187 -0.5882  1.1274 -0.6979
   18CHTO   C38 7456   5.461   8.682   2.003 -0.6629  0.6419 -0.4831
   18CHTO   H80 7457   5.472   8.655   1.897  0.6249  0.1304 -0.2263
   18CHTO   O31 7458   5.598   8.693   2.060  0.1764 -0.2548  0.2304
   18CHTO   H68 7459   5.604   8.764   2.121 -1.1285  0.8195 -0.8697
   18CHTO   C39 7460   5.390   8.824   2.022 -0.1913  0.0487 -0.5338
   18CHTO   H81 7461   5.390   8.851   2.128  0.1847  0.4811 -0.6424
   18CHTO    N7 7462   5.459   8.943   1.961  0.2743 -0.0522 -0.6654
   18CHTO   H73 7463   5.389   8.986   1.891 -0.1788 -1.1246 -0.8822
   18CHTO   H74 7464   5.504   9.007   2.035  1.8186 -1.2816 -0.5325
   18CHTO   C40 7465   5.241   8.806   1.973 -0.5150  0.1747 -0.0543
   18CHTO   H82 7466   5.247   8.796   1.864  1.0801 -0.7234  0.0963
   18CHTO   O26 7467   5.175   8.694   2.032  0.3041  0.1139 -0.3459
   18CHTO   C41 7468   5.243   8.566   2.022 -0.6893  0.5939 -0.8785
   18CHTO   H83 7469   5.250   8.542   1.915 -0.4593 -1.2529 -0.4832
   18CHTO   C52 7470   5.166   8.455   2.096  0.0191  0.0625 -0.4127
   18CHTO   O35 7471   5.052   8.420   2.042  0.6570 -0.3045  0.4377
   18CHTO   H71 7472   5.028   8.336   2.077 -2.5462  1.3696  2.4762
   18CHTO   O28 7473   5.172   8.926   2.003  0.5336 -0.1134 -0.2761
   18CHTO   C42 7474   5.036   8.944   2.043 -0.0527  0.0077  0.5662
   18CHTO   H84 7475   5.039   9.045   2.082  1.1288 -0.1911  1.0238
   18CHTO   C44 7476   4.982   8.855   2.160 -1.0975 -0.6454  0.0895
   18CHTO   H86 7477   4.972   8.750   2.130 -0.8835 -0.5875 -0.1926
   18CHTO   O32 7478   5.080   8.858   2.267  0.2552  0.2009 -0.7850
   18CHTO   H69 7479   5.113   8.772   2.285 -1.2274 -0.1627  0.2823
   18CHTO   C48 7480   4.843   8.908   2.204  0.5205 -0.1243  0.3807
   18CHTO   H90 7481   4.870   9.009   2.235 -0.7046  0.9127 -1.8457
   18CHTO    N9 7482   4.784   8.829   2.319 -0.0025 -0.2487 -0.2525
   18CHTO   H77 7483   4.742   8.735   2.286  1.1668 -0.4682 -1.1314
   18CHTO   H78 7484   4.717   8.892   2.376 -1.8912 -2.8142  0.4960
   18CHTO   C51 7485   4.741   8.910   2.082 -0.8967  0.6601 -0.4730
   18CHTO   H93 7486   4.721   8.810   2.043  1.3299  0.2872 -0.7481
   18CHTO   O30 7487   4.792   8.999   1.977 -0.3197  0.2048 -0.4174
   18CHTO   C46 7488   4.930   8.941   1.929  0.9241  0.3458  0.3713
   18CHTO   H88 7489   4.909   8.839   1.898 -0.7632  0.5293  0.8472
   18CHTO   C53 7490   4.968   9.029   1.808  0.3314  0.1322  0.4583
   18CHTO   O72 7491   5.096   8.999   1.746 -0.1746  0.0550 -0.2737
   18CHTO  H199 7492   5.102   9.055   1.671  0.6153  1.0247  0.5056
   18CHTO   O22 7493   4.624   8.981   2.126  0.2210  0.0940  0.1500
   18CHTO   C31 7494   4.492   8.982   2.059  0.2930 -0.1915 -0.2091
   18CHTO   H59 7495   4.420   8.974   2.144  1.9027  1.6695  1.3672
   18CHTO   C29 7496   4.463   9.116   1.986 -0.2047  0.2256  0.0142
   18CHTO   H57 7497   4.550   9.144   1.925 -0.1591  0.0275 -0.0133
   18CHTO   O21 7498   4.458   9.219   2.088  0.3489  0.8328 -0.3377
   18CHTO   H37 7499   4.394   9.285   2.067 -1.0830 -0.5756 -0.4798
   18CHTO   C27 7500   4.340   9.112   1.891 -0.2916  0.4987 -0.7600
   18CHTO   H55 7501   4.257   9.095   1.961 -0.1967 -0.2625 -0.8281
   18CHTO    N5 7502   4.306   9.233   1.808  0.3070  0.6269 -0.0262
   18CHTO   H43 7503   4.201   9.221   1.785  0.3356 -0.1924  0.2291
   18CHTO   H44 7504   4.311   9.318   1.874  0.7063 -0.7809  1.8190
   18CHTO   C25 7505   4.349   8.986   1.801  0.9952 -0.0843 -0.9412
   18CHTO   H53 7506   4.436   8.993   1.735  0.8349  1.2357 -1.0245
   18CHTO   O17 7507   4.360   8.864   1.877 -0.1847 -0.3961  0.2565
   18CHTO   C32 7508   4.471   8.861   1.973 -0.2687  0.3333 -0.1196
   18CHTO   H60 7509   4.558   8.850   1.908  1.0701  3.1299  1.1358
   18CHTO   C36 7510   4.448   8.726   2.053  0.2017  0.3219  0.2311
   18CHTO   O25 7511   4.325   8.717   2.125  0.3361 -0.3431  0.2034
   18CHTO   H40 7512   4.327   8.632   2.162  1.8089 -1.1784 -1.6844
   18CHTO   O15 7513   4.236   8.961   1.707 -0.6367  0.6823  0.2310
   18CHTO   C19 7514   4.240   8.884   1.580 -0.9444 -0.1222 -0.2214
   18CHTO   H47 7515   4.139   8.883   1.537 -0.5374  1.1810 -1.2461
   18CHTO   C20 7516   4.340   8.937   1.477 -0.0435  0.3090  0.0858
   18CHTO   H48 7517   4.442   8.940   1.517 -0.0434  3.3523 -0.0728
   18CHTO   O19 7518   4.289   9.061   1.439  0.1214  0.1882 -0.2176
   18CHTO   H35 7519   4.357   9.105   1.393  0.9398 -0.1600  0.6531
   18CHTO   C21 7520   4.365   8.843   1.350  0.0731  1.0846  0.1542
   18CHTO   H49 7521   4.273   8.832   1.292  1.7533 -0.4945 -2.3283
   18CHTO    N4 7522   4.475   8.889   1.263 -0.0892 -0.4553 -0.9506
   18CHTO   H41 7523   4.428   8.920   1.171 -0.3330  2.1606  0.0112
   18CHTO   H42 7524   4.555   8.818   1.250 -0.9868 -1.5858 -0.4400
   18CHTO   C22 7525   4.382   8.690   1.386 -0.3338 -0.2709  0.1476
   18CHTO   H50 7526   4.479   8.662   1.427 -0.4604 -3.2472 -1.4024
   18CHTO   O14 7527   4.285   8.654   1.489  0.0213  0.4045 -0.3024
   18CHTO   C23 7528   4.279   8.737   1.611 -0.1563  0.0094  0.1957
   18CHTO   H51 7529   4.373   8.727   1.667  0.8742  1.3122 -1.2718
   18CHTO   C34 7530   4.167   8.676   1.700 -0.1656 -0.7922 -0.0681
   18CHTO   O23 7531   4.045   8.670   1.629 -0.3993  0.5162 -0.3602
   18CHTO   H38 7532   3.973   8.649   1.685 -0.7660  0.4353 -0.8641
   18CHTO   O16 7533   4.353   8.600   1.278  0.4480 -0.0049  0.3393
   18CHTO   C24 7534   4.484   8.512   1.209  0.0708 -0.6040 -0.5275
   18CHTO   H52 7535   4.579   8.554   1.242 -0.1563 -0.7545  0.3233
   18CHTO   C26 7536   4.476   8.504   1.053 -0.1034 -0.3769 -0.2836
   18CHTO   H54 7537   4.380   8.457   1.023 -0.8517 -0.5145  2.1892
   18CHTO   O20 7538   4.473   8.643   1.016  0.2016  0.1659  0.3011
   18CHTO   H36 7539   4.560   8.674   1.001  0.8745 -0.9199  1.9949
   18CHTO   C30 7540   4.584   8.418   0.984  0.4390  0.2395  0.5304
   18CHTO   H58 7541   4.681   8.462   1.012 -0.2130 -0.0600  3.4052
   18CHTO    N6 7542   4.560   8.402   0.835  0.0603  0.1810 -0.1922
   18CHTO   H45 7543   4.468   8.347   0.821 -0.1992  0.2054  1.3141
   18CHTO   H46 7544   4.636   8.364   0.769  0.9360  0.1731  0.8073
   18CHTO   C33 7545   4.582   8.279   1.050  0.0686 -0.3590 -0.1405
   18CHTO   H61 7546   4.487   8.230   1.026 -0.3024  0.4858 -0.3938
   18CHTO   O18 7547   4.587   8.294   1.194  0.3507 -0.3177 -0.6593
   18CHTO   C28 7548   4.484   8.370   1.260 -0.5417  0.3085  0.0662
   18CHTO   H56 7549   4.385   8.327   1.250 -0.8561  0.9283  0.4947
   18CHTO   C35 7550   4.521   8.369   1.407  0.0013  0.6920  0.4036
   18CHTO   O24 7551   4.413   8.398   1.495 -0.1799  0.2169  0.2066
   18CHTO   H39 7552   4.448   8.440   1.572 -1.4645  1.4754  0.1288
   18CHTO    O9 7553   4.678   8.185   1.000  0.0232  0.0148 -0.0828
   18CHTO   C13 7554   4.799   8.122   1.090 -0.3411 -0.1022 -0.1767
   18CHTO   H26 7555   4.749   8.062   1.169  1.3654  0.3654  1.2896
   18CHTO   C11 7556   4.888   8.242   1.153  0.2666  0.5051 -0.2430
   18CHTO   H24 7557   4.834   8.295   1.233 -2.0313 -2.0567  0.0020
   18CHTO    O8 7558   4.915   8.343   1.055 -0.0290  0.4812 -0.3545
   18CHTO    H3 7559   4.974   8.309   0.991 -1.9638 -3.3529 -0.2016
   18CHTO    C9 7560   5.002   8.182   1.231  0.4918  0.2034  0.6529
   18CHTO   H22 7561   4.958   8.115   1.306  1.7496  0.4742  1.6678
   18CHTO    N2 7562   5.085   8.268   1.319  0.2722  0.2657  0.2245
   18CHTO   H10 7563   5.132   8.349   1.264 -2.0590  0.1724 -1.9996
   18CHTO   H11 7564   5.027   8.312   1.399  2.3595  2.6257  0.5293
   18CHTO    C7 7565   5.090   8.100   1.123  0.2232  0.8131  0.6035
   18CHTO   H20 7566   5.172   8.053   1.181  0.9656  1.2619 -0.0809
   18CHTO    O4 7567   5.014   7.992   1.062 -0.6150 -0.1305  0.0665
   18CHTO   C14 7568   4.885   8.025   1.002  0.1841 -0.1965  0.0784
   18CHTO   H27 7569   4.820   7.936   0.996 -0.3721  0.0141  2.6232
   18CHTO   C18 7570   4.903   8.077   0.852  0.2987  0.0240  0.4748
   18CHTO   O13 7571   4.780   8.102   0.777  0.2393 -0.2006 -0.0711
   18CHTO    H7 7572   4.767   8.031   0.718 -2.1794 -0.4163  0.6754
   18CHTO    O2 7573   5.154   8.200   1.007  0.2341  0.4183  0.1737
   18CHTO    C1 7574   5.291   8.185   0.966 -0.0120  0.5135  0.3351
   18CHTO   H14 7575   5.302   8.236   0.868 -0.1173  0.2579  0.1909
   18CHTO    C2 7576   5.355   8.038   0.944 -0.9066 -0.4945 -0.2810
   18CHTO   H15 7577   5.342   7.981   1.037 -1.3552 -1.2233 -0.7837
   18CHTO    O6 7578   5.283   7.958   0.849 -0.9003 -0.1421  0.3849
   18CHTO    H1 7579   5.321   7.872   0.843  0.5154  0.4127  1.2601
   18CHTO    C3 7580   5.514   8.039   0.916  0.2870 -0.2161 -0.8243
   18CHTO   H16 7581   5.531   8.083   0.816 -2.4123  1.5430 -0.5773
   18CHTO    N1 7582   5.577   7.905   0.913  0.0053 -0.1004 -0.4716
   18CHTO    H8 7583   5.515   7.836   0.968  1.2792 -0.2060  0.8738
   18CHTO    H9 7584   5.679   7.901   0.948  0.6851  0.1926 -2.3168
   18CHTO    C4 7585   5.580   8.135   1.016 -0.0579  1.1034  0.1678
   18CHTO   H17 7586   5.577   8.093   1.117  1.9897  1.5200  0.4404
   18CHTO    O1 7587   5.514   8.262   1.016  0.8100 -0.5665 -0.7123
   18CHTO    C5 7588   5.378   8.268   1.066 -1.1799  0.1936 -0.3623
   18CHTO   H18 7589   5.369   8.212   1.159 -1.4766 -2.3865 -1.8839
   18CHTO   C16 7590   5.336   8.412   1.075  0.3440  0.7358  0.5134
   18CHTO   O11 7591   5.414   8.487   1.168  0.0763 -0.2197 -1.2570
   18CHTO    H5 7592   5.403   8.580   1.155  0.5824  0.2974  1.5770
   18CHTO    O3 7593   5.714   8.164   0.973  0.2201  0.2708  0.0618
   18CHTO    C6 7594   5.821   8.149   1.075  0.3848 -0.3414 -0.5941
   18CHTO   H19 7595   5.790   8.210   1.160  0.6530 -0.3102 -0.5163
   18CHTO    C8 7596   5.854   8.003   1.124  0.3695  0.5965  0.5367
   18CHTO   H21 7597   5.855   7.940   1.035 -1.0799  1.3561 -0.0368
   18CHTO    O7 7598   5.734   7.970   1.202  0.5161  0.2445  0.0924
   18CHTO    H2 7599   5.659   7.997   1.154 -0.1538 -0.8375  0.5123
   18CHTO   C12 7600   5.992   8.008   1.208  0.1092  1.5508  0.1631
   18CHTO   H25 7601   5.978   8.056   1.307  1.2804 -0.3948  1.3159
   18CHTO    N3 7602   6.017   7.864   1.244  0.0025  0.0870  0.4637
   18CHTO   H12 7603   6.036   7.848   1.350 -2.2371  0.6281  0.9671
   18CHTO   H13 7604   6.093   7.834   1.174 -0.1122 -0.8482  0.7283
   18CHTO   C15 7605   6.097   8.083   1.123 -0.0274 -0.9803 -0.5922
   18CHTO   H28 7606   6.113   8.042   1.023 -0.8207 -0.8031 -0.7953
   18CHTO   O10 7607   6.238   8.088   1.184 -0.0437  0.0585  0.0678
   18CHTO    H4 7608   6.296   8.149   1.143  1.1877 -0.3805  1.1089
   18CHTO    O5 7609   6.052   8.219   1.109  0.1445 -0.2243  0.5795
   18CHTO   C10 7610   5.946   8.215   1.014 -0.3016 -0.6694 -0.0421
   18CHTO   H23 7611   5.962   8.172   0.915  0.3776 -0.3381 -0.0859
   18CHTO   C17 7612   5.916   8.365   0.988 -0.0072 -0.0831  0.4109
   18CHTO   O12 7613   6.009   8.431   0.900 -0.1495 -0.2883  0.0186
   18CHTO    H6 7614   6.071   8.489   0.940  0.4622  0.3153 -1.7650
   19CHTO  H203 7615   5.234  10.143   0.309  0.6882  0.3480  1.1541
   19CHTO   O82 7616   5.180  10.077   0.347  0.2817 -0.1643 -0.2803
   19CHTO  C123 7617   5.119   9.995   0.247  0.0871  0.3287 -0.2893
   19CHTO  H227 7618   5.097  10.054   0.156 -0.4268  1.2602  0.4261
   19CHTO   O77 7619   5.221   9.895   0.214 -0.3549 -0.0243 -0.7360
   19CHTO  C118 7620   5.187   9.801   0.107 -0.6593 -0.1721  0.0884
   19CHTO  H222 7621   5.150   9.868   0.028  2.1432 -0.1936 -1.3071
   19CHTO  C125 7622   5.312   9.721   0.051  0.3399 -0.1555 -0.5904
   19CHTO   O84 7623   5.376   9.654   0.162  0.2149 -0.5918  0.1078
   19CHTO  H205 7624   5.395   9.717   0.228  2.1792 -1.2931  0.2515
   19CHTO  C114 7625   5.069   9.713   0.149 -0.3705  0.4086 -0.4050
   19CHTO  H218 7626   5.098   9.651   0.234  0.6517 -0.0319 -1.0636
   19CHTO  C116 7627   4.948   9.808   0.184 -0.2242  0.0759 -0.1154
   19CHTO  H220 7628   4.914   9.852   0.088  0.4591  0.5802 -0.1300
   19CHTO   O79 7629   4.840   9.733   0.225  0.0636 -0.2522  0.1580
   19CHTO  H201 7630   4.811   9.680   0.153 -0.7680  0.8303 -0.3141
   19CHTO  C120 7631   4.987   9.919   0.296  0.4126  0.3143 -0.3512
   19CHTO  H224 7632   4.995   9.869   0.394 -1.4169 -0.9020 -0.7986
   19CHTO   N21 7633   4.871  10.016   0.306  0.3241 -0.4437  0.0930
   19CHTO  H211 7634   4.778   9.960   0.302 -0.1904  0.4380 -0.3805
   19CHTO  H212 7635   4.874  10.082   0.392  1.6084 -1.0106  0.4942
   19CHTO   O75 7636   5.047   9.633   0.036 -0.2461 -0.2290  1.0773
   19CHTO  C112 7637   5.040   9.469   0.072  0.3160 -0.3982  0.2065
   19CHTO  H216 7638   4.982   9.455   0.164 -1.8841 -0.7962 -1.1910
   19CHTO   O73 7639   5.173   9.419   0.080 -0.2289 -0.7197 -0.0694
   19CHTO  C113 7640   5.196   9.276   0.098  0.5339 -0.2955  0.3519
   19CHTO  H217 7641   5.144   9.230   0.185  0.7495 -2.0272 -0.4050
   19CHTO  C124 7642   5.344   9.251   0.122 -1.3453 -0.9446 -0.5314
   19CHTO   O83 7643   5.370   9.335   0.238  0.4837  0.2799 -0.0010
   19CHTO  H204 7644   5.445   9.389   0.222  0.8704 -0.4855 -0.8251
   19CHTO  C109 7645   5.144   9.202  -0.028 -0.2676 -0.4711  0.1592
   19CHTO  H213 7646   5.206   9.237  -0.112  0.6016 -1.0558  0.5665
   19CHTO  C110 7647   4.989   9.246  -0.037  0.2171  0.3086 -0.1971
   19CHTO  H214 7648   4.932   9.205   0.046 -0.5468 -1.7405 -1.6904
   19CHTO   O78 7649   4.945   9.194  -0.166  0.2652  0.1455 -0.1970
   19CHTO  H200 7650   4.940   9.100  -0.171 -0.6060  0.2397 -1.1860
   19CHTO  C111 7651   4.967   9.402  -0.044 -0.0494  0.7522 -0.0267
   19CHTO  H215 7652   5.021   9.438  -0.133  1.0233 -2.8046 -0.8980
   19CHTO   N19 7653   4.828   9.443  -0.064 -0.4863 -0.0916 -0.2271
   19CHTO  H207 7654   4.817   9.473  -0.167  1.5732  1.4668 -0.0176
   19CHTO  H208 7655   4.760   9.359  -0.069  1.3780 -1.6295 -0.2515
   19CHTO   O74 7656   5.160   9.053  -0.010 -0.5081  0.1085  0.1440
   19CHTO  C115 7657   5.164   8.971  -0.149 -0.1376 -0.5386  0.5588
   19CHTO  H219 7658   5.087   9.010  -0.216 -2.2328 -2.6504  1.6549
   19CHTO   O76 7659   5.305   9.002  -0.229 -0.0986  0.0730 -0.1126
   19CHTO  C122 7660   5.407   8.926  -0.163  0.4981 -0.3832  0.1133
   19CHTO  H226 7661   5.426   8.972  -0.066  0.7736 -0.4543  0.0946
   19CHTO  C126 7662   5.538   8.956  -0.246  0.8306 -0.0768  0.0005
   19CHTO   O85 7663   5.523   8.894  -0.375 -0.6510 -0.0124 -0.5989
   19CHTO  H206 7664   5.455   8.937  -0.423  0.0633  0.8329 -0.8788
   19CHTO  C121 7665   5.382   8.766  -0.158  0.6261 -0.2169  0.3786
   19CHTO  H225 7666   5.450   8.709  -0.224 -0.4772 -1.2331  0.1161
   19CHTO   O81 7667   5.420   8.728  -0.027  0.0235  0.3498  0.2572
   19CHTO  H202 7668   5.509   8.751  -0.008  0.8190 -2.4321  0.2480
   19CHTO  C119 7669   5.233   8.718  -0.189  0.0719 -0.5646  0.4172
   19CHTO  H223 7670   5.219   8.728  -0.297 -3.0620  2.0277  0.9710
   19CHTO  C117 7671   5.136   8.820  -0.120  0.0726  0.1992 -0.2479
   19CHTO  H221 7672   5.136   8.821  -0.011 -3.4138 -0.7763 -0.1904
   19CHTO   N20 7673   4.991   8.791  -0.154 -0.7185 -0.2103 -0.7567
   19CHTO  H209 7674   4.962   8.697  -0.109  0.9603  0.8372  2.6923
   19CHTO  H210 7675   4.989   8.784  -0.262  0.5598 -0.9609 -0.7461
   19CHTO   O80 7676   5.201   8.570  -0.168 -0.1317 -0.0853 -0.3491
   19CHTO  C103 7677   5.233   8.482  -0.269 -0.3209  0.2188  0.2007
   19CHTO  H190 7678   5.234   8.530  -0.367 -2.0690 -1.7713 -0.8359
   19CHTO  C101 7679   5.356   8.389  -0.242 -0.1716 -0.5480  0.0731
   19CHTO  H188 7680   5.350   8.369  -0.135  0.8947 -1.4965 -0.0235
   19CHTO   O68 7681   5.472   8.466  -0.274  0.2623 -0.3083  0.2145
   19CHTO  H168 7682   5.549   8.436  -0.231 -0.7167 -2.1209  0.7759
   19CHTO   C99 7683   5.366   8.249  -0.325 -0.0075 -0.4083 -0.3296
   19CHTO  H186 7684   5.383   8.269  -0.433 -3.8532 -2.1203 -1.3608
   19CHTO   N17 7685   5.478   8.163  -0.273  0.2520  1.2575  0.4550
   19CHTO  H174 7686   5.570   8.218  -0.278  1.1130 -0.0302  1.8779
   19CHTO  H175 7687   5.465   8.131  -0.171  1.8073 -0.9893 -0.0262
   19CHTO   C97 7688   5.228   8.182  -0.316 -0.0254  0.0616 -0.0040
   19CHTO  H184 7689   5.201   8.138  -0.219 -1.0503  0.6713 -0.0045
   19CHTO   O64 7690   5.132   8.283  -0.357 -0.5435  0.2249  0.0087
   19CHTO  C104 7691   5.110   8.392  -0.266  0.1128  1.5588  0.7506
   19CHTO  H191 7692   5.089   8.365  -0.163 -1.3766 -0.0401  0.0553
   19CHTO  C108 7693   4.978   8.446  -0.318 -0.0009  0.0992  0.8456
   19CHTO   O71 7694   4.864   8.377  -0.251 -0.1534 -0.0359 -0.3054
   19CHTO  H171 7695   4.874   8.284  -0.248  2.1709  0.2058  1.2365
   19CHTO   O62 7696   5.204   8.087  -0.418 -0.6622  0.1374 -0.0456
   19CHTO   C91 7697   5.088   8.005  -0.396 -0.0066  0.6600 -0.3705
   19CHTO  H178 7698   5.025   8.057  -0.324  1.6304  0.3420  1.3541
   19CHTO   C92 7699   5.129   7.869  -0.327 -0.0741  0.2203 -0.4186
   19CHTO  H179 7700   5.204   7.822  -0.393 -0.2946 -1.2730  0.3684
   19CHTO   O66 7701   5.191   7.895  -0.200 -0.8222 -1.6383 -0.2730
   19CHTO  H166 7702   5.131   7.949  -0.152  0.5982  1.5119 -1.8874
   19CHTO   C93 7703   5.010   7.773  -0.302 -0.1695  0.0005  0.3467
   19CHTO  H180 7704   4.958   7.811  -0.214  1.1636  2.1922  0.2223
   19CHTO   N16 7705   5.048   7.633  -0.262 -0.1373  0.3297 -0.1585
   19CHTO  H172 7706   4.961   7.579  -0.228  1.2888 -1.1329  1.2972
   19CHTO  H173 7707   5.134   7.638  -0.198  0.6429  0.4875 -1.2064
   19CHTO   C94 7708   4.914   7.772  -0.425  0.0352 -0.3919  0.3516
   19CHTO  H181 7709   4.954   7.708  -0.503  3.4956 -0.1516  1.8405
   19CHTO   O61 7710   4.882   7.903  -0.472 -0.0579 -0.5342 -0.1526
   19CHTO   C95 7711   4.997   7.971  -0.516  0.6108 -0.0971 -0.1593
   19CHTO  H182 7712   5.050   7.906  -0.585 -1.3280 -0.7315 -1.0977
   19CHTO  C106 7713   4.958   8.095  -0.602 -0.1022 -0.8042  0.0468
   19CHTO   O69 7714   4.923   8.059  -0.743  0.7956  0.6232  0.6317
   19CHTO  H169 7715   4.838   8.089  -0.771 -0.9088 -4.9442 -0.9209
   19CHTO   O63 7716   4.759   7.691  -0.360 -0.0988  0.4503 -0.3488
   19CHTO   C96 7717   4.700   7.631  -0.488  0.1687  0.1492 -0.2944
   19CHTO  H183 7718   4.785   7.583  -0.538  0.3908  0.3044 -0.0640
   19CHTO   C98 7719   4.636   7.723  -0.598  0.1189  0.5166 -0.5442
   19CHTO  H185 7720   4.712   7.797  -0.625  0.7866  0.0589  0.0296
   19CHTO   O67 7721   4.608   7.641  -0.715 -0.1110 -0.1763 -0.4465
   19CHTO  H167 7722   4.589   7.693  -0.791  1.3832 -1.8699 -2.0374
   19CHTO  C102 7723   4.500   7.792  -0.542 -0.2335 -0.2878  0.3121
   19CHTO  H189 7724   4.462   7.845  -0.631 -0.5225  0.5841  0.9494
   19CHTO   N18 7725   4.518   7.900  -0.441 -0.1441 -0.0726 -0.7642
   19CHTO  H176 7726   4.596   7.870  -0.373  1.4944  0.8768 -2.1751
   19CHTO  H177 7727   4.554   7.987  -0.494 -0.1915 -0.0801 -0.8088
   19CHTO  C105 7728   4.407   7.676  -0.492 -0.7104 -0.0781 -0.5500
   19CHTO  H192 7729   4.392   7.690  -0.385 -0.5989  0.8634 -0.6536
   19CHTO   O65 7730   4.463   7.543  -0.505 -0.0421 -0.1257 -0.3887
   19CHTO  C100 7731   4.591   7.522  -0.445 -0.4547  1.1736 -0.0628
   19CHTO  H187 7732   4.578   7.528  -0.336 -0.7561 -1.2500  0.0483
   19CHTO  C107 7733   4.627   7.368  -0.472 -0.0743 -1.0271 -0.3065
   19CHTO   O70 7734   4.754   7.337  -0.418  0.2548 -0.3957  0.4362
   19CHTO  H170 7735   4.747   7.255  -0.373 -0.4063 -0.1468  0.7823
   19CHTO   O57 7736   4.279   7.685  -0.575  0.0180 -0.4829  0.5737
   19CHTO   C85 7737   4.169   7.594  -0.551  0.3295  0.2697  0.7708
   19CHTO  H157 7738   4.216   7.505  -0.505  1.0127  0.2508  0.0425
   19CHTO   C83 7739   4.111   7.550  -0.685  0.2208 -0.6495  0.4959
   19CHTO  H155 7740   4.187   7.499  -0.744 -1.5738 -0.2155 -2.2616
   19CHTO   O56 7741   4.083   7.667  -0.767  0.5108  0.6362 -0.2957
   19CHTO  H135 7742   4.077   7.636  -0.855  1.2466  1.8298 -0.7928
   19CHTO   C81 7743   3.989   7.457  -0.670 -0.0988 -0.2346 -0.3546
   19CHTO  H153 7744   4.021   7.373  -0.609  1.9889  1.5691  1.1584
   19CHTO   N14 7745   3.951   7.410  -0.812  0.1100 -0.1756  0.1142
   19CHTO  H141 7746   4.031   7.370  -0.871 -0.7512 -0.5870 -0.8019
   19CHTO  H142 7747   3.874   7.335  -0.819  0.2332 -0.2233 -0.8177
   19CHTO   C79 7748   3.878   7.540  -0.598 -0.2219  0.0267 -0.2946
   19CHTO  H151 7749   3.790   7.477  -0.594 -1.1598  1.3370 -0.1561
   19CHTO   O52 7750   3.924   7.579  -0.459  0.2469 -0.7546 -0.3142
   19CHTO   C86 7751   4.051   7.657  -0.457  0.1291  0.8440  0.0317
   19CHTO  H158 7752   4.028   7.755  -0.502  0.7271 -0.5320 -3.3956
   19CHTO   C90 7753   4.095   7.670  -0.309  0.8689  0.3129 -0.1171
   19CHTO   O60 7754   4.162   7.793  -0.284  0.3197  0.0410  0.1464
   19CHTO  H138 7755   4.252   7.791  -0.308  0.8497 -0.4386  2.1075
   19CHTO   O50 7756   3.831   7.663  -0.664 -0.1497 -0.2895 -0.0736
   19CHTO   C73 7757   3.711   7.720  -0.722  0.7236 -0.5205 -0.9560
   19CHTO  H145 7758   3.630   7.647  -0.707 -0.5253  1.1873  0.9378
   19CHTO   C74 7759   3.734   7.748  -0.870  0.1744 -0.5411  0.1545
   19CHTO  H146 7760   3.775   7.657  -0.918 -0.1214 -0.9243  0.6248
   19CHTO   O54 7761   3.597   7.753  -0.918 -0.5771 -0.0886  0.1977
   19CHTO  H133 7762   3.594   7.797  -1.001  1.5616 -0.0144  0.1267
   19CHTO   C75 7763   3.830   7.876  -0.901 -0.3587 -0.3319  0.2616
   19CHTO  H147 7764   3.934   7.840  -0.903 -0.0339  0.6165 -0.1863
   19CHTO   N13 7765   3.825   7.927  -1.041  0.5662 -0.3430  0.3588
   19CHTO  H139 7766   3.724   7.947  -1.074  1.0527  3.0926  0.7982
   19CHTO  H140 7767   3.890   8.012  -1.054  1.1095 -0.9113 -0.6986
   19CHTO   C76 7768   3.809   7.992  -0.785 -0.1409  0.5942 -0.4589
   19CHTO  H148 7769   3.718   8.049  -0.806 -0.0940  1.8520  2.4926
   19CHTO   O49 7770   3.792   7.939  -0.651  0.5584  0.3482  0.0995
   19CHTO   C77 7771   3.676   7.855  -0.641 -0.0179  0.3153 -0.2006
   19CHTO  H149 7772   3.587   7.902  -0.682  0.0562  0.2317 -0.4538
   19CHTO   C88 7773   3.653   7.827  -0.492 -0.1066 -0.2652  0.0087
   19CHTO   O58 7774   3.570   7.719  -0.458 -0.1278 -0.1195 -0.5499
   19CHTO  H136 7775   3.488   7.754  -0.428  0.0185 -0.1527 -0.1052
   19CHTO   O51 7776   3.938   8.086  -0.788  0.1328 -0.8514  0.3394
   19CHTO   C78 7777   3.920   8.194  -0.676  0.7119 -1.0814  0.4339
   19CHTO  H150 7778   3.834   8.179  -0.607  1.4453 -1.7365  1.2166
   19CHTO   C80 7779   3.906   8.324  -0.756 -0.2842 -0.3423 -0.1554
   19CHTO  H152 7780   3.989   8.324  -0.830  0.3593  2.5931  0.4981
   19CHTO   O55 7781   3.777   8.337  -0.820 -0.1765  0.1495 -0.0831
   19CHTO  H134 7782   3.729   8.414  -0.795 -0.3545  0.0441 -0.0991
   19CHTO   C84 7783   3.938   8.451  -0.661 -0.3509  0.1196  0.0162
   19CHTO  H156 7784   3.852   8.457  -0.596  0.2467 -0.5111  0.8837
   19CHTO   N15 7785   3.948   8.578  -0.739  0.0359 -0.1294 -0.4821
   19CHTO  H143 7786   3.852   8.597  -0.782 -0.3203 -0.0582  0.3448
   19CHTO  H144 7787   4.027   8.574  -0.812  0.7799  2.0005  0.1587
   19CHTO   C87 7788   4.069   8.425  -0.574  0.1043 -0.5141 -0.2541
   19CHTO  H159 7789   4.157   8.460  -0.628 -1.1491  1.7832 -0.8981
   19CHTO   O53 7790   4.065   8.297  -0.512  0.1610  0.2218 -0.0308
   19CHTO   C82 7791   4.057   8.186  -0.599  0.6717 -0.4729  0.7168
   19CHTO  H154 7792   4.146   8.192  -0.663 -0.8774 -2.8517 -1.7887
   19CHTO   C89 7793   4.069   8.057  -0.512 -0.7265  0.3239 -0.1561
   19CHTO   O59 7794   4.203   8.007  -0.483  0.2561  0.3293 -0.0137
   19CHTO  H137 7795   4.239   8.068  -0.421 -0.2802  1.1416 -0.4862
   19CHTO   O45 7796   4.089   8.533  -0.439 -0.1874 -0.0873 -0.0799
   19CHTO   C67 7797   3.969   8.553  -0.358  0.8333  0.2546  0.0666
   19CHTO  H124 7798   3.877   8.555  -0.416 -0.6976 -1.8509  2.3386
   19CHTO   C65 7799   3.951   8.445  -0.246 -0.3969  0.5015 -0.9883
   19CHTO  H122 7800   4.050   8.405  -0.225 -1.0508 -1.6892 -1.8862
   19CHTO   O44 7801   3.871   8.341  -0.306 -0.5695 -0.2660 -0.5882
   19CHTO  H102 7802   3.881   8.267  -0.250 -0.5111 -0.2769 -0.6130
   19CHTO   C63 7803   3.900   8.491  -0.101 -0.2943 -0.0045 -0.0298
   19CHTO  H120 7804   3.990   8.509  -0.042  0.8645 -1.0734 -1.4213
   19CHTO   N11 7805   3.844   8.378  -0.011 -0.0153 -0.0116 -0.3351
   19CHTO  H108 7806   3.837   8.416   0.088  1.1183 -3.1028  1.0190
   19CHTO  H109 7807   3.750   8.337  -0.043  0.7330 -2.3095  0.2589
   19CHTO   C61 7808   3.814   8.624  -0.121  0.5449 -0.0414 -0.1524
   19CHTO  H118 7809   3.794   8.668  -0.022 -0.5686 -1.8899  0.4775
   19CHTO   O40 7810   3.873   8.732  -0.204 -0.3172  0.3651 -0.5819
   19CHTO   C68 7811   3.980   8.697  -0.299 -0.2705 -0.2436 -0.0586
   19CHTO  H125 7812   4.074   8.692  -0.240 -0.3520 -0.6437  0.0339
   19CHTO   C72 7813   4.002   8.807  -0.413  0.6167  0.3648 -0.2636
   19CHTO   O48 7814   4.016   8.938  -0.359 -0.2036 -0.1843  0.2466
   19CHTO  H105 7815   4.058   8.992  -0.423 -2.8060  0.8222 -0.6746
   19CHTO   O38 7816   3.682   8.584  -0.167 -0.1051 -0.6105 -0.1406
   19CHTO   C55 7817   3.580   8.685  -0.181 -0.4824  0.3393  0.4491
   19CHTO  H112 7818   3.622   8.786  -0.194  0.5132 -0.0738  0.3867
   19CHTO   C56 7819   3.490   8.681  -0.060 -0.8759  0.4249  0.0099
   19CHTO  H113 7820   3.464   8.576  -0.041  0.0821  0.3018  0.6365
   19CHTO   O42 7821   3.563   8.708   0.063  0.3474 -0.1421  0.0706
   19CHTO  H100 7822   3.623   8.779   0.051  1.8820 -1.3548  0.3644
   19CHTO   C57 7823   3.373   8.778  -0.088 -0.1435 -0.4577  0.1701
   19CHTO  H114 7824   3.410   8.881  -0.092 -0.6930 -0.3247 -2.1348
   19CHTO   N10 7825   3.279   8.775   0.028 -0.1728  0.4353  0.3035
   19CHTO  H106 7826   3.335   8.770   0.120  1.1476 -1.1724 -0.5595
   19CHTO  H107 7827   3.221   8.866   0.032  0.8618  1.0348  1.7365
   19CHTO   C58 7828   3.301   8.748  -0.220 -0.5845 -0.0099  0.4387
   19CHTO  H115 7829   3.250   8.650  -0.211 -0.5941  0.0200  0.7147
   19CHTO   O37 7830   3.397   8.752  -0.328 -0.2646  0.3169  0.6580
   19CHTO   C59 7831   3.502   8.657  -0.317  0.2314  0.3244  1.0277
   19CHTO  H116 7832   3.468   8.554  -0.325  2.1014 -0.2651  0.1794
   19CHTO   C70 7833   3.604   8.670  -0.433  0.3183 -0.4801  0.5436
   19CHTO   O46 7834   3.652   8.800  -0.464 -0.0328 -0.3164 -0.3762
   19CHTO  H103 7835   3.669   8.859  -0.394  1.0089 -1.9013  0.7341
   19CHTO   O39 7836   3.184   8.874  -0.256  0.2351  0.1793  0.1837
   19CHTO   C60 7837   3.171   8.926  -0.389 -0.2490 -0.1518 -0.0870
   19CHTO  H117 7838   3.234   8.873  -0.462  0.5091 -0.8171  1.0318
   19CHTO   C62 7839   3.029   8.915  -0.449  0.4073  0.3832  0.2657
   19CHTO  H119 7840   3.008   8.806  -0.442  1.6471  0.0631 -0.8767
   19CHTO   O43 7841   2.927   8.986  -0.373  0.3045  0.2749 -0.0501
   19CHTO  H101 7842   2.929   8.949  -0.287 -1.7725 -2.0250 -0.9110
   19CHTO   C66 7843   3.027   8.963  -0.603  0.3915 -0.0541 -0.6618
   19CHTO  H123 7844   3.102   8.907  -0.659  1.5447  0.2285  0.5675
   19CHTO   N12 7845   2.901   8.925  -0.671 -0.3393 -0.2532 -0.0609
   19CHTO  H110 7846   2.903   8.943  -0.777  1.2747 -0.7552 -0.1221
   19CHTO  H111 7847   2.812   8.975  -0.634 -0.8885 -0.7952 -0.6290
   19CHTO   C69 7848   3.059   9.114  -0.608 -0.2655  0.4028  0.4315
   19CHTO  H126 7849   2.976   9.165  -0.554 -0.1378 -1.1108  2.1047
   19CHTO   O41 7850   3.194   9.144  -0.542 -0.0300  0.2867  0.3270
   19CHTO   C64 7851   3.207   9.078  -0.393  1.1273  0.9675 -0.4177
   19CHTO  H121 7852   3.146   9.139  -0.323  1.2836  1.6104 -0.8397
   19CHTO   C71 7853   3.351   9.093  -0.344  0.9886  0.0013  0.2765
   19CHTO   O47 7854   3.439   9.045  -0.452  0.5006 -0.1686 -0.1432
   19CHTO  H104 7855   3.471   9.114  -0.508  1.9401  1.0822  2.1600
   19CHTO   O34 7856   3.069   9.155  -0.757 -0.0290  0.0680  0.4651
   19CHTO   C49 7857   3.225   9.192  -0.842  0.2738 -0.4182 -0.7737
   19CHTO   H91 7858   3.251   9.297  -0.830  0.4039 -0.4558 -0.7338
   19CHTO   C47 7859   3.182   9.184  -0.990 -0.1031 -0.2237 -0.5410
   19CHTO   H89 7860   3.266   9.215  -1.055  1.8846 -2.3063  0.9278
   19CHTO   O33 7861   3.065   9.270  -1.011  0.3399  0.4409  0.1752
   19CHTO   H70 7862   3.095   9.359  -1.017 -0.9985  0.8745 -0.1670
   19CHTO   C45 7863   3.133   9.030  -1.028  0.5285 -0.2243  0.5254
   19CHTO   H87 7864   3.049   8.996  -0.965 -0.4564 -1.6380 -1.4614
   19CHTO    N8 7865   3.086   9.026  -1.171 -0.0649 -1.0320 -0.0789
   19CHTO   H75 7866   3.175   9.031  -1.233 -0.3857 -2.3323 -0.6549
   19CHTO   H76 7867   3.022   9.110  -1.191 -0.3893 -0.6991  2.1765
   19CHTO   C43 7868   3.257   8.938  -1.005 -0.0683  0.1254  0.4721
   19CHTO   H85 7869   3.228   8.834  -1.015 -0.9248  0.2324  1.7308
   19CHTO   O29 7870   3.311   8.965  -0.874 -0.4287 -0.0948  0.1912
   19CHTO   C50 7871   3.337   9.095  -0.828  0.3228  0.2362 -0.6670
   19CHTO   H92 7872   3.365   9.089  -0.722 -1.0020  0.0725 -0.3127
   19CHTO   C54 7873   3.466   9.166  -0.874  0.5741 -0.2507  0.2964
   19CHTO   O36 7874   3.584   9.102  -0.837  0.3324  0.3524  0.5408
   19CHTO   H72 7875   3.661   9.152  -0.856  0.1980  0.2636 -0.2708
   19CHTO   O27 7876   3.369   8.944  -1.094  0.2074  0.0521 -0.4938
   19CHTO   C37 7877   3.428   8.846  -1.179  0.3415 -0.6901  0.6750
   19CHTO   H79 7878   3.352   8.768  -1.194  1.7822 -1.5210 -2.6102
   19CHTO   C38 7879   3.451   8.905  -1.312  0.5675 -0.8479  0.0118
   19CHTO   H80 7880   3.520   8.990  -1.300 -0.3690  0.2554 -2.1344
   19CHTO   O31 7881   3.336   8.950  -1.375  0.5385  0.4081 -0.1853
   19CHTO   H68 7882   3.307   9.033  -1.342  1.6048  0.8992 -0.4590
   19CHTO   C39 7883   3.516   8.795  -1.408 -0.3927 -0.3031  0.6453
   19CHTO   H81 7884   3.435   8.726  -1.432 -0.1512 -0.4823  0.3473
   19CHTO    N7 7885   3.567   8.853  -1.536  0.2028  0.4668  0.2597
   19CHTO   H73 7886   3.656   8.911  -1.516 -0.1459  1.0896  0.0112
   19CHTO   H74 7887   3.498   8.927  -1.571  1.6007  2.3744  1.4538
   19CHTO   C40 7888   3.629   8.714  -1.334  0.1519 -0.1612 -0.0875
   19CHTO   H82 7889   3.724   8.766  -1.332 -1.1545  2.2974  1.0840
   19CHTO   O26 7890   3.585   8.671  -1.202  0.0321 -0.0418 -0.4071
   19CHTO   C41 7891   3.555   8.784  -1.115  0.9378 -0.0523 -0.2473
   19CHTO   H83 7892   3.635   8.860  -1.115  2.0841 -1.1765 -3.1372
   19CHTO   C52 7893   3.547   8.738  -0.969 -0.2641  0.3484  0.4565
   19CHTO   O35 7894   3.666   8.670  -0.928 -0.0720 -0.2494  0.1723
   19CHTO   H71 7895   3.658   8.607  -0.859  0.1025  0.1543  0.5579
   19CHTO   O28 7896   3.662   8.594  -1.402  0.3903  0.3955 -0.1348
   19CHTO   C42 7897   3.792   8.529  -1.383  0.2953  0.0034 -0.9567
   19CHTO   H84 7898   3.835   8.585  -1.299  0.4549 -0.8599 -0.4640
   19CHTO   C44 7899   3.884   8.546  -1.504  0.3174 -0.5911  0.0066
   19CHTO   H86 7900   3.834   8.498  -1.589 -2.4723  0.3687  1.0712
   19CHTO   O32 7901   3.904   8.683  -1.525  0.6720  0.3038  0.1365
   19CHTO   H69 7902   3.837   8.719  -1.580  0.5874  1.8078  1.2099
   19CHTO   C48 7903   4.022   8.467  -1.499  0.4496  0.4003 -1.1148
   19CHTO   H90 7904   4.085   8.515  -1.424 -0.1336  1.4366 -1.2749
   19CHTO    N9 7905   4.098   8.474  -1.628 -0.0495  0.3847 -0.7245
   19CHTO   H77 7906   4.204   8.455  -1.627 -0.1020 -0.2838 -3.4817
   19CHTO   H78 7907   4.072   8.561  -1.688 -0.4650 -0.0023 -1.1022
   19CHTO   C51 7908   3.996   8.315  -1.455 -0.4019  0.1384 -0.0309
   19CHTO   H93 7909   3.945   8.257  -1.531  0.7618 -0.2482 -0.5249
   19CHTO   O30 7910   3.922   8.317  -1.334 -0.2125 -0.1979  0.1726
   19CHTO   C46 7911   3.785   8.374  -1.343  0.0775 -0.8037  0.0902
   19CHTO   H88 7912   3.722   8.322  -1.414  1.0036  0.0317 -1.3648
   19CHTO   C53 7913   3.722   8.352  -1.202 -0.7344 -0.5083  0.1854
   19CHTO   O72 7914   3.577   8.348  -1.215 -0.3354 -0.5583 -0.0600
   19CHTO  H199 7915   3.555   8.382  -1.299 -1.9231 -1.9901 -0.2484
   19CHTO   O22 7916   4.119   8.250  -1.423 -0.0286 -0.1002 -0.1292
   19CHTO   C31 7917   4.158   8.117  -1.475  0.4162 -0.1480 -0.3488
   19CHTO   H59 7918   4.067   8.053  -1.480  1.0236 -1.3996  3.1030
   19CHTO   C29 7919   4.229   8.106  -1.606  0.5654  0.1116  0.0317
   19CHTO   H57 7920   4.318   8.170  -1.599  0.1153  0.7360  0.2020
   19CHTO   O21 7921   4.142   8.155  -1.706 -0.2420  0.2838 -0.0975
   19CHTO   H37 7922   4.127   8.247  -1.703 -0.4113  0.2297  0.7401
   19CHTO   C27 7923   4.261   7.955  -1.636 -0.1761 -0.0819  0.9922
   19CHTO   H55 7924   4.166   7.900  -1.645  0.6776 -1.2470 -1.1284
   19CHTO    N5 7925   4.335   7.939  -1.769  0.2755 -0.2605 -0.2136
   19CHTO   H43 7926   4.353   7.836  -1.798 -0.7014 -0.6116  0.3940
   19CHTO   H44 7927   4.426   7.996  -1.757  1.2526 -1.7377 -0.5148
   19CHTO   C25 7928   4.339   7.882  -1.521  0.4961 -0.4786  1.1216
   19CHTO   H53 7929   4.442   7.920  -1.520 -0.4830  2.5739 -2.0525
   19CHTO   O17 7930   4.266   7.918  -1.398  0.1281  0.5397 -0.1766
   19CHTO   C32 7931   4.239   8.053  -1.365  0.1478 -0.2057 -0.3061
   19CHTO   H60 7932   4.331   8.107  -1.347 -0.1991  1.1228 -2.2413
   19CHTO   C36 7933   4.167   8.040  -1.227  0.4536 -0.0676 -0.3591
   19CHTO   O25 7934   4.142   8.166  -1.160  0.1459 -0.3027 -0.2024
   19CHTO   H40 7935   4.121   8.243  -1.210 -3.6781  0.4692  2.3225
   19CHTO   O15 7936   4.354   7.727  -1.542 -0.2063  0.8595 -0.2863
   19CHTO   C19 7937   4.398   7.610  -1.619 -0.0773 -1.2196 -0.3566
   19CHTO   H47 7938   4.381   7.650  -1.720  2.0082  2.0738  0.5290
   19CHTO   C20 7939   4.542   7.557  -1.577  0.1169 -0.2808 -0.3692
   19CHTO   H48 7940   4.549   7.532  -1.470  1.0689 -1.2210 -0.6508
   19CHTO   O19 7941   4.632   7.674  -1.593  0.0719  0.4696  0.1846
   19CHTO   H35 7942   4.721   7.650  -1.574 -0.0855  0.6628  1.2033
   19CHTO   C21 7943   4.585   7.446  -1.664  0.5951  0.4420  0.2562
   19CHTO   H49 7944   4.577   7.474  -1.769 -0.1014 -0.4921  0.0553
   19CHTO    N4 7945   4.724   7.397  -1.633  0.2453  0.1687 -0.0184
   19CHTO   H41 7946   4.756   7.395  -1.530  0.2574  2.0856  0.0321
   19CHTO   H42 7947   4.738   7.297  -1.672  0.3513  0.7999 -1.6442
   19CHTO   C22 7948   4.481   7.334  -1.656 -0.4388  0.0595 -0.6967
   19CHTO   H50 7949   4.489   7.293  -1.555 -0.5315  1.6714 -0.0153
   19CHTO   O14 7950   4.353   7.383  -1.693 -0.3009  0.0438  0.9610
   19CHTO   C23 7951   4.303   7.488  -1.605  0.4969 -0.2469  0.2552
   19CHTO   H51 7952   4.302   7.446  -1.504 -2.0581 -0.8829 -0.0039
   19CHTO   C34 7953   4.159   7.520  -1.650 -0.6155 -0.1370  0.2055
   19CHTO   O23 7954   4.059   7.561  -1.551 -0.4426  0.1849 -0.1948
   19CHTO   H38 7955   4.020   7.490  -1.504 -1.2943  0.2397 -0.8081
   19CHTO   O16 7956   4.490   7.233  -1.759 -0.2434 -0.1311  0.5011
   19CHTO   C24 7957   4.496   7.072  -1.692 -0.0982 -0.2507  0.2462
   19CHTO   H52 7958   4.518   7.072  -1.585 -1.3120  0.3949  0.5116
   19CHTO   C26 7959   4.609   6.994  -1.765 -0.5468  0.0048 -0.2472
   19CHTO   H54 7960   4.599   7.005  -1.875 -2.3664  0.8597 -0.0185
   19CHTO   O20 7961   4.735   7.057  -1.720  0.1068  0.4211 -0.4379
   19CHTO   H36 7962   4.769   7.126  -1.773  1.0403 -0.4319 -0.9923
   19CHTO   C30 7963   4.610   6.841  -1.741 -0.1276  0.2821 -0.1648
   19CHTO   H58 7964   4.639   6.821  -1.636 -1.1307 -3.5947 -0.5323
   19CHTO    N6 7965   4.707   6.774  -1.834  0.0888 -0.5350 -0.0645
   19CHTO   H45 7966   4.677   6.784  -1.937 -0.3365  2.2050  0.2912
   19CHTO   H46 7967   4.725   6.669  -1.812  2.1619 -0.3263 -0.6572
   19CHTO   C33 7968   4.467   6.783  -1.754  0.0759 -0.7275  0.6201
   19CHTO   H61 7969   4.436   6.790  -1.859  1.6014  1.1462  0.2505
   19CHTO   O18 7970   4.379   6.862  -1.674 -0.1705  0.6529  0.4022
   19CHTO   C28 7971   4.359   6.997  -1.713  0.1435 -0.6303 -0.2531
   19CHTO   H56 7972   4.330   7.006  -1.818 -2.2253 -1.4091  0.2924
   19CHTO   C35 7973   4.248   7.063  -1.636 -0.1348  0.2150  0.0628
   19CHTO   O24 7974   4.128   6.986  -1.626  0.2050  0.3217  0.1004
   19CHTO   H39 7975   4.153   6.899  -1.601  0.5704  0.5782  0.6265
   19CHTO    O9 7976   4.452   6.640  -1.720  0.0654 -0.2399  0.0915
   19CHTO   C13 7977   4.333   6.559  -1.802  0.5051 -0.4619  0.0180
   19CHTO   H26 7978   4.337   6.587  -1.909 -2.1828 -0.3715 -0.1010
   19CHTO   C11 7979   4.190   6.604  -1.744 -0.1408  0.2549  0.1081
   19CHTO   H24 7980   4.184   6.709  -1.776  0.6090  0.3961  0.3969
   19CHTO    O8 7981   4.193   6.607  -1.604  0.1922  0.1809  0.3332
   19CHTO    H3 7982   4.175   6.519  -1.577 -1.9147  0.5003  0.0647
   19CHTO    C9 7983   4.084   6.514  -1.811 -0.5335  0.0748  0.3681
   19CHTO   H22 7984   4.100   6.529  -1.918 -1.7988  0.1935  0.1832
   19CHTO    N2 7985   3.947   6.551  -1.793  0.1390 -0.3835  0.0223
   19CHTO   H10 7986   3.932   6.656  -1.811 -3.2571 -0.7742  0.1656
   19CHTO   H11 7987   3.890   6.492  -1.863 -0.3306 -1.4064  1.2302
   19CHTO    C7 7988   4.120   6.366  -1.779 -0.1546  0.3294  0.1236
   19CHTO   H20 7989   4.047   6.303  -1.833  0.8799  1.2458 -2.4304
   19CHTO    O4 7990   4.250   6.316  -1.824 -0.8141 -0.2591 -0.4243
   19CHTO   C14 7991   4.361   6.403  -1.798  0.6764 -0.1849  0.0692
   19CHTO   H27 7992   4.432   6.382  -1.881 -1.1079 -0.5371 -1.4094
   19CHTO   C18 7993   4.430   6.361  -1.666  0.0397 -0.5200 -0.8340
   19CHTO   O13 7994   4.565   6.411  -1.646  0.0882 -0.4614  0.2605
   19CHTO    H7 7995   4.563   6.503  -1.632  0.0552 -0.6971  1.9154
   19CHTO    O2 7996   4.100   6.331  -1.611  0.1748 -0.3091  0.0599
   19CHTO    C1 7997   4.047   6.197  -1.588 -0.6815 -0.4535  0.5555
   19CHTO   H14 7998   4.094   6.119  -1.651 -0.9294 -1.9396  2.1826
   19CHTO    C2 7999   3.882   6.195  -1.602 -0.1383 -0.2498  0.1781
   19CHTO   H15 8000   3.846   6.279  -1.540 -2.0936 -1.2877  0.4915
   19CHTO    O6 8001   3.838   6.209  -1.742  0.2026  0.0190 -0.3365
   19CHTO    H1 8002   3.744   6.207  -1.743  0.1230  2.2565 -0.0998
   19CHTO    C3 8003   3.807   6.061  -1.541 -0.0920 -0.0151 -0.1605
   19CHTO   H16 8004   3.827   5.972  -1.602  0.0547  0.6109 -1.0333
   19CHTO    N1 8005   3.656   6.082  -1.536  0.0097  0.3293 -0.3114
   19CHTO    H8 8006   3.624   6.185  -1.530 -0.7992  0.0866 -0.4093
   19CHTO    H9 8007   3.624   6.041  -1.630 -3.3516 -0.4840  1.1081
   19CHTO    C4 8008   3.876   6.033  -1.401 -0.0862  0.6746  0.2278
   19CHTO   H17 8009   3.847   6.110  -1.330  0.8077  0.6961  0.5887
   19CHTO    O1 8010   4.020   6.021  -1.409  0.0762 -0.1222  0.0209
   19CHTO    C5 8011   4.080   6.143  -1.442  0.7931  0.2167 -0.3721
   19CHTO   H18 8012   4.043   6.223  -1.379  1.9558 -0.8231  1.6765
   19CHTO   C16 8013   4.226   6.130  -1.411  0.0534  0.3311  0.5077
   19CHTO   O11 8014   4.262   6.131  -1.273  0.0816 -0.6370 -0.0447
   19CHTO    H5 8015   4.216   6.202  -1.232 -0.3532 -0.9145 -0.0565
   19CHTO    O3 8016   3.826   5.909  -1.348 -0.2534 -0.3000  0.7634
   19CHTO    C6 8017   3.846   5.879  -1.207 -0.5848  0.5390 -0.0625
   19CHTO   H19 8018   3.925   5.938  -1.161 -0.2341  0.4105 -0.4991
   19CHTO    C8 8019   3.708   5.892  -1.126 -0.2949  0.2970  0.0649
   19CHTO   H21 8020   3.629   5.856  -1.192 -0.4566  0.7720 -0.0039
   19CHTO    O7 8021   3.686   6.035  -1.117  0.0949  0.2324 -0.2119
   19CHTO    H2 8022   3.686   6.077  -1.200  0.2546  0.8558  0.1001
   19CHTO   C12 8023   3.713   5.821  -0.986 -1.0642  0.0328 -0.0286
   19CHTO   H25 8024   3.778   5.890  -0.928  1.8113 -1.0357 -1.8539
   19CHTO    N3 8025   3.587   5.809  -0.920  0.2851 -0.5142 -0.4412
   19CHTO   H12 8026   3.497   5.843  -0.967  1.9657  3.0542 -1.2221
   19CHTO   H13 8027   3.598   5.861  -0.826  0.0944 -1.5549  0.1691
   19CHTO   C15 8028   3.788   5.679  -0.990  0.3286  1.1102  0.3159
   19CHTO   H28 8029   3.730   5.603  -1.042  0.2100  0.6359  1.1485
   19CHTO   O10 8030   3.837   5.617  -0.856 -0.2566  0.1677 -0.6186
   19CHTO    H4 8031   3.921   5.575  -0.868  0.2299  0.2346  2.1778
   19CHTO    O5 8032   3.908   5.695  -1.062 -0.3591 -0.3520 -0.5218
   19CHTO   C10 8033   3.896   5.739  -1.199 -0.4858  0.3629 -0.2399
   19CHTO   H23 8034   3.831   5.669  -1.251  1.2350 -0.3500 -1.4584
   19CHTO   C17 8035   4.032   5.722  -1.270  0.1034 -0.2668 -0.6956
   19CHTO   O12 8036   4.060   5.584  -1.307  0.1831 -0.2787 -0.5165
   19CHTO    H6 8037   4.154   5.575  -1.304  0.5126  2.1691 -1.6533
   20CHTO  H203 8038   4.719   0.875   2.471 -0.1222 -0.8294 -0.3862
   20CHTO   O82 8039   4.805   0.911   2.460 -0.4032  0.1073  0.3667
   20CHTO  C123 8040   4.812   1.051   2.441  0.3609 -0.1731  0.1154
   20CHTO  H227 8041   4.802   1.099   2.539  3.1245 -0.8964  0.7895
   20CHTO   O77 8042   4.947   1.063   2.390  0.1211  0.6402  0.1518
   20CHTO  C118 8043   4.994   1.195   2.370 -0.7310  0.6107  0.2417
   20CHTO  H222 8044   4.966   1.256   2.457  1.3782  1.7023  0.1837
   20CHTO  C125 8045   5.145   1.192   2.358 -0.3856  0.3753 -0.1054
   20CHTO   O84 8046   5.188   1.099   2.262  0.1666  0.2577  0.6449
   20CHTO  H205 8047   5.232   1.035   2.316  0.3721 -1.7303 -1.8082
   20CHTO  C114 8048   4.917   1.241   2.244  0.0270  0.6026 -0.1691
   20CHTO  H218 8049   4.936   1.182   2.155 -2.1158  1.8668 -1.5251
   20CHTO  C116 8050   4.759   1.236   2.270  0.1505 -0.2036  0.3083
   20CHTO  H220 8051   4.727   1.322   2.333  2.0034  0.1481  0.7981
   20CHTO   O79 8052   4.691   1.264   2.151  0.2076  0.1142  0.3210
   20CHTO  H201 8053   4.723   1.219   2.075  0.8987  1.2189 -0.0626
   20CHTO  C120 8054   4.711   1.097   2.330 -0.2596 -0.2813  0.3630
   20CHTO  H224 8055   4.713   1.023   2.247 -0.7145  1.2357 -1.0250
   20CHTO   N21 8056   4.570   1.104   2.367 -0.4533  0.8886  0.4056
   20CHTO  H211 8057   4.554   1.013   2.423  0.0595 -1.7757 -3.5278
   20CHTO  H212 8058   4.567   1.187   2.435 -0.0304  1.1000  0.1744
   20CHTO   O75 8059   4.959   1.378   2.219 -0.4349 -0.1142  0.0450
   20CHTO  C112 8060   5.025   1.408   2.092  0.2947  1.0732  0.3678
   20CHTO  H216 8061   5.021   1.317   2.030  0.0169  3.0983 -2.7056
   20CHTO   O73 8062   5.162   1.439   2.123 -0.2720 -0.1565 -0.2534
   20CHTO  C113 8063   5.242   1.494   2.013 -0.4378  0.5361 -0.5155
   20CHTO  H217 8064   5.247   1.422   1.929  0.2580 -0.0582  0.0284
   20CHTO  C124 8065   5.386   1.492   2.073  0.7219 -0.5992  1.2448
   20CHTO   O83 8066   5.431   1.590   2.173  0.7487 -0.7016 -0.0446
   20CHTO  H204 8067   5.451   1.545   2.252  3.3328  0.1903 -0.1679
   20CHTO  C109 8068   5.195   1.628   1.970 -0.2348 -0.1660  0.2485
   20CHTO  H213 8069   5.210   1.703   2.050  0.4802  1.7765 -1.6586
   20CHTO  C110 8070   5.053   1.616   1.923  0.3517  0.0732 -0.3216
   20CHTO  H214 8071   5.053   1.574   1.822 -1.2923  1.1089 -0.7658
   20CHTO   O78 8072   5.001   1.750   1.912 -0.0292 -0.4045 -0.0056
   20CHTO  H200 8073   5.027   1.800   1.987 -1.5733  0.2930  0.0733
   20CHTO  C111 8074   4.958   1.539   2.019  0.0568 -0.6982  0.6276
   20CHTO  H215 8075   4.936   1.601   2.107  1.7160  1.3118 -0.3335
   20CHTO   N19 8076   4.829   1.498   1.963  0.1347  0.0093  0.1092
   20CHTO  H207 8077   4.777   1.587   1.931  0.5849  0.3659  0.3586
   20CHTO  H208 8078   4.775   1.436   2.032 -0.5691 -0.1336 -0.5672
   20CHTO   O74 8079   5.277   1.676   1.855  0.0729 -0.1541 -0.1349
   20CHTO  C115 8080   5.373   1.814   1.872  0.1145 -0.0046  0.3787
   20CHTO  H219 8081   5.340   1.871   1.959 -0.7879 -1.8317  1.2652
   20CHTO   O76 8082   5.523   1.783   1.891 -0.0615  0.1091  0.4894
   20CHTO  C122 8083   5.578   1.732   1.774  0.1288 -0.2174 -0.3883
   20CHTO  H226 8084   5.513   1.650   1.743 -0.3664 -0.3294  0.8988
   20CHTO  C126 8085   5.730   1.675   1.807  0.7596  0.0406  0.9867
   20CHTO   O85 8086   5.741   1.581   1.910 -0.2524  0.3328  0.0544
   20CHTO  H206 8087   5.828   1.550   1.896 -0.0671  0.8664  0.0024
   20CHTO  C121 8088   5.594   1.840   1.660  0.2632 -0.1710  0.4346
   20CHTO  H225 8089   5.694   1.888   1.664 -0.1282  0.5673  1.5987
   20CHTO   O81 8090   5.581   1.783   1.531  0.4010  0.0124  0.5247
   20CHTO  H202 8091   5.494   1.778   1.495  0.9532  1.8531 -1.1571
   20CHTO  C119 8092   5.489   1.957   1.685  0.2225 -0.4311 -0.6303
   20CHTO  H223 8093   5.538   2.015   1.763  0.4415 -2.9378  1.1670
   20CHTO  C117 8094   5.351   1.904   1.743  0.4801  0.1999  0.4402
   20CHTO  H221 8095   5.284   1.843   1.683  0.8568  0.1069  0.1069
   20CHTO   N20 8096   5.266   2.033   1.781 -0.2201 -0.4723 -0.5026
   20CHTO  H209 8097   5.169   1.999   1.815  0.8620 -3.2043  0.0362
   20CHTO  H210 8098   5.270   2.106   1.703  2.7261  0.4487  0.4399
   20CHTO   O80 8099   5.489   2.068   1.554 -0.5065  0.1367  0.6963
   20CHTO  C103 8100   5.455   2.020   1.402 -0.3980 -0.4988 -0.2759
   20CHTO  H190 8101   5.529   1.950   1.364  1.2353  0.8743  0.3073
   20CHTO  C101 8102   5.317   1.960   1.370  0.7933 -0.0754  0.4838
   20CHTO  H188 8103   5.240   2.014   1.425  0.6225 -1.0649  1.2252
   20CHTO   O68 8104   5.300   1.797   1.425  0.2562 -0.3442 -0.1674
   20CHTO  H168 8105   5.342   1.789   1.509 -0.7180 -1.5639  0.2363
   20CHTO   C99 8106   5.279   1.966   1.214  0.4276 -0.1119 -1.0243
   20CHTO  H186 8107   5.347   1.897   1.160 -1.6317 -3.1445  0.1581
   20CHTO   N17 8108   5.143   1.912   1.195  0.5153  0.5622  0.5213
   20CHTO  H174 8109   5.068   1.989   1.209 -1.2311 -0.8069 -1.1093
   20CHTO  H175 8110   5.133   1.869   1.097  0.8467  1.9543 -0.1431
   20CHTO   C97 8111   5.308   2.111   1.162  0.8214 -0.3477  0.2853
   20CHTO  H184 8112   5.237   2.182   1.207 -0.1111 -1.1978  0.1530
   20CHTO   O64 8113   5.443   2.155   1.186 -0.5186 -0.2652  0.4604
   20CHTO  C104 8114   5.477   2.156   1.322  0.4011 -0.3591  0.1327
   20CHTO  H191 8115   5.429   2.241   1.371  0.7458 -0.2689  0.3177
   20CHTO  C108 8116   5.630   2.191   1.323 -0.1189 -0.7893  0.3621
   20CHTO   O71 8117   5.656   2.332   1.317 -0.6050  0.4773  0.1383
   20CHTO  H171 8118   5.631   2.386   1.389  4.5431  4.6167 -0.8677
   20CHTO   O62 8119   5.286   2.112   1.020 -0.0532 -0.0860  0.0113
   20CHTO   C91 8120   5.243   2.240   0.964 -0.0996  0.2812 -0.0156
   20CHTO  H178 8121   5.261   2.320   1.036 -1.6199 -0.0953  0.8085
   20CHTO   C92 8122   5.091   2.228   0.952 -0.6326 -0.3269  0.8641
   20CHTO  H179 8123   5.070   2.135   0.898 -0.3557  0.7486 -1.1511
   20CHTO   O66 8124   5.033   2.218   1.080  0.1344  0.2070  0.3319
   20CHTO  H166 8125   5.041   2.132   1.115  1.2300  0.3359  0.4013
   20CHTO   C93 8126   5.020   2.346   0.875  0.2744 -0.2335  0.6647
   20CHTO  H180 8127   5.009   2.433   0.941 -0.5074 -1.1223  1.7403
   20CHTO   N16 8128   4.884   2.307   0.828  0.0881 -0.0665 -0.1253
   20CHTO  H172 8129   4.896   2.248   0.739 -0.7758 -3.0078  1.6425
   20CHTO  H173 8130   4.821   2.258   0.901 -0.6437  0.1653 -0.5961
   20CHTO   C94 8131   5.103   2.387   0.750  0.6571  0.0133 -0.4388
   20CHTO  H181 8132   5.074   2.327   0.664 -1.2547 -1.2560  1.0461
   20CHTO   O61 8133   5.244   2.382   0.757  0.1553 -0.1247 -0.0156
   20CHTO   C95 8134   5.304   2.270   0.826 -0.0343 -0.4676  0.4329
   20CHTO  H182 8135   5.293   2.181   0.764  0.0343 -2.0071  2.5999
   20CHTO  C106 8136   5.467   2.295   0.833 -0.2292 -0.6491  0.0209
   20CHTO   O69 8137   5.543   2.203   0.922  0.6850 -0.3053  0.0979
   20CHTO  H169 8138   5.548   2.113   0.896 -0.3317 -0.4683  0.4841
   20CHTO   O63 8139   5.067   2.527   0.721 -0.0849  0.7085 -0.6078
   20CHTO   C96 8140   5.008   2.552   0.571  0.1842 -0.3249 -0.2954
   20CHTO  H183 8141   4.950   2.468   0.535  0.6417  0.6341 -3.3594
   20CHTO   C98 8142   5.129   2.587   0.476 -0.3483 -0.0893  0.1781
   20CHTO  H185 8143   5.192   2.658   0.531 -0.8334  0.7855 -0.3794
   20CHTO   O67 8144   5.214   2.470   0.453  0.1202 -0.6151 -0.0869
   20CHTO  H167 8145   5.296   2.502   0.420  0.6555 -1.8488 -0.0046
   20CHTO  C102 8146   5.085   2.642   0.335 -0.1695 -0.0138 -0.1979
   20CHTO  H189 8147   5.030   2.560   0.286 -1.7368  0.5510  0.6066
   20CHTO   N18 8148   5.197   2.676   0.240 -0.8413 -0.1622  0.3317
   20CHTO  H176 8149   5.270   2.735   0.293 -0.3942 -0.5653  0.1704
   20CHTO  H177 8150   5.237   2.597   0.178 -2.6195 -0.0486 -1.0001
   20CHTO  C105 8151   4.974   2.754   0.361 -0.6372  0.6178  0.3429
   20CHTO  H192 8152   5.021   2.834   0.417  0.2019 -0.3484  1.0456
   20CHTO   O65 8153   4.870   2.709   0.446  0.7539 -0.0871 -0.2587
   20CHTO  C100 8154   4.913   2.680   0.583 -0.0690 -0.0503  0.2328
   20CHTO  H187 8155   4.967   2.770   0.613  0.2218 -0.2848  0.4102
   20CHTO  C107 8156   4.792   2.643   0.681 -0.0555  0.1762  0.6326
   20CHTO   O70 8157   4.708   2.759   0.679  0.1041 -0.6251  0.5008
   20CHTO  H170 8158   4.623   2.729   0.705  0.1527 -0.4077  0.9271
   20CHTO   O57 8159   4.915   2.794   0.210 -0.2834 -0.6129 -0.2686
   20CHTO   C85 8160   4.776   2.785   0.190  0.5830 -0.1225  0.4303
   20CHTO  H157 8161   4.727   2.820   0.284  1.8792  0.3149  0.9641
   20CHTO   C83 8162   4.739   2.631   0.172  0.6063 -0.2916 -0.1257
   20CHTO  H155 8163   4.752   2.571   0.263  2.0882 -1.8082 -1.3095
   20CHTO   O56 8164   4.826   2.562   0.072 -0.2362 -0.4120 -0.2986
   20CHTO  H135 8165   4.829   2.603  -0.012 -0.4165 -2.9016 -1.5843
   20CHTO   C81 8166   4.587   2.622   0.139  0.1575 -0.5560 -0.2342
   20CHTO  H153 8167   4.531   2.661   0.224 -1.0368 -1.8564 -0.4010
   20CHTO   N14 8168   4.531   2.485   0.130 -0.1755  0.1616 -0.1195
   20CHTO  H141 8169   4.473   2.453   0.214  0.5621 -1.7542 -0.3184
   20CHTO  H142 8170   4.616   2.419   0.127 -0.9854 -0.8703 -0.8650
   20CHTO   C79 8171   4.547   2.701   0.012 -0.0991 -0.3727  0.1151
   20CHTO  H151 8172   4.438   2.699   0.011 -0.1044 -0.3598  0.6148
   20CHTO   O52 8173   4.589   2.838   0.032 -0.4947  0.0986 -0.1950
   20CHTO   C86 8174   4.720   2.865   0.067 -0.2247  0.2609  0.2550
   20CHTO  H158 8175   4.777   2.832  -0.022  0.9591 -2.5057  1.9477
   20CHTO   C90 8176   4.746   3.017   0.088 -0.4544 -0.1097 -0.3542
   20CHTO   O60 8177   4.721   3.096  -0.031  0.1182  0.0914 -0.4382
   20CHTO  H138 8178   4.795   3.139  -0.069 -1.2969  1.9127 -1.2145
   20CHTO   O50 8179   4.582   2.651  -0.121  0.3286 -0.4194 -0.6532
   20CHTO   C73 8180   4.596   2.639  -0.264 -0.3230 -0.1373 -0.1882
   20CHTO  H145 8181   4.698   2.669  -0.290 -0.6747  0.2872 -1.1085
   20CHTO   C74 8182   4.502   2.726  -0.352  0.1112 -0.2803 -0.3679
   20CHTO  H146 8183   4.522   2.830  -0.324  1.4118 -0.5633 -0.2225
   20CHTO   O54 8184   4.522   2.718  -0.494 -0.7006 -0.2479 -0.1820
   20CHTO  H133 8185   4.615   2.720  -0.510 -0.6805  0.4198 -0.0172
   20CHTO   C75 8186   4.358   2.680  -0.317  0.4137 -0.6755 -0.5594
   20CHTO  H147 8187   4.341   2.698  -0.210  3.1704 -1.1205 -0.0043
   20CHTO   N13 8188   4.250   2.759  -0.382 -0.0257  0.0658 -0.9495
   20CHTO  H139 8189   4.181   2.801  -0.311 -1.3985  0.1956 -2.3362
   20CHTO  H140 8190   4.189   2.701  -0.449 -1.9988  0.8534  0.1316
   20CHTO   C76 8191   4.346   2.523  -0.335  0.7654 -0.7683 -0.3808
   20CHTO  H148 8192   4.358   2.507  -0.442  3.0284  0.3213 -0.3099
   20CHTO   O49 8193   4.451   2.447  -0.274 -0.8901 -0.0101 -0.0298
   20CHTO   C77 8194   4.580   2.492  -0.313 -0.0306  1.0321  0.0556
   20CHTO  H149 8195   4.584   2.500  -0.422  0.1395 -0.1083 -0.0277
   20CHTO   C88 8196   4.686   2.395  -0.262  0.8217  0.1588  0.0598
   20CHTO   O58 8197   4.704   2.302  -0.349 -0.1532  0.1450 -0.3399
   20CHTO  H136 8198   4.778   2.245  -0.332 -0.0250 -0.0772 -1.5633
   20CHTO   O51 8199   4.193   2.465  -0.263  0.1497 -0.6706 -0.3073
   20CHTO   C78 8200   4.173   2.432  -0.089 -0.5909  0.8033  0.4350
   20CHTO  H150 8201   4.260   2.486  -0.045 -1.2437  0.6041  1.9666
   20CHTO   C80 8202   4.180   2.285  -0.057  0.7525  0.0930 -0.4513
   20CHTO  H152 8203   4.103   2.227  -0.112 -0.0646  2.7637 -2.1910
   20CHTO   O55 8204   4.308   2.231  -0.106 -0.3438  0.0221  0.2257
   20CHTO  H134 8205   4.328   2.259  -0.193 -3.5451  0.8188 -0.3437
   20CHTO   C84 8206   4.160   2.252   0.101  0.3327 -0.7533 -0.2347
   20CHTO  H156 8207   4.250   2.274   0.158 -0.5881 -0.8287  1.2730
   20CHTO   N15 8208   4.142   2.112   0.145 -0.0712 -0.0087  0.1001
   20CHTO  H143 8209   4.158   2.102   0.250  2.7619  0.4732 -0.2297
   20CHTO  H144 8210   4.046   2.069   0.126  0.7176 -1.2177 -1.2299
   20CHTO   C87 8211   4.046   2.345   0.166  0.3310  0.2794  0.0032
   20CHTO  H159 8212   3.949   2.295   0.156 -0.0201  0.6907  1.2120
   20CHTO   O53 8213   4.037   2.480   0.111 -0.3024  0.0517  0.1234
   20CHTO   C82 8214   4.044   2.488  -0.032 -0.5347 -0.2282  0.1672
   20CHTO  H154 8215   3.955   2.440  -0.074  0.0735 -3.5108  2.4108
   20CHTO   C89 8216   4.037   2.643  -0.069 -1.1567 -1.1953 -0.1312
   20CHTO   O59 8217   4.146   2.709  -0.004 -0.6169 -0.4135 -0.1529
   20CHTO  H137 8218   4.146   2.679   0.085 -0.6919 -1.5577 -0.5269
   20CHTO   O45 8219   4.055   2.362   0.331 -0.2358  0.1131  0.6863
   20CHTO   C67 8220   4.150   2.468   0.365  0.2693 -0.3084 -0.8708
   20CHTO  H124 8221   4.218   2.485   0.282  0.1188 -1.9796 -1.3619
   20CHTO   C65 8222   4.073   2.600   0.405 -0.2522 -0.1458  0.4917
   20CHTO  H122 8223   4.002   2.615   0.324 -0.3539  1.8499  0.9347
   20CHTO   O44 8224   4.171   2.707   0.407  0.3273 -0.1135 -0.0694
   20CHTO  H102 8225   4.205   2.727   0.322  0.6377  3.2366  0.7455
   20CHTO   C63 8226   3.984   2.583   0.531  0.2963 -0.4892  0.1846
   20CHTO  H120 8227   3.915   2.499   0.522 -2.6445  1.6406  2.0423
   20CHTO   N11 8228   3.880   2.693   0.545  0.0485 -0.1251  0.1340
   20CHTO  H108 8229   3.921   2.791   0.554  1.2136 -0.6803  1.0087
   20CHTO  H109 8230   3.792   2.674   0.602 -0.4798 -2.5089 -1.3959
   20CHTO   C61 8231   4.070   2.541   0.656  0.5249 -0.5107  0.1282
   20CHTO  H118 8232   3.996   2.499   0.725  1.2432 -1.9318  0.0667
   20CHTO   O40 8233   4.155   2.424   0.610 -0.2112 -0.6055 -0.6679
   20CHTO   C68 8234   4.235   2.416   0.489  0.6620 -0.8835 -0.0554
   20CHTO  H125 8235   4.256   2.308   0.473 -2.0638 -1.2958 -1.0946
   20CHTO   C72 8236   4.370   2.494   0.506 -0.3070 -0.4959 -0.7987
   20CHTO   O48 8237   4.487   2.435   0.580  0.0380  0.4523  0.1413
   20CHTO  H105 8238   4.544   2.504   0.609 -0.8027  1.1193  0.2338
   20CHTO   O38 8239   4.149   2.643   0.714  0.0574 -0.5316 -0.0257
   20CHTO   C55 8240   4.160   2.654   0.861  0.0323  0.5204 -0.4435
   20CHTO  H112 8241   4.082   2.593   0.909 -1.6103  3.3054  0.5587
   20CHTO   C56 8242   4.143   2.809   0.906 -0.3307  0.5037 -0.3864
   20CHTO  H113 8243   4.196   2.863   0.826 -0.2387  0.8856 -0.0694
   20CHTO   O42 8244   4.005   2.836   0.894  0.2130  0.1867 -0.6021
   20CHTO  H100 8245   3.998   2.929   0.906  0.7478  0.1755 -0.1672
   20CHTO   C57 8246   4.207   2.834   1.052 -0.4744 -0.2413 -0.6725
   20CHTO  H114 8247   4.134   2.786   1.116 -2.0518  1.8702 -0.8235
   20CHTO   N10 8248   4.205   2.974   1.092 -0.0808  0.2835 -0.0118
   20CHTO  H106 8249   4.130   2.990   1.167  1.5298 -0.2870  1.7552
   20CHTO  H107 8250   4.302   3.001   1.133 -0.8777  1.0342  1.4064
   20CHTO   C58 8251   4.343   2.770   1.061 -0.0817 -0.3642 -0.0242
   20CHTO  H115 8252   4.414   2.820   0.991 -1.3023  0.5766 -0.6041
   20CHTO   O37 8253   4.327   2.627   1.035 -0.3138  0.4052  0.1430
   20CHTO   C59 8254   4.307   2.599   0.898 -0.1830  0.0753 -0.3567
   20CHTO  H116 8255   4.384   2.647   0.838 -0.0293  1.1774  0.7154
   20CHTO   C70 8256   4.326   2.444   0.889  0.4263 -0.0315 -0.3195
   20CHTO   O46 8257   4.247   2.374   0.988  0.2343  0.0691  0.0202
   20CHTO  H103 8258   4.291   2.295   1.013  3.4847  2.4152  2.1015
   20CHTO   O39 8259   4.402   2.782   1.203  0.1440  0.8583  0.0896
   20CHTO   C60 8260   4.488   2.682   1.265  0.5831 -0.4781 -0.0434
   20CHTO  H117 8261   4.427   2.592   1.281 -2.6637  1.8898  1.4478
   20CHTO   C62 8262   4.612   2.657   1.179 -0.0398  0.1734  0.0718
   20CHTO  H119 8263   4.581   2.607   1.085 -1.8037  1.6919 -0.1733
   20CHTO   O43 8264   4.661   2.788   1.140 -0.1369  0.2266 -0.7765
   20CHTO  H101 8265   4.724   2.789   1.071  0.7706 -1.9278 -0.0291
   20CHTO   C66 8266   4.721   2.569   1.257 -0.1540  0.3657 -0.6672
   20CHTO  H123 8267   4.676   2.471   1.276  1.4359 -0.1100  0.7515
   20CHTO   N12 8268   4.839   2.531   1.174 -0.1716  0.0518 -0.5237
   20CHTO  H110 8269   4.912   2.610   1.172  0.4477 -0.5526 -2.6282
   20CHTO  H111 8270   4.875   2.431   1.195 -1.3444 -0.4254 -0.7181
   20CHTO   C69 8271   4.759   2.646   1.388 -0.0422  0.3523 -0.1250
   20CHTO  H126 8272   4.775   2.753   1.359 -2.6611  0.6815 -0.4930
   20CHTO   O41 8273   4.630   2.644   1.477  0.2692 -0.6512  0.2434
   20CHTO   C64 8274   4.522   2.735   1.410 -0.2099 -0.3839 -0.5712
   20CHTO  H121 8275   4.564   2.837   1.406  0.1548 -0.4973  0.2969
   20CHTO   C71 8276   4.406   2.739   1.520 -0.2018 -0.5921  0.4288
   20CHTO   O47 8277   4.294   2.813   1.472 -0.1502 -0.2243  0.2117
   20CHTO  H104 8278   4.308   2.905   1.462 -1.5183  0.0287  0.6498
   20CHTO   O34 8279   4.888   2.597   1.487 -0.2164  0.3447  0.3176
   20CHTO   C49 8280   4.894   2.464   1.549 -0.3674 -0.0086 -0.5075
   20CHTO   H91 8281   4.847   2.408   1.469 -0.6651 -0.1648 -0.2264
   20CHTO   C47 8282   4.804   2.468   1.675 -0.4030  0.0505  0.6884
   20CHTO   H89 8283   4.702   2.460   1.634 -0.4263  0.0114  0.7539
   20CHTO   O33 8284   4.814   2.587   1.749  0.1612  0.0637 -0.0040
   20CHTO   H70 8285   4.758   2.589   1.824 -0.1586 -0.9335 -0.2192
   20CHTO   C45 8286   4.837   2.347   1.776  0.3442 -1.0537 -0.0370
   20CHTO   H87 8287   4.913   2.378   1.850  0.3085 -0.3565 -0.2921
   20CHTO    N8 8288   4.716   2.302   1.852  0.6277  0.0978  0.4324
   20CHTO   H75 8289   4.671   2.394   1.883 -0.1120 -0.1466  0.0969
   20CHTO   H76 8290   4.772   2.263   1.936  0.7523 -2.3632 -0.7395
   20CHTO   C43 8291   4.917   2.228   1.693 -0.3249  0.4699  0.3284
   20CHTO   H85 8292   4.938   2.155   1.771 -0.9734 -0.5674 -0.4468
   20CHTO   O29 8293   5.040   2.278   1.629  0.2108 -0.5955 -0.0361
   20CHTO   C50 8294   5.039   2.407   1.564 -0.6534  0.0585  0.6892
   20CHTO   H92 8295   5.104   2.481   1.613 -2.3045  0.4741  2.3003
   20CHTO   C54 8296   5.099   2.381   1.423 -0.6022 -0.5829  0.0172
   20CHTO   O36 8297   5.054   2.263   1.357  0.5209  0.0537  0.6672
   20CHTO   H72 8298   5.117   2.203   1.322  3.2331  1.2430  3.3018
   20CHTO   O27 8299   4.828   2.160   1.601 -0.4340  0.2867  0.0337
   20CHTO   C37 8300   4.758   2.068   1.509 -0.2662  0.1953  0.0684
   20CHTO   H79 8301   4.686   2.003   1.560  0.4820  0.0665  0.9742
   20CHTO   C38 8302   4.686   2.150   1.405  0.5328 -0.4276  0.2205
   20CHTO   H80 8303   4.756   2.219   1.356 -1.7500  0.0148 -2.5479
   20CHTO   O31 8304   4.590   2.220   1.478 -0.0765 -0.7030  0.0055
   20CHTO   H68 8305   4.598   2.313   1.474  1.2053 -0.8074 -0.0727
   20CHTO   C39 8306   4.623   2.060   1.296  0.2751 -0.2447  0.0726
   20CHTO   H81 8307   4.534   2.008   1.331 -0.1300 -0.1064 -0.7383
   20CHTO    N7 8308   4.570   2.137   1.187  0.5324 -0.0548 -0.5758
   20CHTO   H73 8309   4.525   2.081   1.106 -0.2546 -0.8165  0.3638
   20CHTO   H74 8310   4.601   2.240   1.174 -1.4832  0.5340 -0.9559
   20CHTO   C40 8311   4.728   1.955   1.243  0.5672 -0.4893  0.1422
   20CHTO   H82 8312   4.803   2.012   1.188  0.7404 -0.1582  0.7183
   20CHTO   O26 8313   4.786   1.884   1.352 -0.3141  0.3000 -0.3693
   20CHTO   C41 8314   4.861   1.970   1.442  0.1557  0.2248 -0.1958
   20CHTO   H83 8315   4.931   2.031   1.382  0.6316 -1.0664 -0.9604
   20CHTO   C52 8316   4.937   1.893   1.545  0.3209 -0.0227  0.1092
   20CHTO   O35 8317   5.029   1.814   1.497  0.7086  0.9536  0.1454
   20CHTO   H71 8318   5.109   1.805   1.546  0.0586  0.0539  1.0589
   20CHTO   O28 8319   4.666   1.848   1.160 -0.5141  0.2010 -0.1088
   20CHTO   C42 8320   4.739   1.738   1.096  0.5624  0.0235 -0.2538
   20CHTO   H84 8321   4.664   1.668   1.057  0.7734 -0.9373  1.0159
   20CHTO   C44 8322   4.826   1.645   1.183 -0.8604 -0.1861  0.7622
   20CHTO   H86 8323   4.898   1.709   1.235  0.6135 -1.2158  0.0199
   20CHTO   O32 8324   4.741   1.582   1.279  0.2073  0.0207 -0.1994
   20CHTO   H69 8325   4.704   1.638   1.344 -1.5104  0.7481 -1.7462
   20CHTO   C48 8326   4.906   1.540   1.098 -0.4844  0.0828 -0.7202
   20CHTO   H90 8327   4.835   1.471   1.052 -0.6041  1.3129 -2.4642
   20CHTO    N9 8328   4.987   1.448   1.179  0.8508  0.5877  0.4567
   20CHTO   H77 8329   5.093   1.462   1.161  1.0133 -2.5763 -1.3660
   20CHTO   H78 8330   4.969   1.446   1.285  0.7859 -0.4936  0.4245
   20CHTO   C51 8331   4.982   1.615   0.982  0.0384  0.1636  0.3657
   20CHTO   H93 8332   5.049   1.686   1.030 -1.1556  0.5715  1.4341
   20CHTO   O30 8333   4.885   1.682   0.898  0.8485  0.5425 -0.3699
   20CHTO   C46 8334   4.822   1.793   0.973 -0.3799  0.4936 -0.5147
   20CHTO   H88 8335   4.900   1.862   1.005  0.0602  0.1696 -0.8919
   20CHTO   C53 8336   4.730   1.870   0.876 -0.7839  0.1887 -0.6996
   20CHTO   O72 8337   4.802   1.934   0.769  0.1820  0.2710 -0.4601
   20CHTO  H199 8338   4.758   2.012   0.742 -0.3206 -0.9435 -3.3599
   20CHTO   O22 8339   5.057   1.533   0.898 -0.0141  0.0840  0.3151
   20CHTO   C31 8340   5.185   1.573   0.830  0.6655  0.4363  0.6852
   20CHTO   H59 8341   5.200   1.501   0.747  0.1767  0.5624  0.4834
   20CHTO   C29 8342   5.177   1.717   0.769 -0.7520  0.1739 -0.0277
   20CHTO   H57 8343   5.137   1.781   0.849 -2.4307 -0.7705 -0.0917
   20CHTO   O21 8344   5.072   1.717   0.667  0.2751  0.4249 -0.1100
   20CHTO   H37 8345   5.092   1.685   0.581 -0.4089  0.6828 -0.3641
   20CHTO   C27 8346   5.308   1.774   0.713  0.2103 -0.5090 -0.5644
   20CHTO   H55 8347   5.328   1.718   0.620  0.4330 -1.7461  0.2158
   20CHTO    N5 8348   5.300   1.919   0.680  0.5249 -0.2534 -0.3682
   20CHTO   H43 8349   5.276   1.979   0.766  1.6049 -1.0455  0.4925
   20CHTO   H44 8350   5.397   1.961   0.661  0.4620  1.1396  2.1971
   20CHTO   C25 8351   5.424   1.737   0.814 -0.4703 -0.1129 -0.4103
   20CHTO   H53 8352   5.407   1.791   0.908 -1.3336  0.0914 -0.6864
   20CHTO   O17 8353   5.421   1.600   0.853 -0.1976 -0.3814  0.0538
   20CHTO   C32 8354   5.304   1.559   0.926  0.0870  0.2876  0.5491
   20CHTO   H60 8355   5.290   1.633   1.005 -0.8443 -0.9815  1.5749
   20CHTO   C36 8356   5.338   1.408   0.972  0.2510 -0.5582  0.5970
   20CHTO   O25 8357   5.410   1.328   0.878  0.3168 -0.3501 -0.4211
   20CHTO   H40 8358   5.413   1.235   0.889  1.0963 -0.5720 -2.4017
   20CHTO   O15 8359   5.561   1.780   0.766 -0.1816 -0.1589  0.6993
   20CHTO   C19 8360   5.657   1.889   0.779  0.1006 -0.1490 -1.0137
   20CHTO   H47 8361   5.602   1.985   0.783  0.5241  0.0358  1.5419
   20CHTO   C20 8362   5.737   1.883   0.917  0.1078 -0.1696 -0.1303
   20CHTO   H48 8363   5.781   1.784   0.934  1.1768  0.2615 -0.3787
   20CHTO   O19 8364   5.635   1.901   1.022  0.5049 -0.7485  0.1910
   20CHTO   H35 8365   5.599   1.821   1.055 -1.6006  0.7954  1.8245
   20CHTO   C21 8366   5.843   2.007   0.923 -0.0582  0.2788 -0.1039
   20CHTO   H49 8367   5.788   2.102   0.927 -2.2419 -0.8746 -1.7113
   20CHTO    N4 8368   5.926   2.006   1.049 -0.4748 -0.3054  0.8931
   20CHTO   H41 8369   5.882   2.070   1.125  0.1266 -0.2704  1.2142
   20CHTO   H42 8370   6.030   2.033   1.038 -0.9069  0.8661 -0.3317
   20CHTO   C22 8371   5.931   1.999   0.793  0.4216  0.0098  0.2390
   20CHTO   H50 8372   5.994   1.910   0.793  1.5055  0.7430 -1.3561
   20CHTO   O14 8373   5.848   2.000   0.680  0.4180  0.2681  0.3919
   20CHTO   C23 8374   5.758   1.898   0.659 -0.6053 -1.0021  0.0194
   20CHTO   H51 8375   5.817   1.805   0.650  0.3424 -0.5367  1.2784
   20CHTO   C34 8376   5.683   1.945   0.531 -0.1884 -0.3037 -0.2982
   20CHTO   O23 8377   5.586   1.842   0.493 -0.0352  0.0544  0.8430
   20CHTO   H38 8378   5.523   1.886   0.438  0.6066 -0.6963 -0.5237
   20CHTO   O16 8379   6.013   2.115   0.788  0.4659  0.1323 -0.8471
   20CHTO   C24 8380   6.164   2.081   0.724  0.7190  0.6062  0.4070
   20CHTO   H52 8381   6.173   1.979   0.686  2.1396  0.9219 -0.1500
   20CHTO   C26 8382   6.267   2.095   0.835  0.2400  0.6045  0.1259
   20CHTO   H54 8383   6.236   2.179   0.900 -0.4257  1.4725 -1.2760
   20CHTO   O20 8384   6.258   1.985   0.920 -0.2641  0.9557 -0.8768
   20CHTO   H36 8385   6.277   1.903   0.878 -0.4955  0.4735 -0.0672
   20CHTO   C30 8386   6.406   2.118   0.777  0.0551  0.0556 -0.0230
   20CHTO   H58 8387   6.484   2.056   0.824 -0.1755 -1.5251 -1.6577
   20CHTO    N6 8388   6.447   2.257   0.793  0.0807 -0.7104 -0.0679
   20CHTO   H45 8389   6.380   2.329   0.748  1.1789 -0.7360 -1.7860
   20CHTO   H46 8390   6.465   2.284   0.896  2.0464  3.4328 -1.3821
   20CHTO   C33 8391   6.418   2.075   0.627  0.0707 -0.0345 -0.7341
   20CHTO   H61 8392   6.516   2.108   0.591 -0.1313  0.5442 -0.7615
   20CHTO   O18 8393   6.319   2.138   0.546 -0.2231 -0.8396  0.1644
   20CHTO   C28 8394   6.194   2.170   0.609  0.2039 -0.6715  0.1267
   20CHTO   H56 8395   6.183   2.276   0.634 -0.7237 -0.6526 -0.3457
   20CHTO   C35 8396   6.090   2.157   0.496 -0.1895 -0.3821  0.7321
   20CHTO   O24 8397   5.961   2.213   0.525  0.0876 -0.2819 -0.1659
   20CHTO   H39 8398   5.910   2.224   0.447  0.9675  2.9725 -0.3688
   20CHTO    O9 8399   6.407   1.930   0.629  0.1610 -0.7918 -0.2957
   20CHTO   C13 8400   6.546   1.847   0.670 -0.0698  0.4972  0.4417
   20CHTO   H26 8401   6.607   1.918   0.730 -1.4028 -0.8928  3.5366
   20CHTO   C11 8402   6.619   1.807   0.536  0.2136  0.4318  0.1322
   20CHTO   H24 8403   6.647   1.897   0.480 -0.4276  1.3966  1.3431
   20CHTO    O8 8404   6.518   1.745   0.460  0.8175  0.1601  0.3344
   20CHTO    H3 8405   6.507   1.654   0.479  1.0832  0.2372  0.8451
   20CHTO    C9 8406   6.738   1.710   0.568  0.0378 -0.5262 -0.0868
   20CHTO   H22 8407   6.801   1.771   0.635 -0.7314 -3.0456  3.0506
   20CHTO    N2 8408   6.827   1.677   0.449  0.3520 -0.4970 -0.3329
   20CHTO   H10 8409   6.826   1.570   0.434 -1.0205 -0.9833  2.8121
   20CHTO   H11 8410   6.807   1.729   0.357 -0.8308  0.4680  0.4449
   20CHTO    C7 8411   6.686   1.587   0.651 -0.2669  0.1079 -0.7948
   20CHTO   H20 8412   6.775   1.527   0.679 -0.8076 -0.3615 -0.0654
   20CHTO    O4 8413   6.613   1.620   0.770  0.7712  0.1530 -0.3049
   20CHTO   C14 8414   6.511   1.725   0.765  0.1199 -0.1151  0.2181
   20CHTO   H27 8415   6.511   1.763   0.869 -0.8621  1.2567 -0.2754
   20CHTO   C18 8416   6.369   1.666   0.739  0.1602  0.4205  0.4644
   20CHTO   O13 8417   6.298   1.636   0.855 -0.8953  0.1891 -0.0590
   20CHTO    H7 8418   6.260   1.552   0.838 -0.8654  0.6626 -2.7399
   20CHTO    O2 8419   6.600   1.487   0.555  0.1803  0.3353 -0.2466
   20CHTO    C1 8420   6.552   1.362   0.611 -0.1390  0.2565  0.3502
   20CHTO   H14 8421   6.485   1.390   0.696 -0.7984 -0.0384 -0.0660
   20CHTO    C2 8422   6.650   1.248   0.656 -0.4620 -0.0155 -0.5399
   20CHTO   H15 8423   6.688   1.219   0.557 -0.1575 -2.0550  0.1392
   20CHTO    O6 8424   6.758   1.306   0.734  0.2676 -0.0143  0.4638
   20CHTO    H1 8425   6.742   1.313   0.826 -0.1582 -1.7921  0.5453
   20CHTO    C3 8426   6.570   1.137   0.729 -0.1664  0.3163 -0.4755
   20CHTO   H16 8427   6.521   1.180   0.817  1.5473 -1.0300  1.1739
   20CHTO    N1 8428   6.654   1.018   0.778 -0.1071 -0.9162 -0.2922
   20CHTO    H8 8429   6.684   1.045   0.878  1.1632 -1.8257 -0.4104
   20CHTO    H9 8430   6.749   1.022   0.727  0.5206  0.3530  0.9482
   20CHTO    C4 8431   6.453   1.083   0.635 -0.1323  0.3806  0.0653
   20CHTO   H17 8432   6.501   1.032   0.552  0.7071 -1.3193  1.5761
   20CHTO    O1 8433   6.379   1.191   0.582  0.8907 -0.2448 -0.3067
   20CHTO    C5 8434   6.457   1.292   0.515 -0.4850 -0.5785 -0.3611
   20CHTO   H18 8435   6.523   1.249   0.439  1.2290 -0.9740  1.3220
   20CHTO   C16 8436   6.357   1.386   0.438 -0.0274  0.3392  0.5440
   20CHTO   O11 8437   6.310   1.340   0.315  0.5395  0.2482  0.2583
   20CHTO    H5 8438   6.383   1.311   0.263  1.4058 -1.1268  2.1766
   20CHTO    O3 8439   6.354   1.006   0.706 -0.6415 -0.1691  0.2690
   20CHTO    C6 8440   6.287   0.915   0.619  0.4055  0.6987  0.5873
   20CHTO   H19 8441   6.302   0.929   0.512  2.3812 -0.5426  0.6761
   20CHTO    C8 8442   6.358   0.774   0.648 -1.2325 -0.6018  0.5430
   20CHTO   H21 8443   6.366   0.767   0.757  1.1261 -0.0020  0.4231
   20CHTO    O7 8444   6.495   0.775   0.597  0.1039 -0.4405  0.2290
   20CHTO    H2 8445   6.539   0.712   0.650 -0.4618 -0.0743  1.1508
   20CHTO   C12 8446   6.280   0.648   0.594  0.1055 -0.0698  0.1295
   20CHTO   H25 8447   6.293   0.641   0.484  1.0042  1.0785  0.1592
   20CHTO    N3 8448   6.344   0.521   0.639 -0.2569 -0.3852  0.0163
   20CHTO   H12 8449   6.434   0.529   0.699  0.4753 -0.4586 -1.0491
   20CHTO   H13 8450   6.336   0.442   0.566 -0.5583  1.7582 -2.3349
   20CHTO   C15 8451   6.132   0.666   0.622  0.3295 -0.2140 -0.6033
   20CHTO   H28 8452   6.110   0.659   0.729  3.6013  1.0438  0.2051
   20CHTO   O10 8453   6.035   0.554   0.552  0.0758 -0.5938 -0.7669
   20CHTO    H4 8454   5.950   0.553   0.592  0.8878 -3.1844  0.9940
   20CHTO    O5 8455   6.075   0.794   0.580 -0.3857 -0.0928 -0.2222
   20CHTO   C10 8456   6.130   0.907   0.644 -0.5024  0.5695 -0.1649
   20CHTO   H23 8457   6.122   0.899   0.752 -0.4720 -1.1622 -0.2759
   20CHTO   C17 8458   6.065   1.039   0.597 -0.3194  0.3086  0.3712
   20CHTO   O12 8459   5.943   1.053   0.669 -0.1741  0.4798  0.6721
   20CHTO    H6 8460   5.878   1.096   0.617 -0.6075  0.6144  1.3220
   21GLOH   H03 8461   3.921   0.640   0.931  1.3885 -0.5593  0.3312
   21GLOH    O1 8462   3.899   0.546   0.921 -0.2582 -0.1824  0.2796
   21GLOH    C1 8463   3.903   0.481   1.051 -1.0035  0.1464  0.6356
   21GLOH   H02 8464   3.859   0.544   1.128 -1.7832  2.4780 -1.6539
   21GLOH   H08 8465   4.002   0.451   1.084 -0.8835 -0.5301 -0.2990
   21GLOH    C2 8466   3.833   0.344   1.047 -0.4726 -0.8801 -0.0909
   21GLOH   H04 8467   3.882   0.283   0.969 -1.3729 -0.9597 -0.6020
   21GLOH    O2 8468   3.855   0.276   1.173 -0.5247  0.0813 -0.2313
   21GLOH   H05 8469   3.771   0.248   1.213 -0.5737  0.6187  0.0454
   21GLOH    C3 8470   3.683   0.357   1.010 -0.2617  0.3534 -0.3096
   21GLOH   H06 8471   3.680   0.393   0.908  0.8745 -2.0776 -1.2352
   21GLOH   H07 8472   3.638   0.432   1.076 -1.9249 -1.4712  0.7068
   21GLOH    O3 8473   3.613   0.231   1.009 -0.3896 -0.5896  0.1513
   21GLOH   H01 8474   3.643   0.174   1.082 -1.3073 -0.0360  0.9817
   22GLOH   H03 8475   3.770   9.490   0.944 -2.2586 -0.6204 -1.9912
   22GLOH    O1 8476   3.717   9.555   0.995  0.4663  0.0791  0.1087
   22GLOH    C1 8477   3.600   9.576   0.915  0.2316  0.5669  0.6386
   22GLOH   H02 8478   3.557   9.479   0.888  0.4845  0.4245  0.7478
   22GLOH   H08 8479   3.630   9.620   0.820 -1.7129  1.1274  0.2541
   22GLOH    C2 8480   3.496   9.663   0.979 -0.7993  0.5724  0.7073
   22GLOH   H04 8481   3.545   9.735   1.047  0.9875 -2.3198  2.6113
   22GLOH    O2 8482   3.414   9.735   0.882  0.2663  0.0952 -0.2045
   22GLOH   H05 8483   3.476   9.789   0.830  0.4434 -0.5622 -0.6902
   22GLOH    C3 8484   3.420   9.588   1.084 -0.0297 -0.0232  0.3106
   22GLOH   H06 8485   3.361   9.658   1.143 -0.9158 -0.1028 -0.4557
   22GLOH   H07 8486   3.493   9.540   1.149  0.3670  1.2151  0.7925
   22GLOH    O3 8487   3.329   9.491   1.029  0.5612 -0.2642 -0.3221
   22GLOH   H01 8488   3.325   9.522   0.936  2.4074  1.3503  0.1181
   23GLOH   H03 8489   4.019   9.798   1.982  0.7095 -0.5380 -1.4901
   23GLOH    O1 8490   4.017   9.844   1.896 -0.0463  0.5216 -0.9208
   23GLOH    C1 8491   3.927   9.950   1.899 -0.4896  0.0977 -0.8213
   23GLOH   H02 8492   3.953  10.022   1.977 -0.1035  1.7757 -2.4799
   23GLOH   H08 8493   3.824   9.915   1.909 -1.2443  1.9594 -1.9508
   23GLOH    C2 8494   3.941  10.037   1.769 -0.1528 -0.3943  0.2636
   23GLOH   H04 8495   3.849  10.096   1.754  1.3563  2.0657  0.4261
   23GLOH    O2 8496   4.046  10.137   1.784 -0.0945  0.2269 -0.1867
   23GLOH   H05 8497   3.999  10.221   1.795  1.0315  0.8977 -0.3474
   23GLOH    C3 8498   3.957   9.956   1.636 -0.2612 -0.6724 -0.3362
   23GLOH   H06 8499   4.042   9.889   1.642  0.1724 -0.3444 -2.2310
   23GLOH   H07 8500   3.968  10.024   1.551 -1.5525  0.3510  0.3003
   23GLOH    O3 8501   3.836   9.875   1.605  0.7548 -0.1335 -0.2201
   23GLOH   H01 8502   3.839   9.795   1.662  1.1852 -0.1085 -0.1993
   24GLOH   H03 8503   4.213   0.395   1.677  0.2421 -2.6456  3.2150
   24GLOH    O1 8504   4.187   0.317   1.624  0.0314 -0.5398  0.0825
   24GLOH    C1 8505   4.166   0.336   1.482 -0.2251 -0.1695  0.3995
   24GLOH   H02 8506   4.261   0.355   1.430 -1.4414  0.5576 -1.6319
   24GLOH   H08 8507   4.109   0.428   1.466  0.7539  0.3261 -0.3822
   24GLOH    C2 8508   4.099   0.217   1.409 -0.8888 -0.0062 -0.0072
   24GLOH   H04 8509   4.000   0.191   1.450  0.3066 -1.2442  2.2177
   24GLOH    O2 8510   4.082   0.248   1.276 -0.2646  0.4798  0.1881
   24GLOH   H05 8511   3.989   0.267   1.254  0.0013  0.2218 -1.2574
   24GLOH    C3 8512   4.183   0.094   1.417 -0.4628 -0.4460  1.3597
   24GLOH   H06 8513   4.271   0.107   1.355 -0.9533  0.3496  0.8251
   24GLOH   H07 8514   4.133   0.003   1.383  1.0895  0.3519 -3.3558
   24GLOH    O3 8515   4.212   0.068   1.553 -0.7882  0.2133 -0.1822
   24GLOH   H01 8516   4.206   0.157   1.592  1.1433  0.8853 -1.3422
   25GLOH   H03 8517   2.637   0.849   2.015  1.1993 -2.8083 -0.6290
   25GLOH    O1 8518   2.705   0.860   2.083  0.2996  0.0343 -0.1539
   25GLOH    C1 8519   2.746   0.999   2.098 -0.0776 -0.2298 -0.6614
   25GLOH   H02 8520   2.803   1.014   2.190 -2.3155 -2.0301  1.1030
   25GLOH   H08 8521   2.653   1.056   2.107 -0.3506 -0.9814  1.6309
   25GLOH    C2 8522   2.813   1.060   1.977  0.3479  0.0607 -0.1656
   25GLOH   H04 8523   2.900   1.003   1.941  0.4893  0.2729 -0.1585
   25GLOH    O2 8524   2.724   1.049   1.867  0.0270 -0.3513  0.0128
   25GLOH   H05 8525   2.668   0.970   1.881  0.5869 -0.7018  0.2815
   25GLOH    C3 8526   2.850   1.206   1.996 -0.1474 -0.4519 -0.3748
   25GLOH   H06 8527   2.896   1.253   1.909  1.6811  2.1223  1.8944
   25GLOH   H07 8528   2.929   1.197   2.070  0.5231 -0.5190 -1.0958
   25GLOH    O3 8529   2.736   1.284   2.041 -0.0623 -0.1625 -0.2177
   25GLOH   H01 8530   2.725   1.372   2.001 -2.0410  0.5379  1.7469
   26GLOH   H03 8531   4.234   2.032   1.062  0.8919 -1.4480 -0.3075
   26GLOH    O1 8532   4.258   2.028   0.968  0.0209 -0.6212 -0.5722
   26GLOH    C1 8533   4.357   1.926   0.951 -0.3547 -0.1755 -0.0256
   26GLOH   H02 8534   4.413   1.932   1.044 -1.6872 -1.9930  0.9121
   26GLOH   H08 8535   4.420   1.960   0.868 -0.6304 -0.9072 -0.5457
   26GLOH    C2 8536   4.287   1.788   0.924  0.4766 -0.7819  0.2733
   26GLOH   H04 8537   4.195   1.768   0.981  0.0576  2.2488  0.7571
   26GLOH    O2 8538   4.244   1.790   0.784 -0.3813  0.3473 -0.1219
   26GLOH   H05 8539   4.223   1.882   0.763 -1.4260  0.2213  0.3336
   26GLOH    C3 8540   4.373   1.666   0.955 -0.1035  0.1104  0.5981
   26GLOH   H06 8541   4.456   1.677   0.886 -2.2584  1.7397 -1.8512
   26GLOH   H07 8542   4.309   1.580   0.936  0.7306 -0.4152  0.1535
   26GLOH    O3 8543   4.403   1.675   1.093 -0.2753  0.5164  0.6386
   26GLOH   H01 8544   4.462   1.599   1.109 -0.9047 -0.3799 -1.2372
   27GLOH   H03 8545   3.300   1.024   1.350 -0.7422  0.0054  0.7212
   27GLOH    O1 8546   3.324   0.929   1.351 -0.2104  0.1086 -0.6518
   27GLOH    C1 8547   3.231   0.869   1.441  0.3316  0.4158  0.6994
   27GLOH   H02 8548   3.246   0.914   1.539  0.8924  0.2583  0.6869
   27GLOH   H08 8549   3.261   0.766   1.459 -2.1349 -0.0189  2.5279
   27GLOH    C2 8550   3.086   0.862   1.393 -0.6586 -0.2261 -0.0248
   27GLOH   H04 8551   3.067   0.967   1.367  0.4924 -0.1817 -0.7407
   27GLOH    O2 8552   3.084   0.775   1.278  0.4221 -0.4783 -0.3917
   27GLOH   H05 8553   2.996   0.741   1.255  1.1912 -2.4623 -0.4980
   27GLOH    C3 8554   2.982   0.818   1.500  0.1865  0.2880 -0.0583
   27GLOH   H06 8555   3.018   0.727   1.548  0.7528 -0.1526 -1.3138
   27GLOH   H07 8556   2.887   0.794   1.453 -0.1561  0.4443  0.5330
   27GLOH    O3 8557   2.978   0.918   1.607  0.1703 -0.2092  0.7086
   27GLOH   H01 8558   2.884   0.945   1.612  0.0321 -0.2926 -1.3615
   28GLOH   H03 8559   4.600   0.978   1.221  0.2309 -1.0200  1.2289
   28GLOH    O1 8560   4.571   1.048   1.283  0.1757  0.4434 -0.4193
   28GLOH    C1 8561   4.430   1.034   1.319 -0.2277 -0.6136 -0.1690
   28GLOH   H02 8562   4.421   0.951   1.389 -0.7354  0.5253  1.1359
   28GLOH   H08 8563   4.370   1.028   1.228 -0.4595 -2.2439  0.0635
   28GLOH    C2 8564   4.380   1.154   1.403 -0.4925  0.3170  0.1191
   28GLOH   H04 8565   4.401   1.248   1.350 -0.5056 -0.4932 -1.3290
   28GLOH    O2 8566   4.234   1.134   1.415 -0.1860 -0.4513 -0.4661
   28GLOH   H05 8567   4.218   1.065   1.482  0.9198 -0.6338 -0.3840
   28GLOH    C3 8568   4.457   1.167   1.540  0.5751 -0.5859 -0.3280
   28GLOH   H06 8569   4.403   1.245   1.593  1.4323  0.7592 -1.4060
   28GLOH   H07 8570   4.552   1.216   1.522  0.6391 -0.6885 -0.2657
   28GLOH    O3 8571   4.459   1.050   1.625 -0.0829  0.4028 -0.3291
   28GLOH   H01 8572   4.382   0.992   1.605  0.4571  0.4831 -2.8267
   29GLOH   H03 8573   4.395   1.510   1.713 -0.0095 -0.7756 -3.9817
   29GLOH    O1 8574   4.346   1.427   1.729  0.2314 -0.2678 -0.2097
   29GLOH    C1 8575   4.400   1.375   1.850  0.3105  0.0023  0.2529
   29GLOH   H02 8576   4.357   1.436   1.930 -2.3624 -0.3325 -0.8652
   29GLOH   H08 8577   4.508   1.387   1.859  0.4112 -0.4400 -0.3695
   29GLOH    C2 8578   4.352   1.236   1.894  0.3560 -0.5950 -0.1284
   29GLOH   H04 8579   4.390   1.164   1.819 -0.5246  0.1520 -1.3143
   29GLOH    O2 8580   4.408   1.190   2.020 -0.4120 -0.5195 -0.6178
   29GLOH   H05 8581   4.370   1.243   2.092  0.5569 -0.1882 -0.3438
   29GLOH    C3 8582   4.194   1.229   1.891 -0.3367  0.4606  0.5568
   29GLOH   H06 8583   4.152   1.129   1.898 -0.4594  0.4390 -0.4435
   29GLOH   H07 8584   4.154   1.266   1.796 -0.8802  1.6089  1.2198
   29GLOH    O3 8585   4.128   1.295   1.998 -0.6451  0.2174  0.2060
   29GLOH   H01 8586   4.182   1.289   2.080  1.7300 -0.3371 -1.3323
   30GLOH   H03 8587   2.460   0.657   0.287 -1.1389 -1.2105 -0.7304
   30GLOH    O1 8588   2.373   0.701   0.293 -0.2659  0.4641 -0.0515
   30GLOH    C1 8589   2.317   0.665   0.425 -0.7933  0.2432 -0.1685
   30GLOH   H02 8590   2.232   0.732   0.440 -2.4208 -1.4705 -1.4376
   30GLOH   H08 8591   2.392   0.674   0.504 -0.9019  1.2975 -0.1747
   30GLOH    C2 8592   2.264   0.525   0.435  0.1402  0.0374  0.7374
   30GLOH   H04 8593   2.343   0.454   0.405  0.2501  0.7147 -0.5901
   30GLOH    O2 8594   2.214   0.497   0.564 -0.6790 -0.3457  0.2726
   30GLOH   H05 8595   2.181   0.408   0.584  1.2382 -0.8370  1.3309
   30GLOH    C3 8596   2.143   0.517   0.345 -0.2636 -0.2280  0.8689
   30GLOH   H06 8597   2.054   0.566   0.386 -0.7878 -1.1641  0.8805
   30GLOH   H07 8598   2.106   0.414   0.348 -2.0522  0.2826 -1.4751
   30GLOH    O3 8599   2.171   0.539   0.206  0.5537 -0.3484  0.1862
   30GLOH   H01 8600   2.256   0.585   0.192  0.4140 -0.7586 -2.1748
   31GLOH   H03 8601   3.959   1.953   1.467  3.5820  0.8965  2.3099
   31GLOH    O1 8602   3.937   1.875   1.521  0.0900 -0.0070 -0.2401
   31GLOH    C1 8603   3.803   1.845   1.476 -0.0405 -0.0764 -0.1651
   31GLOH   H02 8604   3.763   1.760   1.531  1.5977  0.1393  1.4180
   31GLOH   H08 8605   3.806   1.822   1.369  0.4144  1.1305 -0.4263
   31GLOH    C2 8606   3.709   1.962   1.492 -0.1891  0.0289  0.1955
   31GLOH   H04 8607   3.736   2.013   1.585  0.4217  0.4488 -0.2136
   31GLOH    O2 8608   3.735   2.059   1.392 -0.1609 -0.1456 -0.3192
   31GLOH   H05 8609   3.694   2.032   1.308 -2.9905  0.7614  0.7300
   31GLOH    C3 8610   3.571   1.907   1.477  0.2409  0.3520  0.2020
   31GLOH   H06 8611   3.540   1.856   1.386 -1.6350 -2.4101  2.3129
   31GLOH   H07 8612   3.511   1.998   1.472  1.0706  0.8905 -0.1164
   31GLOH    O3 8613   3.528   1.835   1.588 -0.4547  0.2576  0.7384
   31GLOH   H01 8614   3.602   1.826   1.651 -0.5926  1.6611  1.1221
   32GLOH   H03 8615   2.666   1.447   0.525 -0.1142 -0.5883 -0.5911
   32GLOH    O1 8616   2.722   1.430   0.603 -0.0220  0.2262 -0.4754
   32GLOH    C1 8617   2.653   1.383   0.721  0.0336  0.0383  0.5161
   32GLOH   H02 8618   2.666   1.277   0.744  0.0441 -0.7498 -2.7906
   32GLOH   H08 8619   2.544   1.387   0.723 -0.1193 -2.6912  0.2093
   32GLOH    C2 8620   2.710   1.470   0.836  0.0022 -0.1751  0.3613
   32GLOH   H04 8621   2.817   1.445   0.847  0.4718  1.8244  0.5451
   32GLOH    O2 8622   2.696   1.612   0.816 -0.1119  0.0102  0.4107
   32GLOH   H05 8623   2.782   1.657   0.822 -0.0794  0.1617 -1.0686
   32GLOH    C3 8624   2.658   1.430   0.980 -0.2847  0.6162 -0.3443
   32GLOH   H06 8625   2.550   1.440   0.980 -0.3361  0.2166 -1.9255
   32GLOH   H07 8626   2.706   1.500   1.050 -1.5479  1.0966  0.0493
   32GLOH    O3 8627   2.684   1.302   1.019 -0.5057 -0.4193 -0.5607
   32GLOH   H01 8628   2.776   1.293   1.049 -0.4313  0.1011 -0.6413
   33GLOH   H03 8629   4.152   1.125   1.078  2.5642  1.5565 -0.1222
   33GLOH    O1 8630   4.194   1.048   1.036  0.3480 -0.0215  0.4872
   33GLOH    C1 8631   4.099   0.944   1.056 -0.3821  0.5513 -0.7463
   33GLOH   H02 8632   4.146   0.852   1.020  1.5518  0.3050  2.1975
   33GLOH   H08 8633   4.012   0.961   0.993 -0.3788  2.2281 -0.2989
   33GLOH    C2 8634   4.061   0.913   1.202  0.0695 -0.6223  0.7581
   33GLOH   H04 8635   4.156   0.917   1.257  1.1243 -0.0966 -1.0700
   33GLOH    O2 8636   3.972   1.016   1.253 -0.5727 -0.0688  0.0534
   33GLOH   H05 8637   4.000   1.102   1.218  0.6143  0.0505  1.2342
   33GLOH    C3 8638   4.003   0.771   1.212  0.1639  0.3452  0.2848
   33GLOH   H06 8639   3.930   0.759   1.131  1.4048  0.7187 -0.9163
   33GLOH   H07 8640   3.942   0.761   1.301 -2.8482 -2.9800 -1.9779
   33GLOH    O3 8641   4.105   0.669   1.205 -0.5835 -0.3033  0.4847
   33GLOH   H01 8642   4.166   0.689   1.132 -1.4902 -0.7709 -0.4098
   34GLOH   H03 8643   3.782   1.374   1.216  0.4596 -0.4178  0.0029
   34GLOH    O1 8644   3.736   1.401   1.298  0.2111  0.4373 -0.4117
   34GLOH    C1 8645   3.738   1.540   1.327 -0.3886  0.1469  0.0025
   34GLOH   H02 8646   3.844   1.565   1.320 -0.0324 -1.3906 -0.2694
   34GLOH   H08 8647   3.691   1.573   1.420  0.8970 -1.1904  1.1507
   34GLOH    C2 8648   3.666   1.615   1.212 -0.1300  0.1928 -0.2036
   34GLOH   H04 8649   3.669   1.723   1.233 -0.1768  0.4811 -1.6529
   34GLOH    O2 8650   3.731   1.589   1.084  0.2342 -0.4229  0.0231
   34GLOH   H05 8651   3.717   1.664   1.024 -2.5846 -0.4657  0.5682
   34GLOH    C3 8652   3.520   1.570   1.204 -0.3955 -0.2087  0.2602
   34GLOH   H06 8653   3.465   1.589   1.296  0.0287 -0.1441  0.4990
   34GLOH   H07 8654   3.510   1.463   1.188  0.0323  0.2142 -3.1255
   34GLOH    O3 8655   3.458   1.637   1.097  0.0490 -0.2666 -0.0238
   34GLOH   H01 8656   3.475   1.581   1.019  1.9167  1.0519 -0.5926
   35GLOH   H03 8657   3.629   1.661   1.765 -2.2796  0.9675 -0.0208
   35GLOH    O1 8658   3.681   1.742   1.773  0.3924 -0.6692 -0.1030
   35GLOH    C1 8659   3.677   1.774   1.916 -0.3726  0.0174 -0.1085
   35GLOH   H02 8660   3.717   1.696   1.981 -0.6904  0.2599  0.3806
   35GLOH   H08 8661   3.576   1.794   1.951  0.0919  0.9225  0.7373
   35GLOH    C2 8662   3.745   1.906   1.946 -0.0806  0.2629  0.3916
   35GLOH   H04 8663   3.771   1.887   2.052  1.0750 -3.6051 -0.4937
   35GLOH    O2 8664   3.861   1.938   1.866 -0.8428  0.6429 -0.3138
   35GLOH   H05 8665   3.891   1.862   1.814  1.7253  3.1899 -2.7603
   35GLOH    C3 8666   3.640   2.019   1.938  0.8418 -0.7687  0.6617
   35GLOH   H06 8667   3.584   2.012   1.845  0.2160 -0.5753  1.0218
   35GLOH   H07 8668   3.696   2.112   1.926  0.4390 -0.3965  1.5984
   35GLOH    O3 8669   3.552   2.038   2.050  0.3370 -0.1497 -0.0623
   35GLOH   H01 8670   3.463   2.010   2.022  0.0982  2.6015 -2.2770
   36GLOH   H03 8671   3.783   1.686   2.772 -0.9034 -1.4650 -1.9046
   36GLOH    O1 8672   3.704   1.676   2.828  0.5570 -0.3249  0.4347
   36GLOH    C1 8673   3.696   1.785   2.925 -0.1808 -0.3032  0.0210
   36GLOH   H02 8674   3.625   1.780   3.007  0.5500  0.5553  0.7288
   36GLOH   H08 8675   3.676   1.881   2.878  0.1228  0.6526  1.7813
   36GLOH    C2 8676   3.835   1.797   2.992 -0.3157 -0.3750 -0.0826
   36GLOH   H04 8677   3.915   1.813   2.919  1.6308  0.5796  2.1905
   36GLOH    O2 8678   3.837   1.912   3.075  0.9556 -0.3340  0.6984
   36GLOH   H05 8679   3.923   1.928   3.116  0.6536  0.2952  1.1083
   36GLOH    C3 8680   3.876   1.673   3.072  0.4195  0.2509  0.0871
   36GLOH   H06 8681   3.842   1.581   3.025  1.3978 -0.2911  0.4346
   36GLOH   H07 8682   3.813   1.676   3.161  0.3937 -1.7413  0.1448
   36GLOH    O3 8683   4.016   1.670   3.105 -0.3350 -0.5201 -0.9497
   36GLOH   H01 8684   4.032   1.738   3.173 -1.4478  0.2452 -1.4572
   37GLOH   H03 8685   3.864   0.840   0.371 -1.6953 -1.6114  0.8579
   37GLOH    O1 8686   3.884   0.804   0.283 -0.0291 -0.4057  0.7380
   37GLOH    C1 8687   3.939   0.901   0.189 -0.4905  0.1094  0.5267
   37GLOH   H02 8688   3.899   0.876   0.091 -1.8551 -3.5751  1.9158
   37GLOH   H08 8689   4.047   0.890   0.184 -0.6031 -0.0087 -2.3904
   37GLOH    C2 8690   3.910   1.050   0.222 -0.1895 -0.8137  0.3836
   37GLOH   H04 8691   3.926   1.108   0.130  0.9970 -1.5073  0.1452
   37GLOH    O2 8692   3.767   1.077   0.250 -0.0708 -0.1676 -0.0577
   37GLOH   H05 8693   3.753   1.170   0.223 -0.4160 -0.0297  0.5853
   37GLOH    C3 8694   4.000   1.117   0.322 -0.4659  0.6710 -1.0707
   37GLOH   H06 8695   4.010   1.050   0.408  1.4022  2.1310 -0.1082
   37GLOH   H07 8696   3.953   1.208   0.359 -0.4267  0.2741 -0.0243
   37GLOH    O3 8697   4.135   1.145   0.273 -0.4885 -0.2387 -0.0100
   37GLOH   H01 8698   4.168   1.213   0.336 -1.6826 -0.1264  0.5017
   38GLOH   H03 8699   3.324   0.572   2.504  2.2662 -1.2995 -0.8587
   38GLOH    O1 8700   3.372   0.650   2.470  0.4855  0.0711 -0.3718
   38GLOH    C1 8701   3.505   0.672   2.530  0.1378  0.5008  0.6482
   38GLOH   H02 8702   3.556   0.751   2.473 -0.6233  0.0797 -0.6275
   38GLOH   H08 8703   3.570   0.585   2.536  1.7493  1.5895 -0.4863
   38GLOH    C2 8704   3.487   0.736   2.669  0.3311 -0.0677 -0.8272
   38GLOH   H04 8705   3.428   0.668   2.732  1.1114  1.0336  1.1194
   38GLOH    O2 8706   3.623   0.767   2.713 -0.1719 -0.6008 -0.3197
   38GLOH   H05 8707   3.642   0.709   2.789 -2.3015 -0.0317  0.7014
   38GLOH    C3 8708   3.417   0.868   2.647  0.8147 -0.9030  0.4770
   38GLOH   H06 8709   3.342   0.855   2.569 -0.0628  2.1342  0.7403
   38GLOH   H07 8710   3.493   0.936   2.609 -0.4141  1.0918  1.4908
   38GLOH    O3 8711   3.369   0.926   2.774  0.1175  0.7206 -0.1158
   38GLOH   H01 8712   3.436   0.905   2.842 -0.7523 -0.0967  0.5106
   39GLOH   H03 8713   4.132   0.504   1.967 -1.5579 -1.4629 -0.4168
   39GLOH    O1 8714   4.149   0.479   2.059 -0.1589  0.7862 -0.0239
   39GLOH    C1 8715   4.254   0.566   2.111 -0.5046 -0.4683 -0.1326
   39GLOH   H02 8716   4.350   0.546   2.063 -0.2368 -2.2965  1.1119
   39GLOH   H08 8717   4.275   0.533   2.213  0.6925 -2.6176 -1.0459
   39GLOH    C2 8718   4.221   0.714   2.109  0.6973 -0.5307 -0.2445
   39GLOH   H04 8719   4.121   0.711   2.156  0.1492 -0.7610 -1.4055
   39GLOH    O2 8720   4.306   0.786   2.204  0.5893 -0.1811 -0.4321
   39GLOH   H05 8721   4.375   0.833   2.154  1.1138  0.9753  1.3131
   39GLOH    C3 8722   4.211   0.786   1.973 -0.7857 -0.6828 -0.4568
   39GLOH   H06 8723   4.305   0.793   1.919  0.7507  1.6826  2.4128
   39GLOH   H07 8724   4.180   0.888   1.995 -1.2805 -1.1542  1.0474
   39GLOH    O3 8725   4.109   0.737   1.888 -0.9527 -0.3270 -0.5639
   39GLOH   H01 8726   4.039   0.803   1.903  1.6783  1.7510  3.3131
   40GLOH   H03 8727   2.964   0.358   1.781  1.6650  0.1168  1.1651
   40GLOH    O1 8728   2.940   0.267   1.807 -0.1305 -0.0160 -0.7398
   40GLOH    C1 8729   2.850   0.216   1.707  0.3072  0.1287  1.0953
   40GLOH   H02 8730   2.904   0.213   1.612  0.2808 -2.5704  1.1196
   40GLOH   H08 8731   2.764   0.283   1.698  0.4628  0.4862  2.1843
   40GLOH    C2 8732   2.794   0.079   1.729  0.7107  0.1992 -0.1306
   40GLOH   H04 8733   2.741   0.085   1.826 -0.9981 -0.2577 -1.0224
   40GLOH    O2 8734   2.690   0.050   1.637  0.2936  0.5692 -0.4497
   40GLOH   H05 8735   2.737   0.015   1.560 -0.2498 -0.9860 -0.1076
   40GLOH    C3 8736   2.899  -0.034   1.730 -0.1413 -0.9399 -0.5138
   40GLOH   H06 8737   2.950  -0.044   1.635  1.5391 -0.1217  0.2877
   40GLOH   H07 8738   2.840  -0.124   1.748  1.4421 -1.5586  1.7334
   40GLOH    O3 8739   2.991  -0.016   1.843 -0.2602 -0.3459 -0.3281
   40GLOH   H01 8740   2.969   0.076   1.870 -0.2193 -0.3865 -0.1535
   41GLOH   H03 8741   2.584   1.252   1.424 -0.2737 -4.6686 -3.0988
   41GLOH    O1 8742   2.663   1.220   1.471  0.1386  0.0637 -0.2187
   41GLOH    C1 8743   2.781   1.239   1.387  0.1314 -0.4703  0.0615
   41GLOH   H02 8744   2.815   1.342   1.380  0.6226 -0.6882 -0.8825
   41GLOH   H08 8745   2.758   1.196   1.289  0.0275 -0.5809  0.1347
   41GLOH    C2 8746   2.903   1.171   1.438  0.4293  0.4031  0.6148
   41GLOH   H04 8747   2.878   1.065   1.447 -0.0775  0.3365 -1.3272
   41GLOH    O2 8748   3.010   1.195   1.342 -0.4269  0.2743  0.4547
   41GLOH   H05 8749   2.983   1.178   1.250 -0.3293  2.9790 -0.1297
   41GLOH    C3 8750   2.940   1.212   1.580  0.5467 -0.2608 -0.1947
   41GLOH   H06 8751   3.041   1.173   1.584  1.1265  1.1003 -0.9079
   41GLOH   H07 8752   2.877   1.165   1.655 -1.2635 -1.5217 -2.4200
   41GLOH    O3 8753   2.944   1.351   1.602  0.1596  0.1236  0.4661
   41GLOH   H01 8754   2.856   1.392   1.597 -0.7499 -2.0264 -2.6048
   42GLOH   H03 8755   3.003   1.864   2.488  0.3721  0.3207  0.4136
   42GLOH    O1 8756   3.022   1.840   2.395  0.3043  0.2907  0.4073
   42GLOH    C1 8757   2.933   1.904   2.309 -0.3342 -0.7651 -0.6141
   42GLOH   H02 8758   2.928   2.010   2.332  0.2236 -1.1792  1.5075
   42GLOH   H08 8759   2.832   1.863   2.319 -0.6516  0.3532  0.9198
   42GLOH    C2 8760   2.983   1.895   2.167  0.0117  0.3643  0.8056
   42GLOH   H04 8761   2.897   1.937   2.112  1.7659 -0.4796 -2.7819
   42GLOH    O2 8762   3.105   1.963   2.158 -0.4050 -0.7455 -0.3499
   42GLOH   H05 8763   3.153   1.942   2.240 -0.9449 -2.2665 -0.4071
   42GLOH    C3 8764   2.997   1.755   2.111  0.2725 -0.8028 -0.2963
   42GLOH   H06 8765   3.083   1.704   2.153  2.0409  3.2121  1.2373
   42GLOH   H07 8766   3.018   1.780   2.007  0.3078  1.6979  0.2861
   42GLOH    O3 8767   2.874   1.680   2.131 -0.1137  0.4285  0.4878
   42GLOH   H01 8768   2.871   1.640   2.221  0.3454  0.9275  0.7287
   43GLOH   H03 8769   2.595   0.554   0.441  2.6550 -0.8253 -0.2079
   43GLOH    O1 8770   2.607   0.594   0.353  0.3999  0.2893 -0.0547
   43GLOH    C1 8771   2.652   0.487   0.269 -0.3515 -0.7686 -0.2437
   43GLOH   H02 8772   2.687   0.401   0.326  1.7272  0.6841  0.7133
   43GLOH   H08 8773   2.739   0.510   0.206  0.7964 -2.4680  0.6749
   43GLOH    C2 8774   2.538   0.445   0.172  0.4729  0.4645  0.0007
   43GLOH   H04 8775   2.446   0.425   0.230  1.5793  0.3401  1.7526
   43GLOH    O2 8776   2.515   0.553   0.077 -0.1094  0.5432  0.0450
   43GLOH   H05 8777   2.442   0.534   0.016  0.3986 -1.0618 -0.0979
   43GLOH    C3 8778   2.571   0.325   0.090  0.0683 -0.1473  0.4006
   43GLOH   H06 8779   2.654   0.346   0.023 -1.6392 -1.1430 -2.1031
   43GLOH   H07 8780   2.488   0.302   0.022 -0.8668  0.9591  1.1525
   43GLOH    O3 8781   2.609   0.212   0.174  1.3097 -0.2454  0.3046
   43GLOH   H01 8782   2.609   0.138   0.112  0.0059  2.0058 -2.5148
   44GLOH   H03 8783   3.416   1.387   2.541 -2.1289 -0.8254  0.4439
   44GLOH    O1 8784   3.447   1.327   2.611  0.3834  0.1865  0.2471
   44GLOH    C1 8785   3.588   1.304   2.594 -0.3846  0.6847  0.0828
   44GLOH   H02 8786   3.654   1.381   2.555  0.4508 -0.1483 -0.1774
   44GLOH   H08 8787   3.590   1.222   2.522  0.1850 -0.7477  1.6894
   44GLOH    C2 8788   3.645   1.241   2.725  0.7323 -0.2583 -0.1282
   44GLOH   H04 8789   3.580   1.160   2.761 -1.6444  0.7976 -1.9333
   44GLOH    O2 8790   3.776   1.181   2.707 -0.1540 -0.1099  0.4635
   44GLOH   H05 8791   3.842   1.252   2.698 -1.0871  0.6422 -0.8632
   44GLOH    C3 8792   3.655   1.359   2.832 -0.5453 -0.4657 -0.4774
   44GLOH   H06 8793   3.552   1.393   2.846 -0.3648 -0.3938  0.7293
   44GLOH   H07 8794   3.709   1.442   2.787  0.0400 -0.7111 -0.2239
   44GLOH    O3 8795   3.706   1.317   2.964  0.4797 -0.2534 -0.4253
   44GLOH   H01 8796   3.669   1.368   3.039  1.4407  1.3667 -1.0489
   45GLOH   H03 8797   4.094   0.675   2.744  0.1494  0.4353  1.5756
   45GLOH    O1 8798   4.040   0.606   2.788 -0.4029 -0.0075  0.2424
   45GLOH    C1 8799   4.106   0.575   2.913  0.2283 -0.5361  0.2034
   45GLOH   H02 8800   4.032   0.556   2.991  0.9794 -0.5666  0.9060
   45GLOH   H08 8801   4.160   0.664   2.945  0.2765 -0.1641 -0.8731
   45GLOH    C2 8802   4.208   0.463   2.911  0.3713 -0.4134 -0.7022
   45GLOH   H04 8803   4.307   0.506   2.886 -0.0317  1.4296  0.7543
   45GLOH    O2 8804   4.237   0.410   3.043 -0.1359  0.3913 -0.0306
   45GLOH   H05 8805   4.251   0.488   3.099 -0.7357 -0.5201  1.4331
   45GLOH    C3 8806   4.176   0.359   2.802 -0.4913 -0.2162 -0.0994
   45GLOH   H06 8807   4.260   0.290   2.797 -0.7352 -0.7983  2.9216
   45GLOH   H07 8808   4.165   0.413   2.708  0.5559  2.7367  1.4202
   45GLOH    O3 8809   4.059   0.287   2.837  0.1443  0.2680 -0.5776
   45GLOH   H01 8810   3.983   0.347   2.847 -0.8657 -1.1275  0.2836
   46GLOH   H03 8811   3.943   8.989   1.482  2.2761  1.2687  0.8275
   46GLOH    O1 8812   3.907   9.030   1.563 -0.7258 -0.2603  0.3553
   46GLOH    C1 8813   3.818   9.145   1.538 -0.4340 -1.1191 -0.3175
   46GLOH   H02 8814   3.716   9.107   1.543 -0.0763 -1.9357  0.8581
   46GLOH   H08 8815   3.834   9.170   1.433 -1.0159 -1.6099 -0.5268
   46GLOH    C2 8816   3.849   9.273   1.627  0.2006  0.1424 -0.0590
   46GLOH   H04 8817   3.934   9.319   1.575 -1.2550  1.3949 -1.3983
   46GLOH    O2 8818   3.738   9.370   1.623 -0.0801  0.0806 -0.0915
   46GLOH   H05 8819   3.722   9.403   1.533 -0.2820  0.2320  0.0009
   46GLOH    C3 8820   3.900   9.236   1.769  0.4209  0.3142 -0.2268
   46GLOH   H06 8821   3.969   9.153   1.755 -0.5698  0.1094 -4.3798
   46GLOH   H07 8822   3.816   9.194   1.825  1.4303 -0.9631  0.3422
   46GLOH    O3 8823   3.961   9.352   1.830  0.0683  0.0776 -0.3977
   46GLOH   H01 8824   4.014   9.408   1.770  0.5021  0.4060  0.2918
   47GLOH   H03 8825   2.758   0.834   1.290  0.1585  0.2310  0.0637
   47GLOH    O1 8826   2.724   0.924   1.309 -0.0349  0.2106 -0.1794
   47GLOH    C1 8827   2.621   0.969   1.224  0.4443 -0.0050  1.0852
   47GLOH   H02 8828   2.675   1.022   1.145  1.1953 -0.7510  1.0851
   47GLOH   H08 8829   2.549   1.032   1.276 -1.2557 -2.0588  1.2591
   47GLOH    C2 8830   2.549   0.851   1.149 -0.0905  0.1733 -0.4958
   47GLOH   H04 8831   2.474   0.899   1.084 -0.2698 -0.0951 -0.4889
   47GLOH    O2 8832   2.635   0.777   1.059  0.0403 -0.2477 -0.0049
   47GLOH   H05 8833   2.580   0.769   0.980  0.9027 -1.8832 -0.4557
   47GLOH    C3 8834   2.466   0.770   1.250 -0.5232 -0.4694 -0.2661
   47GLOH   H06 8835   2.386   0.835   1.288 -0.6123 -0.5017 -0.4000
   47GLOH   H07 8836   2.532   0.748   1.333  1.4907 -0.0856 -1.7393
   47GLOH    O3 8837   2.399   0.656   1.195 -0.4848  0.8605 -0.1443
   47GLOH   H01 8838   2.438   0.570   1.220 -2.0073  0.1927  0.0058
   48GLOH   H03 8839   3.438   9.576   1.561  0.1821 -0.5263 -0.9017
   48GLOH    O1 8840   3.390   9.608   1.483 -0.0356  0.6073 -0.3033
   48GLOH    C1 8841   3.330   9.505   1.405  0.2861  0.1696  0.0711
   48GLOH   H02 8842   3.385   9.482   1.313 -2.3706  1.0649 -1.7737
   48GLOH   H08 8843   3.235   9.537   1.365  0.0982 -1.2166 -0.6389
   48GLOH    C2 8844   3.314   9.375   1.483 -0.2023 -0.3567 -0.1720
   48GLOH   H04 8845   3.239   9.404   1.559  0.2021  0.7437 -0.1824
   48GLOH    O2 8846   3.261   9.265   1.401  0.3826 -0.1495  0.0905
   48GLOH   H05 8847   3.167   9.264   1.425  0.2757 -2.5214 -0.3316
   48GLOH    C3 8848   3.446   9.345   1.557  0.0283  0.6664  0.4417
   48GLOH   H06 8849   3.534   9.351   1.492  0.6109 -0.2845  1.1248
   48GLOH   H07 8850   3.447   9.243   1.595 -1.1863  0.8512  0.9874
   48GLOH    O3 8851   3.472   9.440   1.662 -0.6114 -0.1389 -0.5226
   48GLOH   H01 8852   3.556   9.411   1.703 -1.6040  1.8776  3.1853
   49GLOH   H03 8853   4.035   1.010   2.168 -0.7061 -4.4087 -1.3554
   49GLOH    O1 8854   3.974   1.032   2.096 -0.2819  0.2257 -0.4585
   49GLOH    C1 8855   3.894   1.146   2.138  0.1280 -0.2399 -0.5582
   49GLOH   H02 8856   3.831   1.184   2.057  0.3570 -1.4601 -1.3201
   49GLOH   H08 8857   3.963   1.226   2.164 -0.4967  0.5025 -1.1567
   49GLOH    C2 8858   3.796   1.128   2.255 -0.1627 -0.3031 -0.3689
   49GLOH   H04 8859   3.852   1.106   2.347 -0.5862  3.0099  0.7524
   49GLOH    O2 8860   3.719   1.249   2.265  0.4478  0.2666  0.9102
   49GLOH   H05 8861   3.645   1.244   2.202 -0.3051 -0.0594  1.8025
   49GLOH    C3 8862   3.705   1.004   2.231  0.3536 -0.1749  1.0195
   49GLOH   H06 8863   3.767   0.915   2.215  0.6368  0.1130  0.5311
   49GLOH   H07 8864   3.646   1.024   2.142  1.8744  2.4149  0.5556
   49GLOH    O3 8865   3.617   0.987   2.339  0.3595 -0.3888  0.3369
   49GLOH   H01 8866   3.669   0.991   2.422  1.9382 -0.8763 -0.6135
   50GLOH   H03 8867   4.185   0.266   0.332  0.8692 -0.9359 -0.7131
   50GLOH    O1 8868   4.177   0.180   0.377  0.1958 -0.1600  0.6876
   50GLOH    C1 8869   4.035   0.176   0.395  0.9263 -0.0522 -0.0821
   50GLOH   H02 8870   3.998   0.075   0.414  3.3622 -0.9190  0.3629
   50GLOH   H08 8871   3.979   0.204   0.306  0.1420 -1.7439 -0.1359
   50GLOH    C2 8872   3.982   0.263   0.513 -0.3703  0.4570  0.4455
   50GLOH   H04 8873   3.983   0.372   0.494 -2.4054  0.3893 -0.1630
   50GLOH    O2 8874   3.844   0.226   0.539  0.1412  0.7099  0.6483
   50GLOH   H05 8875   3.783   0.283   0.489 -1.6028 -1.0240  0.7266
   50GLOH    C3 8876   4.056   0.228   0.644 -0.2871  0.3476  0.6061
   50GLOH   H06 8877   4.025   0.132   0.686 -0.8051 -0.0277 -0.6007
   50GLOH   H07 8878   4.023   0.308   0.711 -0.2090  0.8622  0.0290
   50GLOH    O3 8879   4.198   0.237   0.637 -0.2838  0.1217 -0.1140
   50GLOH   H01 8880   4.224   0.195   0.554  1.1124 -1.5234  1.1164
   51GLOH   H03 8881   3.279   9.581   0.718 -1.1409 -0.2856 -1.4655
   51GLOH    O1 8882   3.295   9.491   0.752  0.0715  0.4713  0.0016
   51GLOH    C1 8883   3.388   9.416   0.669 -0.2223 -0.1312 -1.3279
   51GLOH   H02 8884   3.479   9.388   0.722 -1.5395 -1.8780  0.0169
   51GLOH   H08 8885   3.415   9.493   0.596 -1.7009  1.9831  0.3070
   51GLOH    C2 8886   3.337   9.283   0.604 -0.4832  0.1562  0.3449
   51GLOH   H04 8887   3.238   9.297   0.560 -0.0845  0.7000 -0.3930
   51GLOH    O2 8888   3.430   9.234   0.508  0.4542  0.6773 -0.0185
   51GLOH   H05 8889   3.513   9.214   0.554  2.4821  2.8981 -2.5226
   51GLOH    C3 8890   3.308   9.183   0.711  0.6120  0.1600  0.2746
   51GLOH   H06 8891   3.246   9.223   0.791  3.1281 -0.4632  2.5790
   51GLOH   H07 8892   3.399   9.163   0.766  2.0292  1.8347 -1.4217
   51GLOH    O3 8893   3.254   9.061   0.666 -0.2397  0.9960  0.7828
   51GLOH   H01 8894   3.161   9.082   0.649 -0.1900  0.3449 -0.3080
   52GLOH   H03 8895   2.873   1.071   0.309  1.3130  0.3404 -0.1296
   52GLOH    O1 8896   2.868   1.093   0.404  1.2370 -0.1325 -0.0232
   52GLOH    C1 8897   2.835   0.979   0.485 -0.0565  0.9782  0.1178
   52GLOH   H02 8898   2.856   1.008   0.588  1.8388  0.7479 -0.1937
   52GLOH   H08 8899   2.892   0.891   0.456 -0.7467  0.8209 -0.8034
   52GLOH    C2 8900   2.687   0.945   0.484 -0.6416  0.5833  1.0074
   52GLOH   H04 8901   2.675   0.850   0.540 -0.8798 -0.3305 -0.5588
   52GLOH    O2 8902   2.607   1.043   0.549 -0.5096  0.1485  0.5151
   52GLOH   H05 8903   2.542   1.072   0.483  0.4337  1.5022  0.1421
   52GLOH    C3 8904   2.640   0.921   0.337 -0.0367 -0.2247  0.7665
   52GLOH   H06 8905   2.642   1.017   0.285 -0.9615  0.0884  1.2986
   52GLOH   H07 8906   2.535   0.895   0.334  0.3576 -1.7998 -2.4893
   52GLOH    O3 8907   2.706   0.813   0.270  0.3044 -0.0540  0.2830
   52GLOH   H01 8908   2.677   0.730   0.310 -0.8416 -0.0704 -0.5546
   53GLOH   H03 8909   3.425  10.126   1.789 -1.4429  1.0669 -1.8563
   53GLOH    O1 8910   3.353  10.104   1.851  0.5962 -0.2910  0.1198
   53GLOH    C1 8911   3.260  10.211   1.831 -0.5351 -0.0651 -0.4576
   53GLOH   H02 8912   3.159  10.175   1.812 -0.7792  0.9039 -1.0978
   53GLOH   H08 8913   3.286  10.275   1.746  0.6166  0.8580  0.5544
   53GLOH    C2 8914   3.258  10.303   1.953 -0.2290  0.0450  0.6457
   53GLOH   H04 8915   3.198  10.392   1.927  1.1754  0.5925 -0.8080
   53GLOH    O2 8916   3.205  10.231   2.059  0.3043  0.3498  0.0475
   53GLOH   H05 8917   3.131  10.175   2.031 -0.0954  1.3604 -0.9773
   53GLOH    C3 8918   3.405  10.355   1.993 -0.7595  0.0186 -0.7183
   53GLOH   H06 8919   3.473  10.280   2.034 -1.3350 -0.4610 -0.6365
   53GLOH   H07 8920   3.379  10.416   2.079 -2.7013 -2.0253  0.2090
   53GLOH    O3 8921   3.470  10.434   1.893  0.4299  0.1218 -0.0652
   53GLOH   H01 8922   3.543  10.387   1.849  0.1103  1.2761 -1.9114
   54GLOH   H03 8923   3.816   0.699   0.209  1.0135 -0.8130  0.6979
   54GLOH    O1 8924   3.745   0.641   0.175 -0.0157  0.8219 -0.0127
   54GLOH    C1 8925   3.676   0.587   0.283 -0.0835 -0.6235 -0.6027
   54GLOH   H02 8926   3.570   0.577   0.261 -0.4734  2.6112 -0.4193
   54GLOH   H08 8927   3.679   0.663   0.362  0.1872 -0.6052 -0.6293
   54GLOH    C2 8928   3.741   0.452   0.325  0.0530 -0.1955 -0.0168
   54GLOH   H04 8929   3.843   0.480   0.355 -0.2435  1.0623 -0.1203
   54GLOH    O2 8930   3.683   0.388   0.439  0.0297 -0.4714  0.3381
   54GLOH   H05 8931   3.588   0.408   0.438  0.4954  1.8132 -3.1949
   54GLOH    C3 8932   3.743   0.357   0.211 -0.0977 -0.3273 -0.3460
   54GLOH   H06 8933   3.642   0.356   0.169 -0.1307  1.3591 -0.3360
   54GLOH   H07 8934   3.760   0.257   0.251 -0.1738  0.2967  1.3128
   54GLOH    O3 8935   3.827   0.403   0.105 -0.0389  0.1352  0.0281
   54GLOH   H01 8936   3.797   0.494   0.088 -1.8528 -0.5243 -0.4527
   55GLOH   H03 8937   4.274   1.426   1.579  1.5557  0.7569 -0.7782
   55GLOH    O1 8938   4.240   1.451   1.491  0.3946  0.3307 -0.4666
   55GLOH    C1 8939   4.319   1.537   1.412  0.0571 -0.1903 -0.3911
   55GLOH   H02 8940   4.258   1.564   1.325  0.0898  2.4089  0.3383
   55GLOH   H08 8941   4.401   1.475   1.378 -0.2632 -1.2495  0.7188
   55GLOH    C2 8942   4.371   1.657   1.494 -0.0085 -0.5225 -0.1229
   55GLOH   H04 8943   4.286   1.716   1.531  0.9215  1.1401 -0.6175
   55GLOH    O2 8944   4.456   1.625   1.604 -0.0144 -0.7057  0.7684
   55GLOH   H05 8945   4.440   1.685   1.679 -0.4639  0.0300  0.0922
   55GLOH    C3 8946   4.437   1.758   1.401 -0.5741  0.3445  0.5645
   55GLOH   H06 8947   4.531   1.729   1.354 -2.1916 -0.9384 -1.9998
   55GLOH   H07 8948   4.452   1.848   1.461 -1.4096  1.3478 -0.7175
   55GLOH    O3 8949   4.334   1.793   1.307 -0.2572 -0.2905  0.5823
   55GLOH   H01 8950   4.370   1.767   1.221  1.3026 -0.3487  1.2464
   56GLOH   H03 8951   3.654   1.356   1.420  0.1371  0.6385 -0.3091
   56GLOH    O1 8952   3.579   1.346   1.482  0.3753  0.7523  0.0005
   56GLOH    C1 8953   3.469   1.297   1.406  0.8513 -0.2006  0.4224
   56GLOH   H02 8954   3.502   1.209   1.351  1.0251  0.5999 -0.7606
   56GLOH   H08 8955   3.447   1.381   1.340 -0.7498 -1.4121 -0.5950
   56GLOH    C2 8956   3.346   1.261   1.486  1.4838  0.6738  0.3688
   56GLOH   H04 8957   3.281   1.346   1.509 -0.0049  0.4155 -2.6008
   56GLOH    O2 8958   3.275   1.175   1.394 -0.1240  0.1130 -0.0886
   56GLOH   H05 8959   3.179   1.192   1.389 -0.8738 -3.5144  0.0511
   56GLOH    C3 8960   3.370   1.176   1.611  0.0193 -0.5683  0.5945
   56GLOH   H06 8961   3.441   1.233   1.670  0.0866  0.8296 -0.8000
   56GLOH   H07 8962   3.422   1.085   1.583  0.5790  0.1892 -0.8651
   56GLOH    O3 8963   3.260   1.150   1.696 -0.2156  0.1850 -0.4576
   56GLOH   H01 8964   3.260   1.054   1.714 -3.1607  0.5187  1.5623
   57GLOH   H03 8965   2.928   0.413   1.491  0.6322  1.2636 -1.6977
   57GLOH    O1 8966   3.020   0.387   1.470  0.7142  0.2193 -0.1396
   57GLOH    C1 8967   3.035   0.381   1.327 -0.1075 -0.2448 -0.4784
   57GLOH   H02 8968   3.140   0.374   1.300 -0.3507  0.7802 -1.7391
   57GLOH   H08 8969   2.995   0.475   1.290  0.2277  0.3065  0.5221
   57GLOH    C2 8970   2.964   0.261   1.264 -0.1968  0.6810 -0.6328
   57GLOH   H04 8971   2.974   0.275   1.155  2.5950  1.0277 -0.3746
   57GLOH    O2 8972   3.022   0.130   1.306  0.1252  0.3323 -0.2867
   57GLOH   H05 8973   3.118   0.139   1.290 -0.0613  2.0880 -0.5554
   57GLOH    C3 8974   2.810   0.273   1.305  0.3921 -0.2460  0.1773
   57GLOH   H06 8975   2.800   0.277   1.414  1.6786  0.0717  0.2848
   57GLOH   H07 8976   2.761   0.180   1.274 -1.0636 -0.2518  2.3335
   57GLOH    O3 8977   2.746   0.385   1.238 -0.2265  0.5726  0.1465
   57GLOH   H01 8978   2.794   0.399   1.155  1.4780  1.6529  1.2916
   58GLOH   H03 8979   3.932   0.630   1.641 -1.1120 -0.3451 -0.5089
   58GLOH    O1 8980   3.973   0.620   1.553  0.5615 -0.2693  0.2359
   58GLOH    C1 8981   3.870   0.577   1.463  0.4688  0.9947 -0.3487
   58GLOH   H02 8982   3.914   0.551   1.367  0.4037  2.8857 -0.9186
   58GLOH   H08 8983   3.803   0.661   1.447 -1.5298 -0.3219  0.8578
   58GLOH    C2 8984   3.784   0.452   1.510  0.2968  0.4652  0.2691
   58GLOH   H04 8985   3.853   0.374   1.545 -0.8467 -1.6243 -1.9182
   58GLOH    O2 8986   3.707   0.496   1.621  0.3334  0.2070 -0.2154
   58GLOH   H05 8987   3.671   0.414   1.659  2.5372 -0.2678  0.8911
   58GLOH    C3 8988   3.692   0.406   1.396 -0.1477  0.2827 -0.2705
   58GLOH   H06 8989   3.731   0.445   1.302  1.5298  0.4430  0.4679
   58GLOH   H07 8990   3.599   0.459   1.417  1.8082  3.8794 -0.2414
   58GLOH    O3 8991   3.680   0.268   1.386  0.4379 -0.0370  0.2636
   58GLOH   H01 8992   3.589   0.249   1.416  0.5531  1.6159  1.8027
   59GLOH   H03 8993   4.356   1.708   0.685  0.9368  1.7373 -0.0221
   59GLOH    O1 8994   4.405   1.648   0.625 -0.1190  0.1830  0.6556
   59GLOH    C1 8995   4.306   1.576   0.548 -0.2670 -0.5226  0.6415
   59GLOH   H02 8996   4.348   1.516   0.467  2.6647 -0.0294  1.7068
   59GLOH   H08 8997   4.233   1.636   0.493  0.0558 -1.2247 -0.5708
   59GLOH    C2 8998   4.220   1.485   0.637  0.0103  0.9061  0.4817
   59GLOH   H04 8999   4.289   1.417   0.690 -1.1613 -1.8795 -1.4398
   59GLOH    O2 9000   4.146   1.560   0.734 -0.3299  0.3496 -0.2499
   59GLOH   H05 9001   4.179   1.651   0.739  1.0179 -0.2808  3.7597
   59GLOH    C3 9002   4.126   1.388   0.557  0.6179 -1.0969  0.1566
   59GLOH   H06 9003   4.059   1.449   0.496 -0.6635 -0.6990  1.9113
   59GLOH   H07 9004   4.062   1.329   0.623  0.0771 -1.4872 -0.7145
   59GLOH    O3 9005   4.203   1.294   0.473  0.4776 -0.1612 -0.1574
   59GLOH   H01 9006   4.276   1.250   0.520  0.0952  0.4150  0.9815
   60GLOH   H03 9007   3.019   0.192   0.748  0.3055 -1.8036  1.2091
   60GLOH    O1 9008   3.074   0.173   0.670 -0.1836  0.3571  0.2739
   60GLOH    C1 9009   3.189   0.252   0.695 -0.1208 -0.4711  0.6658
   60GLOH   H02 9010   3.166   0.326   0.772  0.9320 -0.6764  1.1968
   60GLOH   H08 9011   3.204   0.302   0.599  0.5600  2.1495  2.0752
   60GLOH    C2 9012   3.312   0.177   0.733  0.3450  0.0038  0.2734
   60GLOH   H04 9013   3.318   0.081   0.679 -2.0063 -0.0900  0.1529
   60GLOH    O2 9014   3.419   0.269   0.704  0.0060  0.5093 -0.0103
   60GLOH   H05 9015   3.442   0.261   0.610 -1.4877  1.0728 -0.4296
   60GLOH    C3 9016   3.315   0.142   0.887 -0.3386 -0.4320  0.4362
   60GLOH   H06 9017   3.391   0.064   0.892 -0.8890 -0.9506  0.8809
   60GLOH   H07 9018   3.220   0.096   0.915 -1.2321  0.6505 -0.7578
   60GLOH    O3 9019   3.347   0.253   0.973 -0.5271  0.5821  0.2854
   60GLOH   H01 9020   3.445   0.260   0.974 -0.5793  2.3805 -2.6603
   61GLOH   H03 9021   2.667   9.583   0.071  1.2676 -1.2591 -0.6048
   61GLOH    O1 9022   2.678   9.635  -0.011  0.1571  0.4573  0.3009
   61GLOH    C1 9023   2.808   9.609  -0.074  0.1873 -0.0784  0.3052
   61GLOH   H02 9024   2.793   9.544  -0.160  0.1153 -0.8581  0.9009
   61GLOH   H08 9025   2.866   9.557   0.003 -0.9665 -1.5407  0.1994
   61GLOH    C2 9026   2.882   9.746  -0.098  0.1800 -0.0597  0.6207
   61GLOH   H04 9027   2.843   9.808  -0.017 -0.0715 -1.0262  1.2462
   61GLOH    O2 9028   3.027   9.736  -0.095  0.1875  0.0100  0.1612
   61GLOH   H05 9029   3.065   9.648  -0.109  0.0082  0.1996 -1.6397
   61GLOH    C3 9030   2.833   9.806  -0.226 -0.0786 -0.4980  0.4258
   61GLOH   H06 9031   2.875   9.767  -0.320  1.3271  1.7528  0.0816
   61GLOH   H07 9032   2.867   9.909  -0.218 -0.4213 -0.3767  0.2998
   61GLOH    O3 9033   2.693   9.809  -0.234  0.1516 -0.4668 -0.0163
   61GLOH   H01 9034   2.644   9.776  -0.156 -2.3588  2.1858 -0.3684
   62GLOH   H03 9035   4.268   0.555   1.029 -0.0446 -0.2797  1.0212
   62GLOH    O1 9036   4.260   0.645   0.994  0.0107 -0.7142 -0.1576
   62GLOH    C1 9037   4.372   0.723   1.052  0.3227 -0.4541 -0.0424
   62GLOH   H02 9038   4.360   0.726   1.160  0.9565 -2.5240  0.1053
   62GLOH   H08 9039   4.364   0.827   1.023 -1.3547 -0.5460  0.0130
   62GLOH    C2 9040   4.509   0.672   1.006  0.3460  0.1737 -0.0386
   62GLOH   H04 9041   4.513   0.562   1.001 -1.1162  0.0439  1.1797
   62GLOH    O2 9042   4.543   0.704   0.872 -0.1543 -1.2752  0.0932
   62GLOH   H05 9043   4.459   0.711   0.824 -1.0689 -1.0990  1.6712
   62GLOH    C3 9044   4.621   0.724   1.093  0.0940 -0.4165  0.6090
   62GLOH   H06 9045   4.708   0.683   1.041 -0.5865 -1.6084  0.3770
   62GLOH   H07 9046   4.621   0.672   1.189 -0.5167  0.5385  1.1215
   62GLOH    O3 9047   4.637   0.862   1.105 -0.3135  0.2258 -0.3751
   62GLOH   H01 9048   4.661   0.899   1.019  1.5361  0.2113  0.1021
   63GLOH   H03 9049   3.823   1.449   1.050 -2.0852  0.1652  0.2947
   63GLOH    O1 9050   3.839   1.355   1.072 -0.7262  0.3123 -0.0434
   63GLOH    C1 9051   3.948   1.314   0.982 -0.3440 -0.0114  0.1780
   63GLOH   H02 9052   3.917   1.321   0.878  0.9288  1.8214 -0.1079
   63GLOH   H08 9053   3.975   1.210   0.998 -1.9468 -0.4452  0.1545
   63GLOH    C2 9054   4.081   1.389   0.998 -0.7639 -0.0690 -1.0235
   63GLOH   H04 9055   4.147   1.340   0.925 -0.1812  0.2527 -0.7148
   63GLOH    O2 9056   4.054   1.529   0.960  0.3257  0.4760  0.6211
   63GLOH   H05 9057   4.077   1.544   0.867 -0.4481 -0.7394  0.2121
   63GLOH    C3 9058   4.118   1.365   1.145  0.2798  0.0528 -0.1915
   63GLOH   H06 9059   4.038   1.416   1.200 -1.5293 -0.7792 -1.9877
   63GLOH   H07 9060   4.207   1.425   1.162  0.2900 -0.5385  2.1668
   63GLOH    O3 9061   4.134   1.228   1.193  0.0332  0.3394  0.2497
   63GLOH   H01 9062   4.164   1.222   1.286  2.7971 -0.1537 -0.6081
   64GLOH   H03 9063   2.811  10.088   0.744 -0.2073  1.1074  0.4532
   64GLOH    O1 9064   2.753  10.020   0.704  0.5150  0.6123  0.2475
   64GLOH    C1 9065   2.797   9.980   0.575  0.1198 -0.4617 -0.1862
   64GLOH   H02 9066   2.789   9.872   0.574 -0.4756 -0.4732  2.0412
   64GLOH   H08 9067   2.901  10.008   0.558 -0.2138 -0.0959 -1.6475
   64GLOH    C2 9068   2.710  10.038   0.459  0.2656  0.1853  0.6081
   64GLOH   H04 9069   2.697  10.147   0.472 -1.2105 -0.0149  0.8485
   64GLOH    O2 9070   2.775  10.009   0.335 -0.0817  0.1563 -0.4891
   64GLOH   H05 9071   2.725  10.054   0.265 -0.2733  0.2400 -0.2994
   64GLOH    C3 9072   2.571   9.975   0.466  0.1777  0.1302  0.2533
   64GLOH   H06 9073   2.586   9.869   0.450 -2.7942 -0.2745 -0.0911
   64GLOH   H07 9074   2.510  10.001   0.379 -0.1582 -0.8712  0.1894
   64GLOH    O3 9075   2.493  10.004   0.584  0.5908 -0.1827 -0.1070
   64GLOH   H01 9076   2.552  10.001   0.662 -0.7145 -0.0931  0.8974
   65GLOH   H03 9077   3.799   9.324   0.332  0.2532 -0.2807  0.7568
   65GLOH    O1 9078   3.747   9.366   0.403  0.1321  0.4401  0.2489
   65GLOH    C1 9079   3.701   9.498   0.362  0.0365  0.6252  0.1178
   65GLOH   H02 9080   3.782   9.570   0.355  0.0311  0.6127 -0.0901
   65GLOH   H08 9081   3.650   9.533   0.452  0.3124 -1.4738  1.1233
   65GLOH    C2 9082   3.601   9.490   0.244 -0.3350  0.0657  0.4973
   65GLOH   H04 9083   3.519   9.418   0.263 -0.1663  0.3137  2.1818
   65GLOH    O2 9084   3.539   9.617   0.215 -0.5320  0.0745  0.0693
   65GLOH   H05 9085   3.491   9.648   0.293 -1.2966  1.5659 -0.9643
   65GLOH    C3 9086   3.693   9.447   0.124 -0.0422 -0.0121  0.2989
   65GLOH   H06 9087   3.772   9.521   0.112  0.4896 -0.7222 -0.6493
   65GLOH   H07 9088   3.631   9.443   0.034  0.7272 -1.4344 -0.1742
   65GLOH    O3 9089   3.750   9.316   0.149  0.5781  0.6901 -0.0550
   65GLOH   H01 9090   3.676   9.255   0.166  0.8699 -0.0038 -1.2433
   66GLOH   H03 9091   3.362  10.090   0.330 -0.2145  1.3952  0.3286
   66GLOH    O1 9092   3.406  10.092   0.417 -0.0621  0.2430  0.2814
   66GLOH    C1 9093   3.551  10.103   0.400  0.3120 -0.4081  0.6098
   66GLOH   H02 9094   3.602  10.122   0.495 -0.6181  2.9176  0.5328
   66GLOH   H08 9095   3.583  10.191   0.344  0.5812  0.5158  2.1841
   66GLOH    C2 9096   3.618   9.972   0.343 -0.2702 -0.0447 -0.6522
   66GLOH   H04 9097   3.725   9.994   0.333 -0.3590  0.8786  0.3806
   66GLOH    O2 9098   3.606   9.856   0.434  0.0251  0.5217  0.2086
   66GLOH   H05 9099   3.519   9.812   0.429  0.0995  0.0355  2.6225
   66GLOH    C3 9100   3.571   9.937   0.202  0.1956  0.5669  0.6526
   66GLOH   H06 9101   3.462   9.936   0.201  0.1555  0.1651  2.4307
   66GLOH   H07 9102   3.600   9.833   0.187  0.1480  0.4141  1.5537
   66GLOH    O3 9103   3.620  10.020   0.100 -0.6521 -0.1591 -0.0624
   66GLOH   H01 9104   3.717  10.010   0.099 -0.5260  0.9683 -0.5649
   67GLOH   H03 9105   4.604   1.995   2.087 -2.9838  1.6293 -2.3329
   67GLOH    O1 9106   4.582   2.049   2.165  0.0989  0.0559 -0.2777
   67GLOH    C1 9107   4.514   1.967   2.262 -0.0075  1.2730  0.0085
   67GLOH   H02 9108   4.556   1.983   2.361 -1.4452 -4.0217  1.5886
   67GLOH   H08 9109   4.539   1.862   2.251  1.6922  1.5496  0.9709
   67GLOH    C2 9110   4.364   1.993   2.282 -0.3641 -0.2776  0.3972
   67GLOH   H04 9111   4.320   1.983   2.181 -1.9165  4.2836  0.5218
   67GLOH    O2 9112   4.301   1.893   2.364  0.1152  0.2411 -0.0236
   67GLOH   H05 9113   4.329   1.803   2.338 -0.0830  0.2739 -0.3471
   67GLOH    C3 9114   4.359   2.135   2.344  0.6588  0.6817 -0.4315
   67GLOH   H06 9115   4.404   2.125   2.443  1.0699 -2.7037 -0.9000
   67GLOH   H07 9116   4.252   2.150   2.359  1.0058  3.1118 -0.2176
   67GLOH    O3 9117   4.414   2.243   2.266  0.7703 -0.4244  0.4724
   67GLOH   H01 9118   4.510   2.244   2.245  0.3694  0.3020 -1.4645
   68GLOH   H03 9119   3.575   1.406   1.713 -2.2080  0.3874 -0.3936
   68GLOH    O1 9120   3.584   1.477   1.779  0.0403 -0.4311  0.2255
   68GLOH    C1 9121   3.523   1.435   1.896 -0.4613  0.3411  0.5620
   68GLOH   H02 9122   3.421   1.407   1.874 -0.5449  2.1006 -1.4245
   68GLOH   H08 9123   3.512   1.520   1.963 -2.4552  0.0726  0.5905
   68GLOH    C2 9124   3.603   1.318   1.964  0.0198  0.0084 -0.8523
   68GLOH   H04 9125   3.703   1.355   1.989  0.0258  0.7148 -1.8808
   68GLOH    O2 9126   3.552   1.269   2.088 -0.5168 -0.5290  0.3417
   68GLOH   H05 9127   3.511   1.184   2.065  0.2460 -0.3404 -1.8149
   68GLOH    C3 9128   3.622   1.203   1.870 -0.7624  1.3497  0.6409
   68GLOH   H06 9129   3.521   1.170   1.847 -0.6411  0.0897  1.8002
   68GLOH   H07 9130   3.668   1.119   1.922 -0.3616  0.6196 -0.8558
   68GLOH    O3 9131   3.701   1.233   1.756 -0.1980 -0.0757 -0.2003
   68GLOH   H01 9132   3.784   1.270   1.791  1.1288 -0.1311 -3.1580
   69GLOH   H03 9133   4.063   1.988   2.492  0.9365 -0.5453  0.5853
   69GLOH    O1 9134   3.966   2.002   2.491  0.9766 -0.2693 -0.5959
   69GLOH    C1 9135   3.897   1.877   2.521  0.5508 -0.0250  0.0687
   69GLOH   H02 9136   3.913   1.820   2.429  1.1197 -0.0512  0.1851
   69GLOH   H08 9137   3.791   1.893   2.541  0.6807  0.9364  0.0027
   69GLOH    C2 9138   3.967   1.808   2.640  0.1890  0.0812 -0.0847
   69GLOH   H04 9139   3.951   1.870   2.729 -0.4360 -0.6750  0.3416
   69GLOH    O2 9140   3.905   1.682   2.669 -0.3605  0.2255  0.6794
   69GLOH   H05 9141   3.946   1.635   2.744 -0.8066 -0.6456  0.3919
   69GLOH    C3 9142   4.116   1.779   2.610  0.4927 -0.9426  0.6287
   69GLOH   H06 9143   4.121   1.709   2.527  1.8645 -0.6414  0.4524
   69GLOH   H07 9144   4.158   1.736   2.701 -0.8635  0.0573  1.7589
   69GLOH    O3 9145   4.186   1.899   2.576 -0.1672 -0.2310 -0.7046
   69GLOH   H01 9146   4.238   1.900   2.493 -0.1024  1.0770 -0.6604
   70GLOH   H03 9147   2.239   9.970   2.451  3.5684  1.1657 -1.6156
   70GLOH    O1 9148   2.183  10.020   2.389  0.1466  0.4536  0.7581
   70GLOH    C1 9149   2.269  10.078   2.286  0.2431  0.0636  0.0856
   70GLOH   H02 9150   2.332  10.002   2.240  1.6569 -0.1980  2.3647
   70GLOH   H08 9151   2.334  10.156   2.326 -1.6133  0.5769  2.2105
   70GLOH    C2 9152   2.188  10.159   2.186  0.0492 -0.7910  0.1697
   70GLOH   H04 9153   2.123  10.233   2.236  1.4352  0.8977 -0.4734
   70GLOH    O2 9154   2.267  10.241   2.092  0.2397 -0.2523 -0.1248
   70GLOH   H05 9155   2.285  10.197   2.007 -0.4400  0.5884 -0.7149
   70GLOH    C3 9156   2.099  10.062   2.104  1.2239  0.6758  0.3009
   70GLOH   H06 9157   2.155   9.992   2.043 -2.2880 -1.0991 -0.9994
   70GLOH   H07 9158   2.051  10.129   2.033  1.3926  0.5329  0.0523
   70GLOH    O3 9159   2.008   9.986   2.189  0.3055 -0.3082  0.1089
   70GLOH   H01 9160   2.057   9.977   2.273  0.1809  1.7118  0.4138
   71GLOH   H03 9161   3.516   0.585   1.879  0.2828 -0.1335 -2.3538
   71GLOH    O1 9162   3.561   0.671   1.883 -0.2193  0.0302  0.5554
   71GLOH    C1 9163   3.670   0.663   1.979  0.7016 -0.0481  0.5947
   71GLOH   H02 9164   3.688   0.564   2.021 -1.0086 -1.0448 -0.9438
   71GLOH   H08 9165   3.643   0.730   2.061 -0.2999 -0.6839  0.8030
   71GLOH    C2 9166   3.801   0.712   1.916 -0.0811  0.3339  0.1042
   71GLOH   H04 9167   3.877   0.693   1.994  0.6486  2.5415 -0.0159
   71GLOH    O2 9168   3.844   0.639   1.798 -0.7013  0.1766 -0.0195
   71GLOH   H05 9169   3.774   0.599   1.744  1.4086 -2.0270 -1.2088
   71GLOH    C3 9170   3.793   0.868   1.901  0.1028  0.1885 -0.0619
   71GLOH   H06 9171   3.734   0.907   1.984 -0.0091 -0.5970  0.2252
   71GLOH   H07 9172   3.733   0.894   1.814 -2.3263 -0.2450  1.4405
   71GLOH    O3 9173   3.916   0.937   1.883  0.4448 -0.3284  0.2838
   71GLOH   H01 9174   3.940   0.982   1.967 -2.0356  2.3990 -0.3948
   72GLOH   H03 9175   2.489   1.523   2.720 -1.7134  3.0173  1.5158
   72GLOH    O1 9176   2.557   1.571   2.669 -0.4956 -0.0127  0.1143
   72GLOH    C1 9177   2.500   1.614   2.540  0.4098  0.4382  0.1538
   72GLOH   H02 9178   2.409   1.669   2.564  0.0137 -1.0270  2.2399
   72GLOH   H08 9179   2.474   1.533   2.471  0.5753  1.6117 -1.2921
   72GLOH    C2 9180   2.574   1.719   2.458 -0.3578 -0.3746 -0.2324
   72GLOH   H04 9181   2.670   1.686   2.417  1.3994  1.1013  2.5629
   72GLOH    O2 9182   2.500   1.776   2.342  0.3748  0.4376 -0.3743
   72GLOH   H05 9183   2.507   1.709   2.272 -1.4020  0.3504 -0.4830
   72GLOH    C3 9184   2.616   1.830   2.552 -0.2388  0.9335 -0.7229
   72GLOH   H06 9185   2.524   1.873   2.594 -1.3194 -0.6229 -1.4537
   72GLOH   H07 9186   2.681   1.898   2.497 -0.7906  2.6448  0.6720
   72GLOH    O3 9187   2.697   1.779   2.660 -0.1527  0.6552 -0.3703
   72GLOH   H01 9188   2.651   1.695   2.678 -0.3707  0.4288 -1.9111
   73GLOH   H03 9189   3.623   2.107   2.158 -1.1943 -0.3278  2.4261
   73GLOH    O1 9190   3.662   2.175   2.216  0.2112  0.7192  0.3231
   73GLOH    C1 9191   3.795   2.125   2.243  0.0982 -0.1289 -0.1383
   73GLOH   H02 9192   3.833   2.095   2.145 -0.5054 -0.5205 -0.2609
   73GLOH   H08 9193   3.787   2.036   2.305  0.8540 -1.9304 -2.5740
   73GLOH    C2 9194   3.898   2.228   2.308 -0.4091  0.6906  0.1075
   73GLOH   H04 9195   3.994   2.176   2.325 -0.6956  0.1739  0.1835
   73GLOH    O2 9196   3.928   2.332   2.213 -0.4104 -0.4269 -0.4089
   73GLOH   H05 9197   4.023   2.332   2.195 -0.2947 -1.8680  0.1393
   73GLOH    C3 9198   3.836   2.289   2.436  0.1278 -0.3058 -0.3271
   73GLOH   H06 9199   3.749   2.352   2.417  0.7000  0.9786  1.2274
   73GLOH   H07 9200   3.915   2.356   2.471  1.3367 -1.5528 -0.6176
   73GLOH    O3 9201   3.799   2.182   2.520  0.0287 -0.2932 -0.1430
   73GLOH   H01 9202   3.875   2.127   2.542  0.1671  0.2646  0.7828
   74GLOH   H03 9203   2.486   0.886   2.648 -1.6769 -1.4617 -1.0647
   74GLOH    O1 9204   2.457   0.922   2.562 -0.3860  0.5478 -0.6838
   74GLOH    C1 9205   2.338   0.999   2.583  0.1152 -0.3499 -0.0208
   74GLOH   H02 9206   2.283   0.952   2.665 -0.7992  1.5136  0.4525
   74GLOH   H08 9207   2.274   0.992   2.495 -2.1125  3.3590  1.1893
   74GLOH    C2 9208   2.355   1.149   2.609 -0.3223 -0.9194 -0.4421
   74GLOH   H04 9209   2.253   1.188   2.621 -1.1150 -2.9182 -0.4138
   74GLOH    O2 9210   2.425   1.167   2.735 -0.0413  0.1697 -0.2147
   74GLOH   H05 9211   2.399   1.100   2.800 -1.4987 -0.1668 -1.1309
   74GLOH    C3 9212   2.418   1.230   2.496 -0.7782  0.0717  0.4482
   74GLOH   H06 9213   2.513   1.194   2.457 -0.7315  0.6381  0.0182
   74GLOH   H07 9214   2.440   1.331   2.531  0.3154 -0.2351  0.6394
   74GLOH    O3 9215   2.326   1.244   2.383  0.3146  0.7245  0.2974
   74GLOH   H01 9216   2.315   1.337   2.356  1.7310  0.9997  0.6489
   75GLOH   H03 9217   4.252  10.001   2.017  1.8503 -3.1069  1.2451
   75GLOH    O1 9218   4.205  10.008   2.102  0.2383  0.3987  0.1672
   75GLOH    C1 9219   4.152  10.142   2.099 -0.4934 -0.6535  0.2120
   75GLOH   H02 9220   4.110  10.170   2.003  0.4599 -1.4342 -0.4349
   75GLOH   H08 9221   4.242  10.203   2.108 -0.6415 -0.5707  1.2004
   75GLOH    C2 9222   4.060  10.186   2.214 -0.1279 -0.0862 -0.4253
   75GLOH   H04 9223   4.124  10.218   2.298 -3.2145 -0.7449  2.2774
   75GLOH    O2 9224   3.992  10.305   2.179 -0.6014  0.0315  0.6832
   75GLOH   H05 9225   4.051  10.375   2.146  1.0391 -1.3253  0.6740
   75GLOH    C3 9226   3.966  10.080   2.266  0.7463  0.5240  0.6904
   75GLOH   H06 9227   3.901  10.035   2.191  1.0145  0.3466  0.5614
   75GLOH   H07 9228   3.909  10.108   2.354 -0.6820 -0.3383  0.0527
   75GLOH    O3 9229   4.048   9.966   2.305  0.0715 -0.2082 -0.4542
   75GLOH   H01 9230   4.095   9.951   2.221  0.5748  0.6192 -0.3209
   76GLOH   H03 9231   3.302   2.427   0.310  0.2135  1.3670 -0.5255
   76GLOH    O1 9232   3.338   2.477   0.386  0.4041  0.1910  0.1775
   76GLOH    C1 9233   3.478   2.434   0.412 -0.9364  0.2281  0.0778
   76GLOH   H02 9234   3.533   2.526   0.430 -0.2015 -0.6952  2.6740
   76GLOH   H08 9235   3.526   2.391   0.324 -1.8611 -0.0530 -0.2969
   76GLOH    C2 9236   3.495   2.343   0.532 -0.0808  0.7289 -0.2254
   76GLOH   H04 9237   3.431   2.255   0.522 -0.0402  0.7573 -0.7583
   76GLOH    O2 9238   3.634   2.305   0.531  0.1829  0.0342  0.4880
   76GLOH   H05 9239   3.657   2.272   0.443 -3.5010 -0.4777 -0.4015
   76GLOH    C3 9240   3.448   2.426   0.651 -0.0152  0.4023 -0.1598
   76GLOH   H06 9241   3.509   2.516   0.656  1.7531 -0.8593  1.5978
   76GLOH   H07 9242   3.470   2.370   0.742  0.2654  1.4179  0.4066
   76GLOH    O3 9243   3.315   2.467   0.643  0.3176  0.3661 -0.5928
   76GLOH   H01 9244   3.296   2.462   0.547  0.2944  0.6442 -0.6013
   77GLOH   H03 9245   4.326   1.152   2.733  1.5607  0.0905 -0.2884
   77GLOH    O1 9246   4.298   1.235   2.689 -0.2960 -0.1404  0.4271
   77GLOH    C1 9247   4.154   1.235   2.675  0.0368 -0.7143  0.1913
   77GLOH   H02 9248   4.114   1.171   2.754 -1.6348  1.0569  0.8129
   77GLOH   H08 9249   4.110   1.195   2.584 -1.6617 -0.1187  0.7273
   77GLOH    C2 9250   4.084   1.368   2.697  0.0607  0.3942 -0.0889
   77GLOH   H04 9251   4.148   1.446   2.654  1.1207 -1.5423 -2.1072
   77GLOH    O2 9252   3.950   1.374   2.640 -0.1900  0.1152  0.1740
   77GLOH   H05 9253   3.953   1.376   2.543 -3.7838  0.1884 -0.0166
   77GLOH    C3 9254   4.077   1.415   2.846 -0.5532 -0.1959  0.0034
   77GLOH   H06 9255   4.175   1.398   2.892 -1.0430  0.0595  1.1655
   77GLOH   H07 9256   4.004   1.349   2.893  1.5543 -1.5704  1.4714
   77GLOH    O3 9257   4.033   1.548   2.860 -0.6059 -0.1428 -0.1761
   77GLOH   H01 9258   4.061   1.591   2.943  1.8787 -0.9753 -0.5602
   78GLOH   H03 9259   3.412   2.440   1.570 -1.4056  1.5887  2.2330
   78GLOH    O1 9260   3.491   2.496   1.576 -0.3002  0.3742 -0.1994
   78GLOH    C1 9261   3.595   2.424   1.663  0.0746 -0.3954 -0.4063
   78GLOH   H02 9262   3.623   2.324   1.630  0.6982  0.0072 -1.1263
   78GLOH   H08 9263   3.547   2.407   1.759  0.1260  0.9276 -0.1302
   78GLOH    C2 9264   3.725   2.508   1.694 -0.1091  1.1520 -0.0055
   78GLOH   H04 9265   3.697   2.590   1.760 -2.4219  0.8259 -0.5336
   78GLOH    O2 9266   3.817   2.415   1.754 -0.2293 -0.1664 -0.8956
   78GLOH   H05 9267   3.792   2.399   1.847  0.7611 -0.6454 -0.7050
   78GLOH    C3 9268   3.783   2.566   1.570 -0.4139 -0.8005  0.5656
   78GLOH   H06 9269   3.788   2.487   1.495 -0.4836 -0.2704  0.0007
   78GLOH   H07 9270   3.887   2.595   1.584 -0.7090 -0.0184  1.1443
   78GLOH    O3 9271   3.706   2.673   1.523  0.0865 -0.4131 -0.3279
   78GLOH   H01 9272   3.612   2.650   1.529 -0.7516  2.7018 -0.6496
   79GLOH   H03 9273   3.267  10.046   0.105 -0.6080  0.5619 -0.3392
   79GLOH    O1 9274   3.272  10.115   0.173  0.3174  0.0521  0.1227
   79GLOH    C1 9275   3.139  10.152   0.221 -0.4175  0.4956  0.2747
   79GLOH   H02 9276   3.151  10.218   0.307 -2.6422  0.6589  0.4710
   79GLOH   H08 9277   3.091  10.063   0.263  0.2479 -1.0673 -2.1793
   79GLOH    C2 9278   3.042  10.212   0.111 -0.3630 -0.2270 -0.1068
   79GLOH   H04 9279   3.105  10.290   0.065 -2.2566 -0.4119 -3.1565
   79GLOH    O2 9280   2.995  10.106   0.030 -0.3900 -0.0336  0.1513
   79GLOH   H05 9281   2.951  10.148  -0.045 -0.7866 -3.0578 -1.3803
   79GLOH    C3 9282   2.926  10.288   0.180 -0.0508  1.2733  0.8577
   79GLOH   H06 9283   2.855  10.218   0.224  0.3090  0.1182 -0.3573
   79GLOH   H07 9284   2.877  10.333   0.094 -0.4257  2.4443  1.6838
   79GLOH    O3 9285   2.972  10.389   0.275  0.0799  0.4383  0.4386
   79GLOH   H01 9286   3.019  10.462   0.229  0.4702 -0.8138 -1.2029
   80GLOH   H03 9287   3.496   9.684   0.075 -1.1790 -0.6185  0.2441
   80GLOH    O1 9288   3.465   9.727  -0.007 -0.6256 -0.0616  0.3233
   80GLOH    C1 9289   3.565   9.711  -0.112  0.7258 -0.3516 -0.4331
   80GLOH   H02 9290   3.661   9.686  -0.067 -0.0165 -1.9357  0.3092
   80GLOH   H08 9291   3.586   9.811  -0.151  1.5999  0.1321  1.2346
   80GLOH    C2 9292   3.519   9.604  -0.219 -0.1197 -0.0487  0.1364
   80GLOH   H04 9293   3.603   9.597  -0.290 -1.0779  0.8864 -1.1014
   80GLOH    O2 9294   3.489   9.477  -0.166  0.9154 -0.0651  0.0436
   80GLOH   H05 9295   3.551   9.406  -0.190 -0.2441 -0.1917 -2.8422
   80GLOH    C3 9296   3.398   9.660  -0.299  0.3983  0.2703 -0.0189
   80GLOH   H06 9297   3.320   9.686  -0.228  0.3457  1.2031 -0.4144
   80GLOH   H07 9298   3.369   9.589  -0.376 -0.6886  2.1118 -1.3292
   80GLOH    O3 9299   3.435   9.780  -0.360  0.4503 -0.0006  0.0154
   80GLOH   H01 9300   3.526   9.786  -0.394 -0.4894  0.8904 -2.4229
   81GLOH   H03 9301   3.613   1.704   2.302 -0.6086 -1.7718  3.8305
   81GLOH    O1 9302   3.710   1.696   2.303 -0.3791 -0.1882 -0.1286
   81GLOH    C1 9303   3.737   1.574   2.375  0.4468  0.2490  0.2583
   81GLOH   H02 9304   3.665   1.499   2.342  0.9174  0.8612 -2.2659
   81GLOH   H08 9305   3.713   1.598   2.479  0.4752  0.4406  0.2209
   81GLOH    C2 9306   3.887   1.529   2.353  0.7946  0.1876  0.2277
   81GLOH   H04 9307   3.949   1.599   2.410 -1.5123  2.8028 -0.3369
   81GLOH    O2 9308   3.896   1.394   2.398 -0.4390 -1.0991 -0.1492
   81GLOH   H05 9309   3.839   1.344   2.337  2.1854 -2.0776 -1.8773
   81GLOH    C3 9310   3.929   1.537   2.207  0.1789  0.5980 -0.2026
   81GLOH   H06 9311   3.865   1.473   2.147 -0.5139  3.0802 -2.1591
   81GLOH   H07 9312   4.034   1.506   2.202  0.0528 -0.4165  2.3404
   81GLOH    O3 9313   3.912   1.671   2.152  0.3285  0.1448  0.3850
   81GLOH   H01 9314   3.831   1.691   2.202 -0.4804 -0.1182 -0.7896
   82GLOH   H03 9315   3.999   9.063   1.311 -0.8733  1.5865 -1.1550
   82GLOH    O1 9316   3.935   8.990   1.303  0.6933  0.0754 -0.2775
   82GLOH    C1 9317   3.859   9.016   1.178  0.2010 -0.4031  0.6311
   82GLOH   H02 9318   3.763   9.064   1.197  0.6208  1.8300 -2.4301
   82GLOH   H08 9319   3.825   8.926   1.127 -0.8325  1.8234 -2.8159
   82GLOH    C2 9320   3.933   9.104   1.079 -0.3992 -0.8506 -0.2846
   82GLOH   H04 9321   4.027   9.057   1.047  0.7452  0.4772  1.0903
   82GLOH    O2 9322   3.847   9.136   0.968  0.1123  0.3548 -0.0680
   82GLOH   H05 9323   3.856   9.063   0.904  3.1531  1.3072 -0.8340
   82GLOH    C3 9324   3.984   9.229   1.152  0.5229 -0.5117  0.5477
   82GLOH   H06 9325   3.905   9.295   1.187  1.0768  0.3198  0.2333
   82GLOH   H07 9326   4.037   9.290   1.080 -0.6958 -0.2547 -0.1503
   82GLOH    O3 9327   4.057   9.206   1.273 -0.1968 -0.0902  0.1485
   82GLOH   H01 9328   4.076   9.296   1.305 -1.1553 -0.2017  1.0425
   83GLOH   H03 9329   4.319   1.298   2.557  3.4871  0.9272  0.1241
   83GLOH    O1 9330   4.315   1.336   2.468 -0.5160 -0.3580 -0.3677
   83GLOH    C1 9331   4.385   1.461   2.448 -0.2381 -0.2311  0.3456
   83GLOH   H02 9332   4.491   1.444   2.429  0.2521  1.8891  1.0156
   83GLOH   H08 9333   4.387   1.531   2.532  0.8508 -1.6081  1.4898
   83GLOH    C2 9334   4.332   1.538   2.328  0.5694  0.8253  0.8180
   83GLOH   H04 9335   4.226   1.553   2.356  0.0729 -2.0428  0.6878
   83GLOH    O2 9336   4.401   1.663   2.308 -0.1758  0.5650 -0.0469
   83GLOH   H05 9337   4.453   1.648   2.227  2.3636 -0.2389  1.6819
   83GLOH    C3 9338   4.334   1.452   2.198  0.1364 -0.4683 -0.6220
   83GLOH   H06 9339   4.436   1.446   2.158  0.3394 -0.4306 -0.1153
   83GLOH   H07 9340   4.281   1.506   2.120  0.5030 -0.5096 -0.9015
   83GLOH    O3 9341   4.285   1.316   2.216 -0.1345  0.1012  0.6510
   83GLOH   H01 9342   4.304   1.285   2.307 -2.9855 -0.1458  1.2011
   84GLOH   H03 9343   3.392   2.022   2.556 -2.9433  1.9865 -1.3769
   84GLOH    O1 9344   3.339   1.943   2.579  0.2369  0.1753  0.0711
   84GLOH    C1 9345   3.385   1.871   2.695  0.2792  0.4312  0.2324
   84GLOH   H02 9346   3.310   1.882   2.774  1.1617  1.3942  0.9499
   84GLOH   H08 9347   3.474   1.920   2.733  0.4277 -1.2783  2.1631
   84GLOH    C2 9348   3.407   1.720   2.659 -0.3166 -0.1585 -0.1545
   84GLOH   H04 9349   3.484   1.715   2.581  0.0221  0.1936  0.1591
   84GLOH    O2 9350   3.456   1.658   2.779  0.3601 -0.3184 -0.0530
   84GLOH   H05 9351   3.553   1.650   2.772  0.2197 -1.3240 -0.8571
   84GLOH    C3 9352   3.278   1.654   2.615 -0.2521  0.1865  0.6079
   84GLOH   H06 9353   3.187   1.686   2.667 -0.5164 -0.7136  0.7083
   84GLOH   H07 9354   3.283   1.548   2.638  0.0239 -0.1296 -0.8328
   84GLOH    O3 9355   3.253   1.681   2.471  0.0349  0.0449  0.2103
   84GLOH   H01 9356   3.181   1.746   2.457 -1.1651 -1.0420  1.2832
   85GLOH   H03 9357   2.677   0.617   0.803  0.2792  0.3764  0.9685
   85GLOH    O1 9358   2.752   0.555   0.805  0.3201  0.3596 -0.7053
   85GLOH    C1 9359   2.687   0.429   0.794  0.3387  0.3733 -0.0582
   85GLOH   H02 9360   2.652   0.385   0.888  1.2459  1.0751  0.6229
   85GLOH   H08 9361   2.758   0.357   0.754 -2.3394 -2.1503 -0.4163
   85GLOH    C2 9362   2.573   0.423   0.698  0.1520  0.6378 -0.3969
   85GLOH   H04 9363   2.492   0.480   0.747  0.8302 -0.0913  1.6137
   85GLOH    O2 9364   2.601   0.467   0.565  0.1953  0.0238 -0.7120
   85GLOH   H05 9365   2.691   0.445   0.537  0.3543  0.6362 -0.6848
   85GLOH    C3 9366   2.518   0.277   0.701  0.0877  0.5481 -0.1381
   85GLOH   H06 9367   2.607   0.214   0.690 -1.6773 -1.9512 -0.5947
   85GLOH   H07 9368   2.451   0.252   0.618 -0.2609 -0.3008  0.4009
   85GLOH    O3 9369   2.449   0.255   0.826  0.2789  0.0801  0.1296
   85GLOH   H01 9370   2.511   0.228   0.896  1.1496  1.1388 -0.2225
   86GLOH   H03 9371   3.509   0.624   0.656  2.3238  0.3186  0.1772
   86GLOH    O1 9372   3.486   0.716   0.633  0.1055 -0.3461 -0.4061
   86GLOH    C1 9373   3.473   0.785   0.754 -0.7137 -1.0086  0.4406
   86GLOH   H02 9374   3.367   0.795   0.777 -0.5947 -0.7882  0.8901
   86GLOH   H08 9375   3.508   0.888   0.746 -0.4648 -0.7961  3.6229
   86GLOH    C2 9376   3.543   0.715   0.874  0.1736  0.0811 -0.0474
   86GLOH   H04 9377   3.652   0.714   0.857  0.1789  1.6956 -0.2001
   86GLOH    O2 9378   3.512   0.776   0.997  0.2399  0.1142 -0.1533
   86GLOH   H05 9379   3.593   0.772   1.050 -0.0374 -0.4759  0.2284
   86GLOH    C3 9380   3.483   0.574   0.866 -0.2040  0.2088  0.7785
   86GLOH   H06 9381   3.374   0.584   0.865 -0.2499 -0.1199  1.5678
   86GLOH   H07 9382   3.496   0.533   0.967 -0.5483  1.8123  1.4947
   86GLOH    O3 9383   3.535   0.496   0.759 -0.7119 -0.1071 -0.1843
   86GLOH   H01 9384   3.482   0.418   0.736  0.7817 -1.0815 -0.4193
   87GLOH   H03 9385   3.323   1.073   2.023  0.5165 -0.5981  1.1764
   87GLOH    O1 9386   3.415   1.042   2.034  0.5523 -0.6550  0.7291
   87GLOH    C1 9387   3.409   0.899   2.037 -0.3336 -0.5106 -0.5478
   87GLOH   H02 9388   3.492   0.862   2.097 -0.0142 -1.1360 -1.3806
   87GLOH   H08 9389   3.424   0.860   1.937 -0.6922  1.1443 -1.2691
   87GLOH    C2 9390   3.285   0.839   2.113  0.1178 -0.3131  0.3908
   87GLOH   H04 9391   3.271   0.889   2.210 -1.0903 -0.9678  0.5581
   87GLOH    O2 9392   3.169   0.868   2.031 -0.2816  0.3928  0.1060
   87GLOH   H05 9393   3.089   0.846   2.081 -2.1071  0.1406 -2.8175
   87GLOH    C3 9394   3.308   0.687   2.139  0.0852  1.1280  1.3979
   87GLOH   H06 9395   3.344   0.648   2.043 -0.5204  0.6423  1.3626
   87GLOH   H07 9396   3.213   0.638   2.157 -0.0988 -0.4604 -3.1160
   87GLOH    O3 9397   3.417   0.658   2.232 -0.7416 -0.2262 -0.0837
   87GLOH   H01 9398   3.381   0.676   2.320 -0.1728 -0.5191  0.2113
   88GLOH   H03 9399   3.071   0.527   1.729 -0.4133 -1.3694 -0.2761
   88GLOH    O1 9400   2.983   0.550   1.765 -0.0517  0.2966 -0.3949
   88GLOH    C1 9401   3.009   0.657   1.855 -0.7689 -0.7539 -0.4587
   88GLOH   H02 9402   2.970   0.749   1.813  0.6282  0.0339 -0.0591
   88GLOH   H08 9403   3.115   0.680   1.865 -0.8148 -0.3923 -0.7858
   88GLOH    C2 9404   2.948   0.637   1.995  0.1494 -0.5427 -0.2632
   88GLOH   H04 9405   3.010   0.563   2.047  2.8914  0.1523 -2.4109
   88GLOH    O2 9406   2.943   0.763   2.070  0.0431  0.0687 -0.5683
   88GLOH   H05 9407   2.854   0.800   2.060  0.1322  0.6062  0.6572
   88GLOH    C3 9408   2.812   0.566   1.991 -0.4836 -0.1198  0.2533
   88GLOH   H06 9409   2.829   0.471   1.940 -0.5292  0.2565 -0.4761
   88GLOH   H07 9410   2.739   0.620   1.930  0.3629  1.3046  0.4756
   88GLOH    O3 9411   2.757   0.550   2.124  0.0225  0.4754  0.0860
   88GLOH   H01 9412   2.692   0.478   2.115  0.5666 -0.1825  1.3402
   89GLOH   H03 9413   4.206   9.801   1.811 -0.3982  0.2621 -1.1849
   89GLOH    O1 9414   4.256   9.722   1.785  0.3343  0.4232 -0.2863
   89GLOH    C1 9415   4.396   9.753   1.794 -0.0591  0.5289  0.1134
   89GLOH   H02 9416   4.463   9.675   1.760  1.2285  1.8015 -0.3154
   89GLOH   H08 9417   4.420   9.777   1.898  4.1089  2.0517 -1.1246
   89GLOH    C2 9418   4.429   9.881   1.712 -0.4513 -0.3110  0.2445
   89GLOH   H04 9419   4.539   9.887   1.709 -0.4158 -1.0561 -0.1466
   89GLOH    O2 9420   4.383   9.886   1.576  0.4628 -0.2228  0.2179
   89GLOH   H05 9421   4.317   9.951   1.547  1.7444  0.8829 -0.2718
   89GLOH    C3 9422   4.390  10.011   1.790 -1.1038  0.1716  0.6297
   89GLOH   H06 9423   4.393  10.097   1.724  1.3598  0.4107  1.0143
   89GLOH   H07 9424   4.467  10.035   1.862 -2.8086  1.8626  1.9314
   89GLOH    O3 9425   4.258  10.000   1.847  0.1756  0.5880 -0.3216
   89GLOH   H01 9426   4.195  10.037   1.782 -0.7725  0.9051  0.7525
   90GLOH   H03 9427   2.539   1.650   0.549 -1.1601  2.2923  0.8035
   90GLOH    O1 9428   2.531   1.663   0.453  0.7680 -0.4702  0.2283
   90GLOH    C1 9429   2.588   1.788   0.424  0.4238 -0.1156  0.2909
   90GLOH   H02 9430   2.567   1.864   0.500  0.6637  1.6159 -1.3322
   90GLOH   H08 9431   2.545   1.837   0.337  0.2545  0.0261  0.4525
   90GLOH    C2 9432   2.741   1.773   0.394  0.1664 -0.7945  0.4429
   90GLOH   H04 9433   2.749   1.680   0.335  1.2524 -0.1395 -0.4634
   90GLOH    O2 9434   2.794   1.895   0.334 -0.4872 -0.2458  0.1043
   90GLOH   H05 9435   2.813   1.879   0.240  0.2268  2.6346 -0.2793
   90GLOH    C3 9436   2.823   1.751   0.522  0.1091  0.5807 -0.0661
   90GLOH   H06 9437   2.927   1.767   0.493  0.0593  1.5747  0.2990
   90GLOH   H07 9438   2.811   1.650   0.561 -1.4536  0.8860  0.2844
   90GLOH    O3 9439   2.793   1.850   0.624  0.2433 -0.2948 -0.5498
   90GLOH   H01 9440   2.826   1.835   0.715 -1.0264  2.6170  0.4848
   91GLOH   H03 9441   4.139   1.909   0.495  0.6165 -0.4718 -2.3042
   91GLOH    O1 9442   4.045   1.891   0.481  0.1290 -0.5364  0.5890
   91GLOH    C1 9443   3.985   1.890   0.611  0.2525  0.7930  0.2278
   91GLOH   H02 9444   4.033   1.803   0.656 -0.4669 -1.4750 -3.1852
   91GLOH   H08 9445   3.879   1.866   0.606  0.8975 -1.9020 -1.7045
   91GLOH    C2 9446   4.000   2.010   0.702  0.7363  0.7471  0.0936
   91GLOH   H04 9447   3.934   2.004   0.789  2.6649 -1.1013  1.4594
   91GLOH    O2 9448   4.140   2.038   0.735 -0.0275  0.1484 -0.1070
   91GLOH   H05 9449   4.150   2.092   0.815 -0.4276  1.0000 -0.6233
   91GLOH    C3 9450   3.927   2.131   0.631 -0.6491 -0.3631 -0.0089
   91GLOH   H06 9451   3.973   2.163   0.537 -3.2493  0.3230 -1.1120
   91GLOH   H07 9452   3.924   2.209   0.706 -2.1629  0.1231 -0.5528
   91GLOH    O3 9453   3.795   2.095   0.592  0.1602  0.1617  0.6118
   91GLOH   H01 9454   3.746   2.174   0.564  0.8407  0.7855  1.1284
   92GLOH   H03 9455   4.201   9.488   1.380  0.0059 -0.3174  0.5347
   92GLOH    O1 9456   4.128   9.449   1.329  0.1531 -0.1226  0.1726
   92GLOH    C1 9457   4.023   9.550   1.325 -0.0155 -0.7028 -0.4799
   92GLOH   H02 9458   3.968   9.573   1.416 -0.6423  0.9528 -1.2507
   92GLOH   H08 9459   3.948   9.516   1.254 -0.3784  0.2044 -0.5396
   92GLOH    C2 9460   4.087   9.689   1.271  0.1310 -0.1592 -0.1161
   92GLOH   H04 9461   4.165   9.676   1.195 -1.4419 -0.0556 -1.8007
   92GLOH    O2 9462   3.990   9.789   1.237 -0.4388  0.3586 -0.0683
   92GLOH   H05 9463   4.030   9.867   1.195 -0.9631  1.2363  1.0302
   92GLOH    C3 9464   4.170   9.747   1.390  0.5412  0.3618 -0.0010
   92GLOH   H06 9465   4.099   9.790   1.461  1.6236 -0.3293  1.5042
   92GLOH   H07 9466   4.227   9.832   1.352  1.0490  0.2722  0.5699
   92GLOH    O3 9467   4.249   9.649   1.456  0.4517  0.3116  0.0025
   92GLOH   H01 9468   4.307   9.699   1.516 -0.2407  0.3914  0.6240
   93GLOH   H03 9469   3.035   9.390   2.767  2.1927 -0.1748 -0.0174
   93GLOH    O1 9470   3.021   9.306   2.815 -0.0382  0.2974  0.2308
   93GLOH    C1 9471   2.963   9.207   2.736  0.2698 -0.2026 -0.3038
   93GLOH   H02 9472   2.996   9.108   2.769 -1.3200 -0.3958  0.7637
   93GLOH   H08 9473   2.980   9.223   2.630 -3.6551 -0.7683 -1.0827
   93GLOH    C2 9474   2.808   9.219   2.745 -0.1367  0.2742 -0.0804
   93GLOH   H04 9475   2.781   9.322   2.720 -0.6045  0.2795  0.4403
   93GLOH    O2 9476   2.739   9.136   2.647 -0.5758 -0.2790 -0.3772
   93GLOH   H05 9477   2.773   9.173   2.564 -0.9340 -1.5510 -1.0911
   93GLOH    C3 9478   2.768   9.178   2.889  0.0355 -0.7208  0.6586
   93GLOH   H06 9479   2.834   9.226   2.961 -0.2928  0.2717  0.2968
   93GLOH   H07 9480   2.792   9.072   2.899  0.5612 -0.7420 -0.7570
   93GLOH    O3 9481   2.631   9.211   2.932 -0.1533  0.5108  0.3904
   93GLOH   H01 9482   2.568   9.166   2.874  0.9227  0.5621 -0.8411
   94GLOH   H03 9483   2.849   2.018   0.537  1.5471 -0.5901 -1.7194
   94GLOH    O1 9484   2.895   2.101   0.561  0.0172 -0.2016 -0.0289
   94GLOH    C1 9485   3.003   2.082   0.658  0.1590 -0.1085  0.3184
   94GLOH   H02 9486   3.021   1.976   0.677  0.2088 -0.3794 -1.1980
   94GLOH   H08 9487   2.971   2.122   0.754 -0.3725  1.0965 -0.3388
   94GLOH    C2 9488   3.135   2.153   0.628  0.4455  1.0153  1.5023
   94GLOH   H04 9489   3.130   2.259   0.655  3.2965  1.4677  0.4432
   94GLOH    O2 9490   3.237   2.090   0.713  0.2775  0.7275  0.1006
   94GLOH   H05 9491   3.242   2.110   0.808  2.8113  0.1663  0.1065
   94GLOH    C3 9492   3.172   2.147   0.476 -0.3821 -0.1972  0.0529
   94GLOH   H06 9493   3.201   2.042   0.464 -0.1613 -0.1251 -0.0452
   94GLOH   H07 9494   3.250   2.221   0.457 -1.7382  1.7353  1.8172
   94GLOH    O3 9495   3.059   2.196   0.399  0.3746 -0.2025  0.2711
   94GLOH   H01 9496   2.982   2.161   0.447 -0.0680  2.0744  1.2878
   95GLOH   H03 9497   3.420   1.798   2.317 -2.6107 -1.6306 -0.5697
   95GLOH    O1 9498   3.463   1.713   2.295  0.2307 -0.2075 -0.5908
   95GLOH    C1 9499   3.428   1.655   2.171  0.0229 -0.1337 -0.6238
   95GLOH   H02 9500   3.518   1.619   2.123  0.8619  2.0530 -0.7277
   95GLOH   H08 9501   3.377   1.733   2.113  0.9931  0.2056 -1.0277
   95GLOH    C2 9502   3.323   1.540   2.186  0.2688  0.3758  0.4398
   95GLOH   H04 9503   3.239   1.602   2.218 -0.3796  0.6031 -1.6109
   95GLOH    O2 9504   3.292   1.483   2.059  0.0948  0.5567  0.5790
   95GLOH   H05 9505   3.252   1.395   2.073 -0.2021  0.6541  0.3556
   95GLOH    C3 9506   3.375   1.429   2.283  0.0383 -0.0565  0.4641
   95GLOH   H06 9507   3.477   1.401   2.258  0.1969  2.5896 -2.2410
   95GLOH   H07 9508   3.311   1.342   2.272 -0.3262  0.3847 -1.1638
   95GLOH    O3 9509   3.375   1.467   2.418 -0.2774  0.0027 -0.5495
   95GLOH   H01 9510   3.342   1.558   2.422 -0.4000 -0.0763  0.4039
   96GLOH   H03 9511   3.076   9.854   0.468 -0.5667  0.4492 -0.3680
   96GLOH    O1 9512   3.002   9.791   0.476 -0.2569  0.1343  0.0027
   96GLOH    C1 9513   2.959   9.765   0.343 -0.0741  0.2614  0.6208
   96GLOH   H02 9514   2.957   9.859   0.287 -1.2292 -0.9881 -1.4929
   96GLOH   H08 9515   2.862   9.716   0.348 -0.2601  0.7253  1.8353
   96GLOH    C2 9516   3.050   9.668   0.269  0.0365 -0.2811 -0.7973
   96GLOH   H04 9517   2.999   9.667   0.172 -2.6026  1.5002  0.5037
   96GLOH    O2 9518   3.188   9.707   0.243  0.2182  0.3125 -0.4319
   96GLOH   H05 9519   3.206   9.748   0.157 -2.7792 -0.1536 -1.3493
   96GLOH    C3 9520   3.034   9.536   0.341 -0.4427  0.3731  0.2219
   96GLOH   H06 9521   3.059   9.546   0.447  1.7357  0.6273 -0.2926
   96GLOH   H07 9522   3.109   9.463   0.309 -0.4045  1.3156 -1.9253
   96GLOH    O3 9523   2.903   9.478   0.327  0.0556  0.0173  0.2545
   96GLOH   H01 9524   2.892   9.409   0.396 -2.1414  0.8259  0.7691
   97GLOH   H03 9525   3.047   1.634   1.231  0.4376 -0.3302  1.2834
   97GLOH    O1 9526   3.008   1.702   1.289 -0.0857  0.1251  0.4147
   97GLOH    C1 9527   2.877   1.658   1.319  0.9193 -0.5342  0.3073
   97GLOH   H02 9528   2.842   1.685   1.419  0.1488 -0.6892  0.0794
   97GLOH   H08 9529   2.863   1.551   1.305 -0.9459 -0.1439 -1.0456
   97GLOH    C2 9530   2.794   1.724   1.211  0.4924  0.0788 -0.3413
   97GLOH   H04 9531   2.836   1.706   1.112 -0.6685  0.6334 -0.9435
   97GLOH    O2 9532   2.661   1.665   1.210  0.0519 -0.2728  0.0445
   97GLOH   H05 9533   2.610   1.701   1.135 -3.0091 -1.2867  1.5325
   97GLOH    C3 9534   2.785   1.873   1.241  0.0729  0.2713  0.3440
   97GLOH   H06 9535   2.752   1.884   1.345 -2.3240  0.2057 -0.3702
   97GLOH   H07 9536   2.702   1.906   1.179  0.0872 -1.8888 -0.8452
   97GLOH    O3 9537   2.914   1.947   1.232  0.2132  0.5958  0.0094
   97GLOH   H01 9538   2.982   1.889   1.270  1.2175  0.8921 -1.3355
   98GLOH   H03 9539   3.607   1.572   0.444  1.4546 -0.0238  0.8878
   98GLOH    O1 9540   3.632   1.485   0.406  0.0944 -0.0938  0.1562
   98GLOH    C1 9541   3.714   1.420   0.508 -0.0609  0.8782 -0.4621
   98GLOH   H02 9542   3.812   1.467   0.505  1.2296 -1.7254  0.2425
   98GLOH   H08 9543   3.736   1.315   0.492 -1.4300  0.2684  1.5294
   98GLOH    C2 9544   3.653   1.437   0.651  0.1207  0.3786  0.2826
   98GLOH   H04 9545   3.574   1.513   0.644  1.3966  1.5936 -1.1998
   98GLOH    O2 9546   3.628   1.306   0.711  0.4582  0.7988  0.2813
   98GLOH   H05 9547   3.535   1.276   0.701  0.2399  2.2828 -2.6544
   98GLOH    C3 9548   3.760   1.504   0.738  0.5394 -0.3369  0.3123
   98GLOH   H06 9549   3.852   1.454   0.709  0.6551 -1.0977  1.9560
   98GLOH   H07 9550   3.739   1.489   0.844 -1.8410 -2.8395 -0.4324
   98GLOH    O3 9551   3.772   1.645   0.710  0.8744 -0.2739  0.1506
   98GLOH   H01 9552   3.750   1.689   0.794 -0.5592  4.2459 -2.4176
   99GLOH   H03 9553   4.310   0.646   0.667 -0.5407 -0.1954  2.8382
   99GLOH    O1 9554   4.358   0.729   0.684  0.0291  0.2402 -0.5636
   99GLOH    C1 9555   4.436   0.752   0.566 -0.2088  0.4898 -0.6070
   99GLOH   H02 9556   4.519   0.684   0.553 -1.6367 -1.2531 -0.7478
   99GLOH   H08 9557   4.485   0.850   0.568 -0.2996  0.5207  1.8621
   99GLOH    C2 9558   4.352   0.746   0.433 -0.0023  0.1014  0.8890
   99GLOH   H04 9559   4.419   0.743   0.347 -1.3530 -2.9162 -0.1328
   99GLOH    O2 9560   4.274   0.627   0.413  0.6313  0.0443  1.0544
   99GLOH   H05 9561   4.234   0.599   0.497 -2.9859  0.7528 -0.3281
   99GLOH    C3 9562   4.272   0.878   0.417  0.0736 -0.1168  0.0514
   99GLOH   H06 9563   4.196   0.895   0.493 -0.6815  0.8908 -0.9100
   99GLOH   H07 9564   4.218   0.863   0.324  2.7710  0.0658 -1.6173
   99GLOH    O3 9565   4.356   0.997   0.397 -0.5281  0.9555  0.1245
   99GLOH   H01 9566   4.363   1.046   0.481  1.7826  0.6521  0.1360
  100GLOH   H03 9567   3.908   9.387   1.960  1.5278  0.6553  1.4666
  100GLOH    O1 9568   3.854   9.413   2.036 -0.4863  0.2117  0.2264
  100GLOH    C1 9569   3.722   9.450   1.990 -0.6181 -0.6802 -0.2903
  100GLOH   H02 9570   3.689   9.382   1.912 -0.6200  0.8595 -1.6786
  100GLOH   H08 9571   3.726   9.550   1.946 -0.9610 -1.3558 -1.8716
  100GLOH    C2 9572   3.615   9.450   2.101 -0.2462 -0.0410 -0.6988
  100GLOH   H04 9573   3.646   9.536   2.163 -2.5920 -0.4381  1.0718
  100GLOH    O2 9574   3.487   9.497   2.057 -0.1975  0.2671  0.2165
  100GLOH   H05 9575   3.490   9.594   2.051 -1.0435  0.3878  1.4320
  100GLOH    C3 9576   3.610   9.322   2.189  0.6153 -0.1082  0.4004
  100GLOH   H06 9577   3.583   9.233   2.131 -1.0187 -0.1715  1.2273
  100GLOH   H07 9578   3.535   9.316   2.268 -1.1479 -0.1278 -1.2381
  100GLOH    O3 9579   3.743   9.310   2.239 -0.0243 -0.3905 -0.1208
  100GLOH   H01 9580   3.799   9.341   2.165  2.7340 -2.3187  1.0391
  101GLOH   H03 9581   4.005   2.050   1.847 -0.2053  0.0139 -1.3888
  101GLOH    O1 9582   4.079   2.113   1.832  0.2843 -0.1804  0.1202
  101GLOH    C1 9583   4.185   2.093   1.933  0.9333  0.3399  0.2581
  101GLOH   H02 9584   4.232   1.996   1.915  0.4852  0.1725 -0.0408
  101GLOH   H08 9585   4.135   2.075   2.028 -0.9755 -0.4054 -0.8589
  101GLOH    C2 9586   4.299   2.198   1.943  0.0144  0.3318 -0.1721
  101GLOH   H04 9587   4.364   2.160   2.023 -0.4552  0.7233  0.4067
  101GLOH    O2 9588   4.384   2.225   1.828  0.2285 -0.4826  0.2839
  101GLOH   H05 9589   4.354   2.299   1.773  0.0285  0.0060  1.0429
  101GLOH    C3 9590   4.232   2.324   1.999 -0.2254  0.2002  0.0459
  101GLOH   H06 9591   4.146   2.341   1.934 -1.9948 -1.1060  1.9483
  101GLOH   H07 9592   4.301   2.408   1.994 -0.1566  0.1628  0.3737
  101GLOH    O3 9593   4.185   2.305   2.129  0.4806 -0.0213 -0.7759
  101GLOH   H01 9594   4.267   2.291   2.180  0.0201  0.4879  0.1153
  102GLOH   H03 9595   2.886   0.523   2.257  0.2808 -0.4950 -0.9476
  102GLOH    O1 9596   2.961   0.519   2.319 -0.5950 -0.5013  0.1301
  102GLOH    C1 9597   2.994   0.652   2.370 -0.6053 -0.0156 -0.0077
  102GLOH   H02 9598   2.910   0.716   2.342 -0.5130 -0.1931 -0.6902
  102GLOH   H08 9599   3.076   0.697   2.314 -1.1176  0.6534 -0.2215
  102GLOH    C2 9600   3.012   0.665   2.524  0.3448 -0.2294  0.0420
  102GLOH   H04 9601   3.084   0.585   2.545  2.0806  0.8767 -1.5384
  102GLOH    O2 9602   3.064   0.802   2.547 -0.3738 -0.1139 -0.0586
  102GLOH   H05 9603   3.061   0.816   2.644  2.7793  0.3935  0.0285
  102GLOH    C3 9604   2.872   0.635   2.598  0.2543  0.0254 -0.2683
  102GLOH   H06 9605   2.796   0.690   2.542  1.3880  0.3351 -1.5533
  102GLOH   H07 9606   2.891   0.681   2.694 -0.8076  1.1582 -0.5886
  102GLOH    O3 9607   2.839   0.499   2.622  0.4586  0.1211 -0.0150
  102GLOH   H01 9608   2.743   0.496   2.611  0.9224 -2.7938 -4.2689
  103GLOH   H03 9609   2.744   9.450   1.781  0.2164 -1.8242 -1.6815
  103GLOH    O1 9610   2.688   9.381   1.823 -0.8231 -0.2998 -0.4957
  103GLOH    C1 9611   2.709   9.350   1.966  0.2160  0.3586  0.6057
  103GLOH   H02 9612   2.814   9.355   1.994 -0.1321  0.2541  1.9691
  103GLOH   H08 9613   2.674   9.251   1.996  1.4546 -0.2390  0.1084
  103GLOH    C2 9614   2.650   9.446   2.066 -0.1148 -0.1170  0.5550
  103GLOH   H04 9615   2.541   9.432   2.063 -0.2943  1.1665  0.6606
  103GLOH    O2 9616   2.707   9.416   2.197  1.1289  0.3875  0.2207
  103GLOH   H05 9617   2.697   9.492   2.256  1.0326 -0.7282  1.6715
  103GLOH    C3 9618   2.681   9.589   2.020 -0.5081 -0.5969 -0.2559
  103GLOH   H06 9619   2.642   9.613   1.922  0.7963 -2.2040 -1.1987
  103GLOH   H07 9620   2.788   9.593   2.002 -0.2123 -2.5445  0.8820
  103GLOH    O3 9621   2.628   9.692   2.116  0.0827 -0.5759 -0.0795
  103GLOH   H01 9622   2.691   9.767   2.122 -1.2586  0.6669 -0.9443
  104GLOH   H03 9623   2.832   1.759   1.606  0.1074  1.8292  1.1079
  104GLOH    O1 9624   2.744   1.732   1.636  0.2193 -0.2861 -0.3402
  104GLOH    C1 9625   2.736   1.714   1.783  0.5644 -0.4138 -0.2566
  104GLOH   H02 9626   2.633   1.735   1.814  0.8573 -0.1535  0.5595
  104GLOH   H08 9627   2.809   1.770   1.841  1.7750 -1.8853 -0.3336
  104GLOH    C2 9628   2.757   1.562   1.814  0.7538 -0.3092  0.0150
  104GLOH   H04 9629   2.861   1.539   1.788  1.0795 -0.2721  1.2930
  104GLOH    O2 9630   2.724   1.532   1.951  0.2499  0.3483 -0.1262
  104GLOH   H05 9631   2.789   1.576   2.008 -0.7345  0.4144  0.9709
  104GLOH    C3 9632   2.684   1.466   1.720  0.5560 -0.6535  0.0956
  104GLOH   H06 9633   2.582   1.502   1.728  1.1394  1.2523 -0.5675
  104GLOH   H07 9634   2.691   1.368   1.767 -0.3870 -0.9782 -0.4363
  104GLOH    O3 9635   2.726   1.468   1.576  0.4603 -0.2362 -0.6409
  104GLOH   H01 9636   2.654   1.514   1.531 -0.8860 -0.1438  1.5154
  105GLOH   H03 9637   2.890   0.338   2.579 -0.2440  0.0432  1.0812
  105GLOH    O1 9638   2.891   0.242   2.591  0.1253 -0.0455  0.3752
  105GLOH    C1 9639   2.767   0.191   2.544  0.2817 -0.7415 -0.4793
  105GLOH   H02 9640   2.683   0.237   2.596  1.1201  0.6210 -0.2946
  105GLOH   H08 9641   2.753   0.085   2.568 -2.3095 -0.0470  1.2782
  105GLOH    C2 9642   2.731   0.200   2.396 -0.0344  0.4511 -0.3145
  105GLOH   H04 9643   2.737   0.303   2.359  1.7482  0.2345 -0.6740
  105GLOH    O2 9644   2.822   0.121   2.313 -0.3699  0.6878 -0.0735
  105GLOH   H05 9645   2.907   0.115   2.359  0.7496  0.2745 -2.1674
  105GLOH    C3 9646   2.585   0.148   2.371 -0.7020 -0.1050 -0.6962
  105GLOH   H06 9647   2.565   0.145   2.264 -1.6945 -0.9935 -0.4886
  105GLOH   H07 9648   2.521   0.228   2.409  0.5538  1.6120 -2.1152
  105GLOH    O3 9649   2.548   0.027   2.441 -0.8678  0.4051  0.0656
  105GLOH   H01 9650   2.621  -0.036   2.424 -0.3038  1.2950 -0.9100
  106GLOH   H03 9651   2.359   0.907   2.276 -1.7452 -0.5355  0.9189
  106GLOH    O1 9652   2.339   0.814   2.300 -0.8477 -0.9496  0.1035
  106GLOH    C1 9653   2.382   0.721   2.193  1.0450  0.2375  0.1001
  106GLOH   H02 9654   2.490   0.702   2.193  1.5636  2.9706 -0.0589
  106GLOH   H08 9655   2.364   0.768   2.096 -0.9259 -1.1986 -0.2414
  106GLOH    C2 9656   2.293   0.592   2.189  0.0910 -0.1485 -0.0858
  106GLOH   H04 9657   2.194   0.623   2.152 -0.8986 -0.6276  2.0752
  106GLOH    O2 9658   2.340   0.501   2.087 -0.5270 -0.6586 -0.1536
  106GLOH   H05 9659   2.290   0.419   2.105 -0.1667 -0.7345  0.5133
  106GLOH    C3 9660   2.274   0.523   2.331  0.4507 -0.0828  0.0738
  106GLOH   H06 9661   2.365   0.466   2.350  0.1731 -1.7387 -3.2404
  106GLOH   H07 9662   2.196   0.450   2.310 -0.8720  0.9507  1.3302
  106GLOH    O3 9663   2.241   0.622   2.429 -0.7513  0.4270  0.4780
  106GLOH   H01 9664   2.264   0.710   2.394 -2.3590  0.1567 -1.3790
  107GLOH   H03 9665   3.341   9.447   2.132 -1.1107  2.2578 -1.9663
  107GLOH    O1 9666   3.258   9.437   2.183 -0.0325  0.1483 -0.5326
  107GLOH    C1 9667   3.155   9.517   2.120 -0.4168 -0.1549  0.0921
  107GLOH   H02 9668   3.078   9.454   2.076  0.1679 -1.6754  1.1956
  107GLOH   H08 9669   3.195   9.581   2.041  1.9016  0.6940  1.8925
  107GLOH    C2 9670   3.077   9.611   2.219 -0.3767 -0.2602 -0.5037
  107GLOH   H04 9671   3.147   9.686   2.258 -0.4923  0.1039 -0.9832
  107GLOH    O2 9672   2.970   9.671   2.144 -0.2774 -0.6604  0.0086
  107GLOH   H05 9673   2.984   9.667   2.048 -1.0301 -1.0240 -0.0945
  107GLOH    C3 9674   3.018   9.521   2.327  0.1030 -0.4705  0.1165
  107GLOH   H06 9675   2.931   9.473   2.283 -0.0140  0.6277 -0.8805
  107GLOH   H07 9676   2.979   9.588   2.404 -1.6294 -2.4437  0.9912
  107GLOH    O3 9677   3.106   9.425   2.382 -0.9910 -0.6340  0.3484
  107GLOH   H01 9678   3.178   9.427   2.316 -1.0047 -0.8854  0.3243
  108GLOH   H03 9679   2.932   1.075   2.422 -0.0602 -0.0748 -0.0325
  108GLOH    O1 9680   2.855   1.132   2.439  0.1282  0.2120 -0.1255
  108GLOH    C1 9681   2.854   1.257   2.364 -0.2942  0.6342 -0.5291
  108GLOH   H02 9682   2.774   1.314   2.412 -1.5498 -0.0029 -1.8621
  108GLOH   H08 9683   2.807   1.236   2.268 -0.6537  1.1454 -0.4682
  108GLOH    C2 9684   2.992   1.311   2.362  0.4439 -0.6359  0.1912
  108GLOH   H04 9685   3.031   1.298   2.464 -0.2931  0.1147  0.5795
  108GLOH    O2 9686   3.074   1.238   2.272 -0.0880 -0.0487  0.2943
  108GLOH   H05 9687   3.105   1.166   2.330 -0.0071 -0.4247 -0.2111
  108GLOH    C3 9688   2.979   1.452   2.307 -0.2033 -0.4670  0.1503
  108GLOH   H06 9689   2.973   1.448   2.198 -2.4741 -0.9160  0.2839
  108GLOH   H07 9690   3.075   1.501   2.327 -0.9827  0.7954  0.8925
  108GLOH    O3 9691   2.874   1.531   2.367 -0.0243 -0.5393 -0.0465
  108GLOH   H01 9692   2.902   1.545   2.460  0.4380  1.4921 -0.4554
  109GLOH   H03 9693   4.596   1.405   1.181 -2.9640 -2.4910  0.7253
  109GLOH    O1 9694   4.548   1.452   1.110 -0.2695  0.0727  0.4725
  109GLOH    C1 9695   4.603   1.401   0.989 -0.4416  0.1041  0.4737
  109GLOH   H02 9696   4.694   1.344   1.008  0.4700  1.0080 -1.0483
  109GLOH   H08 9697   4.644   1.487   0.935  4.3908 -0.9578  2.1561
  109GLOH    C2 9698   4.512   1.318   0.900  0.0844  0.4595 -0.2135
  109GLOH   H04 9699   4.423   1.381   0.883 -1.5050 -1.2876  1.2960
  109GLOH    O2 9700   4.584   1.287   0.777  0.1218  0.7290 -0.1133
  109GLOH   H05 9701   4.676   1.265   0.801 -0.5301 -0.8375  1.0377
  109GLOH    C3 9702   4.480   1.191   0.971  0.0133  0.4126 -0.0155
  109GLOH   H06 9703   4.428   1.212   1.064 -0.6814  0.7580 -0.4786
  109GLOH   H07 9704   4.577   1.150   1.002 -0.9052 -0.8535  1.2300
  109GLOH    O3 9705   4.404   1.090   0.898 -0.0331  0.0882 -0.0389
  109GLOH   H01 9706   4.325   1.070   0.952 -0.7097 -1.2114 -1.4749
  110GLOH   H03 9707   3.156   1.180   0.174 -0.1708 -2.2315  0.7070
  110GLOH    O1 9708   3.136   1.200   0.267  0.0227  0.3414  0.2478
  110GLOH    C1 9709   3.209   1.316   0.313  0.5490 -0.4040  0.1850
  110GLOH   H02 9710   3.194   1.398   0.243  2.1148 -0.8694 -0.7250
  110GLOH   H08 9711   3.315   1.295   0.298  0.9959  2.3042 -0.7640
  110GLOH    C2 9712   3.166   1.361   0.453 -0.7300 -0.2742  1.1033
  110GLOH   H04 9713   3.147   1.266   0.506  0.6515 -1.2641 -0.1269
  110GLOH    O2 9714   3.273   1.435   0.519 -0.2277  0.2593  0.0953
  110GLOH   H05 9715   3.275   1.528   0.491  2.5196 -0.0268 -0.8506
  110GLOH    C3 9716   3.036   1.432   0.442 -0.6875  0.1611 -0.1389
  110GLOH   H06 9717   2.990   1.433   0.541  1.3340  0.5030  0.8247
  110GLOH   H07 9718   2.967   1.371   0.383 -0.4659 -0.6863  0.4685
  110GLOH    O3 9719   3.038   1.563   0.385 -0.7556 -0.0358 -0.0024
  110GLOH   H01 9720   3.122   1.603   0.413 -0.9728  0.5594 -0.2071
  111GLOH   H03 9721   3.014   1.898   1.577 -2.1898  0.3420 -0.1503
  111GLOH    O1 9722   2.986   1.807   1.599  0.1770 -0.3611  0.0777
  111GLOH    C1 9723   3.078   1.762   1.701 -0.4870  0.8424  0.3644
  111GLOH   H02 9724   3.038   1.665   1.732  1.2329  0.1224  0.4242
  111GLOH   H08 9725   3.078   1.835   1.782 -1.1382  2.4726 -1.0735
  111GLOH    C2 9726   3.224   1.739   1.664  0.3231 -0.2065  0.4781
  111GLOH   H04 9727   3.233   1.692   1.565  2.7904 -0.5075  0.8335
  111GLOH    O2 9728   3.295   1.863   1.652 -0.4377 -0.2838 -0.1662
  111GLOH   H05 9729   3.391   1.847   1.652 -0.2230  0.9354 -0.0950
  111GLOH    C3 9730   3.283   1.641   1.770  0.2889 -0.2561 -0.5901
  111GLOH   H06 9731   3.389   1.636   1.746  0.3441  0.3028 -0.4663
  111GLOH   H07 9732   3.237   1.542   1.765 -1.4202  0.4535  0.3492
  111GLOH    O3 9733   3.263   1.689   1.905  0.5687  0.4797  0.6694
  111GLOH   H01 9734   3.271   1.606   1.956  2.7560  0.3297  0.1227
  112GLOH   H03 9735   3.214   0.780   0.952 -0.8760 -1.7074  1.8830
  112GLOH    O1 9736   3.131   0.822   0.922  0.5043 -0.2750 -0.0500
  112GLOH    C1 9737   3.102   0.933   1.013 -0.1819  0.4160 -0.3541
  112GLOH   H02 9738   3.137   1.029   0.976  0.2615  0.7164  0.8109
  112GLOH   H08 9739   3.139   0.920   1.115 -1.9363 -0.3002  0.2147
  112GLOH    C2 9740   2.944   0.957   1.035  0.6020  0.4878 -0.2712
  112GLOH   H04 9741   2.899   0.857   1.045  1.8191  0.0598  1.2433
  112GLOH    O2 9742   2.928   1.030   1.157 -0.4794  0.3024 -0.5936
  112GLOH   H05 9743   2.852   1.010   1.215 -0.0858 -0.2492 -0.2720
  112GLOH    C3 9744   2.875   1.032   0.921  0.2244  0.1582  0.9058
  112GLOH   H06 9745   2.769   1.045   0.943 -0.0350 -0.2340 -0.0781
  112GLOH   H07 9746   2.880   0.965   0.835 -1.4765  2.1163 -0.7722
  112GLOH    O3 9747   2.941   1.159   0.883  0.2470  0.7625 -0.8542
  112GLOH   H01 9748   2.939   1.169   0.786 -0.3239 -2.2332 -1.2246
  113GLOH   H03 9749   3.027   1.594   0.225  0.1896  1.3750 -0.0546
  113GLOH    O1 9750   3.012   1.606   0.129 -0.5324 -0.4938 -0.2081
  113GLOH    C1 9751   2.969   1.478   0.078 -0.1067 -0.4170 -0.2130
  113GLOH   H02 9752   2.930   1.407   0.151  1.4411 -0.6277  0.4425
  113GLOH   H08 9753   3.053   1.421   0.037 -0.5961 -1.3728  0.0965
  113GLOH    C2 9754   2.855   1.503  -0.020  0.5065  0.0219 -0.1377
  113GLOH   H04 9755   2.775   1.562   0.027 -0.9607  0.3374 -2.9751
  113GLOH    O2 9756   2.898   1.570  -0.139  0.7905  0.0488  0.8748
  113GLOH   H05 9757   2.885   1.665  -0.121 -0.7368 -0.0708  0.4799
  113GLOH    C3 9758   2.795   1.372  -0.060  0.0419  0.1587  0.3574
  113GLOH   H06 9759   2.873   1.324  -0.119 -0.5904 -2.3268  1.4823
  113GLOH   H07 9760   2.715   1.387  -0.132  1.6364  0.4377 -1.4089
  113GLOH    O3 9761   2.749   1.286   0.044  0.2721 -0.2440 -0.0282
  113GLOH   H01 9762   2.749   1.197   0.003  0.9582 -1.2553  2.0858
  114GLOH   H03 9763   4.096   1.552   1.478  1.6974  1.2252  2.3246
  114GLOH    O1 9764   4.012   1.596   1.501  0.1302 -0.3051 -0.1470
  114GLOH    C1 9765   3.949   1.518   1.607  0.1526 -0.0493 -0.2688
  114GLOH   H02 9766   3.956   1.410   1.599 -2.2699 -0.4387  1.9862
  114GLOH   H08 9767   3.843   1.543   1.599  0.4803  1.1657 -0.9818
  114GLOH    C2 9768   4.003   1.557   1.745  0.7727  0.4576  0.6187
  114GLOH   H04 9769   4.106   1.522   1.765  1.1494  1.3059  0.1951
  114GLOH    O2 9770   3.994   1.698   1.768 -0.0459  0.5265 -0.0677
  114GLOH   H05 9771   3.994   1.733   1.677  0.7496  2.6831  0.7253
  114GLOH    C3 9772   3.901   1.492   1.844 -0.1894  0.1339  0.6339
  114GLOH   H06 9773   3.800   1.520   1.814 -0.5266 -1.2309  0.4689
  114GLOH   H07 9774   3.924   1.525   1.946 -2.4394 -2.4383  2.0347
  114GLOH    O3 9775   3.917   1.350   1.836  0.4510 -0.3043  0.0499
  114GLOH   H01 9776   3.986   1.321   1.899  1.5390  1.0878 -0.4761
  115GLOH   H03 9777   3.874   0.894   0.876  2.7775  0.6134  3.8010
  115GLOH    O1 9778   3.918   0.807   0.868  0.6263 -0.2544  0.2041
  115GLOH    C1 9779   4.018   0.813   0.763 -0.3444  0.4634 -0.7009
  115GLOH   H02 9780   4.118   0.782   0.795 -0.3953 -1.4935 -2.3669
  115GLOH   H08 9781   4.024   0.914   0.722  0.3923 -0.3656 -2.6384
  115GLOH    C2 9782   3.977   0.721   0.649 -0.5701  0.1287  0.6548
  115GLOH   H04 9783   4.055   0.732   0.571 -0.3942 -2.0626  0.4972
  115GLOH    O2 9784   3.976   0.584   0.683 -0.2464  0.4584  0.9385
  115GLOH   H05 9785   3.908   0.563   0.749 -0.5673 -1.1109  0.1351
  115GLOH    C3 9786   3.845   0.764   0.579 -0.3146  0.3309  0.1020
  115GLOH   H06 9787   3.764   0.759   0.651 -0.0505 -0.8890  0.3335
  115GLOH   H07 9788   3.834   0.685   0.504  1.2452 -1.0065  1.2487
  115GLOH    O3 9789   3.855   0.896   0.518 -0.8310  0.5068  0.1016
  115GLOH   H01 9790   3.801   0.953   0.575  0.4964  0.4324  1.4827
  116GLOH   H03 9791   2.744   9.403   1.216  0.1235 -0.5435  1.0832
  116GLOH    O1 9792   2.824   9.439   1.260 -0.1273  0.9572  0.3373
  116GLOH    C1 9793   2.781   9.533   1.358 -0.6787 -0.3069  0.1532
  116GLOH   H02 9794   2.745   9.485   1.449 -1.5637 -1.3914 -0.7611
  116GLOH   H08 9795   2.698   9.592   1.320 -0.6455 -0.7284 -0.5857
  116GLOH    C2 9796   2.896   9.633   1.390 -0.2023  0.7191 -0.0692
  116GLOH   H04 9797   2.859   9.716   1.452  0.5174  0.7585  0.3080
  116GLOH    O2 9798   3.005   9.567   1.451  0.7899  0.4645 -0.2595
  116GLOH   H05 9799   3.015   9.492   1.390 -1.3455  0.3463 -0.4950
  116GLOH    C3 9800   2.941   9.705   1.262 -0.9752 -0.0262  0.0959
  116GLOH   H06 9801   2.947   9.631   1.182  2.5558  0.6295 -0.3401
  116GLOH   H07 9802   3.044   9.739   1.275 -0.8490  0.0648 -1.1155
  116GLOH    O3 9803   2.860   9.813   1.223 -0.2224 -0.6330  0.2258
  116GLOH   H01 9804   2.789   9.777   1.166 -1.0659 -0.5440  1.1939
  117GLOH   H03 9805   3.273   1.931   0.693 -0.3108  0.3765 -2.2719
  117GLOH    O1 9806   3.311   1.842   0.694  0.6776  0.7777  0.3834
  117GLOH    C1 9807   3.445   1.855   0.754 -0.1942 -0.0263 -0.7802
  117GLOH   H02 9808   3.479   1.753   0.766 -2.8618 -0.7064  1.4054
  117GLOH   H08 9809   3.449   1.914   0.846 -0.0589 -1.2908  0.0318
  117GLOH    C2 9810   3.543   1.924   0.663  0.0598  0.4844  0.1951
  117GLOH   H04 9811   3.505   2.026   0.650 -1.1636  0.0243  0.1606
  117GLOH    O2 9812   3.669   1.928   0.734  0.4322 -0.4763 -0.8709
  117GLOH   H05 9813   3.718   1.994   0.683  0.9675  0.1077  0.3639
  117GLOH    C3 9814   3.557   1.865   0.523 -0.0317 -0.3385 -0.4922
  117GLOH   H06 9815   3.627   1.933   0.475  3.2125 -1.3118  2.5832
  117GLOH   H07 9816   3.463   1.876   0.470 -0.2422  0.2356 -0.0045
  117GLOH    O3 9817   3.611   1.731   0.532 -0.6268 -0.5972  0.0908
  117GLOH   H01 9818   3.678   1.719   0.602  0.1363 -1.0483 -0.7098
  118GLOH   H03 9819   4.165  10.036   0.225 -1.0553 -0.0626  0.1560
  118GLOH    O1 9820   4.144   9.950   0.182 -0.4860 -0.1539  0.0565
  118GLOH    C1 9821   4.108   9.981   0.046 -0.0324  0.1534 -0.0317
  118GLOH   H02 9822   4.152   9.899  -0.012  0.1821  0.9028 -0.9416
  118GLOH   H08 9823   4.157  10.070   0.008 -0.5805  0.9080  1.0322
  118GLOH    C2 9824   3.962   9.983   0.011  0.4194 -0.0525 -0.3182
  118GLOH   H04 9825   3.925   9.883   0.039 -2.4455  1.1185  0.2595
  118GLOH    O2 9826   3.886  10.088   0.071 -0.1407 -0.5206 -0.1435
  118GLOH   H05 9827   3.944  10.165   0.083 -0.6882  0.0973 -1.3702
  118GLOH    C3 9828   3.957  10.007  -0.137 -0.1351 -0.1661 -0.2514
  118GLOH   H06 9829   4.026  10.089  -0.158 -0.7647  0.4287 -0.0240
  118GLOH   H07 9830   3.856  10.039  -0.163  0.1618  0.8247 -0.1938
  118GLOH    O3 9831   3.991   9.888  -0.213 -0.3772  0.0349 -0.2568
  118GLOH   H01 9832   4.020   9.921  -0.300  1.9223 -0.7330  0.1948
  119GLOH   H03 9833   3.177   1.481   1.116  0.1480 -1.0442  0.1864
  119GLOH    O1 9834   3.094   1.531   1.107  0.7608 -0.0013  0.2959
  119GLOH    C1 9835   3.059   1.525   0.969  0.6581 -0.2237  0.4239
  119GLOH   H02 9836   2.953   1.549   0.972  1.1857  2.0927  1.0895
  119GLOH   H08 9837   3.068   1.426   0.924  1.7387  0.4263 -0.8345
  119GLOH    C2 9838   3.121   1.636   0.884 -0.4154 -0.8595 -0.0774
  119GLOH   H04 9839   3.137   1.717   0.957  2.9983  0.1014 -1.7603
  119GLOH    O2 9840   3.247   1.606   0.823 -0.5136 -0.2026 -0.4872
  119GLOH   H05 9841   3.289   1.683   0.780  0.8945 -1.4532 -1.3896
  119GLOH    C3 9842   3.026   1.685   0.774 -0.0865  0.2326  0.5987
  119GLOH   H06 9843   3.009   1.590   0.722  1.8777  0.1000  0.1390
  119GLOH   H07 9844   3.073   1.751   0.701 -0.0194 -1.9027 -1.3475
  119GLOH    O3 9845   2.912   1.747   0.834 -0.0796  0.3307 -0.2477
  119GLOH   H01 9846   2.940   1.824   0.887 -1.7172 -0.5468  1.9736
  120GLOH   H03 9847   3.714   1.851   0.847 -1.9264  1.7798  1.2700
  120GLOH    O1 9848   3.739   1.790   0.919 -0.4528 -0.2596 -0.8730
  120GLOH    C1 9849   3.812   1.878   1.013 -0.2670  1.1264 -0.0014
  120GLOH   H02 9850   3.912   1.906   0.980  1.6591 -4.2164  0.7797
  120GLOH   H08 9851   3.831   1.830   1.110 -0.9502 -2.1453 -1.4216
  120GLOH    C2 9852   3.727   2.001   1.058  0.6042 -0.2954  0.2009
  120GLOH   H04 9853   3.659   2.024   0.975 -1.1994 -0.8183  1.4910
  120GLOH    O2 9854   3.637   1.973   1.171  0.0424 -0.2247  0.8027
  120GLOH   H05 9855   3.548   1.943   1.148 -0.3488  0.8555  0.8533
  120GLOH    C3 9856   3.805   2.126   1.085  0.0936  0.0356  0.4310
  120GLOH   H06 9857   3.894   2.103   1.144 -0.3508  1.1674  1.5605
  120GLOH   H07 9858   3.749   2.198   1.144  0.1425  0.0215  0.4937
  120GLOH    O3 9859   3.839   2.184   0.957  0.1216  0.0656  0.5007
  120GLOH   H01 9860   3.845   2.281   0.968 -0.6654  0.0306  1.2904
  121ACOH    H4 9861   2.599   0.872   1.593  1.2029 -1.8630  0.6514
  121ACOH    O2 9862   2.532   0.801   1.589 -0.1285 -0.6283  0.5824
  121ACOH    C2 9863   2.410   0.856   1.570  1.4208 -0.3509  0.8073
  121ACOH    O1 9864   2.400   0.977   1.555  0.1985  0.3879 -0.2396
  121ACOH    C1 9865   2.298   0.762   1.564 -0.3722 -0.2810  0.0885
  121ACOH    H1 9866   2.241   0.762   1.471 -1.7017  0.8666  0.8812
  121ACOH    H2 9867   2.226   0.778   1.644 -0.3770 -0.0801  0.0443
  121ACOH    H3 9868   2.344   0.664   1.579  0.7585  0.3891  1.0808
  122ACOH    H4 9869   3.588   8.825   0.750  2.6914 -0.0997 -1.8311
  122ACOH    O2 9870   3.636   8.762   0.806  0.2735 -0.5667 -0.2122
  122ACOH    C2 9871   3.762   8.813   0.819  0.4281 -1.2285 -0.4859
  122ACOH    O1 9872   3.788   8.932   0.806 -0.3005 -0.6070 -0.5295
  122ACOH    C1 9873   3.858   8.715   0.877 -0.2024  0.0458  0.5054
  122ACOH    H1 9874   3.801   8.627   0.908  0.3041 -0.3503  0.3167
  122ACOH    H2 9875   3.915   8.743   0.966 -1.8171  2.8641  0.7159
  122ACOH    H3 9876   3.921   8.681   0.795 -0.4385  0.9501 -0.0601
  123ACOH    H4 9877   4.473   1.772   0.564  0.5486 -0.3254  1.6058
  123ACOH    O2 9878   4.516   1.859   0.556 -0.2743 -0.0364  0.2747
  123ACOH    C2 9879   4.428   1.956   0.540 -0.1588  0.2852  0.8518
  123ACOH    O1 9880   4.315   1.931   0.501 -0.7544 -0.2827 -0.0476
  123ACOH    C1 9881   4.487   2.091   0.543 -0.5014 -0.1969 -0.3390
  123ACOH    H1 9882   4.572   2.096   0.474 -1.4021  1.4445 -1.3644
  123ACOH    H2 9883   4.525   2.115   0.643 -0.3382 -2.2167  0.1113
  123ACOH    H3 9884   4.418   2.166   0.505  1.2309  1.4980 -0.2410
  124ACOH    H4 9885   2.252   0.687   1.201  0.1101  0.0990 -1.2645
  124ACOH    O2 9886   2.157   0.694   1.222  0.1914 -0.7354 -0.5795
  124ACOH    C2 9887   2.075   0.617   1.149  0.6339  0.2326 -0.2870
  124ACOH    O1 9888   2.101   0.578   1.035 -0.2554  0.3465 -0.0503
  124ACOH    C1 9889   1.932   0.621   1.200 -0.2814 -0.5194 -0.0185
  124ACOH    H1 9890   1.915   0.538   1.268  0.7930 -1.0591 -0.3976
  124ACOH    H2 9891   1.869   0.611   1.111 -0.1777 -1.0313 -0.0345
  124ACOH    H3 9892   1.916   0.718   1.248  0.5075 -0.4933  0.1875
  125ACOH    H4 9893   2.780   1.850   2.752  0.6388  0.0777 -0.2813
  125ACOH    O2 9894   2.828   1.879   2.831  0.3017 -0.1766  0.0197
  125ACOH    C2 9895   2.949   1.919   2.780  1.0665  0.6708 -0.3236
  125ACOH    O1 9896   2.990   1.903   2.665  0.1741 -0.4527  0.2465
  125ACOH    C1 9897   3.020   1.959   2.904 -0.3069 -0.3444 -0.2915
  125ACOH    H1 9898   3.031   1.867   2.961 -1.4616 -0.5250 -0.3480
  125ACOH    H2 9899   2.960   2.024   2.968  0.7165 -0.3382  0.6595
  125ACOH    H3 9900   3.121   1.999   2.895 -0.2540 -0.0748  1.4003
  126ACOH    H4 9901   3.760   9.197   2.350  4.7763 -0.9881 -1.0106
  126ACOH    O2 9902   3.755   9.129   2.419 -0.2556  0.4671  0.2733
  126ACOH    C2 9903   3.731   9.170   2.539 -0.1605 -0.1592  0.2485
  126ACOH    O1 9904   3.664   9.271   2.567 -1.1140 -0.2014 -0.1147
  126ACOH    C1 9905   3.745   9.056   2.630 -0.3716 -0.5835  0.2949
  126ACOH    H1 9906   3.781   8.967   2.578  2.8597  1.0520 -0.3542
  126ACOH    H2 9907   3.646   9.025   2.664 -0.5109  0.9568  1.3187
  126ACOH    H3 9908   3.821   9.074   2.706 -0.8425  0.6711  0.4768
  127ACOH    H4 9909   3.998   9.747   2.613  1.8899 -0.0240 -1.3253
  127ACOH    O2 9910   4.021   9.661   2.651 -0.1500  0.1400  0.4337
  127ACOH    C2 9911   3.942   9.579   2.576  0.5444  0.3374 -0.3010
  127ACOH    O1 9912   3.899   9.603   2.469 -0.1106  0.0956  0.9331
  127ACOH    C1 9913   3.962   9.442   2.626 -0.2151 -0.1729  0.6543
  127ACOH    H1 9914   4.054   9.437   2.684  0.7301 -1.5957 -0.9344
  127ACOH    H2 9915   3.964   9.371   2.543 -1.0668 -2.0801  2.2266
  127ACOH    H3 9916   3.880   9.410   2.690 -1.8306  0.3070 -1.1305
  128ACOH    H4 9917   4.377   0.619   1.421  0.2139  4.6642 -0.5917
  128ACOH    O2 9918   4.474   0.621   1.413  0.5294  0.2161  0.5213
  128ACOH    C2 9919   4.520   0.685   1.527 -0.5359 -0.4512 -0.4286
  128ACOH    O1 9920   4.465   0.674   1.638  0.1542 -0.2554 -0.1606
  128ACOH    C1 9921   4.661   0.726   1.506 -0.1231 -0.4746 -0.0088
  128ACOH    H1 9922   4.708   0.752   1.601 -0.6627  2.2752 -0.4624
  128ACOH    H2 9923   4.666   0.807   1.433  2.2227  1.7470  2.5187
  128ACOH    H3 9924   4.720   0.646   1.462 -0.8428 -1.1768  0.2942
  129ACOH    H4 9925   3.045   9.228   0.184  0.6758  0.4209  0.9420
  129ACOH    O2 9926   3.057   9.157   0.249 -0.1383 -0.5156  0.0924
  129ACOH    C2 9927   3.182   9.101   0.237  0.4559 -0.3886 -0.3914
  129ACOH    O1 9928   3.272   9.161   0.187  0.1955 -0.1231 -0.1765
  129ACOH    C1 9929   3.204   8.996   0.345  0.1918  0.1120  0.6404
  129ACOH    H1 9930   3.257   8.909   0.306 -1.4308 -1.0531  0.9936
  129ACOH    H2 9931   3.110   8.957   0.385 -0.9146 -0.5969 -2.5524
  129ACOH    H3 9932   3.256   9.051   0.424 -0.0969 -1.3130  1.8227
  130ACOH    H4 9933   3.470   9.186   0.226 -0.2289 -0.1898  0.7375
  130ACOH    O2 9934   3.564   9.164   0.213 -0.1959  0.1894  0.2921
  130ACOH    C2 9935   3.589   9.054   0.295 -0.2963 -0.5816  0.1008
  130ACOH    O1 9936   3.509   8.979   0.349  0.0460  0.5439 -0.0041
  130ACOH    C1 9937   3.738   9.035   0.312  1.2764  0.1520  0.4790
  130ACOH    H1 9938   3.753   8.941   0.366 -2.3660 -1.7714 -1.6958
  130ACOH    H2 9939   3.776   9.111   0.380 -1.2191  0.1692  1.9206
  130ACOH    H3 9940   3.793   9.031   0.218 -0.2374  0.6718 -0.4329
  131ACOH    H4 9941   3.918   2.452   1.080  1.2102 -1.0183 -3.0045
  131ACOH    O2 9942   3.837   2.434   1.029 -0.4249 -0.2329 -0.7717
  131ACOH    C2 9943   3.770   2.553   1.011 -0.1113 -0.0309  0.4796
  131ACOH    O1 9944   3.804   2.662   1.053  0.0845 -0.6496 -0.2831
  131ACOH    C1 9945   3.630   2.522   0.982  0.8145 -0.1220 -0.6209
  131ACOH    H1 9946   3.617   2.443   0.908  1.7707 -1.4240  0.5755
  131ACOH    H2 9947   3.587   2.618   0.956  2.4252  1.4448  2.2534
  131ACOH    H3 9948   3.592   2.492   1.080  0.9157  0.6344 -0.3450
  132ACOH    H4 9949   3.513   2.310   2.198 -1.0230 -0.9480  0.8393
  132ACOH    O2 9950   3.443   2.341   2.139  0.0141 -0.0105  0.0666
  132ACOH    C2 9951   3.334   2.270   2.170 -0.0120  0.1962  0.3508
  132ACOH    O1 9952   3.324   2.192   2.265 -0.6232  0.0912 -0.1418
  132ACOH    C1 9953   3.209   2.304   2.091  0.5094  0.8796 -0.1929
  132ACOH    H1 9954   3.147   2.357   2.163 -1.3431 -0.9335 -0.4097
  132ACOH    H2 9955   3.150   2.222   2.050  1.2340  1.2720 -2.0635
  132ACOH    H3 9956   3.224   2.383   2.017  0.0731  0.4210 -0.7835
  133ACOH    H4 9957   3.357   9.212   1.261  0.7390  3.0386 -0.8934
  133ACOH    O2 9958   3.400   9.174   1.182  0.0150  0.3760 -0.0629
  133ACOH    C2 9959   3.509   9.243   1.145 -0.9043  0.1674  0.2742
  133ACOH    O1 9960   3.570   9.318   1.216 -0.7164  0.0407 -0.2154
  133ACOH    C1 9961   3.558   9.194   1.012  0.0720 -0.1057  0.3112
  133ACOH    H1 9962   3.647   9.250   0.984 -0.3016  0.4837  0.3006
  133ACOH    H2 9963   3.479   9.218   0.940  2.4440 -0.4762 -2.5067
  133ACOH    H3 9964   3.574   9.086   1.012 -0.7952 -0.3299 -3.8595
  134ACOH    H4 9965   4.607   1.637   1.578 -0.4260  1.2276 -1.7137
  134ACOH    O2 9966   4.701   1.649   1.556  0.0184  0.2334 -0.4008
  134ACOH    C2 9967   4.746   1.528   1.554  0.4718  0.0918 -0.1767
  134ACOH    O1 9968   4.679   1.425   1.565  0.8282 -0.4574  0.6336
  134ACOH    C1 9969   4.893   1.530   1.535 -0.4359 -0.1724 -0.9713
  134ACOH    H1 9970   4.936   1.558   1.439  2.3150 -0.4895  0.1243
  134ACOH    H2 9971   4.936   1.435   1.567 -0.8587  0.5193  1.7479
  134ACOH    H3 9972   4.929   1.608   1.602  1.7581 -1.9934  0.0412
  135ACOH    H4 9973   3.915   9.732   0.694  1.4692  1.9527  0.3874
  135ACOH    O2 9974   3.923   9.682   0.777  0.3915  0.4591 -0.3835
  135ACOH    C2 9975   4.030   9.606   0.765 -0.3582  0.2725  0.3998
  135ACOH    O1 9976   4.037   9.531   0.671 -0.2796  0.9862 -0.8541
  135ACOH    C1 9977   4.077   9.553   0.894 -0.3395 -0.2644  0.0999
  135ACOH    H1 9978   4.142   9.626   0.941 -1.5194 -0.0069  1.4048
  135ACOH    H2 9979   4.134   9.461   0.883  1.1087  0.5056  1.0919
  135ACOH    H3 9980   3.988   9.536   0.955 -2.3066  0.5428 -2.4706
  136ACOH    H4 9981   4.793   0.984   0.888 -0.1619 -0.3472 -3.9513
  136ACOH    O2 9982   4.890   0.994   0.889 -0.1480 -0.2672  0.3912
  136ACOH    C2 9983   4.922   1.120   0.854 -0.3164  0.2245 -0.1645
  136ACOH    O1 9984   4.850   1.215   0.868 -0.8336 -0.2878 -0.2486
  136ACOH    C1 9985   5.064   1.135   0.819 -0.9226  0.1309  0.3120
  136ACOH    H1 9986   5.095   1.073   0.734  1.4986 -0.1113  1.3406
  136ACOH    H2 9987   5.122   1.120   0.909  0.4337 -1.2189 -0.7610
  136ACOH    H3 9988   5.088   1.234   0.780  2.1954 -1.0973 -1.0004
  137ACOH    H4 9989   4.042   2.568   1.378  0.8048 -0.0245 -4.1464
  137ACOH    O2 9990   4.117   2.513   1.405 -0.0887  0.4339 -0.4421
  137ACOH    C2 9991   4.121   2.426   1.300 -0.0360 -0.6762 -0.0552
  137ACOH    O1 9992   4.053   2.411   1.200  0.2504 -0.3615 -0.1010
  137ACOH    C1 9993   4.248   2.344   1.311  0.7581  0.0191 -0.4452
  137ACOH    H1 9994   4.282   2.330   1.413  2.4104 -3.5676 -1.3880
  137ACOH    H2 9995   4.324   2.397   1.253  2.5768 -1.2412  0.7455
  137ACOH    H3 9996   4.234   2.245   1.266 -1.6727  0.1586 -0.0777
  138ACOH    H4 9997   4.174   9.808   0.185 -0.4069  0.1975  0.4893
  138ACOH    O2 9998   4.187   9.713   0.174 -0.1058  0.2413  0.4511
  138ACOH    C2 9999   4.073   9.658   0.227 -0.1519  0.0687  0.3712
  138ACOH    O110000   3.980   9.725   0.259 -0.4530 -0.2665 -0.2778
  138ACOH    C110001   4.093   9.513   0.246 -0.2033  0.8429 -0.6466
  138ACOH    H110002   4.197   9.485   0.233 -0.5219 -1.2573  1.0327
  138ACOH    H210003   4.030   9.472   0.167 -1.5518  2.1222 -0.2578
  138ACOH    H310004   4.063   9.471   0.342  0.2513  1.4158 -0.2530
  139SOL     OW10005   4.195   0.637   2.462 -0.2560 -0.1435 -0.5116
  139SOL    HW110006   4.253   0.663   2.385  0.2209 -0.3362 -0.2181
  139SOL    HW210007   4.145   0.718   2.495  1.0746  0.3775  0.2706
  140SOL     OW10008   3.741   0.232   2.141 -0.2968  0.0426  0.8003
  140SOL    HW110009   3.685   0.307   2.176 -0.3298 -0.2604  1.4065
  140SOL    HW210010   3.837   0.249   2.162 -0.1503  0.5899 -0.2906
  141SOL     OW10011   2.719   0.989   1.606 -0.2909 -0.1883 -0.2636
  141SOL    HW110012   2.685   1.059   1.543 -0.2257  0.4764  0.4290
  141SOL    HW210013   2.706   1.020   1.700  2.0790  0.0190  0.0258
  142SOL     OW10014   2.297   0.973   0.188  0.6727 -0.1110 -0.7371
  142SOL    HW110015   2.363   0.905   0.155 -0.5379 -1.9973  0.6569
  142SOL    HW210016   2.213   0.927   0.217 -0.1147  1.9793  0.3883
  143SOL     OW10017   3.119   2.317   1.359 -0.1706 -0.0583 -0.5991
  143SOL    HW110018   3.167   2.316   1.271 -0.5059 -0.2370 -0.7760
  143SOL    HW210019   3.036   2.262   1.354  0.4874 -1.1582  0.2189
  144SOL     OW10020   2.412   9.591   1.139 -0.3243  0.0293  0.6268
  144SOL    HW110021   2.392   9.605   1.237 -0.6922  1.5753  0.3509
  144SOL    HW210022   2.326   9.576   1.090 -0.1177 -0.9956  0.5687
  145SOL     OW10023   3.318   2.317   1.563  0.6784 -0.4706 -0.1490
  145SOL    HW110024   3.298   2.240   1.623 -0.2943  0.1872  0.3728
  145SOL    HW210025   3.249   2.324   1.491  0.7976 -0.1262 -0.2365
  146SOL     OW10026   4.125   2.009   1.182 -0.0703  0.0637  0.0083
  146SOL    HW110027   4.078   2.070   1.246 -0.3422  1.1644 -1.2240
  146SOL    HW210028   4.123   1.915   1.218 -1.6600  0.3904  0.8157
  147SOL     OW10029   2.613   9.622   0.471  0.0719 -0.4805 -0.1944
  147SOL    HW110030   2.629   9.624   0.372 -1.1075 -0.7578 -0.3962
  147SOL    HW210031   2.530   9.672   0.493  1.5289  1.5429  0.9321
  148SOL     OW10032   3.651   0.286   1.787 -0.0038  0.1736 -0.6000
  148SOL    HW110033   3.618   0.208   1.735  0.0278  0.1245 -0.5461
  148SOL    HW210034   3.727   0.258   1.846 -0.1644  0.1864 -0.3857
  149SOL     OW10035   3.356   2.409   2.563 -0.3202  0.1924  0.2479
  149SOL    HW110036   3.337   2.418   2.465  1.3296  0.8404 -0.0211
  149SOL    HW210037   3.410   2.487   2.594 -2.4816  0.9874  2.1199
  150SOL     OW10038   3.092   0.846   0.607  0.2670  0.0229 -0.1848
  150SOL    HW110039   3.077   0.815   0.701 -1.1210 -1.6781 -0.9331
  150SOL    HW210040   3.052   0.780   0.543  1.5029  0.9729 -1.9922
  151SOL     OW10041   3.220   2.107   1.748 -0.1162 -0.2032  0.2880
  151SOL    HW110042   3.242   2.106   1.846 -2.9945 -0.4600  0.9894
  151SOL    HW210043   3.219   2.013   1.713 -0.3965 -0.2165  0.3314
  152SOL     OW10044   2.146   0.237   0.590  0.0285  0.0009 -0.1289
  152SOL    HW110045   2.132   0.261   0.686  0.8297  1.2598 -0.3127
  152SOL    HW210046   2.168   0.140   0.582  4.2262  0.7303  1.4279
  153SOL     OW10047   3.667   1.032   1.576 -0.5566  0.4259 -0.3852
  153SOL    HW110048   3.607   0.976   1.633  0.0613  0.5808  0.4328
  153SOL    HW210049   3.670   1.125   1.611  0.6860  0.2570 -0.0009
  154SOL     OW10050   2.937  10.186   0.878 -0.3023 -0.4198  0.3167
  154SOL    HW110051   2.934  10.103   0.933 -0.9487 -1.2783 -0.9660
  154SOL    HW210052   2.926  10.266   0.937 -2.0434 -1.3628  1.3360
  155SOL     OW10053   3.278   0.687   1.109  0.5733  0.3572 -0.1555
  155SOL    HW110054   3.367   0.731   1.118 -0.7072  2.6079  2.0732
  155SOL    HW210055   3.211   0.733   1.168 -1.9846 -1.5465 -1.4420
  156SOL     OW10056   2.185   0.362   2.756  0.2339  0.4900 -0.6927
  156SOL    HW110057   2.164   0.268   2.728 -0.4550  0.2999  0.4210
  156SOL    HW210058   2.168   0.372   2.854  0.3942  1.7518 -0.7857
  157SOL     OW10059   3.948   0.933   1.600 -0.0350  0.1277 -0.1244
  157SOL    HW110060   3.856   0.936   1.562 -0.1613  0.1481  0.1771
  157SOL    HW210061   3.943   0.944   1.700  0.3526  0.9027 -0.1896
  158SOL     OW10062   3.742   9.712   1.236  0.0339  0.3648 -0.2925
  158SOL    HW110063   3.722   9.659   1.153  2.5017  0.5722 -1.0453
  158SOL    HW210064   3.837   9.743   1.234  0.0220  0.6762  2.4741
  159SOL     OW10065   2.533   0.987   0.787  0.0481 -0.2627  0.0054
  159SOL    HW110066   2.507   1.072   0.833 -1.6926 -0.9485  0.3220
  159SOL    HW210067   2.557   1.006   0.692  0.3978  0.6879  0.2785
  160SOL     OW10068   4.182   0.334   0.902 -0.3255 -0.1588  0.2753
  160SOL    HW110069   4.085   0.358   0.892 -0.5862 -0.5540  1.7519
  160SOL    HW210070   4.219   0.311   0.812 -2.2475 -2.4040 -0.0161
  161SOL     OW10071   3.449   0.812   1.687 -0.7169  0.0233  0.3689
  161SOL    HW110072   3.358   0.840   1.718 -1.0006 -1.3268  0.8103
  161SOL    HW210073   3.499   0.771   1.764  0.1683  0.5222  0.0656
  162SOL     OW10074   3.254   9.872   1.952 -0.0193 -0.4171  0.1402
  162SOL    HW110075   3.163   9.877   1.911  0.3660  0.1025 -0.6621
  162SOL    HW210076   3.311   9.947   1.918  0.1489  0.3611  2.0475
  163SOL     OW10077   2.416   9.777   0.055  0.0715  0.0908 -0.1746
  163SOL    HW110078   2.391   9.789  -0.041 -1.0183  1.6610  0.2872
  163SOL    HW210079   2.426   9.679   0.074  0.6842 -0.2171 -1.9704
  164SOL     OW10080   3.691   1.075   0.611  0.1166 -0.0663  0.1110
  164SOL    HW110081   3.617   1.040   0.554 -0.9709  0.6081  1.1178
  164SOL    HW210082   3.679   1.173   0.627  0.0743 -0.3579  2.0051
  165SOL     OW10083   3.376   1.076   2.415 -0.2973 -0.2702  0.2804
  165SOL    HW110084   3.389   1.170   2.448 -1.0057 -0.7112  1.8444
  165SOL    HW210085   3.459   1.046   2.367  0.7731  0.3998  1.6617
  166SOL     OW10086   2.502   9.046   2.770  0.2955 -0.9372  0.3100
  166SOL    HW110087   2.427   8.993   2.730 -0.6520  0.2023  0.5343
  166SOL    HW210088   2.559   9.084   2.696  0.3014 -1.3095  0.1221
  167SOL     OW10089   2.845   9.565   1.705  0.2321  0.4859 -0.1603
  167SOL    HW110090   2.885   9.634   1.766  0.5497 -0.6233  0.9189
  167SOL    HW210091   2.917   9.525   1.648  0.3545 -0.1753  0.4489
  168SOL     OW10092   3.275   9.717   0.663 -0.4222 -0.5930  0.5661
  168SOL    HW110093   3.197   9.775   0.641 -0.0117 -0.0215  0.6111
  168SOL    HW210094   3.320   9.752   0.745 -0.3187 -1.1158  0.7311
  169SOL     OW10095   3.194  10.136   2.596  0.3754 -0.2940 -0.0730
  169SOL    HW110096   3.275  10.078   2.602  0.9282  0.6625  2.6724
  169SOL    HW210097   3.134  10.117   2.675 -0.7735  0.9047 -0.6413
  170SOL     OW10098   3.375   0.356   0.166  0.3766 -0.3424 -0.2289
  170SOL    HW110099   3.350   0.259   0.161 -1.2326  0.0733 -0.7668
  170SOL    HW210100   3.445   0.376   0.097  0.4780 -1.0616 -0.3338
  171SOL     OW10101   2.408   1.206   1.695  1.0100 -0.5617  0.1757
  171SOL    HW110102   2.444   1.278   1.635  0.1929 -0.8767 -0.6937
  171SOL    HW210103   2.369   1.133   1.640  0.0214 -0.7445  1.1036
  172SOL     OW10104   2.834   9.368   0.563  0.0258 -0.4696 -0.1947
  172SOL    HW110105   2.737   9.349   0.576 -0.1960  0.4605 -0.4550
  172SOL    HW210106   2.853   9.463   0.590  0.8264 -0.5873 -0.3309
  173SOL     OW10107   3.245   9.880   2.754 -0.2558  0.5703  0.1553
  173SOL    HW110108   3.328   9.829   2.733  0.2984  2.3106 -2.0542
  173SOL    HW210109   3.165   9.831   2.718  0.2612  1.1795 -1.8623
  174SOL     OW10110   2.553   9.276   1.434  0.0924 -0.3593 -0.3872
  174SOL    HW110111   2.534   9.268   1.336  4.0884  0.7437 -1.3728
  174SOL    HW210112   2.539   9.371   1.462 -1.5460 -0.7799  0.2678
  175SOL     OW10113   2.606  10.015   2.025  0.3370 -0.1027  0.0499
  175SOL    HW110114   2.563   9.932   1.991  0.1704 -1.0408  2.4792
  175SOL    HW210115   2.687   9.992   2.079  1.0941  1.3871 -0.4041
  176SOL     OW10116   2.472   9.800   1.930  0.4789  0.2422 -0.1625
  176SOL    HW110117   2.507   9.771   2.019  1.9252  0.0365 -0.7774
  176SOL    HW210118   2.388   9.749   1.909  0.7564 -0.5420  0.5795
  177SOL     OW10119   3.425   0.451   0.439  0.3157 -0.4961 -0.0812
  177SOL    HW110120   3.353   0.475   0.504  2.5424  0.4971  2.1180
  177SOL    HW210121   3.384   0.419   0.353 -2.6995  0.9016  0.7785
  178SOL     OW10122   3.465   1.470   0.905  0.2153  0.7296 -0.4680
  178SOL    HW110123   3.477   1.371   0.903  2.2666  0.9302  0.5474
  178SOL    HW210124   3.367   1.492   0.900 -0.3297 -1.3692  0.4766
  179SOL     OW10125   3.671  10.109   0.766 -0.3710 -0.1285 -0.5561
  179SOL    HW110126   3.717  10.166   0.697  1.1985 -1.2767 -0.4859
  179SOL    HW210127   3.668  10.159   0.853  3.2141 -1.0135  0.1815
  180SOL     OW10128   3.666   1.164   1.069  0.0110 -0.2101  0.0287
  180SOL    HW110129   3.716   1.250   1.077 -0.8784  0.2394  0.7811
  180SOL    HW210130   3.687   1.106   1.147  0.4365 -0.5983 -0.3658
  181SOL     OW10131   2.309   1.376   1.969  0.3445  0.2763 -0.2655
  181SOL    HW110132   2.216   1.340   1.956 -1.8190  4.7029  1.6683
  181SOL    HW210133   2.370   1.301   1.993 -2.4794 -2.9261 -2.5293
  182SOL     OW10134   3.293  10.111   1.206 -0.2485 -0.1342  0.2308
  182SOL    HW110135   3.350  10.032   1.226  1.4383  1.2208  0.8480
  182SOL    HW210136   3.331  10.161   1.128 -1.1640  0.2187 -0.0004
  183SOL     OW10137   2.925   1.304   1.104  0.1273 -0.3392 -0.5767
  183SOL    HW110138   2.984   1.384   1.099 -0.5747  0.2349  0.1609
  183SOL    HW210139   2.945   1.243   1.027  1.3275  0.0764 -0.6034
  184SOL     OW10140   4.367   1.984   1.678 -0.1397  0.4132  0.5854
  184SOL    HW110141   4.311   2.004   1.598  3.1025  1.7018 -1.4768
  184SOL    HW210142   4.377   2.066   1.734  0.0034  0.2900  0.7409
  185SOL     OW10143   2.696   1.311   0.333 -0.2383 -0.3059 -0.3350
  185SOL    HW110144   2.741   1.231   0.373 -0.5063 -0.7177 -0.8524
  185SOL    HW210145   2.705   1.307   0.233 -3.0502 -1.3910 -0.5925
  186SOL     OW10146   3.213   0.371   2.295  0.4155  0.6411 -0.3852
  186SOL    HW110147   3.128   0.413   2.325  0.6877  0.5415  0.5315
  186SOL    HW210148   3.195   0.312   2.216 -0.1114  1.7769 -1.1203
  187SOL     OW10149   3.910   9.296   0.581 -0.7943 -0.2897  0.2238
  187SOL    HW110150   3.977   9.370   0.588  0.9687 -1.9180  0.9192
  187SOL    HW210151   3.836   9.324   0.520  0.1707  1.7940 -0.0408
  188SOL     OW10152   2.468   9.873   0.935 -0.2319 -0.3247 -0.0140
  188SOL    HW110153   2.495   9.872   1.031  2.0009  0.6516 -0.6048
  188SOL    HW210154   2.411   9.953   0.917  0.1057 -0.0116  0.2972
  189SOL     OW10155   4.134   0.988   2.312 -0.2108 -0.3571 -0.0173
  189SOL    HW110156   4.191   0.923   2.263 -0.6524 -0.1549 -0.8142
  189SOL    HW210157   4.075   0.939   2.376  0.3102 -0.6307  0.2525
  190SOL     OW10158   2.980   0.667   0.404 -0.1670 -0.6342 -0.3299
  190SOL    HW110159   3.032   0.681   0.320 -1.2032  0.9545 -0.7485
  190SOL    HW210160   2.952   0.571   0.410 -0.9083 -0.5835 -2.3148
  191SOL     OW10161   2.597   0.330   2.073  0.0432 -0.1642 -0.0633
  191SOL    HW110162   2.577   0.234   2.055  0.5450  0.1293 -2.3175
  191SOL    HW210163   2.511   0.382   2.074 -0.0808 -0.3400 -0.8195
  192SOL     OW10164   2.416   1.154   0.373 -0.0496 -0.0575  0.5062
  192SOL    HW110165   2.359   1.097   0.314  2.8460 -2.0103 -0.5324
  192SOL    HW210166   2.399   1.250   0.354 -0.8533 -0.6369 -1.8827
  193SOL     OW10167   2.460   0.575   1.855 -0.4596  0.1191  0.4175
  193SOL    HW110168   2.416   0.516   1.923  0.0115 -0.6196  0.0887
  193SOL    HW210169   2.473   0.525   1.770  0.9287  0.3446  0.4763
  194SOL     OW10170   2.412   9.509   0.100 -0.7212 -0.6255 -0.0129
  194SOL    HW110171   2.347   9.520   0.175 -0.7447 -3.1457  0.3517
  194SOL    HW210172   2.488   9.451   0.129  0.2075 -0.1034 -1.3606
  195SOL     OW10173   3.545   0.929   0.205  0.1124  0.3822 -0.4064
  195SOL    HW110174   3.622   0.992   0.203  0.7071 -0.3234 -0.1152
  195SOL    HW210175   3.530   0.896   0.298 -1.3675  1.4888 -0.2172
  196SOL     OW10176   4.488   0.934   2.072  0.4838  0.0808 -0.2470
  196SOL    HW110177   4.469   1.031   2.060  0.8633  0.3175  0.9457
  196SOL    HW210178   4.573   0.910   2.025  0.9572  0.5670  0.3513
  197SOL     OW10179   3.493   0.752   1.401 -0.2720  0.0756 -0.1589
  197SOL    HW110180   3.433   0.820   1.358 -0.6065  0.7047  1.2752
  197SOL    HW210181   3.503   0.774   1.498  0.1989 -1.5276  0.1549
  198SOL     OW10182   2.511   9.523   1.556  0.3448  0.0039  0.4204
  198SOL    HW110183   2.557   9.606   1.586  0.9634  0.1862 -1.0142
  198SOL    HW210184   2.485   9.468   1.636 -0.6862  1.8946  1.4158
  199SOL     OW10185   3.400   9.883   1.403 -0.4314 -0.2630  0.3079
  199SOL    HW110186   3.380   9.792   1.441 -0.4356 -1.0335 -1.4783
  199SOL    HW210187   3.500   9.896   1.398 -0.4261 -0.4028  0.0374
  200SOL     OW10188   3.707   0.995   1.301  0.2637  0.2119 -0.8249
  200SOL    HW110189   3.807   1.008   1.301  0.4273 -0.9631 -0.4730
  200SOL    HW210190   3.669   1.031   1.387  0.2948  1.2472 -1.2366
  201SOL     OW10191   3.669   9.906   1.396  0.1291  0.8977  0.6203
  201SOL    HW110192   3.713   9.902   1.486 -1.4886 -0.8572  1.3633
  201SOL    HW210193   3.696   9.826   1.343  0.0543  1.2582  0.0447
  202SOL     OW10194   2.370  10.108   1.886 -0.2770  0.6375  1.1561
  202SOL    HW110195   2.329  10.030   1.840  0.7620 -0.2171  1.6437
  202SOL    HW210196   2.465  10.086   1.911 -0.0569  1.9517  1.5404
  203SOL     OW10197   3.522   0.917   0.473 -0.2843 -0.2830  0.2616
  203SOL    HW110198   3.524   0.831   0.523 -0.7893 -1.6449 -1.9724
  203SOL    HW210199   3.428   0.936   0.443  0.5791 -1.5707 -3.5370
  204SOL     OW10200   3.545  10.072   1.674  0.5289  0.1065  0.0176
  204SOL    HW110201   3.578   9.979   1.685 -1.2913 -0.5051  0.3839
  204SOL    HW210202   3.525  10.090   1.578 -2.6461 -1.1349  0.3769
  205SOL     OW10203   3.098   1.032   2.424  0.2242 -0.4028  0.3468
  205SOL    HW110204   3.196   1.044   2.415  0.7321 -3.4203  1.3503
  205SOL    HW210205   3.079   0.949   2.477 -2.8568 -0.1320 -0.2370
  206SOL     OW10206   2.878   0.978   0.164 -0.1675 -0.3625  0.6276
  206SOL    HW110207   2.835   0.910   0.224 -0.3945 -0.3681  0.4600
  206SOL    HW210208   2.825   0.986   0.080  0.0153 -0.1780  0.5296
  207SOL     OW10209   2.334   0.541   2.639 -0.7017 -0.2218  0.0804
  207SOL    HW110210   2.275   0.471   2.678 -0.9968 -0.9350 -1.6071
  207SOL    HW210211   2.293   0.576   2.555  1.1883 -0.6113 -1.0317
  208SOL     OW10212   2.994   9.288   1.413  0.0700  0.2822  0.5603
  208SOL    HW110213   2.931   9.236   1.471  1.5364 -1.8596  0.2919
  208SOL    HW210214   2.942   9.335   1.341 -1.3358 -0.3521  1.1413
  209SOL     OW10215   2.803   9.187   1.609  0.1626  0.1518  0.2914
  209SOL    HW110216   2.759   9.227   1.689 -0.6142  2.6365 -1.3355
  209SOL    HW210217   2.734   9.153   1.546  0.7692 -1.7029  0.5905
  210SOL     OW10218   2.670   9.690   1.090  0.1079  0.2263 -0.0163
  210SOL    HW110219   2.686   9.657   0.997  0.1454  0.0973  0.0362
  210SOL    HW210220   2.580   9.659   1.122  0.4113 -0.3636  0.2721
  211SOL     OW10221   3.184   9.984   0.520  0.5648  0.2141  0.0457
  211SOL    HW110222   3.271  10.005   0.477 -0.3280  1.4689 -1.2127
  211SOL    HW210223   3.155  10.063   0.576 -0.0058  0.0190  0.0300
  212SOL     OW10224   2.526   0.447   1.571 -0.2574  0.0936  0.1631
  212SOL    HW110225   2.509   0.477   1.477 -1.4347  1.2444  0.7234
  212SOL    HW210226   2.501   0.351   1.581 -2.2171  0.5413 -0.1810
  213SOL     OW10227   3.699   2.178   0.297  0.3305 -0.2057  0.1558
  213SOL    HW110228   3.695   2.195   0.199 -0.3474 -1.8465 -0.1102
  213SOL    HW210229   3.737   2.087   0.313  1.5341  0.5087  1.4597
  214SOL     OW10230   2.537   0.859   1.874  0.4573  0.6597  0.1196
  214SOL    HW110231   2.454   0.915   1.876  0.5785  0.8441 -0.0671
  214SOL    HW210232   2.517   0.772   1.830  0.7855  1.3738 -1.4646
  215SOL     OW10233   3.820   9.357   0.848  0.1029  0.5912 -0.2127
  215SOL    HW110234   3.840   9.331   0.754  0.4376  1.1075 -0.2882
  215SOL    HW210235   3.804   9.275   0.903  1.6690  0.1921 -0.3164
  216SOL     OW10236   2.678   9.467   0.197  0.0234 -0.6559 -0.2681
  216SOL    HW110237   2.768   9.493   0.230 -0.1300 -0.4310 -0.0281
  216SOL    HW210238   2.662   9.370   0.217 -0.1867 -0.4477  0.5752
  217SOL     OW10239   2.480   1.629   2.084  0.7595 -0.5535  0.3116
  217SOL    HW110240   2.409   1.599   2.020  0.3693  2.3668 -0.6800
  217SOL    HW210241   2.565   1.582   2.063  1.0790  1.4962 -3.5048
  218SOL     OW10242   3.104   0.840   0.057 -0.0633  0.1567  0.3598
  218SOL    HW110243   3.037   0.899   0.102 -0.5883  2.3668 -3.1175
  218SOL    HW210244   3.196   0.868   0.082 -0.3658 -0.6391  2.4241
  219SOL     OW10245   3.282   0.407   2.551 -0.0097  0.3445  0.1004
  219SOL    HW110246   3.276   0.404   2.451  3.1177 -0.2897 -0.1295
  219SOL    HW210247   3.245   0.322   2.589  0.1693 -0.0666 -0.6298
  220SOL     OW10248   2.134   9.934   0.753 -0.4154  0.2806  0.6472
  220SOL    HW110249   2.144   9.956   0.656  1.0591 -0.1732  0.6820
  220SOL    HW210250   2.116   9.836   0.763 -1.8703  0.5515  0.7687
  221SOL     OW10251   3.316   9.425   0.045  0.0578  0.6721 -0.2900
  221SOL    HW110252   3.332   9.334   0.083  1.0758  1.1022  0.3284
  221SOL    HW210253   3.395   9.452  -0.010 -1.7582 -0.3466 -3.5848
  222SOL     OW10254   3.127   1.343   1.818  0.6043 -0.7040  0.1123
  222SOL    HW110255   3.049   1.370   1.761  0.4445 -1.0281  0.1776
  222SOL    HW210256   3.172   1.264   1.777  1.3400 -0.0685 -0.3132
  223SOL     OW10257   3.797   0.282   2.550 -0.0531  0.6387 -0.3887
  223SOL    HW110258   3.864   0.355   2.565 -0.5393  1.1006 -0.4345
  223SOL    HW210259   3.811   0.209   2.617  1.7246 -0.1612 -1.6143
  224SOL     OW10260   3.663   9.155   0.621  0.1015  0.4022  0.0463
  224SOL    HW110261   3.763   9.161   0.628  0.1736  0.7410 -1.1819
  224SOL    HW210262   3.635   9.060   0.637  0.7804 -0.0506 -1.3213
  225SOL     OW10263   3.680  10.104   2.407 -0.2080 -0.3302 -0.4465
  225SOL    HW110264   3.607  10.131   2.344  0.1139  1.8805  0.0873
  225SOL    HW210265   3.720  10.185   2.449 -0.3134 -1.7389  2.5245
  226SOL     OW10266   3.308   1.950   1.983 -0.1803 -0.2638 -0.3468
  226SOL    HW110267   3.312   1.860   1.941 -0.6128  1.4021 -4.2163
  226SOL    HW210268   3.222   1.960   2.032  0.0343 -2.0709  0.4251
  227SOL     OW10269   3.707   9.844   2.362 -0.0262 -0.6886 -0.2976
  227SOL    HW110270   3.784   9.790   2.395 -0.2418 -0.3069  0.8234
  227SOL    HW210271   3.722   9.940   2.383 -0.6794 -0.5792 -0.3280
  228SOL     OW10272   3.140   0.466   1.030 -0.0378  0.0628 -0.0957
  228SOL    HW110273   3.194   0.404   0.973 -1.9517 -0.1427 -1.7321
  228SOL    HW210274   3.193   0.549   1.049  0.5834  0.2149 -2.3544
  229SOL     OW10275   4.223   0.907   1.572  0.5724  0.3616  0.1245
  229SOL    HW110276   4.247   0.830   1.512  0.5318  1.1247 -0.8717
  229SOL    HW210277   4.127   0.900   1.597  0.8165 -0.4678  0.8537
  230SOL     OW10278   4.075  10.011   1.114 -0.3202 -0.2281 -0.4052
  230SOL    HW110279   4.100  10.050   1.025 -0.4665 -1.3618 -0.9405
  230SOL    HW210280   4.048  10.086   1.175  1.9144  0.7810 -0.6030
  231SOL     OW10281   3.013   9.136   0.628 -0.7857  0.0350 -0.5211
  231SOL    HW110282   2.984   9.120   0.722 -1.2821 -0.4479 -0.7579
  231SOL    HW210283   2.967   9.217   0.592 -1.1581 -0.2137 -0.5993
  232SOL     OW10284   2.212   9.689   1.876 -0.0700  0.8124 -0.0448
  232SOL    HW110285   2.146   9.713   1.948 -0.4337  1.2814 -0.5329
  232SOL    HW210286   2.221   9.589   1.871 -2.2294  0.6532 -1.3012
  233SOL     OW10287   4.261   0.554   1.768  0.5139 -0.1523 -0.0392
  233SOL    HW110288   4.191   0.620   1.794  1.0608  0.7461 -0.8014
  233SOL    HW210289   4.339   0.603   1.728  0.4812 -1.3311 -1.5733
  234SOL     OW10290   2.286   0.624   0.804  0.7700 -0.2142 -0.0740
  234SOL    HW110291   2.232   0.592   0.881  0.1694  1.8499  0.3930
  234SOL    HW210292   2.279   0.559   0.729  0.6176 -1.7834  1.2688
  235SOL     OW10293   2.260   0.926   0.944 -0.4766  0.1077  0.2946
  235SOL    HW110294   2.249   0.847   0.882  0.8051 -0.0546  0.2575
  235SOL    HW210295   2.315   0.996   0.899 -1.3918  0.9205  0.4332
  236SOL     OW10296   4.519   1.666   2.078  0.4426  0.1395 -0.4162
  236SOL    HW110297   4.460   1.700   2.006 -0.6416 -2.0508 -0.5892
  236SOL    HW210298   4.614   1.668   2.048  0.1060  0.3430 -1.4619
  237SOL     OW10299   2.515   1.706   1.005  0.3940  0.5260  0.2118
  237SOL    HW110300   2.420   1.716   0.974  0.7360  1.8771 -0.4584
  237SOL    HW210301   2.569   1.661   0.933  0.7329  1.7647 -0.3197
  238SOL     OW10302   4.283   2.042   1.432  0.0313 -0.2666  0.8097
  238SOL    HW110303   4.294   1.952   1.389  0.6576  0.3421 -0.3164
  238SOL    HW210304   4.187   2.070   1.426 -0.0652 -0.6226  0.6713
  239SOL     OW10305   2.596   9.427   0.847  0.0456 -0.8329 -0.1204
  239SOL    HW110306   2.591   9.415   0.748 -1.3486  0.9313 -0.2837
  239SOL    HW210307   2.685   9.466   0.871  0.5797 -1.7402 -0.6238
  240SOL     OW10308   3.406   1.193   0.940  0.1918  0.0483  0.3665
  240SOL    HW110309   3.397   1.136   0.859  0.0803 -1.5800  1.4988
  240SOL    HW210310   3.489   1.168   0.989  0.4532  1.2743  0.5687
  241SOL     OW10311   3.943   0.366   1.909 -0.3468 -0.0848 -0.3955
  241SOL    HW110312   3.948   0.460   1.876  0.1967  0.2031  0.4966
  241SOL    HW210313   3.924   0.365   2.007  1.5327 -0.8369 -0.0072
  242SOL     OW10314   2.811   0.668   1.271  0.6990  0.1133  0.1242
  242SOL    HW110315   2.744   0.672   1.196  0.7161  1.0270  0.1521
  242SOL    HW210316   2.812   0.576   1.310 -1.3942  0.4009  0.9040
  243SOL     OW10317   2.382   1.063   2.208 -0.3133 -0.6076  0.1160
  243SOL    HW110318   2.415   1.120   2.132  0.5631 -1.0676  0.1381
  243SOL    HW210319   2.356   1.121   2.285 -0.0590 -0.2029 -0.1006
  244SOL     OW10320   3.148   9.642   1.680  0.3373 -0.1581 -0.2948
  244SOL    HW110321   3.232   9.689   1.654 -0.2461  0.9502 -0.1782
  244SOL    HW210322   3.102   9.608   1.597 -1.7461  3.7468 -0.8307
  245SOL     OW10323   3.505   2.391   1.295 -0.1716 -0.1984 -0.3298
  245SOL    HW110324   3.462   2.434   1.375 -0.3597 -0.7072 -0.1560
  245SOL    HW210325   3.535   2.299   1.319  0.7124  0.0274 -0.5514
  246SOL     OW10326   3.486  10.087   2.626  1.0152 -0.0338 -0.3840
  246SOL    HW110327   3.543  10.039   2.559  0.7349 -1.8108  0.6414
  246SOL    HW210328   3.536  10.095   2.713 -0.0211 -0.9463  0.3006
  247SOL     OW10329   4.724   1.871   2.018  0.0544 -0.5993 -0.1788
  247SOL    HW110330   4.807   1.916   2.052  0.9433 -1.7454 -0.7664
  247SOL    HW210331   4.705   1.901   1.925 -1.2815  1.0849  0.6168
  248SOL     OW10332   4.642   0.949   0.864  0.0783  0.5088  0.0005
  248SOL    HW110333   4.607   0.858   0.845  0.2669  0.3775  0.2709
  248SOL    HW210334   4.570   1.017   0.848 -0.3409  0.2281  0.6878
  249SOL     OW10335   3.256   1.333   1.139 -0.2339 -0.1138  0.5924
  249SOL    HW110336   3.299   1.278   1.066 -1.5007  0.3754 -0.5364
  249SOL    HW210337   3.222   1.272   1.211 -1.6181 -0.8373 -0.6486
  250SOL     OW10338   2.830   9.989   1.424 -0.1187  0.0680  0.6371
  250SOL    HW110339   2.837   9.902   1.375 -0.4713  0.9057 -0.9191
  250SOL    HW210340   2.908  10.047   1.402 -0.0423  0.2778  1.4349
  251SOL     OW10341   4.033   2.273   1.639 -0.1253 -0.1210 -0.4953
  251SOL    HW110342   4.045   2.210   1.715 -0.2746  0.8058  0.3161
  251SOL    HW210343   3.978   2.352   1.670  0.0402  0.3874 -1.4851
  252SOL     OW10344   2.907   1.231   0.649 -0.1206  0.1668  0.4373
  252SOL    HW110345   2.886   1.166   0.576 -0.9769  0.4912  0.3908
  252SOL    HW210346   2.861   1.318   0.630  0.0433  0.4010  1.1223
  253SOL     OW10347   3.331   0.526   1.396 -0.0847 -0.0384 -0.3119
  253SOL    HW110348   3.397   0.599   1.417 -1.5745  1.2212  0.1205
  253SOL    HW210349   3.324   0.515   1.297  2.0644 -1.4233 -0.3576
  254SOL     OW10350   3.400   2.062   0.234  0.3578  0.3234  0.6866
  254SOL    HW110351   3.496   2.074   0.208  0.1929  1.0254  0.3853
  254SOL    HW210352   3.354   2.151   0.235 -0.7410 -0.2105 -0.8943
  255SOL     OW10353   2.621   9.741   1.695 -0.1623 -0.0657 -0.4832
  255SOL    HW110354   2.713   9.704   1.707  0.2850  0.6726 -1.5980
  255SOL    HW210355   2.572   9.738   1.782  1.3568  0.7391  0.4046
  256SOL     OW10356   4.324   1.054   0.110  0.3618  0.7127  0.1337
  256SOL    HW110357   4.248   1.092   0.163 -0.4399 -1.4240  0.5584
  256SOL    HW210358   4.398   1.026   0.172  0.3489  0.2685 -0.0483
  257SOL     OW10359   2.591   0.493   2.521 -0.7304  0.5742  0.0366
  257SOL    HW110360   2.634   0.546   2.448  0.6737  2.2502  2.0226
  257SOL    HW210361   2.502   0.534   2.544 -1.2299 -0.0302 -0.8090
  258SOL     OW10362   2.590   9.375   1.146 -1.0391  0.0943  0.3169
  258SOL    HW110363   2.611   9.348   1.053  2.6982  1.7039  0.5832
  258SOL    HW210364   2.512   9.437   1.146 -1.6706 -0.6693 -1.6185
  259SOL     OW10365   3.510   2.124   2.492 -0.2828 -0.0756  0.2408
  259SOL    HW110366   3.609   2.123   2.510 -0.1886 -2.2486 -0.3259
  259SOL    HW210367   3.493   2.165   2.403  0.0893  0.4756  0.4184
  260SOL     OW10368   3.575   9.819   1.741 -0.2939  0.8126 -0.0260
  260SOL    HW110369   3.541   9.824   1.835  0.4316  1.1881  0.2193
  260SOL    HW210370   3.656   9.761   1.737 -0.5445  0.4869 -0.4906
  261SOL     OW10371   3.592   9.998   2.115 -0.4256 -0.2133 -0.1018
  261SOL    HW110372   3.566   9.989   2.211  0.2084 -1.7615 -0.0724
  261SOL    HW210373   3.648  10.081   2.103 -1.7599  0.8105  0.5759
  262SOL     OW10374   2.482   9.892   1.473 -0.4123  0.0802 -0.6481
  262SOL    HW110375   2.463   9.985   1.503 -1.1888 -0.9122  2.1310
  262SOL    HW210376   2.540   9.847   1.541 -0.1903 -1.5046 -1.8718
  263SOL     OW10377   3.297   1.921   2.319 -0.2149 -0.6764 -0.1015
  263SOL    HW110378   3.298   1.922   2.419  1.3290  0.2385 -0.1002
  263SOL    HW210379   3.327   2.010   2.284  1.0085 -1.5465 -1.3475
  264SOL     OW10380   2.822   9.317   2.468 -0.0530 -0.1132  0.4552
  264SOL    HW110381   2.766   9.319   2.385 -0.0853  1.0602  0.5057
  264SOL    HW210382   2.919   9.315   2.443 -0.0170  1.8709  0.3902
  265SOL     OW10383   4.220   0.646   1.432  0.2484  0.3024  0.0733
  265SOL    HW110384   4.146   0.635   1.498 -0.6309  2.6395 -0.4873
  265SOL    HW210385   4.183   0.640   1.339  1.3207 -1.9519 -0.2428
  266SOL     OW10386   4.388   1.171   0.618  0.2924 -0.0061  0.0960
  266SOL    HW110387   4.462   1.236   0.630 -0.9217  1.6660 -1.0875
  266SOL    HW210388   4.359   1.135   0.706 -0.1755  2.4334  0.9768
  267SOL     OW10389   2.235   9.910   1.733  0.1242 -0.5013 -0.6495
  267SOL    HW110390   2.223   9.828   1.789  0.3380 -0.4555 -0.5353
  267SOL    HW210391   2.264   9.883   1.641 -0.3738 -0.5865 -0.7823
  268SOL     OW10392   2.464  10.175   1.639  0.3858 -0.1932  0.0638
  268SOL    HW110393   2.415  10.156   1.724 -0.6078 -1.3136 -0.7338
  268SOL    HW210394   2.556  10.134   1.644  0.9578  1.1836  1.2301
  269SOL     OW10395   3.776   0.956   2.570  0.1083  0.0777  0.3065
  269SOL    HW110396   3.787   1.048   2.606  0.0751 -0.1510  0.8984
  269SOL    HW210397   3.720   0.902   2.633  0.0192 -0.3082 -0.1011
  270SOL     OW10398   2.483   9.898   1.220  0.3374  0.0482  0.1724
  270SOL    HW110399   2.456   9.888   1.315 -0.6303 -1.6549 -0.2524
  270SOL    HW210400   2.559   9.836   1.200  1.0728  0.9813  0.0292
  271SOL     OW10401   3.536   9.889   0.704  0.1676  0.2488  0.0385
  271SOL    HW110402   3.547   9.841   0.618  1.9827 -1.6398  1.2907
  271SOL    HW210403   3.597   9.969   0.707  0.2571  0.1922 -0.3195
  272SOL     OW10404   4.196   1.706   1.981  0.2292  0.1761 -0.3145
  272SOL    HW110405   4.146   1.679   1.899  0.1014  0.7408 -0.4230
  272SOL    HW210406   4.133   1.716   2.057  0.2306  0.4935 -0.3546
  273SOL     OW10407   3.262   1.185   0.041  0.8185 -0.0540  0.1516
  273SOL    HW110408   3.318   1.250  -0.010 -0.4688  0.5052 -0.5557
  273SOL    HW210409   3.288   1.092   0.016  0.8884  0.2108 -0.7877
  274SOL     OW10410   3.716   2.380   1.993 -0.3708  0.7124  0.0232
  274SOL    HW110411   3.794   2.376   2.054  0.7982 -0.6764 -1.5220
  274SOL    HW210412   3.648   2.312   2.021 -0.3857  0.9059  0.4681
  275SOL     OW10413   2.814   0.499   1.574  0.2446  0.2703 -0.2801
  275SOL    HW110414   2.716   0.513   1.588  0.0750  1.8000 -2.6789
  275SOL    HW210415   2.866   0.557   1.637 -0.4328  2.0041 -1.2838
  276SOL     OW10416   2.352   9.877   2.535  0.0625 -0.6714  0.6425
  276SOL    HW110417   2.435   9.927   2.508 -0.2096  0.2371  1.5064
  276SOL    HW210418   2.366   9.779   2.517  0.5755 -0.2982 -1.0776
  277SOL     OW10419   3.678   0.740   1.210 -0.3114  0.4470  0.0177
  277SOL    HW110420   3.700   0.836   1.230  3.6304 -0.3696 -0.0992
  277SOL    HW210421   3.610   0.707   1.276 -0.2555  2.7399  1.2692
  278SOL     OW10422   2.994   9.718   1.883  0.3698  0.1829  0.3989
  278SOL    HW110423   3.059   9.701   1.810 -1.2490 -1.0063 -0.7943
  278SOL    HW210424   2.979   9.817   1.893 -0.1533  0.3116 -1.5519
  279SOL     OW10425   3.330   2.524   2.308 -0.4248  0.4053  0.5274
  279SOL    HW110426   3.356   2.619   2.292 -0.7665  0.2160 -1.1919
  279SOL    HW210427   3.355   2.468   2.229  0.1906 -1.0343  1.6931
  280SOL     OW10428   2.455   1.181   0.965 -0.6698 -0.1068  0.4045
  280SOL    HW110429   2.410   1.173   1.054 -0.5164  0.7933  0.5649
  280SOL    HW210430   2.540   1.231   0.975 -0.3287 -0.5733 -0.1454
  281SOL     OW10431   2.915  10.170   2.052  0.2055 -0.2300  0.4671
  281SOL    HW110432   2.884  10.241   1.989  0.0026 -1.0373 -0.3547
  281SOL    HW210433   2.867  10.180   2.140  1.0194  1.3426  0.7505
  282SOL     OW10434   2.980   1.954   0.982  0.3324 -0.0532 -0.2259
  282SOL    HW110435   3.060   2.008   1.008  0.2996 -0.2855  0.3533
  282SOL    HW210436   2.910   1.960   1.053 -0.4694  0.7444 -1.0577
  283SOL     OW10437   4.254   0.424   1.132 -0.0154  0.1322 -0.0237
  283SOL    HW110438   4.246   0.360   1.209  3.8705  0.7410  0.9616
  283SOL    HW210439   4.227   0.376   1.048  1.0115 -2.2474  0.9411
  284SOL     OW10440   3.014   0.537   0.759 -0.1828 -0.0471 -0.0801
  284SOL    HW110441   2.915   0.547   0.747 -0.3311 -1.6613 -0.3803
  284SOL    HW210442   3.035   0.534   0.857 -0.4183  0.5061 -0.0156
  285SOL     OW10443   3.054  10.061   2.389  0.0325  0.1768 -0.0608
  285SOL    HW110444   3.089  10.098   2.476 -1.3505 -0.4603  0.7758
  285SOL    HW210445   3.130  10.023   2.336  0.6564 -0.9889  1.6350
  286SOL     OW10446   3.212   0.905   1.770  0.4443  0.4838 -0.1062
  286SOL    HW110447   3.198   0.889   1.868  0.6439 -2.1380 -0.4635
  286SOL    HW210448   3.129   0.944   1.730  0.4549  1.8171  1.1372
  287SOL     OW10449   3.218   2.390   0.888 -0.4394  0.5257 -0.0177
  287SOL    HW110450   3.271   2.406   0.805 -0.3949 -0.2832 -0.1490
  287SOL    HW210451   3.127   2.431   0.878 -0.4712  0.3377 -0.5013
  288SOL     OW10452   2.840   9.635   0.615  0.5133  0.3495  0.0371
  288SOL    HW110453   2.903   9.701   0.574 -0.4662  2.6555  2.0891
  288SOL    HW210454   2.751   9.641   0.569  1.3198 -1.8689 -1.8924
  289SOL     OW10455   2.421   9.401   1.812  0.0188 -0.6010  0.4725
  289SOL    HW110456   2.377   9.323   1.768  0.9475  0.0289 -1.6437
  289SOL    HW210457   2.518   9.380   1.827 -0.3376 -0.9061  2.5014
  290SOL     OW10458   3.429  10.178   2.341  0.4285 -0.4371  0.3183
  290SOL    HW110459   3.430  10.127   2.427  0.1721 -2.5158 -0.8746
  290SOL    HW210460   3.340  10.224   2.330 -0.3164 -1.8723  0.2155
  291SOL     OW10461   4.976   1.994   2.123 -0.0760 -0.0251  0.0616
  291SOL    HW110462   4.976   2.091   2.145  0.4168 -0.0364  0.1123
  291SOL    HW210463   5.063   1.969   2.080  0.3695 -0.7501  1.3714
  292SOL     OW10464   3.707   9.479   1.394  0.2649 -0.1450 -0.1476
  292SOL    HW110465   3.731   9.574   1.376  0.6644 -0.2300 -0.0629
  292SOL    HW210466   3.666   9.439   1.312  0.0188  0.1221 -0.1566
  293SOL     OW10467   3.264   1.020   0.466  0.1895  0.0416 -0.3425
  293SOL    HW110468   3.221   1.081   0.400  1.3168 -0.4856 -1.5834
  293SOL    HW210469   3.193   0.975   0.520 -0.7347  0.7299 -0.9618
  294SOL     OW10470   3.796   1.049   0.868 -0.0912  0.5219 -0.1219
  294SOL    HW110471   3.754   1.074   0.781 -0.5482 -0.8283 -0.3074
  294SOL    HW210472   3.745   1.090   0.944  0.2168  1.5711 -0.4801
  295SOL     OW10473   3.794   9.873   0.960 -0.6062 -0.0361  0.1858
  295SOL    HW110474   3.812   9.775   0.974  1.2878  0.4982  1.8266
  295SOL    HW210475   3.826   9.900   0.869  1.8902 -0.3196  0.9267
  296SOL     OW10476   4.670   1.077   1.774 -0.0270  0.2918  0.2666
  296SOL    HW110477   4.715   1.139   1.708  0.4511 -1.5205 -1.1404
  296SOL    HW210478   4.578   1.056   1.742  0.2747 -0.7433  0.0836
  297SOL     OW10479   2.877   2.188   1.362  0.2958 -0.3268 -0.0922
  297SOL    HW110480   2.864   2.091   1.341 -1.2289 -0.1987  0.1900
  297SOL    HW210481   2.791   2.237   1.347  1.2951  1.1573 -1.1176
  298SOL     OW10482   2.961   9.954   1.003 -0.3598 -0.2353 -0.4613
  298SOL    HW110483   2.975   9.918   1.095 -1.2536 -0.1620 -0.2984
  298SOL    HW210484   3.005   9.894   0.936 -0.0166 -0.4745 -0.0146
  299SOL     OW10485   3.700  10.042   1.159  0.7334  0.2842  0.3053
  299SOL    HW110486   3.763   9.991   1.100  0.3084  1.3410 -1.0796
  299SOL    HW210487   3.673   9.984   1.236  0.6774 -1.4115 -0.9580
  300SOL     OW10488   2.541   0.721   0.810 -0.2641 -0.5586 -0.0139
  300SOL    HW110489   2.444   0.694   0.806 -0.5064  0.1707  0.6761
  300SOL    HW210490   2.547   0.821   0.817  0.5859 -0.4934 -1.4128
  301SOL     OW10491   4.214   0.822   2.726  0.3457 -0.2193 -0.4125
  301SOL    HW110492   4.245   0.905   2.773  1.0988 -0.8706  0.2456
  301SOL    HW210493   4.281   0.795   2.657  0.1711 -0.3644 -0.5276
  302SOL     OW10494   3.794   0.591   2.348 -0.9795 -0.2071  0.6157
  302SOL    HW110495   3.844   0.537   2.416 -0.1346 -1.6925 -1.1641
  302SOL    HW210496   3.723   0.534   2.306 -0.0973  0.0629 -1.2568
  303SOL     OW10497   2.398   9.640   0.808  0.4691  0.3613  0.3931
  303SOL    HW110498   2.440   9.719   0.853  1.6478  0.1551 -0.3449
  303SOL    HW210499   2.443   9.556   0.839  0.5375  0.1323 -0.3150
  304SOL     OW10500   3.195   1.179   2.031 -0.0291 -0.0213 -0.4941
  304SOL    HW110501   3.133   1.232   1.973 -1.9292 -1.6258  0.0256
  304SOL    HW210502   3.160   1.177   2.125  1.0367 -0.5794 -0.1039
  305SOL     OW10503   2.272  10.096   0.927  0.3878  0.5543 -0.1555
  305SOL    HW110504   2.216  10.037   0.868  1.1604 -0.4394  0.0792
  305SOL    HW210505   2.324  10.160   0.871 -1.9110  2.3328 -0.3077
  306SOL     OW10506   3.560   0.443   2.240 -0.1873  0.6124  0.1961
  306SOL    HW110507   3.508   0.528   2.227 -0.2976  0.4022 -0.7066
  306SOL    HW210508   3.510   0.384   2.303 -1.2747  0.2204 -1.0136
  307SOL     OW10509   2.109   0.316   0.853  0.9000  0.3923 -0.3619
  307SOL    HW110510   2.160   0.277   0.930  0.2115 -0.5432 -0.3660
  307SOL    HW210511   2.097   0.414   0.867  0.1798  0.1162  1.0741
  308SOL     OW10512   2.862   0.408   0.517 -0.2084  0.1849 -0.4075
  308SOL    HW110513   2.923   0.374   0.589 -1.1320 -0.6353 -0.0033
  308SOL    HW210514   2.905   0.394   0.428  1.5369  2.4347  0.0386
  309SOL     OW10515   2.794   9.882   2.179  0.0788 -0.0134 -0.2727
  309SOL    HW110516   2.821   9.970   2.218  1.9937  0.0458 -1.6551
  309SOL    HW210517   2.876   9.828   2.160 -0.9371 -0.9245 -2.1614
  310SOL     OW10518   2.263   9.931   0.215  0.2386  0.5535 -0.2193
  310SOL    HW110519   2.335   9.895   0.156 -1.6162 -0.7167 -1.8102
  310SOL    HW210520   2.183   9.955   0.159 -1.2955  0.0563  1.6863
  311SOL     OW10521   4.035   1.761   1.253 -0.8222 -0.1168  0.3444
  311SOL    HW110522   4.008   1.725   1.343  1.7413 -1.5534  0.6036
  311SOL    HW210523   4.030   1.687   1.185 -0.4659  0.3629 -0.2010
  312SOL     OW10524   3.209   0.477   1.648  0.1207 -0.1175 -0.2833
  312SOL    HW110525   3.291   0.513   1.603 -1.2008  0.8473 -1.9861
  312SOL    HW210526   3.153   0.428   1.581 -0.8660 -0.4579  0.7834
  313SOL     OW10527   3.391   1.205   0.633 -0.0041 -0.5199 -0.4000
  313SOL    HW110528   3.360   1.294   0.599  0.8459  0.1251  0.4813
  313SOL    HW210529   3.348   1.132   0.579 -0.6497  0.4170 -1.1802
  314SOL     OW10530   2.483   0.425   1.299 -0.6912  0.2118  0.1426
  314SOL    HW110531   2.439   0.345   1.258 -1.1931  1.5157 -1.9311
  314SOL    HW210532   2.582   0.420   1.285 -0.5901 -0.6243  1.0850
  315SOL     OW10533   3.855   9.666   1.743 -0.3533  0.3407 -0.1533
  315SOL    HW110534   3.902   9.618   1.669 -1.8914 -0.5462 -0.5714
  315SOL    HW210535   3.907   9.656   1.828  1.3226  1.2031 -1.0627
  316SOL     OW10536   2.180  10.008   2.688  0.0716  0.0638 -0.2010
  316SOL    HW110537   2.231   9.957   2.618 -0.0508  0.9692 -0.9579
  316SOL    HW210538   2.132  10.084   2.645 -0.1407  0.5291  0.8538
  317SOL     OW10539   4.399   1.751   1.827 -0.6225 -0.3307 -0.3872
  317SOL    HW110540   4.392   1.837   1.775  1.9078  1.3634  1.9229
  317SOL    HW210541   4.320   1.743   1.888 -0.9032  0.3454 -0.6534
  318SOL     OW10542   3.996   2.136   1.429 -1.0625  0.0156 -0.1116
  318SOL    HW110543   4.021   2.196   1.505  0.7492  0.0035 -0.6848
  318SOL    HW210544   3.899   2.149   1.407 -1.7560 -0.3896  2.5510
  319SOL     OW10545   2.638  10.117   0.992  0.3117  0.8171  0.2070
  319SOL    HW110546   2.629  10.023   0.961  1.6300  0.8457 -0.2805
  319SOL    HW210547   2.652  10.119   1.091  0.4690  0.5011  0.1890
  320SOL     OW10548   2.024   9.733   2.079 -0.5480 -0.0585  0.2582
  320SOL    HW110549   1.949   9.670   2.098  0.7833 -1.5815  0.5297
  320SOL    HW210550   2.002   9.823   2.118 -1.3763 -1.0064  2.0327
  321SOL     OW10551   2.275   9.623   0.303 -0.5907 -0.5533 -0.3773
  321SOL    HW110552   2.284   9.625   0.403 -1.4055  0.0715 -0.3075
  321SOL    HW210553   2.245   9.713   0.271  0.3885 -0.5353 -1.2577
  322SOL     OW10554   3.237   9.942   2.228  0.0746 -0.0536 -0.0074
  322SOL    HW110555   3.308   9.889   2.274  1.3951  2.0131  0.4195
  322SOL    HW210556   3.239   9.923   2.130  0.7974 -0.4967  0.0906
  323SOL     OW10557   3.063   9.425   0.909  0.0115  0.4069 -0.0637
  323SOL    HW110558   3.122   9.390   0.981  0.0676  1.6773  0.5076
  323SOL    HW210559   3.118   9.448   0.829  0.2301  1.0650  0.2720
  324SOL     OW10560   3.537   0.397   2.707  0.1997 -0.2764 -0.2163
  324SOL    HW110561   3.624   0.381   2.660  0.2270 -3.4718  0.8075
  324SOL    HW210562   3.462   0.370   2.647  0.1316 -2.0142  0.6385
  325SOL     OW10563   3.954   9.705   2.143  0.1837 -0.2477 -0.2051
  325SOL    HW110564   3.959   9.609   2.171 -0.8361 -0.8405 -1.9400
  325SOL    HW210565   3.940   9.763   2.223  1.8794 -1.4288  0.9955
  326SOL     OW10566   2.307   1.137   1.187  0.7260 -0.1421 -0.0161
  326SOL    HW110567   2.259   1.067   1.134  0.2824 -0.1274  0.3595
  326SOL    HW210568   2.262   1.147   1.276  1.7133 -0.4677  0.5253
  327SOL     OW10569   2.650   9.612   2.345 -0.8266 -0.3978 -0.2304
  327SOL    HW110570   2.623   9.641   2.253 -0.8913 -0.8159 -0.3489
  327SOL    HW210571   2.672   9.692   2.400 -0.2569 -0.1741 -0.7772
  328SOL     OW10572   3.933   2.678   1.325  0.1944  0.1222  0.2463
  328SOL    HW110573   3.870   2.708   1.396 -0.4076 -1.1838  0.2716
  328SOL    HW210574   3.892   2.695   1.235 -0.0788 -0.4645  0.2579
  329SOL     OW10575   2.494   1.187   1.975  0.3090 -0.0480 -0.2689
  329SOL    HW110576   2.585   1.220   2.001  0.2033  0.2067 -0.2193
  329SOL    HW210577   2.489   1.179   1.876  0.1875  0.5218 -0.3107
  330SOL     OW10578   2.261   9.950   0.489 -0.1305 -0.6272 -0.2889
  330SOL    HW110579   2.351   9.990   0.505  1.0784 -2.8370 -1.2818
  330SOL    HW210580   2.240   9.954   0.391 -1.1161 -0.1700 -0.0716
  331SOL     OW10581   2.445   1.441   0.335 -0.4345  0.5325 -0.1362
  331SOL    HW110582   2.534   1.396   0.340  0.0244  1.1345 -2.2499
  331SOL    HW210583   2.455   1.537   0.361 -0.1631  0.9651 -1.8002
  332SOL     OW10584   2.635   9.965   0.057 -0.1779 -0.0899 -0.2419
  332SOL    HW110585   2.558   9.902   0.054 -0.2832  0.0588 -0.7245
  332SOL    HW210586   2.713   9.926   0.009 -0.2203  0.1120 -0.4788
  333SOL     OW10587   3.429   0.230   1.452 -0.3168 -0.4721 -0.1636
  333SOL    HW110588   3.381   0.163   1.395 -0.6316 -1.0417  0.7575
  333SOL    HW210589   3.387   0.320   1.440 -0.9790 -0.7743 -0.1327
  334SOL     OW10590   3.504   8.929   0.656  0.3259  0.0069  0.4404
  334SOL    HW110591   3.422   8.951   0.709 -0.1446  0.6608 -0.5617
  334SOL    HW210592   3.486   8.942   0.559  0.9554 -1.9088  0.0399
  335SOL     OW10593   2.352  10.164   1.195 -0.0237 -0.5164  0.0869
  335SOL    HW110594   2.377  10.068   1.209 -0.2462 -0.5728  0.0992
  335SOL    HW210595   2.314  10.175   1.103 -0.7166 -0.5859  0.3691
  336SOL     OW10596   3.089   9.486   2.649  0.2416  0.0506  0.3284
  336SOL    HW110597   3.086   9.461   2.553  0.0159  1.5532 -0.0728
  336SOL    HW210598   3.181   9.471   2.685  0.8023  1.2033 -0.6096
  337SOL     OW10599   3.660   2.216   2.780 -0.0889 -0.0772  0.3064
  337SOL    HW110600   3.572   2.251   2.748 -1.2612 -2.8447  0.4316
  337SOL    HW210601   3.725   2.214   2.704  0.0694  2.4065  0.3135
  338SOL     OW10602   2.555   0.824   0.052  0.3749 -0.1138 -0.4768
  338SOL    HW110603   2.623   0.851   0.120  0.9046 -1.2967 -0.5116
  338SOL    HW210604   2.540   0.725   0.058 -2.4964  0.3293  0.5876
  339SOL     OW10605   3.042   2.047   1.536 -0.1114 -0.0139 -0.3451
  339SOL    HW110606   2.987   2.118   1.491 -1.3727  0.4878  1.8915
  339SOL    HW210607   3.099   2.089   1.606  0.7468 -0.9692 -0.4604
  340SOL     OW10608   2.293   1.525   1.487 -0.2660 -0.1468 -0.9141
  340SOL    HW110609   2.382   1.568   1.502 -0.3973 -0.0184 -0.5060
  340SOL    HW210610   2.221   1.595   1.487 -0.8138 -0.6172  2.5282
  341SOL     OW10611   2.613   0.778   2.415  0.1278  0.7070 -0.0825
  341SOL    HW110612   2.616   0.812   2.321  0.2252  2.0521  0.4059
  341SOL    HW210613   2.544   0.829   2.467 -1.6071 -1.6039 -0.0313
  342SOL     OW10614   2.405   1.419   0.066  0.2275  0.3675  0.5611
  342SOL    HW110615   2.410   1.449   0.161  1.9893  1.1395  0.2414
  342SOL    HW210616   2.418   1.320   0.061  1.6358  0.5262  0.9934
  343SOL     OW10617   2.839   9.574   0.869  0.1841  0.1594 -0.2043
  343SOL    HW110618   2.845   9.614   0.777 -1.3965 -0.5985 -0.6565
  343SOL    HW210619   2.926   9.531   0.892  0.0986 -1.0570 -2.0246
  344SOL     OW10620   3.255   2.190   2.719  0.2218 -0.3013 -0.1516
  344SOL    HW110621   3.297   2.262   2.664  0.6001 -0.4414 -0.0485
  344SOL    HW210622   3.254   2.105   2.668  1.9373 -0.7999  0.6009
  345SOL     OW10623   3.133   0.599   0.181 -0.2536 -0.4537  0.2784
  345SOL    HW110624   3.116   0.682   0.127  0.6673  1.1740  2.4023
  345SOL    HW210625   3.217   0.556   0.150  0.5983  0.8116  0.7735
  346SOL     OW10626   4.225   0.514   0.646  0.1678 -0.6319  0.0416
  346SOL    HW110627   4.229   0.414   0.639 -1.4197 -0.9312  2.7797
  346SOL    HW210628   4.134   0.541   0.677  1.1187  1.5682  0.9811
  347SOL     OW10629   2.563   1.622   1.460 -0.3980 -0.1122 -0.7387
  347SOL    HW110630   2.638   1.676   1.498  0.3328 -0.3922 -1.7802
  347SOL    HW210631   2.563   1.629   1.360  0.6980 -3.2884 -1.0205
  348SOL     OW10632   3.239   1.701   0.474 -0.1886  0.3119  0.0603
  348SOL    HW110633   3.281   1.733   0.390  1.4999 -0.2402  0.6655
  348SOL    HW210634   3.277   1.750   0.552 -0.6004 -0.2574  0.6343
  349SOL     OW10635   3.239   1.888   1.351  0.5161  0.6893 -0.1537
  349SOL    HW110636   3.166   1.945   1.387 -1.4428 -1.0431 -1.3036
  349SOL    HW210637   3.284   1.840   1.426 -1.5626 -0.5814  0.3181
  350SOL     OW10638   2.553   9.383   0.567 -0.2851 -0.4442  0.0569
  350SOL    HW110639   2.566   9.475   0.530 -2.0393 -0.2834 -0.1786
  350SOL    HW210640   2.515   9.323   0.496 -1.8094 -0.6329  1.0113
  351SOL     OW10641   4.131   9.496   1.684 -0.0888  0.3284 -0.7044
  351SOL    HW110642   4.189   9.461   1.610  0.3377 -0.4624 -0.0035
  351SOL    HW210643   4.173   9.577   1.724  0.1315  0.2196 -0.7188
  352SOL     OW10644   3.305   2.289   1.136  0.1279  0.0521 -0.5275
  352SOL    HW110645   3.393   2.326   1.165 -0.8486  1.0355  1.2906
  352SOL    HW210646   3.278   2.329   1.049  0.2887  1.6839  0.1603
  353SOL     OW10647   3.251   2.317   0.207 -0.0733 -0.8514  0.0970
  353SOL    HW110648   3.255   2.308   0.107 -0.8107  0.1984 -0.0366
  353SOL    HW210649   3.164   2.279   0.240 -0.6809  0.5235  0.1228
  354SOL     OW10650   3.836   9.772   0.530 -0.8675 -0.4377 -0.0206
  354SOL    HW110651   3.742   9.772   0.498 -0.7905  0.5225 -0.2713
  354SOL    HW210652   3.898   9.761   0.452 -0.7023  1.2093 -0.1291
  355SOL     OW10653   2.423   1.309   1.407 -0.5160  0.1074 -0.0837
  355SOL    HW110654   2.393   1.281   1.316  0.2599 -0.4910 -0.1550
  355SOL    HW210655   2.358   1.376   1.444 -0.8635  0.3127 -1.0478
  356SOL     OW10656   2.881   0.429   1.011 -0.1830 -0.6312  0.3026
  356SOL    HW110657   2.976   0.459   1.021 -0.3931  0.4975 -0.9445
  356SOL    HW210658   2.841   0.471   0.930 -1.1717 -2.6049 -0.2667
  357SOL     OW10659   2.731   1.063   2.668 -0.0598 -0.5586 -0.5265
  357SOL    HW110660   2.766   1.056   2.575 -0.0705 -2.0873 -0.4431
  357SOL    HW210661   2.632   1.046   2.668 -0.6951  2.7824 -0.6425
  358SOL     OW10662   2.370   9.698   0.552  0.0273  0.1559 -0.3193
  358SOL    HW110663   2.371   9.671   0.648 -1.8694  0.2022 -0.2655
  358SOL    HW210664   2.341   9.794   0.545 -0.2797  0.0190 -0.9678
  359SOL     OW10665   3.243   0.562   0.608 -0.0750 -0.0326  0.5047
  359SOL    HW110666   3.257   0.658   0.585 -1.1383 -0.2844 -1.2278
  359SOL    HW210667   3.155   0.551   0.654  0.7516  0.0297  2.1685
  360SOL     OW10668   3.479   9.764   2.035  0.0006  0.0028 -0.0893
  360SOL    HW110669   3.523   9.842   2.078  0.7414 -1.2380  1.4712
  360SOL    HW210670   3.383   9.785   2.018 -0.1793  0.6971  1.7306
  361SOL     OW10671   2.420   9.613   2.554 -0.8201 -0.4157 -0.2433
  361SOL    HW110672   2.500   9.592   2.499 -0.6524  0.5118 -0.3638
  361SOL    HW210673   2.403   9.539   2.618 -0.2020 -0.8723 -0.6033
  362SOL     OW10674   4.648   1.300   1.306  0.1781 -0.5406 -0.6298
  362SOL    HW110675   4.657   1.316   1.404  0.6543  0.6456 -0.8641
  362SOL    HW210676   4.634   1.202   1.290  3.4542 -1.2329  0.3921
  363SOL     OW10677   3.383   9.721   0.400  0.7803  0.0432  0.2873
  363SOL    HW110678   3.331   9.730   0.484  0.1749 -0.0240 -0.0817
  363SOL    HW210679   3.322   9.696   0.325  1.2268  0.6690 -0.2893
  364SOL     OW10680   4.288   2.412   1.671 -0.0253  0.2082  0.5426
  364SOL    HW110681   4.298   2.496   1.617 -0.2208  0.9617  1.6448
  364SOL    HW210682   4.206   2.364   1.643 -0.9781  1.4016  1.2164
  365SOL     OW10683   3.367   1.778   0.250 -0.4118 -0.6989  0.3844
  365SOL    HW110684   3.365   1.878   0.241  1.3686 -0.5362  1.5600
  365SOL    HW210685   3.398   1.738   0.165  1.2710 -0.0847  0.6863
  366SOL     OW10686   3.231   2.086   0.980 -0.4666 -0.5708 -0.7099
  366SOL    HW110687   3.233   2.147   1.059  0.5560 -1.0420 -0.3624
  366SOL    HW210688   3.299   2.013   0.992 -0.8855 -1.1244 -1.6375
  367SOL     OW10689   2.282   1.453   2.254 -0.7653 -0.1499 -0.7528
  367SOL    HW110690   2.312   1.549   2.250 -2.6339  0.5464  0.6956
  367SOL    HW210691   2.280   1.415   2.162  1.1671  0.8218 -1.2203
  368SOL     OW10692   3.960   0.512   2.556 -0.2039 -0.2010 -0.5459
  368SOL    HW110693   4.038   0.538   2.498  0.5114  0.1345  0.5425
  368SOL    HW210694   3.968   0.558   2.644 -0.5070 -1.8101  0.3415
  369SOL     OW10695   3.955   0.816   2.425  0.0855  0.1187  0.0390
  369SOL    HW110696   3.904   0.872   2.491 -0.2548 -0.7528  0.5293
  369SOL    HW210697   3.908   0.728   2.413  0.8403 -0.2239 -0.4035
  370SOL     OW10698   3.375   1.876   1.115  0.3553  0.1776  0.2510
  370SOL    HW110699   3.317   1.896   1.194 -0.0497 -0.1464  0.0372
  370SOL    HW210700   3.403   1.780   1.118 -0.6631 -0.1487 -0.6525
  10.00000  10.00000   2.87800
