chitosan Film  in water:acetic acid 2%
10309
    1CHTO  H203    1   3.948   5.347   0.475  0.2124  0.2890 -2.0852
    1CHTO   O82    2   4.034   5.311   0.479  0.0682  0.0695 -0.2993
    1CHTO  C123    3   4.130   5.366   0.573  0.1989 -0.4594  0.2230
    1CHTO  H227    4   4.103   5.355   0.679  1.4010  0.5695  0.6549
    1CHTO   O77    5   4.249   5.278   0.549 -0.3019 -0.3352 -0.5275
    1CHTO  C118    6   4.359   5.307   0.644  0.3685 -0.0218 -0.0048
    1CHTO  H222    7   4.326   5.300   0.748 -2.8069  0.4238 -0.9294
    1CHTO  C125    8   4.451   5.183   0.606 -0.0317  0.5734 -0.2389
    1CHTO   O84    9   4.550   5.163   0.708  0.2537  0.3009  0.3050
    1CHTO  H205   10   4.581   5.075   0.696 -2.6201 -0.6800 -0.2313
    1CHTO  C114   11   4.415   5.446   0.614  0.4696  0.9850 -0.0782
    1CHTO  H218   12   4.451   5.455   0.511 -0.3975  1.7432 -0.3252
    1CHTO  C116   13   4.299   5.544   0.635  0.5161 -0.3526 -0.4360
    1CHTO  H220   14   4.268   5.550   0.741 -0.0898 -0.2970 -0.6182
    1CHTO   O79   15   4.360   5.670   0.593 -0.7189  0.2825 -0.4147
    1CHTO  H201   16   4.395   5.658   0.507  1.9485  0.4388  0.5981
    1CHTO  C120   17   4.176   5.518   0.543  0.2373  0.0836 -0.0570
    1CHTO  H224   18   4.210   5.533   0.439 -1.2047  0.5240 -0.4691
    1CHTO   N21   19   4.065   5.612   0.566  0.0459  0.0818  0.0465
    1CHTO  H211   20   3.996   5.619   0.482  0.6209  2.4993 -0.2484
    1CHTO  H212   21   4.013   5.577   0.654  1.6416 -1.8769  0.2368
    1CHTO   O75   22   4.529   5.447   0.706  0.1653 -0.7851  0.1689
    1CHTO  C112   23   4.667   5.492   0.637 -0.5336 -0.2573 -0.2802
    1CHTO  H216   24   4.641   5.581   0.578 -3.7989 -2.0676 -1.7034
    1CHTO   O73   25   4.718   5.382   0.556 -0.1600  0.2297 -0.2545
    1CHTO  C113   26   4.833   5.418   0.475  0.1700  0.4296  0.3643
    1CHTO  H217   27   4.809   5.512   0.421 -1.4430  0.0317  0.3560
    1CHTO  C124   28   4.865   5.305   0.370 -0.5806 -0.2808 -0.0284
    1CHTO   O83   29   4.762   5.304   0.269  0.5119 -0.0359  0.4082
    1CHTO  H204   30   4.793   5.347   0.192 -0.1514  1.4988  0.9955
    1CHTO  C109   31   4.945   5.438   0.580  0.2236  0.1802 -0.7532
    1CHTO  H213   32   4.946   5.343   0.634 -1.6744 -0.0953 -1.1558
    1CHTO  C110   33   4.914   5.553   0.678 -0.5304  0.1463 -0.6965
    1CHTO  H214   34   4.920   5.646   0.622 -0.6200  0.6007  0.0410
    1CHTO   O78   35   5.016   5.565   0.780  0.3313 -0.7462 -0.8815
    1CHTO  H200   36   5.098   5.600   0.750  0.1895  0.0584 -0.3647
    1CHTO  C111   37   4.772   5.531   0.743 -0.2503 -0.6368 -0.6083
    1CHTO  H215   38   4.778   5.452   0.819 -2.5881 -0.4690 -0.2056
    1CHTO   N19   39   4.726   5.652   0.812 -0.6046 -0.0105  0.1742
    1CHTO  H207   40   4.801   5.677   0.886  0.6742 -0.9448 -0.7864
    1CHTO  H208   41   4.643   5.630   0.878 -2.3507  2.5481 -1.0824
    1CHTO   O74   42   5.072   5.457   0.508  0.3285 -0.3699 -0.1944
    1CHTO  C115   43   5.201   5.415   0.593  0.8654  1.0812  0.4974
    1CHTO  H219   44   5.216   5.482   0.678 -0.3806  0.1592  1.4741
    1CHTO   O76   45   5.181   5.266   0.668  0.2602  0.0689 -0.2628
    1CHTO  C122   46   5.181   5.155   0.577 -0.3946 -0.0313 -0.0926
    1CHTO  H226   47   5.079   5.138   0.542 -1.1758  2.9507  0.6282
    1CHTO  C126   48   5.221   5.035   0.664 -0.6010 -0.3397  0.1352
    1CHTO   O85   49   5.112   4.984   0.747  0.3371  0.1215 -0.1480
    1CHTO  H206   50   5.104   5.038   0.823  3.9464 -0.1221  0.4724
    1CHTO  C121   51   5.266   5.166   0.446  0.1937  0.4667  0.2752
    1CHTO  H225   52   5.319   5.070   0.431  0.1956  0.7105 -1.3518
    1CHTO   O81   53   5.181   5.195   0.331 -0.1348  0.1604  0.0666
    1CHTO  H202   54   5.211   5.141   0.261  0.0056 -0.4692  0.5972
    1CHTO  C119   55   5.379   5.276   0.464  0.1138  0.2266 -0.0288
    1CHTO  H223   56   5.429   5.250   0.557 -0.5308 -1.1481 -0.0515
    1CHTO  C117   57   5.322   5.415   0.487 -0.5281 -0.5031 -0.5103
    1CHTO  H221   58   5.289   5.459   0.393  1.1883 -0.4861 -1.1211
    1CHTO   N20   59   5.423   5.519   0.531  0.2624 -0.2626 -1.1741
    1CHTO  H209   60   5.510   5.519   0.466  0.2040  0.6227 -1.2569
    1CHTO  H210   61   5.445   5.511   0.636  0.3953 -2.4146 -1.3318
    1CHTO   O80   62   5.484   5.264   0.368  0.3148  0.0777  0.5604
    1CHTO  C103   63   5.639   5.215   0.429  0.0804  0.0865  0.4016
    1CHTO  H190   64   5.680   5.294   0.492 -0.4922  0.1129  0.7482
    1CHTO  C101   65   5.642   5.073   0.495  0.1145 -0.4016  0.2017
    1CHTO  H188   66   5.592   5.006   0.425  1.3783 -2.6094  1.3601
    1CHTO   O68   67   5.571   5.079   0.636  0.7360 -0.0759  0.0434
    1CHTO  H168   68   5.481   5.101   0.626  1.2376  2.5490  0.8869
    1CHTO   C99   69   5.792   5.021   0.509 -0.2864  0.3604 -0.0038
    1CHTO  H186   70   5.844   5.080   0.588  1.2203 -0.2873 -0.4902
    1CHTO   N17   71   5.799   4.877   0.546  0.0248  0.7944 -0.1932
    1CHTO  H174   72   5.748   4.855   0.639  0.3950  0.9142  0.0388
    1CHTO  H175   73   5.898   4.836   0.561 -0.8366 -0.4437  2.4069
    1CHTO   C97   74   5.870   5.049   0.377  0.6034 -0.5101 -0.4757
    1CHTO  H184   75   5.840   4.980   0.297  0.6732 -1.0042 -0.0783
    1CHTO   O64   76   5.862   5.182   0.335  0.4672 -0.8026  0.0645
    1CHTO  C104   77   5.727   5.210   0.296 -0.6610  0.9190 -0.5665
    1CHTO  H191   78   5.686   5.136   0.228 -1.2187  1.2016 -0.5388
    1CHTO  C108   79   5.725   5.347   0.225 -0.8289  0.5820  0.3382
    1CHTO   O71   80   5.814   5.344   0.106  1.2882 -0.1854  0.1096
    1CHTO  H171   81   5.905   5.338   0.131  0.8972 -0.1631  1.5763
    1CHTO   O62   82   6.012   5.041   0.410  0.2316  0.0986  0.4368
    1CHTO   C91   83   6.103   5.000   0.309 -0.0454  0.2814  0.5955
    1CHTO  H178   84   6.054   5.024   0.215 -0.0241 -0.0181  0.5056
    1CHTO   C92   85   6.122   4.851   0.319 -0.4922  0.0298 -0.3867
    1CHTO  H179   86   6.152   4.832   0.423  0.7801  0.1951 -0.7207
    1CHTO   O66   87   5.998   4.788   0.289  0.0750 -0.7411  0.2095
    1CHTO  H166   88   6.007   4.700   0.257  0.7489 -0.3038 -0.8510
    1CHTO   C93   89   6.242   4.799   0.227  1.1656  0.0253 -0.3520
    1CHTO  H180   90   6.200   4.838   0.133 -0.3180 -0.6503  0.0193
    1CHTO   N16   91   6.264   4.650   0.239 -0.1914 -0.5035  0.2271
    1CHTO  H172   92   6.264   4.615   0.341 -1.0397 -0.4497  0.2483
    1CHTO  H173   93   6.361   4.627   0.198 -0.2088 -2.3247  1.1633
    1CHTO   C94   94   6.372   4.888   0.266  0.1252 -0.0939 -0.9289
    1CHTO  H181   95   6.394   4.883   0.373 -1.0276  1.3278 -0.6104
    1CHTO   O61   96   6.344   5.025   0.227  0.5519 -1.0211 -0.1241
    1CHTO   C95   97   6.243   5.080   0.309 -0.5132  0.0890  0.5391
    1CHTO  H182   98   6.278   5.098   0.411 -1.0997 -0.9074  0.9151
    1CHTO  C106   99   6.214   5.225   0.261 -0.0756  0.1988 -0.3884
    1CHTO   O69  100   6.198   5.230   0.114 -0.3955 -0.1912 -0.3122
    1CHTO  H169  101   6.212   5.320   0.090 -0.0922  0.0336  0.6888
    1CHTO   O63  102   6.488   4.840   0.182 -0.6477 -0.3385  0.2736
    1CHTO   C96  103   6.628   4.854   0.251 -0.8566  0.1831 -0.0094
    1CHTO  H183  104   6.639   4.955   0.291  0.8322 -0.0851  0.2125
    1CHTO   C98  105   6.755   4.830   0.157 -0.5649 -0.5693 -0.0803
    1CHTO  H185  106   6.755   4.889   0.064 -1.1010 -0.1041  0.2130
    1CHTO   O67  107   6.873   4.874   0.234 -0.0300  0.4897  0.4493
    1CHTO  H167  108   6.953   4.858   0.187 -0.9650 -1.4092 -0.5904
    1CHTO  C102  109   6.769   4.679   0.109  0.0623  0.1888  0.4179
    1CHTO  H189  110   6.871   4.675   0.068 -0.0101  1.2315  0.1287
    1CHTO   N18  111   6.680   4.642  -0.004 -0.1314 -0.0326  0.4791
    1CHTO  H176  112   6.719   4.690  -0.093  0.1909  1.4544  1.4241
    1CHTO  H177  113   6.578   4.671   0.015 -0.2508 -0.9724  1.2881
    1CHTO  C105  114   6.752   4.577   0.228 -0.9017  0.1717 -0.6491
    1CHTO  H192  115   6.735   4.479   0.184 -1.7429  0.7894 -1.7411
    1CHTO   O65  116   6.644   4.614   0.320  0.0843 -0.3368  0.0969
    1CHTO  C100  117   6.630   4.745   0.363 -0.2485  0.2420  0.0855
    1CHTO  H187  118   6.533   4.736   0.415  0.5211 -1.0229  1.3691
    1CHTO  C107  119   6.733   4.774   0.473  0.3288  0.3142 -0.0218
    1CHTO   O70  120   6.719   4.684   0.583  0.3062  0.5366 -0.2256
    1CHTO  H170  121   6.635   4.700   0.623  0.2520 -2.0355  0.7662
    1CHTO   O57  122   6.900   4.581   0.301 -0.4697  0.1767 -0.3961
    1CHTO   C85  123   7.000   4.486   0.260  0.3039 -0.5450  0.2513
    1CHTO  H157  124   6.986   4.441   0.160 -1.2893  2.4675 -0.9313
    1CHTO   C83  125   6.980   4.360   0.355  0.4734  0.1826 -0.5926
    1CHTO  H155  126   6.879   4.321   0.350  0.8270 -0.6425 -1.6666
    1CHTO   O56  127   7.001   4.391   0.492  0.4835  0.4330  0.1291
    1CHTO  H135  128   6.933   4.451   0.516  0.5111 -0.5737  2.8847
    1CHTO   C81  129   7.077   4.255   0.296 -0.1537  1.0518 -0.1869
    1CHTO  H153  130   7.049   4.248   0.191 -2.0426  0.0431  0.3524
    1CHTO   N14  131   7.047   4.123   0.346  0.1535  0.1130  0.0746
    1CHTO  H141  132   7.141   4.072   0.349  0.4598  0.6441 -0.4390
    1CHTO  H142  133   7.008   4.126   0.446 -0.4159 -0.6354 -0.1221
    1CHTO   C79  134   7.226   4.296   0.312  0.1584 -0.1417  0.1189
    1CHTO  H151  135   7.285   4.211   0.277 -0.2382 -0.7287  0.8714
    1CHTO   O52  136   7.244   4.425   0.242  0.1303 -0.7259 -0.2544
    1CHTO   C86  137   7.148   4.532   0.279  0.1860  0.0766 -0.4212
    1CHTO  H158  138   7.172   4.549   0.386  0.6080 -0.5096 -0.4261
    1CHTO   C90  139   7.173   4.662   0.199  0.6603  0.4582  0.2427
    1CHTO   O60  140   7.169   4.634   0.060 -0.1597  0.1502  0.5328
    1CHTO  H138  141   7.081   4.619   0.032  0.2663 -0.7971 -0.3581
    1CHTO   O50  142   7.266   4.312   0.452  0.3193 -0.2717 -0.6515
    1CHTO   C73  143   7.380   4.282   0.534  0.1967 -0.2011 -0.0383
    1CHTO  H145  144   7.460   4.247   0.466  0.1757 -0.4321  0.0558
    1CHTO   C74  145   7.347   4.177   0.641 -0.3842  0.2311 -0.5637
    1CHTO  H146  146   7.322   4.084   0.587  0.7746 -1.4300  1.6626
    1CHTO   O54  147   7.466   4.147   0.707  0.2212  0.6166 -1.2147
    1CHTO  H133  148   7.491   4.213   0.770 -2.2290  3.1146 -2.7893
    1CHTO   C75  149   7.224   4.223   0.734 -0.7117 -0.6998 -0.0807
    1CHTO  H147  150   7.135   4.245   0.672 -1.5161  0.9364  1.5880
    1CHTO   N13  151   7.175   4.126   0.835 -0.2014  0.0458  0.0349
    1CHTO  H139  152   7.130   4.035   0.797  0.0279  0.1831 -0.5646
    1CHTO  H140  153   7.098   4.170   0.897 -0.6126 -1.1414  0.3862
    1CHTO   C76  154   7.269   4.365   0.802 -0.1741  0.1696  0.2390
    1CHTO  H148  155   7.351   4.344   0.872 -0.1966 -0.5425  0.0555
    1CHTO   O49  156   7.318   4.458   0.696  0.0529  0.3408 -0.0064
    1CHTO   C77  157   7.421   4.409   0.605 -0.1125  0.3155  0.8898
    1CHTO  H149  158   7.515   4.389   0.657 -0.6821 -0.2658  1.7134
    1CHTO   C88  159   7.469   4.522   0.509 -0.2071 -0.6570 -0.8533
    1CHTO   O58  160   7.587   4.608   0.579  0.0296 -0.1544 -0.5815
    1CHTO  H136  161   7.562   4.698   0.586  0.9121 -0.0140  1.0796
    1CHTO   O51  162   7.132   4.425   0.867 -0.6778  0.4312 -0.4209
    1CHTO   C78  163   7.164   4.560   0.928  0.5275  0.3550  0.7373
    1CHTO  H150  164   7.257   4.599   0.883  0.6598  0.9357  1.4892
    1CHTO   C80  165   7.170   4.568   1.082  0.3175 -0.0789  0.5693
    1CHTO  H152  166   7.072   4.538   1.124  0.0405 -0.2865 -0.2209
    1CHTO   O55  167   7.281   4.480   1.119  0.2028  0.5239 -0.5335
    1CHTO  H134  168   7.268   4.464   1.211  2.1412 -0.6109 -0.4176
    1CHTO   C84  169   7.192   4.719   1.128  0.5804  0.2862  0.5698
    1CHTO  H156  170   7.291   4.740   1.088 -0.1419 -0.0080 -1.4632
    1CHTO   N15  171   7.189   4.733   1.275 -0.4264 -0.0681 -0.7625
    1CHTO  H143  172   7.167   4.832   1.308  1.2137  0.5239 -1.3480
    1CHTO  H144  173   7.134   4.659   1.329  0.4104 -0.5813 -0.5917
    1CHTO   C87  174   7.082   4.805   1.063 -0.0453 -0.8747 -0.1394
    1CHTO  H159  175   6.989   4.771   1.108 -0.9839  0.3368 -1.1282
    1CHTO   O53  176   7.088   4.787   0.925  0.0533 -0.2294  0.0838
    1CHTO   C82  177   7.054   4.660   0.879 -0.3421  0.1718 -0.4238
    1CHTO  H154  178   6.955   4.628   0.910 -0.3973  1.1859  0.4698
    1CHTO   C89  179   7.051   4.658   0.726  0.4125 -0.2990  0.3977
    1CHTO   O59  180   6.983   4.778   0.681  0.1438 -0.9123 -0.6620
    1CHTO  H137  181   6.893   4.758   0.664 -0.5233 -0.1562  1.7773
    1CHTO   O45  182   7.115   4.965   1.090  0.0498  0.1225  0.1891
    1CHTO   C67  183   7.025   5.074   1.068  0.0411 -0.1644 -0.2801
    1CHTO  H124  184   7.082   5.167   1.067 -0.0753 -0.0746  0.7405
    1CHTO   C65  185   6.955   5.055   0.928 -0.2746 -0.0413 -0.3980
    1CHTO  H122  186   6.932   4.949   0.917  3.5869 -0.8561 -1.2204
    1CHTO   O44  187   7.050   5.102   0.832 -0.2118  0.0732  0.5744
    1CHTO  H102  188   7.100   5.033   0.793  0.0003 -0.5084  1.8536
    1CHTO   C63  189   6.804   5.112   0.926 -0.6980  0.4206 -0.2382
    1CHTO  H120  190   6.739   5.034   0.965  2.3248 -1.1302  1.8875
    1CHTO   N11  191   6.737   5.139   0.797 -0.3672  0.6607  0.5162
    1CHTO  H108  192   6.781   5.219   0.741  1.7165 -0.8985 -0.1535
    1CHTO  H109  193   6.632   5.154   0.810 -0.6056  1.8802 -2.4384
    1CHTO   C61  194   6.799   5.234   1.018 -0.4856  0.2385 -0.1189
    1CHTO  H118  195   6.694   5.266   1.027 -0.8234 -0.7581 -0.3836
    1CHTO   O40  196   6.842   5.210   1.160  0.5308  0.5623 -0.4640
    1CHTO   C68  197   6.915   5.084   1.179 -1.5090  0.0124 -0.4794
    1CHTO  H125  198   6.842   5.001   1.172 -1.2763 -0.3309  0.9543
    1CHTO   C72  199   6.972   5.078   1.323  0.5320  0.0552  0.1369
    1CHTO   O48  200   7.050   5.194   1.354  0.4423 -0.2228  0.3724
    1CHTO  H105  201   7.057   5.200   1.448 -0.4546  1.5708  0.3412
    1CHTO   O38  202   6.874   5.350   0.979  0.5909 -0.6277 -0.6175
    1CHTO   C55  203   6.827   5.484   1.008 -0.2530 -0.2422  0.1197
    1CHTO  H112  204   6.737   5.481   1.072 -0.3921  0.9045 -0.0175
    1CHTO   C56  205   6.797   5.544   0.855  0.0842  0.6734  0.1247
    1CHTO  H113  206   6.893   5.532   0.803  0.0604  1.5717 -0.1353
    1CHTO   O42  207   6.697   5.457   0.794 -0.1860 -0.3336  0.2982
    1CHTO  H100  208   6.671   5.483   0.708 -0.6665  0.7301  0.7613
    1CHTO   C57  209   6.749   5.698   0.857  0.3935 -0.2840  0.2955
    1CHTO  H114  210   6.647   5.699   0.895  0.1530  0.3112 -0.3572
    1CHTO   N10  211   6.752   5.750   0.720 -0.1669  0.1780  0.7655
    1CHTO  H106  212   6.775   5.855   0.711  1.9913 -0.3254  0.1066
    1CHTO  H107  213   6.828   5.698   0.665 -1.3781  0.3371 -1.1038
    1CHTO   C58  214   6.847   5.769   0.953  0.3871 -0.1050  0.7895
    1CHTO  H115  215   6.944   5.786   0.901 -0.5540  0.9736 -0.6397
    1CHTO   O37  216   6.858   5.702   1.082  0.2333  0.4064 -0.8006
    1CHTO   C59  217   6.924   5.578   1.071  0.2437 -0.1341 -0.6299
    1CHTO  H116  218   7.021   5.578   1.021  0.8289  0.0071  0.4973
    1CHTO   C70  219   6.958   5.512   1.210  0.5400  0.0330  0.0986
    1CHTO   O46  220   7.025   5.604   1.302 -0.5506  0.6057 -0.2305
    1CHTO  H103  221   7.098   5.565   1.346 -0.6578  0.3975 -0.2365
    1CHTO   O39  222   6.774   5.902   0.983  0.4447  0.0530 -0.6798
    1CHTO   C60  223   6.854   5.990   1.061  0.0858  0.0136 -0.4557
    1CHTO  H117  224   6.863   5.947   1.161  0.0778  1.1098  0.0184
    1CHTO   C62  225   7.005   6.011   1.001  0.4229 -0.1551 -0.2453
    1CHTO  H119  226   7.061   5.915   1.007  1.0861  0.1492 -1.3475
    1CHTO   O43  227   6.996   6.049   0.866 -0.4629 -0.0571  0.0121
    1CHTO  H101  228   7.081   6.034   0.830 -0.1912 -0.8404  0.9596
    1CHTO   C66  229   7.076   6.110   1.099  0.3720  0.4857  0.2078
    1CHTO  H123  230   7.055   6.071   1.199  0.1329  1.4837  0.5558
    1CHTO   N12  231   7.223   6.117   1.070  0.0044  0.3702 -0.2993
    1CHTO  H110  232   7.278   6.081   1.156 -0.3114  2.0087  0.6244
    1CHTO  H111  233   7.251   6.058   0.985 -1.2508 -0.5678 -0.0827
    1CHTO   C69  234   7.010   6.246   1.094  0.1416 -0.1735  0.5429
    1CHTO  H126  235   6.993   6.284   0.991  2.9229  0.4814  0.2741
    1CHTO   O41  236   6.863   6.220   1.154  0.2825 -0.1215 -0.5077
    1CHTO   C64  237   6.775   6.129   1.084 -0.1737 -0.0399  0.4108
    1CHTO  H121  238   6.752   6.169   0.983  2.2035  0.8216  0.1870
    1CHTO   C71  239   6.647   6.106   1.163 -0.0097 -0.1140  0.3261
    1CHTO   O47  240   6.580   6.226   1.211  0.9333  0.0340 -0.2472
    1CHTO  H104  241   6.495   6.198   1.239  0.1105 -0.2302 -2.9068
    1CHTO   O34  242   7.095   6.362   1.196  0.0369  0.5892  0.2927
    1CHTO   C49  243   7.097   6.531   1.200  0.0991 -0.1795  0.3246
    1CHTO   H91  244   7.065   6.564   1.102  2.3795  1.4513  0.1018
    1CHTO   C47  245   7.242   6.564   1.232  0.0533 -0.3990 -0.1524
    1CHTO   H89  246   7.298   6.582   1.138 -0.5303 -2.4707 -0.9158
    1CHTO   O33  247   7.303   6.453   1.304 -0.2216  0.8777 -0.3121
    1CHTO   H70  248   7.396   6.463   1.293 -0.2974  2.6313  0.3515
    1CHTO   C45  249   7.253   6.687   1.340  0.0683 -0.0350  0.4227
    1CHTO   H87  250   7.215   6.644   1.434  0.6290 -1.7279 -0.1011
    1CHTO    N8  251   7.391   6.739   1.358 -0.8155  0.0155 -1.0083
    1CHTO   H75  252   7.440   6.769   1.266 -1.4393  1.2757 -0.9381
    1CHTO   H76  253   7.374   6.830   1.413  0.8483  0.1201 -0.6527
    1CHTO   C43  254   7.144   6.800   1.309 -0.1332  0.8417  0.1060
    1CHTO   H85  255   7.150   6.878   1.386 -0.3692  1.4036 -0.4397
    1CHTO   O29  256   7.015   6.742   1.301 -0.1086 -0.8358  0.5929
    1CHTO   C50  257   7.000   6.598   1.301  0.4853 -0.4346  0.3493
    1CHTO   H92  258   7.026   6.559   1.401  2.6012  0.0921  0.0273
    1CHTO   C54  259   6.846   6.566   1.296 -0.2630 -0.1244  0.4323
    1CHTO   O36  260   6.783   6.603   1.420  0.1342 -0.6662 -0.0716
    1CHTO   H72  261   6.693   6.579   1.427 -0.3081  0.9360 -0.0879
    1CHTO   O27  262   7.179   6.866   1.188  0.0807  0.0272  0.1011
    1CHTO   C37  263   7.128   6.990   1.132  0.2317 -0.4248 -0.3340
    1CHTO   H79  264   7.064   7.044   1.203 -0.8677 -3.1939  0.8345
    1CHTO   C38  265   7.242   7.089   1.100 -0.1907  0.1966  0.9708
    1CHTO   H80  266   7.323   7.029   1.057  0.6590  2.0109 -0.0491
    1CHTO   O31  267   7.298   7.148   1.221  0.0420  0.1048  0.8811
    1CHTO   H68  268   7.234   7.163   1.288 -0.6191  0.2927  0.2115
    1CHTO   C39  269   7.208   7.207   1.005  0.2289  0.3307 -0.5324
    1CHTO   H81  270   7.161   7.284   1.065 -0.2454 -0.6246  0.3433
    1CHTO    N7  271   7.327   7.286   0.954  0.3064 -0.2253  0.1102
    1CHTO   H73  272   7.283   7.370   0.903 -0.0114 -0.0773  0.6204
    1CHTO   H74  273   7.396   7.225   0.898  0.1761 -0.7823  0.5451
    1CHTO   C40  274   7.121   7.159   0.883  0.3288  0.5868  0.0006
    1CHTO   H82  275   7.174   7.109   0.802 -2.4170  2.0155 -2.8184
    1CHTO   O26  276   7.016   7.081   0.935 -0.1026  0.2514  0.3102
    1CHTO   C41  277   7.045   6.960   1.001  0.3575  0.3094 -1.1646
    1CHTO   H83  278   7.106   6.896   0.936 -0.6881 -2.3777  0.4027
    1CHTO   C52  279   6.914   6.890   1.041 -0.0702 -0.1054  0.2274
    1CHTO   O35  280   6.820   6.985   1.130  0.2397  0.0979 -0.2364
    1CHTO   H71  281   6.761   6.935   1.182  0.0320  0.6241  0.0355
    1CHTO   O28  282   7.048   7.265   0.813 -0.0606 -0.3852 -0.2913
    1CHTO   C42  283   7.019   7.258   0.675 -0.4838  0.5626 -0.1985
    1CHTO   H84  284   7.037   7.157   0.637  0.6781  0.7615 -0.2212
    1CHTO   C44  285   7.097   7.359   0.585 -0.1479  0.2500  0.0082
    1CHTO   H86  286   7.078   7.460   0.620 -0.8372 -0.0818  0.6018
    1CHTO   O32  287   7.237   7.326   0.601  0.4808 -0.7191  0.3860
    1CHTO   H69  288   7.284   7.403   0.628  1.5371 -1.0195 -0.5488
    1CHTO   C48  289   7.058   7.349   0.429 -0.2289 -0.0765  0.1128
    1CHTO   H90  290   7.101   7.253   0.400  1.3811 -0.0578  2.3346
    1CHTO    N9  291   7.126   7.457   0.347  0.1500  0.0771  0.1141
    1CHTO   H77  292   7.226   7.430   0.318 -0.6656 -0.8822 -1.8664
    1CHTO   H78  293   7.132   7.548   0.405  0.8339  0.0267  0.1240
    1CHTO   C51  294   6.900   7.338   0.402 -0.1346  0.2255 -0.2615
    1CHTO   H93  295   6.859   7.438   0.393 -0.9334  0.0580  1.2569
    1CHTO   O30  296   6.831   7.266   0.509  0.1690  0.8360  0.2601
    1CHTO   C46  297   6.868   7.292   0.652  0.0131  0.2773 -0.3783
    1CHTO   H88  298   6.850   7.397   0.676 -1.1414  0.0638 -0.3029
    1CHTO   C53  299   6.789   7.208   0.745 -0.2206  0.6158 -0.5474
    1CHTO   O72  300   6.647   7.226   0.748 -0.2974  0.6408  0.7365
    1CHTO  H199  301   6.633   7.305   0.798  1.4131  0.2169  1.9391
    1CHTO   O22  302   6.867   7.273   0.277  0.9858 -0.4418  0.0977
    1CHTO   C31  303   6.788   7.329   0.165  0.8349 -0.0275 -0.9778
    1CHTO   H59  304   6.764   7.433   0.196 -0.3336 -0.5891  0.0574
    1CHTO   C29  305   6.866   7.337   0.032  0.5796 -0.5183  0.5805
    1CHTO   H57  306   6.913   7.239   0.016  0.4085 -0.4532 -0.3350
    1CHTO   O21  307   6.979   7.429   0.060  0.1927 -0.1169 -0.0925
    1CHTO   H37  308   7.019   7.443  -0.024 -2.6175  0.5410 -1.3948
    1CHTO   C27  309   6.773   7.375  -0.091 -0.7203 -0.2609 -0.1483
    1CHTO   H55  310   6.737   7.478  -0.074 -0.4660 -0.4227  1.5106
    1CHTO    N5  311   6.844   7.372  -0.219  0.4020 -0.0211  0.1136
    1CHTO   H43  312   6.787   7.420  -0.296 -2.7490 -2.1381  1.0226
    1CHTO   H44  313   6.875   7.270  -0.241 -0.8406 -0.9741  2.5989
    1CHTO   C25  314   6.645   7.281  -0.085  0.6581  0.6262 -0.3314
    1CHTO   H53  315   6.676   7.176  -0.087  1.8736  0.9525  1.3108
    1CHTO   O17  316   6.581   7.304   0.041  0.2800  0.3129  0.3261
    1CHTO   C32  317   6.653   7.255   0.150 -0.3053  0.5233 -0.2909
    1CHTO   H60  318   6.674   7.150   0.131  1.5573  0.8396 -0.0538
    1CHTO   C36  319   6.562   7.266   0.279 -0.4753  0.0057  0.6858
    1CHTO   O25  320   6.479   7.153   0.291  0.1816 -0.3994 -0.0842
    1CHTO   H40  321   6.540   7.084   0.308  2.2328  0.6535 -2.7278
    1CHTO   O15  322   6.554   7.309  -0.180 -0.3191 -0.3989 -0.1767
    1CHTO   C19  323   6.476   7.223  -0.274 -0.2865 -0.1953  0.2526
    1CHTO   H47  324   6.404   7.296  -0.313 -0.1025  1.2253  2.4852
    1CHTO   C20  325   6.561   7.160  -0.389 -0.0503 -0.3020  0.2919
    1CHTO   H48  326   6.649   7.108  -0.349  0.8952  0.5003 -0.7221
    1CHTO   O19  327   6.613   7.272  -0.466  0.0444 -0.4972 -0.2290
    1CHTO   H35  328   6.542   7.312  -0.513 -1.1249 -1.0185  1.0913
    1CHTO   C21  329   6.484   7.061  -0.483  0.4018 -0.5274 -0.3358
    1CHTO   H49  330   6.407   7.118  -0.535  0.4892 -0.1760 -0.0801
    1CHTO    N4  331   6.575   6.985  -0.575  0.6564 -0.0919 -0.1817
    1CHTO   H41  332   6.676   6.989  -0.538 -0.1955 -0.5034  2.2765
    1CHTO   H42  333   6.543   6.883  -0.587  1.0351 -0.2140 -0.1533
    1CHTO   C22  334   6.394   6.961  -0.407  0.1732  0.2121  0.3441
    1CHTO   H50  335   6.462   6.888  -0.363  2.3277  0.1485 -2.9173
    1CHTO   O14  336   6.312   7.032  -0.306  0.0952 -0.0939 -0.6128
    1CHTO   C23  337   6.391   7.106  -0.210  0.0155  0.0567  0.1287
    1CHTO   H51  338   6.456   7.027  -0.170  0.4115  0.4051  0.1758
    1CHTO   C34  339   6.311   7.169  -0.095  0.0921 -0.5604  0.3043
    1CHTO   O23  340   6.284   7.066  -0.000  0.3300  0.0785  0.1671
    1CHTO   H38  341   6.352   7.068   0.064  2.4016 -1.1264 -1.9251
    1CHTO   O16  342   6.294   6.889  -0.491  0.3361  0.2718 -0.1372
    1CHTO   C24  343   6.308   6.723  -0.515 -0.1720 -0.7960  0.0148
    1CHTO   H52  344   6.412   6.694  -0.505  1.4366  2.8508 -4.1139
    1CHTO   C26  345   6.259   6.688  -0.655 -0.0358  0.1962  0.5931
    1CHTO   H54  346   6.155   6.727  -0.668  0.6732  1.6536 -0.9546
    1CHTO   O20  347   6.335   6.765  -0.756 -0.1361 -0.1992  0.3174
    1CHTO   H36  348   6.292   6.751  -0.839 -0.1258  0.7732  0.1506
    1CHTO   C30  349   6.256   6.535  -0.679 -0.0074 -0.4815 -0.1414
    1CHTO   H58  350   6.359   6.500  -0.698 -0.6478 -1.1522 -2.5641
    1CHTO    N6  351   6.173   6.500  -0.801 -0.5836 -0.4028 -0.0799
    1CHTO   H45  352   6.087   6.438  -0.782 -1.3487  0.4587 -0.7041
    1CHTO   H46  353   6.231   6.448  -0.877 -1.2985 -1.5921  0.1736
    1CHTO   C33  354   6.207   6.461  -0.550  0.5827  0.0476 -0.6207
    1CHTO   H61  355   6.097   6.456  -0.549  0.5936  0.0058  0.7432
    1CHTO   O18  356   6.253   6.512  -0.425  0.2840  0.0804 -0.0019
    1CHTO   C28  357   6.222   6.651  -0.403 -0.7547  0.1464 -0.6719
    1CHTO   H56  358   6.115   6.669  -0.410 -1.1993 -1.9990  0.0357
    1CHTO   C35  359   6.276   6.681  -0.256 -0.2579  0.2203 -0.4920
    1CHTO   O24  360   6.216   6.595  -0.165 -0.4431  0.4431 -0.4896
    1CHTO   H39  361   6.124   6.603  -0.148 -0.5003  1.0162 -1.0727
    1CHTO    O9  362   6.242   6.321  -0.564  0.3813 -0.2327  0.1557
    1CHTO   C13  363   6.190   6.241  -0.431 -0.6791 -0.3647  0.1832
    1CHTO   H26  364   6.104   6.297  -0.388  0.9268  1.9919  0.4430
    1CHTO   C11  365   6.315   6.242  -0.327  0.2249  0.4272 -0.2994
    1CHTO   H24  366   6.320   6.341  -0.280 -3.3974  0.8543 -0.6374
    1CHTO    O8  367   6.443   6.212  -0.393 -0.0785  0.0819  0.3330
    1CHTO    H3  368   6.501   6.285  -0.385  0.1196 -0.1533  1.0868
    1CHTO    C9  369   6.284   6.139  -0.212  0.0869 -0.6483  0.5318
    1CHTO   H22  370   6.185   6.171  -0.178  0.8156  2.7222 -0.3357
    1CHTO    N2  371   6.388   6.143  -0.106  0.4743  0.1353  0.0517
    1CHTO   H10  372   6.375   6.074  -0.025  0.3463  1.4008  1.1281
    1CHTO   H11  373   6.410   6.244  -0.073 -0.3846  1.3950 -3.0151
    1CHTO    C7  374   6.268   5.993  -0.266  0.2022  0.4133 -0.0470
    1CHTO   H20  375   6.249   5.931  -0.175  1.1008 -0.3390 -0.3580
    1CHTO    O4  376   6.156   6.000  -0.357  0.0924  0.3887 -0.6476
    1CHTO   C14  377   6.148   6.092  -0.468  0.0028  0.2649  0.2955
    1CHTO   H27  378   6.040   6.089  -0.494  0.2688 -1.0502 -0.7445
    1CHTO   C18  379   6.231   6.020  -0.585  0.6794 -0.1753 -0.3318
    1CHTO   O13  380   6.211   6.082  -0.708 -0.0401 -0.3556  0.1941
    1CHTO    H7  381   6.246   6.169  -0.708  0.9458 -0.7346  1.3924
    1CHTO    O2  382   6.405   5.938  -0.342  0.2928  0.3836  0.2113
    1CHTO    C1  383   6.479   5.845  -0.259  0.0703 -0.0615  0.1126
    1CHTO   H14  384   6.436   5.849  -0.157 -0.6171 -1.6322 -0.0979
    1CHTO    C2  385   6.634   5.878  -0.259 -0.0430  0.5604  0.4889
    1CHTO   H15  386   6.659   5.913  -0.360 -2.7451 -2.5249 -1.3565
    1CHTO    O6  387   6.659   5.980  -0.161  0.4820  0.1961  0.0516
    1CHTO    H1  388   6.595   6.046  -0.176  2.2558  1.7884 -0.7786
    1CHTO    C3  389   6.718   5.751  -0.213  0.3292 -1.1167  0.0625
    1CHTO   H16  390   6.725   5.750  -0.103  1.2248  1.5522  0.0765
    1CHTO    N1  391   6.863   5.766  -0.259 -0.3397 -1.2801 -0.5216
    1CHTO    H8  392   6.896   5.692  -0.331  1.2054 -1.1942  0.0992
    1CHTO    H9  393   6.928   5.764  -0.173  0.4871  2.2644 -1.0009
    1CHTO    C4  394   6.665   5.610  -0.260 -0.0114  0.5871 -0.9027
    1CHTO   H17  395   6.692   5.595  -0.365 -1.7841  1.2262 -1.4614
    1CHTO    O1  396   6.523   5.602  -0.242 -0.1046 -0.3311 -0.2389
    1CHTO    C5  397   6.454   5.703  -0.318  0.0522 -0.6173 -0.3568
    1CHTO   H18  398   6.496   5.700  -0.418 -0.9842  1.5580 -0.8866
    1CHTO   C16  399   6.309   5.668  -0.325 -0.1558 -0.6707 -0.4564
    1CHTO   O11  400   6.284   5.531  -0.360  0.0497  0.1335 -0.1068
    1CHTO    H5  401   6.204   5.520  -0.407 -1.4839 -0.6587  2.5467
    1CHTO    O3  402   6.724   5.505  -0.180 -0.8898 -0.3138 -0.3305
    1CHTO    C6  403   6.690   5.372  -0.224 -0.1292 -0.4977  0.0657
    1CHTO   H19  404   6.597   5.368  -0.282 -0.6060 -0.6787  0.8400
    1CHTO    C8  405   6.808   5.315  -0.309 -0.2263 -0.1916  0.0097
    1CHTO   H21  406   6.903   5.331  -0.258  0.1676 -1.3152 -0.3442
    1CHTO    O7  407   6.811   5.381  -0.433 -0.2433 -0.2663 -0.0267
    1CHTO    H2  408   6.886   5.437  -0.440 -0.2214 -0.4761 -1.5929
    1CHTO   C12  409   6.796   5.161  -0.340  0.6576  0.2886  0.3318
    1CHTO   H25  410   6.700   5.142  -0.390  0.5540 -2.4690  1.4966
    1CHTO    N3  411   6.908   5.097  -0.411  0.3884 -0.7442  0.1777
    1CHTO   H12  412   7.008   5.125  -0.383  0.6272  0.3831 -1.6764
    1CHTO   H13  413   6.895   4.990  -0.414 -1.9534 -0.4964  0.5389
    1CHTO   C15  414   6.773   5.099  -0.195 -0.3156  0.2464  0.0427
    1CHTO   H28  415   6.860   5.113  -0.131 -1.3949  1.0999  1.3514
    1CHTO   O10  416   6.725   4.935  -0.212  0.4796 -0.8735  1.0213
    1CHTO    H4  417   6.779   4.893  -0.275 -0.2615 -1.9322  1.0721
    1CHTO    O5  418   6.657   5.150  -0.128 -0.6126  0.1324 -0.1195
    1CHTO   C10  419   6.666   5.287  -0.098 -0.0038  0.0538 -0.1005
    1CHTO   H23  420   6.756   5.304  -0.039  0.9197 -1.6214 -0.9994
    1CHTO   C17  421   6.544   5.333  -0.019 -0.3563  0.7267  0.3997
    1CHTO   O12  422   6.534   5.287   0.115  0.2564 -0.2143 -0.1847
    1CHTO    H6  423   6.463   5.331   0.158  0.8648  1.9381 -1.3290
    2CHTO  H203  424   4.277   3.641   1.533  1.4047  3.1086  0.3200
    2CHTO   O82  425   4.308   3.628   1.445 -0.7414  0.3563 -0.1170
    2CHTO  C123  426   4.273   3.735   1.352  0.1793  1.0347 -0.0175
    2CHTO  H227  427   4.312   3.702   1.254  0.3818  1.5085 -0.0946
    2CHTO   O77  428   4.127   3.730   1.352 -0.0803 -0.0448 -0.5283
    2CHTO  C118  429   4.079   3.836   1.257 -0.1967  0.2959 -0.0777
    2CHTO  H222  430   4.126   3.849   1.159  0.8259  0.4840  0.4340
    2CHTO  C125  431   3.932   3.802   1.233 -0.1128  0.6228 -0.2409
    2CHTO   O84  432   3.918   3.679   1.159 -0.1890  0.5453  0.0307
    2CHTO  H205  433   3.833   3.642   1.147 -1.0752  1.9032  1.9078
    2CHTO  C114  434   4.101   3.972   1.320  0.7785  0.1390  0.2165
    2CHTO  H218  435   4.061   3.967   1.422  2.7547  2.7179  1.1637
    2CHTO  C116  436   4.256   3.995   1.329  0.1533 -0.7316  0.1611
    2CHTO  H220  437   4.297   4.009   1.227  1.7937  0.9882  1.0431
    2CHTO   O79  438   4.299   4.115   1.395  0.1192 -0.1552 -0.0903
    2CHTO  H201  439   4.280   4.185   1.334  2.8053  1.5356  0.8983
    2CHTO  C120  440   4.329   3.875   1.400  0.0772  0.4235  0.4163
    2CHTO  H224  441   4.304   3.883   1.507  1.3901  0.0819  0.7566
    2CHTO   N21  442   4.477   3.873   1.389  0.2062  0.7520  0.2731
    2CHTO  H211  443   4.507   3.920   1.297  3.0481  3.9365  2.6859
    2CHTO  H212  444   4.512   3.930   1.474 -0.3539  3.1131 -1.0429
    2CHTO   O75  445   4.044   4.080   1.238  0.1324 -0.3561  0.2400
    2CHTO  C112  446   3.931   4.176   1.326  0.1599  0.0725 -0.2232
    2CHTO  H216  447   3.939   4.172   1.436  1.1114 -0.1735 -0.2966
    2CHTO   O73  448   3.804   4.126   1.280 -0.0923  0.1987 -0.0518
    2CHTO  C113  449   3.686   4.211   1.292  0.2834 -0.3370 -1.2031
    2CHTO  H217  450   3.649   4.194   1.396 -0.3630 -1.5202 -1.6084
    2CHTO  C124  451   3.582   4.155   1.198  0.3834  0.1615  0.1023
    2CHTO   O83  452   3.614   4.143   1.061  0.0650  0.5942 -0.2465
    2CHTO  H204  453   3.652   4.218   1.021  1.1963  1.0107  1.5763
    2CHTO  C109  454   3.714   4.362   1.262  0.1956  0.1518  0.5728
    2CHTO  H213  455   3.725   4.375   1.153 -1.3986 -1.8621  0.1464
    2CHTO  C110  456   3.839   4.415   1.322  0.0197  0.2150 -0.5886
    2CHTO  H214  457   3.828   4.413   1.430 -0.6135 -0.3315 -0.6635
    2CHTO   O78  458   3.857   4.550   1.283 -0.6772  0.2900 -0.0370
    2CHTO  H200  459   3.946   4.560   1.257 -0.8601  0.0985 -0.7277
    2CHTO  C111  460   3.961   4.323   1.286  0.4543  0.1164 -0.2844
    2CHTO  H215  461   3.974   4.321   1.177 -2.1104 -1.5756 -0.5732
    2CHTO   N19  462   4.088   4.376   1.339  0.5731  0.7169  0.1872
    2CHTO  H207  463   4.163   4.304   1.313 -0.4229 -0.5602  0.7611
    2CHTO  H208  464   4.081   4.396   1.445  0.7534 -0.0662  0.3472
    2CHTO   O74  465   3.591   4.432   1.308  0.0703  0.4045 -0.2455
    2CHTO  C115  466   3.530   4.505   1.178  0.5102  0.1912  0.2235
    2CHTO  H219  467   3.607   4.541   1.110  0.4338 -1.1718 -0.6106
    2CHTO   O76  468   3.430   4.402   1.093 -0.0403 -0.2908  0.2593
    2CHTO  C122  469   3.369   4.453   0.974 -0.3089 -0.1442 -0.2815
    2CHTO  H226  470   3.294   4.385   0.933  3.0376 -3.1041 -1.7709
    2CHTO  C126  471   3.473   4.458   0.862  0.2175  0.2546 -0.2966
    2CHTO   O85  472   3.519   4.330   0.826  0.7018 -0.4074  0.3771
    2CHTO  H206  473   3.583   4.324   0.757  0.6978 -0.2794  0.3617
    2CHTO  C121  474   3.301   4.589   1.002 -0.0679  0.2031  0.1816
    2CHTO  H225  475   3.284   4.638   0.903 -1.9229  0.4692  0.6009
    2CHTO   O81  476   3.169   4.571   1.056  0.3463 -0.0617  0.0364
    2CHTO  H202  477   3.127   4.654   1.066  0.2059 -0.3457  1.8042
    2CHTO  C119  478   3.392   4.691   1.087 -0.1351 -0.0612 -0.4864
    2CHTO  H223  479   3.477   4.715   1.023  0.3165 -1.1086 -0.2782
    2CHTO  C117  480   3.445   4.626   1.221 -0.1723  0.4242  0.6683
    2CHTO  H221  481   3.367   4.594   1.290  0.4842  0.0921  1.2666
    2CHTO   N20  482   3.527   4.720   1.301 -0.0935  0.3527  0.2255
    2CHTO  H209  483   3.582   4.790   1.239  0.2931  0.2027  0.3939
    2CHTO  H210  484   3.452   4.770   1.360 -1.2915  1.6342 -2.3050
    2CHTO   O80  485   3.326   4.850   1.105 -0.1226  0.4577  0.0242
    2CHTO  C103  486   3.419   4.977   1.093 -0.1794  0.1936 -0.0516
    2CHTO  H190  487   3.482   4.997   1.179  1.3964 -0.0124 -1.1316
    2CHTO  C101  488   3.510   4.982   0.954  0.0009  0.2840 -0.4653
    2CHTO  H188  489   3.453   4.917   0.888 -0.1663 -0.9257  0.8474
    2CHTO   O68  490   3.647   4.915   0.991 -0.1913 -0.0939 -0.1777
    2CHTO  H168  491   3.624   4.826   1.009  0.3569 -0.4213 -1.0810
    2CHTO   C99  492   3.530   5.134   0.905  0.1657  0.7470  0.9955
    2CHTO  H186  493   3.600   5.183   0.976  1.4185 -1.2693  1.1619
    2CHTO   N17  494   3.594   5.150   0.768 -0.0241 -0.0907  0.1526
    2CHTO  H174  495   3.518   5.126   0.695 -0.9750  0.1002  1.0638
    2CHTO  H175  496   3.633   5.250   0.753 -0.2800  0.0641  0.4934
    2CHTO   C97  497   3.394   5.214   0.908 -0.0034  0.2252 -0.2178
    2CHTO  H184  498   3.327   5.154   0.844 -0.9357  3.5116 -2.4170
    2CHTO   O64  499   3.351   5.210   1.049 -0.2040 -0.0454 -0.3426
    2CHTO  C104  500   3.301   5.082   1.089  0.0969 -0.6260  0.4141
    2CHTO  H191  501   3.222   5.057   1.017  0.5730  0.9662 -0.6893
    2CHTO  C108  502   3.231   5.100   1.222  0.0257  0.4795 -0.2623
    2CHTO   O71  503   3.116   5.186   1.223 -0.7219 -0.0916  0.1350
    2CHTO  H171  504   3.140   5.265   1.179 -0.1795 -0.4604 -0.2570
    2CHTO   O62  505   3.388   5.354   0.887 -0.5854  0.5548  0.1735
    2CHTO   C91  506   3.268   5.407   0.833 -0.4014 -0.1021 -0.2645
    2CHTO  H178  507   3.186   5.357   0.884 -1.0425  0.8457 -0.3529
    2CHTO   C92  508   3.244   5.375   0.687  0.1963  0.0843  0.1649
    2CHTO  H179  509   3.332   5.399   0.626  0.0302 -0.2445 -0.2098
    2CHTO   O66  510   3.234   5.226   0.668  0.0120  0.7834 -0.2955
    2CHTO  H166  511   3.263   5.206   0.582  0.4402  1.1654 -0.2433
    2CHTO   C93  512   3.116   5.441   0.627 -0.2900  0.0165 -0.3091
    2CHTO  H180  513   3.027   5.402   0.679  1.2249 -1.3895  1.2855
    2CHTO   N16  514   3.104   5.422   0.479 -0.4202  0.1401 -0.6140
    2CHTO  H172  515   3.112   5.317   0.455 -3.1671 -0.5406  1.3013
    2CHTO  H173  516   3.172   5.478   0.416 -1.7908  1.7925 -0.6365
    2CHTO   C94  517   3.132   5.596   0.657  0.1335 -0.0243 -0.4460
    2CHTO  H181  518   3.215   5.637   0.599 -0.3237  0.7736 -0.5331
    2CHTO   O61  519   3.126   5.613   0.800  0.0750 -0.4995 -0.0511
    2CHTO   C95  520   3.243   5.557   0.871  0.2516 -0.4269  0.4969
    2CHTO  H182  521   3.332   5.612   0.842 -1.7437  3.4249  1.2546
    2CHTO  C106  522   3.237   5.581   1.027 -0.1236 -0.4827 -0.0462
    2CHTO   O69  523   3.358   5.546   1.092  0.5370  0.3360 -0.2505
    2CHTO  H169  524   3.427   5.590   1.044  0.8338  1.2787  1.0018
    2CHTO   O63  525   3.002   5.678   0.609 -0.7211  0.0584 -0.2016
    2CHTO   C96  526   3.044   5.793   0.494  1.7193  0.4360  0.0661
    2CHTO  H183  527   3.119   5.741   0.436  1.9762  0.5842  0.2657
    2CHTO   C98  528   3.107   5.924   0.544 -0.1901 -0.0988 -0.6699
    2CHTO  H185  529   3.046   5.984   0.614  0.1736  0.2825 -0.6756
    2CHTO   O67  530   3.225   5.889   0.620 -0.4605 -0.3047 -0.2097
    2CHTO  H167  531   3.244   5.956   0.683 -3.1529  0.3149  0.0234
    2CHTO  C102  532   3.142   6.031   0.426  0.5884 -1.0589  0.3112
    2CHTO  H189  533   3.220   5.982   0.366 -0.4711  0.1044 -2.0837
    2CHTO   N18  534   3.196   6.162   0.470 -0.0899  0.0669 -0.3310
    2CHTO  H176  535   3.186   6.250   0.408  0.8992 -0.5814 -1.4268
    2CHTO  H177  536   3.172   6.179   0.574 -2.3793  2.0493 -1.1227
    2CHTO  C105  537   3.021   6.051   0.334  0.2372  0.3509 -0.1383
    2CHTO  H192  538   2.943   6.105   0.389  0.6148  1.2253 -0.4468
    2CHTO   O65  539   2.952   5.928   0.304 -0.1429 -0.3517 -0.2376
    2CHTO  C100  540   2.920   5.839   0.415  0.5239 -0.6697  0.2923
    2CHTO  H187  541   2.849   5.890   0.482  0.2673 -0.4030 -0.1819
    2CHTO  C107  542   2.843   5.713   0.369 -0.9868  0.2038  0.4942
    2CHTO   O70  543   2.756   5.753   0.261  0.5534  0.2634  0.2712
    2CHTO  H170  544   2.766   5.709   0.179 -1.6924  2.3859 -1.2120
    2CHTO   O57  545   3.072   6.102   0.188 -0.2406 -0.1369  0.0877
    2CHTO   C85  546   2.989   6.188   0.111  0.3961  0.2669  0.7263
    2CHTO  H157  547   2.935   6.250   0.186 -2.2235 -2.1416  0.9394
    2CHTO   C83  548   2.872   6.106   0.043 -0.1119 -0.4314  0.4921
    2CHTO  H155  549   2.821   6.063   0.130 -1.6570 -2.0145 -1.1676
    2CHTO   O56  550   2.928   5.998  -0.037 -0.3159  0.2439 -0.3941
    2CHTO  H135  551   2.967   5.927   0.011  0.5125  1.6137  0.9886
    2CHTO   C81  552   2.779   6.204  -0.034  0.6678  0.4863 -0.6416
    2CHTO  H153  553   2.735   6.271   0.040  1.3462 -0.8416  0.9965
    2CHTO   N14  554   2.662   6.132  -0.090  0.2571  0.2746  0.3229
    2CHTO  H141  555   2.691   6.082  -0.180 -0.7816  0.3048 -0.0257
    2CHTO  H142  556   2.625   6.060  -0.020 -0.3782  0.3883  0.1060
    2CHTO   C79  557   2.861   6.294  -0.140 -0.0283  0.1504 -0.5413
    2CHTO  H151  558   2.798   6.380  -0.161 -3.1150 -1.7655  0.5502
    2CHTO   O52  559   2.974   6.360  -0.073 -0.3114 -0.2177 -0.2074
    2CHTO   C86  560   3.062   6.273   0.003 -1.0946  0.2307 -0.3335
    2CHTO  H158  561   3.114   6.211  -0.073  0.1742  1.5596 -0.5624
    2CHTO   C90  562   3.164   6.358   0.075 -0.4355  0.0447  0.2416
    2CHTO   O60  563   3.253   6.420  -0.020  0.4705  0.1370 -1.1144
    2CHTO  H138  564   3.218   6.468  -0.093  1.2809 -1.7935 -2.8181
    2CHTO   O50  565   2.900   6.227  -0.260  0.6539 -0.6211  0.2167
    2CHTO   C73  566   2.951   6.213  -0.394  0.5349  0.5157  0.0693
    2CHTO  H145  567   2.938   6.306  -0.452 -0.7595  0.6673  0.5823
    2CHTO   C74  568   2.880   6.086  -0.458 -0.1839 -0.5522 -0.0265
    2CHTO  H146  569   2.775   6.115  -0.444 -0.1051 -0.6546  0.8011
    2CHTO   O54  570   2.913   6.081  -0.601 -0.1970 -0.3180  0.1883
    2CHTO  H133  571   2.913   5.992  -0.631 -0.4041 -0.2713  0.0474
    2CHTO   C75  572   2.916   5.953  -0.374  0.9401 -0.0614  0.2230
    2CHTO  H147  573   2.901   5.979  -0.268  0.3570  1.1036 -0.1393
    2CHTO   N13  574   2.839   5.829  -0.415 -0.2475 -0.0475  0.0453
    2CHTO  H139  575   2.850   5.810  -0.520  0.6624 -0.6162  0.2379
    2CHTO  H140  576   2.858   5.744  -0.350 -0.7991  0.1320  0.4484
    2CHTO   C76  577   3.071   5.921  -0.373  0.1151  0.0969  0.5973
    2CHTO  H148  578   3.096   5.881  -0.471 -0.0596 -2.1491  1.4550
    2CHTO   O49  579   3.146   6.048  -0.344 -0.6139 -0.3960 -0.3139
    2CHTO   C77  580   3.107   6.177  -0.403 -0.3363  0.0620 -0.3754
    2CHTO  H149  581   3.137   6.176  -0.508  0.9745 -1.9968 -0.0244
    2CHTO   C88  582   3.194   6.283  -0.331  0.1912 -0.1009  0.0998
    2CHTO   O58  583   3.156   6.421  -0.363 -0.0194 -0.2922  0.5746
    2CHTO  H136  584   3.068   6.434  -0.395  1.0233  0.6009 -2.0311
    2CHTO   O51  585   3.099   5.812  -0.263 -0.7967 -0.1147  0.3351
    2CHTO   C78  586   3.245   5.753  -0.242  0.2338 -0.8193  0.4121
    2CHTO  H150  587   3.315   5.838  -0.257  0.9968 -1.4135  0.5712
    2CHTO   C80  588   3.293   5.641  -0.336 -0.2252  0.7459  0.3919
    2CHTO  H152  589   3.221   5.557  -0.340  1.4166 -0.6740  0.2642
    2CHTO   O55  590   3.285   5.694  -0.469 -0.3527 -0.1560  0.3635
    2CHTO  H134  591   3.323   5.642  -0.537 -1.0290 -1.3698  0.8849
    2CHTO   C84  592   3.440   5.587  -0.302  0.4791  0.1628 -0.4275
    2CHTO  H156  593   3.508   5.671  -0.315  0.5179  0.4977  1.7801
    2CHTO   N15  594   3.477   5.466  -0.386 -0.8250  0.0872  0.1997
    2CHTO  H143  595   3.395   5.406  -0.420 -0.6158  0.5791 -1.2178
    2CHTO  H144  596   3.531   5.500  -0.472 -1.5273 -1.1473 -0.7519
    2CHTO   C87  597   3.447   5.553  -0.151  0.2902 -0.7106  0.4690
    2CHTO  H159  598   3.385   5.464  -0.137 -0.7984  0.1260  1.0852
    2CHTO   O53  599   3.387   5.672  -0.069 -0.3481  0.1446  0.3858
    2CHTO   C82  600   3.250   5.711  -0.098 -0.6395  0.0366  0.4865
    2CHTO  H154  601   3.180   5.628  -0.085 -2.7886  1.2550 -2.7531
    2CHTO   C89  602   3.199   5.826  -0.008 -0.3079  0.3690 -0.1934
    2CHTO   O59  603   3.214   5.811   0.134  0.6696  0.2887 -0.1665
    2CHTO  H137  604   3.289   5.861   0.160  1.0087 -0.5366  0.4868
    2CHTO   O45  605   3.607   5.528  -0.096 -0.5001  0.3225 -0.0784
    2CHTO   C67  606   3.623   5.502   0.046 -0.0713  0.4220 -0.3636
    2CHTO  H124  607   3.568   5.582   0.095  0.2287 -0.2366  1.0844
    2CHTO   C65  608   3.560   5.364   0.094  0.4709  0.4443  0.4005
    2CHTO  H122  609   3.576   5.297   0.010  1.7655 -0.5433  1.4033
    2CHTO   O44  610   3.419   5.394   0.114 -0.4135  0.1427  0.7176
    2CHTO  H102  611   3.389   5.441   0.038  0.7964 -0.5755 -0.2271
    2CHTO   C63  612   3.646   5.293   0.204 -0.2046  0.1438  0.2249
    2CHTO  H120  613   3.729   5.239   0.158  0.6844  0.8060  1.0597
    2CHTO   N11  614   3.585   5.173   0.270 -0.4019 -0.1965  0.2581
    2CHTO  H108  615   3.649   5.140   0.350  0.9275  1.3609 -0.1324
    2CHTO  H109  616   3.568   5.095   0.199  2.5687 -0.5238 -0.1809
    2CHTO   C61  617   3.714   5.395   0.310 -0.0274 -0.0021 -0.2831
    2CHTO  H118  618   3.795   5.335   0.353  0.1830  0.6402  0.2247
    2CHTO   O40  619   3.778   5.507   0.246 -0.2544 -0.2540 -0.5274
    2CHTO   C68  620   3.770   5.516   0.097  0.5252 -0.7492 -0.1721
    2CHTO  H125  621   3.832   5.428   0.069  0.1017 -1.7270  1.8707
    2CHTO   C72  622   3.840   5.643   0.039 -0.1796 -0.3956  0.0017
    2CHTO   O48  623   3.974   5.652   0.079  0.1534  0.1358 -0.2205
    2CHTO  H105  624   3.974   5.665   0.172 -1.2864  0.5606 -0.2593
    2CHTO   O38  625   3.618   5.449   0.401  0.9536 -0.3441  0.0263
    2CHTO   C55  626   3.657   5.554   0.492 -0.2775 -0.6864  0.1949
    2CHTO  H112  627   3.750   5.604   0.459 -0.4225 -1.2430 -1.0780
    2CHTO   C56  628   3.671   5.501   0.650 -0.1168  0.2496 -0.0636
    2CHTO  H113  629   3.588   5.431   0.668 -0.4706  0.9816  1.1623
    2CHTO   O42  630   3.787   5.414   0.653 -0.1767  0.3275 -0.0322
    2CHTO  H100  631   3.767   5.333   0.610  3.1358 -0.9904  0.7851
    2CHTO   C57  632   3.687   5.614   0.754 -0.4860 -0.3877 -0.0211
    2CHTO  H114  633   3.786   5.653   0.730  0.4667 -0.8836  2.9508
    2CHTO   N10  634   3.685   5.569   0.895  0.1796  0.4443 -0.9993
    2CHTO  H106  635   3.652   5.644   0.965  0.3649  0.6064 -1.0863
    2CHTO  H107  636   3.786   5.540   0.917  0.6546  0.0468 -3.5494
    2CHTO   C58  637   3.582   5.723   0.720  0.3161  0.4901 -0.1292
    2CHTO  H115  638   3.483   5.686   0.753 -0.2229  2.6623  0.7825
    2CHTO   O37  639   3.587   5.760   0.580 -0.2152  0.3381 -0.2993
    2CHTO   C59  640   3.547   5.662   0.488 -0.1830  0.1336  0.2732
    2CHTO  H116  641   3.454   5.613   0.515 -0.3341 -0.0103 -0.4888
    2CHTO   C70  642   3.545   5.731   0.350 -0.8660 -0.1825 -0.8616
    2CHTO   O46  643   3.420   5.805   0.333  0.2328 -0.3199  0.4642
    2CHTO  H103  644   3.413   5.835   0.244  0.8545 -0.9170  0.2128
    2CHTO   O39  645   3.614   5.850   0.803 -0.9465 -0.3000  0.1678
    2CHTO   C60  646   3.504   5.937   0.825 -0.5226  0.1611  0.3724
    2CHTO  H117  647   3.430   5.904   0.752 -0.1746 -1.5701  0.7866
    2CHTO   C62  648   3.436   5.926   0.960 -0.5178 -0.0772  0.5887
    2CHTO  H119  649   3.401   5.820   0.967 -0.5328  0.1056  4.3472
    2CHTO   O43  650   3.535   5.951   1.068 -0.3145 -0.7636  0.0477
    2CHTO  H101  651   3.529   5.881   1.131  3.6341  1.1542  2.7763
    2CHTO   C66  652   3.304   6.025   0.963 -0.3830 -0.5336  0.5549
    2CHTO  H123  653   3.233   5.981   0.893 -1.2942  0.3513  0.9181
    2CHTO   N12  654   3.230   6.032   1.090  0.1407  0.1410  0.0617
    2CHTO  H110  655   3.269   6.108   1.156 -2.1032 -0.9926  2.8125
    2CHTO  H111  656   3.128   6.055   1.063  1.5910  2.6880 -3.6842
    2CHTO   C69  657   3.326   6.171   0.916  0.7166  0.9267  0.2774
    2CHTO  H126  658   3.370   6.231   0.999  1.4553 -0.2381  0.7333
    2CHTO   O41  659   3.412   6.187   0.798 -0.4546 -0.0535  0.5474
    2CHTO   C64  660   3.539   6.086   0.791 -0.2464 -0.3431 -0.5584
    2CHTO  H121  661   3.612   6.127   0.863  1.0724 -1.7648 -1.0744
    2CHTO   C71  662   3.601   6.103   0.649  0.4802 -0.3394 -0.0711
    2CHTO   O47  663   3.740   6.084   0.650  0.0926  0.0278 -0.0722
    2CHTO  H104  664   3.784   6.115   0.573  2.2883 -0.8082  0.8075
    2CHTO   O34  665   3.185   6.243   0.877  0.1608  0.9490 -0.7256
    2CHTO   C49  666   3.057   6.306   0.914  0.7234 -0.6021  0.5343
    2CHTO   H91  667   3.001   6.247   0.986 -1.8068  1.3818  0.2839
    2CHTO   C47  668   2.973   6.330   0.784 -0.5321  0.1808 -0.2166
    2CHTO   H89  669   2.873   6.367   0.816 -1.7600 -1.9848 -1.4745
    2CHTO   O33  670   2.955   6.204   0.716  0.0652 -0.1609 -0.4894
    2CHTO   H70  671   2.896   6.218   0.644  1.1951  3.7940 -0.7813
    2CHTO   C45  672   3.040   6.443   0.694 -0.2924  0.2577 -0.6253
    2CHTO   H87  673   3.140   6.407   0.664  0.0344  0.9927 -0.4326
    2CHTO    N8  674   2.965   6.470   0.563 -0.1661 -0.5790  0.0582
    2CHTO   H75  675   2.931   6.371   0.536 -0.3273 -0.9845  1.6600
    2CHTO   H76  676   2.880   6.537   0.567  2.6365  3.2566 -1.7241
    2CHTO   C43  677   3.071   6.578   0.781  1.0003 -0.3118  0.8415
    2CHTO   H85  678   3.142   6.633   0.718 -2.8222  1.3434 -2.1876
    2CHTO   O29  679   3.117   6.550   0.917  0.1166  0.2955  0.7516
    2CHTO   C50  680   3.067   6.440   0.989  0.1739 -0.0232 -0.4471
    2CHTO   H92  681   3.135   6.427   1.075  1.1224  0.7216 -1.0850
    2CHTO   C54  682   2.927   6.478   1.057  0.1526 -0.5493 -0.3594
    2CHTO   O36  683   2.924   6.598   1.140  0.5245  0.0807  0.0379
    2CHTO   H72  684   2.843   6.606   1.188  0.7066 -1.3437  0.5981
    2CHTO   O27  685   2.947   6.650   0.795 -0.2553 -0.4010  0.3747
    2CHTO   C37  686   2.890   6.781   0.781 -0.4048 -0.0572 -0.5992
    2CHTO   H79  687   2.874   6.795   0.673 -1.1876 -1.6581 -0.6941
    2CHTO   C38  688   2.746   6.782   0.845 -0.7418  0.7830 -0.4828
    2CHTO   H80  689   2.753   6.732   0.943 -0.5455  2.0068  0.1348
    2CHTO   O31  690   2.658   6.710   0.754  0.0958 -0.6498  0.0182
    2CHTO   H68  691   2.620   6.768   0.691  0.9018  0.5522  0.6166
    2CHTO   C39  692   2.686   6.925   0.875 -0.4435 -0.3313 -0.0654
    2CHTO   H81  693   2.648   6.981   0.790 -2.4361  0.7569  1.5278
    2CHTO    N7  694   2.562   6.907   0.953 -0.3412  0.1385  0.1200
    2CHTO   H73  695   2.480   6.936   0.889 -0.6309 -0.7252  0.0922
    2CHTO   H74  696   2.561   6.974   1.038  1.8938  0.4089 -0.0362
    2CHTO   C40  697   2.801   7.018   0.942  0.4311 -0.2523 -0.7118
    2CHTO   H82  698   2.825   6.975   1.040 -0.3403 -1.8782 -1.2096
    2CHTO   O26  699   2.911   7.016   0.855  0.3613  0.2084 -0.0772
    2CHTO   C41  700   2.990   6.893   0.838 -0.0422  0.3893 -0.2345
    2CHTO   H83  701   3.054   6.872   0.924  0.0107  0.8458 -0.1640
    2CHTO   C52  702   3.100   6.937   0.732  0.2507 -0.2815 -0.2378
    2CHTO   O35  703   3.185   7.019   0.796 -0.0297  0.0016 -0.1552
    2CHTO   H71  704   3.249   6.964   0.838  0.5245  2.2818  2.1206
    2CHTO   O28  705   2.763   7.157   0.934  0.3541 -0.1477 -0.3919
    2CHTO   C42  706   2.813   7.266   1.025  0.2348 -0.1533 -0.2607
    2CHTO   H84  707   2.800   7.357   0.966 -1.3288 -0.3950 -0.3159
    2CHTO   C44  708   2.967   7.252   1.065  0.1519 -0.3850 -0.5330
    2CHTO   H86  709   2.991   7.156   1.110  2.1092 -0.0421 -0.8001
    2CHTO   O32  710   3.041   7.268   0.944 -0.1113  0.4618  0.7723
    2CHTO   H69  711   3.023   7.344   0.892  1.3213  0.3384  0.0804
    2CHTO   C48  712   3.006   7.367   1.170 -0.1043  0.0829 -0.6706
    2CHTO   H90  713   3.000   7.467   1.126 -1.6038  0.2219 -0.1830
    2CHTO    N9  714   3.148   7.364   1.227 -0.7061 -0.1694 -0.1896
    2CHTO   H77  715   3.168   7.258   1.234 -1.0965 -0.2125  0.3184
    2CHTO   H78  716   3.148   7.421   1.319  0.6224  0.0240 -0.3095
    2CHTO   C51  717   2.897   7.368   1.283  0.4294  0.0389 -0.1262
    2CHTO   H93  718   2.907   7.277   1.341  0.0312 -0.8193 -1.3785
    2CHTO   O30  719   2.760   7.384   1.242 -0.6292 -0.3117  0.1350
    2CHTO   C46  720   2.719   7.275   1.152  0.4526 -0.8237 -0.3984
    2CHTO   H88  721   2.723   7.186   1.214  0.7281  0.3761  1.3540
    2CHTO   C53  722   2.570   7.293   1.097  0.2916  0.2358 -0.3631
    2CHTO   O72  723   2.560   7.416   1.024 -0.2644  0.1218  0.8280
    2CHTO  H199  724   2.593   7.490   1.071  1.1434 -0.5657  0.9452
    2CHTO   O22  725   2.914   7.484   1.366  0.0340 -0.6519 -0.4189
    2CHTO   C31  726   2.873   7.478   1.505 -0.0552  0.0238  0.6952
    2CHTO   H59  727   2.896   7.577   1.549 -0.0743 -0.0452  0.8637
    2CHTO   C29  728   2.720   7.456   1.529  0.0068  0.1786  0.5257
    2CHTO   H57  729   2.691   7.359   1.486  0.9632  0.0335  0.1813
    2CHTO   O21  730   2.641   7.549   1.452 -0.7359 -0.6234 -0.2103
    2CHTO   H37  731   2.551   7.523   1.454 -0.9294 -0.1910 -2.3343
    2CHTO   C27  732   2.682   7.461   1.683 -0.4338 -0.1452  0.2310
    2CHTO   H55  733   2.696   7.564   1.719 -2.1124  0.2170 -0.0997
    2CHTO    N5  734   2.540   7.428   1.708 -0.2869 -0.1420  0.1308
    2CHTO   H43  735   2.490   7.524   1.705  0.6685  0.3390 -0.8319
    2CHTO   H44  736   2.536   7.386   1.807  1.3635  0.6877  0.5669
    2CHTO   C25  737   2.773   7.364   1.755  0.0236  0.4955  0.3625
    2CHTO   H53  738   2.755   7.258   1.732  1.1758  0.1944  0.8162
    2CHTO   O17  739   2.911   7.400   1.725  0.1456 -0.3206  0.0314
    2CHTO   C32  740   2.949   7.371   1.590  0.0604 -0.8685  0.1760
    2CHTO   H60  741   2.916   7.271   1.563 -1.1453  0.2960 -2.8618
    2CHTO   C36  742   3.098   7.381   1.589  0.1562  0.2645 -0.7476
    2CHTO   O25  743   3.138   7.518   1.601  0.1328 -0.1571 -0.4749
    2CHTO   H40  744   3.130   7.560   1.517 -2.8562  1.3241  0.4913
    2CHTO   O15  745   2.768   7.391   1.906  0.0263  0.1811  0.0832
    2CHTO   C19  746   2.737   7.288   2.012 -0.1028 -0.8564 -0.2427
    2CHTO   H47  747   2.652   7.237   1.965 -1.1545  2.9639 -2.7460
    2CHTO   C20  748   2.850   7.185   2.037 -0.2119 -0.0227 -0.2370
    2CHTO   H48  749   2.946   7.239   2.037 -0.8127  1.0483  0.4289
    2CHTO   O19  750   2.843   7.087   1.923  0.5925 -0.4386  0.0953
    2CHTO   H35  751   2.922   7.074   1.875 -0.2668 -0.0902 -1.4543
    2CHTO   C21  752   2.822   7.096   2.170 -0.1113  0.2345  0.3490
    2CHTO   H49  753   2.729   7.040   2.162 -0.3018  0.8520 -2.4527
    2CHTO    N4  754   2.935   7.012   2.203  0.6596  0.3365  0.8264
    2CHTO   H41  755   3.011   7.067   2.256  1.8694 -1.3039  0.8332
    2CHTO   H42  756   2.912   6.926   2.266  0.1294  0.3020  0.5934
    2CHTO   C22  757   2.787   7.184   2.288  0.0338 -0.2068 -0.1396
    2CHTO   H50  758   2.861   7.264   2.291  1.6634 -1.6760 -0.0229
    2CHTO   O14  759   2.660   7.250   2.251 -0.0208  0.4119 -0.0738
    2CHTO   C23  760   2.677   7.351   2.147 -1.1652 -0.0470  0.8050
    2CHTO   H51  761   2.738   7.431   2.190  2.1539 -1.5143 -0.9595
    2CHTO   C34  762   2.538   7.419   2.124  0.6998  0.0325  0.8011
    2CHTO   O23  763   2.501   7.507   2.232 -0.4670 -0.4287 -0.8655
    2CHTO   H38  764   2.422   7.555   2.218  0.8784  1.3957 -2.3775
    2CHTO   O16  765   2.765   7.118   2.410  0.0965  0.1876  0.1398
    2CHTO   C24  766   2.806   7.204   2.532  0.2315 -0.1130 -0.3050
    2CHTO   H52  767   2.795   7.311   2.513  1.3999 -0.2918 -2.0842
    2CHTO   C26  768   2.955   7.175   2.559 -0.0316 -0.0901 -0.9007
    2CHTO   H54  769   2.965   7.065   2.566  0.4180 -0.0838 -1.4178
    2CHTO   O20  770   3.031   7.217   2.442 -0.2806 -0.4794 -0.9743
    2CHTO   H36  771   3.030   7.310   2.429 -1.9345 -0.5372 -1.3611
    2CHTO   C30  772   3.008   7.241   2.690  0.8554  0.0043  0.1356
    2CHTO   H58  773   3.011   7.351   2.689  0.8851  0.0056 -1.3172
    2CHTO    N6  774   3.146   7.192   2.714 -0.2687 -0.9908 -0.6582
    2CHTO   H45  775   3.218   7.242   2.652  0.3281  1.5532  1.9747
    2CHTO   H46  776   3.151   7.087   2.688 -1.2336 -0.5779 -2.5649
    2CHTO   C33  777   2.917   7.219   2.806 -0.1434  0.4949  0.1350
    2CHTO   H61  778   2.927   7.111   2.826  1.4720  0.2926 -1.6729
    2CHTO   O18  779   2.785   7.243   2.769 -0.3798  0.3619  0.0927
    2CHTO   C28  780   2.723   7.181   2.658 -0.1552  0.8266 -0.0110
    2CHTO   H56  781   2.713   7.073   2.665  0.2841  0.5553 -3.0749
    2CHTO   C35  782   2.580   7.243   2.631  0.9163 -0.4020  0.5707
    2CHTO   O24  783   2.480   7.181   2.717  0.7166  0.2172 -0.2004
    2CHTO   H39  784   2.468   7.090   2.696  1.5372 -0.2803  1.3790
    2CHTO    O9  785   2.956   7.288   2.927  0.2575 -0.4710  0.6388
    2CHTO   C13  786   2.930   7.172   3.064 -0.1759 -0.2865  0.7148
    2CHTO   H26  787   2.971   7.074   3.030  0.3896 -0.4071  1.7388
    2CHTO   C11  788   2.778   7.165   3.078  0.1548  1.0889  0.1662
    2CHTO   H24  789   2.736   7.105   2.996 -0.9201  0.8620  0.8643
    2CHTO    O8  790   2.715   7.291   3.073  0.1683 -0.5825  0.3874
    2CHTO    H3  791   2.622   7.283   3.073  0.0582  0.4968  2.5359
    2CHTO    C9  792   2.751   7.111   3.222 -0.4645 -0.9571 -0.5424
    2CHTO   H22  793   2.806   7.016   3.232  0.8059 -0.2356 -0.5235
    2CHTO    N2  794   2.610   7.071   3.253 -0.3120 -0.4095 -0.3470
    2CHTO   H10  795   2.580   6.990   3.189  0.4484 -3.5174  3.0205
    2CHTO   H11  796   2.608   7.032   3.354  0.3265 -0.2980 -0.2888
    2CHTO    C7  797   2.808   7.208   3.337 -0.0967 -0.3718 -0.2868
    2CHTO   H20  798   2.832   7.138   3.420 -0.0537  0.6497  0.5704
    2CHTO    O4  799   2.929   7.274   3.298  0.2797  0.0473  0.0464
    2CHTO   C14  800   3.010   7.214   3.191  0.0900  0.0484 -0.2545
    2CHTO   H27  801   3.051   7.122   3.239 -1.8858  0.5727  2.5963
    2CHTO   C18  802   3.123   7.309   3.152 -0.5216  0.1157 -0.2642
    2CHTO   O13  803   3.183   7.361   3.269 -0.1243 -0.3677  0.6865
    2CHTO    H7  804   3.236   7.297   3.313  0.2833 -1.8317 -1.8548
    2CHTO    O2  805   2.692   7.334   3.385  0.0567 -0.6274 -0.1672
    2CHTO    C1  806   2.743   7.457   3.431  0.0690  0.5383 -0.2068
    2CHTO   H14  807   2.837   7.478   3.376  0.2560 -3.4207 -1.5412
    2CHTO    C2  808   2.778   7.467   3.591  0.1087 -0.1133  0.6868
    2CHTO   H15  809   2.693   7.440   3.655 -1.3170  0.4951 -0.9123
    2CHTO    O6  810   2.885   7.380   3.615 -0.1170  0.5045  0.4762
    2CHTO    H1  811   2.957   7.403   3.560  0.4046  2.3334  1.8429
    2CHTO    C3  812   2.812   7.617   3.631 -0.5149  0.2131 -0.2737
    2CHTO   H16  813   2.900   7.651   3.575 -0.8445  0.1493 -0.8282
    2CHTO    N1  814   2.843   7.639   3.779 -0.6063 -0.5994 -0.3002
    2CHTO    H8  815   2.828   7.743   3.804 -0.7910 -0.9243  0.9909
    2CHTO    H9  816   2.776   7.583   3.843 -2.1728  0.4787 -0.9601
    2CHTO    C4  817   2.695   7.713   3.584 -0.1281 -0.2358 -0.2145
    2CHTO   H17  818   2.610   7.696   3.650  0.7473 -0.6588  0.8211
    2CHTO    O1  819   2.674   7.695   3.447 -1.0064 -0.4880 -0.0711
    2CHTO    C5  820   2.644   7.565   3.396  0.1208  0.7606  0.3928
    2CHTO   H18  821   2.551   7.538   3.445  0.9980  0.5878  1.9966
    2CHTO   C16  822   2.616   7.582   3.250  0.0948  0.0017  1.1553
    2CHTO   O11  823   2.480   7.612   3.220 -0.5700 -0.0661 -0.7266
    2CHTO    H5  824   2.433   7.539   3.256  1.2343 -1.0205 -0.2334
    2CHTO    O3  825   2.739   7.855   3.604 -0.3440  0.1244 -0.3656
    2CHTO    C6  826   2.638   7.961   3.591  0.5296  0.5919 -0.0636
    2CHTO   H19  827   2.550   7.917   3.544 -0.1553 -2.0557  3.5361
    2CHTO    C8  828   2.592   8.017   3.724  0.1643  0.0563 -0.2843
    2CHTO   H21  829   2.683   8.042   3.779  0.6231  0.1878 -1.0883
    2CHTO    O7  830   2.517   7.914   3.788 -0.3457  0.2095  0.1959
    2CHTO    H2  831   2.566   7.859   3.846  1.3461  0.7339 -0.7117
    2CHTO   C12  832   2.493   8.141   3.711 -0.1129  0.1677  0.6625
    2CHTO   H25  833   2.397   8.099   3.676 -0.1937  1.3129 -0.5368
    2CHTO    N3  834   2.476   8.229   3.833 -0.4590 -0.6129 -0.3758
    2CHTO   H12  835   2.444   8.173   3.920 -1.1301 -0.8022 -0.7393
    2CHTO   H13  836   2.572   8.266   3.864 -1.2788  0.7846  0.5432
    2CHTO   C15  837   2.551   8.236   3.593  0.3979  0.5303 -0.8419
    2CHTO   H28  838   2.639   8.288   3.629  1.6092 -2.1895  0.2490
    2CHTO   O10  839   2.450   8.341   3.542 -0.3986  0.6649 -0.1596
    2CHTO    H4  840   2.444   8.403   3.612  1.2608 -0.1984  0.7600
    2CHTO    O5  841   2.581   8.158   3.475 -0.6094 -0.2772  0.0296
    2CHTO   C10  842   2.695   8.069   3.499  0.0805  0.2273 -0.0400
    2CHTO   H23  843   2.774   8.111   3.562 -0.6206 -2.0036  2.4605
    2CHTO   C17  844   2.742   8.013   3.360  0.0177 -1.3740  0.2005
    2CHTO   O12  845   2.863   7.934   3.360 -0.1392  0.0035  0.1380
    2CHTO    H6  846   2.907   7.959   3.281 -2.2726 -0.8218 -1.3456
    3CHTO  H203  847   6.563   2.463   1.939  0.3472  0.1612  0.2387
    3CHTO   O82  848   6.500   2.393   1.927  0.0973  0.4851 -0.4035
    3CHTO  C123  849   6.563   2.263   1.940  0.4447  0.4190 -0.4408
    3CHTO  H227  850   6.661   2.267   1.890  1.3247 -0.7106  1.1521
    3CHTO   O77  851   6.577   2.235   2.080  0.8193 -0.1615 -0.1215
    3CHTO  C118  852   6.664   2.131   2.107  0.2706  0.4095  0.3990
    3CHTO  H222  853   6.754   2.139   2.043  0.1118  3.1778  0.4739
    3CHTO  C125  854   6.701   2.129   2.263 -0.4612  0.5425 -0.2571
    3CHTO   O84  855   6.749   2.246   2.322 -0.5968  0.2713 -0.2238
    3CHTO  H205  856   6.724   2.234   2.411  1.4050 -2.0272  0.0663
    3CHTO  C114  857   6.599   2.002   2.062  0.5153 -0.8903  0.1673
    3CHTO  H218  858   6.502   1.992   2.111 -0.0626 -0.7979 -0.9251
    3CHTO  C116  859   6.569   2.017   1.908 -0.4358  0.6324 -0.5763
    3CHTO  H220  860   6.665   2.029   1.853  2.0942  0.1654  3.5127
    3CHTO   O79  861   6.508   1.899   1.866  0.0521  0.3656 -0.1897
    3CHTO  H201  862   6.567   1.828   1.849  0.1641  0.6270 -0.9181
    3CHTO  C120  863   6.489   2.139   1.874 -0.0465  0.6991  0.2002
    3CHTO  H224  864   6.390   2.122   1.921 -1.4841  1.1831 -2.5960
    3CHTO   N21  865   6.463   2.166   1.731  0.4046  0.0930  0.1698
    3CHTO  H211  866   6.357   2.181   1.720  0.5800  1.9359  0.8257
    3CHTO  H212  867   6.499   2.094   1.659 -0.3161 -0.7366  0.6306
    3CHTO   O75  868   6.693   1.907   2.097  0.1138  0.5345  0.1504
    3CHTO  C112  869   6.615   1.763   2.142 -0.1832 -0.3149  0.1011
    3CHTO  H216  870   6.540   1.737   2.066  0.3313 -0.4192 -0.3778
    3CHTO   O73  871   6.557   1.789   2.270  0.7081 -0.2153  0.0381
    3CHTO  C113  872   6.469   1.679   2.308 -0.6384 -0.2506  0.0959
    3CHTO  H217  873   6.386   1.691   2.236  0.3562 -0.6222 -1.1317
    3CHTO  C124  874   6.415   1.711   2.445  0.0091  0.5027 -0.1361
    3CHTO   O83  875   6.336   1.825   2.460 -0.7582 -0.0184  0.1698
    3CHTO  H204  876   6.294   1.818   2.544 -1.8566 -0.0136 -0.3635
    3CHTO  C109  877   6.542   1.537   2.301  0.2462 -0.4463 -0.6320
    3CHTO  H213  878   6.604   1.530   2.392  2.1772 -0.8044 -1.9549
    3CHTO  C110  879   6.636   1.519   2.175 -0.4629 -0.5464  0.2086
    3CHTO  H214  880   6.577   1.489   2.088  2.0053 -2.3864 -0.8959
    3CHTO   O78  881   6.730   1.411   2.199  0.2581  0.6111  0.1291
    3CHTO  H200  882   6.709   1.333   2.152  0.5733 -0.4592  1.7330
    3CHTO  C111  883   6.717   1.643   2.136  0.0801 -0.5752  0.3711
    3CHTO  H215  884   6.793   1.663   2.214  0.2113  1.3170 -0.2147
    3CHTO   N19  885   6.786   1.624   2.008 -0.2278  0.6224  0.1246
    3CHTO  H207  886   6.893   1.636   2.017  0.0042 -1.8782  1.0661
    3CHTO  H208  887   6.759   1.714   1.954  0.3484  1.7413  1.6583
    3CHTO   O74  888   6.436   1.441   2.314 -0.7394 -0.1207 -0.2657
    3CHTO  C115  889   6.474   1.307   2.418  0.2508  0.0645 -0.0172
    3CHTO  H219  890   6.570   1.325   2.467  0.2656  1.5302 -0.5550
    3CHTO   O76  891   6.368   1.290   2.533  0.4308 -0.3351  0.1659
    3CHTO  C122  892   6.236   1.288   2.479 -0.0714 -0.2030 -0.3613
    3CHTO  H226  893   6.227   1.381   2.423  0.7367  0.2151  0.1872
    3CHTO  C126  894   6.124   1.280   2.583 -0.8343 -0.3932 -0.2036
    3CHTO   O85  895   6.123   1.390   2.673 -0.2556  0.3532  0.0079
    3CHTO  H206  896   6.193   1.379   2.734 -1.0776 -1.1943  0.7007
    3CHTO  C121  897   6.203   1.167   2.376  0.1356  0.1544  0.8663
    3CHTO  H225  898   6.120   1.099   2.403  0.1788  0.4541  1.7811
    3CHTO   O81  899   6.165   1.214   2.243  0.4478 -0.0166 -0.3165
    3CHTO  H202  900   6.109   1.156   2.195 -1.1657  1.2276  0.0312
    3CHTO  C119  901   6.337   1.080   2.369  0.0283  0.5085  0.0962
    3CHTO  H223  902   6.342   1.033   2.467 -2.3132  1.3682  0.6697
    3CHTO  C117  903   6.471   1.172   2.334  0.6674 -0.0733 -0.1995
    3CHTO  H221  904   6.473   1.200   2.228 -0.0839 -1.7037 -0.6655
    3CHTO   N20  905   6.594   1.097   2.351  0.5458 -0.3109  0.4795
    3CHTO  H209  906   6.617   1.073   2.454  1.7389 -1.1122  0.0379
    3CHTO  H210  907   6.578   1.005   2.297 -2.2967 -0.8134  2.0471
    3CHTO   O80  908   6.331   0.949   2.277  0.4306  0.0179  0.0285
    3CHTO  C103  909   6.238   0.815   2.321 -0.9301 -0.1913  0.3122
    3CHTO  H190  910   6.206   0.828   2.425  0.2789 -0.1792  0.6839
    3CHTO  C101  911   6.101   0.804   2.249  0.0237 -0.5144 -0.0219
    3CHTO  H188  912   6.125   0.792   2.143 -0.4509 -1.0574 -0.0682
    3CHTO   O68  913   6.009   0.941   2.261 -0.2040 -0.8900 -0.2528
    3CHTO  H168  914   5.923   0.909   2.275 -0.1139 -1.1676 -0.3239
    3CHTO   C99  915   6.015   0.680   2.303  0.7062 -0.5589 -0.2101
    3CHTO  H186  916   5.994   0.686   2.412  0.2250  0.1268 -0.3348
    3CHTO   N17  917   5.877   0.668   2.240  0.0678 -0.5879 -0.4133
    3CHTO  H174  918   5.827   0.580   2.279  2.2124 -1.0623  1.3881
    3CHTO  H175  919   5.828   0.759   2.272  0.2670 -0.3759 -0.7162
    3CHTO   C97  920   6.102   0.554   2.286  0.9446  0.1856  0.0703
    3CHTO  H184  921   6.114   0.538   2.178  2.3640 -2.5340  0.5798
    3CHTO   O64  922   6.228   0.572   2.356 -0.4285  0.7593 -0.0276
    3CHTO  C104  923   6.315   0.683   2.315 -0.1752  0.4160  0.4433
    3CHTO  H191  924   6.352   0.664   2.214  0.1655  0.2487  0.5996
    3CHTO  C108  925   6.443   0.697   2.402  0.3565 -0.3246  0.4835
    3CHTO   O71  926   6.506   0.573   2.385  0.0555  0.1578  0.5533
    3CHTO  H171  927   6.489   0.502   2.444 -2.1983 -1.0765 -1.5034
    3CHTO   O62  928   6.049   0.433   2.337  0.3194 -0.1862  0.1704
    3CHTO   C91  929   6.080   0.313   2.259  0.7644  0.5087 -0.2352
    3CHTO  H178  930   6.167   0.329   2.196 -0.0682  0.8906 -1.3141
    3CHTO   C92  931   5.965   0.280   2.165  0.5123 -0.0733 -0.2746
    3CHTO  H179  932   5.872   0.265   2.221  2.1204 -2.6892  1.8277
    3CHTO   O66  933   5.948   0.391   2.071  0.5855  0.0776 -0.3436
    3CHTO  H166  934   5.886   0.375   2.002 -1.2103 -1.0143  1.4906
    3CHTO   C93  935   6.006   0.153   2.082  0.5919 -0.2119 -0.3386
    3CHTO  H180  936   6.090   0.181   2.017 -0.5788 -1.0173 -2.2240
    3CHTO   N16  937   5.899   0.113   1.989  0.2721 -0.0854 -0.2092
    3CHTO  H172  938   5.815   0.074   2.044  0.3188  0.6432  0.3895
    3CHTO  H173  939   5.879   0.201   1.929  3.9649  2.2056  1.7297
    3CHTO   C94  940   6.052   0.036   2.178  0.2114 -0.6518  0.4908
    3CHTO  H181  941   5.967  -0.009   2.229  0.5224 -1.8763 -0.0627
    3CHTO   O61  942   6.141   0.078   2.281  0.2374  0.2295 -0.0859
    3CHTO   C95  943   6.094   0.185   2.358 -0.2746 -0.6524 -0.2912
    3CHTO  H182  944   5.999   0.151   2.398 -1.2878 -0.0259 -2.0824
    3CHTO  C106  945   6.183   0.196   2.489 -0.7560  0.6372 -0.6931
    3CHTO   O69  946   6.325   0.206   2.463  0.2432  0.3926  0.2714
    3CHTO  H169  947   6.357   0.279   2.513  0.1574 -1.0799  2.5442
    3CHTO   O63  948   6.125  -0.083   2.104 -0.5239  0.0004 -0.0212
    3CHTO   C96  949   6.091  -0.244   2.140  0.0182  0.2547 -0.8237
    3CHTO  H183  950   6.174  -0.299   2.096  0.3356 -0.3237  0.4998
    3CHTO   C98  951   5.960  -0.304   2.069 -0.1609  0.0312  0.0222
    3CHTO  H185  952   5.876  -0.251   2.115 -0.8902 -1.2974  0.2579
    3CHTO   O67  953   5.956  -0.272   1.924  0.3937  0.5374  0.2228
    3CHTO  H167  954   6.029  -0.316   1.885  1.5763  0.7477  2.1612
    3CHTO  C102  955   5.940  -0.460   2.092  0.3749  0.1877 -0.3392
    3CHTO  H189  956   6.018  -0.509   2.033 -0.9244  0.0628 -2.0084
    3CHTO   N18  957   5.806  -0.516   2.045  0.2547  0.4567  0.0997
    3CHTO  H176  958   5.816  -0.602   1.982  0.5225  0.2507  0.4249
    3CHTO  H177  959   5.743  -0.531   2.132  0.0101  2.8445  0.3868
    3CHTO  C105  960   5.965  -0.483   2.244  1.0973  1.0906 -0.2737
    3CHTO  H192  961   5.874  -0.453   2.295  0.8177 -0.1971 -0.0032
    3CHTO   O65  962   6.080  -0.419   2.305  0.0951  0.1862 -0.5094
    3CHTO  C100  963   6.089  -0.278   2.293  0.4321  0.7215  0.5010
    3CHTO  H187  964   5.997  -0.234   2.335 -0.3621  0.3928 -0.8520
    3CHTO  C107  965   6.212  -0.231   2.372 -0.4135 -0.7468  0.3192
    3CHTO   O70  966   6.215  -0.298   2.498  0.2558  0.2853  0.3600
    3CHTO  H170  967   6.192  -0.239   2.568  1.3131 -0.1203  1.0530
    3CHTO   O57  968   5.988  -0.638   2.252  0.0609  0.0326  0.1805
    3CHTO   C85  969   5.948  -0.709   2.379 -0.0901 -0.0202  0.7470
    3CHTO  H157  970   5.976  -0.814   2.356 -0.0098  0.2031 -0.2125
    3CHTO   C83  971   5.797  -0.724   2.400 -0.6849 -0.1772 -0.3172
    3CHTO  H155  972   5.764  -0.792   2.322 -3.2222 -0.9326  1.3579
    3CHTO   O56  973   5.719  -0.605   2.385 -0.4233 -0.1783 -1.3498
    3CHTO  H135  974   5.735  -0.542   2.452  2.1422 -1.2483 -0.8971
    3CHTO   C81  975   5.773  -0.800   2.534 -0.1718 -0.1425 -0.0189
    3CHTO  H153  976   5.827  -0.894   2.526  1.3489  0.6521  0.6836
    3CHTO   N14  977   5.634  -0.839   2.570 -1.3754  0.1343 -0.0565
    3CHTO  H141  978   5.635  -0.897   2.660 -0.0114 -0.6011 -0.5369
    3CHTO  H142  979   5.577  -0.749   2.585 -1.6601  0.2223 -1.6406
    3CHTO   C79  980   5.832  -0.715   2.650  0.6716  0.1781  0.0863
    3CHTO  H151  981   5.811  -0.762   2.746  1.6267 -1.1193 -0.3311
    3CHTO   O52  982   5.979  -0.707   2.633  0.0475 -0.4105  0.6125
    3CHTO   C86  983   6.020  -0.653   2.502  0.3877 -0.3093  0.4941
    3CHTO  H158  984   6.005  -0.543   2.507 -1.3071 -0.3916 -1.9412
    3CHTO   C90  985   6.173  -0.680   2.509  0.5869  0.1550  0.0436
    3CHTO   O60  986   6.219  -0.818   2.500 -0.1240  0.3773 -0.3965
    3CHTO  H138  987   6.308  -0.824   2.528 -0.7933  1.1414  2.0200
    3CHTO   O50  988   5.783  -0.581   2.658 -0.0411 -0.2222  0.4401
    3CHTO   C73  989   5.776  -0.486   2.765  0.3616  0.8475  0.0535
    3CHTO  H145  990   5.855  -0.499   2.841  2.1515  2.8368 -1.3805
    3CHTO   C74  991   5.636  -0.497   2.825  0.2739 -0.3176  0.6442
    3CHTO  H146  992   5.635  -0.601   2.861 -1.6659 -0.9921 -1.2504
    3CHTO   O54  993   5.615  -0.412   2.943  0.2844 -0.1370 -0.9647
    3CHTO  H133  994   5.701  -0.385   2.970  0.4223 -1.6637  0.1397
    3CHTO   C75  995   5.533  -0.473   2.711 -0.1785  0.4909  0.2050
    3CHTO  H147  996   5.547  -0.551   2.635  0.8353 -0.3775  1.2827
    3CHTO   N13  997   5.396  -0.476   2.757 -0.0216  0.4941 -0.0396
    3CHTO  H139  998   5.386  -0.396   2.829  0.6328  1.8279 -1.4064
    3CHTO  H140  999   5.373  -0.571   2.803  1.2847  0.0238 -0.3467
    3CHTO   C76 1000   5.561  -0.332   2.640  0.7361  0.5770 -0.3964
    3CHTO  H148 1001   5.545  -0.253   2.713 -1.2949 -0.1645 -0.0031
    3CHTO   O49 1002   5.701  -0.320   2.604  0.1015 -0.3533 -0.3062
    3CHTO   C77 1003   5.793  -0.339   2.704 -1.5694 -0.3013  0.1152
    3CHTO  H149 1004   5.775  -0.269   2.785 -0.3396 -0.5334  0.6023
    3CHTO   C88 1005   5.931  -0.314   2.645 -0.1434 -0.2806  0.6937
    3CHTO   O58 1006   5.939  -0.190   2.562 -0.3835  0.1041 -0.0490
    3CHTO  H136 1007   6.025  -0.174   2.529  0.7284 -0.9464  2.2566
    3CHTO   O51 1008   5.466  -0.325   2.488 -0.3578 -0.2775 -0.1545
    3CHTO   C78 1009   5.425  -0.211   2.448  0.7784 -0.3563 -0.3058
    3CHTO  H150 1010   5.498  -0.141   2.492  0.1233 -0.1354  0.4371
    3CHTO   C80 1011   5.280  -0.176   2.483 -0.6165 -0.1249  0.6613
    3CHTO  H152 1012   5.209  -0.253   2.446 -0.3898 -0.6309  1.2668
    3CHTO   O55 1013   5.259  -0.190   2.623 -0.0976 -0.4169  0.1225
    3CHTO  H134 1014   5.343  -0.170   2.660  0.3797  0.2360 -1.2897
    3CHTO   C84 1015   5.232  -0.034   2.436  0.2533 -0.5385  0.4461
    3CHTO  H156 1016   5.276   0.039   2.503 -0.1356  0.7924 -0.7322
    3CHTO   N15 1017   5.083  -0.017   2.455 -0.3126 -1.4719 -0.0239
    3CHTO  H143 1018   5.043   0.061   2.394  0.6029 -1.4102 -0.5652
    3CHTO  H144 1019   5.068   0.008   2.557 -1.0089 -0.9099 -0.2607
    3CHTO   C87 1020   5.268  -0.016   2.286 -0.0676 -0.7152 -0.1267
    3CHTO  H159 1021   5.205  -0.086   2.231  0.4317 -1.8911  0.7514
    3CHTO   O53 1022   5.424  -0.058   2.263  0.1005 -0.5615  0.2697
    3CHTO   C82 1023   5.433  -0.196   2.293 -0.1932 -0.4329 -0.0642
    3CHTO  H154 1024   5.352  -0.248   2.242 -1.1257  1.0107 -0.0631
    3CHTO   C89 1025   5.570  -0.261   2.236 -0.3975  0.6317  0.1412
    3CHTO   O59 1026   5.693  -0.238   2.300  0.1324 -0.4046  0.5094
    3CHTO  H137 1027   5.700  -0.274   2.386  1.5063 -0.1829  0.5064
    3CHTO   O45 1028   5.250   0.120   2.231  0.1292 -0.4186 -0.0507
    3CHTO   C67 1029   5.353   0.217   2.267 -0.1318  0.5313 -0.1305
    3CHTO  H124 1030   5.414   0.187   2.353 -0.3038 -0.5554 -0.3786
    3CHTO   C65 1031   5.451   0.243   2.144 -0.2360  0.6138  0.2046
    3CHTO  H122 1032   5.398   0.207   2.056  0.1238 -2.1092  1.0592
    3CHTO   O44 1033   5.563   0.153   2.155  0.0237  0.0376 -0.5292
    3CHTO  H102 1034   5.585   0.122   2.069  0.4655 -1.7643  0.2009
    3CHTO   C63 1035   5.485   0.393   2.112 -0.2085  0.8913  0.2000
    3CHTO  H120 1036   5.399   0.437   2.061  2.0320  3.1583 -1.7423
    3CHTO   N11 1037   5.588   0.424   2.008 -0.6477  0.0711  0.0868
    3CHTO  H108 1038   5.625   0.329   1.976 -1.4315 -0.3744  0.4965
    3CHTO  H109 1039   5.557   0.487   1.928  0.2953 -0.4284 -0.6739
    3CHTO   C61 1040   5.512   0.458   2.249 -0.1307 -0.6614 -0.3436
    3CHTO  H118 1041   5.540   0.563   2.230  3.1540 -1.4342 -0.0221
    3CHTO   O40 1042   5.397   0.456   2.334 -0.5283  0.3941  0.0967
    3CHTO   C68 1043   5.290   0.356   2.306 -0.3930 -0.4263 -0.3347
    3CHTO  H125 1044   5.232   0.396   2.219 -1.6307  2.4053  1.7134
    3CHTO   C72 1045   5.205   0.360   2.433 -0.7083  0.3820  0.0968
    3CHTO   O48 1046   5.280   0.321   2.551 -0.0745  0.4054 -0.1982
    3CHTO  H105 1047   5.314   0.234   2.541 -3.0407 -0.5776 -2.2829
    3CHTO   O38 1048   5.628   0.402   2.314 -0.1363  0.3790 -0.1109
    3CHTO   C55 1049   5.639   0.374   2.456 -0.2290  0.1333  0.1196
    3CHTO  H112 1050   5.545   0.346   2.505 -1.3251 -2.9715 -3.5735
    3CHTO   C56 1051   5.714   0.499   2.529 -0.4357  0.2055  0.3537
    3CHTO  H113 1052   5.807   0.522   2.474  1.4857 -1.1816  2.9216
    3CHTO   O42 1053   5.634   0.616   2.513  0.2969 -0.0209 -0.2403
    3CHTO  H100 1054   5.594   0.614   2.428 -0.7771 -1.2604  0.2887
    3CHTO   C57 1055   5.750   0.462   2.675  0.6761  0.5949  0.6352
    3CHTO  H114 1056   5.656   0.451   2.730  0.7001  2.2864  1.0468
    3CHTO   N10 1057   5.824   0.565   2.749 -0.1027  0.1464 -0.2520
    3CHTO  H106 1058   5.793   0.662   2.712 -0.1758  0.5729  0.8908
    3CHTO  H107 1059   5.931   0.560   2.735 -0.2520 -2.1222 -0.6431
    3CHTO   C58 1060   5.828   0.331   2.689  0.0737  0.7295  0.0302
    3CHTO  H115 1061   5.924   0.343   2.634  0.5051  0.8107  0.7925
    3CHTO   O37 1062   5.741   0.243   2.627  0.1324  0.4181 -0.1611
    3CHTO   C59 1063   5.730   0.251   2.487 -0.8338  0.4450 -0.1635
    3CHTO  H116 1064   5.831   0.264   2.447  0.4192  0.5674  2.8990
    3CHTO   C70 1065   5.671   0.118   2.442 -0.0439 -0.7439  0.2433
    3CHTO   O46 1066   5.745   0.002   2.475  0.3555 -0.0551 -0.8989
    3CHTO  H103 1067   5.715  -0.030   2.558  0.8172 -1.5190 -1.2830
    3CHTO   O39 1068   5.845   0.282   2.853 -0.2439 -0.4589  0.5899
    3CHTO   C60 1069   5.895   0.148   2.870  0.9430  0.3191  0.0424
    3CHTO  H117 1070   5.836   0.074   2.816  1.2628 -1.1700  1.6998
    3CHTO   C62 1071   6.036   0.127   2.817  0.0146  0.2705 -0.2641
    3CHTO  H119 1072   6.027   0.150   2.709  1.8265  2.1222 -0.0684
    3CHTO   O43 1073   6.125   0.222   2.880 -0.1784  0.3989  0.0041
    3CHTO  H101 1074   6.165   0.198   2.961 -0.2855 -0.0336 -0.0699
    3CHTO   C66 1075   6.086  -0.024   2.835 -0.2598  0.1451 -0.7270
    3CHTO  H123 1076   6.018  -0.093   2.786 -0.7426 -0.0547  0.2189
    3CHTO   N12 1077   6.215  -0.052   2.765  0.5863  0.0551  0.6625
    3CHTO  H110 1078   6.216  -0.009   2.666 -1.6569 -2.0334 -0.3250
    3CHTO  H111 1079   6.264  -0.146   2.787  2.7344  1.0598  0.2935
    3CHTO   C69 1080   6.087  -0.060   2.986 -0.1499 -0.8867  0.2220
    3CHTO  H126 1081   6.158   0.004   3.042 -1.5121 -0.4022  1.4246
    3CHTO   O41 1082   5.924  -0.031   3.048  0.2044  0.1223 -0.1891
    3CHTO   C64 1083   5.875   0.112   3.022  0.2132  0.2160 -0.0378
    3CHTO  H121 1084   5.924   0.192   3.081  0.1577  0.9305 -0.9437
    3CHTO   C71 1085   5.720   0.112   3.065 -0.6476  0.5179  0.0493
    3CHTO   O47 1086   5.653   0.233   3.053 -0.3496 -0.1105  0.1114
    3CHTO  H104 1087   5.600   0.231   2.976 -0.2251  0.4579  0.0085
    3CHTO   O34 1088   6.122  -0.216   3.021  0.0050 -0.0681  0.1403
    3CHTO   C49 1089   6.228  -0.345   3.012 -0.8287  0.6210  0.6135
    3CHTO   H91 1090   6.272  -0.335   2.913  1.6924  0.3362  1.6727
    3CHTO   C47 1091   6.149  -0.475   3.029  0.5625 -0.6241  0.0668
    3CHTO   H89 1092   6.105  -0.493   2.928 -1.0268  0.8004  0.4811
    3CHTO   O33 1093   6.039  -0.462   3.120  0.3558 -0.0764 -0.0087
    3CHTO   H70 1094   5.980  -0.392   3.101 -0.5605 -0.6016  0.8768
    3CHTO   C45 1095   6.233  -0.607   3.071 -0.0838 -0.5708 -0.1889
    3CHTO   H87 1096   6.226  -0.620   3.181  1.9233 -2.8579 -0.2764
    3CHTO    N8 1097   6.188  -0.734   3.006 -0.4770  0.0305 -0.6098
    3CHTO   H75 1098   6.169  -0.727   2.900 -1.1982 -2.7503 -0.7131
    3CHTO   H76 1099   6.102  -0.771   3.060  1.6110  0.1395  2.9660
    3CHTO   C43 1100   6.387  -0.581   3.043  0.3859 -0.5445 -0.0299
    3CHTO   H85 1101   6.447  -0.667   3.074 -2.6616 -2.2390  1.4145
    3CHTO   O29 1102   6.422  -0.461   3.115 -0.0971  0.0048  0.0906
    3CHTO   C50 1103   6.333  -0.348   3.123 -0.2319 -0.4000 -0.2299
    3CHTO   H92 1104   6.286  -0.356   3.222  1.3447  0.2804  0.5886
    3CHTO   C54 1105   6.419  -0.226   3.126  0.6905  0.1118  0.6413
    3CHTO   O36 1106   6.349  -0.101   3.150  0.0320 -0.4618 -0.1253
    3CHTO   H72 1107   6.270  -0.101   3.201 -0.3901  1.1880 -0.7593
    3CHTO   O27 1108   6.426  -0.565   2.904 -0.4573 -0.0849 -0.2237
    3CHTO   C37 1109   6.525  -0.562   2.792  0.4965 -0.9885 -0.5090
    3CHTO   H79 1110   6.628  -0.550   2.830  0.9648  2.2528 -2.5536
    3CHTO   C38 1111   6.517  -0.700   2.721  1.0539 -0.6164  0.0908
    3CHTO   H80 1112   6.412  -0.729   2.706  1.0342 -0.9667  0.8647
    3CHTO   O31 1113   6.567  -0.798   2.815 -0.8282  0.0658  0.0007
    3CHTO   H68 1114   6.534  -0.800   2.903  0.4323  0.3765  0.4993
    3CHTO   C39 1115   6.585  -0.700   2.579  0.1182 -0.7322 -0.6126
    3CHTO   H81 1116   6.690  -0.678   2.598 -0.3633 -0.9304  2.5859
    3CHTO    N7 1117   6.568  -0.835   2.515 -0.2207  0.2217 -0.1512
    3CHTO   H73 1118   6.462  -0.838   2.491 -0.7720 -1.3608  2.2925
    3CHTO   H74 1119   6.604  -0.905   2.588  2.3653  1.8357  0.1759
    3CHTO   C40 1120   6.528  -0.583   2.487 -0.7979  0.0364 -0.0001
    3CHTO   H82 1121   6.421  -0.587   2.466 -0.7867  1.5263 -0.4481
    3CHTO   O26 1122   6.561  -0.465   2.563 -0.3772 -0.2097 -1.0026
    3CHTO   C41 1123   6.488  -0.447   2.690  0.1909  0.8573 -0.2197
    3CHTO   H83 1124   6.380  -0.449   2.666 -0.2236 -3.1819  1.5369
    3CHTO   C52 1125   6.522  -0.317   2.749 -0.4950 -0.2372 -0.2055
    3CHTO   O35 1126   6.548  -0.200   2.641  0.0282  0.2190  0.0686
    3CHTO   H71 1127   6.494  -0.195   2.564 -0.7375  1.5107  0.6622
    3CHTO   O28 1128   6.603  -0.581   2.360 -0.0592 -0.1049 -0.0647
    3CHTO   C42 1129   6.613  -0.474   2.257  0.4256 -0.3633 -0.2978
    3CHTO   H84 1130   6.665  -0.525   2.176 -2.6942 -1.9316 -1.4069
    3CHTO   C44 1131   6.705  -0.351   2.298  0.1695  0.4312  0.1978
    3CHTO   H86 1132   6.667  -0.312   2.393 -2.2451  1.5255 -1.1672
    3CHTO   O32 1133   6.840  -0.390   2.322 -0.4080 -0.5106 -0.3230
    3CHTO   H69 1134   6.870  -0.434   2.245 -1.5348  1.2517 -1.8098
    3CHTO   C48 1135   6.693  -0.230   2.201  0.2808 -0.0686 -0.4082
    3CHTO   H90 1136   6.762  -0.261   2.123  0.9090 -3.6917  1.4414
    3CHTO    N9 1137   6.748  -0.106   2.257 -0.1281  0.0030 -0.3815
    3CHTO   H77 1138   6.701  -0.075   2.349  1.6144 -1.2228  0.9428
    3CHTO   H78 1139   6.852  -0.121   2.278 -0.0426  1.7481  0.5603
    3CHTO   C51 1140   6.549  -0.209   2.136  0.1866 -0.4717  0.3627
    3CHTO   H93 1141   6.479  -0.172   2.210 -1.9420 -0.4915 -1.6051
    3CHTO   O30 1142   6.502  -0.333   2.083  0.2238 -0.3486  0.5179
    3CHTO   C46 1143   6.472  -0.433   2.200  0.1385 -0.0461 -0.1951
    3CHTO   H88 1144   6.420  -0.383   2.282  0.3495 -0.8183  0.4079
    3CHTO   C53 1145   6.394  -0.564   2.148 -0.1839 -0.1795 -0.1493
    3CHTO   O72 1146   6.451  -0.605   2.027 -0.0788 -0.5276  0.2872
    3CHTO  H199 1147   6.409  -0.686   2.005  1.0511 -1.4075  1.3195
    3CHTO   O22 1148   6.555  -0.115   2.027  0.4123 -0.0002 -0.3716
    3CHTO   C31 1149   6.462  -0.003   2.007  0.0068  0.0581  0.9861
    3CHTO   H59 1150   6.366  -0.039   2.049  1.0675 -2.2554  1.5099
    3CHTO   C29 1151   6.497   0.124   2.083  0.1468 -0.0912  0.6662
    3CHTO   H57 1152   6.605   0.148   2.080 -0.7879  4.2375 -1.1671
    3CHTO   O21 1153   6.476   0.102   2.222  0.1317 -0.1810 -0.4486
    3CHTO   H37 1154   6.394   0.060   2.237  0.4892 -1.4871 -1.9455
    3CHTO   C27 1155   6.412   0.244   2.028 -0.4747 -0.4603  0.1069
    3CHTO   H55 1156   6.305   0.228   2.050 -0.4884 -0.2126  0.2214
    3CHTO    N5 1157   6.461   0.374   2.081 -0.5187  0.1175  0.5404
    3CHTO   H43 1158   6.539   0.354   2.153  0.2685 -1.1124 -0.6102
    3CHTO   H44 1159   6.384   0.442   2.114 -1.0998  0.3742 -1.2936
    3CHTO   C25 1160   6.413   0.255   1.871  0.1463  0.4052  0.3544
    3CHTO   H53 1161   6.512   0.278   1.828  0.3231  0.3548  0.7264
    3CHTO   O17 1162   6.358   0.128   1.821  0.3822  0.8309 -0.4358
    3CHTO   C32 1163   6.438   0.015   1.853 -0.5311  0.0087 -0.7477
    3CHTO   H60 1164   6.536   0.024   1.807 -1.0174 -0.4077 -1.8913
    3CHTO   C36 1165   6.376  -0.114   1.794  0.2934 -0.2607 -0.2847
    3CHTO   O25 1166   6.246  -0.141   1.844  0.3143  0.6726 -0.6955
    3CHTO   H40 1167   6.200  -0.193   1.782  0.7351  0.8390 -1.1504
    3CHTO   O15 1168   6.306   0.384   1.812  0.7354 -0.0576  0.1852
    3CHTO   C19 1169   6.236   0.438   1.693  0.2264 -0.1553  0.0108
    3CHTO   H47 1170   6.175   0.357   1.649 -0.5425  1.0162 -1.1290
    3CHTO   C20 1171   6.130   0.549   1.723 -0.0184 -0.9022 -0.0428
    3CHTO   H48 1172   6.180   0.641   1.757 -1.9763  1.1272 -2.4803
    3CHTO   O19 1173   6.047   0.519   1.834  0.4756 -0.2600  0.0882
    3CHTO   H35 1174   6.105   0.482   1.897 -0.6924 -1.3880  0.5235
    3CHTO   C21 1175   6.042   0.597   1.596  0.7802  0.2906 -0.1284
    3CHTO   H49 1176   5.988   0.509   1.561  2.1247 -2.0850  3.5423
    3CHTO    N4 1177   5.947   0.707   1.618 -1.1362  0.7584  0.2656
    3CHTO   H41 1178   6.001   0.800   1.630 -0.2119  0.2058  0.3942
    3CHTO   H42 1179   5.861   0.707   1.683  0.4702 -0.3996  2.4179
    3CHTO   C22 1180   6.130   0.623   1.473  0.1181 -0.0341 -0.5160
    3CHTO   H50 1181   6.188   0.714   1.489 -0.7041  0.3231  0.4969
    3CHTO   O14 1182   6.231   0.514   1.463  0.7325 -0.1676 -0.1271
    3CHTO   C23 1183   6.320   0.494   1.576 -0.0424 -0.7047 -0.9879
    3CHTO   H51 1184   6.368   0.590   1.602 -3.1061  0.7238 -0.4615
    3CHTO   C34 1185   6.429   0.386   1.537  0.0834 -0.4655  0.6389
    3CHTO   O23 1186   6.517   0.450   1.439 -0.6038  0.1200 -0.0804
    3CHTO   H38 1187   6.460   0.481   1.371  0.9744 -0.5756 -1.7644
    3CHTO   O16 1188   6.066   0.624   1.343  0.4011  0.1039 -0.4530
    3CHTO   C24 1189   6.089   0.762   1.240  0.0684  0.0297  0.4518
    3CHTO   H52 1190   6.137   0.845   1.293 -0.3814  1.6832 -1.6628
    3CHTO   C26 1191   5.941   0.795   1.199 -0.2269  0.3157  0.0692
    3CHTO   H54 1192   5.903   0.713   1.134  0.9577  0.6933 -1.1113
    3CHTO   O20 1193   5.852   0.819   1.310 -0.3786  0.3270  0.1864
    3CHTO   H36 1194   5.858   0.741   1.362  1.7970 -0.5408 -1.3074
    3CHTO   C30 1195   5.938   0.912   1.100 -0.7192 -0.2882 -0.2498
    3CHTO   H58 1196   5.957   1.008   1.150  1.1701  0.2895 -2.0286
    3CHTO    N6 1197   5.806   0.939   1.040  0.1413  0.9646 -0.6455
    3CHTO   H45 1198   5.736   0.869   1.081  1.2246 -0.7310 -1.6192
    3CHTO   H46 1199   5.774   1.038   1.071  0.1543  1.2595 -1.5456
    3CHTO   C33 1200   6.039   0.899   0.980 -0.2435  0.1435  0.4300
    3CHTO   H61 1201   5.999   0.820   0.914 -0.7975 -0.7126  1.7674
    3CHTO   O18 1202   6.167   0.848   1.036 -0.7690  0.0623 -0.8170
    3CHTO   C28 1203   6.170   0.726   1.115 -0.2255 -0.0222  0.0967
    3CHTO   H56 1204   6.125   0.641   1.064 -0.4112 -0.9651  1.8133
    3CHTO   C35 1205   6.309   0.687   1.161  0.1266  0.0898 -0.0784
    3CHTO   O24 1206   6.389   0.670   1.041  0.0248  0.3674 -0.5804
    3CHTO   H39 1207   6.459   0.613   1.063 -0.5859 -0.3663 -0.5046
    3CHTO    O9 1208   6.063   1.018   0.903 -0.1412  0.0692  0.0079
    3CHTO   C13 1209   6.181   1.118   0.930  0.0433 -0.1547 -0.6179
    3CHTO   H26 1210   6.271   1.058   0.904  1.2607  1.2373  0.3094
    3CHTO   C11 1211   6.184   1.177   1.076  0.3070 -0.0195  0.6840
    3CHTO   H24 1212   6.190   1.086   1.138  0.2844 -0.6973 -0.2834
    3CHTO    O8 1213   6.063   1.245   1.103 -0.1479  0.1073  0.3357
    3CHTO    H3 1214   6.061   1.336   1.080 -1.0642 -0.0143 -0.1137
    3CHTO    C9 1215   6.320   1.254   1.091 -0.6051  0.0923 -0.0430
    3CHTO   H22 1216   6.401   1.180   1.081  2.2104  3.2484 -2.0493
    3CHTO    N2 1217   6.342   1.299   1.236 -0.3659 -0.5780 -0.0913
    3CHTO   H10 1218   6.349   1.221   1.310 -1.3269  0.7362  1.4374
    3CHTO   H11 1219   6.423   1.368   1.254 -0.9527 -0.7712  3.8994
    3CHTO    C7 1220   6.330   1.369   0.972 -0.6380  0.2729  0.2622
    3CHTO   H20 1221   6.416   1.339   0.910  0.8820 -2.7877  3.6819
    3CHTO    O4 1222   6.216   1.375   0.886  0.3243 -0.2399 -0.5215
    3CHTO   C14 1223   6.179   1.245   0.828 -0.2411 -0.2727  0.3077
    3CHTO   H27 1224   6.252   1.225   0.746 -1.2056  3.2800 -1.5151
    3CHTO   C18 1225   6.039   1.261   0.763 -0.1649  0.3192  0.3337
    3CHTO   O13 1226   5.931   1.302   0.846 -0.1220 -0.4632  0.0130
    3CHTO    H7 1227   5.856   1.333   0.799 -0.4655  0.5557  1.2031
    3CHTO    O2 1228   6.362   1.512   1.033 -0.1092  0.4604 -0.1422
    3CHTO    C1 1229   6.369   1.623   0.939 -0.5976 -0.6336 -0.1189
    3CHTO   H14 1230   6.332   1.603   0.837  0.6847  0.5540 -0.8423
    3CHTO    C2 1231   6.526   1.658   0.922  1.0914 -0.6239 -0.6495
    3CHTO   H15 1232   6.563   1.666   1.025  0.5088 -3.0516 -0.1947
    3CHTO    O6 1233   6.591   1.548   0.865 -0.5375  0.1971 -0.1228
    3CHTO    H1 1234   6.539   1.472   0.847 -1.4252  0.6865  0.3439
    3CHTO    C3 1235   6.538   1.795   0.830  0.2386 -0.0275 -0.2306
    3CHTO   H16 1236   6.503   1.777   0.727 -0.8848  2.0473 -0.2209
    3CHTO    N1 1237   6.684   1.831   0.816 -0.2884 -0.4446  0.1191
    3CHTO    H8 1238   6.726   1.742   0.771  1.9314 -0.8507  2.8339
    3CHTO    H9 1239   6.699   1.916   0.752  1.0776 -0.4535  0.4167
    3CHTO    C4 1240   6.453   1.906   0.891 -0.4847 -1.5349 -0.2724
    3CHTO   H17 1241   6.495   1.931   0.989 -1.9773 -1.6793  0.4250
    3CHTO    O1 1242   6.318   1.861   0.918  0.1632 -0.1924  0.5680
    3CHTO    C5 1243   6.291   1.750   1.005 -0.6413  0.2405  0.3287
    3CHTO   H18 1244   6.322   1.774   1.107 -2.3169 -0.6530  1.0633
    3CHTO   C16 1245   6.137   1.719   1.000  0.0433 -0.5172 -0.1960
    3CHTO   O11 1246   6.093   1.661   1.126  0.1384  0.7567  0.0075
    3CHTO    H5 1247   6.009   1.622   1.113 -0.1385  1.8839 -1.9379
    3CHTO    O3 1248   6.448   2.029   0.817  0.4233 -0.1370  0.7918
    3CHTO    C6 1249   6.395   2.147   0.884 -0.1322 -0.5772 -0.6565
    3CHTO   H19 1250   6.323   2.117   0.961 -0.8275  0.9569 -0.7043
    3CHTO    C8 1251   6.515   2.224   0.952  0.3869 -0.4766  0.3828
    3CHTO   H21 1252   6.597   2.237   0.880 -1.7135  1.0656 -1.8379
    3CHTO    O7 1253   6.582   2.140   1.058  0.2924 -0.3030 -0.1066
    3CHTO    H2 1254   6.649   2.184   1.107  0.4415 -0.8813  0.2141
    3CHTO   C12 1255   6.462   2.361   1.007 -1.0326  0.2268 -0.2315
    3CHTO   H25 1256   6.398   2.327   1.091 -0.4675 -1.2411 -0.3644
    3CHTO    N3 1257   6.573   2.451   1.053 -0.7372 -0.5223  0.0461
    3CHTO   H12 1258   6.514   2.540   1.064  0.3303  0.0323  1.4668
    3CHTO   H13 1259   6.621   2.431   1.147 -0.7143  1.2290  0.4267
    3CHTO   C15 1260   6.365   2.425   0.902  0.1522 -0.2208  0.4162
    3CHTO   H28 1261   6.417   2.468   0.818  0.7404  0.1307  0.9580
    3CHTO   O10 1262   6.277   2.539   0.981 -0.0570  0.3870  0.6402
    3CHTO    H4 1263   6.338   2.609   0.996  1.1173 -0.5796  0.4532
    3CHTO    O5 1264   6.263   2.340   0.856 -0.3060  0.1982 -0.4291
    3CHTO   C10 1265   6.318   2.232   0.783 -0.0977  0.0569 -0.8244
    3CHTO   H23 1266   6.383   2.274   0.706 -2.1441  2.1547 -1.4384
    3CHTO   C17 1267   6.199   2.163   0.718 -0.2189  0.0989 -0.7487
    3CHTO   O12 1268   6.126   2.237   0.619 -0.7456 -0.0447  0.3019
    3CHTO    H6 1269   6.101   2.317   0.661 -0.9025  0.7003 -1.1451
    4CHTO  H203 1270   5.665   6.244   0.112  0.0819  0.1282 -0.4727
    4CHTO   O82 1271   5.627   6.227   0.196  0.3500 -0.2626 -0.4322
    4CHTO  C123 1272   5.577   6.343   0.267 -0.1690  0.0586 -0.6971
    4CHTO  H227 1273   5.506   6.300   0.341 -1.9916  0.5827 -2.1043
    4CHTO   O77 1274   5.692   6.410   0.329 -0.1982  0.0072  0.7169
    4CHTO  C118 1275   5.656   6.523   0.408 -0.9044  0.4226 -0.3689
    4CHTO  H222 1276   5.570   6.500   0.472 -0.4890  1.4853  0.5806
    4CHTO  C125 1277   5.778   6.576   0.503 -0.5561 -0.0230  0.3040
    4CHTO   O84 1278   5.820   6.485   0.602  0.1591  0.0296  0.3037
    4CHTO  H205 1279   5.812   6.398   0.567  1.3044 -0.9056  2.2416
    4CHTO  C114 1280   5.615   6.637   0.310 -0.2530  0.0777  0.3651
    4CHTO  H218 1281   5.698   6.654   0.240 -1.3879 -2.1937 -1.6193
    4CHTO  C116 1282   5.483   6.590   0.240 -0.2988 -0.1761  0.0490
    4CHTO  H220 1283   5.410   6.587   0.324 -1.2982 -0.9320 -0.8416
    4CHTO   O79 1284   5.428   6.688   0.151 -0.1585  0.2570 -0.0256
    4CHTO  H201 1285   5.355   6.647   0.108 -0.0917 -2.1330  2.0271
    4CHTO  C120 1286   5.503   6.443   0.170 -0.3974  0.1560  0.0803
    4CHTO  H224 1287   5.568   6.466   0.083  1.5532 -1.6287  1.0446
    4CHTO   N21 1288   5.378   6.387   0.124 -0.2011  0.4705 -0.6920
    4CHTO  H211 1289   5.291   6.412   0.182 -0.3699  0.2044 -0.8329
    4CHTO  H212 1290   5.389   6.282   0.100 -0.5722  0.0923  0.7248
    4CHTO   O75 1291   5.581   6.764   0.374 -0.2125  0.3003  0.0696
    4CHTO  C112 1292   5.656   6.905   0.305 -0.6019 -0.3203 -0.7429
    4CHTO  H216 1293   5.662   6.890   0.196  1.4570 -0.2247 -0.6641
    4CHTO   O73 1294   5.792   6.910   0.365 -0.1249  0.1692  0.5767
    4CHTO  C113 1295   5.876   7.016   0.327 -0.4233  0.3132 -0.4412
    4CHTO  H217 1296   5.895   6.994   0.220  0.9993 -0.1133 -0.1142
    4CHTO  C124 1297   6.012   7.010   0.399 -0.0510  0.2716 -0.1053
    4CHTO   O83 1298   6.086   6.887   0.373  0.8578  0.3281  0.3540
    4CHTO  H204 1299   6.080   6.867   0.282 -0.0721 -3.8568  1.2587
    4CHTO  C109 1300   5.804   7.165   0.341 -0.3738 -1.0030  0.0041
    4CHTO  H213 1301   5.806   7.192   0.448 -0.0234 -0.7049 -0.0748
    4CHTO  C110 1302   5.656   7.163   0.287  0.1314  0.5936  0.3614
    4CHTO  H214 1303   5.646   7.169   0.179  0.9218  4.2943  0.4120
    4CHTO   O78 1304   5.595   7.282   0.341  0.0776 -0.1834  0.2673
    4CHTO  H200 1305   5.546   7.325   0.273 -0.1263 -1.1826 -0.2412
    4CHTO  C111 1306   5.580   7.035   0.338 -0.1670  0.0289 -0.5932
    4CHTO  H215 1307   5.572   7.042   0.448  3.2073  1.0250 -0.3528
    4CHTO   N19 1308   5.441   7.029   0.284 -0.4249 -0.1038  0.3486
    4CHTO  H207 1309   5.359   7.029   0.354 -2.4643  0.1935 -1.9832
    4CHTO  H208 1310   5.417   6.939   0.229 -1.6929  0.6422 -0.3498
    4CHTO   O74 1311   5.893   7.261   0.271  0.3373  0.4078  0.7377
    4CHTO  C115 1312   5.910   7.396   0.329 -0.3879 -0.5291 -0.4047
    4CHTO  H219 1313   5.812   7.439   0.352 -1.1295 -1.3341 -1.9819
    4CHTO   O76 1314   5.978   7.395   0.450 -0.1971  0.0758 -0.1966
    4CHTO  C122 1315   6.114   7.361   0.458  0.4776  0.8096  0.7329
    4CHTO  H226 1316   6.130   7.259   0.494  1.3911  0.4048 -0.7734
    4CHTO  C126 1317   6.170   7.460   0.572  0.3417 -0.6688  0.0384
    4CHTO   O85 1318   6.311   7.459   0.582 -0.6712 -0.2148  0.0852
    4CHTO  H206 1319   6.354   7.411   0.649 -0.9334  0.9770  1.1231
    4CHTO  C121 1320   6.193   7.377   0.322  0.0288 -0.1668 -0.8277
    4CHTO  H225 1321   6.298   7.405   0.343 -0.8756  3.1980 -0.3834
    4CHTO   O81 1322   6.194   7.251   0.263  0.7125  0.2314 -0.0080
    4CHTO  H202 1323   6.118   7.231   0.212 -0.5600 -1.1912  2.3261
    4CHTO  C119 1324   6.139   7.493   0.238 -0.2115 -0.4729 -0.4552
    4CHTO  H223 1325   6.152   7.585   0.295  1.0249 -1.5592  1.0640
    4CHTO  C117 1326   5.985   7.469   0.208 -0.6623  0.2287  1.0515
    4CHTO  H221 1327   5.969   7.406   0.121 -0.4458 -2.2059  2.7096
    4CHTO   N20 1328   5.915   7.600   0.179 -0.2693  0.0416 -0.6350
    4CHTO  H209 1329   5.887   7.656   0.267 -0.5637 -0.0654 -0.6607
    4CHTO  H210 1330   5.828   7.584   0.117  0.1578 -1.1813 -0.9264
    4CHTO   O80 1331   6.233   7.513   0.122 -0.0702  0.1266  0.0104
    4CHTO  C103 1332   6.315   7.652   0.115 -0.4333  0.5693  0.5118
    4CHTO  H190 1333   6.251   7.740   0.118 -2.0584 -0.6133  0.8583
    4CHTO  C101 1334   6.432   7.662   0.219  0.2047  0.5061  0.3155
    4CHTO  H188 1335   6.491   7.570   0.212  0.3295  0.5845  0.3223
    4CHTO   O68 1336   6.382   7.684   0.358 -0.7682  0.2380 -0.6624
    4CHTO  H168 1337   6.336   7.608   0.389 -1.5639  0.5661 -1.0143
    4CHTO   C99 1338   6.541   7.771   0.173 -0.4358 -0.1167  0.4446
    4CHTO  H186 1339   6.495   7.872   0.172 -1.0468 -0.3883 -0.6842
    4CHTO   N17 1340   6.666   7.768   0.253  0.4971 -0.3849 -0.1346
    4CHTO  H174 1341   6.717   7.673   0.256 -0.2615 -0.7820  0.3217
    4CHTO  H175 1342   6.729   7.854   0.236 -0.2819  0.2808  0.3376
    4CHTO   C97 1343   6.589   7.742   0.026  0.4179  0.0899 -0.4084
    4CHTO  H184 1344   6.633   7.642   0.027 -0.0631 -0.1217 -0.1422
    4CHTO   O64 1345   6.470   7.750  -0.060  0.4336 -0.2133 -0.0148
    4CHTO  C104 1346   6.377   7.647  -0.040  0.1049 -0.0673  0.1992
    4CHTO  H191 1347   6.421   7.549  -0.061 -1.2831 -0.6019 -0.2220
    4CHTO  C108 1348   6.265   7.655  -0.143 -0.1792  0.8240  0.0598
    4CHTO   O71 1349   6.186   7.771  -0.130  0.0637 -0.2017  0.8421
    4CHTO  H171 1350   6.119   7.763  -0.195  0.4437 -1.5369  0.6040
    4CHTO   O62 1351   6.683   7.845  -0.025  0.0138 -0.0444 -0.0455
    4CHTO   C91 1352   6.734   7.823  -0.163  0.2230  0.0282  0.2553
    4CHTO  H178 1353   6.678   7.735  -0.195 -2.7466  2.3649 -1.1546
    4CHTO   C92 1354   6.882   7.789  -0.160  0.2169 -0.6130  0.6239
    4CHTO  H179 1355   6.943   7.875  -0.131 -1.1095  0.7278 -0.5169
    4CHTO   O66 1356   6.909   7.687  -0.064 -0.6608  0.5887 -0.1493
    4CHTO  H166 1357   6.896   7.728   0.020  3.4687  0.7697  0.5126
    4CHTO   C93 1358   6.925   7.743  -0.307  0.1968  0.2249  0.4163
    4CHTO  H180 1359   6.896   7.637  -0.314  5.5147 -1.4792  2.2175
    4CHTO   N16 1360   7.072   7.742  -0.324 -0.4801  1.0097  0.0890
    4CHTO  H172 1361   7.102   7.714  -0.424 -1.5940 -1.9320  0.5329
    4CHTO  H173 1362   7.125   7.834  -0.305 -1.0097  0.8104  2.6134
    4CHTO   C94 1363   6.862   7.830  -0.429  0.2424 -0.4778 -0.1800
    4CHTO  H181 1364   6.929   7.908  -0.463  1.0438 -0.3963  1.5568
    4CHTO   O61 1365   6.726   7.875  -0.408 -0.0927 -0.4942  0.2352
    4CHTO   C95 1366   6.711   7.939  -0.280 -0.6089  0.1863 -0.1573
    4CHTO  H182 1367   6.786   8.017  -0.266 -1.3180  0.5277  1.9193
    4CHTO  C106 1368   6.567   8.000  -0.277  0.3727 -0.8621 -0.3028
    4CHTO   O69 1369   6.564   8.136  -0.331 -0.5479  0.7262  0.5286
    4CHTO  H169 1370   6.476   8.163  -0.317 -1.8756 -2.4687 -0.9784
    4CHTO   O63 1371   6.837   7.734  -0.556 -0.4933 -0.3576  0.5951
    4CHTO   C96 1372   6.918   7.784  -0.708  0.5338  0.2772  0.1852
    4CHTO  H183 1373   6.890   7.713  -0.785  0.4195  1.3220 -0.7492
    4CHTO   C98 1374   7.074   7.794  -0.708  0.2164  0.3960 -0.8462
    4CHTO  H185 1375   7.106   7.841  -0.614  1.4876 -0.8979 -0.6099
    4CHTO   O67 1376   7.125   7.656  -0.702  0.1100 -0.2901 -0.9405
    4CHTO  H167 1377   7.120   7.609  -0.783 -0.2519 -1.1524 -0.4179
    4CHTO  C102 1378   7.135   7.852  -0.840 -0.2882 -0.2315  0.1482
    4CHTO  H189 1379   7.157   7.768  -0.907  0.4279 -0.7195  0.9894
    4CHTO   N18 1380   7.268   7.900  -0.812 -0.1868 -0.1623 -0.3396
    4CHTO  H176 1381   7.270   7.968  -0.728  0.3090 -0.3245 -0.2162
    4CHTO  H177 1382   7.321   7.934  -0.900  0.9455 -0.9803  0.0139
    4CHTO  C105 1383   7.041   7.944  -0.919  0.4141 -0.0126  0.2044
    4CHTO  H192 1384   7.101   8.017  -0.973  1.5115  1.0589  2.7974
    4CHTO   O65 1385   6.939   8.003  -0.832  0.0931 -0.0228 -0.5644
    4CHTO  C100 1386   6.861   7.925  -0.747  0.3098 -0.3328 -0.5210
    4CHTO  H187 1387   6.843   7.985  -0.656 -1.0371  0.8470 -1.5331
    4CHTO  C107 1388   6.712   7.919  -0.796 -0.1549  0.7459 -0.3180
    4CHTO   O70 1389   6.699   7.864  -0.934 -0.0656  0.3119  0.3329
    4CHTO  H170 1390   6.774   7.853  -0.989 -2.4851 -3.1668 -2.4802
    4CHTO   O57 1391   6.980   7.844  -1.040 -0.3471 -0.0661  0.2232
    4CHTO   C85 1392   6.954   7.887  -1.175  0.6095  0.3372  0.3127
    4CHTO  H157 1393   6.919   7.992  -1.185  1.8144  0.9553  2.3400
    4CHTO   C83 1394   6.821   7.803  -1.226  0.2621  0.5665  0.1017
    4CHTO  H155 1395   6.739   7.835  -1.163 -1.5183 -1.3168 -1.1797
    4CHTO   O56 1396   6.841   7.658  -1.208  0.1405 -0.5412 -0.1317
    4CHTO  H135 1397   6.753   7.625  -1.215  0.0888 -1.0871  2.4278
    4CHTO   C81 1398   6.795   7.840  -1.378  0.2080  0.3880 -0.5313
    4CHTO  H153 1399   6.783   7.948  -1.384 -0.3759  0.5705  2.9552
    4CHTO   N14 1400   6.669   7.782  -1.431 -0.0058  1.0985 -0.0938
    4CHTO  H141 1401   6.580   7.814  -1.380 -0.3205  0.0317  0.0496
    4CHTO  H142 1402   6.666   7.805  -1.535 -0.7641 -0.2010 -0.3721
    4CHTO   C79 1403   6.922   7.801  -1.467 -0.5050 -0.8147 -0.9454
    4CHTO  H151 1404   6.911   7.833  -1.570 -0.3091 -0.0738 -0.7381
    4CHTO   O52 1405   7.027   7.880  -1.410  0.0854 -0.0039 -0.1546
    4CHTO   C86 1406   7.073   7.855  -1.273  0.4450  0.2482  0.1166
    4CHTO  H158 1407   7.101   7.747  -1.268 -2.0162 -0.4096  0.2906
    4CHTO   C90 1408   7.200   7.933  -1.253 -0.0773 -0.2794 -0.6813
    4CHTO   O60 1409   7.307   7.903  -1.346  0.3184  0.2723  0.1121
    4CHTO  H138 1410   7.336   7.815  -1.330 -0.5775 -0.2159 -0.8828
    4CHTO   O50 1411   6.955   7.664  -1.464  0.2632 -0.0805  0.0249
    4CHTO   C73 1412   7.006   7.578  -1.571  0.5774  0.2951 -0.0666
    4CHTO  H145 1413   7.054   7.640  -1.647  1.0009  2.1702  1.6684
    4CHTO   C74 1414   6.899   7.502  -1.652  0.5170 -1.0619  0.0943
    4CHTO  H146 1415   6.832   7.576  -1.699  0.7384 -0.6403  0.4416
    4CHTO   O54 1416   6.961   7.432  -1.762  0.3789  0.8445 -0.2545
    4CHTO  H133 1417   7.014   7.359  -1.738  0.7250  0.6901 -1.4665
    4CHTO   C75 1418   6.819   7.409  -1.549 -0.5930  0.6652 -1.2726
    4CHTO  H147 1419   6.772   7.473  -1.473  0.5083 -0.3216  0.2497
    4CHTO   N13 1420   6.709   7.329  -1.614  0.0685 -0.1941 -0.0796
    4CHTO  H139 1421   6.745   7.260  -1.690 -3.2768 -1.0441 -0.9540
    4CHTO  H140 1422   6.637   7.391  -1.665 -0.7337  0.9657  2.4111
    4CHTO   C76 1423   6.923   7.313  -1.468  0.0777 -0.0693  0.5228
    4CHTO  H148 1424   6.960   7.248  -1.547 -1.9754  0.1965 -0.7004
    4CHTO   O49 1425   7.033   7.388  -1.418 -0.1785 -0.1630  0.3363
    4CHTO   C77 1426   7.107   7.478  -1.513  0.0115  0.1659 -0.0389
    4CHTO  H149 1427   7.155   7.426  -1.596  1.1549 -1.2489  1.4770
    4CHTO   C88 1428   7.228   7.540  -1.442  0.0632 -0.1972 -0.1058
    4CHTO   O58 1429   7.305   7.638  -1.538 -0.0330  0.1194 -0.3729
    4CHTO  H136 1430   7.388   7.598  -1.554 -1.3278 -2.8846 -0.0185
    4CHTO   O51 1431   6.850   7.237  -1.328  0.3779 -0.3663 -0.5131
    4CHTO   C78 1432   6.935   7.126  -1.233 -0.0510 -0.3059 -0.1866
    4CHTO  H150 1433   6.876   7.099  -1.143 -0.9411 -1.9828 -1.2421
    4CHTO   C80 1434   7.078   7.175  -1.191  0.3595  0.2354  0.3329
    4CHTO  H152 1435   7.136   7.201  -1.282 -0.6654 -1.7266 -0.9291
    4CHTO   O55 1436   7.067   7.290  -1.103 -0.2467 -0.5453 -0.7768
    4CHTO  H134 1437   7.052   7.371  -1.148  3.2356  0.6462  0.0041
    4CHTO   C84 1438   7.161   7.061  -1.118 -0.0563 -0.4181  0.3369
    4CHTO  H156 1439   7.120   7.036  -1.020 -1.5242 -0.0673 -0.1693
    4CHTO   N15 1440   7.302   7.102  -1.092  0.0460  0.2777  0.4639
    4CHTO  H143 1441   7.336   7.039  -1.013 -0.7525  1.0506  1.4487
    4CHTO  H144 1442   7.305   7.206  -1.065  0.9479  0.9388 -1.9860
    4CHTO   C87 1443   7.166   6.926  -1.191 -0.4602  0.1314 -0.0635
    4CHTO  H159 1444   7.234   6.917  -1.275  0.9841 -0.1841  1.1115
    4CHTO   O53 1445   7.013   6.894  -1.237  0.4055 -0.4897  0.7706
    4CHTO   C82 1446   6.949   6.998  -1.315 -0.2671 -0.8633  0.1519
    4CHTO  H154 1447   6.995   7.018  -1.412  1.5638 -1.1879  0.9269
    4CHTO   C89 1448   6.822   6.920  -1.347  0.6070 -0.2784 -0.0799
    4CHTO   O59 1449   6.762   6.981  -1.466  0.2508  0.6285 -0.1605
    4CHTO  H137 1450   6.796   6.947  -1.547 -2.0306 -2.3883  0.0776
    4CHTO   O45 1451   7.205   6.805  -1.076  0.2100 -0.1117  0.5724
    4CHTO   C67 1452   7.218   6.674  -1.118 -0.3598  0.6879 -0.2860
    4CHTO  H124 1453   7.250   6.672  -1.222  1.4038 -0.4604  0.2701
    4CHTO   C65 1454   7.332   6.617  -1.032 -0.3117 -0.0142 -0.0996
    4CHTO  H122 1455   7.408   6.695  -1.026 -0.9593  0.9343 -3.5349
    4CHTO   O44 1456   7.392   6.501  -1.102 -0.1135  0.2197 -0.2834
    4CHTO  H102 1457   7.460   6.538  -1.155  1.6439 -2.3614  0.0759
    4CHTO   C63 1458   7.290   6.589  -0.878 -0.5033  0.0169 -0.1823
    4CHTO  H120 1459   7.269   6.685  -0.831 -1.1269 -1.1673  1.9775
    4CHTO   N11 1460   7.399   6.540  -0.783  0.9000  0.1015  0.0727
    4CHTO  H108 1461   7.426   6.437  -0.792 -1.8435 -0.5630 -0.8980
    4CHTO  H109 1462   7.369   6.544  -0.680  0.3776  1.7453 -0.1276
    4CHTO   C61 1463   7.152   6.509  -0.863  0.1525  0.8339 -0.6324
    4CHTO  H118 1464   7.108   6.538  -0.767 -0.8601  0.1821 -0.8851
    4CHTO   O40 1465   7.054   6.556  -0.961  0.2415 -0.0087 -0.1370
    4CHTO   C68 1466   7.084   6.593  -1.105  0.1854 -0.0818  0.6665
    4CHTO  H125 1467   7.004   6.657  -1.149  1.8366  0.2932 -1.9026
    4CHTO   C72 1468   7.100   6.471  -1.190 -0.1844  0.3653  0.5242
    4CHTO   O48 1469   6.980   6.433  -1.254  0.3383 -0.4414  0.1947
    4CHTO  H105 1470   6.937   6.355  -1.222  0.9804 -0.0953  1.9680
    4CHTO   O38 1471   7.160   6.364  -0.872  0.3663  0.0305 -0.4120
    4CHTO   C55 1472   7.056   6.288  -0.798  0.5106 -0.3521  0.0560
    4CHTO  H112 1473   6.962   6.345  -0.804 -0.0055 -1.3624 -1.7194
    4CHTO   C56 1474   7.099   6.260  -0.650  0.3624  0.2282  0.1250
    4CHTO  H113 1475   7.206   6.234  -0.647  0.9750  2.4298 -1.3899
    4CHTO   O42 1476   7.085   6.383  -0.572  0.0976 -0.0446  0.8015
    4CHTO  H100 1477   7.167   6.428  -0.579  0.7157 -1.1070  1.2351
    4CHTO   C57 1478   7.014   6.141  -0.588  0.5322  0.3535  0.7484
    4CHTO  H114 1479   6.916   6.186  -0.567  0.8636  1.7111 -0.5423
    4CHTO   N10 1480   7.081   6.099  -0.460  0.1544  0.3570 -0.6546
    4CHTO  H106 1481   7.038   6.009  -0.418 -0.8437  0.5608 -1.2203
    4CHTO  H107 1482   7.186   6.077  -0.477  0.1962 -0.1119  0.1711
    4CHTO   C58 1483   6.997   6.021  -0.687  0.2374 -0.2820  0.0478
    4CHTO  H115 1484   7.095   5.972  -0.705  0.6982  0.3843  0.7068
    4CHTO   O37 1485   6.945   6.073  -0.811 -0.4677  0.0245  0.4207
    4CHTO   C59 1486   7.035   6.158  -0.878  0.0136 -0.1703  0.0743
    4CHTO  H116 1487   7.124   6.099  -0.899  0.4001  0.3402  0.2709
    4CHTO   C70 1488   6.968   6.191  -1.012  0.0236 -0.6488  0.0164
    4CHTO   O46 1489   6.827   6.226  -0.996 -0.2958  0.0485 -0.1487
    4CHTO  H103 1490   6.822   6.309  -0.954  0.7522 -0.3152  0.7256
    4CHTO   O39 1491   6.893   5.902  -0.618  0.1342 -0.0011 -0.1444
    4CHTO   C60 1492   6.803   5.819  -0.696 -0.2489  0.0689  0.4287
    4CHTO  H117 1493   6.792   5.868  -0.793  0.9503 -1.2717 -0.3895
    4CHTO   C62 1494   6.865   5.674  -0.727 -0.1162  0.1780  0.2684
    4CHTO  H119 1495   6.950   5.691  -0.795 -1.3816 -0.4237 -1.5020
    4CHTO   O43 1496   6.912   5.623  -0.598 -0.0539 -0.0542  0.0051
    4CHTO  H101 1497   6.881   5.536  -0.584  3.2648 -0.9669  2.5704
    4CHTO   C66 1498   6.750   5.594  -0.803  0.1968  0.1797 -0.0056
    4CHTO  H123 1499   6.729   5.642  -0.898  0.3216  0.6964  0.2245
    4CHTO   N12 1500   6.798   5.458  -0.835 -0.1427 -0.4854 -0.0640
    4CHTO  H110 1501   6.786   5.437  -0.940  0.8107 -1.2255 -0.0296
    4CHTO  H111 1502   6.733   5.382  -0.795 -0.3428 -0.7506 -0.8866
    4CHTO   C69 1503   6.622   5.583  -0.722  0.7923  0.6718 -0.1518
    4CHTO  H126 1504   6.646   5.537  -0.625 -0.7129  2.6103  1.1856
    4CHTO   O41 1505   6.569   5.740  -0.694  0.0723  0.0784 -0.0264
    4CHTO   C64 1506   6.669   5.823  -0.627 -0.3820 -0.0546  0.9282
    4CHTO  H121 1507   6.690   5.800  -0.520  1.2861  0.2392  0.6756
    4CHTO   C71 1508   6.605   5.964  -0.643 -0.1679  0.8356  0.0813
    4CHTO   O47 1509   6.675   6.051  -0.566  0.2897 -0.5583  0.5018
    4CHTO  H104 1510   6.754   6.072  -0.611 -0.9842 -2.5895 -2.8465
    4CHTO   O34 1511   6.514   5.507  -0.806  0.2980 -0.5715 -0.3621
    4CHTO   C49 1512   6.350   5.553  -0.836  0.2996  0.4042  0.1786
    4CHTO   H91 1513   6.301   5.573  -0.741 -1.1620  1.1214 -0.6965
    4CHTO   C47 1514   6.283   5.438  -0.912 -0.0546 -0.1004 -0.1559
    4CHTO   H89 1515   6.180   5.476  -0.930  0.1104  0.9452  1.0423
    4CHTO   O33 1516   6.268   5.331  -0.818  0.1546  0.0267  0.0305
    4CHTO   H70 1517   6.225   5.257  -0.857  0.3667  1.6674 -3.5043
    4CHTO   C45 1518   6.355   5.401  -1.048 -0.4175 -0.1802  0.0839
    4CHTO   H87 1519   6.431   5.324  -1.031 -0.4383 -0.6521 -1.8581
    4CHTO    N8 1520   6.260   5.346  -1.145 -0.4419  0.1919 -0.2063
    4CHTO   H75 1521   6.167   5.401  -1.149 -1.5001 -1.1760  3.4726
    4CHTO   H76 1522   6.303   5.353  -1.243  1.2890  0.9553  0.5844
    4CHTO   C43 1523   6.436   5.527  -1.098 -0.5955 -0.3046  0.6937
    4CHTO   H85 1524   6.522   5.519  -1.032 -0.4743 -1.0497  0.4483
    4CHTO   O29 1525   6.356   5.644  -1.077  0.1494 -0.0177 -0.0085
    4CHTO   C50 1526   6.345   5.672  -0.934 -0.2601  0.4814  0.0323
    4CHTO   H92 1527   6.423   5.740  -0.897  0.1472  0.2263 -0.3533
    4CHTO   C54 1528   6.216   5.750  -0.898 -0.3236 -0.2519  0.6812
    4CHTO   O36 1529   6.218   5.856  -0.991 -0.0323  0.1131  0.2267
    4CHTO   H72 1530   6.140   5.907  -0.979 -1.0656 -1.3295 -0.1325
    4CHTO   O27 1531   6.481   5.519  -1.235  0.2825 -0.6076 -0.1591
    4CHTO   C37 1532   6.614   5.559  -1.273 -0.2636 -0.3437  0.3354
    4CHTO   H79 1533   6.618   5.559  -1.382 -0.6721  0.6569  0.3169
    4CHTO   C38 1534   6.652   5.697  -1.223 -0.3062  0.1216 -0.0283
    4CHTO   H80 1535   6.633   5.697  -1.115 -1.2735 -2.1057 -0.1618
    4CHTO   O31 1536   6.564   5.793  -1.294  0.1356 -0.7420  0.0613
    4CHTO   H68 1537   6.567   5.881  -1.263 -2.0117 -0.2973 -0.9527
    4CHTO   C39 1538   6.803   5.729  -1.238 -0.0986 -0.3305  0.3228
    4CHTO   H81 1539   6.820   5.731  -1.346 -0.9455  1.7182  0.2040
    4CHTO    N7 1540   6.835   5.865  -1.178 -1.2184  0.3512  0.1036
    4CHTO   H73 1541   6.779   5.869  -1.086 -0.9220 -0.5566  0.3243
    4CHTO   H74 1542   6.796   5.945  -1.240 -1.0711  1.3671  1.3155
    4CHTO   C40 1543   6.901   5.621  -1.180  0.1825 -0.6026  0.1369
    4CHTO   H82 1544   6.902   5.617  -1.071 -1.1455  0.2669  0.1955
    4CHTO   O26 1545   6.862   5.498  -1.237 -0.4636  0.7808  0.0620
    4CHTO   C41 1546   6.722   5.455  -1.214  0.2798 -0.4804  0.0501
    4CHTO   H83 1547   6.698   5.439  -1.108 -2.3913  0.9656 -0.3028
    4CHTO   C52 1548   6.702   5.321  -1.282 -0.5723 -0.6801  1.0470
    4CHTO   O35 1549   6.720   5.217  -1.199 -0.1854  0.2073  0.5510
    4CHTO   H71 1550   6.730   5.141  -1.254  2.5718  2.5561 -2.4160
    4CHTO   O28 1551   7.039   5.643  -1.219 -0.7032 -0.1498 -0.4279
    4CHTO   C42 1552   7.146   5.592  -1.133 -0.7401  0.3101  1.0504
    4CHTO   H84 1553   7.234   5.600  -1.198  0.0433  1.7739  2.2415
    4CHTO   C44 1554   7.139   5.444  -1.093  0.3919  0.5685  0.0165
    4CHTO   H86 1555   7.046   5.421  -1.040  1.0933 -2.4892 -0.0047
    4CHTO   O32 1556   7.129   5.377  -1.216  0.0321 -0.5343 -0.0764
    4CHTO   H69 1557   7.113   5.287  -1.196  0.0052 -0.4677  0.2023
    4CHTO   C48 1558   7.254   5.392  -1.000  0.7588 -0.4009  0.2163
    4CHTO   H90 1559   7.345   5.407  -1.057 -0.6570  0.2603 -1.9397
    4CHTO    N9 1560   7.238   5.246  -0.960  0.1413 -0.0519 -0.1707
    4CHTO   H77 1561   7.155   5.237  -0.892 -0.1150 -0.4384 -0.5359
    4CHTO   H78 1562   7.327   5.210  -0.910  0.8228  0.6336 -0.8835
    4CHTO   C51 1563   7.269   5.480  -0.875  0.7700  0.0881  0.1867
    4CHTO   H93 1564   7.169   5.479  -0.832  0.3495  0.3647 -0.7788
    4CHTO   O30 1565   7.297   5.611  -0.920  0.0217 -0.3609 -0.0109
    4CHTO   C46 1566   7.176   5.675  -1.001 -0.3255  0.7269 -0.3330
    4CHTO   H88 1567   7.094   5.682  -0.929  0.8456  1.5881  0.9492
    4CHTO   C53 1568   7.214   5.825  -1.021 -0.0969  0.2434 -0.1211
    4CHTO   O72 1569   7.346   5.843  -1.068  0.2538 -0.0003 -0.2946
    4CHTO  H199 1570   7.407   5.831  -0.998 -1.0839 -3.8862  0.3194
    4CHTO   O22 1571   7.380   5.455  -0.785  0.2433 -0.3685 -0.4836
    4CHTO   C31 1572   7.377   5.479  -0.643  0.0032 -0.4919 -0.8372
    4CHTO   H59 1573   7.473   5.441  -0.603  0.1047  1.0763  0.4784
    4CHTO   C29 1574   7.374   5.631  -0.610  0.1485  0.7947 -0.4586
    4CHTO   H57 1575   7.284   5.674  -0.657 -0.2810 -1.2037 -1.5785
    4CHTO   O21 1576   7.491   5.697  -0.670  0.5393 -0.2176  0.1545
    4CHTO   H37 1577   7.466   5.785  -0.690  1.5767 -0.1538 -0.9234
    4CHTO   C27 1578   7.360   5.658  -0.454  0.0275  0.2179 -0.0880
    4CHTO   H55 1579   7.452   5.629  -0.400 -0.5385  1.0655  1.3612
    4CHTO    N5 1580   7.335   5.806  -0.422 -0.4392  0.0159  0.1710
    4CHTO   H43 1581   7.361   5.822  -0.318 -0.2686  0.8391  0.0074
    4CHTO   H44 1582   7.241   5.847  -0.456  0.0821  0.4521 -0.7751
    4CHTO   C25 1583   7.245   5.566  -0.396 -0.2801 -0.7545 -0.5818
    4CHTO   H53 1584   7.149   5.609  -0.429  0.9890  2.5246 -0.1288
    4CHTO   O17 1585   7.266   5.423  -0.433 -0.0542  0.1407 -0.8103
    4CHTO   C32 1586   7.273   5.397  -0.573  0.1516  0.0244  0.4679
    4CHTO   H60 1587   7.172   5.420  -0.607 -0.1691 -1.3275  0.4907
    4CHTO   C36 1588   7.309   5.245  -0.595 -0.2875  0.2825  0.3316
    4CHTO   O25 1589   7.207   5.155  -0.562 -0.5832  0.0301 -0.3380
    4CHTO   H40 1590   7.176   5.184  -0.478 -1.2890 -1.0168 -0.2200
    4CHTO   O15 1591   7.235   5.571  -0.254  0.0164  0.5268  0.0266
    4CHTO   C19 1592   7.302   5.534  -0.130  0.6897 -0.2059  0.0670
    4CHTO   H47 1593   7.256   5.435  -0.118 -1.1316  0.4376 -1.4642
    4CHTO   C20 1594   7.461   5.509  -0.154 -0.0721 -0.0007  0.2908
    4CHTO   H48 1595   7.507   5.592  -0.210  0.7029 -1.1204 -0.7438
    4CHTO   O19 1596   7.479   5.393  -0.229  0.2607  0.8355  0.2384
    4CHTO   H35 1597   7.528   5.417  -0.306 -1.1431  2.0327 -0.2930
    4CHTO   C21 1598   7.537   5.497  -0.018 -0.3615 -0.0120  0.7288
    4CHTO   H49 1599   7.519   5.395   0.015 -1.4118  0.7618  2.6624
    4CHTO    N4 1600   7.685   5.504  -0.039  0.0408  0.4780 -0.2473
    4CHTO   H41 1601   7.729   5.407  -0.050  0.4004  0.4855  1.0405
    4CHTO   H42 1602   7.714   5.572  -0.118 -2.3424  1.9237  0.0485
    4CHTO   C22 1603   7.484   5.591   0.091  0.2342  0.2349 -0.0900
    4CHTO   H50 1604   7.511   5.695   0.072 -1.5738  0.3731 -2.1423
    4CHTO   O14 1605   7.339   5.586   0.100  0.2865  0.4088  0.5200
    4CHTO   C23 1606   7.257   5.624  -0.009  0.0819 -0.8795  0.2994
    4CHTO   H51 1607   7.270   5.732  -0.027  0.3103 -1.0603 -0.6200
    4CHTO   C34 1608   7.111   5.610   0.020 -0.5099 -0.2365 -0.0346
    4CHTO   O23 1609   7.076   5.718   0.112  0.6489 -0.3164 -0.1437
    4CHTO   H38 1610   7.014   5.690   0.177  2.7840 -1.8491  1.3221
    4CHTO   O16 1611   7.530   5.554   0.223 -0.6305  0.2499  0.4438
    4CHTO   C24 1612   7.602   5.694   0.308  0.2650 -0.5272 -0.2678
    4CHTO   H52 1613   7.601   5.787   0.251 -1.1912 -0.2103  0.2433
    4CHTO   C26 1614   7.753   5.652   0.331 -0.3603  0.7165  0.2910
    4CHTO   H54 1615   7.794   5.625   0.232 -0.1740  0.3414  0.4712
    4CHTO   O20 1616   7.834   5.756   0.386  0.3870  0.3079  0.2946
    4CHTO   H36 1617   7.847   5.825   0.324 -1.4531 -1.4386 -2.1451
    4CHTO   C30 1618   7.767   5.532   0.433 -0.1183  0.6177  0.5526
    4CHTO   H58 1619   7.835   5.566   0.512  1.9093  0.1371 -0.9202
    4CHTO    N6 1620   7.829   5.406   0.388 -0.2384 -0.2211 -0.1289
    4CHTO   H45 1621   7.923   5.410   0.441 -0.0071  1.8673 -0.6514
    4CHTO   H46 1622   7.855   5.419   0.284 -1.7178  0.7628 -0.3928
    4CHTO   C33 1623   7.628   5.509   0.505 -0.2869  0.4536 -0.3576
    4CHTO   H61 1624   7.549   5.457   0.448 -0.2271 -0.3294  0.2704
    4CHTO   O18 1625   7.581   5.636   0.544 -0.4871  0.1857 -0.0944
    4CHTO   C28 1626   7.521   5.720   0.442  0.2287 -0.7598 -0.7355
    4CHTO   H56 1627   7.416   5.693   0.429  0.3575 -1.6891  0.0797
    4CHTO   C35 1628   7.524   5.866   0.490  0.1668 -0.2893 -0.3852
    4CHTO   O24 1629   7.456   5.877   0.620 -0.6208 -0.2149  0.6561
    4CHTO   H39 1630   7.364   5.865   0.612 -0.6061 -1.2454  1.8740
    4CHTO    O9 1631   7.653   5.428   0.619  0.3462  0.4200  0.5835
    4CHTO   C13 1632   7.534   5.328   0.700 -0.1894  0.3448  0.1500
    4CHTO   H26 1633   7.476   5.271   0.625  1.4091 -1.1473  0.0304
    4CHTO   C11 1634   7.444   5.424   0.785 -0.2952  0.0590  0.1067
    4CHTO   H24 1635   7.399   5.496   0.715 -0.9273 -0.7989 -0.3799
    4CHTO    O8 1636   7.527   5.493   0.882 -0.0377  0.0587  0.3824
    4CHTO    H3 1637   7.582   5.554   0.838 -0.6752  1.4002  1.4074
    4CHTO    C9 1638   7.333   5.332   0.850 -0.3778  0.2426  0.2469
    4CHTO   H22 1639   7.277   5.285   0.767  0.8509 -0.3704 -0.2442
    4CHTO    N2 1640   7.232   5.416   0.913  0.0122 -0.0951 -0.5456
    4CHTO   H10 1641   7.141   5.407   0.856 -0.2004  1.9312 -0.5782
    4CHTO   H11 1642   7.221   5.398   1.019  0.3494  1.9842 -0.1343
    4CHTO    C7 1643   7.406   5.227   0.943 -0.1060 -0.2847 -0.0012
    4CHTO   H20 1644   7.370   5.129   0.905  2.4737 -1.3577  0.1546
    4CHTO    O4 1645   7.546   5.222   0.932 -0.2905 -0.1826  0.0168
    4CHTO   C14 1646   7.590   5.213   0.798 -0.5703  0.1087  0.8565
    4CHTO   H27 1647   7.546   5.117   0.764  2.3337 -1.4617  1.3942
    4CHTO   C18 1648   7.747   5.194   0.792 -0.5036 -0.5812 -0.0654
    4CHTO   O13 1649   7.790   5.078   0.862 -0.2182 -0.0950 -0.2934
    4CHTO    H7 1650   7.882   5.071   0.845 -0.5036 -0.6970 -1.7007
    4CHTO    O2 1651   7.361   5.238   1.107  0.1239  0.0223  0.0232
    4CHTO    C1 1652   7.456   5.221   1.208 -0.0597  0.3974  0.3460
    4CHTO   H14 1653   7.555   5.255   1.171  0.2929 -0.7874  0.1744
    4CHTO    C2 1654   7.462   5.072   1.264 -0.1468  0.7714 -0.2163
    4CHTO   H15 1655   7.360   5.035   1.279 -1.0259  2.5507 -1.6491
    4CHTO    O6 1656   7.504   4.995   1.154  0.0798  0.0857 -0.1459
    4CHTO    H1 1657   7.444   4.927   1.130 -2.6244  1.5901  2.1336
    4CHTO    C3 1658   7.556   5.064   1.394 -0.4317  0.9110  0.1937
    4CHTO   H16 1659   7.658   5.081   1.358 -0.6387 -0.4511 -1.0803
    4CHTO    N1 1660   7.541   4.925   1.461 -0.0189  0.2532 -0.2448
    4CHTO    H8 1661   7.631   4.890   1.510  1.2303  2.1507 -1.1688
    4CHTO    H9 1662   7.464   4.926   1.536 -0.4176 -2.6089 -0.5525
    4CHTO    C4 1663   7.523   5.175   1.498 -0.1909  0.4125 -0.0158
    4CHTO   H17 1664   7.432   5.151   1.553  0.3915 -0.3990  0.6031
    4CHTO    O1 1665   7.518   5.304   1.434 -0.3500  0.0659 -0.1186
    4CHTO    C5 1666   7.430   5.317   1.320  0.2109 -0.4892  0.0574
    4CHTO   H18 1667   7.329   5.293   1.352  0.3216  0.0331  0.8015
    4CHTO   C16 1668   7.438   5.470   1.287  0.2993 -0.3199 -0.1189
    4CHTO   O11 1669   7.359   5.550   1.369  0.2416  0.0888  0.9789
    4CHTO    H5 1670   7.270   5.540   1.340  0.7839  0.2544 -0.7452
    4CHTO    O3 1671   7.632   5.175   1.594  0.1630 -0.2052  0.2248
    4CHTO    C6 1672   7.599   5.213   1.736 -0.0756 -0.5273  0.6300
    4CHTO   H19 1673   7.503   5.264   1.738 -0.6130 -1.4681 -1.0904
    4CHTO    C8 1674   7.585   5.085   1.824  0.6010  0.1575 -0.1835
    4CHTO   H21 1675   7.671   5.021   1.808 -0.1506 -0.5603 -1.4643
    4CHTO    O7 1676   7.467   5.024   1.785  0.2044 -0.6681 -0.4049
    4CHTO    H2 1677   7.469   4.933   1.807  0.5180 -0.7036 -0.5757
    4CHTO   C12 1678   7.592   5.115   1.978  0.4288  0.0097  0.5490
    4CHTO   H25 1679   7.493   5.160   2.000 -0.4574 -2.0377  0.9088
    4CHTO    N3 1680   7.592   4.989   2.059 -0.2431 -0.6363 -0.1966
    4CHTO   H12 1681   7.517   4.915   2.035  0.5687 -1.0340 -1.5065
    4CHTO   H13 1682   7.576   5.030   2.158 -0.7867 -0.8370 -0.1981
    4CHTO   C15 1683   7.709   5.221   2.020  0.1453 -0.3598 -0.0588
    4CHTO   H28 1684   7.810   5.181   2.009  0.7498  0.1762  3.2240
    4CHTO   O10 1685   7.685   5.281   2.137  0.2027 -0.5899  0.1301
    4CHTO    H4 1686   7.684   5.220   2.208  2.9265  0.6737  1.3115
    4CHTO    O5 1687   7.698   5.333   1.934  0.5317  0.5502 -0.1687
    4CHTO   C10 1688   7.703   5.305   1.796 -0.2918 -0.5870  0.3851
    4CHTO   H23 1689   7.797   5.252   1.782  0.8576  1.1070  1.4943
    4CHTO   C17 1690   7.708   5.437   1.716  0.4559 -0.2195 -0.5917
    4CHTO   O12 1691   7.593   5.521   1.750  0.1176 -0.2805  0.7715
    4CHTO    H6 1692   7.599   5.601   1.701 -0.8505  0.4091  1.7239
    5CHTO  H203 1693   6.923   3.429   2.758 -1.3538 -2.0234 -2.7233
    5CHTO   O82 1694   6.857   3.490   2.731 -0.1383  0.5870 -0.0823
    5CHTO  C123 1695   6.744   3.481   2.819 -0.2369 -0.7544 -0.7476
    5CHTO  H227 1696   6.763   3.551   2.901 -1.6386 -0.9542 -0.2500
    5CHTO   O77 1697   6.635   3.535   2.742 -0.3892  1.0494 -0.4172
    5CHTO  C118 1698   6.508   3.549   2.817 -0.1097 -0.3539 -0.5611
    5CHTO  H222 1699   6.523   3.613   2.904 -0.8437 -1.7503  0.6246
    5CHTO  C125 1700   6.401   3.612   2.719  0.3200  0.3201 -0.2798
    5CHTO   O84 1701   6.293   3.674   2.784  0.3595 -0.2851  0.0939
    5CHTO  H205 1702   6.222   3.614   2.801 -0.9264  1.3727  0.8222
    5CHTO  C114 1703   6.465   3.406   2.862 -0.4674  0.2342 -0.1864
    5CHTO  H218 1704   6.454   3.340   2.776  0.2848 -0.0876 -0.0394
    5CHTO  C116 1705   6.574   3.337   2.944  0.2564  0.6775 -0.5047
    5CHTO  H220 1706   6.578   3.389   3.042  0.9111  1.7847 -1.1121
    5CHTO   O79 1707   6.527   3.205   2.980 -1.0579 -0.1636 -0.4092
    5CHTO  H201 1708   6.585   3.143   2.938 -0.6830  0.1580 -0.3680
    5CHTO  C120 1709   6.713   3.340   2.873  0.1438  0.1585 -0.1605
    5CHTO  H224 1710   6.707   3.265   2.791  2.7143  1.1033 -1.2576
    5CHTO   N21 1711   6.811   3.282   2.961  0.1130 -0.2258  0.5581
    5CHTO  H211 1712   6.792   3.301   3.065 -2.5240  3.5496 -0.4896
    5CHTO  H212 1713   6.819   3.177   2.940 -2.7087 -0.1562 -1.1142
    5CHTO   O75 1714   6.338   3.423   2.930 -0.0632 -0.0680  0.2847
    5CHTO  C112 1715   6.234   3.292   2.899 -0.1388 -0.5163  0.3717
    5CHTO  H216 1716   6.300   3.205   2.888  1.8095  1.0921 -1.2482
    5CHTO   O73 1717   6.156   3.320   2.779 -0.2378  0.1459  0.2552
    5CHTO  C113 1718   6.058   3.224   2.736 -0.0345  0.0004  0.1799
    5CHTO  H217 1719   6.111   3.140   2.686  0.0692  1.2984 -1.9350
    5CHTO  C124 1720   5.988   3.287   2.616 -0.1970 -0.0970 -0.4393
    5CHTO   O83 1721   6.080   3.313   2.508 -0.0902 -0.6571  0.0730
    5CHTO  H204 1722   6.034   3.290   2.430 -2.0608  1.3922  0.5702
    5CHTO  C109 1723   5.959   3.192   2.844  0.3135  0.2578 -0.6583
    5CHTO  H213 1724   5.893   3.279   2.853 -0.4348 -0.3526 -0.1501
    5CHTO  C110 1725   6.040   3.157   2.981  0.4815 -0.0326 -0.6299
    5CHTO  H214 1726   6.106   3.071   2.972 -1.6915 -1.9154  0.8321
    5CHTO   O78 1727   5.945   3.113   3.079 -0.0689 -0.1697 -0.3606
    5CHTO  H200 1728   5.858   3.149   3.085  0.1083 -0.2451  4.6921
    5CHTO  C111 1729   6.132   3.273   3.023  0.3699 -0.0221  0.4204
    5CHTO  H215 1730   6.072   3.363   3.042 -0.5445 -0.7959  1.2128
    5CHTO   N19 1731   6.220   3.244   3.143 -0.2086 -0.7081 -0.2913
    5CHTO  H207 1732   6.229   3.340   3.192  0.9712 -1.5080  1.0797
    5CHTO  H208 1733   6.165   3.194   3.221 -2.0687  0.7140 -0.6392
    5CHTO   O74 1734   5.886   3.068   2.811 -0.3688 -0.0472  0.6992
    5CHTO  C115 1735   5.771   3.077   2.707 -0.4168  0.2156 -0.1660
    5CHTO  H219 1736   5.754   3.179   2.672 -2.1576 -0.4984 -1.4583
    5CHTO   O76 1737   5.797   2.976   2.582 -0.0021 -0.5064  0.3711
    5CHTO  C122 1738   5.692   2.974   2.488 -0.2890  0.0120 -1.1215
    5CHTO  H226 1739   5.720   2.895   2.417 -0.5148 -0.4150 -0.7400
    5CHTO  C126 1740   5.683   3.106   2.405 -0.2223  0.5815 -0.7563
    5CHTO   O85 1741   5.603   3.090   2.287  0.0873 -0.1319 -0.0938
    5CHTO  H206 1742   5.597   3.173   2.245 -1.6532 -0.9111 -1.4385
    5CHTO  C121 1743   5.555   2.932   2.554  0.5835 -0.3261  0.3365
    5CHTO  H225 1744   5.479   2.946   2.474  0.3078  1.5028  0.8976
    5CHTO   O81 1745   5.545   2.802   2.603  0.5970 -0.2036  0.7345
    5CHTO  H202 1746   5.611   2.787   2.668 -0.4292 -0.1999  1.7911
    5CHTO  C119 1747   5.510   3.031   2.674 -0.4367  0.2820 -0.7584
    5CHTO  H223 1748   5.504   3.124   2.618  0.5886 -0.1869 -1.6416
    5CHTO  C117 1749   5.630   3.050   2.781 -0.1893  0.3109 -0.2275
    5CHTO  H221 1750   5.654   2.967   2.847 -0.3951  1.2761  1.0765
    5CHTO   N20 1751   5.590   3.154   2.881 -0.4887 -0.1703  0.1402
    5CHTO  H209 1752   5.657   3.167   2.965  0.2396 -1.5173 -0.2160
    5CHTO  H210 1753   5.593   3.242   2.819  0.6111  0.0584  0.5009
    5CHTO   O80 1754   5.353   3.015   2.745  0.2468 -0.4064 -0.1244
    5CHTO  C103 1755   5.297   2.893   2.763 -0.4846  0.4819 -0.2672
    5CHTO  H190 1756   5.318   2.841   2.670  1.0018  1.4513 -0.4845
    5CHTO  C101 1757   5.348   2.810   2.892 -0.8705  0.0310 -0.2481
    5CHTO  H188 1758   5.324   2.879   2.973 -0.6590  0.6141 -0.6774
    5CHTO   O68 1759   5.484   2.800   2.882 -0.0676  0.1046  0.2385
    5CHTO  H168 1760   5.535   2.879   2.887 -0.9935  0.7494 -0.3795
    5CHTO   C99 1761   5.266   2.684   2.917 -0.4035  0.4160  0.1356
    5CHTO  H186 1762   5.285   2.614   2.833  1.6629 -0.6794  1.4643
    5CHTO   N17 1763   5.301   2.611   3.042 -1.2748 -0.2069  0.4308
    5CHTO  H174 1764   5.336   2.509   3.045 -0.8728 -0.1686 -2.0679
    5CHTO  H175 1765   5.344   2.673   3.119  1.4563 -2.7270  1.0283
    5CHTO   C97 1766   5.117   2.718   2.920 -0.3404 -0.2585  0.4598
    5CHTO  H184 1767   5.091   2.765   3.015 -2.6834 -1.7011  0.5746
    5CHTO   O64 1768   5.077   2.796   2.805 -0.5410  0.2289  0.4325
    5CHTO  C104 1769   5.142   2.920   2.769 -0.1712 -0.1202 -0.3591
    5CHTO  H191 1770   5.120   2.997   2.844  0.1999 -1.3309  1.0003
    5CHTO  C108 1771   5.083   2.965   2.633  0.0682 -0.0837  0.1253
    5CHTO   O71 1772   5.089   2.861   2.532  0.2289  0.2085 -0.0326
    5CHTO  H171 1773   5.008   2.843   2.488 -1.5086 -0.0896  3.1253
    5CHTO   O62 1774   5.026   2.604   2.910  0.5709 -0.2925 -0.1323
    5CHTO   C91 1775   4.888   2.622   2.943 -0.5810 -0.4859 -0.2349
    5CHTO  H178 1776   4.880   2.720   2.988  3.3952 -1.1620  2.2334
    5CHTO   C92 1777   4.853   2.502   3.040  0.7897 -0.2352  0.3667
    5CHTO  H179 1778   4.922   2.513   3.125  0.5252  0.4765  0.4926
    5CHTO   O66 1779   4.728   2.523   3.103 -0.1153  0.3834 -0.2006
    5CHTO  H166 1780   4.656   2.540   3.045 -0.2064  0.6910  0.0060
    5CHTO   C93 1781   4.851   2.365   2.966  0.4427 -0.0081 -0.6919
    5CHTO  H180 1782   4.796   2.294   3.029 -0.3510  1.0914 -0.1335
    5CHTO   N16 1783   4.988   2.309   2.942  0.7447 -0.2682  0.2078
    5CHTO  H172 1784   5.036   2.366   2.863  0.7919 -0.0158  0.4198
    5CHTO  H173 1785   4.971   2.208   2.907  2.1337 -0.1380 -0.9049
    5CHTO   C94 1786   4.778   2.379   2.828  0.4430  0.6962 -0.3660
    5CHTO  H181 1787   4.848   2.373   2.744  0.3027  0.4661 -0.4637
    5CHTO   O61 1788   4.707   2.508   2.811 -0.7298  0.3128 -0.3015
    5CHTO   C95 1789   4.794   2.624   2.817  0.2875  0.5398  0.0927
    5CHTO  H182 1790   4.856   2.622   2.727  0.3026  0.6624  0.1001
    5CHTO  C106 1791   4.698   2.746   2.795  0.0789 -0.0184 -0.2953
    5CHTO   O69 1792   4.780   2.862   2.771 -0.0334  0.6237 -0.1275
    5CHTO  H169 1793   4.759   2.940   2.820 -1.3856  0.6941 -0.8006
    5CHTO   O63 1794   4.666   2.265   2.830 -0.4454  0.4981 -0.0135
    5CHTO   C96 1795   4.624   2.204   2.692  0.0292 -0.5993 -0.2981
    5CHTO  H183 1796   4.695   2.247   2.622  0.0655  0.2745  0.2664
    5CHTO   C98 1797   4.474   2.223   2.641 -0.2254 -0.0608 -0.0728
    5CHTO  H185 1798   4.409   2.159   2.702  0.3547  0.0115  0.6361
    5CHTO   O67 1799   4.434   2.358   2.669 -0.8552 -0.0182  0.2319
    5CHTO  H167 1800   4.345   2.380   2.690 -0.1091  2.3403  1.1060
    5CHTO  C102 1801   4.464   2.170   2.492 -0.3190  0.2910 -0.2596
    5CHTO  H189 1802   4.513   2.242   2.425 -1.5624  0.3347 -1.1370
    5CHTO   N18 1803   4.329   2.168   2.444 -0.0594 -0.0579  0.8778
    5CHTO  H176 1804   4.282   2.264   2.433 -2.7815 -1.4245 -0.0632
    5CHTO  H177 1805   4.320   2.118   2.349 -0.2992 -0.2163  0.9823
    5CHTO  C105 1806   4.521   2.028   2.480  0.1178  0.0796  0.9882
    5CHTO  H192 1807   4.449   1.952   2.512  0.3943 -1.6023 -2.1947
    5CHTO   O65 1808   4.644   2.003   2.557  0.6589  0.1633 -0.3234
    5CHTO  C100 1809   4.651   2.049   2.691  0.0451 -0.8699 -0.2469
    5CHTO  H187 1810   4.571   2.000   2.748  0.4281 -1.0473  0.1371
    5CHTO  C107 1811   4.785   2.018   2.762 -0.1480 -0.8739  0.5613
    5CHTO   O70 1812   4.893   2.090   2.696  0.1972  0.0167  0.5704
    5CHTO  H170 1813   4.975   2.046   2.703 -0.2229 -1.0135 -0.8463
    5CHTO   O57 1814   4.550   2.009   2.318  0.7167 -0.4290 -0.3179
    5CHTO   C85 1815   4.505   1.888   2.253  0.4063  0.1912  0.0363
    5CHTO  H157 1816   4.411   1.844   2.293  0.3246  1.7184  1.5563
    5CHTO   C83 1817   4.604   1.769   2.284 -0.6115  0.0432  0.1590
    5CHTO  H155 1818   4.609   1.761   2.392  2.9229 -1.5420 -0.0478
    5CHTO   O56 1819   4.736   1.808   2.241  0.0222 -0.0686  0.3108
    5CHTO  H135 1820   4.796   1.813   2.314 -1.8450  0.3041  1.8455
    5CHTO   C81 1821   4.549   1.640   2.217 -0.3081 -0.3764  0.1071
    5CHTO  H153 1822   4.443   1.631   2.241 -0.2680 -2.0352 -0.2565
    5CHTO   N14 1823   4.601   1.509   2.261 -0.3326  0.2418 -0.1319
    5CHTO  H141 1824   4.688   1.481   2.206 -0.8530 -3.3862  0.7386
    5CHTO  H142 1825   4.630   1.516   2.364 -0.8904 -0.5877  0.0839
    5CHTO   C79 1826   4.559   1.658   2.059  0.3750  0.2044  0.2875
    5CHTO  H151 1827   4.515   1.571   2.011 -3.7098  1.6847  1.1515
    5CHTO   O52 1828   4.473   1.763   2.022 -0.1630  0.0889 -0.2358
    5CHTO   C86 1829   4.496   1.897   2.090 -0.7224 -0.4321 -0.8339
    5CHTO  H158 1830   4.594   1.937   2.058 -0.7485 -0.1424 -0.5564
    5CHTO   C90 1831   4.394   2.007   2.052 -0.4243 -0.3082  0.7396
    5CHTO   O60 1832   4.249   1.991   2.067 -0.3384  0.5220 -0.4939
    5CHTO  H138 1833   4.202   2.071   2.081 -0.7051 -0.2417  3.3689
    5CHTO   O50 1834   4.694   1.685   2.012 -0.2665  0.8732 -0.8840
    5CHTO   C73 1835   4.781   1.674   1.900 -0.3411  0.5496  0.0260
    5CHTO  H145 1836   4.724   1.647   1.810  0.7368  0.4987 -0.6526
    5CHTO   C74 1837   4.896   1.571   1.929  0.7163 -0.1075 -0.1368
    5CHTO  H146 1838   4.847   1.474   1.948  0.2068 -0.3016 -2.2163
    5CHTO   O54 1839   4.957   1.550   1.800 -0.3158  0.0491  0.3098
    5CHTO  H133 1840   5.025   1.612   1.783 -1.9999  1.2917 -2.1121
    5CHTO   C75 1841   4.987   1.620   2.039  0.3564  0.0200 -0.5167
    5CHTO  H147 1842   4.934   1.613   2.136 -1.7533 -1.1866 -1.7266
    5CHTO   N13 1843   5.100   1.532   2.060 -0.0382  0.2388  0.2529
    5CHTO  H139 1844   5.150   1.526   1.964  0.4945 -0.3196  0.5613
    5CHTO  H140 1845   5.057   1.439   2.095  0.8949 -1.1876 -2.2184
    5CHTO   C76 1846   5.034   1.767   2.022  0.4312  0.1817 -0.1887
    5CHTO  H148 1847   5.101   1.784   1.937 -0.2905  0.0538 -0.7814
    5CHTO   O49 1848   4.920   1.855   1.993  0.5760  0.4644  0.0788
    5CHTO   C77 1849   4.852   1.811   1.876 -0.7771  0.7575  0.0200
    5CHTO  H149 1850   4.928   1.803   1.798  0.2672 -0.7734  1.1375
    5CHTO   C88 1851   4.758   1.919   1.821 -0.0317  0.2000  0.0567
    5CHTO   O58 1852   4.842   2.052   1.817  0.1143  0.1213 -0.0597
    5CHTO  H136 1853   4.802   2.121   1.768  0.6746  0.0841 -0.5796
    5CHTO   O51 1854   5.093   1.815   2.158 -0.1396 -0.2616  0.2837
    5CHTO   C78 1855   5.182   1.931   2.147  0.2971 -0.4293  0.2075
    5CHTO  H150 1856   5.155   1.991   2.057 -1.3155  0.4119  1.2290
    5CHTO   C80 1857   5.328   1.885   2.137 -0.8858  0.1002  0.4405
    5CHTO  H152 1858   5.354   1.815   2.219  1.4801  0.7173  0.2505
    5CHTO   O55 1859   5.338   1.810   2.015  0.4285  0.6029 -0.1253
    5CHTO  H134 1860   5.427   1.779   2.018  0.0248 -0.4745  1.7366
    5CHTO   C84 1861   5.434   2.006   2.145 -0.5532 -0.4049  0.0161
    5CHTO  H156 1862   5.411   2.064   2.055  0.9381  1.9964  1.1715
    5CHTO   N15 1863   5.576   1.956   2.136 -0.2985  0.1280  0.3755
    5CHTO  H143 1864   5.616   1.887   2.207 -0.8414 -1.1514 -0.5512
    5CHTO  H144 1865   5.645   2.034   2.114  0.6417 -0.4202  1.3431
    5CHTO   C87 1866   5.409   2.098   2.268 -0.5852  0.3296 -0.3559
    5CHTO  H159 1867   5.441   2.044   2.358 -0.4297 -0.2534 -0.7632
    5CHTO   O53 1868   5.243   2.136   2.278  0.1120  0.0134  0.4799
    5CHTO   C82 1869   5.157   2.023   2.273 -0.3507 -0.4410  0.0846
    5CHTO  H154 1870   5.165   1.958   2.361  1.4740 -0.3495  0.0155
    5CHTO   C89 1871   5.012   2.079   2.268 -0.8893  0.5866  0.1493
    5CHTO   O59 1872   4.961   2.128   2.392  0.1455 -0.5798  0.0006
    5CHTO  H137 1873   4.879   2.173   2.380  0.4207 -0.1963 -0.4447
    5CHTO   O45 1874   5.498   2.243   2.253  0.0685  0.1824  0.5085
    5CHTO   C67 1875   5.535   2.281   2.382 -0.5968  0.3656 -0.3677
    5CHTO  H124 1876   5.473   2.237   2.460 -1.7488  1.6637 -0.5184
    5CHTO   C65 1877   5.680   2.245   2.415  0.2705 -0.8524  0.3564
    5CHTO  H122 1878   5.713   2.161   2.354 -1.4760 -0.5467 -1.0711
    5CHTO   O44 1879   5.690   2.193   2.554  0.4726 -0.3304 -0.1318
    5CHTO  H102 1880   5.763   2.134   2.554  0.6076 -0.1625 -0.4876
    5CHTO   C63 1881   5.776   2.364   2.390 -0.4750  0.1133  0.2873
    5CHTO  H120 1882   5.751   2.411   2.295 -2.0888 -0.3286  0.4839
    5CHTO   N11 1883   5.921   2.333   2.383 -0.0093 -0.1459 -0.0849
    5CHTO  H108 1884   5.970   2.422   2.349 -0.8223  0.8698  1.3165
    5CHTO  H109 1885   5.962   2.304   2.477  1.3475 -1.9817 -1.2143
    5CHTO   C61 1886   5.739   2.479   2.500 -0.2711 -0.0614  0.4898
    5CHTO  H118 1887   5.775   2.576   2.464 -0.2978  0.5085  1.9403
    5CHTO   O40 1888   5.593   2.488   2.507  0.1154 -0.3441  0.7082
    5CHTO   C68 1889   5.515   2.438   2.391  0.3107  0.2605 -0.3008
    5CHTO  H125 1890   5.554   2.484   2.298  0.7460 -1.5897 -1.0559
    5CHTO   C72 1891   5.362   2.468   2.400 -0.2165 -0.4306  0.6419
    5CHTO   O48 1892   5.331   2.611   2.414 -0.4184 -0.0708  0.0357
    5CHTO  H105 1893   5.345   2.648   2.329 -1.0023 -0.2760 -0.1531
    5CHTO   O38 1894   5.780   2.438   2.632 -0.5017  0.6165 -0.0140
    5CHTO   C55 1895   5.748   2.536   2.729  0.0506 -0.3216 -0.4761
    5CHTO  H112 1896   5.674   2.610   2.696  0.7628 -0.0921 -1.5771
    5CHTO   C56 1897   5.883   2.603   2.776 -0.2441 -0.9132  0.6996
    5CHTO  H113 1898   5.936   2.526   2.834  2.2255  2.0217  2.4973
    5CHTO   O42 1899   5.972   2.647   2.669 -0.3166  0.7621  0.9380
    5CHTO  H100 1900   5.987   2.570   2.618 -0.4707 -0.7011  3.0379
    5CHTO   C57 1901   5.851   2.716   2.877  0.1043 -0.4610 -0.4332
    5CHTO  H114 1902   5.782   2.787   2.832  1.1256  0.8054 -0.0397
    5CHTO   N10 1903   5.968   2.792   2.928 -0.1997  0.4902  0.3114
    5CHTO  H106 1904   6.063   2.751   2.896 -0.9471 -0.9385 -0.0999
    5CHTO  H107 1905   5.961   2.791   3.036 -0.3390 -1.1829  0.3014
    5CHTO   C58 1906   5.770   2.652   2.991 -0.0892 -0.0336  0.4787
    5CHTO  H115 1907   5.838   2.587   3.050 -0.2196 -0.3678  0.2634
    5CHTO   O37 1908   5.663   2.570   2.951  0.6284  0.0530  0.2644
    5CHTO   C59 1909   5.699   2.467   2.859 -0.1007 -0.1090  0.2703
    5CHTO  H116 1910   5.780   2.408   2.902  2.5987  2.5223 -0.9701
    5CHTO   C70 1911   5.569   2.382   2.828 -0.0071 -0.2703  0.9219
    5CHTO   O46 1912   5.496   2.322   2.937 -0.0152 -0.5702 -0.2040
    5CHTO  H103 1913   5.534   2.238   2.953 -0.1028 -0.1322  2.5626
    5CHTO   O39 1914   5.712   2.763   3.095  0.0551 -0.3340 -0.5782
    5CHTO   C60 1915   5.634   2.721   3.208 -0.0487  0.5028 -0.0680
    5CHTO  H117 1916   5.530   2.711   3.177  0.5997  1.1245 -2.4859
    5CHTO   C62 1917   5.668   2.576   3.272 -0.8226 -0.4021 -0.0743
    5CHTO  H119 1918   5.653   2.507   3.187 -0.9821 -2.2034  1.3750
    5CHTO   O43 1919   5.805   2.584   3.313  0.3162 -0.4509 -0.0800
    5CHTO  H101 1920   5.805   2.658   3.370 -1.3870  0.3808 -1.1077
    5CHTO   C66 1921   5.582   2.536   3.400 -0.8450 -0.2925  0.2447
    5CHTO  H123 1922   5.480   2.518   3.369  0.3001 -2.1293 -2.6976
    5CHTO   N12 1923   5.625   2.403   3.447  0.1242  0.0735 -0.2132
    5CHTO  H110 1924   5.728   2.396   3.478  0.9096 -1.2276 -2.9335
    5CHTO  H111 1925   5.558   2.375   3.527 -0.7750  2.2056 -0.1871
    5CHTO   C69 1926   5.582   2.645   3.507  0.3005 -0.8490  0.1560
    5CHTO  H126 1927   5.681   2.657   3.555  0.0022  1.5823  0.2553
    5CHTO   O41 1928   5.547   2.772   3.442 -0.4217  0.1567  0.2043
    5CHTO   C64 1929   5.635   2.825   3.327 -0.0344  0.0360 -0.6887
    5CHTO  H121 1930   5.738   2.837   3.366 -0.8432  0.9824  1.2123
    5CHTO   C71 1931   5.587   2.971   3.290  0.7781 -1.0551  0.7693
    5CHTO   O47 1932   5.667   3.041   3.197  0.1777  0.3166 -0.2414
    5CHTO  H104 1933   5.605   3.057   3.128  0.8739  1.2273 -0.6610
    5CHTO   O34 1934   5.475   2.628   3.617  0.1308  0.1637 -0.0842
    5CHTO   C49 1935   5.387   2.670   3.716  0.5652  0.4007 -0.1050
    5CHTO   H91 1936   5.448   2.683   3.806  1.2214  1.6718 -0.7155
    5CHTO   C47 1937   5.282   2.560   3.723 -0.5588  0.1650  0.1684
    5CHTO   H89 1938   5.216   2.591   3.806 -0.8929  1.3984 -0.5348
    5CHTO   O33 1939   5.352   2.432   3.762  0.0261  0.4528 -0.1642
    5CHTO   H70 1940   5.281   2.373   3.779 -0.9923  1.0290 -2.1473
    5CHTO   C45 1941   5.203   2.568   3.579 -0.4651  0.3146  0.2165
    5CHTO   H87 1942   5.270   2.569   3.492 -2.5946 -0.8180 -1.5109
    5CHTO    N8 1943   5.115   2.451   3.562  0.5149  0.5854 -0.1628
    5CHTO   H75 1944   5.076   2.418   3.658  1.9293 -2.0159 -0.4399
    5CHTO   H76 1945   5.028   2.464   3.499  0.5065  4.2343  0.5072
    5CHTO   C43 1946   5.127   2.710   3.573  0.5779  0.1237 -0.1905
    5CHTO   H85 1947   5.083   2.710   3.474  2.8597  1.3909 -1.2421
    5CHTO   O29 1948   5.236   2.811   3.582  1.1862 -0.2248  0.0158
    5CHTO   C50 1949   5.330   2.813   3.691 -0.2415 -0.0403  0.1420
    5CHTO   H92 1950   5.418   2.873   3.666  0.8076 -2.0918 -1.1933
    5CHTO   C54 1951   5.274   2.875   3.820  0.6061 -0.7868  0.9299
    5CHTO   O36 1952   5.241   3.017   3.816 -0.8216 -0.0409  0.0888
    5CHTO   H72 1953   5.214   3.043   3.730  0.6718  2.0872  0.2177
    5CHTO   O27 1954   5.023   2.726   3.677 -0.3023  0.4238  0.7235
    5CHTO   C37 1955   4.913   2.777   3.762 -0.1120  0.0767  0.5246
    5CHTO   H79 1956   4.947   2.824   3.855 -0.3437  2.5200 -0.5617
    5CHTO   C38 1957   4.824   2.887   3.690 -0.0605 -0.0981 -1.0494
    5CHTO   H80 1958   4.795   2.844   3.593 -0.4910 -1.4579 -0.3249
    5CHTO   O31 1959   4.911   3.003   3.678  0.1507  0.3160  0.2182
    5CHTO   H68 1960   4.904   3.039   3.591  0.8822  0.1988  0.1102
    5CHTO   C39 1961   4.691   2.924   3.772  0.4891 -0.5512 -0.0768
    5CHTO   H81 1962   4.713   2.969   3.869 -0.3988  2.3338 -1.1624
    5CHTO    N7 1963   4.594   3.007   3.703  0.2155 -0.5162  0.1070
    5CHTO   H73 1964   4.620   3.035   3.602 -1.4631  1.4283  0.2034
    5CHTO   H74 1965   4.572   3.101   3.750 -1.5254 -0.3765 -0.9465
    5CHTO   C40 1966   4.615   2.793   3.820 -0.4778  0.1010 -0.1929
    5CHTO   H82 1967   4.579   2.746   3.729 -0.0327 -0.9737  0.1824
    5CHTO   O26 1968   4.715   2.712   3.889  0.6341  0.1391  0.3699
    5CHTO   C41 1969   4.817   2.658   3.794 -0.2510  0.5930  0.1988
    5CHTO   H83 1970   4.758   2.632   3.704 -2.4988  0.1869  1.7537
    5CHTO   C52 1971   4.883   2.525   3.847 -0.5407  0.0696  0.7970
    5CHTO   O35 1972   4.789   2.405   3.837  0.8804 -0.5447 -0.3957
    5CHTO   H71 1973   4.803   2.362   3.755 -0.3098  0.8613 -1.3581
    5CHTO   O28 1974   4.514   2.811   3.924  0.2143 -0.3856  0.0360
    5CHTO   C42 1975   4.435   2.698   3.971  0.2270  0.3980  0.4319
    5CHTO   H84 1976   4.334   2.738   3.979  0.5686  0.8173  2.9729
    5CHTO   C44 1977   4.473   2.647   4.121  0.2576  0.0647  0.6130
    5CHTO   H86 1978   4.581   2.645   4.133  0.3535  0.2350 -0.1813
    5CHTO   O32 1979   4.436   2.757   4.208  0.0337 -0.2337  0.5502
    5CHTO   H69 1980   4.350   2.741   4.244 -0.9006 -1.5509 -2.1595
    5CHTO   C48 1981   4.408   2.513   4.168  0.2189 -0.6213 -0.1779
    5CHTO   H90 1982   4.303   2.530   4.189  0.0976 -1.2271 -0.3055
    5CHTO    N9 1983   4.463   2.475   4.304 -0.3646 -0.2036 -0.1659
    5CHTO   H77 1984   4.556   2.422   4.290 -0.7572 -0.4845 -1.7263
    5CHTO   H78 1985   4.388   2.429   4.367 -0.7380 -0.6898 -0.9625
    5CHTO   C51 1986   4.433   2.407   4.054 -0.0052 -0.4008  0.6723
    5CHTO   H93 1987   4.542   2.404   4.043 -0.0108  0.5302  0.2557
    5CHTO   O30 1988   4.365   2.462   3.938 -0.2773  0.2491  0.1568
    5CHTO   C46 1989   4.426   2.577   3.877 -0.4008  0.3370  0.1228
    5CHTO   H88 1990   4.527   2.549   3.848 -0.9179 -1.5036  0.0200
    5CHTO   C53 1991   4.353   2.589   3.741  0.5767  0.0257 -0.1819
    5CHTO   O72 1992   4.220   2.634   3.762 -0.4351 -0.0861  0.4778
    5CHTO  H199 1993   4.183   2.644   3.676  0.8103  1.2273  0.0813
    5CHTO   O22 1994   4.368   2.282   4.068  0.4220  0.4813  0.1000
    5CHTO   C31 1995   4.439   2.167   4.022 -0.0247  0.6423 -0.2027
    5CHTO   H59 1996   4.369   2.083   4.041  0.6301 -0.1047 -1.0363
    5CHTO   C29 1997   4.475   2.170   3.870 -0.5355 -0.4906 -0.8268
    5CHTO   H57 1998   4.532   2.264   3.861  1.5577 -1.7565 -1.1496
    5CHTO   O21 1999   4.351   2.187   3.799 -0.4071  1.1934 -0.0809
    5CHTO   H37 2000   4.294   2.114   3.808 -0.6004  1.3687  0.1347
    5CHTO   C27 2001   4.561   2.050   3.818  0.1424 -0.2113  0.5318
    5CHTO   H55 2002   4.506   1.956   3.829  1.6140 -1.2308 -0.6151
    5CHTO    N5 2003   4.593   2.066   3.672  0.2427  0.3122  0.5007
    5CHTO   H43 2004   4.555   2.160   3.636 -0.1379  0.1342  0.4390
    5CHTO   H44 2005   4.697   2.065   3.644  0.3332 -1.8006  0.7712
    5CHTO   C25 2006   4.683   2.029   3.908 -0.0503  0.1984 -0.5985
    5CHTO   H53 2007   4.738   2.124   3.897  0.8106 -0.4300 -1.8746
    5CHTO   O17 2008   4.634   2.008   4.048 -0.5756 -0.1270  0.2739
    5CHTO   C32 2009   4.567   2.124   4.105  0.7466 -0.5698 -0.2937
    5CHTO   H60 2010   4.635   2.210   4.103  0.1281 -0.0456  0.5223
    5CHTO   C36 2011   4.523   2.092   4.243 -0.1596 -0.0660  0.1378
    5CHTO   O25 2012   4.634   2.086   4.340  0.2957  0.3871 -0.1661
    5CHTO   H40 2013   4.650   2.169   4.380 -0.9629  0.5731 -0.0152
    5CHTO   O15 2014   4.773   1.905   3.867  0.0237  0.7129 -0.4239
    5CHTO   C19 2015   4.904   1.879   3.918 -0.1661  0.3466  0.1112
    5CHTO   H47 2016   4.913   1.968   3.981  0.9531  0.9658 -0.9056
    5CHTO   C20 2017   4.918   1.743   3.991  0.1310 -0.5393 -0.3748
    5CHTO   H48 2018   4.903   1.661   3.919  0.5605  1.2253 -2.5469
    5CHTO   O19 2019   4.834   1.743   4.105 -0.2412  0.3435  0.1990
    5CHTO   H35 2020   4.746   1.722   4.081  0.8102 -1.3892 -2.2776
    5CHTO   C21 2021   5.066   1.723   4.037 -0.5133  0.2703  0.2234
    5CHTO   H49 2022   5.087   1.808   4.103 -0.9129  2.2499 -2.1002
    5CHTO    N4 2023   5.090   1.598   4.107 -0.1537 -0.0283  0.1863
    5CHTO   H41 2024   5.061   1.514   4.045  0.5733  0.7828 -1.2721
    5CHTO   H42 2025   5.032   1.586   4.197 -1.1083 -0.7104 -0.5020
    5CHTO   C22 2026   5.167   1.745   3.919  0.1676  0.2017  0.3160
    5CHTO   H50 2027   5.178   1.657   3.856 -0.6924  1.8066 -2.1319
    5CHTO   O14 2028   5.136   1.869   3.851  0.5980 -0.0137 -0.2462
    5CHTO   C23 2029   5.008   1.904   3.805  0.4571 -0.0803 -0.1317
    5CHTO   H51 2030   4.994   1.835   3.720  1.6658 -1.3119  0.6452
    5CHTO   C34 2031   5.010   2.044   3.755 -0.2536 -0.7110  0.2622
    5CHTO   O23 2032   5.123   2.067   3.665  0.1716 -0.8247 -0.4290
    5CHTO   H38 2033   5.106   2.141   3.611  0.2679 -0.5337 -0.0616
    5CHTO   O16 2034   5.292   1.789   3.974  0.1562  0.7571  0.2490
    5CHTO   C24 2035   5.408   1.759   3.873  0.1271 -0.0711  0.2823
    5CHTO   H52 2036   5.371   1.717   3.780 -1.7575 -1.5179  1.6613
    5CHTO   C26 2037   5.508   1.665   3.939 -0.1905 -1.1020  0.3388
    5CHTO   H54 2038   5.546   1.716   4.030 -3.5322  0.9330  0.6490
    5CHTO   O20 2039   5.438   1.547   3.989 -0.6614 -0.2775 -0.1221
    5CHTO   H36 2040   5.481   1.502   4.059  1.5557  3.2726  0.9130
    5CHTO   C30 2041   5.631   1.640   3.839  0.1065  0.5556 -0.4097
    5CHTO   H58 2042   5.600   1.601   3.741 -2.0835 -0.2266  0.5599
    5CHTO    N6 2043   5.738   1.556   3.905  0.1276 -0.7357  0.3436
    5CHTO   H45 2044   5.745   1.461   3.853  2.0949 -1.4719  1.9070
    5CHTO   H46 2045   5.711   1.538   4.008  2.8885  0.2009  1.2530
    5CHTO   C33 2046   5.699   1.774   3.804  0.4281  0.3974 -0.7783
    5CHTO   H61 2047   5.741   1.820   3.895 -1.9975 -1.1023  1.2051
    5CHTO   O18 2048   5.598   1.857   3.755 -0.4643 -0.0244 -0.1423
    5CHTO   C28 2049   5.487   1.889   3.837  0.7409  0.4326  0.2546
    5CHTO   H56 2050   5.526   1.932   3.929 -1.0964  1.2717  0.6659
    5CHTO   C35 2051   5.404   1.991   3.763 -0.8148  0.2767 -0.3963
    5CHTO   O24 2052   5.485   2.114   3.757  0.1178  0.4006  0.1429
    5CHTO   H39 2053   5.561   2.106   3.703 -0.0915 -1.5636  0.1095
    5CHTO    O9 2054   5.811   1.765   3.709  0.0129  0.0252  0.1951
    5CHTO   C13 2055   5.793   1.707   3.558  0.1006 -0.0268 -0.3681
    5CHTO   H26 2056   5.712   1.631   3.553 -0.0556  0.1831 -1.1220
    5CHTO   C11 2057   5.933   1.643   3.527 -0.4053  0.8199  0.2937
    5CHTO   H24 2058   5.959   1.556   3.589  2.1580  1.5715  0.3563
    5CHTO    O8 2059   6.038   1.746   3.547  0.3332 -0.0929  0.7403
    5CHTO    H3 2060   6.029   1.788   3.631 -0.5591  1.4642 -0.1072
    5CHTO    C9 2061   5.920   1.580   3.384 -0.0690  0.4719 -0.1977
    5CHTO   H22 2062   5.837   1.509   3.386  0.9658 -0.7609 -0.4967
    5CHTO    N2 2063   6.034   1.494   3.341  0.0139  0.0944  0.4406
    5CHTO   H10 2064   6.049   1.506   3.234 -0.4355 -0.9196  0.2558
    5CHTO   H11 2065   6.042   1.389   3.365  1.7173 -0.2453 -1.4218
    5CHTO    C7 2066   5.888   1.704   3.288 -0.0589  0.3155 -0.0225
    5CHTO   H20 2067   5.868   1.656   3.190  1.4343  0.8545 -0.6045
    5CHTO    O4 2068   5.775   1.785   3.317 -0.1519 -0.4515 -0.6622
    5CHTO   C14 2069   5.751   1.821   3.454  0.3572  0.0632  0.1822
    5CHTO   H27 2070   5.641   1.831   3.466  0.5437  0.4862  1.7339
    5CHTO   C18 2071   5.805   1.958   3.491 -0.2366  0.1143 -0.2534
    5CHTO   O13 2072   5.716   2.067   3.454  0.0754  0.8363 -0.0997
    5CHTO    H7 2073   5.752   2.109   3.378 -0.5037  3.8986  1.2666
    5CHTO    O2 2074   6.015   1.803   3.269  0.9338 -0.2386  0.5307
    5CHTO    C1 2075   6.024   1.841   3.129 -0.1657  0.8514  0.6222
    5CHTO   H14 2076   5.921   1.837   3.089 -0.0299  0.0987  0.3557
    5CHTO    C2 2077   6.107   1.740   3.036  0.4750  0.1984 -0.0695
    5CHTO   H15 2078   6.203   1.728   3.088  0.2679 -0.8413  0.0862
    5CHTO    O6 2079   6.042   1.613   3.045  0.2796  0.2947  0.3998
    5CHTO    H1 2080   6.061   1.568   3.125 -1.2385 -1.1150  0.0147
    5CHTO    C3 2081   6.124   1.794   2.888  0.1706  0.2845 -0.1742
    5CHTO   H16 2082   6.024   1.819   2.849 -0.5634 -1.5393  0.4896
    5CHTO    N1 2083   6.172   1.700   2.787 -0.1662  0.0539 -0.0363
    5CHTO    H8 2084   6.186   1.747   2.691 -0.7520 -1.1236 -0.7034
    5CHTO    H9 2085   6.134   1.599   2.785 -0.9346  0.3600 -0.9462
    5CHTO    C4 2086   6.200   1.934   2.906  0.2692  0.5484  0.4996
    5CHTO   H17 2087   6.293   1.914   2.959  1.5839  0.0895 -1.8987
    5CHTO    O1 2088   6.120   2.030   2.979  0.2377  0.4949 -0.3769
    5CHTO    C5 2089   6.083   1.983   3.117  0.2440 -0.1908 -0.2526
    5CHTO   H18 2090   6.175   1.985   3.176 -0.1216 -0.7434  0.3460
    5CHTO   C16 2091   5.990   2.086   3.184  0.3449  0.2436  0.0016
    5CHTO   O11 2092   6.036   2.222   3.192  0.3856  0.2640  0.3921
    5CHTO    H5 2093   5.979   2.292   3.219  0.3570 -0.1562  1.4693
    5CHTO    O3 2094   6.220   2.008   2.782 -0.3044  0.6931 -0.1278
    5CHTO    C6 2095   6.334   2.096   2.774  0.2927 -0.7548 -0.0607
    5CHTO   H19 2096   6.351   2.153   2.865 -0.6239  1.5536 -1.2767
    5CHTO    C8 2097   6.464   2.016   2.733  0.0927 -0.1970  0.2405
    5CHTO   H21 2098   6.447   1.964   2.639  0.6520  0.2157 -0.1001
    5CHTO    O7 2099   6.490   1.919   2.837 -0.3523  0.0495  0.5630
    5CHTO    H2 2100   6.450   1.839   2.809 -1.1675  0.2079  1.2751
    5CHTO   C12 2101   6.588   2.115   2.706  0.2838  0.0451  0.1462
    5CHTO   H25 2102   6.612   2.155   2.807  0.8920  1.0221 -0.3775
    5CHTO    N3 2103   6.715   2.053   2.659  0.1663 -0.1129  0.3401
    5CHTO   H12 2104   6.767   2.125   2.598 -2.8975 -0.6627 -3.0506
    5CHTO   H13 2105   6.780   2.027   2.741 -0.7206  0.2235  1.1538
    5CHTO   C15 2106   6.543   2.239   2.616  0.3121 -0.0384  0.3691
    5CHTO   H28 2107   6.531   2.214   2.511  0.2144  0.2656  0.3076
    5CHTO   O10 2108   6.656   2.363   2.614  0.4529  0.5864  0.0026
    5CHTO    H4 2109   6.732   2.331   2.658 -0.9061 -0.9897  1.2630
    5CHTO    O5 2110   6.426   2.301   2.669  0.0557  0.0850  0.3897
    5CHTO   C10 2111   6.315   2.206   2.665 -0.3491 -0.1513 -0.5734
    5CHTO   H23 2112   6.322   2.156   2.569  1.5341 -0.5941 -0.2338
    5CHTO   C17 2113   6.189   2.291   2.672 -0.0586 -0.6691  0.0114
    5CHTO   O12 2114   6.072   2.214   2.685 -0.1416  0.3843  0.0276
    5CHTO    H6 2115   6.021   2.236   2.760 -0.8453 -1.9080  0.2727
    6CHTO  H203 2116   3.614   4.116   0.614 -0.5900  1.8586 -0.2568
    6CHTO   O82 2117   3.697   4.143   0.579  0.2288  0.1827  0.3023
    6CHTO  C123 2118   3.810   4.066   0.615 -0.4820 -0.0780  0.1224
    6CHTO  H227 2119   3.832   3.990   0.539 -0.4063  0.2241 -0.1603
    6CHTO   O77 2120   3.904   4.173   0.583  0.4440  0.5009  0.1834
    6CHTO  C118 2121   4.044   4.130   0.599 -0.0611 -0.4557  0.5252
    6CHTO  H222 2122   4.074   4.052   0.528 -0.7140 -0.3817  0.1666
    6CHTO  C125 2123   4.139   4.259   0.581 -0.5379 -0.2260  0.1066
    6CHTO   O84 2124   4.110   4.337   0.465 -0.5815  0.0888  0.0203
    6CHTO  H205 2125   4.018   4.355   0.463 -1.2100 -2.8175  0.2999
    6CHTO  C114 2126   4.062   4.086   0.749 -0.2614 -0.3004  0.7453
    6CHTO  H218 2127   4.056   4.177   0.809  0.9987 -0.5489  1.2693
    6CHTO  C116 2128   3.971   3.971   0.793 -0.1681  0.4729 -0.4543
    6CHTO  H220 2129   4.000   3.875   0.745 -1.0665 -0.8224  1.5389
    6CHTO   O79 2130   4.000   3.950   0.935 -0.2497  0.1259  0.0127
    6CHTO  H201 2131   3.959   3.874   0.970 -0.8806  0.0654 -0.8395
    6CHTO  C120 2132   3.821   4.011   0.767  0.0820  0.5488 -0.2295
    6CHTO  H224 2133   3.796   4.096   0.833 -1.6329  0.9950 -1.4316
    6CHTO   N21 2134   3.727   3.900   0.785 -0.0493  0.1009  0.0103
    6CHTO  H211 2135   3.772   3.805   0.760 -0.8543 -0.3751  0.3523
    6CHTO  H212 2136   3.648   3.898   0.858  0.2142 -2.2631  0.2970
    6CHTO   O75 2137   4.201   4.047   0.747  0.1640  0.2814  0.6424
    6CHTO  C112 2138   4.289   4.074   0.902  0.4636  0.2307  0.1353
    6CHTO  H216 2139   4.231   4.015   0.975 -0.0868  0.3208 -0.2284
    6CHTO   O73 2140   4.286   4.213   0.922  0.3933  0.7564  0.1075
    6CHTO  C113 2141   4.341   4.273   1.039 -0.7654 -0.5174  1.0265
    6CHTO  H217 2142   4.279   4.232   1.121 -1.6569  2.5698  1.9523
    6CHTO  C124 2143   4.335   4.425   1.032  0.3146  0.4214  0.2075
    6CHTO   O83 2144   4.197   4.470   1.029 -0.1309  0.2260  0.6449
    6CHTO  H204 2145   4.163   4.455   1.115  1.1231  2.1346  1.4989
    6CHTO  C109 2146   4.487   4.228   1.063  0.3649 -0.2872  0.4345
    6CHTO  H213 2147   4.550   4.296   1.003  0.2223 -0.2327  0.3456
    6CHTO  C110 2148   4.522   4.080   1.014 -0.1030 -0.0579 -0.1114
    6CHTO  H214 2149   4.491   4.010   1.091  0.1968 -0.5668 -0.4509
    6CHTO   O78 2150   4.668   4.082   1.008 -0.2608 -0.3777 -0.0211
    6CHTO  H200 2151   4.698   4.132   0.935 -0.7185  1.4466  1.0303
    6CHTO  C111 2152   4.447   4.044   0.880 -0.2421  0.5431 -0.1040
    6CHTO  H215 2153   4.488   4.108   0.800 -1.0212 -1.2141 -1.9638
    6CHTO   N19 2154   4.475   3.907   0.835  0.3384 -0.0708 -0.3152
    6CHTO  H207 2155   4.518   3.849   0.916  1.4923 -0.0553 -0.9134
    6CHTO  H208 2156   4.550   3.910   0.758  0.9453 -0.1851  0.2703
    6CHTO   O74 2157   4.515   4.246   1.207  0.1747 -0.6750 -0.0002
    6CHTO  C115 2158   4.661   4.298   1.244  0.1057  0.7352  0.3034
    6CHTO  H219 2159   4.736   4.283   1.167 -0.4295 -1.4036  0.1707
    6CHTO   O76 2160   4.662   4.450   1.272 -0.0547 -0.7534 -0.4852
    6CHTO  C122 2161   4.570   4.486   1.374  0.2106 -0.0069  0.8801
    6CHTO  H226 2162   4.468   4.463   1.342  0.3809 -1.1686  1.1436
    6CHTO  C126 2163   4.567   4.642   1.395 -0.0179  0.6654  0.1882
    6CHTO   O85 2164   4.467   4.699   1.484 -0.0203  0.1377 -0.1062
    6CHTO  H206 2165   4.496   4.781   1.519  1.0157 -0.4822  0.5017
    6CHTO  C121 2166   4.618   4.412   1.511 -0.1948 -0.3976 -0.0565
    6CHTO  H225 2167   4.651   4.495   1.577  0.9083 -1.9520  1.3679
    6CHTO   O81 2168   4.496   4.352   1.553  0.1043  0.3401  0.1913
    6CHTO  H202 2169   4.467   4.293   1.486  1.4489  1.2578 -1.2362
    6CHTO  C119 2170   4.733   4.314   1.495 -0.4024 -0.1312 -0.1641
    6CHTO  H223 2171   4.818   4.382   1.488 -0.4590 -0.1700 -1.3334
    6CHTO  C117 2172   4.713   4.219   1.374  0.1205 -0.1721  0.2834
    6CHTO  H221 2173   4.639   4.141   1.383 -0.5045  0.6153  2.2502
    6CHTO   N20 2174   4.842   4.155   1.341 -0.4088 -0.0074 -0.0652
    6CHTO  H209 2175   4.833   4.105   1.246 -0.2092 -1.2291  0.5516
    6CHTO  H210 2176   4.923   4.226   1.332  0.1895 -0.8453 -1.3444
    6CHTO   O80 2177   4.770   4.233   1.635  0.3140  0.0715  0.2726
    6CHTO  C103 2178   4.862   4.300   1.751  0.4603  0.0584 -0.3505
    6CHTO  H190 2179   4.961   4.255   1.750 -0.3723 -1.8178 -0.4622
    6CHTO  C101 2180   4.900   4.456   1.745 -0.2106  0.3560 -0.1078
    6CHTO  H188 2181   4.807   4.504   1.715 -0.5431 -1.1085 -1.5146
    6CHTO   O68 2182   5.019   4.464   1.620  0.2789  0.2442  0.2430
    6CHTO  H168 2183   5.017   4.385   1.570 -0.7111  0.6746 -0.4115
    6CHTO   C99 2184   4.943   4.517   1.893 -0.3588  0.1965 -0.0985
    6CHTO  H186 2185   5.037   4.463   1.915  0.0629  0.4200 -1.3193
    6CHTO   N17 2186   4.959   4.665   1.888  0.4328  0.3475  0.0778
    6CHTO  H174 2187   5.059   4.696   1.913  1.3033  0.7103 -3.5358
    6CHTO  H175 2188   4.941   4.690   1.784 -1.4002 -0.4780  0.1661
    6CHTO   C97 2189   4.837   4.469   1.998 -0.2249  0.1548  0.3820
    6CHTO  H184 2190   4.743   4.511   1.959  0.9740  1.0814 -1.6576
    6CHTO   O64 2191   4.840   4.328   1.997  0.1606  0.0588  0.6909
    6CHTO  C104 2192   4.792   4.261   1.881 -0.5574  0.4366  0.4274
    6CHTO  H191 2193   4.686   4.288   1.877 -0.3239  1.3418  0.2695
    6CHTO  C108 2194   4.794   4.108   1.899 -0.1322 -0.1256  0.1186
    6CHTO   O71 2195   4.930   4.058   1.905  0.2780  0.4485  0.1912
    6CHTO  H171 2196   4.979   4.096   1.835  0.5019  0.9120  0.5929
    6CHTO   O62 2197   4.865   4.510   2.135  0.6921  0.3332  0.7528
    6CHTO   C91 2198   4.736   4.549   2.194 -0.2920  0.0419 -0.6640
    6CHTO  H178 2199   4.701   4.636   2.138  1.6880 -0.0185 -2.0504
    6CHTO   C92 2200   4.773   4.601   2.347 -0.0502 -0.2571 -0.8872
    6CHTO  H179 2201   4.860   4.667   2.338 -0.0663 -0.1542 -0.2362
    6CHTO   O66 2202   4.657   4.663   2.401  0.3353 -0.0542 -0.0829
    6CHTO  H166 2203   4.676   4.755   2.404 -0.5798  0.1154  1.0933
    6CHTO   C93 2204   4.800   4.477   2.449 -0.1615 -0.8521 -0.1215
    6CHTO  H180 2205   4.777   4.510   2.552 -0.1691  1.2111 -0.7599
    6CHTO   N16 2206   4.939   4.425   2.455  0.5826 -0.5371 -0.6248
    6CHTO  H172 2207   4.943   4.350   2.533 -3.1047 -0.2661 -0.1108
    6CHTO  H173 2208   5.015   4.502   2.466  1.4170 -1.1244 -2.1391
    6CHTO   C94 2209   4.706   4.360   2.419 -0.1504  0.4376 -0.3778
    6CHTO  H181 2210   4.754   4.281   2.361  0.3035  2.2970 -2.6241
    6CHTO   O61 2211   4.586   4.397   2.345 -0.3115 -0.6660  0.1779
    6CHTO   C95 2212   4.618   4.438   2.211  0.0709 -0.3521  0.0861
    6CHTO  H182 2213   4.655   4.351   2.157  0.9510  0.1140 -0.0673
    6CHTO  C106 2214   4.489   4.467   2.137  0.1854 -0.7353 -0.3519
    6CHTO   O69 2215   4.408   4.352   2.113  0.1335  0.0035 -0.1176
    6CHTO  H169 2216   4.417   4.332   2.022 -1.6522  0.7439 -0.4728
    6CHTO   O63 2217   4.652   4.311   2.559 -0.1063  0.0475  0.0919
    6CHTO   C96 2218   4.546   4.191   2.553  1.0504  0.1786 -0.0961
    6CHTO  H183 2219   4.489   4.203   2.461  2.2614  1.0670 -0.7414
    6CHTO   C98 2220   4.439   4.179   2.663 -0.4156 -0.0546 -0.1090
    6CHTO  H185 2221   4.494   4.188   2.758  0.5998 -1.0642 -0.5957
    6CHTO   O67 2222   4.354   4.300   2.655  0.5129  0.3680 -0.0621
    6CHTO  H167 2223   4.396   4.383   2.670  1.9833 -0.2817 -0.5318
    6CHTO  C102 2224   4.348   4.051   2.658  0.1343 -0.1386 -0.6254
    6CHTO  H189 2225   4.268   4.071   2.585 -1.5521 -1.8771  0.6817
    6CHTO   N18 2226   4.275   4.011   2.779 -0.3577 -0.0180  0.2624
    6CHTO  H176 2227   4.172   3.987   2.757 -0.1775 -2.0777  1.5799
    6CHTO  H177 2228   4.278   4.088   2.854  1.0273 -0.0095  0.2036
    6CHTO  C105 2229   4.438   3.936   2.600 -0.0480 -0.5657  0.6356
    6CHTO  H192 2230   4.416   3.840   2.645  0.8879 -0.6231  0.9953
    6CHTO   O65 2231   4.581   3.957   2.621 -0.3821  0.4045 -0.0399
    6CHTO  C100 2232   4.641   4.066   2.554  0.3096 -0.1614  0.2157
    6CHTO  H187 2233   4.730   4.099   2.611  0.6212  0.6968 -0.7632
    6CHTO  C107 2234   4.700   4.018   2.419  0.8461 -0.1649  0.4266
    6CHTO   O70 2235   4.812   3.937   2.443  0.5454 -0.7057 -0.0289
    6CHTO  H170 2236   4.789   3.854   2.479 -0.2988 -0.4037  0.1435
    6CHTO   O57 2237   4.407   3.924   2.458 -0.2404  0.2897  0.1878
    6CHTO   C85 2238   4.332   3.817   2.404 -0.2064  0.1040  0.1750
    6CHTO  H157 2239   4.276   3.769   2.487 -0.3164  0.7515  0.4726
    6CHTO   C83 2240   4.427   3.704   2.360 -0.5778  0.1211  0.6276
    6CHTO  H155 2241   4.478   3.670   2.450 -1.0810 -2.7744 -0.1053
    6CHTO   O56 2242   4.535   3.757   2.275  0.3604 -0.5184  0.1064
    6CHTO  H135 2243   4.592   3.685   2.257  1.0441  0.4009 -1.4754
    6CHTO   C81 2244   4.351   3.584   2.294  0.7801 -0.4979  0.7771
    6CHTO  H153 2245   4.277   3.553   2.368 -0.9073  2.6352  0.4778
    6CHTO   N14 2246   4.442   3.471   2.272  0.2557  0.3550 -0.0268
    6CHTO  H141 2247   4.427   3.382   2.330  0.3269  1.4881  1.7719
    6CHTO  H142 2248   4.545   3.498   2.274  0.9360 -2.2356  2.4135
    6CHTO   C79 2249   4.269   3.635   2.170  0.5308  0.0098  0.8167
    6CHTO  H151 2250   4.200   3.555   2.141  0.6739  0.4865 -0.8854
    6CHTO   O52 2251   4.182   3.742   2.212 -0.2673 -0.0973 -0.0639
    6CHTO   C86 2252   4.239   3.850   2.282  0.4972  0.2495  0.7217
    6CHTO  H158 2253   4.295   3.902   2.202  1.0990 -0.8275  0.4442
    6CHTO   C90 2254   4.131   3.956   2.321 -0.1303  0.0187 -0.0653
    6CHTO   O60 2255   4.181   4.092   2.315  0.0810  0.3285 -0.3114
    6CHTO  H138 2256   4.259   4.105   2.265 -1.5535  1.6590 -2.5787
    6CHTO   O50 2257   4.346   3.684   2.059  0.3504 -0.1303  0.5488
    6CHTO   C73 2258   4.306   3.746   1.933  0.2016  0.1503 -0.4855
    6CHTO  H145 2259   4.217   3.808   1.952 -1.7672 -2.4948 -0.6884
    6CHTO   C74 2260   4.271   3.639   1.828  0.3117 -0.2374  0.3817
    6CHTO  H146 2261   4.190   3.577   1.870  0.2473 -0.1867  0.3322
    6CHTO   O54 2262   4.210   3.703   1.712 -0.5410 -0.4003  0.2873
    6CHTO  H133 2263   4.149   3.642   1.673 -1.2336 -0.5499  1.5770
    6CHTO   C75 2264   4.401   3.551   1.798 -0.5815 -0.5699  0.2185
    6CHTO  H147 2265   4.439   3.505   1.891 -1.3049 -1.5335  0.0479
    6CHTO   N13 2266   4.377   3.435   1.705 -0.7794 -0.5208  0.5616
    6CHTO  H139 2267   4.312   3.468   1.626 -0.7057  0.4337  0.8867
    6CHTO  H140 2268   4.468   3.401   1.658 -1.4346  0.0063 -1.1128
    6CHTO   C76 2269   4.516   3.649   1.740 -0.3065  0.6769  0.2495
    6CHTO  H148 2270   4.489   3.695   1.645  1.7388  1.3672 -0.0421
    6CHTO   O49 2271   4.532   3.750   1.847 -0.5561 -0.3106 -0.0927
    6CHTO   C77 2272   4.425   3.834   1.880  0.2180 -0.3102  0.2593
    6CHTO  H149 2273   4.394   3.883   1.787  1.6465 -1.2433 -0.7423
    6CHTO   C88 2274   4.472   3.949   1.974 -0.1799 -0.7083 -0.8418
    6CHTO   O58 2275   4.368   4.033   1.994  0.6828 -1.2716  0.1387
    6CHTO  H136 2276   4.289   3.992   2.024 -0.4816  0.3637 -0.6036
    6CHTO   O51 2277   4.660   3.569   1.718 -0.1440 -0.3888 -0.8017
    6CHTO   C78 2278   4.761   3.656   1.648 -0.6665 -0.2913 -0.3141
    6CHTO  H150 2279   4.722   3.760   1.650 -1.8292 -0.7585  1.5172
    6CHTO   C80 2280   4.786   3.620   1.496 -0.4125 -0.0496 -0.6182
    6CHTO  H152 2281   4.860   3.538   1.488 -1.2230 -0.6922 -1.4782
    6CHTO   O55 2282   4.664   3.575   1.436 -0.2443 -0.4447  0.5922
    6CHTO  H134 2283   4.679   3.535   1.353 -1.0625  1.5786 -0.5516
    6CHTO   C84 2284   4.856   3.742   1.417 -0.3249 -0.7615 -0.0325
    6CHTO  H156 2285   4.802   3.835   1.435 -1.7153 -1.5008 -0.3018
    6CHTO   N15 2286   4.867   3.709   1.270 -0.2322 -0.1516  0.0230
    6CHTO  H143 2287   4.965   3.727   1.232 -0.3633  0.9152  0.1751
    6CHTO  H144 2288   4.843   3.608   1.244  1.6578 -0.3489 -1.0049
    6CHTO   C87 2289   4.990   3.763   1.485 -0.1435  0.0148 -0.4644
    6CHTO  H159 2290   5.052   3.677   1.460 -2.8090 -1.2048 -3.1205
    6CHTO   O53 2291   4.971   3.770   1.655  0.4702 -0.1246  0.0022
    6CHTO   C82 2292   4.899   3.664   1.724 -0.0453  0.5215  0.1875
    6CHTO  H154 2293   4.956   3.571   1.724  1.9185  1.6950 -1.0187
    6CHTO   C89 2294   4.878   3.705   1.870 -0.3135  0.8789 -0.1322
    6CHTO   O59 2295   4.789   3.614   1.935 -0.2062  0.4127 -0.0957
    6CHTO  H137 2296   4.774   3.633   2.026  0.5778  0.6347 -0.0065
    6CHTO   O45 2297   5.060   3.906   1.440 -0.0205 -0.1469  0.0682
    6CHTO   C67 2298   5.181   3.939   1.508 -0.6614 -0.7301  0.4554
    6CHTO  H124 2299   5.219   3.856   1.567 -0.1630 -1.3024 -0.6528
    6CHTO   C65 2300   5.282   3.971   1.401 -0.5047  0.0792  0.5771
    6CHTO  H122 2301   5.272   3.893   1.326  0.9402 -0.1269  0.5743
    6CHTO   O44 2302   5.410   3.959   1.464  0.4837 -0.4217 -0.1824
    6CHTO  H102 2303   5.477   3.973   1.400  1.4964  2.3567  1.4136
    6CHTO   C63 2304   5.248   4.103   1.334 -0.2849 -0.2077 -0.3373
    6CHTO  H120 2305   5.147   4.096   1.295  0.1307 -2.2992 -1.1052
    6CHTO   N11 2306   5.335   4.139   1.218  0.2166 -0.3466 -0.1917
    6CHTO  H108 2307   5.432   4.164   1.254  0.0492  1.5240 -0.9978
    6CHTO  H109 2308   5.352   4.055   1.153  0.4843  0.5233 -1.2715
    6CHTO   C61 2309   5.243   4.225   1.437  0.4847  0.5198  0.4372
    6CHTO  H118 2310   5.199   4.315   1.394 -0.2969 -0.4834 -0.8855
    6CHTO   O40 2311   5.164   4.200   1.561  1.0385 -0.2531 -0.3522
    6CHTO   C68 2312   5.159   4.066   1.617 -0.0436  0.4281 -0.1295
    6CHTO  H125 2313   5.055   4.050   1.652 -1.1453 -0.7320 -3.6690
    6CHTO   C72 2314   5.255   4.059   1.737  0.3492  0.0772 -0.1824
    6CHTO   O48 2315   5.232   3.938   1.817 -0.4301 -0.1505 -0.1547
    6CHTO  H105 2316   5.259   3.955   1.905 -0.7754  0.9437 -0.2598
    6CHTO   O38 2317   5.366   4.252   1.501 -0.4694 -0.3569 -0.5696
    6CHTO   C55 2318   5.403   4.391   1.518  0.0690  0.0645  0.0823
    6CHTO  H112 2319   5.321   4.464   1.512  1.0013  1.2167  0.9969
    6CHTO   C56 2320   5.518   4.427   1.413 -0.0009 -0.5957  0.0269
    6CHTO  H113 2321   5.585   4.340   1.405  1.6245  0.5095  1.3047
    6CHTO   O42 2322   5.458   4.442   1.279  0.6911 -0.3690 -0.3959
    6CHTO  H100 2323   5.509   4.487   1.214  0.2939 -1.6530 -1.6151
    6CHTO   C57 2324   5.604   4.561   1.447 -0.3700  0.2845  0.1449
    6CHTO  H114 2325   5.533   4.642   1.429 -1.9245 -0.8881  0.8293
    6CHTO   N10 2326   5.718   4.587   1.361  0.0955 -0.7147 -0.1989
    6CHTO  H106 2327   5.701   4.541   1.265  1.4045 -0.5857 -0.5006
    6CHTO  H107 2328   5.737   4.692   1.341  1.8900 -1.2935 -1.6698
    6CHTO   C58 2329   5.642   4.559   1.595  0.2468 -0.4920  0.1255
    6CHTO  H115 2330   5.717   4.481   1.620  0.5673 -0.4920 -0.8176
    6CHTO   O37 2331   5.522   4.540   1.671  0.4026 -0.2437  0.8754
    6CHTO   C59 2332   5.456   4.411   1.664 -0.1834 -0.6535  0.1448
    6CHTO  H116 2333   5.520   4.330   1.699 -0.9744 -0.6625  1.6141
    6CHTO   C70 2334   5.338   4.414   1.766  0.2855  0.7710  0.3481
    6CHTO   O46 2335   5.366   4.469   1.894  0.6389  0.5652  0.4600
    6CHTO  H103 2336   5.299   4.450   1.957  0.1145 -0.0304 -0.2659
    6CHTO   O39 2337   5.699   4.702   1.645  0.5474  0.4226 -0.2904
    6CHTO   C60 2338   5.835   4.698   1.688 -0.2743 -0.1119  0.2858
    6CHTO  H117 2339   5.885   4.610   1.649 -1.0412  0.8152 -2.9304
    6CHTO   C62 2340   5.914   4.820   1.630 -0.2913 -0.3814  0.5553
    6CHTO  H119 2341   5.902   4.813   1.519  1.3485 -0.7763  0.3955
    6CHTO   O43 2342   5.854   4.946   1.676 -0.0428  0.4551 -0.1944
    6CHTO  H101 2343   5.761   4.936   1.670 -0.2665  2.6055 -0.6094
    6CHTO   C66 2344   6.071   4.800   1.667  0.3835  0.2881  0.1163
    6CHTO  H123 2345   6.107   4.700   1.642 -1.3390 -1.4829  4.2910
    6CHTO   N12 2346   6.149   4.905   1.592 -0.6129 -0.1098  0.0921
    6CHTO  H110 2347   6.184   4.989   1.651  1.0572  0.0215 -1.0510
    6CHTO  H111 2348   6.093   4.948   1.510 -0.5613 -0.7764 -0.2933
    6CHTO   C69 2349   6.096   4.803   1.819  0.5180  0.4294  0.2551
    6CHTO  H126 2350   6.078   4.905   1.860 -0.1146  0.7638 -0.8250
    6CHTO   O41 2351   6.009   4.704   1.889 -0.0228  0.2603 -0.1475
    6CHTO   C64 2352   5.851   4.699   1.845 -0.1872 -0.0720 -0.1214
    6CHTO  H121 2353   5.795   4.783   1.891 -1.2979 -0.9079  0.0787
    6CHTO   C71 2354   5.780   4.576   1.901 -0.1228  0.1438  0.1676
    6CHTO   O47 2355   5.844   4.458   1.857 -0.1952  0.5372 -0.6452
    6CHTO  H104 2356   5.805   4.425   1.778 -1.7252  1.2708 -0.2162
    6CHTO   O34 2357   6.248   4.773   1.840 -0.0390  0.2186  0.7126
    6CHTO   C49 2358   6.401   4.812   1.848  0.6290 -0.7919 -0.0056
    6CHTO   H91 2359   6.411   4.899   1.783 -1.5441 -1.9112 -1.9146
    6CHTO   C47 2360   6.493   4.701   1.798  0.3156 -0.7407 -0.9209
    6CHTO   H89 2361   6.589   4.756   1.795 -0.3009  0.3297 -1.2218
    6CHTO   O33 2362   6.447   4.667   1.668 -0.0441  0.0809  0.2727
    6CHTO   H70 2363   6.499   4.608   1.616 -1.5601 -0.8496 -0.2531
    6CHTO   C45 2364   6.499   4.582   1.903 -0.3296 -0.3416  0.0281
    6CHTO   H87 2365   6.395   4.551   1.893  0.1655 -1.5700 -1.4657
    6CHTO    N8 2366   6.582   4.463   1.858  0.1652 -0.4734  0.5360
    6CHTO   H75 2367   6.522   4.373   1.861 -0.0335 -0.3840 -0.4852
    6CHTO   H76 2368   6.659   4.456   1.933 -0.8132  1.1955  1.7291
    6CHTO   C43 2369   6.527   4.630   2.054  0.6846  0.1070 -0.2256
    6CHTO   H85 2370   6.505   4.546   2.120  0.0474  0.2046 -0.3100
    6CHTO   O29 2371   6.448   4.749   2.085 -0.0395 -0.1029 -0.1481
    6CHTO   C50 2372   6.443   4.860   1.994 -0.1341  0.3951  0.2860
    6CHTO   H92 2373   6.364   4.926   2.032 -0.5540 -0.4251  0.8448
    6CHTO   C54 2374   6.567   4.941   2.009  0.0937 -0.2648 -0.4591
    6CHTO   O36 2375   6.572   5.053   1.919 -0.9063  0.0644  0.1668
    6CHTO   H72 2376   6.630   5.121   1.948 -0.5448 -0.6268  1.0723
    6CHTO   O27 2377   6.668   4.653   2.076 -0.0938 -0.5388 -0.7118
    6CHTO   C37 2378   6.779   4.622   2.161  1.1169  0.6887 -0.4968
    6CHTO   H79 2379   6.753   4.539   2.228  0.9520  1.0808 -0.0700
    6CHTO   C38 2380   6.906   4.576   2.093  0.3990  0.1256  0.1822
    6CHTO   H80 2381   6.919   4.642   2.006 -1.7318  0.4341  0.0781
    6CHTO   O31 2382   6.879   4.450   2.035 -0.0383 -0.6325 -0.0752
    6CHTO   H68 2383   6.925   4.378   2.073  0.7076 -0.3967 -0.5081
    6CHTO   C39 2384   7.044   4.574   2.180  0.7241 -0.4000  0.0550
    6CHTO   H81 2385   7.046   4.486   2.244  0.8057 -0.4640 -0.0357
    6CHTO    N7 2386   7.168   4.567   2.093 -0.0041  0.4690 -0.2842
    6CHTO   H73 2387   7.150   4.484   2.025 -1.0168  0.6787 -0.2771
    6CHTO   H74 2388   7.182   4.658   2.037 -3.8281  1.7831  0.7710
    6CHTO   C40 2389   7.050   4.699   2.276 -0.0412  0.5221 -0.4030
    6CHTO   H82 2390   7.071   4.789   2.218  1.5741  2.2850  2.7584
    6CHTO   O26 2391   6.923   4.704   2.342 -0.2188  0.3227  0.1021
    6CHTO   C41 2392   6.811   4.746   2.253 -0.1908  0.4335  0.1853
    6CHTO   H83 2393   6.836   4.835   2.193 -3.4908  1.6652  0.5481
    6CHTO   C52 2394   6.686   4.772   2.339  0.2162  0.4261 -0.8463
    6CHTO   O35 2395   6.690   4.673   2.461  0.2014 -0.6146  0.0807
    6CHTO   H71 2396   6.764   4.681   2.518 -0.4604  0.8204  0.7854
    6CHTO   O28 2397   7.151   4.679   2.381  0.2129 -0.7249  0.4147
    6CHTO   C42 2398   7.200   4.793   2.472  0.4753  0.1153 -0.0822
    6CHTO   H84 2399   7.141   4.880   2.443 -1.4249 -1.3852 -0.8482
    6CHTO   C44 2400   7.348   4.827   2.451  0.0258  0.4222 -0.3303
    6CHTO   H86 2401   7.404   4.738   2.482  0.6544  0.8547 -0.1975
    6CHTO   O32 2402   7.369   4.852   2.310 -0.0680 -0.2993  0.1181
    6CHTO   H69 2403   7.377   4.938   2.273 -0.9141 -0.2235  0.0911
    6CHTO   C48 2404   7.404   4.950   2.540  0.0094 -0.2283  0.3570
    6CHTO   H90 2405   7.363   5.044   2.502  0.0062 -0.9066 -1.3462
    6CHTO    N9 2406   7.555   4.967   2.534  0.8277 -0.2599 -0.0114
    6CHTO   H77 2407   7.603   4.945   2.629 -0.6643 -1.9476  0.3597
    6CHTO   H78 2408   7.598   4.905   2.457  0.5966 -1.0135  0.4633
    6CHTO   C51 2409   7.351   4.922   2.684  0.9482  0.3835  0.5876
    6CHTO   H93 2410   7.417   4.847   2.726 -2.3178 -2.5371  0.7137
    6CHTO   O30 2411   7.209   4.891   2.691  0.2159  0.2349 -0.2199
    6CHTO   C46 2412   7.180   4.768   2.622 -0.5845  0.1357  0.1096
    6CHTO   H88 2413   7.247   4.690   2.657 -0.4223 -0.5456 -1.6314
    6CHTO   C53 2414   7.034   4.721   2.648 -0.4236  0.4439  0.0091
    6CHTO   O72 2415   7.021   4.586   2.616  0.3566  0.0678 -0.0214
    6CHTO  H199 2416   6.962   4.542   2.675 -0.8982  2.0706  0.2367
    6CHTO   O22 2417   7.374   5.039   2.765 -0.0485 -0.0254 -0.2523
    6CHTO   C31 2418   7.321   5.045   2.903 -0.8958  0.1232  0.2660
    6CHTO   H59 2419   7.252   4.958   2.910  2.0486 -2.2264  1.3994
    6CHTO   C29 2420   7.434   5.024   3.006 -0.1305 -0.5042 -0.3240
    6CHTO   H57 2421   7.517   5.091   2.980 -0.8857 -0.1004 -1.7896
    6CHTO   O21 2422   7.482   4.894   2.988  0.3775 -0.3545 -0.0365
    6CHTO   H37 2423   7.468   4.840   3.063  1.7776 -0.0787  0.4470
    6CHTO   C27 2424   7.393   5.053   3.160  0.4366  0.7712  0.2925
    6CHTO   H55 2425   7.339   4.962   3.190  0.9296  0.0789 -0.8729
    6CHTO    N5 2426   7.517   5.070   3.238  0.0595  0.4687 -0.1038
    6CHTO   H43 2427   7.554   4.971   3.261 -2.3539 -0.5516 -0.3863
    6CHTO   H44 2428   7.594   5.117   3.179  1.1591 -1.8996 -0.6383
    6CHTO   C25 2429   7.300   5.179   3.172 -0.0235 -0.7445 -0.6671
    6CHTO   H53 2430   7.350   5.276   3.153 -0.0663 -1.1500 -3.0184
    6CHTO   O17 2431   7.195   5.169   3.075 -0.5936 -0.5644  0.0632
    6CHTO   C32 2432   7.239   5.174   2.940 -0.3388 -0.2950 -0.0469
    6CHTO   H60 2433   7.300   5.264   2.934  0.4734 -0.9129 -1.3855
    6CHTO   C36 2434   7.117   5.185   2.848 -0.1628 -0.2321  0.3875
    6CHTO   O25 2435   7.143   5.197   2.707  0.4791  0.1132  0.2936
    6CHTO   H40 2436   7.060   5.208   2.664 -1.1546  0.1274  3.3210
    6CHTO   O15 2437   7.235   5.177   3.310  0.5960 -0.8537  0.4500
    6CHTO   C19 2438   7.126   5.265   3.366  0.8970  0.2597 -1.1088
    6CHTO   H47 2439   7.127   5.257   3.475  0.2671 -1.8171 -1.2233
    6CHTO   C20 2440   7.148   5.407   3.323 -0.3036 -0.3608  0.2074
    6CHTO   H48 2441   7.146   5.419   3.213  0.7755  1.1374  0.3206
    6CHTO   O19 2442   7.277   5.461   3.365  0.7165 -0.1127  0.1020
    6CHTO   H35 2443   7.305   5.431   3.449  1.6849 -1.6506 -0.7522
    6CHTO   C21 2444   7.038   5.501   3.381 -0.3241 -0.2133 -0.0784
    6CHTO   H49 2445   7.043   5.493   3.489 -0.2959 -0.2192 -0.0799
    6CHTO    N4 2446   7.041   5.641   3.339  0.5974 -0.4999 -0.5796
    6CHTO   H41 2447   7.131   5.682   3.382 -0.3959  0.2482  0.8359
    6CHTO   H42 2448   7.050   5.652   3.232 -0.4403 -1.9916 -0.8391
    6CHTO   C22 2449   6.904   5.436   3.338 -0.3262 -0.7233 -0.1972
    6CHTO   H50 2450   6.898   5.436   3.229  2.0609  0.8599 -0.3708
    6CHTO   O14 2451   6.882   5.304   3.390 -0.2271 -0.0129 -0.1323
    6CHTO   C23 2452   6.982   5.223   3.325 -0.1408  0.8639  0.1100
    6CHTO   H51 2453   6.967   5.216   3.216 -0.5824 -4.3126  0.3866
    6CHTO   C34 2454   6.962   5.076   3.364 -0.1274 -0.2114  0.1174
    6CHTO   O23 2455   7.047   4.982   3.301 -0.3860 -0.5876  0.4130
    6CHTO   H38 2456   7.041   4.900   3.345 -1.6158 -0.5031  0.4263
    6CHTO   O16 2457   6.785   5.505   3.392  0.5332  0.2077  0.0076
    6CHTO   C24 2458   6.660   5.485   3.270 -0.0227 -0.2200  0.7547
    6CHTO   H52 2459   6.684   5.404   3.200  0.1839 -1.2232  1.9586
    6CHTO   C26 2460   6.650   5.615   3.193  0.4438 -0.3741  0.1030
    6CHTO   H54 2461   6.644   5.700   3.264 -0.8761 -0.2286 -0.1770
    6CHTO   O20 2462   6.771   5.623   3.110 -0.2833  0.3409 -0.7008
    6CHTO   H36 2463   6.757   5.673   3.032  0.2911  0.6221 -0.6276
    6CHTO   C30 2464   6.520   5.637   3.108 -0.4237 -0.5685  0.7971
    6CHTO   H58 2465   6.539   5.579   3.017  2.0099  1.5848 -0.1544
    6CHTO    N6 2466   6.495   5.776   3.063 -0.1648  0.7045 -0.5640
    6CHTO   H45 2467   6.584   5.834   3.085  0.0108 -0.1548  1.1019
    6CHTO   H46 2468   6.414   5.818   3.121  0.1935 -0.5407  0.8919
    6CHTO   C33 2469   6.399   5.577   3.186 -0.0649 -0.4272  0.1522
    6CHTO   H61 2470   6.376   5.647   3.267  0.5936 -0.8876  0.7408
    6CHTO   O18 2471   6.424   5.454   3.245  0.0394 -0.4095  0.2167
    6CHTO   C28 2472   6.531   5.444   3.343 -0.4490  0.4883  0.2701
    6CHTO   H56 2473   6.512   5.512   3.426 -1.5341  0.7221 -0.1522
    6CHTO   C35 2474   6.524   5.302   3.399  0.1656 -0.1713 -0.0276
    6CHTO   O24 2475   6.391   5.281   3.453 -0.0415 -0.2520 -0.2538
    6CHTO   H39 2476   6.398   5.211   3.515  0.9595  0.1063  0.0512
    6CHTO    O9 2477   6.280   5.570   3.095  0.6342  0.0098 -0.2748
    6CHTO   C13 2478   6.168   5.672   3.134 -0.0702  0.0415  0.0052
    6CHTO   H26 2479   6.216   5.767   3.167 -1.1987  0.5088  0.3306
    6CHTO   C11 2480   6.064   5.620   3.241  0.6885  0.1696 -0.0819
    6CHTO   H24 2481   6.117   5.583   3.330 -1.3965 -2.4919  0.1034
    6CHTO    O8 2482   6.009   5.497   3.195 -0.3019 -0.4639 -0.4343
    6CHTO    H3 2483   6.076   5.432   3.201  0.3813  0.1920 -0.8972
    6CHTO    C9 2484   5.965   5.733   3.275 -0.7985  0.1235 -0.3189
    6CHTO   H22 2485   6.030   5.817   3.304  0.0181 -0.6982  0.2577
    6CHTO    N2 2486   5.868   5.719   3.387 -0.3646  0.0568 -0.7701
    6CHTO   H10 2487   5.877   5.801   3.456  0.1555 -0.8501  0.2541
    6CHTO   H11 2488   5.895   5.626   3.436 -0.5222  0.2380 -0.3389
    6CHTO    C7 2489   5.889   5.782   3.145  0.1168  0.2760 -0.5035
    6CHTO   H20 2490   5.856   5.882   3.178  0.2426  0.1556 -0.0056
    6CHTO    O4 2491   5.971   5.794   3.024 -0.1928 -0.3442  0.0518
    6CHTO   C14 2492   6.099   5.734   3.004 -0.1683 -0.0587 -0.1947
    6CHTO   H27 2493   6.161   5.823   2.983 -1.7155  1.3431  1.0149
    6CHTO   C18 2494   6.096   5.639   2.882 -0.0101  0.2174  0.4675
    6CHTO   O13 2495   6.027   5.516   2.895  0.3248 -0.2708  0.2697
    6CHTO    H7 2496   6.030   5.471   2.813  0.3736  0.7475 -0.2914
    6CHTO    O2 2497   5.760   5.686   3.111  1.1814  0.2832 -0.3185
    6CHTO    C1 2498   5.655   5.763   3.045 -0.5715  0.0302 -0.7096
    6CHTO   H14 2499   5.678   5.865   3.008  0.7794 -0.2463 -0.6517
    6CHTO    C2 2500   5.528   5.775   3.140 -0.1151 -1.0749 -0.2025
    6CHTO   H15 2501   5.507   5.668   3.156  1.2170 -1.4794 -1.0633
    6CHTO    O6 2502   5.551   5.841   3.261  0.0892  0.5873 -0.5142
    6CHTO    H1 2503   5.519   5.929   3.264  3.3203  1.8129 -0.3071
    6CHTO    C3 2504   5.400   5.832   3.064  0.0475 -0.3888 -0.1906
    6CHTO   H16 2505   5.417   5.939   3.046  0.7535 -0.3757  0.5456
    6CHTO    N1 2506   5.270   5.827   3.138 -0.2743 -0.2698 -0.1413
    6CHTO    H8 2507   5.279   5.880   3.232 -2.5649 -2.3725  1.3291
    6CHTO    H9 2508   5.239   5.727   3.162 -2.6445  0.0993 -1.5315
    6CHTO    C4 2509   5.382   5.767   2.920  0.7015 -0.5437  0.2029
    6CHTO   H17 2510   5.352   5.665   2.940  0.3690 -0.4090  0.3990
    6CHTO    O1 2511   5.503   5.764   2.844  0.0303 -0.3519  0.0341
    6CHTO    C5 2512   5.607   5.694   2.915 -0.2490  0.0676  0.2324
    6CHTO   H18 2513   5.571   5.596   2.945 -0.8577  0.3231  0.3481
    6CHTO   C16 2514   5.720   5.677   2.811  0.0581 -0.4801 -0.0651
    6CHTO   O11 2515   5.677   5.622   2.690  0.1388 -0.4154 -0.1419
    6CHTO    H5 2516   5.620   5.681   2.643 -0.9903 -0.3466  1.2733
    6CHTO    O3 2517   5.292   5.854   2.837  0.1449  0.0818 -0.0032
    6CHTO    C6 2518   5.211   5.798   2.723  0.4143 -0.2429  0.1471
    6CHTO   H19 2519   5.209   5.871   2.643 -0.5453  0.0899  0.4718
    6CHTO    C8 2520   5.251   5.657   2.665  0.7209 -0.2828 -0.0289
    6CHTO   H21 2521   5.265   5.586   2.746  2.8284 -0.1854 -0.2808
    6CHTO    O7 2522   5.377   5.671   2.592  0.9507  0.3621  0.1623
    6CHTO    H2 2523   5.438   5.608   2.625  0.0168  0.8841  3.0466
    6CHTO   C12 2524   5.147   5.610   2.555  0.6844 -0.4523 -0.0346
    6CHTO   H25 2525   5.171   5.673   2.467 -1.5548  2.0196  1.0848
    6CHTO    N3 2526   5.174   5.472   2.513  0.5478 -0.3981 -0.2368
    6CHTO   H12 2527   5.119   5.451   2.422  1.6191 -0.1026 -0.9693
    6CHTO   H13 2528   5.145   5.417   2.601  0.9003 -1.4016 -0.7470
    6CHTO   C15 2529   4.997   5.641   2.595  0.4726  0.2852 -0.0030
    6CHTO   H28 2530   4.962   5.567   2.668  0.0684  0.2601 -0.2207
    6CHTO   O10 2531   4.907   5.633   2.469 -0.7735  0.4951 -0.0789
    6CHTO    H4 2532   4.913   5.545   2.435  1.7102  1.2458 -1.7475
    6CHTO    O5 2533   4.983   5.771   2.653 -0.0533  0.3351  0.3569
    6CHTO   C10 2534   5.063   5.789   2.771  0.6855 -0.0033 -0.1371
    6CHTO   H23 2535   5.043   5.704   2.837  2.6633 -0.0488  0.4105
    6CHTO   C17 2536   5.009   5.912   2.843  0.0673  0.1131  0.3977
    6CHTO   O12 2537   4.876   5.896   2.886  0.1100  0.3611  0.4912
    6CHTO    H6 2538   4.829   5.972   2.859 -0.0039  0.2532  0.3835
    7CHTO  H203 2539   4.496   0.930   0.610  0.9669 -1.3328 -0.0419
    7CHTO   O82 2540   4.556   1.001   0.599 -0.5981 -0.0465 -0.5061
    7CHTO  C123 2541   4.618   1.018   0.470 -0.7847 -0.8108  0.1744
    7CHTO  H227 2542   4.562   0.960   0.395 -0.0850 -3.3400  1.5511
    7CHTO   O77 2543   4.598   1.158   0.443  0.9075  0.4357  0.2436
    7CHTO  C118 2544   4.649   1.200   0.316  0.3791  0.2630 -0.6700
    7CHTO  H222 2545   4.623   1.126   0.239  0.2964 -0.7147  0.2760
    7CHTO  C125 2546   4.591   1.345   0.283 -0.3799 -0.0896 -0.0654
    7CHTO   O84 2547   4.621   1.370   0.146  0.1548 -0.3438 -0.1640
    7CHTO  H205 2548   4.559   1.314   0.103 -1.0111 -0.4411  1.5829
    7CHTO  C114 2549   4.802   1.197   0.326 -0.4100  0.0214  0.2288
    7CHTO  H218 2550   4.834   1.257   0.411  0.1825 -0.5777  0.4309
    7CHTO  C116 2551   4.850   1.061   0.367 -0.4683  0.2666 -0.2337
    7CHTO  H220 2552   4.849   0.999   0.274 -0.0624 -0.9409  0.5473
    7CHTO   O79 2553   4.985   1.066   0.412 -0.6945 -0.1938 -0.6679
    7CHTO  H201 2554   5.033   1.014   0.351  0.5933 -0.2301  0.3590
    7CHTO  C120 2555   4.770   0.980   0.474  0.0232  0.3981 -0.3822
    7CHTO  H224 2556   4.806   1.007   0.576  1.3877 -0.1981 -0.7028
    7CHTO   N21 2557   4.786   0.834   0.466 -0.1470 -0.1222  0.4347
    7CHTO  H211 2558   4.730   0.787   0.386 -0.5777 -1.0065  1.2478
    7CHTO  H212 2559   4.888   0.806   0.445  0.5813 -0.4013  4.0388
    7CHTO   O75 2560   4.858   1.245   0.208 -0.3037  0.2723 -0.5932
    7CHTO  C112 2561   4.966   1.351   0.223 -0.3468 -0.2843 -0.3043
    7CHTO  H216 2562   5.040   1.312   0.294 -0.5902 -1.5511 -0.7224
    7CHTO   O73 2563   4.898   1.468   0.267  0.1549  0.8026  0.1599
    7CHTO  C113 2564   4.987   1.578   0.304  0.3232 -0.5068  0.5516
    7CHTO  H217 2565   5.056   1.548   0.386 -1.9440 -0.3397  2.5817
    7CHTO  C124 2566   4.878   1.673   0.353 -0.0635 -0.1598 -0.4585
    7CHTO   O83 2567   4.937   1.767   0.442 -0.3112 -0.0124 -0.0462
    7CHTO  H204 2568   4.962   1.709   0.512 -4.5712 -2.2071 -0.1814
    7CHTO  C109 2569   5.053   1.630   0.176  0.8573 -0.0800 -0.0945
    7CHTO  H213 2570   4.977   1.683   0.115  1.5338  1.0213 -0.0027
    7CHTO  C110 2571   5.122   1.509   0.095 -0.0776  0.2318  0.1396
    7CHTO  H214 2572   5.199   1.470   0.161  0.9625  2.2837  0.1763
    7CHTO   O78 2573   5.161   1.562  -0.037  0.2382 -0.4360 -0.5223
    7CHTO  H200 2574   5.211   1.497  -0.084 -0.5284 -0.8182 -0.8083
    7CHTO  C111 2575   5.028   1.385   0.086  0.1055  0.3000 -0.3529
    7CHTO  H215 2576   4.940   1.409   0.024  0.0810 -0.6302 -0.6838
    7CHTO   N19 2577   5.100   1.269   0.020 -0.9745  0.5122 -0.0787
    7CHTO  H207 2578   5.038   1.184  -0.001 -0.4466  0.2230 -0.4814
    7CHTO  H208 2579   5.176   1.231   0.086 -0.4470 -0.9352 -1.4799
    7CHTO   O74 2580   5.148   1.733   0.216  0.0039  0.1088 -0.2558
    7CHTO  C115 2581   5.153   1.870   0.124 -0.2556 -0.2473 -1.4571
    7CHTO  H219 2582   5.070   1.871   0.053 -2.2843  1.3061  0.8302
    7CHTO   O76 2583   5.132   1.999   0.208  0.5094 -0.3070  0.0869
    7CHTO  C122 2584   5.230   2.025   0.305 -0.7265 -0.3209 -0.2979
    7CHTO  H226 2585   5.224   1.949   0.382  0.0160  0.3499  0.4290
    7CHTO  C126 2586   5.211   2.165   0.375  0.1173 -0.7270 -0.8300
    7CHTO   O85 2587   5.073   2.174   0.419  0.5171 -0.6977  0.3775
    7CHTO  H206 2588   5.041   2.256   0.388  0.8341 -0.3111  1.0699
    7CHTO  C121 2589   5.378   2.015   0.249 -0.3747 -0.3517 -0.0453
    7CHTO  H225 2590   5.404   2.107   0.193  1.5669  0.3699  1.9575
    7CHTO   O81 2591   5.477   2.019   0.357  0.0244 -0.0706  0.3871
    7CHTO  H202 2592   5.534   2.093   0.345 -1.2691  1.2430  1.9879
    7CHTO  C119 2593   5.399   1.886   0.162  0.1057 -0.3366  0.5429
    7CHTO  H223 2594   5.487   1.902   0.101 -0.3303 -0.2131 -0.0549
    7CHTO  C117 2595   5.289   1.862   0.054  0.1292  0.2061 -0.6444
    7CHTO  H221 2596   5.292   1.765   0.003  1.4852  1.1794 -2.4563
    7CHTO   N20 2597   5.288   1.966  -0.057 -0.5756 -0.0097 -0.7663
    7CHTO  H209 2598   5.363   2.043  -0.044 -1.0896  0.4605 -0.5882
    7CHTO  H210 2599   5.190   1.995  -0.090 -0.6972  1.0987  0.5364
    7CHTO   O80 2600   5.436   1.762   0.254  0.0636  0.1318  0.3183
    7CHTO  C103 2601   5.482   1.606   0.171  0.3015 -0.1896 -0.5959
    7CHTO  H190 2602   5.398   1.579   0.106 -0.7382  0.3337  0.5078
    7CHTO  C101 2603   5.619   1.617   0.083  0.7890 -0.0099  0.1035
    7CHTO  H188 2604   5.695   1.655   0.150  0.0766  0.1552  0.8318
    7CHTO   O68 2605   5.606   1.704  -0.031  0.3643  0.2911  0.2329
    7CHTO  H168 2606   5.523   1.689  -0.071 -0.7064 -0.2732  2.5944
    7CHTO   C99 2607   5.653   1.464   0.032 -0.3622 -0.0074  0.3429
    7CHTO  H186 2608   5.576   1.427  -0.038  0.2655  0.6935 -0.7372
    7CHTO   N17 2609   5.790   1.454  -0.038  0.1428  0.3208  0.1742
    7CHTO  H174 2610   5.876   1.492   0.015  0.6838 -1.0939  0.3282
    7CHTO  H175 2611   5.798   1.474  -0.144 -1.1854 -0.0830 -0.0150
    7CHTO   C97 2612   5.656   1.365   0.150  0.1076 -0.2478 -0.9304
    7CHTO  H184 2613   5.740   1.404   0.209 -1.2837 -0.4117  1.2109
    7CHTO   O64 2614   5.529   1.366   0.227  0.2880 -0.3573  0.6041
    7CHTO  C104 2615   5.500   1.491   0.288 -1.4164  0.8316  0.5239
    7CHTO  H191 2616   5.575   1.524   0.361 -0.3378 -1.6131  0.5776
    7CHTO  C108 2617   5.376   1.475   0.369  0.0872  0.2275 -0.4053
    7CHTO   O71 2618   5.334   1.584   0.439  0.0712 -0.4115 -0.2319
    7CHTO  H171 2619   5.302   1.653   0.383 -0.3284  0.4645  1.0494
    7CHTO   O62 2620   5.671   1.221   0.127  0.6815  0.1646  0.0571
    7CHTO   C91 2621   5.597   1.151   0.028  0.0943  0.4328 -0.7140
    7CHTO  H178 2622   5.623   1.200  -0.067  2.2098 -2.1182 -1.5256
    7CHTO   C92 2623   5.447   1.154   0.038  1.2610  0.3128 -0.1891
    7CHTO  H179 2624   5.406   1.255   0.054 -0.4831 -0.2456 -1.0054
    7CHTO   O66 2625   5.394   1.118  -0.087 -0.1030 -0.6355 -0.0206
    7CHTO  H166 2626   5.399   1.187  -0.151 -1.2665  0.4024  0.9647
    7CHTO   C93 2627   5.377   1.052   0.131 -0.3311  0.0048 -0.2137
    7CHTO  H180 2628   5.279   1.024   0.091  0.7015 -0.8746 -2.2181
    7CHTO   N16 2629   5.352   1.100   0.267 -0.2002 -0.1765  0.0796
    7CHTO  H172 2630   5.347   1.024   0.344 -0.2775  0.4924  0.7407
    7CHTO  H173 2631   5.408   1.185   0.302  0.4486 -0.0545 -1.2072
    7CHTO   C94 2632   5.461   0.917   0.139  0.4143  0.0204 -0.2308
    7CHTO  H181 2633   5.516   0.906   0.232 -1.2600  0.7776  0.8908
    7CHTO   O61 2634   5.549   0.902   0.026  0.1930  0.4250 -0.2476
    7CHTO   C95 2635   5.652   1.005   0.011  0.5064 -0.7804  0.0892
    7CHTO  H182 2636   5.730   0.984   0.085 -0.4555 -1.7972  0.8274
    7CHTO  C106 2637   5.718   0.983  -0.132  0.5007  0.2278 -0.1091
    7CHTO   O69 2638   5.835   1.061  -0.152  0.9967 -0.2269 -0.3955
    7CHTO  H169 2639   5.897   1.052  -0.082 -0.3786  0.8721  1.0151
    7CHTO   O63 2640   5.358   0.796   0.110 -0.0308 -0.2193  0.0299
    7CHTO   C96 2641   5.381   0.666   0.202  0.1841  0.7481 -0.7741
    7CHTO  H183 2642   5.417   0.694   0.301  0.6198  2.5096 -1.4010
    7CHTO   C98 2643   5.490   0.562   0.144 -0.2244  0.4145  0.1654
    7CHTO  H185 2644   5.580   0.615   0.109 -0.4233  0.2377 -0.6391
    7CHTO   O67 2645   5.539   0.479   0.249  0.1526 -0.3230 -0.1013
    7CHTO  H167 2646   5.613   0.513   0.296  0.4732 -0.2651 -0.6458
    7CHTO  C102 2647   5.428   0.471   0.026 -0.3760  0.2497  0.3362
    7CHTO  H189 2648   5.509   0.403  -0.002 -0.1903 -0.0547  1.5937
    7CHTO   N18 2649   5.396   0.546  -0.106 -0.1982  0.4073  0.2440
    7CHTO  H176 2650   5.320   0.622  -0.101 -1.6684 -0.9466 -0.9450
    7CHTO  H177 2651   5.357   0.486  -0.187 -0.6965  0.8836  0.1254
    7CHTO  C105 2652   5.301   0.398   0.084  0.5789 -0.3925 -0.0995
    7CHTO  H192 2653   5.220   0.412   0.013  0.7139 -0.5744 -0.2912
    7CHTO   O65 2654   5.259   0.450   0.215 -0.4004  0.4256  0.5202
    7CHTO  C100 2655   5.242   0.596   0.216 -0.0826  0.0461  0.0243
    7CHTO  H187 2656   5.185   0.620   0.125 -0.6227 -0.7183  0.1576
    7CHTO  C107 2657   5.162   0.641   0.337 -0.1225  0.4834 -0.3023
    7CHTO   O70 2658   5.118   0.776   0.327 -0.3841  0.0998  0.4031
    7CHTO  H170 2659   5.085   0.812   0.407 -0.1566  0.8353  0.1681
    7CHTO   O57 2660   5.353   0.253   0.093 -0.3845  0.6613 -0.0453
    7CHTO   C85 2661   5.257   0.144   0.050 -0.4276  0.2365 -0.4339
    7CHTO  H157 2662   5.195   0.169  -0.038  0.0802  1.0033 -0.5813
    7CHTO   C83 2663   5.153   0.119   0.161  0.2146 -0.3742  0.0540
    7CHTO  H155 2664   5.096   0.212   0.165 -0.2985 -0.6939  0.1560
    7CHTO   O56 2665   5.221   0.106   0.287  0.4347  0.3421 -0.1705
    7CHTO  H135 2666   5.160   0.125   0.356  0.5486 -4.8498  1.5688
    7CHTO   C81 2667   5.060   0.003   0.121 -0.0855  0.3523 -0.0882
    7CHTO  H153 2668   5.021   0.024   0.022  1.6929 -1.3295 -1.1796
    7CHTO   N14 2669   4.936   0.001   0.210  0.3777  0.6103  0.6112
    7CHTO  H141 2670   4.866  -0.074   0.181  1.8335 -0.9601  1.1229
    7CHTO  H142 2671   4.964  -0.019   0.311  0.3691  1.6628  0.8353
    7CHTO   C79 2672   5.144  -0.133   0.104 -0.2057  0.4984  0.0164
    7CHTO  H151 2673   5.078  -0.209   0.062  0.5976 -0.1194 -0.1407
    7CHTO   O52 2674   5.248  -0.110   0.001 -0.3039  0.0113 -0.4978
    7CHTO   C86 2675   5.336   0.001   0.037 -0.1753  0.2895 -0.0337
    7CHTO  H158 2676   5.378  -0.035   0.133 -0.0782  1.0433  0.2031
    7CHTO   C90 2677   5.464   0.016  -0.060  0.5759  0.3413 -0.0979
    7CHTO   O60 2678   5.426   0.060  -0.190 -0.4827  0.3496 -0.3986
    7CHTO  H138 2679   5.365   0.129  -0.178 -3.2168 -2.1354  0.6874
    7CHTO   O50 2680   5.204  -0.194   0.224  0.5453 -0.4392  0.0935
    7CHTO   C73 2681   5.296  -0.299   0.231  0.4907  0.4359 -0.7098
    7CHTO  H145 2682   5.357  -0.293   0.140 -0.9269 -3.2022 -1.9992
    7CHTO   C74 2683   5.222  -0.443   0.225 -1.1409  0.4969 -0.4539
    7CHTO  H146 2684   5.167  -0.435   0.131  1.1576  1.2262 -1.7769
    7CHTO   O54 2685   5.312  -0.559   0.215 -0.5326  0.2772 -0.0862
    7CHTO  H133 2686   5.301  -0.607   0.135 -0.6939 -1.5056  0.9885
    7CHTO   C75 2687   5.128  -0.451   0.355  0.7354  0.1264 -0.4560
    7CHTO  H147 2688   5.046  -0.380   0.342 -1.2726 -2.0708 -0.1181
    7CHTO   N13 2689   5.051  -0.580   0.367  0.4719  0.1436 -0.1914
    7CHTO  H139 2690   5.127  -0.653   0.389  0.4892  0.5301  1.0437
    7CHTO  H140 2691   5.007  -0.610   0.272 -0.1979  1.5052 -0.3250
    7CHTO   C76 2692   5.202  -0.407   0.489 -0.0536 -0.0404 -0.9809
    7CHTO  H148 2693   5.246  -0.489   0.547  0.1121 -0.7127 -2.0395
    7CHTO   O49 2694   5.295  -0.290   0.466 -0.1085 -0.4483 -0.3043
    7CHTO   C77 2695   5.384  -0.297   0.351  0.5672 -0.0751  0.3550
    7CHTO  H149 2696   5.447  -0.385   0.355  1.0882  0.3286  1.1413
    7CHTO   C88 2697   5.478  -0.176   0.366 -0.1614 -0.1653  0.2410
    7CHTO   O58 2698   5.593  -0.195   0.265  0.2936 -0.0578 -0.4898
    7CHTO  H136 2699   5.673  -0.166   0.304 -0.4279  1.2900  0.0016
    7CHTO   O51 2700   5.106  -0.338   0.580 -0.2268  0.0943  0.0760
    7CHTO   C78 2701   5.107  -0.367   0.720 -0.7268 -0.0409  0.5026
    7CHTO  H150 2702   5.181  -0.445   0.747  2.0973  1.7846 -1.6660
    7CHTO   C80 2703   4.967  -0.407   0.762 -0.2365  0.4380  0.5185
    7CHTO  H152 2704   4.900  -0.333   0.713 -1.2310 -0.9603 -0.2688
    7CHTO   O55 2705   4.954  -0.534   0.696 -0.1049  0.1671  0.1644
    7CHTO  H134 2706   4.865  -0.563   0.701 -0.1326  0.3564  0.8914
    7CHTO   C84 2707   4.954  -0.416   0.920 -0.5048  0.6196 -0.0265
    7CHTO  H156 2708   5.011  -0.503   0.951 -0.5428  1.1127  1.4580
    7CHTO   N15 2709   4.815  -0.454   0.972  0.2447  0.4764 -0.6882
    7CHTO  H143 2710   4.753  -0.369   0.993 -0.6399 -0.0718 -1.0600
    7CHTO  H144 2711   4.764  -0.504   0.892 -2.2852  3.7723 -1.2261
    7CHTO   C87 2712   5.021  -0.306   1.001  0.5587  0.8816 -1.2172
    7CHTO  H159 2713   4.948  -0.226   0.997 -0.7124 -0.3293 -2.7160
    7CHTO   O53 2714   5.156  -0.264   0.926  0.2407 -0.2019  0.0742
    7CHTO   C82 2715   5.148  -0.230   0.790 -0.4698  0.2090  0.0023
    7CHTO  H154 2716   5.076  -0.149   0.783  0.7201  1.2481 -0.3102
    7CHTO   C89 2717   5.286  -0.180   0.759 -0.1273 -0.5212  0.3523
    7CHTO   O59 2718   5.395  -0.268   0.774  0.3943  0.4404 -0.3619
    7CHTO  H137 2719   5.446  -0.232   0.844 -1.1377  0.3608  0.8237
    7CHTO   O45 2720   5.062  -0.371   1.131 -0.8664  0.2991  0.1649
    7CHTO   C67 2721   5.100  -0.269   1.228  0.4635  0.5988  0.4349
    7CHTO  H124 2722   5.133  -0.179   1.177 -1.4094  0.9511 -0.2115
    7CHTO   C65 2723   4.971  -0.222   1.320  0.3283 -0.7037  0.0963
    7CHTO  H122 2724   4.909  -0.312   1.326  0.0393 -0.4945  0.2210
    7CHTO   O44 2725   4.914  -0.110   1.248  0.1962 -0.1334 -0.2197
    7CHTO  H102 2726   4.840  -0.077   1.297  0.5630  0.6758 -0.1930
    7CHTO   C63 2727   5.013  -0.189   1.469 -0.6171 -0.4851  0.0678
    7CHTO  H120 2728   5.037  -0.283   1.520  0.3129  0.4368  1.3626
    7CHTO   N11 2729   4.911  -0.129   1.564 -0.8669  0.1389 -0.1845
    7CHTO  H108 2730   4.945  -0.034   1.600  0.1364 -0.0709 -0.5805
    7CHTO  H109 2731   4.818  -0.114   1.513  0.0522  1.4817 -1.4803
    7CHTO   C61 2732   5.156  -0.120   1.464 -0.2125 -0.4111 -0.1314
    7CHTO  H118 2733   5.188  -0.100   1.567 -2.2833  0.1053  0.4420
    7CHTO   O40 2734   5.262  -0.199   1.404  0.0405 -0.3710 -0.1941
    7CHTO   C68 2735   5.218  -0.312   1.320 -0.5715 -0.4879 -0.0729
    7CHTO  H125 2736   5.185  -0.402   1.376  2.0110 -1.3472  0.1336
    7CHTO   C72 2737   5.333  -0.370   1.231 -0.6128 -0.0125  0.3157
    7CHTO   O48 2738   5.397  -0.276   1.137 -0.5643  0.0314 -0.0897
    7CHTO  H105 2739   5.427  -0.325   1.063  2.3801  2.2846 -0.4899
    7CHTO   O38 2740   5.143   0.004   1.390 -0.0913  0.0866  0.1550
    7CHTO   C55 2741   5.248   0.095   1.406 -0.1268 -0.4345 -0.3802
    7CHTO  H112 2742   5.347   0.047   1.404 -0.9923 -2.2861  0.7576
    7CHTO   C56 2743   5.230   0.185   1.536  0.3161 -0.9336 -0.5649
    7CHTO  H113 2744   5.145   0.253   1.523  0.3168 -0.7298  0.5179
    7CHTO   O42 2745   5.207   0.116   1.659  0.2338  0.9360 -0.0343
    7CHTO  H100 2746   5.255   0.149   1.733 -1.6961 -2.2089  2.8199
    7CHTO   C57 2747   5.355   0.285   1.541  0.6163  0.0073 -0.8173
    7CHTO  H114 2748   5.443   0.221   1.550 -0.0609 -0.6059  1.7304
    7CHTO   N10 2749   5.351   0.386   1.653 -0.1759 -0.2621 -0.4275
    7CHTO  H106 2750   5.285   0.465   1.622 -2.6962 -2.4420 -0.7978
    7CHTO  H107 2751   5.444   0.425   1.692 -0.2667  0.2977 -0.7701
    7CHTO   C58 2752   5.369   0.361   1.413  0.1517 -0.1845 -0.7323
    7CHTO  H115 2753   5.276   0.421   1.397 -0.7592 -0.7779  2.0267
    7CHTO   O37 2754   5.370   0.273   1.300 -0.2808 -0.1161  0.2630
    7CHTO   C59 2755   5.259   0.183   1.282 -0.2738 -0.5043 -0.0676
    7CHTO  H116 2756   5.163   0.234   1.273 -1.2881 -2.3114  0.1185
    7CHTO   C70 2757   5.269   0.102   1.151  0.4666 -0.2572  0.5162
    7CHTO   O46 2758   5.279   0.164   1.030 -0.3166 -0.4413  0.4634
    7CHTO  H103 2759   5.358   0.212   1.015 -0.5199 -0.8004 -2.0519
    7CHTO   O39 2760   5.510   0.463   1.421  0.4897  0.1393 -0.0922
    7CHTO   C60 2761   5.627   0.385   1.389 -0.9459  0.8712  0.2018
    7CHTO  H117 2762   5.599   0.281   1.400  1.5344  0.1327 -0.2543
    7CHTO   C62 2763   5.660   0.412   1.241  0.0752 -0.5697  0.7674
    7CHTO  H119 2764   5.566   0.390   1.187 -0.2745  1.6670  0.3981
    7CHTO   O43 2765   5.701   0.553   1.227  0.2392 -0.0263  1.1004
    7CHTO  H101 2766   5.755   0.587   1.297  1.5931  1.5671 -0.6663
    7CHTO   C66 2767   5.772   0.316   1.185  0.5075  0.3731 -0.5730
    7CHTO  H123 2768   5.736   0.214   1.194 -0.5125  0.6780 -1.1599
    7CHTO   N12 2769   5.792   0.335   1.041 -0.4957  0.2999 -0.0275
    7CHTO  H110 2770   5.881   0.393   1.022 -1.0158  0.8092 -0.9643
    7CHTO  H111 2771   5.713   0.387   0.989  0.4024 -0.4353 -2.1899
    7CHTO   C69 2772   5.899   0.333   1.274 -0.2527 -0.1977  0.5261
    7CHTO  H126 2773   5.944   0.433   1.257  1.4800 -0.7585  1.6683
    7CHTO   O41 2774   5.853   0.318   1.436 -0.0553  0.0598 -0.2166
    7CHTO   C64 2775   5.748   0.407   1.477  0.4653  0.0375 -0.5920
    7CHTO  H121 2776   5.787   0.511   1.467 -1.6413  0.5760 -4.0075
    7CHTO   C71 2777   5.706   0.370   1.618 -0.7295 -0.0851  0.3755
    7CHTO   O47 2778   5.797   0.426   1.713  0.3848 -0.2972 -0.5150
    7CHTO  H104 2779   5.798   0.374   1.791  0.2260  0.9379  0.3217
    7CHTO   O34 2780   6.004   0.222   1.238 -0.0307 -0.0991 -0.3240
    7CHTO   C49 2781   6.094   0.174   1.114  0.3052 -0.4609  0.5392
    7CHTO   H91 2782   6.021   0.175   1.034 -1.0755 -0.4092  1.7785
    7CHTO   C47 2783   6.159   0.035   1.141 -0.0328  0.0471  0.6721
    7CHTO   H89 2784   6.201   0.008   1.042 -0.8153 -1.7268  0.8070
    7CHTO   O33 2785   6.047  -0.055   1.182  0.6150 -0.1891 -0.6714
    7CHTO   H70 2786   6.037  -0.045   1.275 -0.8023 -1.3914 -0.6742
    7CHTO   C45 2787   6.278   0.046   1.255 -0.5138  0.3291  0.2148
    7CHTO   H87 2788   6.224   0.090   1.340 -2.4610 -0.9954 -0.2848
    7CHTO    N8 2789   6.327  -0.089   1.298 -0.0855 -0.4409 -0.5819
    7CHTO   H75 2790   6.428  -0.101   1.262  1.5275  4.2678  1.9682
    7CHTO   H76 2791   6.329  -0.099   1.405  0.3410 -0.0084 -0.5490
    7CHTO   C43 2792   6.389   0.155   1.212  0.5892  1.5709 -0.1297
    7CHTO   H85 2793   6.455   0.175   1.297 -0.1851 -3.6373  1.8993
    7CHTO   O29 2794   6.321   0.275   1.168  0.1656 -0.1110  0.0909
    7CHTO   C50 2795   6.202   0.282   1.080 -0.1675  0.2868  0.2642
    7CHTO   H92 2796   6.163   0.384   1.088 -1.9156 -0.3426 -0.1095
    7CHTO   C54 2797   6.250   0.273   0.928 -0.2520 -0.2779 -0.0091
    7CHTO   O36 2798   6.309   0.400   0.895 -0.6069 -0.0760 -0.0519
    7CHTO   H72 2799   6.245   0.464   0.870  0.6699  0.7343 -1.3733
    7CHTO   O27 2800   6.485   0.111   1.114 -0.5823  0.2626 -0.0065
    7CHTO   C37 2801   6.591   0.080   1.020 -0.4079 -0.1013  0.7396
    7CHTO   H79 2802   6.686   0.039   1.057  0.3256  2.2063  1.4689
    7CHTO   C38 2803   6.536  -0.040   0.931 -0.1696 -0.4049 -0.5816
    7CHTO   H80 2804   6.434  -0.016   0.899 -0.4003 -0.7032 -0.0704
    7CHTO   O31 2805   6.530  -0.162   1.008 -0.5450  0.3667 -0.1928
    7CHTO   H68 2806   6.472  -0.222   0.965 -0.1522 -1.7306  2.0946
    7CHTO   C39 2807   6.618  -0.065   0.803  0.2865  0.2821 -0.3070
    7CHTO   H81 2808   6.718  -0.095   0.832 -0.7800 -0.9176  2.3038
    7CHTO    N7 2809   6.567  -0.175   0.712  0.3139  0.1006  0.7066
    7CHTO   H73 2810   6.462  -0.150   0.697  0.6224  0.6595 -0.6190
    7CHTO   H74 2811   6.595  -0.266   0.763 -1.2540  0.7144  2.7403
    7CHTO   C40 2812   6.646   0.070   0.731 -0.1073 -0.1583 -0.2919
    7CHTO   H82 2813   6.557   0.119   0.692 -0.6564  0.6165  1.8516
    7CHTO   O26 2814   6.709   0.158   0.830 -0.2218  0.3377 -0.3447
    7CHTO   C41 2815   6.617   0.200   0.936 -0.7375  0.1138 -0.1512
    7CHTO   H83 2816   6.526   0.238   0.886 -0.7786  1.4783  0.9372
    7CHTO   C52 2817   6.669   0.317   1.029 -0.3427  0.0727 -0.2462
    7CHTO   O35 2818   6.699   0.411   0.977  0.5290  0.1293 -0.5230
    7CHTO   H71 2819   6.729   0.472   1.041  0.1376 -1.2916  1.0504
    7CHTO   O28 2820   6.752   0.061   0.632  0.0270 -0.5718  0.0435
    7CHTO   C42 2821   6.777   0.163   0.528  0.2843  0.0880  0.3716
    7CHTO   H84 2822   6.881   0.154   0.497 -0.6741 -2.2669 -2.2977
    7CHTO   C44 2823   6.762   0.316   0.566 -0.3257  0.1455  0.2859
    7CHTO   H86 2824   6.666   0.328   0.617 -1.2538 -2.7957 -0.6968
    7CHTO   O32 2825   6.846   0.351   0.678 -0.0636  0.6416 -0.2717
    7CHTO   H69 2826   6.809   0.326   0.760 -0.1165  2.2492  0.2138
    7CHTO   C48 2827   6.770   0.418   0.449 -0.3067  0.2984  0.7293
    7CHTO   H90 2828   6.873   0.444   0.423 -0.8342 -0.1349 -1.8721
    7CHTO    N9 2829   6.717   0.551   0.495 -0.0683 -0.4811  0.3637
    7CHTO   H77 2830   6.785   0.588   0.570 -1.0505  1.6882  0.2168
    7CHTO   H78 2831   6.708   0.612   0.407  1.9392 -1.1046 -0.3059
    7CHTO   C51 2832   6.690   0.361   0.318 -0.2189  0.1741 -0.8243
    7CHTO   H93 2833   6.586   0.380   0.345 -0.6408  0.0961 -2.3903
    7CHTO   O30 2834   6.715   0.222   0.296 -0.3021  0.2364  0.2088
    7CHTO   C46 2835   6.685   0.132   0.400 -0.7453  0.2720 -0.6841
    7CHTO   H88 2836   6.580   0.152   0.421 -0.9061 -0.0798 -1.1496
    7CHTO   C53 2837   6.703  -0.013   0.349 -0.0542 -0.1748 -0.1650
    7CHTO   O72 2838   6.842  -0.038   0.326 -0.0020 -0.4630 -0.4925
    7CHTO  H199 2839   6.874  -0.112   0.374  1.3013 -0.5011 -1.4083
    7CHTO   O22 2840   6.727   0.427   0.199  0.6134 -0.2460 -0.1537
    7CHTO   C31 2841   6.630   0.500   0.112 -0.0731 -1.0220 -0.1725
    7CHTO   H59 2842   6.670   0.490   0.009 -1.6975  2.4068 -1.2345
    7CHTO   C29 2843   6.476   0.455   0.106  0.3533 -0.3274 -0.8299
    7CHTO   H57 2844   6.430   0.467   0.205 -1.1060  2.5839 -1.7987
    7CHTO   O21 2845   6.486   0.322   0.068  0.5894  0.1064 -0.1507
    7CHTO   H37 2846   6.515   0.268   0.140  2.5137  0.3143 -0.7378
    7CHTO   C27 2847   6.398   0.537   0.001 -0.0314 -0.6162 -0.1466
    7CHTO   H55 2848   6.438   0.512  -0.098  2.3449  0.3177  0.5599
    7CHTO    N5 2849   6.254   0.515   0.004 -0.0630  0.4924 -0.2492
    7CHTO   H43 2850   6.221   0.525   0.106  1.0320 -2.0626  0.4157
    7CHTO   H44 2851   6.185   0.567  -0.061 -1.5857 -1.1905 -0.0160
    7CHTO   C25 2852   6.421   0.686   0.027 -0.1432  0.4728 -0.8318
    7CHTO   H53 2853   6.388   0.712   0.129 -0.5828 -0.4452 -0.7332
    7CHTO   O17 2854   6.564   0.713   0.042  0.1843  0.1948 -0.4884
    7CHTO   C32 2855   6.641   0.650   0.141 -0.4236  0.0467 -0.2899
    7CHTO   H60 2856   6.596   0.662   0.239 -0.7048 -0.3645 -0.3664
    7CHTO   C36 2857   6.781   0.696   0.126 -0.5785 -0.1352  0.1072
    7CHTO   O25 2858   6.791   0.843   0.134  0.2602  0.1572  0.6298
    7CHTO   H40 2859   6.772   0.877   0.049  1.2879 -1.2882 -0.2098
    7CHTO   O15 2860   6.376   0.782  -0.072 -0.2415  0.6951 -0.0157
    7CHTO   C19 2861   6.326   0.916  -0.056 -0.2939 -0.6771  0.0824
    7CHTO   H47 2862   6.294   0.931  -0.160  2.2927 -0.7548 -0.7472
    7CHTO   C20 2863   6.216   0.929   0.049 -0.3923 -0.2402 -0.3927
    7CHTO   H48 2864   6.231   0.860   0.133  0.1065 -1.3444 -1.3655
    7CHTO   O19 2865   6.098   0.885  -0.019 -0.0742  0.2008  0.3985
    7CHTO   H35 2866   6.080   0.960  -0.072 -0.8406  1.1202  1.9037
    7CHTO   C21 2867   6.195   1.072   0.098 -0.4601  0.6857 -0.1130
    7CHTO   H49 2868   6.156   1.131   0.015  0.8913  0.7177 -0.7427
    7CHTO    N4 2869   6.099   1.089   0.212  0.4947 -0.1243 -0.4854
    7CHTO   H41 2870   6.119   1.028   0.298 -0.1153 -2.2288 -1.8124
    7CHTO   H42 2871   5.996   1.082   0.183  0.8642 -2.8465 -1.2719
    7CHTO   C22 2872   6.330   1.148   0.126  0.4887  0.0749 -0.2234
    7CHTO   H50 2873   6.377   1.093   0.207  0.3921 -0.5721 -0.6088
    7CHTO   O14 2874   6.393   1.148  -0.005 -0.6125  0.0070 -0.6922
    7CHTO   C23 2875   6.443   1.015  -0.037 -0.7221  0.5903 -0.1671
    7CHTO   H51 2876   6.497   0.992   0.055 -0.2251 -0.7100 -0.7724
    7CHTO   C34 2877   6.534   1.026  -0.155  0.5241  0.3595 -0.5619
    7CHTO   O23 2878   6.657   1.094  -0.123 -0.1050 -0.3805 -0.0513
    7CHTO   H38 2879   6.702   1.040  -0.061  1.2447  1.9516  1.1072
    7CHTO   O16 2880   6.306   1.290   0.154 -0.2839  0.1547  0.0310
    7CHTO   C24 2881   6.444   1.367   0.197 -0.2787  0.4792  0.0208
    7CHTO   H52 2882   6.533   1.312   0.164 -0.3977 -0.1817  0.7856
    7CHTO   C26 2883   6.450   1.388   0.351 -0.2476  0.3341 -0.8858
    7CHTO   H54 2884   6.357   1.438   0.385  0.9923  0.7546  2.0202
    7CHTO   O20 2885   6.453   1.256   0.406  0.3823  0.0405  0.1183
    7CHTO   H36 2886   6.490   1.248   0.492  0.5430 -0.9672 -0.0364
    7CHTO   C30 2887   6.573   1.476   0.387 -0.1787  0.5355 -0.6496
    7CHTO   H58 2888   6.667   1.426   0.360  0.7605  0.9984  1.6466
    7CHTO    N6 2889   6.587   1.482   0.533  0.2536 -0.1234  0.5360
    7CHTO   H45 2890   6.492   1.497   0.583  0.7495  1.0516  1.1375
    7CHTO   H46 2891   6.630   1.393   0.576 -0.6959 -1.7884 -1.9007
    7CHTO   C33 2892   6.559   1.617   0.317 -0.7733  0.5991 -0.0444
    7CHTO   H61 2893   6.471   1.674   0.347  0.3350  0.6896  3.2383
    7CHTO   O18 2894   6.560   1.595   0.177  0.1392 -0.5381 -0.0340
    7CHTO   C28 2895   6.451   1.507   0.129  0.4559  0.4875 -0.7693
    7CHTO   H56 2896   6.357   1.559   0.139  0.1963 -0.0380 -0.4691
    7CHTO   C35 2897   6.457   1.486  -0.021 -0.0190 -0.7580 -0.1244
    7CHTO   O24 2898   6.584   1.456  -0.080 -0.1620  0.7267 -0.0233
    7CHTO   H39 2899   6.642   1.530  -0.082 -1.6334  1.9217  0.6012
    7CHTO    O9 2900   6.667   1.702   0.355  0.1587  0.4531 -0.3089
    7CHTO   C13 2901   6.661   1.851   0.270  0.1356 -0.3081 -0.4814
    7CHTO   H26 2902   6.657   1.825   0.163  3.2697  1.6881 -1.1607
    7CHTO   C11 2903   6.783   1.943   0.305  0.2789 -0.2358 -0.4523
    7CHTO   H24 2904   6.877   1.894   0.273  0.3588 -0.6875  0.4502
    7CHTO    O8 2905   6.792   1.963   0.446 -0.1717  0.0103 -0.6379
    7CHTO    H3 2906   6.705   1.971   0.481 -0.7045 -0.5094 -1.7998
    7CHTO    C9 2907   6.773   2.058   0.206 -0.3637  0.2643  0.0970
    7CHTO   H22 2908   6.758   2.008   0.109 -1.2138  0.7324 -0.0247
    7CHTO    N2 2909   6.897   2.134   0.198 -0.0215  0.0027  0.4602
    7CHTO   H10 2910   6.899   2.201   0.113  1.8452  0.1648  0.6128
    7CHTO   H11 2911   6.886   2.195   0.286 -2.7963 -1.3080  1.0880
    7CHTO    C7 2912   6.638   2.141   0.223 -0.0669 -0.2728 -0.4835
    7CHTO   H20 2913   6.608   2.184   0.125 -1.6180  2.9791  1.3155
    7CHTO    O4 2914   6.523   2.062   0.245  0.6926  0.7366 -0.0466
    7CHTO   C14 2915   6.526   1.929   0.296  0.0432 -0.0722 -0.5405
    7CHTO   H27 2916   6.445   1.866   0.253 -2.0365 -0.5474  3.8057
    7CHTO   C18 2917   6.490   1.945   0.448 -0.5571  0.0826  0.2967
    7CHTO   O13 2918   6.358   1.982   0.483  0.4240  0.4822  0.0616
    7CHTO    H7 2919   6.296   1.927   0.438  1.2945 -0.5504  0.0965
    7CHTO    O2 2920   6.640   2.247   0.335 -0.6404 -0.2835  1.0394
    7CHTO    C1 2921   6.565   2.370   0.305  0.0947 -0.6476  0.2900
    7CHTO   H14 2922   6.562   2.430   0.398  1.9089 -0.0687  0.0081
    7CHTO    C2 2923   6.412   2.338   0.257  0.4852 -0.2170 -0.4402
    7CHTO   H15 2924   6.417   2.276   0.167  1.4023 -0.7634 -0.0224
    7CHTO    O6 2925   6.324   2.276   0.359  0.2300  0.0208  0.0762
    7CHTO    H1 2926   6.299   2.187   0.339  0.2482  0.1055 -0.3172
    7CHTO    C3 2927   6.338   2.472   0.206  0.1529 -0.2567  0.2978
    7CHTO   H16 2928   6.315   2.538   0.291  0.8181  0.7856 -0.3095
    7CHTO    N1 2929   6.209   2.449   0.131  0.1666  0.4079 -0.7480
    7CHTO    H8 2930   6.214   2.506   0.039  3.3432 -0.5769 -1.2372
    7CHTO    H9 2931   6.199   2.344   0.106 -0.8064  0.1467  0.7016
    7CHTO    C4 2932   6.442   2.553   0.116 -0.0865 -0.2653 -0.6746
    7CHTO   H17 2933   6.450   2.501   0.021 -0.1305  1.8381 -1.8455
    7CHTO    O1 2934   6.568   2.579   0.170  0.1415 -0.7275  0.3196
    7CHTO    C5 2935   6.642   2.458   0.201 -0.5760 -0.2606  0.2168
    7CHTO   H18 2936   6.649   2.398   0.111  0.6322  0.8354 -0.4472
    7CHTO   C16 2937   6.784   2.491   0.250  0.6181 -0.0480  0.7256
    7CHTO   O11 2938   6.791   2.549   0.387  0.6525 -0.0110  0.1550
    7CHTO    H5 2939   6.875   2.581   0.412  1.8539 -2.1331 -1.1079
    7CHTO    O3 2940   6.401   2.695   0.095 -0.1309  0.3476 -0.0236
    7CHTO    C6 2941   6.440   2.753  -0.031 -0.2602  0.3419  0.4131
    7CHTO   H19 2942   6.509   2.700  -0.096  2.3010  3.1189  0.7519
    7CHTO    C8 2943   6.305   2.776  -0.117  0.0766  0.6282  0.2395
    7CHTO   H21 2944   6.231   2.815  -0.047  0.8483 -1.3151  2.2166
    7CHTO    O7 2945   6.261   2.641  -0.146  0.2449 -0.4623  0.2842
    7CHTO    H2 2946   6.305   2.598  -0.217  2.2035 -0.7313  1.6359
    7CHTO   C12 2947   6.328   2.870  -0.243 -0.8286  0.9351  0.1055
    7CHTO   H25 2948   6.392   2.816  -0.316 -1.3132  1.0858 -0.4313
    7CHTO    N3 2949   6.195   2.895  -0.312  0.2460 -0.3968  0.0583
    7CHTO   H12 2950   6.189   2.887  -0.420 -1.5271 -1.3228  0.2065
    7CHTO   H13 2951   6.142   2.987  -0.289  2.8260  1.0954  0.2280
    7CHTO   C15 2952   6.399   3.000  -0.194 -0.8656 -0.4049  0.3022
    7CHTO   H28 2953   6.340   3.052  -0.119  3.3510  2.0513  2.0232
    7CHTO   O10 2954   6.444   3.096  -0.296 -0.2596  0.3915 -0.1954
    7CHTO    H4 2955   6.368   3.126  -0.343 -0.4885  1.6745  0.9476
    7CHTO    O5 2956   6.527   2.963  -0.135 -0.1604 -0.1028 -0.1472
    7CHTO   C10 2957   6.507   2.895  -0.007 -0.5750 -0.4009 -0.0951
    7CHTO   H23 2958   6.442   2.940   0.068 -0.8583  1.5694 -1.4837
    7CHTO   C17 2959   6.649   2.879   0.057  0.1559  0.1210 -0.2825
    7CHTO   O12 2960   6.749   2.810  -0.009 -0.5352  0.5010 -0.0259
    7CHTO    H6 2961   6.801   2.773   0.060 -0.8248 -1.2824 -0.7451
    8CHTO  H203 2962   7.077   6.963   2.060 -1.1962 -0.0223 -0.6028
    8CHTO   O82 2963   7.069   7.017   2.136 -0.0727 -0.3517 -0.2253
    8CHTO  C123 2964   6.991   7.132   2.095 -1.3433  0.4124 -0.4436
    8CHTO  H227 2965   7.034   7.176   2.004 -0.4871  1.4446  0.4514
    8CHTO   O77 2966   6.855   7.081   2.072 -0.0751 -0.4357 -0.0490
    8CHTO  C118 2967   6.774   7.174   2.007 -0.3066 -0.6904 -0.1120
    8CHTO  H222 2968   6.829   7.187   1.912 -0.2624 -1.5042 -0.1946
    8CHTO  C125 2969   6.638   7.100   1.971 -0.4689  0.4862 -0.3186
    8CHTO   O84 2970   6.671   7.025   1.857  0.5528 -0.0866 -0.1066
    8CHTO  H205 2971   6.597   7.028   1.799 -1.5022 -1.2609  2.3452
    8CHTO  C114 2972   6.747   7.299   2.093 -0.2827 -0.2228 -0.4581
    8CHTO  H218 2973   6.683   7.274   2.178 -1.4438 -1.3290 -1.6481
    8CHTO  C116 2974   6.882   7.355   2.147  0.2191 -0.0331 -0.0144
    8CHTO  H220 2975   6.930   7.415   2.067 -0.4161  0.7074  0.1537
    8CHTO   O79 2976   6.836   7.445   2.251  0.1531  0.0973 -0.0211
    8CHTO  H201 2977   6.899   7.506   2.285  0.1208  0.6020 -0.8537
    8CHTO  C120 2978   6.974   7.242   2.203 -0.4185  0.1319 -0.3620
    8CHTO  H224 2979   6.920   7.195   2.288 -2.2791  1.9819 -0.4764
    8CHTO   N21 2980   7.097   7.297   2.253  0.1061 -0.0953 -0.1039
    8CHTO  H211 2981   7.138   7.234   2.330 -1.7178  0.9863  1.7824
    8CHTO  H212 2982   7.168   7.312   2.173  0.7737 -2.3312  0.0434
    8CHTO   O75 2983   6.662   7.380   2.010 -0.1935  0.8451  0.6447
    8CHTO  C112 2984   6.610   7.520   2.065 -0.3535 -0.1834  0.7488
    8CHTO  H216 2985   6.693   7.591   2.059 -0.5195  0.0896  1.6208
    8CHTO   O73 2986   6.571   7.502   2.203  0.4695  0.4604 -0.4260
    8CHTO  C113 2987   6.529   7.624   2.269  0.3443 -0.1163 -0.2382
    8CHTO  H217 2988   6.595   7.712   2.253  0.9987 -0.5881 -0.1054
    8CHTO  C124 2989   6.523   7.593   2.420 -0.5092 -0.2035  0.3943
    8CHTO   O83 2990   6.411   7.505   2.456 -0.1467 -0.7300 -0.4132
    8CHTO  H204 2991   6.421   7.487   2.548 -2.8677  1.3577  0.3465
    8CHTO  C109 2992   6.389   7.653   2.199 -0.0955 -0.4269  0.4485
    8CHTO  H213 2993   6.317   7.577   2.232 -1.7303  1.2442  0.8191
    8CHTO  C110 2994   6.395   7.658   2.041  0.2379 -0.5302 -0.5608
    8CHTO  H214 2995   6.442   7.754   2.018  0.5237 -0.1726  1.3594
    8CHTO   O78 2996   6.262   7.674   1.986  0.0381 -0.7633 -0.2403
    8CHTO  H200 2997   6.256   7.626   1.905 -1.5981 -1.3509  0.2217
    8CHTO  C111 2998   6.481   7.551   1.979  0.2338 -0.0512  0.3650
    8CHTO  H215 2999   6.426   7.457   1.968  0.1115 -0.2237  2.2143
    8CHTO   N19 3000   6.522   7.595   1.838 -0.7643  0.4927  0.1252
    8CHTO  H207 3001   6.563   7.510   1.786 -0.3249  0.6147  0.2718
    8CHTO  H208 3002   6.454   7.643   1.769 -1.3023  2.0886  1.7302
    8CHTO   O74 3003   6.335   7.779   2.237 -0.1345 -0.0298  0.1459
    8CHTO  C115 3004   6.182   7.797   2.294 -0.1085  0.0496  0.6091
    8CHTO  H219 3005   6.132   7.702   2.314 -1.3595  0.3598 -0.9493
    8CHTO   O76 3006   6.177   7.877   2.431 -0.5358 -0.0852  0.1620
    8CHTO  C122 3007   6.192   8.023   2.424 -0.1821  0.2836 -0.4068
    8CHTO  H226 3008   6.298   8.049   2.413  0.0696 -0.6344 -0.1746
    8CHTO  C126 3009   6.151   8.073   2.569 -0.0184  0.1988 -0.4967
    8CHTO   O85 3010   6.013   8.059   2.610 -0.2623  0.1964 -0.2025
    8CHTO  H206 3011   5.961   8.126   2.568  0.7006  0.6907 -0.6412
    8CHTO  C121 3012   6.120   8.099   2.301 -0.2438  0.0255  0.5948
    8CHTO  H225 3013   6.012   8.125   2.310 -0.3202  0.2095 -0.8587
    8CHTO   O81 3014   6.177   8.225   2.294  0.3273  0.2253 -0.6262
    8CHTO  H202 3015   6.122   8.272   2.234 -1.2984 -0.2802  0.4391
    8CHTO  C119 3016   6.142   8.022   2.163  0.1150  0.6136  0.2402
    8CHTO  H223 3017   6.090   8.077   2.085 -0.6515 -1.1242 -0.4879
    8CHTO  C117 3018   6.100   7.868   2.179  0.1503  0.3533  0.2875
    8CHTO  H221 3019   6.119   7.805   2.093 -0.2487 -0.7158  0.9777
    8CHTO   N20 3020   5.954   7.857   2.201 -0.2995  0.2608 -0.2115
    8CHTO  H209 3021   5.906   7.793   2.128 -0.1458 -2.2309  1.8092
    8CHTO  H210 3022   5.948   7.827   2.304 -2.1304  0.4529 -0.2422
    8CHTO   O80 3023   6.305   8.023   2.101 -0.2804 -0.7290 -0.0027
    8CHTO  C103 3024   6.349   8.137   2.001  0.9559 -0.3816 -0.3313
    8CHTO  H190 3025   6.270   8.208   1.977  1.9299  0.7869 -0.1363
    8CHTO  C101 3026   6.478   8.223   2.047 -0.4191  0.7043  0.0308
    8CHTO  H188 3027   6.554   8.155   2.086 -0.2555  1.3428  0.8373
    8CHTO   O68 3028   6.439   8.310   2.162  0.1367 -0.1906  0.9362
    8CHTO  H168 3029   6.376   8.370   2.129  0.2203 -0.5972  0.0153
    8CHTO   C99 3030   6.533   8.308   1.924  0.0461  0.3792 -0.5700
    8CHTO  H186 3031   6.458   8.383   1.890 -1.0865 -0.1966  0.6467
    8CHTO   N17 3032   6.664   8.388   1.949 -0.5234  0.3998  0.5583
    8CHTO  H174 3033   6.641   8.472   2.012  0.9766  0.9074  0.4605
    8CHTO  H175 3034   6.719   8.411   1.859 -2.2407  1.2698 -0.2749
    8CHTO   C97 3035   6.557   8.214   1.806 -0.0363  0.4491 -0.4028
    8CHTO  H184 3036   6.633   8.143   1.842  0.9516  2.2300  1.0818
    8CHTO   O64 3037   6.437   8.147   1.769  0.0203  0.2814  0.0040
    8CHTO  C104 3038   6.385   8.061   1.876  0.5076  0.3008  0.6653
    8CHTO  H191 3039   6.452   7.980   1.903  0.6807 -0.1940 -1.1791
    8CHTO  C108 3040   6.250   7.995   1.824  0.5684  0.5174  0.1011
    8CHTO   O71 3041   6.251   7.935   1.693  0.4593 -0.3281  0.0589
    8CHTO  H171 3042   6.203   7.979   1.625 -0.2901 -1.6891 -0.3148
    8CHTO   O62 3043   6.593   8.278   1.683  0.7569  0.4844  0.5585
    8CHTO   C91 3044   6.662   8.210   1.573 -0.0665  0.3050 -0.0558
    8CHTO  H178 3045   6.675   8.106   1.603  0.2564  0.2788 -0.2883
    8CHTO   C92 3046   6.806   8.274   1.557 -0.8804  0.2481  0.9084
    8CHTO  H179 3047   6.857   8.284   1.654 -0.2227 -0.2666  0.6214
    8CHTO   O66 3048   6.880   8.189   1.469 -0.3148  0.5680  0.8633
    8CHTO  H166 3049   6.830   8.162   1.394  0.2807  1.6314  0.0659
    8CHTO   C93 3050   6.795   8.412   1.479 -0.4740  0.3324 -0.5561
    8CHTO  H180 3051   6.897   8.443   1.451 -0.3753  0.0232 -0.5441
    8CHTO   N16 3052   6.754   8.520   1.573  0.0726  0.1650 -0.4579
    8CHTO  H172 3053   6.742   8.609   1.513  0.3172  0.9244  0.6174
    8CHTO  H173 3054   6.659   8.505   1.621  0.8042 -0.8290  0.7178
    8CHTO   C94 3055   6.716   8.404   1.343  0.1780  0.1205 -0.1080
    8CHTO  H181 3056   6.636   8.479   1.334  1.0454  0.8185 -2.3831
    8CHTO   O61 3057   6.655   8.275   1.332  0.8461  0.4739  0.3114
    8CHTO   C95 3058   6.579   8.224   1.440  0.4969  0.8722 -0.3390
    8CHTO  H182 3059   6.497   8.293   1.461  1.2205  1.4905  0.4838
    8CHTO  C106 3060   6.522   8.093   1.394  0.2725 -0.6351  0.2555
    8CHTO   O69 3061   6.413   8.106   1.306 -0.4745 -0.2049 -0.0467
    8CHTO  H169 3062   6.365   8.183   1.333 -3.5724 -1.6960 -1.0612
    8CHTO   O63 3063   6.805   8.445   1.216  0.3819 -0.3101 -0.4645
    8CHTO   C96 3064   6.719   8.471   1.092 -0.2863  0.2188 -0.1903
    8CHTO  H183 3065   6.619   8.432   1.108 -0.1238 -1.0976 -2.2101
    8CHTO   C98 3066   6.786   8.382   0.977  0.2164 -0.1055 -0.5172
    8CHTO  H185 3067   6.895   8.397   0.982 -0.0773  1.1329  2.9096
    8CHTO   O67 3068   6.764   8.249   1.012 -0.1595 -0.4628 -0.5064
    8CHTO  H167 3069   6.849   8.209   1.013 -0.6998 -1.6035  1.3442
    8CHTO  C102 3070   6.724   8.422   0.829 -0.2099  0.0610  0.0004
    8CHTO  H189 3071   6.623   8.381   0.832 -0.6795  1.3498  2.5207
    8CHTO   N18 3072   6.794   8.367   0.712  0.0528 -0.1444 -1.2145
    8CHTO  H176 3073   6.731   8.362   0.624  0.2542 -1.1388 -1.3129
    8CHTO  H177 3074   6.849   8.276   0.729  0.0288 -0.1718 -1.2904
    8CHTO  C105 3075   6.698   8.569   0.815  0.1325 -0.1749  0.9830
    8CHTO  H192 3076   6.792   8.620   0.794 -1.4321  2.5334  0.3349
    8CHTO   O65 3077   6.632   8.629   0.926  0.3169  0.2657  0.1102
    8CHTO  C100 3078   6.716   8.620   1.038 -0.1493  0.8440 -0.3028
    8CHTO  H187 3079   6.818   8.652   1.013 -0.4796  1.0209 -1.4333
    8CHTO  C107 3080   6.661   8.713   1.143  0.1092 -0.3141 -0.6432
    8CHTO   O70 3081   6.678   8.848   1.110 -0.7601  0.0069  0.0229
    8CHTO  H170 3082   6.766   8.872   1.086  0.4489 -2.5956  1.6394
    8CHTO   O57 3083   6.609   8.590   0.689  0.7612  0.0267  0.8467
    8CHTO   C85 3084   6.603   8.704   0.600  0.3517  0.0147 -0.2044
    8CHTO  H157 3085   6.708   8.718   0.566  0.6805 -0.6779  0.5019
    8CHTO   C83 3086   6.569   8.837   0.661  0.2495  0.2705  0.0940
    8CHTO  H155 3087   6.642   8.870   0.734 -1.7118  0.5481  1.9966
    8CHTO   O56 3088   6.458   8.801   0.750  0.0298  0.5425  0.4224
    8CHTO  H135 3089   6.405   8.879   0.752  0.3564  0.9725 -3.3461
    8CHTO   C81 3090   6.552   8.945   0.545 -0.5079 -0.8377 -0.1030
    8CHTO  H153 3091   6.645   8.956   0.488 -1.6215  0.5920 -1.7044
    8CHTO   N14 3092   6.524   9.077   0.602  0.2190  0.2066  0.3311
    8CHTO  H141 3093   6.597   9.084   0.680  0.0698  1.8920  0.3310
    8CHTO  H142 3094   6.547   9.154   0.531 -1.3266  1.9925  1.7338
    8CHTO   C79 3095   6.435   8.907   0.442  0.4415  0.1678  0.1619
    8CHTO  H151 3096   6.434   8.981   0.362  0.1913 -0.2738 -0.2471
    8CHTO   O52 3097   6.472   8.774   0.384  0.2494  0.7866 -0.1101
    8CHTO   C86 3098   6.506   8.662   0.485  0.8678  0.4124  0.2638
    8CHTO  H158 3099   6.404   8.634   0.518  0.3707  1.0366 -0.7243
    8CHTO   C90 3100   6.560   8.537   0.411 -0.0266 -0.1594 -0.5280
    8CHTO   O60 3101   6.457   8.498   0.325 -0.4506 -0.0237 -0.3670
    8CHTO  H138 3102   6.391   8.455   0.375 -0.1129  1.0664  1.0748
    8CHTO   O50 3103   6.307   8.890   0.494  0.2551  0.3438 -0.1709
    8CHTO   C73 3104   6.174   8.856   0.456  0.2864  0.5056  0.3117
    8CHTO  H145 3105   6.179   8.787   0.371  0.5967  2.4546 -1.2938
    8CHTO   C74 3106   6.107   8.994   0.429  0.4542 -0.2627 -0.1141
    8CHTO  H146 3107   6.153   9.048   0.345  0.8836 -1.5592 -0.7181
    8CHTO   O54 3108   5.968   8.964   0.383 -0.3840  0.3628 -0.0568
    8CHTO  H133 3109   5.935   8.886   0.423  1.9943 -1.6919 -1.9969
    8CHTO   C75 3110   6.104   9.074   0.563  0.6112  0.6708 -0.0713
    8CHTO  H147 3111   6.207   9.098   0.595  0.5949 -0.3788  0.7553
    8CHTO   N13 3112   6.039   9.210   0.559  0.6470 -0.0204  0.2393
    8CHTO  H139 3113   5.961   9.211   0.484  0.4388  1.1112  0.4668
    8CHTO  H140 3114   6.114   9.287   0.554  0.0916  0.5838  1.0871
    8CHTO   C76 3115   6.034   8.992   0.678  0.1696  0.3609  0.0453
    8CHTO  H148 3116   5.927   8.986   0.659 -0.0896  1.2516  1.1838
    8CHTO   O49 3117   6.102   8.858   0.699 -0.3974  0.2812 -0.1266
    8CHTO   C77 3118   6.103   8.783   0.575  0.7623  0.2704  0.4556
    8CHTO  H149 3119   5.999   8.768   0.545  0.8436 -0.1385  0.3806
    8CHTO   C88 3120   6.152   8.640   0.605  0.1967 -0.1634 -0.3146
    8CHTO   O58 3121   6.184   8.550   0.462  0.0659 -0.5891 -0.1936
    8CHTO  H136 3122   6.235   8.476   0.490 -0.0515 -0.0616  1.4839
    8CHTO   O51 3123   6.062   9.058   0.832 -0.2066  0.0591  0.3219
    8CHTO   C78 3124   6.006   8.972   0.959 -0.8884 -0.3881  0.8449
    8CHTO  H150 3125   5.971   8.871   0.929 -0.7986 -0.1204 -0.1954
    8CHTO   C80 3126   5.889   9.048   1.027 -0.7829 -0.1726 -0.5818
    8CHTO  H152 3127   5.923   9.146   1.066 -0.5437 -0.4481 -0.0926
    8CHTO   O55 3128   5.783   9.064   0.928  0.2562  0.2199 -0.5323
    8CHTO  H134 3129   5.794   9.016   0.849 -2.3574 -1.6950  0.2030
    8CHTO   C84 3130   5.850   8.967   1.154 -0.4527  0.4533 -0.1219
    8CHTO  H156 3131   5.809   8.873   1.119 -2.4445  1.3753 -0.3343
    8CHTO   N15 3132   5.738   9.034   1.228  0.3220  0.3612 -0.2868
    8CHTO  H143 3133   5.727   8.976   1.318 -4.3270  1.5499  0.0378
    8CHTO  H144 3134   5.643   9.046   1.181 -0.2836  4.1243  1.6752
    8CHTO   C87 3135   5.975   8.955   1.238 -0.5086 -0.2487  0.1873
    8CHTO  H159 3136   6.018   9.056   1.241  2.3053 -1.3560 -1.1878
    8CHTO   O53 3137   6.067   8.872   1.171 -0.3968 -0.0933 -0.1475
    8CHTO   C82 3138   6.121   8.940   1.056  0.8956 -0.9201  0.1614
    8CHTO  H154 3139   6.152   9.038   1.092  0.2138 -1.0932  1.2556
    8CHTO   C89 3140   6.246   8.864   1.006 -0.2033 -1.1704  0.6950
    8CHTO   O59 3141   6.347   8.853   1.104  0.5788 -0.0308  0.0678
    8CHTO  H137 3142   6.429   8.850   1.059  0.5795 -0.5522  0.1014
    8CHTO   O45 3143   5.951   8.894   1.395 -0.3305  0.3815 -0.0388
    8CHTO   C67 3144   6.040   8.937   1.500  0.4954  0.0447  0.6750
    8CHTO  H124 3145   6.005   8.902   1.597  0.0719  0.1507  0.5627
    8CHTO   C65 3146   6.183   8.878   1.463  0.9905  0.3313  0.2097
    8CHTO  H122 3147   6.181   8.837   1.362  0.9462  2.5921 -0.7473
    8CHTO   O44 3148   6.195   8.770   1.557 -0.5127 -0.1031  0.0718
    8CHTO  H102 3149   6.285   8.752   1.573 -0.1651  0.0649 -1.6493
    8CHTO   C63 3150   6.299   8.983   1.473  0.4939  0.6594  0.0047
    8CHTO  H120 3151   6.292   9.046   1.384 -0.7712 -1.0095 -1.1152
    8CHTO   N11 3152   6.437   8.932   1.465 -0.4287  0.2734 -0.1490
    8CHTO  H108 3153   6.451   8.878   1.374 -2.0688  0.4883 -0.5437
    8CHTO  H109 3154   6.511   9.010   1.466  0.7709 -0.7922 -2.0449
    8CHTO   C61 3155   6.273   9.071   1.600 -0.2373 -0.2093 -0.9144
    8CHTO  H118 3156   6.351   9.149   1.603  0.6971 -1.1184 -1.2682
    8CHTO   O40 3157   6.144   9.137   1.613 -0.0677 -0.4778  0.0526
    8CHTO   C68 3158   6.054   9.099   1.511 -0.4244  0.1704  0.2866
    8CHTO  H125 3159   6.091   9.143   1.416  2.2718 -0.5812  0.9552
    8CHTO   C72 3160   5.918   9.163   1.538 -0.7051 -0.2184 -0.4863
    8CHTO   O48 3161   5.887   9.242   1.658  0.0496  0.3894 -0.1920
    8CHTO  H105 3162   5.892   9.333   1.635 -0.2322  0.6005  0.5379
    8CHTO   O38 3163   6.295   9.000   1.728  0.1493 -0.6289 -0.2782
    8CHTO   C55 3164   6.288   9.076   1.853  0.0449  0.3110 -0.1944
    8CHTO  H112 3165   6.311   9.180   1.826  2.5224 -0.5493 -1.5791
    8CHTO   C56 3166   6.399   9.008   1.942  0.2621 -0.3590 -0.0780
    8CHTO  H113 3167   6.496   9.009   1.890  1.0075 -0.8976  1.2722
    8CHTO   O42 3168   6.412   9.095   2.056  0.2918  0.1176 -0.2937
    8CHTO  H100 3169   6.501   9.093   2.085  0.6324 -0.6113 -1.3560
    8CHTO   C57 3170   6.366   8.857   1.985 -0.3015 -0.4973 -0.3806
    8CHTO  H114 3171   6.399   8.857   2.089 -0.2700 -2.0078 -0.3868
    8CHTO   N10 3172   6.437   8.760   1.901 -0.5221  0.1544 -0.0176
    8CHTO  H106 3173   6.382   8.744   1.810 -2.9514  0.1085  1.4288
    8CHTO  H107 3174   6.443   8.668   1.956  1.9183 -0.1589 -0.7577
    8CHTO   C58 3175   6.208   8.838   1.986 -0.1094  0.1152  0.3154
    8CHTO  H115 3176   6.172   8.795   1.891 -1.3515  1.8589 -0.0244
    8CHTO   O37 3177   6.135   8.961   2.012 -0.3943 -0.0632 -0.0231
    8CHTO   C59 3178   6.139   9.063   1.913 -0.8185  0.1245  0.5644
    8CHTO  H116 3179   6.067   9.046   1.833  1.1084  1.1461 -1.4481
    8CHTO   C70 3180   6.081   9.196   1.975 -0.2748  0.0671  0.1922
    8CHTO   O46 3181   5.942   9.182   1.997 -0.5916 -0.3767  0.3468
    8CHTO  H103 3182   5.926   9.129   2.073  0.3292  0.8626  1.4246
    8CHTO   O39 3183   6.177   8.734   2.109 -0.8762 -0.4506 -0.5407
    8CHTO   C60 3184   6.031   8.712   2.142 -0.3815  0.0349  0.9943
    8CHTO  H117 3185   5.975   8.792   2.094 -0.3871  0.1227  1.1486
    8CHTO   C62 3186   5.990   8.571   2.105 -0.0409 -0.1638  0.5987
    8CHTO  H119 3187   6.030   8.561   2.002 -1.1161  2.1326 -0.0836
    8CHTO   O43 3188   6.050   8.458   2.171  0.0690 -0.0445 -0.0596
    8CHTO  H101 3189   6.053   8.380   2.120  0.5088  0.8102 -1.3794
    8CHTO   C66 3190   5.834   8.566   2.111 -0.2376  0.2686 -0.1213
    8CHTO  H123 3191   5.790   8.655   2.065 -3.5730 -2.8185 -3.2262
    8CHTO   N12 3192   5.762   8.451   2.050 -0.0039 -0.6629 -0.1617
    8CHTO  H110 3193   5.773   8.431   1.944 -1.4256 -1.8540 -0.1019
    8CHTO  H111 3194   5.661   8.441   2.087  0.2997  1.4523  1.3059
    8CHTO   C69 3195   5.790   8.572   2.262  0.2770 -0.2659  0.8054
    8CHTO  H126 3196   5.835   8.485   2.314  1.0314  0.8457  2.0394
    8CHTO   O41 3197   5.853   8.696   2.322  0.2251  0.2384  0.4775
    8CHTO   C64 3198   6.008   8.728   2.289  0.7444  0.5093 -0.1374
    8CHTO  H121 3199   6.073   8.659   2.347 -1.9747 -1.1868  0.9565
    8CHTO   C71 3200   6.043   8.873   2.329  0.6033  0.1758  0.7071
    8CHTO   O47 3201   6.020   8.891   2.468 -0.1013  0.1024 -0.0153
    8CHTO  H104 3202   5.988   8.975   2.494 -2.6876 -1.1311  0.9536
    8CHTO   O34 3203   5.625   8.580   2.271 -0.3565 -0.4917 -0.7385
    8CHTO   C49 3204   5.538   8.723   2.268  1.0215  0.8096 -0.0861
    8CHTO   H91 3205   5.547   8.768   2.367  0.0516  0.0601  0.3513
    8CHTO   C47 3206   5.386   8.686   2.249  0.2058  0.0244 -0.8466
    8CHTO   H89 3207   5.340   8.783   2.278  2.6468  0.7812  0.6493
    8CHTO   O33 3208   5.351   8.586   2.346  0.3175  0.7156 -0.0399
    8CHTO   H70 3209   5.286   8.531   2.309 -0.3591  0.3137  1.7251
    8CHTO   C45 3210   5.359   8.635   2.101  0.5821 -0.2852 -0.3182
    8CHTO   H87 3211   5.410   8.541   2.076  0.3968 -0.5402  0.2753
    8CHTO    N8 3212   5.213   8.614   2.078 -0.2254 -0.2251  0.5964
    8CHTO   H75 3213   5.192   8.515   2.117 -0.9978 -0.6413 -0.8422
    8CHTO   H76 3214   5.186   8.604   1.974 -0.6317 -0.1104  0.6917
    8CHTO   C43 3215   5.406   8.747   1.992  0.2529 -0.8220 -0.6772
    8CHTO   H85 3216   5.399   8.696   1.896 -0.4227 -0.6922 -0.7013
    8CHTO   O29 3217   5.536   8.790   2.019 -0.3590 -0.2456  0.1260
    8CHTO   C50 3218   5.578   8.824   2.153  1.2019  0.6765 -0.3435
    8CHTO   H92 3219   5.687   8.833   2.161  1.3013  1.6935 -2.4545
    8CHTO   C54 3220   5.539   8.973   2.184 -0.6208 -0.3929  0.4097
    8CHTO   O36 3221   5.597   9.067   2.092 -0.3088  0.3522 -0.2398
    8CHTO   H72 3222   5.572   9.155   2.117  1.2430  0.6947  0.1524
    8CHTO   O27 3223   5.316   8.858   1.967  0.1121  0.3185  0.5103
    8CHTO   C37 3224   5.257   8.956   1.881  0.1833 -0.0999  0.4062
    8CHTO   H79 3225   5.238   8.906   1.785  2.2707 -1.3797  0.6188
    8CHTO   C38 3226   5.127   9.018   1.940 -0.1751 -0.2794  0.6225
    8CHTO   H80 3227   5.155   9.070   2.033  0.3855  2.5761 -1.0725
    8CHTO   O31 3228   5.040   8.916   1.985 -0.0244 -0.5033 -0.1176
    8CHTO   H68 3229   5.078   8.861   2.050 -2.5249 -0.7052  1.2484
    8CHTO   C39 3230   5.062   9.126   1.844 -0.7955  0.3653 -0.4550
    8CHTO   H81 3231   5.033   9.084   1.748  0.5223 -0.3954 -0.5364
    8CHTO    N7 3232   4.942   9.181   1.903  0.0237 -0.3385  0.1110
    8CHTO   H73 3233   4.965   9.225   1.999  0.5346  0.8307 -0.5349
    8CHTO   H74 3234   4.892   9.261   1.851  0.7706 -0.0658 -0.1892
    8CHTO   C40 3235   5.180   9.235   1.820  0.7089  0.4843  0.2167
    8CHTO   H82 3236   5.209   9.279   1.915  2.3274 -1.7751  0.8082
    8CHTO   O26 3237   5.293   9.166   1.755  0.4455  0.3438 -0.0947
    8CHTO   C41 3238   5.353   9.075   1.852  0.1818 -0.0069 -0.1092
    8CHTO   H83 3239   5.366   9.136   1.943 -0.7002 -0.5048  0.3602
    8CHTO   C52 3240   5.496   9.038   1.802 -0.1722 -0.4530  0.3235
    8CHTO   O35 3241   5.499   9.022   1.654 -0.1879  0.4204 -0.0339
    8CHTO   H71 3242   5.419   8.987   1.618  0.1675 -0.3143 -0.1203
    8CHTO   O28 3243   5.147   9.354   1.750  0.0636 -0.3237 -0.2923
    8CHTO   C42 3244   5.091   9.388   1.618  0.8932 -0.2911 -0.2415
    8CHTO   H84 3245   5.108   9.495   1.622  2.1300 -0.5229  0.9431
    8CHTO   C44 3246   4.937   9.361   1.583 -0.0125 -0.3857 -0.6113
    8CHTO   H86 3247   4.913   9.259   1.612  0.2743 -0.4657 -0.6554
    8CHTO   O32 3248   4.871   9.457   1.670 -0.7350  0.1512  0.4344
    8CHTO   H69 3249   4.789   9.487   1.637 -2.0919 -2.2777  1.5257
    8CHTO   C48 3250   4.912   9.387   1.429 -0.0292  0.3450 -0.4626
    8CHTO   H90 3251   4.942   9.490   1.413  1.6048 -0.1206 -0.4425
    8CHTO    N9 3252   4.766   9.377   1.389 -0.0271  0.2088  0.1950
    8CHTO   H77 3253   4.702   9.383   1.476  1.8083  0.5747  1.5536
    8CHTO   H78 3254   4.734   9.451   1.318  0.8364 -1.2963 -1.8210
    8CHTO   C51 3255   5.010   9.290   1.347 -0.4027 -0.3811 -0.3086
    8CHTO   H93 3256   4.996   9.188   1.383  1.4184 -1.2225 -1.8758
    8CHTO   O30 3257   5.140   9.337   1.365 -0.2985  0.4335  0.0900
    8CHTO   C46 3258   5.183   9.325   1.501 -0.1335 -0.9085  0.1733
    8CHTO   H88 3259   5.184   9.220   1.530 -0.4500 -0.5897  1.3756
    8CHTO   C53 3260   5.323   9.392   1.503 -0.2196  0.5198 -0.0920
    8CHTO   O72 3261   5.431   9.311   1.443  0.3880 -0.1523 -0.8740
    8CHTO  H199 3262   5.398   9.223   1.438 -1.3905  0.4573 -0.2509
    8CHTO   O22 3263   4.992   9.303   1.208  0.0153  0.0802  0.3000
    8CHTO   C31 3264   5.045   9.211   1.105 -0.0503 -0.0975  0.2776
    8CHTO   H59 3265   4.996   9.245   1.011 -1.6441 -3.5113 -0.2083
    8CHTO   C29 3266   5.198   9.229   1.087 -0.1779 -0.8906  0.4160
    8CHTO   H57 3267   5.249   9.201   1.181 -0.5234 -0.5893  0.6917
    8CHTO   O21 3268   5.226   9.367   1.067  0.0554 -0.4918 -0.1099
    8CHTO   H37 3269   5.213   9.435   1.130  0.2420  1.3268 -1.9936
    8CHTO   C27 3270   5.243   9.133   0.972 -0.8588 -0.8089  0.1584
    8CHTO   H55 3271   5.206   9.172   0.876  0.3943 -1.3967 -0.5839
    8CHTO    N5 3272   5.396   9.134   0.959  0.2646  0.5048  0.2160
    8CHTO   H43 3273   5.437   9.122   0.860 -0.3911  1.0643 -0.1323
    8CHTO   H44 3274   5.443   9.227   0.988  2.4905 -0.4202 -0.3341
    8CHTO   C25 3275   5.198   8.989   1.005  0.4740 -0.4940  0.0910
    8CHTO   H53 3276   5.254   8.966   1.097  5.0763  2.7482 -1.6946
    8CHTO   O17 3277   5.054   8.979   1.029  0.2254 -0.3850 -0.0300
    8CHTO   C32 3278   5.006   9.062   1.133 -0.6574 -0.5409 -0.5138
    8CHTO   H60 3279   5.058   9.019   1.218 -1.5092 -1.1469 -0.2870
    8CHTO   C36 3280   4.851   9.043   1.142 -0.3922  0.4754 -0.6425
    8CHTO   O25 3281   4.810   8.902   1.156 -0.0006 -0.1615  0.1344
    8CHTO   H40 3282   4.765   8.880   1.236  0.3295 -2.0803 -0.1866
    8CHTO   O15 3283   5.233   8.895   0.888  0.0503 -0.6654 -0.3854
    8CHTO   C19 3284   5.229   8.843   0.751  0.0395  0.4591 -0.1315
    8CHTO   H47 3285   5.181   8.745   0.762  0.7608  0.0091 -0.9342
    8CHTO   C20 3286   5.137   8.918   0.658  0.1758 -0.3352  1.0004
    8CHTO   H48 3287   5.167   9.024   0.651  1.5423 -0.9330 -4.4673
    8CHTO   O19 3288   5.006   8.925   0.726 -0.2423 -0.6541  0.3854
    8CHTO   H35 3289   4.939   8.959   0.669  0.2911  0.1872  0.2568
    8CHTO   C21 3290   5.144   8.851   0.512  0.6539 -0.1774  0.4083
    8CHTO   H49 3291   5.098   8.752   0.512  0.1294  0.0587  1.5833
    8CHTO    N4 3292   5.057   8.921   0.416  0.4431 -0.0952 -0.0625
    8CHTO   H41 3293   5.054   9.027   0.440 -1.5803  0.1193 -1.1503
    8CHTO   H42 3294   4.959   8.877   0.417  0.7474 -0.7540  0.6097
    8CHTO   C22 3295   5.288   8.839   0.474  0.5271 -0.5911 -1.3151
    8CHTO   H50 3296   5.322   8.943   0.465 -3.1564  0.8068  0.0165
    8CHTO   O14 3297   5.360   8.766   0.569 -0.0958  0.5370  0.0209
    8CHTO   C23 3298   5.372   8.825   0.698  0.3368 -0.3720  0.3262
    8CHTO   H51 3299   5.421   8.922   0.681  0.9340 -0.8214 -0.5105
    8CHTO   C34 3300   5.466   8.739   0.780 -0.4923  0.0443  0.6096
    8CHTO   O23 3301   5.586   8.690   0.711  0.7466  0.3637 -0.0989
    8CHTO   H38 3302   5.563   8.627   0.646 -1.8971  1.0556  0.1023
    8CHTO   O16 3303   5.317   8.765   0.350  0.6933 -0.0763  0.6827
    8CHTO   C24 3304   5.487   8.768   0.313  0.5203  0.0117 -0.2944
    8CHTO   H52 3305   5.545   8.776   0.405 -0.4980 -0.0225  0.3695
    8CHTO   C26 3306   5.527   8.876   0.212 -0.1034 -0.4024 -0.5962
    8CHTO   H54 3307   5.475   8.855   0.116 -0.8919  0.0542 -0.2623
    8CHTO   O20 3308   5.471   9.004   0.252 -0.7012 -0.5889 -0.0992
    8CHTO   H36 3309   5.489   9.068   0.186  0.2557  0.0314  0.7427
    8CHTO   C30 3310   5.681   8.880   0.188 -0.1766 -0.3504 -0.6184
    8CHTO   H58 3311   5.735   8.904   0.280 -1.5680 -3.1429  1.0036
    8CHTO    N6 3312   5.725   8.987   0.097  0.2018  0.5502  0.0130
    8CHTO   H45 3313   5.831   8.978   0.077 -0.0611  0.0083 -1.1583
    8CHTO   H46 3314   5.701   9.081   0.145 -1.8049 -0.0008  0.1278
    8CHTO   C33 3315   5.725   8.736   0.126 -0.0003 -0.1505 -0.3713
    8CHTO   H61 3316   5.679   8.720   0.028 -0.7955 -5.0741  0.6622
    8CHTO   O18 3317   5.671   8.639   0.217 -0.1690 -0.1133 -0.5959
    8CHTO   C28 3318   5.529   8.631   0.238 -0.5776  0.3912  0.8742
    8CHTO   H56 3319   5.467   8.612   0.151 -1.3518 -0.8012  1.6752
    8CHTO   C35 3320   5.495   8.507   0.333  0.4691 -0.7503  0.2302
    8CHTO   O24 3321   5.544   8.527   0.465  0.2172 -0.4653 -0.1315
    8CHTO   H39 3322   5.614   8.470   0.489 -1.0849 -2.6609 -1.4330
    8CHTO    O9 3323   5.867   8.719   0.110  0.6918 -0.6514 -0.9755
    8CHTO   C13 3324   5.924   8.723  -0.044  0.3891  0.4768 -0.0371
    8CHTO   H26 3325   5.859   8.790  -0.105  1.5528  1.1430 -0.5652
    8CHTO   C11 3326   5.911   8.571  -0.093 -0.2892 -0.1125  0.3695
    8CHTO   H24 3327   5.803   8.554  -0.108 -0.2789  0.8482 -0.8828
    8CHTO    O8 3328   5.961   8.476   0.006  0.4387 -0.0381  0.0939
    8CHTO    H3 3329   5.894   8.466   0.071 -0.0149  1.6534 -0.0947
    8CHTO    C9 3330   6.000   8.559  -0.221  0.0047  0.0525 -0.6856
    8CHTO   H22 3331   5.978   8.640  -0.292 -1.0222  0.0016 -0.4316
    8CHTO    N2 3332   5.976   8.434  -0.300 -0.0322 -0.0403  0.3974
    8CHTO   H10 3333   5.979   8.456  -0.405  0.4907  1.2257  0.6583
    8CHTO   H11 3334   5.891   8.377  -0.266  1.6530 -3.1600 -0.4582
    8CHTO    C7 3335   6.144   8.577  -0.171  0.0092 -0.0050  0.1781
    8CHTO   H20 3336   6.199   8.618  -0.258 -0.1291  2.1979  1.0935
    8CHTO    O4 3337   6.157   8.665  -0.061  0.0916 -0.1219  0.3222
    8CHTO   C14 3338   6.073   8.778  -0.056 -0.2605  0.3033 -0.5301
    8CHTO   H27 3339   6.084   8.837  -0.149  2.4266 -1.8915 -1.6713
    8CHTO   C18 3340   6.128   8.870   0.060  0.2365  0.2576  0.0219
    8CHTO   O13 3341   6.267   8.908   0.054 -0.3420 -0.4914  0.2346
    8CHTO    H7 3342   6.279   8.982   0.110 -0.5716  0.7775 -1.3618
    8CHTO    O2 3343   6.208   8.436  -0.125 -0.1357 -0.1747  0.4314
    8CHTO    C1 3344   6.316   8.442  -0.035 -0.0564  0.8297  1.1063
    8CHTO   H14 3345   6.295   8.499   0.058  0.0493 -0.3811  1.8781
    8CHTO    C2 3346   6.449   8.502  -0.098  0.7113  0.7590  0.3989
    8CHTO   H15 3347   6.457   8.449  -0.194  1.0135  3.8286 -1.3508
    8CHTO    O6 3348   6.419   8.645  -0.120 -0.2646  0.0988  0.2670
    8CHTO    H1 3349   6.461   8.679  -0.197  0.0247 -1.6926 -0.3969
    8CHTO    C3 3350   6.576   8.472  -0.008  0.3291  0.2961 -0.5247
    8CHTO   H16 3351   6.569   8.525   0.088 -0.5059 -1.4879  0.4347
    8CHTO    N1 3352   6.701   8.524  -0.070 -0.1524 -0.0374 -0.1892
    8CHTO    H8 3353   6.794   8.509  -0.017 -0.2557  0.8417  0.2433
    8CHTO    H9 3354   6.691   8.629  -0.093 -2.3069 -0.2518 -0.3644
    8CHTO    C4 3355   6.578   8.318   0.033  0.4623  0.1007  0.0714
    8CHTO   H17 3356   6.601   8.255  -0.053  1.2333 -2.1665  1.8720
    8CHTO    O1 3357   6.453   8.277   0.091  0.3448  0.3171 -0.2938
    8CHTO    C5 3358   6.336   8.297   0.011 -0.1898  0.4403  0.7190
    8CHTO   H18 3359   6.355   8.242  -0.081 -1.5036 -1.2928  1.4507
    8CHTO   C16 3360   6.222   8.227   0.089 -0.2202 -0.6507 -1.1207
    8CHTO   O11 3361   6.104   8.208   0.008 -0.1048 -1.2854  0.0919
    8CHTO    H5 3362   6.080   8.286  -0.037 -4.5527 -2.8722 -0.5011
    8CHTO    O3 3363   6.678   8.302   0.136 -0.5177 -0.0622  0.4629
    8CHTO    C6 3364   6.722   8.173   0.190  0.7772 -0.5938  0.2004
    8CHTO   H19 3365   6.658   8.094   0.149  0.1199 -0.4230  0.8737
    8CHTO    C8 3366   6.870   8.155   0.149  0.6956 -0.7101 -0.2993
    8CHTO   H21 3367   6.925   8.245   0.176  0.1261 -0.4542  0.0168
    8CHTO    O7 3368   6.871   8.132   0.008  0.2415  0.6160  0.2270
    8CHTO    H2 3369   6.822   8.056  -0.014 -0.4378  0.6056  1.6639
    8CHTO   C12 3370   6.940   8.037   0.220 -0.0880  0.0622 -0.3438
    8CHTO   H25 3371   6.883   7.948   0.188 -0.0739  0.4050 -1.3336
    8CHTO    N3 3372   7.090   8.023   0.195  0.0313  0.2287  0.5683
    8CHTO   H12 3373   7.140   8.100   0.251  0.6399  0.3354 -0.1128
    8CHTO   H13 3374   7.139   7.927   0.198 -0.1186  0.0838 -0.9550
    8CHTO   C15 3375   6.914   8.065   0.373 -0.1774 -0.6797 -0.5050
    8CHTO   H28 3376   6.954   8.162   0.405  0.7818 -1.9592  2.2983
    8CHTO   O10 3377   6.959   7.946   0.474  0.1159 -0.4500 -0.4423
    8CHTO    H4 3378   7.048   7.921   0.458  0.1341  0.1128 -1.2172
    8CHTO    O5 3379   6.774   8.082   0.408 -0.0888 -0.0101 -0.6359
    8CHTO   C10 3380   6.696   8.181   0.341 -0.3990  0.6936  0.5247
    8CHTO   H23 3381   6.721   8.281   0.376  0.6443  0.9550 -0.9158
    8CHTO   C17 3382   6.545   8.165   0.381  0.1799 -0.1452 -0.1470
    8CHTO   O12 3383   6.475   8.056   0.326  0.0297 -0.1499 -0.1835
    8CHTO    H6 3384   6.403   8.036   0.382 -1.6412  1.5717 -1.6356
    9CHTO  H203 3385   6.428   3.151   1.937  0.5589 -2.7387 -0.3175
    9CHTO   O82 3386   6.457   3.166   1.849 -0.5869 -0.2871 -0.3198
    9CHTO  C123 3387   6.381   3.088   1.758  0.1951  0.3615  0.1292
    9CHTO  H227 3388   6.292   3.050   1.810  0.6373 -3.0220 -1.4183
    9CHTO   O77 3389   6.344   3.182   1.661 -0.3784 -0.1738 -0.1501
    9CHTO  C118 3390   6.265   3.134   1.552 -0.4377 -0.6033  0.5077
    9CHTO  H222 3391   6.178   3.112   1.615 -0.0895  2.0951  2.0403
    9CHTO  C125 3392   6.236   3.246   1.454  0.2753 -0.2782  0.4818
    9CHTO   O84 3393   6.152   3.344   1.519  0.3403  0.1150 -0.3364
    9CHTO  H205 3394   6.199   3.425   1.516  0.0851  0.2315 -1.2708
    9CHTO  C114 3395   6.348   3.022   1.479 -0.6955 -0.3735  0.1041
    9CHTO  H218 3396   6.438   3.064   1.434  0.3560 -2.6876 -0.0462
    9CHTO  C116 3397   6.392   2.905   1.581  0.5221 -0.5802  0.0476
    9CHTO  H220 3398   6.302   2.848   1.611  0.0817  0.4083  0.6428
    9CHTO   O79 3399   6.479   2.817   1.508  0.5049 -0.2459  0.4719
    9CHTO  H201 3400   6.564   2.853   1.491  0.7262 -1.6925 -1.7754
    9CHTO  C120 3401   6.464   2.962   1.706  0.1187 -0.7999 -0.3249
    9CHTO  H224 3402   6.565   2.996   1.675 -0.0976  0.1447 -0.0192
    9CHTO   N21 3403   6.472   2.860   1.815  0.4633 -0.2066 -0.1627
    9CHTO  H211 3404   6.384   2.875   1.875 -0.3116 -1.7279 -0.8802
    9CHTO  H212 3405   6.479   2.755   1.790 -1.0232 -0.1574 -0.8156
    9CHTO   O75 3406   6.258   2.985   1.376  0.4141 -0.5675 -0.0248
    9CHTO  C112 3407   6.314   2.948   1.228 -0.4890 -0.9054 -0.3835
    9CHTO  H216 3408   6.380   2.859   1.232  0.8617 -0.0385 -2.5058
    9CHTO   O73 3409   6.385   3.065   1.171  0.1193 -0.6799  0.3834
    9CHTO  C113 3410   6.455   3.037   1.049 -0.4258  0.0007  0.5368
    9CHTO  H217 3411   6.532   2.959   1.067 -0.4533 -0.9447 -2.9782
    9CHTO  C124 3412   6.525   3.167   1.004 -0.0607  0.2482 -0.3024
    9CHTO   O83 3413   6.444   3.277   0.976  0.0597  0.7411 -0.4059
    9CHTO  H204 3414   6.493   3.356   0.982  0.6809  0.3205  0.1480
    9CHTO  C109 3415   6.353   2.987   0.938 -0.0807 -0.0928  0.7941
    9CHTO  H213 3416   6.283   3.072   0.933  0.7833  0.5638 -0.7454
    9CHTO  C110 3417   6.265   2.865   0.997 -0.3572  0.4014  0.8564
    9CHTO  H214 3418   6.331   2.781   1.019  0.2456  0.4829 -0.6077
    9CHTO   O78 3419   6.170   2.819   0.901  0.5006 -0.3480  0.3130
    9CHTO  H200 3420   6.199   2.747   0.848 -1.5076 -0.6005 -0.4838
    9CHTO  C111 3421   6.194   2.912   1.127 -0.4172 -0.3234  0.2548
    9CHTO  H215 3422   6.131   2.999   1.107  1.5822  1.1327  0.0786
    9CHTO   N19 3423   6.108   2.809   1.194 -0.1549  0.2527  0.4458
    9CHTO  H207 3424   6.159   2.720   1.227  0.6357  1.6276  3.0821
    9CHTO  H208 3425   6.022   2.777   1.137  0.6830 -0.1630 -0.6094
    9CHTO   O74 3426   6.406   2.958   0.808 -0.5325 -0.5315 -0.1879
    9CHTO  C115 3427   6.474   2.819   0.794  0.8249  0.5547  0.5446
    9CHTO  H219 3428   6.494   2.777   0.893 -1.1470 -0.7453  0.4406
    9CHTO   O76 3429   6.373   2.709   0.723 -0.2350  0.1673 -0.5687
    9CHTO  C122 3430   6.332   2.747   0.590 -0.0079  1.1604  0.6410
    9CHTO  H226 3431   6.274   2.839   0.594 -2.6400 -0.3859 -0.7467
    9CHTO  C126 3432   6.240   2.643   0.532  0.5131  0.4503 -0.4580
    9CHTO   O85 3433   6.113   2.638   0.604 -0.7939  0.0838  0.3151
    9CHTO  H206 3434   6.050   2.681   0.550  0.6834 -0.9164 -2.2708
    9CHTO  C121 3435   6.468   2.774   0.502 -0.0938 -0.0177  0.7603
    9CHTO  H225 3436   6.521   2.678   0.484 -1.2113 -0.2815 -1.2798
    9CHTO   O81 3437   6.429   2.817   0.372 -0.2537  0.6222  0.0075
    9CHTO  H202 3438   6.440   2.753   0.304 -1.1015  0.6853 -0.1953
    9CHTO  C119 3439   6.568   2.881   0.568  0.4034 -0.2173 -0.7736
    9CHTO  H223 3440   6.660   2.887   0.509  0.5669 -0.3237 -0.5322
    9CHTO  C117 3441   6.604   2.844   0.714  0.5480 -0.1518 -0.7051
    9CHTO  H221 3442   6.659   2.917   0.773  0.0974 -0.3112 -0.0862
    9CHTO   N20 3443   6.697   2.728   0.715 -0.2972 -0.2847  0.3466
    9CHTO  H209 3444   6.649   2.635   0.687 -0.7468  0.2017 -0.5081
    9CHTO  H210 3445   6.783   2.757   0.656 -1.9172  0.7057 -1.5771
    9CHTO   O80 3446   6.523   3.007   0.558  0.3375  0.0429 -0.5307
    9CHTO  C103 3447   6.639   3.140   0.572  0.2344  0.2357  0.3036
    9CHTO  H190 3448   6.668   3.154   0.676 -0.3544 -0.5330  0.5764
    9CHTO  C101 3449   6.768   3.148   0.490 -0.1869 -0.3056 -0.1495
    9CHTO  H188 3450   6.738   3.136   0.386 -0.4439 -1.6539  0.0595
    9CHTO   O68 3451   6.865   3.041   0.540  0.1523 -0.1104 -0.1860
    9CHTO  H168 3452   6.926   3.025   0.470  2.5552  2.4979  1.1865
    9CHTO   C99 3453   6.833   3.294   0.504 -0.5806 -0.5267  0.3875
    9CHTO  H186 3454   6.864   3.305   0.610 -2.3588 -0.3876  0.9017
    9CHTO   N17 3455   6.967   3.317   0.436  0.2565  0.2895  0.2235
    9CHTO  H174 3456   7.025   3.229   0.460  0.0309  0.0616 -0.0525
    9CHTO  H175 3457   6.950   3.330   0.330 -3.1920  0.0329  0.6933
    9CHTO   C97 3458   6.726   3.405   0.474 -0.1757  1.0562  0.0055
    9CHTO  H184 3459   6.690   3.398   0.371  1.5656  1.8616 -0.6695
    9CHTO   O64 3460   6.620   3.391   0.570  0.0914  0.1291  0.0322
    9CHTO  C104 3461   6.552   3.267   0.537  0.1709 -0.6974 -0.3804
    9CHTO  H191 3462   6.513   3.256   0.436  0.0407  0.8293 -0.4980
    9CHTO  C108 3463   6.426   3.259   0.629  0.0075 -0.2733 -0.3823
    9CHTO   O71 3464   6.335   3.367   0.604  0.2742 -0.5244  0.0636
    9CHTO  H171 3465   6.296   3.362   0.519  1.9067 -0.0191 -0.7535
    9CHTO   O62 3466   6.768   3.534   0.524 -0.3833  0.4877  0.1175
    9CHTO   C91 3467   6.762   3.635   0.429  0.5370  0.0101  0.1973
    9CHTO  H178 3468   6.765   3.586   0.332 -0.8817 -0.2187  0.2552
    9CHTO   C92 3469   6.885   3.731   0.450 -0.3626  0.1365 -0.3640
    9CHTO  H179 3470   6.980   3.675   0.455 -0.7412 -0.4375  0.4073
    9CHTO   O66 3471   6.899   3.806   0.330  0.1851  0.6039  0.3867
    9CHTO  H166 3472   6.926   3.751   0.259 -1.4823 -0.5378  0.6166
    9CHTO   C93 3473   6.865   3.835   0.567 -0.0856  0.4317  0.0178
    9CHTO  H180 3474   6.933   3.920   0.549  0.1753 -0.1581 -1.8267
    9CHTO   N16 3475   6.902   3.780   0.698  0.1582  0.6083 -0.3450
    9CHTO  H172 3476   6.855   3.831   0.781  1.0753 -0.1032  0.6227
    9CHTO  H173 3477   7.003   3.746   0.716 -0.3033 -0.3556  0.4517
    9CHTO   C94 3478   6.721   3.893   0.568  0.2962  0.4055  0.1792
    9CHTO  H181 3479   6.662   3.853   0.650 -0.4290 -1.5583 -1.2503
    9CHTO   O61 3480   6.650   3.865   0.444  0.2957  0.0714 -0.3133
    9CHTO   C95 3481   6.631   3.724   0.427  0.5545 -0.1473 -0.0487
    9CHTO  H182 3482   6.571   3.689   0.511  0.3798 -1.7739 -0.8511
    9CHTO  C106 3483   6.556   3.710   0.298  0.2885 -0.6035  0.2382
    9CHTO   O69 3484   6.639   3.753   0.191 -0.1925 -0.2821 -0.2482
    9CHTO  H169 3485   6.689   3.679   0.161 -0.5404 -0.3630 -0.6378
    9CHTO   O63 3486   6.731   4.043   0.589 -1.0311  0.0617 -0.0348
    9CHTO   C96 3487   6.594   4.137   0.618 -0.7020 -0.7999  0.1968
    9CHTO  H183 3488   6.550   4.104   0.712 -1.2592  0.1498  0.2820
    9CHTO   C98 3489   6.485   4.127   0.507 -0.1492  0.0976  0.5445
    9CHTO  H185 3490   6.540   4.133   0.411  0.9375 -0.3407  1.1303
    9CHTO   O67 3491   6.426   3.990   0.517 -0.1166  0.0422  0.5510
    9CHTO  H167 3492   6.485   3.921   0.541  0.2913  0.1722 -0.0617
    9CHTO  C102 3493   6.366   4.234   0.538 -0.7665 -0.8413  0.5733
    9CHTO  H189 3494   6.317   4.191   0.626 -0.2671 -1.7118  0.4266
    9CHTO   N18 3495   6.261   4.244   0.432  0.6231  0.2261 -0.2726
    9CHTO  H176 3496   6.271   4.335   0.374 -1.7947  0.3063 -0.6307
    9CHTO  H177 3497   6.162   4.240   0.473  0.7634 -0.3729  0.0086
    9CHTO  C105 3498   6.418   4.373   0.581  0.0753 -0.0005  0.0935
    9CHTO  H192 3499   6.431   4.436   0.493  0.6577  1.1521  0.9885
    9CHTO   O65 3500   6.539   4.377   0.656 -0.1675 -0.3658 -1.0057
    9CHTO  C100 3501   6.650   4.288   0.625  0.9050 -0.5021 -0.0537
    9CHTO  H187 3502   6.689   4.316   0.526  1.8450 -1.4492  0.0440
    9CHTO  C107 3503   6.763   4.291   0.736  0.4247  0.2345 -0.1034
    9CHTO   O70 3504   6.892   4.236   0.704  0.5042 -0.0967  0.2128
    9CHTO  H170 3505   6.921   4.279   0.626  1.9504 -0.1185  0.7159
    9CHTO   O57 3506   6.294   4.432   0.670  0.2062  0.0692  0.1804
    9CHTO   C85 3507   6.251   4.569   0.679  0.4632  0.9828  0.6322
    9CHTO  H157 3508   6.223   4.588   0.573  1.3336  1.2121  0.4325
    9CHTO   C83 3509   6.371   4.668   0.701  0.3179 -0.5105  0.6295
    9CHTO  H155 3510   6.449   4.654   0.626  0.1339  1.6359  0.0084
    9CHTO   O56 3511   6.435   4.627   0.825  0.1387 -0.1517  0.3526
    9CHTO  H135 3512   6.526   4.608   0.819  0.1280  0.3029 -1.5805
    9CHTO   C81 3513   6.325   4.816   0.698  0.4869 -0.1447  0.1402
    9CHTO  H153 3514   6.291   4.841   0.598 -1.0482 -1.4025  0.3281
    9CHTO   N14 3515   6.434   4.920   0.713  0.4290  0.7764 -0.4418
    9CHTO  H141 3516   6.415   5.019   0.680  2.4382  1.0313 -0.8963
    9CHTO  H142 3517   6.477   4.918   0.812 -1.4258 -0.1119  0.3704
    9CHTO   C79 3518   6.216   4.842   0.807  0.0299 -0.1387 -0.3453
    9CHTO  H151 3519   6.175   4.941   0.783  0.5565  0.1267 -0.1692
    9CHTO   O52 3520   6.106   4.746   0.779  0.2202 -0.2089 -0.0116
    9CHTO   C86 3521   6.143   4.603   0.783  0.7940 -0.2477 -0.4001
    9CHTO  H158 3522   6.181   4.583   0.885 -2.4750  0.1839  0.9593
    9CHTO   C90 3523   6.017   4.514   0.767  0.2418 -0.2547  0.0009
    9CHTO   O60 3524   6.026   4.369   0.781  0.1072  0.2654  0.4790
    9CHTO  H138 3525   6.005   4.340   0.694  0.2011  3.0204 -0.5123
    9CHTO   O50 3526   6.257   4.842   0.947 -0.0825  0.4532  0.1860
    9CHTO   C73 3527   6.204   4.881   1.076 -0.1780 -0.5015  0.8812
    9CHTO  H145 3528   6.095   4.898   1.067 -0.0158 -0.1469 -0.4188
    9CHTO   C74 3529   6.263   5.016   1.121 -0.0367 -0.0778 -0.5600
    9CHTO  H146 3530   6.244   5.097   1.049 -0.3116  0.9111  0.6061
    9CHTO   O54 3531   6.190   5.063   1.241  0.8164 -0.0908 -0.9418
    9CHTO  H133 3532   6.235   5.144   1.258 -0.2175  0.4188 -0.6404
    9CHTO   C75 3533   6.418   4.992   1.145 -0.2748  0.1505  0.3855
    9CHTO  H147 3534   6.464   4.969   1.048  0.1804 -0.8306  0.8300
    9CHTO   N13 3535   6.496   5.106   1.204 -0.3610 -0.3307  0.0090
    9CHTO  H139 3536   6.473   5.143   1.302  0.7514 -4.3973  1.9239
    9CHTO  H140 3537   6.511   5.185   1.132  0.7357 -0.9631 -0.4707
    9CHTO   C76 3538   6.448   4.862   1.235 -0.2207 -0.4746 -0.0186
    9CHTO  H148 3539   6.429   4.874   1.341  0.6048  1.3900 -0.0765
    9CHTO   O49 3540   6.375   4.746   1.188  0.4381  0.7254 -0.2446
    9CHTO   C77 3541   6.232   4.772   1.185 -0.8108 -0.0389 -0.6343
    9CHTO  H149 3542   6.211   4.809   1.285  3.5756  0.0163  0.3344
    9CHTO   C88 3543   6.145   4.643   1.161 -0.2911 -0.1851  0.4567
    9CHTO   O58 3544   6.165   4.532   1.228 -0.0404 -0.1774  0.5473
    9CHTO  H136 3545   6.087   4.482   1.241  0.2584 -1.4611 -2.2288
    9CHTO   O51 3546   6.614   4.811   1.206  0.7269  0.1317  0.1693
    9CHTO   C78 3547   6.660   4.703   1.278 -0.1828 -0.2802 -0.4768
    9CHTO  H150 3548   6.578   4.636   1.311 -0.5088  0.2156 -0.2725
    9CHTO   C80 3549   6.743   4.751   1.399 -0.1889  0.7765  0.5866
    9CHTO  H152 3550   6.830   4.809   1.362 -0.2925 -0.3579 -1.4947
    9CHTO   O55 3551   6.655   4.842   1.474  0.6703 -0.2394 -0.2754
    9CHTO  H134 3552   6.701   4.882   1.546  1.1052 -1.0130 -0.1234
    9CHTO   C84 3553   6.793   4.614   1.472  0.0230 -0.3896 -0.2773
    9CHTO  H156 3554   6.706   4.563   1.513  0.5364 -0.9196  0.1554
    9CHTO   N15 3555   6.873   4.663   1.593 -0.4206 -0.2838 -0.1834
    9CHTO  H143 3556   6.877   4.593   1.674  0.3499  0.8812  0.7993
    9CHTO  H144 3557   6.973   4.688   1.565 -0.4982  1.2415  0.8552
    9CHTO   C87 3558   6.866   4.528   1.374  1.0422 -0.5137  0.6131
    9CHTO  H159 3559   6.963   4.571   1.354  0.9778 -0.5306  0.2684
    9CHTO   O53 3560   6.785   4.502   1.263  0.7309  0.0833 -0.0407
    9CHTO   C82 3561   6.744   4.614   1.186  0.7904  0.3200  0.4334
    9CHTO  H154 3562   6.835   4.670   1.164  0.4310  1.2654  1.3127
    9CHTO   C89 3563   6.682   4.572   1.056  0.0799  0.0203  0.2590
    9CHTO   O59 3564   6.562   4.494   1.066 -0.8633 -0.1581 -0.3775
    9CHTO  H137 3565   6.570   4.412   1.111  1.1458  0.7690  1.0157
    9CHTO   O45 3566   6.890   4.400   1.446 -0.2279 -0.7827  0.2245
    9CHTO   C67 3567   6.981   4.310   1.380 -0.3049  0.4129  0.4614
    9CHTO  H124 3568   7.018   4.352   1.287 -1.4943  0.4977  0.0163
    9CHTO   C65 3569   7.101   4.289   1.471  0.1819 -0.3698  0.5146
    9CHTO  H122 3570   7.121   4.394   1.496 -2.2472  0.4264 -0.7579
    9CHTO   O44 3571   7.218   4.238   1.400 -0.7815 -0.4357 -0.4142
    9CHTO  H102 3572   7.235   4.298   1.330  0.7358 -0.6253 -0.2122
    9CHTO   C63 3573   7.064   4.204   1.602  0.0996  0.1702  0.0552
    9CHTO  H120 3574   6.981   4.257   1.649 -0.6480  0.0622 -1.1261
    9CHTO   N11 3575   7.164   4.205   1.717 -0.0725  0.2783 -0.1382
    9CHTO  H108 3576   7.245   4.270   1.693  0.0185  0.0878 -0.3457
    9CHTO  H109 3577   7.211   4.110   1.729 -0.2248 -0.0590 -2.0440
    9CHTO   C61 3578   7.003   4.068   1.557  0.8167 -0.0316  0.0861
    9CHTO  H118 3579   6.950   4.034   1.647  2.3201 -0.8928  0.6605
    9CHTO   O40 3580   6.894   4.091   1.455  0.2677  0.3438  0.3497
    9CHTO   C68 3581   6.916   4.179   1.341  0.9528 -0.5404 -0.4856
    9CHTO  H125 3582   6.811   4.191   1.307  1.0526  0.1979 -0.5227
    9CHTO   C72 3583   6.988   4.097   1.227 -0.2861 -0.3857 -0.6622
    9CHTO   O48 3584   6.910   3.984   1.196  0.2675  0.4242 -0.0004
    9CHTO  H105 3585   6.954   3.918   1.248  1.3950  2.3109  1.5292
    9CHTO   O38 3586   7.091   3.966   1.511 -0.3200  0.3817  0.1376
    9CHTO   C55 3587   7.094   3.843   1.590 -0.8249 -0.0568 -0.0980
    9CHTO  H112 3588   7.025   3.846   1.675 -0.7814 -3.0797  0.0941
    9CHTO   C56 3589   7.243   3.840   1.637 -0.3202  0.0171  0.3197
    9CHTO  H113 3590   7.288   3.934   1.675  1.5400 -0.4386 -0.6843
    9CHTO   O42 3591   7.247   3.750   1.747 -0.5604 -0.5987  0.4253
    9CHTO  H100 3592   7.209   3.776   1.828 -1.8174  0.9833 -0.6259
    9CHTO   C57 3593   7.342   3.786   1.520  0.7053 -0.4883 -0.4109
    9CHTO  H114 3594   7.416   3.728   1.575  4.2196  2.3225 -1.9713
    9CHTO   N10 3595   7.431   3.893   1.458  0.3197 -0.0179  0.6871
    9CHTO  H106 3596   7.382   3.989   1.454 -0.0005 -0.1982  0.2038
    9CHTO  H107 3597   7.525   3.902   1.510  0.3305  0.1485  0.6391
    9CHTO   C58 3598   7.278   3.702   1.414 -0.1611 -0.7526 -0.3749
    9CHTO  H115 3599   7.239   3.767   1.333 -3.2421 -0.6135  1.1453
    9CHTO   O37 3600   7.155   3.635   1.459  0.1940  0.3694  0.1841
    9CHTO   C59 3601   7.049   3.724   1.498  0.7695 -0.1504 -1.0058
    9CHTO  H116 3602   7.009   3.773   1.410 -0.0352  0.6469 -0.1999
    9CHTO   C70 3603   6.948   3.632   1.573  0.2345  0.5468 -0.2518
    9CHTO   O46 3604   7.005   3.561   1.682  0.2600  0.2708 -0.0110
    9CHTO  H103 3605   6.968   3.479   1.709  0.0607  0.6824  1.0014
    9CHTO   O39 3606   7.386   3.589   1.348  0.5102  0.5208 -0.7583
    9CHTO   C60 3607   7.319   3.505   1.261  0.4687  0.3951 -0.1394
    9CHTO  H117 3608   7.213   3.533   1.258  0.2844 -0.1056  1.1792
    9CHTO   C62 3609   7.367   3.533   1.116  0.2857  0.5731  0.0133
    9CHTO  H119 3610   7.370   3.643   1.105  2.5785  0.6287  0.9680
    9CHTO   O43 3611   7.499   3.476   1.103  0.5701 -0.3986  0.0365
    9CHTO  H101 3612   7.561   3.526   1.154  0.9175 -1.5300  0.7332
    9CHTO   C66 3613   7.256   3.462   1.030 -0.1620  0.3561  0.6070
    9CHTO  H123 3614   7.160   3.503   1.062 -1.2017 -0.4152 -1.4034
    9CHTO   N12 3615   7.265   3.496   0.890  0.3371 -0.2077 -0.0569
    9CHTO  H110 3616   7.202   3.425   0.837  0.7692 -0.2521 -0.5120
    9CHTO  H111 3617   7.228   3.597   0.882 -1.1041 -0.5877  1.6152
    9CHTO   C69 3618   7.243   3.311   1.055  1.1104  0.5890 -0.2452
    9CHTO  H126 3619   7.335   3.259   1.020 -0.3944 -1.5880 -1.0169
    9CHTO   O41 3620   7.227   3.286   1.201 -0.3028 -0.2790 -0.7015
    9CHTO   C64 3621   7.325   3.354   1.294 -0.8780 -0.7703 -0.2259
    9CHTO  H121 3622   7.432   3.327   1.287 -0.6595  0.0396  0.0222
    9CHTO   C71 3623   7.287   3.316   1.435  0.0633 -0.5378 -0.2951
    9CHTO   O47 3624   7.368   3.383   1.536 -0.5680  0.0894 -0.6813
    9CHTO  H104 3625   7.456   3.369   1.507 -0.7167  1.1578 -1.6350
    9CHTO   O34 3626   7.120   3.245   0.978  0.6285 -0.2468  0.0888
    9CHTO   C49 3627   6.983   3.161   1.022 -0.2397  0.1609 -0.2068
    9CHTO   H91 3628   6.967   3.076   0.955 -1.9903  0.7898 -0.6129
    9CHTO   C47 3629   6.861   3.251   0.991  0.1162 -0.0830 -0.1397
    9CHTO   H89 3630   6.767   3.197   1.014 -0.2593  1.1138  1.1969
    9CHTO   O33 3631   6.867   3.282   0.845  0.0266 -0.6176  0.6219
    9CHTO   H70 3632   6.799   3.343   0.823  0.3830  0.3284  2.0960
    9CHTO   C45 3633   6.864   3.377   1.081 -0.3686 -0.3629  0.1070
    9CHTO   H87 3634   6.963   3.422   1.065 -1.8832  3.1899  0.1458
    9CHTO    N8 3635   6.771   3.483   1.042 -0.8885 -0.0914 -0.5057
    9CHTO   H75 3636   6.711   3.532   1.117 -0.6761 -2.3582  1.2128
    9CHTO   H76 3637   6.789   3.543   0.955 -1.3776 -0.4238 -0.8376
    9CHTO   C43 3638   6.866   3.334   1.240 -0.1411  0.3090  0.4218
    9CHTO   H85 3639   6.896   3.426   1.290  1.7798 -0.0350 -0.0375
    9CHTO   O29 3640   6.958   3.232   1.264 -0.3729 -0.2332  0.1705
    9CHTO   C50 3641   6.966   3.121   1.169 -0.1319  0.2028 -0.0309
    9CHTO   H92 3642   7.062   3.069   1.186  1.0250  2.5977  1.0629
    9CHTO   C54 3643   6.847   3.018   1.192  0.2945 -0.0650 -0.0397
    9CHTO   O36 3644   6.831   2.929   1.086 -0.0408 -0.5144  0.8312
    9CHTO   H72 3645   6.789   2.849   1.114  0.3948  0.1339  3.4942
    9CHTO   O27 3646   6.737   3.296   1.288  0.2640  0.2012 -0.1444
    9CHTO   C37 3647   6.680   3.300   1.418  0.4091 -0.2125 -0.9477
    9CHTO   H79 3648   6.601   3.226   1.434  0.6973  0.2743  3.0549
    9CHTO   C38 3649   6.790   3.275   1.526 -0.0527  0.5694 -0.1575
    9CHTO   H80 3650   6.868   3.351   1.511 -1.4473  1.9681 -0.5153
    9CHTO   O31 3651   6.832   3.135   1.500 -0.4852 -0.5386 -0.2268
    9CHTO   H68 3652   6.921   3.139   1.473 -0.1138 -1.0868  0.9038
    9CHTO   C39 3653   6.726   3.296   1.669  0.1768  0.0257  0.5975
    9CHTO   H81 3654   6.645   3.227   1.693  0.1921  0.1448  1.0132
    9CHTO    N7 3655   6.820   3.276   1.782 -0.3296  0.7050  0.2872
    9CHTO   H73 3656   6.919   3.295   1.744 -0.5353  1.3520  0.0684
    9CHTO   H74 3657   6.802   3.182   1.831 -6.2136  0.8684 -1.0948
    9CHTO   C40 3658   6.655   3.440   1.682  0.5230  1.1702 -0.4646
    9CHTO   H82 3659   6.727   3.522   1.681  0.9681  0.8339  1.4002
    9CHTO   O26 3660   6.559   3.447   1.577  1.0703 -0.3147 -0.2020
    9CHTO   C41 3661   6.614   3.442   1.442  0.2006 -0.3383  0.0509
    9CHTO   H83 3662   6.682   3.527   1.425 -0.7935  0.6261  0.8329
    9CHTO   C52 3663   6.496   3.463   1.351 -0.4418 -0.0362 -0.7439
    9CHTO   O35 3664   6.490   3.596   1.305 -0.1282 -0.0220 -0.2260
    9CHTO   H71 3665   6.533   3.594   1.222 -0.3481 -2.5109 -0.3075
    9CHTO   O28 3666   6.584   3.465   1.804  0.0954  0.5878  0.1474
    9CHTO   C42 3667   6.476   3.564   1.819 -0.8643  0.4829 -0.1427
    9CHTO   H84 3668   6.474   3.565   1.928  0.3185 -1.6963 -0.0765
    9CHTO   C44 3669   6.327   3.533   1.776 -0.5877  0.1904  0.5381
    9CHTO   H86 3670   6.326   3.499   1.672 -0.6768  2.1551 -0.1163
    9CHTO   O32 3671   6.298   3.421   1.856  0.0695  0.1305  0.9222
    9CHTO   H69 3672   6.305   3.342   1.806  2.1058  1.0610 -0.3131
    9CHTO   C48 3673   6.223   3.648   1.790 -0.1473 -0.6511  0.5017
    9CHTO   H90 3674   6.221   3.682   1.894 -0.7498  0.9732 -0.0405
    9CHTO    N9 3675   6.081   3.616   1.739  0.8611 -0.1353 -0.0331
    9CHTO   H77 3676   6.032   3.548   1.808  2.3384 -1.4006 -0.2019
    9CHTO   H78 3677   6.063   3.577   1.640  2.2175  0.3186 -0.4579
    9CHTO   C51 3678   6.277   3.769   1.711  0.0538 -0.1826  0.5336
    9CHTO   H93 3679   6.319   3.732   1.617  0.5147  1.8420 -0.0834
    9CHTO   O30 3680   6.380   3.828   1.796  0.0129 -0.2194  0.1399
    9CHTO   C46 3681   6.518   3.707   1.771  0.8237  0.1147 -0.1775
    9CHTO   H88 3682   6.536   3.710   1.664 -0.3817  1.4256 -0.3557
    9CHTO   C53 3683   6.650   3.750   1.847  0.6173 -0.1403  0.6792
    9CHTO   O72 3684   6.723   3.849   1.772  0.5219  0.5879  0.0980
    9CHTO  H199 3685   6.765   3.915   1.824 -0.4031 -0.4576  2.2336
    9CHTO   O22 3686   6.195   3.879   1.682 -0.0296 -0.4462 -0.3166
    9CHTO   C31 3687   6.232   3.978   1.573  0.2585  0.3788  0.3675
    9CHTO   H59 3688   6.146   4.048   1.572 -1.5189 -1.7603 -0.2794
    9CHTO   C29 3689   6.354   4.067   1.599  0.4512 -0.0922 -0.1780
    9CHTO   H57 3690   6.437   4.001   1.630  0.8842  0.2807 -0.5447
    9CHTO   O21 3691   6.317   4.146   1.714 -0.1078 -0.2484 -0.4429
    9CHTO   H37 3692   6.321   4.089   1.789 -1.2952  0.5107  0.2003
    9CHTO   C27 3693   6.397   4.152   1.463  0.3350 -0.5471  0.1640
    9CHTO   H55 3694   6.318   4.223   1.435  1.4391  0.6441 -0.0217
    9CHTO    N5 3695   6.523   4.229   1.482 -0.1332 -0.0261  0.0048
    9CHTO   H43 3696   6.546   4.234   1.588  1.2123  0.1486 -0.2838
    9CHTO   H44 3697   6.517   4.330   1.446 -0.4921 -0.4618 -1.1704
    9CHTO   C25 3698   6.407   4.051   1.347  0.7402  0.2825  0.1999
    9CHTO   H53 3699   6.470   3.971   1.389  1.1864  0.4297 -0.1916
    9CHTO   O17 3700   6.274   3.982   1.321 -0.4267  0.8067 -0.1000
    9CHTO   C32 3701   6.231   3.900   1.428 -0.7639  0.0134 -0.8797
    9CHTO   H60 3702   6.293   3.811   1.436 -0.1141  0.5236 -0.1514
    9CHTO   C36 3703   6.094   3.841   1.376 -0.3941 -0.2131 -0.7825
    9CHTO   O25 3704   6.123   3.760   1.264  0.5123 -0.3440 -0.6222
    9CHTO   H40 3705   6.068   3.684   1.265 -1.3444  0.9570 -1.1688
    9CHTO   O15 3706   6.452   4.111   1.208  0.2660  0.2065  0.1573
    9CHTO   C19 3707   6.432   4.059   1.071 -0.2816 -0.3384 -0.5067
    9CHTO   H47 3708   6.508   4.122   1.024 -0.2696  0.9079  1.1380
    9CHTO   C20 3709   6.459   3.907   1.054  0.6134 -0.2024  0.2498
    9CHTO   H48 3710   6.386   3.848   1.112  0.1545  0.2437  0.1277
    9CHTO   O19 3711   6.591   3.882   1.091 -0.2451  0.0591 -0.6048
    9CHTO   H35 3712   6.589   3.819   1.161 -0.8396  0.8444  0.0946
    9CHTO   C21 3713   6.431   3.869   0.902  0.0721  0.3389 -0.3763
    9CHTO   H49 3714   6.502   3.924   0.839  0.1092  1.8671  0.9630
    9CHTO    N4 3715   6.434   3.727   0.875  0.2416  0.4491 -0.0375
    9CHTO   H41 3716   6.538   3.703   0.863  0.1908 -0.7643  1.7297
    9CHTO   H42 3717   6.391   3.664   0.952 -0.9835 -0.3774 -1.3724
    9CHTO   C22 3718   6.294   3.925   0.855 -0.2880  0.3628  0.1717
    9CHTO   H50 3719   6.210   3.875   0.903  1.0570 -0.0461  2.1751
    9CHTO   O14 3720   6.286   4.066   0.872 -0.0012  0.0523  0.0611
    9CHTO   C23 3721   6.295   4.105   1.011  0.6364 -0.3954 -0.9441
    9CHTO   H51 3722   6.211   4.056   1.062  0.7391  0.1068 -0.2937
    9CHTO   C34 3723   6.269   4.257   1.028  0.1050 -0.1308 -0.3082
    9CHTO   O23 3724   6.361   4.328   0.941  0.5031  0.0303 -0.0121
    9CHTO   H38 3725   6.360   4.420   0.958  2.1601 -0.0304  0.5019
    9CHTO   O16 3726   6.265   3.931   0.713 -0.5626 -0.4705 -0.1895
    9CHTO   C24 3727   6.143   3.820   0.638  0.6197 -0.0893 -0.8874
    9CHTO   H52 3728   6.125   3.732   0.699  1.3141 -0.5512 -1.3362
    9CHTO   C26 3729   6.201   3.757   0.507  0.1227  0.3206 -0.1405
    9CHTO   H54 3730   6.225   3.841   0.438  1.1624  1.1049  1.1429
    9CHTO   O20 3731   6.320   3.696   0.547 -0.2375  1.0889  0.2015
    9CHTO   H36 3732   6.359   3.730   0.625  0.0015 -0.3590  0.7415
    9CHTO   C30 3733   6.095   3.665   0.441 -0.2811  0.3482  0.1711
    9CHTO   H58 3734   6.072   3.571   0.494 -0.0964  0.0365 -0.3000
    9CHTO    N6 3735   6.148   3.628   0.302  0.2328  0.3023 -0.3725
    9CHTO   H45 3736   6.184   3.711   0.243  0.7632  1.5583  1.6519
    9CHTO   H46 3737   6.075   3.572   0.246  0.8488  1.1524 -2.0604
    9CHTO   C33 3738   5.960   3.737   0.428  0.5596 -0.2636 -0.0281
    9CHTO   H61 3739   5.969   3.827   0.367  1.4195 -0.3098  0.0293
    9CHTO   O18 3740   5.918   3.776   0.555 -0.0862 -0.1903 -0.5270
    9CHTO   C28 3741   6.003   3.879   0.606  0.5710  0.2116 -0.3010
    9CHTO   H56 3742   6.009   3.960   0.534  3.5588 -0.1960 -0.5449
    9CHTO   C35 3743   5.938   3.933   0.733  0.3808  0.5014 -0.4759
    9CHTO   O24 3744   5.814   3.998   0.701  0.4017 -0.2517  0.2222
    9CHTO   H39 3745   5.759   3.986   0.777 -1.4193  0.2961 -0.9783
    9CHTO    O9 3746   5.858   3.664   0.361  0.2070  1.0538  0.2908
    9CHTO   C13 3747   5.772   3.741   0.241  0.3103 -0.4653 -0.3754
    9CHTO   H26 3748   5.841   3.802   0.180 -0.2060 -2.2389 -2.7864
    9CHTO   C11 3749   5.653   3.829   0.308  0.2402 -0.3433 -0.8516
    9CHTO   H24 3750   5.684   3.935   0.316 -0.6291 -0.0470 -1.3397
    9CHTO    O8 3751   5.626   3.782   0.440  0.2197  0.0241 -0.3087
    9CHTO    H3 3752   5.610   3.692   0.460  2.6677 -0.3512  0.1816
    9CHTO    C9 3753   5.540   3.829   0.211  0.6469  0.2424  0.0704
    9CHTO   H22 3754   5.577   3.873   0.117 -0.6582  0.5134 -0.3265
    9CHTO    N2 3755   5.433   3.923   0.239 -0.9710 -0.3307 -0.3365
    9CHTO   H10 3756   5.359   3.881   0.306 -1.8449  1.9264  0.1650
    9CHTO   H11 3757   5.469   4.014   0.285  2.2097 -2.7174  2.1645
    9CHTO    C7 3758   5.493   3.684   0.191 -0.0759  0.2249  0.0702
    9CHTO   H20 3759   5.431   3.687   0.099 -0.6771 -1.0409  0.4282
    9CHTO    O4 3760   5.595   3.581   0.183  0.5891  0.1129 -0.0876
    9CHTO   C14 3761   5.721   3.630   0.138 -0.8890 -0.3367 -0.7870
    9CHTO   H27 3762   5.704   3.680   0.040  1.3269 -0.6121 -1.3350
    9CHTO   C18 3763   5.818   3.519   0.115 -0.0644  0.3359 -0.7606
    9CHTO   O13 3764   5.915   3.558   0.026 -0.6342  0.1132 -0.2646
    9CHTO    H7 3765   5.977   3.488   0.026 -1.5414 -0.7076 -2.3469
    9CHTO    O2 3766   5.390   3.641   0.312  0.0575  0.2786 -0.1853
    9CHTO    C1 3767   5.289   3.554   0.281  0.4023  0.5274  0.1482
    9CHTO   H14 3768   5.320   3.505   0.187 -1.9881  2.0264 -1.5149
    9CHTO    C2 3769   5.139   3.612   0.266 -0.1231  1.0101 -0.4611
    9CHTO   H15 3770   5.118   3.668   0.358 -0.5161 -1.6655  1.1384
    9CHTO    O6 3771   5.139   3.701   0.153  0.3610  0.4445  0.5281
    9CHTO    H1 3772   5.049   3.722   0.135  0.1216  1.5922  2.8908
    9CHTO    C3 3773   5.029   3.497   0.239  0.7445 -0.1977 -0.1693
    9CHTO   H16 3774   5.062   3.466   0.139  1.6574  0.4397 -0.0677
    9CHTO    N1 3775   4.887   3.540   0.242 -0.1559  0.6504  0.4524
    9CHTO    H8 3776   4.825   3.453   0.258  0.5152  0.0555 -0.1471
    9CHTO    H9 3777   4.875   3.619   0.315 -0.5429  0.0143  1.0778
    9CHTO    C4 3778   5.052   3.371   0.332 -0.1183 -0.0077 -0.3161
    9CHTO   H17 3779   5.009   3.389   0.431  1.9570 -0.3766  0.6843
    9CHTO    O1 3780   5.191   3.339   0.347  0.0384  0.4247  0.3823
    9CHTO    C5 3781   5.279   3.441   0.392 -0.3476  0.2360 -0.0701
    9CHTO   H18 3782   5.248   3.489   0.485 -2.5861  2.8762 -2.1246
    9CHTO   C16 3783   5.423   3.381   0.415 -0.4433  0.2142  0.3794
    9CHTO   O11 3784   5.432   3.291   0.524  0.4343 -0.1209 -0.0765
    9CHTO    H5 3785   5.495   3.319   0.588 -1.1003  2.8235  0.1905
    9CHTO    O3 3786   4.992   3.255   0.267  0.1150 -0.2266 -0.0193
    9CHTO    C6 3787   4.948   3.140   0.356  0.0774  0.4696 -0.0689
    9CHTO   H19 3788   4.958   3.176   0.458  0.0745  0.5637 -0.1021
    9CHTO    C8 3789   4.802   3.104   0.338 -0.1118 -0.0637  0.2175
    9CHTO   H21 3790   4.785   3.081   0.233  0.1668  0.7771 -0.0105
    9CHTO    O7 3791   4.715   3.214   0.384  0.0456 -0.0772  0.1065
    9CHTO    H2 3792   4.708   3.208   0.478 -1.6774 -0.7554 -0.0596
    9CHTO   C12 3793   4.758   2.962   0.402  0.1602 -0.1169 -0.3007
    9CHTO   H25 3794   4.766   2.975   0.512 -2.2442  2.7620 -0.4061
    9CHTO    N3 3795   4.608   2.937   0.364 -0.1731  0.7504  0.3008
    9CHTO   H12 3796   4.586   2.953   0.260  0.3315 -1.5359 -0.1738
    9CHTO   H13 3797   4.541   3.002   0.419 -0.5845  0.6601 -0.0898
    9CHTO   C15 3798   4.858   2.853   0.360 -0.4117 -0.0530 -0.1016
    9CHTO   H28 3799   4.855   2.832   0.253  0.1615  1.3199 -0.3948
    9CHTO   O10 3800   4.842   2.706   0.443 -0.0101  0.1943  0.5396
    9CHTO    H4 3801   4.768   2.655   0.418  2.4040 -3.3028  0.0638
    9CHTO    O5 3802   4.988   2.899   0.402  0.3855 -0.0954 -0.5620
    9CHTO   C10 3803   5.039   3.020   0.340 -0.1873  0.4874 -0.4382
    9CHTO   H23 3804   5.051   3.005   0.233  1.0203 -0.9100 -0.1385
    9CHTO   C17 3805   5.178   3.026   0.394 -0.5147  0.1271 -0.5031
    9CHTO   O12 3806   5.200   3.040   0.531 -0.0584  0.1382  0.7522
    9CHTO    H6 3807   5.293   3.048   0.538  0.2940 -1.3392 -1.8192
   10CHTO  H203 3808   3.923   6.210   2.300 -1.0285  0.9261 -1.9546
   10CHTO   O82 3809   3.846   6.206   2.353  0.2072 -0.0344 -0.1674
   10CHTO  C123 3810   3.850   6.325   2.433 -0.3148 -0.8008 -0.4581
   10CHTO  H227 3811   3.844   6.414   2.369  1.2421  0.2269  0.7657
   10CHTO   O77 3812   3.741   6.313   2.521  0.3326  0.0304 -0.4740
   10CHTO  C118 3813   3.716   6.429   2.602  0.6732  0.4265 -0.0292
   10CHTO  H222 3814   3.716   6.524   2.547  1.5699 -0.4718 -1.5859
   10CHTO  C125 3815   3.577   6.405   2.672  0.3575  0.1469  1.2918
   10CHTO   O84 3816   3.577   6.304   2.770 -0.7853 -0.2804  0.0048
   10CHTO  H205 3817   3.528   6.342   2.841 -0.0175  1.3567 -0.3168
   10CHTO  C114 3818   3.838   6.442   2.704 -0.4989  0.4787 -0.2724
   10CHTO  H218 3819   3.853   6.350   2.761 -3.2783  0.8003  1.0464
   10CHTO  C116 3820   3.969   6.455   2.629  0.1263 -0.2802 -0.8953
   10CHTO  H220 3821   3.975   6.555   2.583  0.5343 -0.3069 -0.9093
   10CHTO   O79 3822   4.085   6.449   2.711  0.0068 -0.1822  0.1023
   10CHTO  H201 3823   4.106   6.365   2.746 -0.2087 -0.5884 -0.7257
   10CHTO  C120 3824   3.987   6.343   2.519 -0.1032  0.3051 -1.1852
   10CHTO  H224 3825   4.009   6.252   2.579  0.8746  2.3513  1.6545
   10CHTO   N21 3826   4.103   6.364   2.424  0.0302  0.4091  0.2377
   10CHTO  H211 3827   4.199   6.345   2.469 -0.2863  1.0286  1.1699
   10CHTO  H212 3828   4.091   6.302   2.336  1.4561 -2.1333  1.7389
   10CHTO   O75 3829   3.811   6.551   2.792 -0.1563 -0.2798 -0.0047
   10CHTO  C112 3830   3.799   6.491   2.956 -0.2015  0.3141 -0.1147
   10CHTO  H216 3831   3.842   6.391   2.971 -0.5909  0.1452 -0.1125
   10CHTO   O73 3832   3.666   6.491   2.996 -0.5171  0.4936 -0.0105
   10CHTO  C113 3833   3.636   6.457   3.135  0.1099 -0.5192 -0.0639
   10CHTO  H217 3834   3.653   6.349   3.155  0.7736 -0.7168 -1.6233
   10CHTO  C124 3835   3.481   6.473   3.152  0.0225 -0.1909 -0.1098
   10CHTO   O83 3836   3.426   6.604   3.126 -0.0006  0.0288  0.1610
   10CHTO  H204 3837   3.334   6.610   3.139 -0.6569  2.1727 -4.2747
   10CHTO  C109 3838   3.716   6.539   3.246  0.2220  0.7664 -0.5150
   10CHTO  H213 3839   3.668   6.637   3.254  0.2284  0.5996  1.9437
   10CHTO  C110 3840   3.866   6.547   3.199  0.4225  0.6026  0.3624
   10CHTO  H214 3841   3.910   6.447   3.197 -0.4799  0.1783  1.2330
   10CHTO   O78 3842   3.932   6.636   3.287 -0.3212 -0.0818 -0.0430
   10CHTO  H200 3843   3.946   6.595   3.371  0.1236 -0.5186 -0.3280
   10CHTO  C111 3844   3.880   6.592   3.054  0.1344 -0.5674  0.0211
   10CHTO  H215 3845   3.832   6.690   3.036  0.5236 -0.5441 -0.9519
   10CHTO   N19 3846   4.021   6.598   3.015 -0.4144 -0.2105 -0.3734
   10CHTO  H207 3847   4.055   6.496   3.006 -1.0145 -0.1814 -3.8862
   10CHTO  H208 3848   4.031   6.652   2.921  0.3205 -1.6636 -1.1469
   10CHTO   O74 3849   3.700   6.479   3.375 -0.0410 -0.3025  0.0807
   10CHTO  C115 3850   3.667   6.578   3.485  0.3182  0.8888 -0.0824
   10CHTO  H219 3851   3.735   6.663   3.486 -0.4788  1.5741 -2.4248
   10CHTO   O76 3852   3.505   6.646   3.464  0.3149 -0.2552  0.0975
   10CHTO  C122 3853   3.458   6.701   3.586  0.4653  0.1065  0.6197
   10CHTO  H226 3854   3.349   6.708   3.581  0.3160 -2.1931 -0.2367
   10CHTO  C126 3855   3.512   6.853   3.585  0.8951  0.1605  0.1393
   10CHTO   O85 3856   3.484   6.937   3.697 -0.0515  0.1907  0.0638
   10CHTO  H206 3857   3.474   7.027   3.671  1.2698  1.3419  3.2491
   10CHTO  C121 3858   3.483   6.618   3.718  0.0213 -0.5860  0.1262
   10CHTO  H225 3859   3.439   6.673   3.803  0.7827  1.0450 -0.5084
   10CHTO   O81 3860   3.414   6.491   3.711 -0.0724  0.1146 -0.0386
   10CHTO  H202 3861   3.320   6.492   3.704 -0.0183 -0.8759 -1.1387
   10CHTO  C119 3862   3.638   6.581   3.748  0.1937  0.6274  0.6592
   10CHTO  H223 3863   3.689   6.678   3.746  0.6364  0.3701 -0.5147
   10CHTO  C117 3864   3.691   6.498   3.625 -0.4929  0.6878 -0.2717
   10CHTO  H221 3865   3.659   6.396   3.603  0.3315  0.1955  0.7401
   10CHTO   N20 3866   3.844   6.484   3.642  0.6599 -0.4876  0.2731
   10CHTO  H209 3867   3.895   6.518   3.554 -0.2062  1.0200  0.3361
   10CHTO  H210 3868   3.874   6.380   3.642 -1.3947 -1.1399 -2.3991
   10CHTO   O80 3869   3.654   6.529   3.899  0.0217 -0.2666  0.3464
   10CHTO  C103 3870   3.609   6.624   4.031 -0.5221  0.1693 -0.9304
   10CHTO  H190 3871   3.678   6.595   4.111 -0.0297 -1.0322 -1.7773
   10CHTO  C101 3872   3.584   6.783   4.013 -0.3601 -0.0957  0.0601
   10CHTO  H188 3873   3.550   6.803   3.911 -1.6812 -0.1865  0.4854
   10CHTO   O68 3874   3.729   6.859   4.019  0.0305  1.0201  0.5585
   10CHTO  H168 3875   3.784   6.814   4.081 -1.4232 -1.1462  0.3304
   10CHTO   C99 3876   3.486   6.838   4.124 -0.1344 -0.4610 -0.1034
   10CHTO  H186 3877   3.543   6.826   4.218 -0.1577 -1.6002 -0.2338
   10CHTO   N17 3878   3.454   6.985   4.106 -0.6545  0.0256 -0.0616
   10CHTO  H174 3879   3.410   7.018   4.199 -0.0341 -0.3681  0.3834
   10CHTO  H175 3880   3.381   6.999   4.028 -0.0196 -0.3349 -0.7228
   10CHTO   C97 3881   3.355   6.756   4.139 -0.5722 -0.7702  0.1216
   10CHTO  H184 3882   3.291   6.765   4.050  1.2919  0.3261 -1.1382
   10CHTO   O64 3883   3.392   6.620   4.160 -0.4057  0.1000  0.1121
   10CHTO  C104 3884   3.471   6.551   4.062 -0.1945 -0.4242  0.7350
   10CHTO  H191 3885   3.412   6.544   3.971 -0.1866  0.2306  0.6806
   10CHTO  C108 3886   3.486   6.403   4.101 -0.0997  0.4496  0.2119
   10CHTO   O71 3887   3.353   6.347   4.134  0.0189  0.2178 -0.5824
   10CHTO  H171 3888   3.359   6.256   4.155 -1.8459  0.5784  1.8340
   10CHTO   O62 3889   3.291   6.796   4.262  0.1648 -0.1265 -0.0176
   10CHTO   C91 3890   3.152   6.771   4.267 -0.9866  0.4834 -0.5010
   10CHTO  H178 3891   3.129   6.700   4.187 -1.3173 -1.5179  1.3351
   10CHTO   C92 3892   3.072   6.898   4.239  0.4661  0.1368 -0.1533
   10CHTO  H179 3893   3.116   6.984   4.291 -1.3229  0.5797  0.6476
   10CHTO   O66 3894   3.079   6.913   4.097 -0.3290  0.0364  0.1749
   10CHTO  H166 3895   3.162   6.931   4.057 -0.6262 -0.2084 -0.5530
   10CHTO   C93 3896   2.919   6.882   4.276 -1.0576  0.7302  0.2603
   10CHTO  H180 3897   2.874   6.823   4.194 -0.9557  1.2446 -0.1661
   10CHTO   N16 3898   2.844   7.007   4.281  0.0434  0.4490  0.2527
   10CHTO  H172 3899   2.792   7.021   4.375  1.6519  1.9380  0.9515
   10CHTO  H173 3900   2.905   7.087   4.243 -0.0421  0.7071  0.6526
   10CHTO   C94 3901   2.899   6.813   4.416  0.3561  0.8194  0.4922
   10CHTO  H181 3902   2.942   6.871   4.498  1.1091 -0.6363  1.1572
   10CHTO   O61 3903   2.964   6.690   4.411  0.0447 -0.5855 -0.3477
   10CHTO   C95 3904   3.106   6.710   4.404  0.0069  0.0872 -0.2094
   10CHTO  H182 3905   3.134   6.781   4.482 -1.3949 -0.2368  0.6028
   10CHTO  C106 3906   3.185   6.575   4.426  0.4431 -0.4468  0.0024
   10CHTO   O69 3907   3.122   6.499   4.530  0.4212  0.1540  0.4654
   10CHTO  H169 3908   3.031   6.486   4.512  0.9806 -1.5625 -1.3409
   10CHTO   O63 3909   2.743   6.782   4.453  0.0676  0.9083  0.0898
   10CHTO   C96 3910   2.717   6.819   4.610 -0.5481 -0.4035 -0.4368
   10CHTO  H183 3911   2.782   6.902   4.636 -1.4263  0.4925 -1.0706
   10CHTO   C98 3912   2.743   6.700   4.705 -0.1265 -0.1308  0.2356
   10CHTO  H185 3913   2.702   6.610   4.656  0.2326 -0.8711  1.3006
   10CHTO   O67 3914   2.887   6.679   4.715 -0.3518 -0.2682 -0.0683
   10CHTO  H167 3915   2.924   6.668   4.800 -1.6290 -1.5115  0.3670
   10CHTO  C102 3916   2.680   6.715   4.852 -0.9383  0.4274  0.9419
   10CHTO  H189 3917   2.760   6.764   4.911  0.7495 -2.4113  1.1286
   10CHTO   N18 3918   2.667   6.577   4.910 -0.0176  0.0188  0.2567
   10CHTO  H176 3919   2.596   6.574   4.992 -1.4436  0.2628 -0.9619
   10CHTO  H177 3920   2.630   6.513   4.832  0.2586  2.3388 -1.8076
   10CHTO  C105 3921   2.546   6.792   4.853  0.1703 -0.0931  0.3210
   10CHTO  H192 3922   2.467   6.726   4.817 -0.6230  1.8662 -1.6202
   10CHTO   O65 3923   2.550   6.909   4.766  0.5238  0.3321 -0.8082
   10CHTO  C100 3924   2.572   6.884   4.625  0.4115 -0.3339 -0.1278
   10CHTO  H187 3925   2.510   6.807   4.575 -1.1846 -0.4295  1.9342
   10CHTO  C107 3926   2.556   7.016   4.547  0.3503  0.7753 -0.0964
   10CHTO   O70 3927   2.422   7.061   4.534 -0.4587 -0.4268  0.0209
   10CHTO  H170 3928   2.373   7.025   4.463  0.5758 -0.0544 -0.8946
   10CHTO   O57 3929   2.531   6.847   5.007 -0.2091  0.7357  0.3416
   10CHTO   C85 3930   2.396   6.859   5.067  0.2405  0.2769  0.3579
   10CHTO  H157 3931   2.329   6.921   5.003 -0.0249 -1.0229 -0.6555
   10CHTO   C83 3932   2.404   6.932   5.206 -0.5772 -0.6928  0.5341
   10CHTO  H155 3933   2.409   7.040   5.190 -0.8408 -0.7635 -0.0377
   10CHTO   O56 3934   2.520   6.888   5.276  0.2360  0.0743 -0.1273
   10CHTO  H135 3935   2.541   6.940   5.351 -1.8816  1.2704 -0.3194
   10CHTO   C81 3936   2.271   6.907   5.287  0.4191  0.0264 -0.2235
   10CHTO  H153 3937   2.186   6.935   5.225  0.4010  2.8339  1.0296
   10CHTO   N14 3938   2.259   6.984   5.415 -0.6855 -0.1750  0.1001
   10CHTO  H141 3939   2.319   7.072   5.400  2.2702 -1.5040  3.3767
   10CHTO  H142 3940   2.300   6.929   5.497  0.3329  0.9206  0.3437
   10CHTO   C79 3941   2.258   6.749   5.320 -0.9653 -0.5142  0.2497
   10CHTO  H151 3942   2.164   6.731   5.372 -0.3753 -1.9165  0.8790
   10CHTO   O52 3943   2.244   6.678   5.197  0.1630 -0.0290  0.3976
   10CHTO   C86 3944   2.328   6.707   5.078  0.1389  0.2865  0.5684
   10CHTO  H158 3945   2.407   6.629   5.080 -0.1708 -0.2151 -3.3678
   10CHTO   C90 3946   2.242   6.680   4.952  0.5074  0.1928 -0.4421
   10CHTO   O60 3947   2.178   6.552   4.961 -0.3911  0.3237 -0.0992
   10CHTO  H138 3948   2.150   6.529   4.874  0.2350 -1.1401  0.0762
   10CHTO   O50 3949   2.371   6.686   5.383 -0.1187 -0.9984 -0.0469
   10CHTO   C73 3950   2.385   6.575   5.476  0.4830 -0.1287  0.2642
   10CHTO  H145 3951   2.308   6.502   5.448 -1.0459  1.3528  0.4857
   10CHTO   C74 3952   2.358   6.614   5.625 -0.5753 -0.8412 -0.1597
   10CHTO  H146 3953   2.257   6.657   5.625  0.7281  2.3520 -0.6080
   10CHTO   O54 3954   2.354   6.506   5.716 -0.4741  0.2004  0.0672
   10CHTO  H133 3955   2.302   6.519   5.792 -0.6021  0.8362 -0.1238
   10CHTO   C75 3956   2.465   6.727   5.668 -0.5145  0.3226  0.0710
   10CHTO  H147 3957   2.448   6.808   5.596 -0.5538  0.6138  0.4096
   10CHTO   N13 3958   2.444   6.793   5.795 -0.7982 -0.4608 -0.1626
   10CHTO  H139 3959   2.346   6.840   5.792  0.5841  2.5614  0.1555
   10CHTO  H140 3960   2.451   6.722   5.876  2.0594 -1.2128 -0.9970
   10CHTO   C76 3961   2.615   6.659   5.648 -0.2059  0.5009 -0.3250
   10CHTO  H148 3962   2.619   6.584   5.727  2.5296  0.6164 -0.3152
   10CHTO   O49 3963   2.627   6.603   5.510  0.7266 -0.2695 -0.4976
   10CHTO   C77 3964   2.524   6.512   5.464 -0.1952 -0.5043  0.3329
   10CHTO  H149 3965   2.523   6.423   5.526 -0.7582 -0.7459 -0.0193
   10CHTO   C88 3966   2.556   6.471   5.322  0.6274  0.0259  0.6612
   10CHTO   O58 3967   2.659   6.388   5.332  0.0588 -0.6552  0.1400
   10CHTO  H136 3968   2.687   6.381   5.242  0.9860 -2.3560  0.5487
   10CHTO   O51 3969   2.728   6.768   5.654 -0.2709 -0.0219 -0.6435
   10CHTO   C78 3970   2.865   6.718   5.703 -0.2062 -0.0464 -0.4698
   10CHTO  H150 3971   2.882   6.608   5.695  0.4917  0.1927 -2.6511
   10CHTO   C80 3972   2.894   6.762   5.846 -0.0288 -0.9365 -0.2471
   10CHTO  H152 3973   2.879   6.872   5.847  0.9750 -0.8062  0.8401
   10CHTO   O55 3974   2.800   6.693   5.928 -0.3795  0.0595  0.1399
   10CHTO  H134 3975   2.758   6.749   5.991  1.0666  1.5176 -0.1700
   10CHTO   C84 3976   3.043   6.736   5.898  0.6483 -0.3502 -0.4283
   10CHTO  H156 3977   3.042   6.627   5.898  0.5127 -0.3517  0.0343
   10CHTO   N15 3978   3.071   6.787   6.036  0.0809  0.5780  0.0387
   10CHTO  H143 3979   3.166   6.768   6.080 -0.9212 -3.9707  0.4698
   10CHTO  H144 3980   2.992   6.748   6.097  0.0905 -0.1709 -0.4151
   10CHTO   C87 3981   3.140   6.796   5.788  0.0820 -0.4372 -0.3415
   10CHTO  H159 3982   3.124   6.903   5.776 -0.5915 -0.5657 -0.5797
   10CHTO   O53 3983   3.108   6.734   5.641 -0.7653 -0.2551  0.1894
   10CHTO   C82 3984   2.972   6.777   5.612  0.8192 -0.2311  0.1128
   10CHTO  H154 3985   2.966   6.885   5.626 -1.4488 -0.4696  1.1076
   10CHTO   C89 3986   2.950   6.751   5.461 -0.7847  0.1363 -0.1290
   10CHTO   O59 3987   2.931   6.612   5.428 -0.0665  0.3579 -0.2592
   10CHTO  H137 3988   2.990   6.557   5.475  1.0720  2.8261  1.3312
   10CHTO   O45 3989   3.296   6.774   5.816 -0.9295  0.3740 -0.4124
   10CHTO   C67 3990   3.377   6.891   5.765  0.0211  0.0217 -0.2934
   10CHTO  H124 3991   3.337   6.924   5.669  0.7730  0.9074 -0.3086
   10CHTO   C65 3992   3.383   7.008   5.873  0.9348  0.2477 -0.5607
   10CHTO  H122 3993   3.282   7.043   5.895  1.3707  0.4380  1.2142
   10CHTO   O44 3994   3.440   7.128   5.817  0.1533  0.5888 -0.0077
   10CHTO  H102 3995   3.532   7.107   5.813 -0.3103 -2.1606  2.1789
   10CHTO   C63 3996   3.448   6.959   6.010 -0.4244  0.4953  0.4358
   10CHTO  H120 3997   3.398   6.867   6.039 -0.9740 -0.2395 -2.6765
   10CHTO   N11 3998   3.429   7.048   6.129  0.4631  0.8283  0.3498
   10CHTO  H108 3999   3.515   7.110   6.143  0.0806  1.6268 -0.6729
   10CHTO  H109 4000   3.337   7.103   6.130 -0.9125 -1.4166 -0.4122
   10CHTO   C61 4001   3.600   6.916   5.972  0.1167  0.2496  0.6902
   10CHTO  H118 4002   3.636   6.853   6.055  0.2943 -3.1211 -1.8401
   10CHTO   O40 4003   3.605   6.830   5.851 -0.6053 -0.0022  0.0810
   10CHTO   C68 4004   3.515   6.838   5.734  1.0640 -0.7841  0.0744
   10CHTO  H125 4005   3.507   6.733   5.701  1.6214 -0.3922 -1.3362
   10CHTO   C72 4006   3.581   6.911   5.618  0.4300 -0.4996  0.2258
   10CHTO   O48 4007   3.692   6.835   5.575  0.1265  0.0717 -0.1146
   10CHTO  H105 4008   3.766   6.836   5.632  0.6228  1.0132 -0.7434
   10CHTO   O38 4009   3.696   7.025   5.958  0.4472  0.3595  0.1678
   10CHTO   C55 4010   3.836   6.996   5.967 -0.2711 -0.3423 -0.9246
   10CHTO  H112 4011   3.859   6.899   5.920  1.3048  1.2745 -3.6038
   10CHTO   C56 4012   3.890   7.000   6.120  0.3150 -0.4208  0.2735
   10CHTO  H113 4013   3.860   7.097   6.162  2.9307  0.2248  0.7511
   10CHTO   O42 4014   3.832   6.900   6.200 -0.1453  0.4473 -0.3565
   10CHTO  H100 4015   3.740   6.917   6.212 -0.3308 -0.2859 -0.6705
   10CHTO   C57 4016   4.044   6.988   6.124 -0.4650 -0.0187 -0.3293
   10CHTO  H114 4017   4.072   6.888   6.090 -0.3378  0.5646 -2.0068
   10CHTO   N10 4018   4.107   6.988   6.254  0.2669  0.1085 -0.5464
   10CHTO  H106 4019   4.195   6.926   6.248 -0.7619 -1.4338 -0.0274
   10CHTO  H107 4020   4.137   7.089   6.280  0.4865 -0.1950  0.3912
   10CHTO   C58 4021   4.105   7.094   6.031 -0.3447  0.5483  0.2247
   10CHTO  H115 4022   4.085   7.199   6.063  0.7817  1.0735 -0.7587
   10CHTO   O37 4023   4.049   7.075   5.900 -0.1463  0.1061  0.2383
   10CHTO   C59 4024   3.908   7.104   5.891 -0.5913  0.1076  0.0759
   10CHTO  H116 4025   3.883   7.201   5.934  3.4379  1.3058 -0.1549
   10CHTO   C70 4026   3.869   7.109   5.740 -0.0622  0.1240 -0.6423
   10CHTO   O46 4027   3.894   7.236   5.682 -0.1843  0.3287  0.3205
   10CHTO  H103 4028   3.836   7.247   5.609  3.0703 -0.6844 -2.5192
   10CHTO   O39 4029   4.265   7.080   6.012  0.0574  0.0096  0.2637
   10CHTO   C60 4030   4.351   7.197   6.021 -0.6268 -0.0987  0.8286
   10CHTO  H117 4031   4.313   7.287   5.972  0.5867  0.5044  0.9765
   10CHTO   C62 4032   4.363   7.260   6.162 -0.0156  0.2182 -0.6935
   10CHTO  H119 4033   4.263   7.278   6.207  1.0276  0.9448  1.4218
   10CHTO   O43 4034   4.426   7.156   6.244 -0.3168  0.6006 -0.1736
   10CHTO  H101 4035   4.456   7.197   6.323 -2.9239 -0.2743  1.3212
   10CHTO   C66 4036   4.448   7.398   6.164  0.9691  0.2297 -0.1441
   10CHTO  H123 4037   4.397   7.470   6.100 -0.7151  1.6638  2.7134
   10CHTO   N12 4038   4.459   7.463   6.297  0.3523  0.6446 -0.1660
   10CHTO  H110 4039   4.530   7.544   6.298 -0.3609  1.2751  0.1151
   10CHTO  H111 4040   4.489   7.399   6.378 -2.5267  0.2057  0.6108
   10CHTO   C69 4041   4.586   7.364   6.103 -0.2194  0.2299  0.4617
   10CHTO  H126 4042   4.645   7.299   6.171 -0.9597  0.6787  1.5446
   10CHTO   O41 4043   4.570   7.291   5.968  0.0413  0.0428 -0.4989
   10CHTO   C64 4044   4.494   7.172   5.968 -0.7150 -0.1702 -0.6545
   10CHTO  H121 4045   4.554   7.097   6.025  0.2539  0.0888 -1.3109
   10CHTO   C71 4046   4.494   7.115   5.819 -0.0959  0.0846 -0.2830
   10CHTO   O47 4047   4.428   7.196   5.724  0.0950 -0.4017  0.0323
   10CHTO  H104 4048   4.467   7.282   5.718 -0.8384  0.4098  3.8959
   10CHTO   O34 4049   4.677   7.499   6.089  0.7392  0.0708  0.1020
   10CHTO   C49 4050   4.714   7.572   5.963 -0.6326 -0.7953 -0.5265
   10CHTO   H91 4051   4.741   7.488   5.899  0.2404 -0.0916 -1.0815
   10CHTO   C47 4052   4.833   7.666   5.999  0.3011 -0.0982 -0.7793
   10CHTO   H89 4053   4.867   7.715   5.905  0.6034  0.9540 -0.1259
   10CHTO   O33 4054   4.940   7.590   6.063 -0.4453  0.0036  0.0305
   10CHTO   H70 4055   4.907   7.541   6.136 -0.1753 -0.0699  0.1046
   10CHTO   C45 4056   4.770   7.780   6.110 -0.1571  0.0262  0.0412
   10CHTO   H87 4057   4.734   7.715   6.191  1.1042 -1.9485 -0.9134
   10CHTO    N8 4058   4.871   7.870   6.173  0.3066 -0.4248 -0.0429
   10CHTO   H75 4059   4.904   7.949   6.108 -0.7025  0.2618  0.2727
   10CHTO   H76 4060   4.949   7.811   6.219  1.1454  1.0846  0.5024
   10CHTO   C43 4061   4.647   7.858   6.040  0.1860 -0.1284 -0.6874
   10CHTO   H85 4062   4.607   7.922   6.119  0.0527  0.8702 -1.5493
   10CHTO   O29 4063   4.547   7.766   5.993  0.3171 -0.3680  0.4863
   10CHTO   C50 4064   4.587   7.648   5.915  0.2364 -0.5931 -0.2157
   10CHTO   H92 4065   4.504   7.577   5.929  0.5164 -0.8899 -0.0485
   10CHTO   C54 4066   4.600   7.677   5.760  0.1800 -0.2102  0.1021
   10CHTO   O36 4067   4.479   7.748   5.726 -0.2010  0.3273 -0.0361
   10CHTO   H72 4068   4.482   7.759   5.633 -3.0173  2.4198  0.0819
   10CHTO   O27 4069   4.683   7.949   5.932 -0.1473  0.5000  0.4022
   10CHTO   C37 4070   4.672   8.036   5.818  1.0532 -0.6081  0.6502
   10CHTO   H79 4071   4.665   7.983   5.722 -0.6699  1.5438 -0.4599
   10CHTO   C38 4072   4.537   8.121   5.831 -0.2222  0.8869  0.0936
   10CHTO   H80 4073   4.530   8.172   5.928  2.3256  0.7075  0.3932
   10CHTO   O31 4074   4.431   8.026   5.818  0.0611  0.2109 -0.1382
   10CHTO   H68 4075   4.350   8.067   5.795  0.2810  1.4289  1.1883
   10CHTO   C39 4076   4.526   8.229   5.721 -0.6224 -0.3122  0.2868
   10CHTO   H81 4077   4.536   8.181   5.623 -2.3390 -1.2392  0.5523
   10CHTO    N7 4078   4.399   8.313   5.727  0.1558 -0.4346 -0.0903
   10CHTO   H73 4079   4.306   8.267   5.695 -0.7046  0.1786  1.4738
   10CHTO   H74 4080   4.386   8.323   5.834 -1.2130 -2.0084 -0.0856
   10CHTO   C40 4081   4.650   8.317   5.731  0.0054  0.5478 -0.6262
   10CHTO   H82 4082   4.664   8.381   5.818  0.0376 -1.8487  1.1886
   10CHTO   O26 4083   4.765   8.232   5.708 -0.1868 -0.5877 -0.4586
   10CHTO   C41 4084   4.795   8.132   5.808  0.1449 -0.9004  0.1334
   10CHTO   H83 4085   4.809   8.184   5.904  1.0468 -0.3231 -0.3063
   10CHTO   C52 4086   4.929   8.065   5.773  0.0147 -0.1668  0.0174
   10CHTO   O35 4087   4.972   7.974   5.887 -0.1258 -0.4593 -0.3004
   10CHTO   H71 4088   4.909   7.905   5.902  2.9319 -3.4788 -0.7225
   10CHTO   O28 4089   4.673   8.388   5.604  0.1756  0.4715  0.6651
   10CHTO   C42 4090   4.719   8.529   5.592  1.3271 -0.3194 -0.2069
   10CHTO   H84 4091   4.788   8.543   5.675 -2.2414 -1.6482  3.1609
   10CHTO   C44 4092   4.615   8.638   5.613 -0.2886 -0.4270  0.3914
   10CHTO   H86 4093   4.548   8.644   5.527 -1.1531  0.1935  1.0964
   10CHTO   O32 4094   4.532   8.600   5.727  0.1745  0.0792 -0.3081
   10CHTO   H69 4095   4.486   8.519   5.717  1.8083 -0.8455 -0.4434
   10CHTO   C48 4096   4.691   8.770   5.625 -0.1936 -0.2045 -0.0445
   10CHTO   H90 4097   4.753   8.766   5.715  1.6196 -2.4024 -1.3195
   10CHTO    N9 4098   4.588   8.880   5.655 -0.2271 -0.2470 -0.4867
   10CHTO   H77 4099   4.540   8.914   5.565 -1.8610  2.1731  1.2163
   10CHTO   H78 4100   4.633   8.965   5.704  0.0570 -0.0366 -1.1114
   10CHTO   C51 4101   4.783   8.802   5.500 -0.2700 -0.0601  0.0920
   10CHTO   H93 4102   4.718   8.821   5.415  0.5431 -1.2319 -0.8203
   10CHTO   O30 4103   4.867   8.690   5.471  0.4770 -0.2581  0.4196
   10CHTO   C46 4104   4.793   8.547   5.455 -0.0677 -0.2920  0.1262
   10CHTO   H88 4105   4.725   8.540   5.370 -1.6259  1.1630  1.2087
   10CHTO   C53 4106   4.898   8.443   5.428 -0.1351 -0.4005 -0.6811
   10CHTO   O72 4107   4.929   8.428   5.289 -0.2258 -0.4829  0.3647
   10CHTO  H199 4108   4.852   8.403   5.242  0.2931  2.2429 -2.1167
   10CHTO   O22 4109   4.877   8.911   5.528 -0.3106 -0.1438 -0.2553
   10CHTO   C31 4110   4.905   9.020   5.431  0.9919 -0.4825  0.3760
   10CHTO   H59 4111   4.833   9.005   5.348  1.2080  0.6968 -0.0488
   10CHTO   C29 4112   4.877   9.158   5.485  0.3925 -0.2593  0.0875
   10CHTO   H57 4113   4.955   9.184   5.558  1.6719  0.9059 -1.6288
   10CHTO   O21 4114   4.741   9.150   5.542 -0.3757  0.0355  0.5625
   10CHTO   H37 4115   4.715   9.239   5.560 -0.9877  0.2201 -1.1686
   10CHTO   C27 4116   4.876   9.259   5.367  0.1173  0.0912  0.3446
   10CHTO   H55 4117   4.812   9.218   5.288 -0.2722 -0.7002  1.0762
   10CHTO    N5 4118   4.825   9.398   5.395 -0.2986  0.2468 -0.9525
   10CHTO   H43 4119   4.723   9.413   5.426  0.2312  0.9627  0.4863
   10CHTO   H44 4120   4.849   9.475   5.322  1.8302  1.0602  0.5560
   10CHTO   C25 4121   5.019   9.256   5.302 -0.0127 -0.5982 -0.1700
   10CHTO   H53 4122   5.085   9.302   5.376 -0.5808  1.7441 -1.0796
   10CHTO   O17 4123   5.054   9.119   5.270  0.0304 -0.0203  0.8557
   10CHTO   C32 4124   5.049   9.014   5.364 -0.5729 -0.0834 -0.1241
   10CHTO   H60 4125   5.129   9.042   5.432 -0.4498 -1.9557  0.5304
   10CHTO   C36 4126   5.080   8.886   5.287 -0.3022 -1.1863  0.3211
   10CHTO   O25 4127   4.981   8.835   5.202  0.2743  0.7321  0.2562
   10CHTO   H40 4128   4.999   8.742   5.197 -2.5302 -0.0640  3.4463
   10CHTO   O15 4129   5.022   9.340   5.157  0.4046  0.3633 -0.7127
   10CHTO   C19 4130   5.074   9.429   5.051 -0.5430 -0.1850  0.6935
   10CHTO   H47 4131   5.084   9.369   4.960  1.5734  0.5570  0.4115
   10CHTO   C20 4132   4.978   9.547   5.012  0.6737  0.1877  1.3818
   10CHTO   H48 4133   4.973   9.625   5.089 -1.6375  0.5093  0.9323
   10CHTO   O19 4134   4.842   9.499   4.984 -0.6845 -0.8431  0.0165
   10CHTO   H35 4135   4.796   9.479   5.063 -0.0284  0.1181  0.6502
   10CHTO   C21 4136   5.040   9.622   4.878  0.3497  0.2143 -0.3752
   10CHTO   H49 4137   5.025   9.553   4.795 -1.4491 -2.0168  1.7085
   10CHTO    N4 4138   4.957   9.745   4.847  0.2032 -0.2829 -0.0081
   10CHTO   H41 4139   5.012   9.811   4.782  0.2850 -0.4492 -0.1048
   10CHTO   H42 4140   4.919   9.809   4.925  0.9407  3.7277 -2.7675
   10CHTO   C22 4141   5.187   9.652   4.909  0.2043  0.6629  0.0912
   10CHTO   H50 4142   5.187   9.724   4.991  0.0927 -0.4387  1.0736
   10CHTO   O14 4143   5.256   9.532   4.950 -0.0748  0.2161  0.4092
   10CHTO   C23 4144   5.218   9.486   5.074  0.7511 -0.5214  0.5089
   10CHTO   H51 4145   5.218   9.564   5.152 -0.9941 -0.4643  0.4632
   10CHTO   C34 4146   5.317   9.381   5.119 -0.8523 -0.3466 -0.2190
   10CHTO   O23 4147   5.316   9.359   5.261  0.1698  0.1761 -0.0548
   10CHTO   H38 4148   5.389   9.306   5.290 -0.1714 -0.5079 -0.4254
   10CHTO   O16 4149   5.254   9.684   4.791  0.6576 -0.0001 -0.6505
   10CHTO   C24 4150   5.402   9.733   4.783  0.2276  0.6920  0.0561
   10CHTO   H52 4151   5.447   9.737   4.882 -1.4859 -0.3923  0.9115
   10CHTO   C26 4152   5.414   9.874   4.736  0.2558 -0.9920  0.1849
   10CHTO   H54 4153   5.370   9.881   4.634  4.1840  0.4541 -1.4924
   10CHTO   O20 4154   5.332   9.952   4.820  0.6438  0.2750 -0.1501
   10CHTO   H36 4155   5.343  10.040   4.791  1.7392 -1.1364 -4.3204
   10CHTO   C30 4156   5.561   9.922   4.723 -0.5877  0.5795  0.8897
   10CHTO   H58 4157   5.609   9.925   4.822 -1.7032  0.9917  1.4181
   10CHTO    N6 4158   5.588  10.058   4.680  0.3736  0.0652  0.3749
   10CHTO   H45 4159   5.528  10.136   4.725  1.0534  0.6337  0.3180
   10CHTO   H46 4160   5.689  10.097   4.683  0.1014  0.9910 -1.7797
   10CHTO   C33 4161   5.624   9.819   4.629 -0.5390 -0.1672 -0.4187
   10CHTO   H61 4162   5.564   9.807   4.538  2.8881 -0.5111 -2.7126
   10CHTO   O18 4163   5.614   9.690   4.702 -0.1568 -0.3042 -0.1951
   10CHTO   C28 4164   5.483   9.637   4.700 -0.6274  0.1817  0.0272
   10CHTO   H56 4165   5.449   9.642   4.596  1.2708  2.6590 -0.5231
   10CHTO   C35 4166   5.475   9.487   4.749 -0.4259 -0.1083 -0.1288
   10CHTO   O24 4167   5.543   9.400   4.664  0.4213 -0.0302 -0.5507
   10CHTO   H39 4168   5.513   9.429   4.580  1.2071 -0.5703 -1.0203
   10CHTO    O9 4169   5.763   9.844   4.582 -0.6607 -0.0797  0.3744
   10CHTO   C13 4170   5.778   9.794   4.429 -0.0426  0.9259  0.2483
   10CHTO   H26 4171   5.702   9.853   4.373 -1.0819 -1.0260 -0.4650
   10CHTO   C11 4172   5.752   9.641   4.414  0.4511 -1.0722 -0.2062
   10CHTO   H24 4173   5.645   9.628   4.439  0.7544 -0.0459  1.7396
   10CHTO    O8 4174   5.827   9.568   4.510 -0.1485 -0.6495 -0.4510
   10CHTO    H3 4175   5.914   9.604   4.517  0.2284 -1.2389 -1.8480
   10CHTO    C9 4176   5.784   9.598   4.272  0.0867 -0.2725  0.7360
   10CHTO   H22 4177   5.736   9.660   4.195  1.6512 -0.4969 -0.4472
   10CHTO    N2 4178   5.730   9.464   4.237 -0.0243 -0.6005 -0.5709
   10CHTO   H10 4179   5.624   9.482   4.226  0.0177 -0.6923 -1.1662
   10CHTO   H11 4180   5.742   9.392   4.316 -0.3133  0.6135  0.5868
   10CHTO    C7 4181   5.937   9.612   4.243  0.4825  0.2483 -0.2210
   10CHTO   H20 4182   5.935   9.657   4.142  2.6576  0.9757  0.0389
   10CHTO    O4 4183   5.993   9.700   4.339  0.4719 -0.2500  0.1469
   10CHTO   C14 4184   5.924   9.828   4.358 -0.1329  0.2095  0.0167
   10CHTO   H27 4185   5.910   9.865   4.254  0.6380  3.0399  0.8725
   10CHTO   C18 4186   6.012   9.928   4.431  0.0724  0.4123  0.6946
   10CHTO   O13 4187   5.929  10.040   4.468  0.2858 -0.6097  0.0303
   10CHTO    H7 4188   5.976  10.120   4.474 -2.6105  1.0819  1.0092
   10CHTO    O2 4189   6.029   9.473   4.225 -0.2384 -0.0760 -0.0350
   10CHTO    C1 4190   6.149   9.491   4.147  0.0265 -0.2559  0.0674
   10CHTO   H14 4191   6.194   9.593   4.145 -0.3627 -0.0807  0.4228
   10CHTO    C2 4192   6.133   9.441   3.996 -0.5378  0.3565 -0.0946
   10CHTO   H15 4193   6.108   9.334   3.991  1.4900 -0.0724 -3.2713
   10CHTO    O6 4194   6.024   9.505   3.923 -0.4720  0.1272  0.1334
   10CHTO    H1 4195   5.949   9.455   3.947  1.3574 -2.1928  1.1899
   10CHTO    C3 4196   6.279   9.448   3.928  0.3807 -0.5876  0.9477
   10CHTO   H16 4197   6.316   9.551   3.921 -3.5403  0.8359  0.4963
   10CHTO    N1 4198   6.271   9.401   3.787  0.1823 -0.0179 -0.1527
   10CHTO    H8 4199   6.247   9.296   3.797  1.5866 -0.1419  2.4693
   10CHTO    H9 4200   6.212   9.470   3.729  1.9290  0.7475 -1.0864
   10CHTO    C4 4201   6.390   9.371   4.012  0.2589 -0.4174  0.2974
   10CHTO   H17 4202   6.376   9.264   3.991 -0.7261 -0.3834  0.7454
   10CHTO    O1 4203   6.382   9.403   4.145 -0.3267 -0.4557  0.0740
   10CHTO    C5 4204   6.260   9.393   4.214 -0.2997  0.1293 -0.7074
   10CHTO   H18 4205   6.226   9.290   4.225  1.0137 -0.0837  1.6793
   10CHTO   C16 4206   6.289   9.440   4.350  0.0364 -0.2026  0.0761
   10CHTO   O11 4207   6.188   9.406   4.443  0.3131  0.3348 -0.4459
   10CHTO    H5 4208   6.108   9.456   4.441 -0.3423 -0.5746  1.4879
   10CHTO    O3 4209   6.527   9.418   3.983 -0.0864  0.0061 -0.3849
   10CHTO    C6 4210   6.618   9.318   3.921  0.4734  0.9540 -0.1148
   10CHTO   H19 4211   6.565   9.232   3.880 -1.2985  2.6356 -1.3590
   10CHTO    C8 4212   6.697   9.398   3.808  0.2375 -0.1343  0.6961
   10CHTO   H21 4213   6.719   9.499   3.845 -1.8235  0.7710 -0.4848
   10CHTO    O7 4214   6.601   9.417   3.703  0.0176 -0.2356 -0.4632
   10CHTO    H2 4215   6.627   9.468   3.629 -2.4513  0.9075 -0.5859
   10CHTO   C12 4216   6.822   9.311   3.759 -0.1411  0.4645  1.0478
   10CHTO   H25 4217   6.773   9.239   3.690 -0.5117  0.1586  1.6280
   10CHTO    N3 4218   6.905   9.395   3.674  0.2049  0.0937 -0.1695
   10CHTO   H12 4219   6.956   9.476   3.725 -1.4278  0.6778  0.5675
   10CHTO   H13 4220   6.860   9.425   3.580 -0.0221 -2.1079 -0.7826
   10CHTO   C15 4221   6.908   9.237   3.878  0.1825  0.0150 -0.3240
   10CHTO   H28 4222   6.972   9.303   3.936  1.0270 -0.1234 -1.0965
   10CHTO   O10 4223   6.997   9.114   3.823 -0.1227 -0.1781  0.6574
   10CHTO    H4 4224   7.017   9.061   3.899 -0.1234 -0.9768  0.1078
   10CHTO    O5 4225   6.801   9.174   3.964 -0.4190 -0.0013 -0.0547
   10CHTO   C10 4226   6.713   9.268   4.031 -0.5607 -0.2769 -0.4134
   10CHTO   H23 4227   6.763   9.355   4.073 -2.1474  0.1932  0.5310
   10CHTO   C17 4228   6.631   9.199   4.141  0.1935 -0.4834 -0.4098
   10CHTO   O12 4229   6.722   9.172   4.249  0.9031  0.0485 -0.3663
   10CHTO    H6 4230   6.750   9.248   4.295  2.3241 -1.5641  1.4872
   11CHTO  H203 4231   4.718   4.849   1.666  0.1849 -0.7474  1.1525
   11CHTO   O82 4232   4.787   4.805   1.621 -0.0535 -0.0976  0.1282
   11CHTO  C123 4233   4.897   4.905   1.631 -0.4461 -0.1939  0.3905
   11CHTO  H227 4234   4.910   4.930   1.737 -0.1549 -1.2837  0.6162
   11CHTO   O77 4235   5.015   4.819   1.582  0.1451 -0.5918  0.8325
   11CHTO  C118 4236   5.149   4.880   1.568  0.0027  0.3063  0.3711
   11CHTO  H222 4237   5.181   4.928   1.662 -1.0134 -0.6305  1.2104
   11CHTO  C125 4238   5.256   4.783   1.515  0.1087 -0.0041  0.4524
   11CHTO   O84 4239   5.217   4.677   1.421 -0.0752 -0.1544  0.1052
   11CHTO  H205 4240   5.202   4.702   1.332  2.0461 -1.4942 -0.6815
   11CHTO  C114 4241   5.126   4.991   1.469 -0.1276 -0.0743 -0.6211
   11CHTO  H218 4242   5.098   4.947   1.373 -0.0828 -0.3470 -0.5105
   11CHTO  C116 4243   5.026   5.097   1.523  0.1590  0.0582 -0.5660
   11CHTO  H220 4244   5.062   5.135   1.620 -0.2772 -1.7373  0.3089
   11CHTO   O79 4245   5.025   5.204   1.427  0.2033 -0.6124  0.1996
   11CHTO  H201 4246   4.956   5.263   1.451  0.3051 -0.1776 -0.5519
   11CHTO  C120 4247   4.890   5.031   1.535  0.2304  0.4596 -0.3210
   11CHTO  H224 4248   4.848   5.012   1.434 -0.0722 -0.0230 -0.1047
   11CHTO   N21 4249   4.789   5.125   1.591 -0.1641 -0.1800  0.0422
   11CHTO  H211 4250   4.748   5.185   1.511  3.4554  0.9585 -1.1017
   11CHTO  H212 4251   4.832   5.195   1.661 -0.1287  0.9868 -1.1051
   11CHTO   O75 4252   5.259   5.047   1.463  0.2099  0.0540  0.6658
   11CHTO  C112 4253   5.343   5.134   1.605  0.2943  0.3812 -0.2013
   11CHTO  H216 4254   5.335   5.068   1.693 -0.1587  0.2566 -0.3342
   11CHTO   O73 4255   5.278   5.262   1.630 -1.0249 -0.0928 -0.1006
   11CHTO  C113 4256   5.324   5.328   1.751 -0.3600  0.0690  0.2706
   11CHTO  H217 4257   5.324   5.255   1.834 -0.3586 -3.5194 -2.7354
   11CHTO  C124 4258   5.238   5.454   1.780  0.0382  0.2940  0.2997
   11CHTO   O83 4259   5.100   5.418   1.802 -0.5616 -0.0753 -0.3195
   11CHTO  H204 4260   5.079   5.469   1.878 -0.8338  1.3354 -1.3071
   11CHTO  C109 4261   5.468   5.377   1.734  0.7191  0.4431  0.2870
   11CHTO  H213 4262   5.464   5.449   1.651  0.7874 -1.5488 -1.4995
   11CHTO  C110 4263   5.557   5.251   1.696  0.0362  0.2708 -0.1785
   11CHTO  H214 4264   5.563   5.184   1.782 -3.5408  1.5796  1.1637
   11CHTO   O78 4265   5.691   5.296   1.668  0.1661  0.2946 -0.1012
   11CHTO  H200 4266   5.743   5.226   1.634 -1.1926 -1.3407  1.1139
   11CHTO  C111 4267   5.497   5.161   1.581  0.0982 -0.1891 -0.6293
   11CHTO  H215 4268   5.507   5.216   1.487 -1.8277 -1.0171 -1.3430
   11CHTO   N19 4269   5.569   5.031   1.566  0.2920 -0.5064  0.1152
   11CHTO  H207 4270   5.675   5.034   1.545  0.3632 -1.8618  0.2007
   11CHTO  H208 4271   5.536   4.986   1.474  1.1135  0.2099 -0.5436
   11CHTO   O74 4272   5.531   5.447   1.849  0.0578  0.3825  0.3676
   11CHTO  C115 4273   5.569   5.598   1.813 -0.7575 -0.1435 -0.2490
   11CHTO  H219 4274   5.589   5.609   1.706  0.5658 -0.9997 -0.0981
   11CHTO   O76 4275   5.456   5.700   1.843 -0.0694 -0.0391 -0.1748
   11CHTO  C122 4276   5.433   5.716   1.986 -0.8043  0.4823  0.4081
   11CHTO  H226 4277   5.366   5.636   2.018 -0.6486  1.2501  2.8075
   11CHTO  C126 4278   5.350   5.847   1.982  0.5652  0.4362 -0.6738
   11CHTO   O85 4279   5.312   5.906   2.106 -0.4761  0.2352  0.0706
   11CHTO  H206 4280   5.220   5.901   2.122 -0.6918  2.4458 -0.2983
   11CHTO  C121 4281   5.564   5.718   2.080  0.0130  0.1752  0.2157
   11CHTO  H225 4282   5.557   5.802   2.152  2.4970  0.0472  0.6466
   11CHTO   O81 4283   5.581   5.600   2.155 -0.1269 -0.0840 -0.3421
   11CHTO  H202 4284   5.515   5.595   2.223  0.5013 -1.5802  0.1908
   11CHTO  C119 4285   5.690   5.735   1.991  0.1697 -0.3110  0.1186
   11CHTO  H223 4286   5.682   5.830   1.939 -0.7914 -1.7989 -2.5531
   11CHTO  C117 4287   5.709   5.621   1.886  0.0681  0.7246  0.2450
   11CHTO  H221 4288   5.736   5.523   1.924  0.9360  1.0942  0.6018
   11CHTO   N20 4289   5.822   5.652   1.785 -0.6209 -0.0049 -0.0786
   11CHTO  H209 4290   5.779   5.673   1.688 -0.6576  0.8262  0.1167
   11CHTO  H210 4291   5.896   5.573   1.783 -0.5793  0.0231  0.2604
   11CHTO   O80 4292   5.835   5.760   2.077 -0.1108 -1.0008 -0.2825
   11CHTO  C103 4293   5.857   5.908   2.162  0.2632 -0.7540  0.3127
   11CHTO  H190 4294   5.965   5.923   2.168  0.4866 -0.7498 -2.8917
   11CHTO  C101 4295   5.791   6.029   2.094  0.2751 -0.3470 -0.1995
   11CHTO  H188 4296   5.690   5.996   2.070  0.1024 -0.1166  0.1984
   11CHTO   O68 4297   5.855   6.063   1.966 -0.6026 -0.1884 -0.3086
   11CHTO  H168 4298   5.938   6.107   1.973 -1.6563  1.7699  0.1586
   11CHTO   C99 4299   5.772   6.151   2.196  0.0332 -0.2735  0.1133
   11CHTO  H186 4300   5.869   6.200   2.219  0.4100 -0.4066 -1.1880
   11CHTO   N17 4301   5.681   6.257   2.141  0.1517  0.3067  0.1361
   11CHTO  H174 4302   5.583   6.229   2.104  0.7262 -0.2454 -1.0083
   11CHTO  H175 4303   5.730   6.312   2.062  0.7702  2.5031  2.0279
   11CHTO   C97 4304   5.728   6.099   2.333 -0.2385  0.0533  0.3000
   11CHTO  H184 4305   5.624   6.062   2.333 -0.3407  0.3162 -1.3300
   11CHTO   O64 4306   5.820   6.000   2.380  0.2780 -0.2105  0.1084
   11CHTO  C104 4307   5.811   5.879   2.307 -0.0247  0.5641  0.3927
   11CHTO  H191 4308   5.710   5.841   2.306  0.2993 -0.2929 -1.2884
   11CHTO  C108 4309   5.903   5.773   2.375 -0.1633  0.0822 -0.1621
   11CHTO   O71 4310   5.899   5.775   2.517 -0.2395  0.3677 -0.6460
   11CHTO  H171 4311   5.986   5.760   2.549  0.1435 -0.6027 -2.0767
   11CHTO   O62 4312   5.758   6.194   2.441  0.8057  0.2649 -0.3504
   11CHTO   C91 4313   5.655   6.219   2.537 -0.1693 -0.5296  0.3082
   11CHTO  H178 4314   5.558   6.199   2.492  0.2016 -1.7768  0.0497
   11CHTO   C92 4315   5.655   6.366   2.599 -0.3623 -0.2864  0.3468
   11CHTO  H179 4316   5.656   6.439   2.517 -0.4724 -0.4154  0.2316
   11CHTO   O66 4317   5.537   6.392   2.676 -0.5257  0.3794  0.1181
   11CHTO  H166 4318   5.521   6.485   2.682  0.4944  0.6731 -1.4702
   11CHTO   C93 4319   5.780   6.390   2.696  1.0164 -0.0303  0.2998
   11CHTO  H180 4320   5.758   6.473   2.765  0.7826 -0.0018  0.1910
   11CHTO   N16 4321   5.905   6.439   2.637  0.2392 -0.0543  0.1726
   11CHTO  H172 4322   5.906   6.542   2.605 -0.9438  0.0915  0.6068
   11CHTO  H173 4323   5.987   6.422   2.706  0.3091 -1.7610 -0.2904
   11CHTO   C94 4324   5.812   6.265   2.781  0.3498 -0.1984  0.2857
   11CHTO  H181 4325   5.892   6.207   2.736 -0.1533 -0.1061 -0.7411
   11CHTO   O61 4326   5.695   6.177   2.785  0.3581  0.6380  0.2366
   11CHTO   C95 4327   5.660   6.119   2.656 -0.0071 -0.1198 -0.0305
   11CHTO  H182 4328   5.738   6.048   2.632 -0.1047  0.1045 -1.0253
   11CHTO  C106 4329   5.530   6.036   2.676 -0.3120 -0.6243 -0.2140
   11CHTO   O69 4330   5.421   6.112   2.725  0.4394 -0.1992  0.1488
   11CHTO  H169 4331   5.395   6.094   2.813 -1.6980 -0.0777 -0.4273
   11CHTO   O63 4332   5.833   6.310   2.922  0.3760  0.4084 -0.2589
   11CHTO   C96 4333   5.985   6.326   2.978  0.3458 -0.9156 -0.6977
   11CHTO  H183 4334   6.053   6.343   2.894 -0.0631 -0.4715 -0.9461
   11CHTO   C98 4335   6.040   6.193   3.042  0.2595  0.0367 -0.3662
   11CHTO  H185 4336   5.964   6.149   3.109  0.8610 -2.3172 -1.1663
   11CHTO   O67 4337   6.061   6.094   2.938 -0.0386  0.2219  0.3067
   11CHTO  H167 4338   5.988   6.095   2.879 -0.0306  2.0534  0.2981
   11CHTO  C102 4339   6.180   6.207   3.113  0.7103 -0.3216  0.1051
   11CHTO  H189 4340   6.255   6.234   3.038 -1.1631  1.7442 -1.0938
   11CHTO   N18 4341   6.228   6.091   3.193 -0.2450  0.5444  0.0770
   11CHTO  H176 4342   6.329   6.113   3.224 -1.6342  2.8450  3.2917
   11CHTO  H177 4343   6.227   5.999   3.136 -1.4225 -1.4816  3.2048
   11CHTO  C105 4344   6.173   6.330   3.203 -0.3065 -0.0357  0.8995
   11CHTO  H192 4345   6.084   6.323   3.266  0.2650  2.9133  2.1408
   11CHTO   O65 4346   6.137   6.442   3.120 -0.2506  0.9781  0.2254
   11CHTO  C100 4347   6.005   6.439   3.080  0.3029 -0.1901  0.5244
   11CHTO  H187 4348   5.937   6.418   3.164  0.6012 -0.0711  0.7991
   11CHTO  C107 4349   5.974   6.576   3.014 -0.1060 -0.2162 -0.1053
   11CHTO   O70 4350   5.979   6.680   3.113  0.1493  0.3912 -0.1127
   11CHTO  H170 4351   6.049   6.678   3.176 -0.9489 -0.8705  1.1216
   11CHTO   O57 4352   6.306   6.363   3.299  0.0711  0.0429  0.3956
   11CHTO   C85 4353   6.273   6.413   3.429  0.2388 -0.1964  0.2903
   11CHTO  H157 4354   6.180   6.362   3.460  0.0620  0.2969  0.5740
   11CHTO   C83 4355   6.223   6.558   3.422 -0.5391  0.1516  0.4857
   11CHTO  H155 4356   6.140   6.566   3.352 -1.5835 -1.0443  1.5484
   11CHTO   O56 4357   6.334   6.639   3.379  0.4075  0.5041 -0.3876
   11CHTO  H135 4358   6.410   6.622   3.430  0.3798  0.2542 -0.4303
   11CHTO   C81 4359   6.170   6.591   3.565 -0.4302 -0.3580 -0.3794
   11CHTO  H153 4360   6.090   6.524   3.596 -0.0084 -1.3019 -1.2985
   11CHTO   N14 4361   6.095   6.724   3.576 -0.6862 -0.1993 -0.0331
   11CHTO  H141 4362   6.018   6.724   3.502 -0.6837  1.7965 -0.0558
   11CHTO  H142 4363   6.048   6.746   3.670 -0.2373  0.8886 -0.0552
   11CHTO   C79 4364   6.289   6.574   3.673  0.1976  0.6123  0.4787
   11CHTO  H151 4365   6.237   6.572   3.769 -3.3447  0.3075 -1.3372
   11CHTO   O52 4366   6.345   6.439   3.663 -0.4719  0.7616  0.1591
   11CHTO   C86 4367   6.393   6.393   3.533 -0.1694  0.0997  0.6045
   11CHTO  H158 4368   6.482   6.457   3.516 -0.1770 -0.7208 -3.0277
   11CHTO   C90 4369   6.446   6.244   3.542  0.4077  0.1339  0.3717
   11CHTO   O60 4370   6.519   6.198   3.426 -0.0670  0.9084  0.0553
   11CHTO  H138 4371   6.612   6.209   3.433 -0.0498  0.1614  1.0397
   11CHTO   O50 4372   6.393   6.674   3.667  0.1167  0.0192 -0.3739
   11CHTO   C73 4373   6.487   6.765   3.722  0.4020 -0.1321  0.4209
   11CHTO  H145 4374   6.493   6.750   3.830 -2.3675 -1.0832  0.4952
   11CHTO   C74 4375   6.436   6.911   3.699  0.1284 -0.3353 -0.2859
   11CHTO  H146 4376   6.339   6.923   3.751  0.1014  0.6092 -0.5384
   11CHTO   O54 4377   6.532   7.001   3.757 -0.1822  0.3506  0.8546
   11CHTO  H133 4378   6.502   7.087   3.738 -1.5413 -0.5297 -1.2662
   11CHTO   C75 4379   6.424   6.939   3.543 -0.4718 -0.1101 -0.7846
   11CHTO  H147 4380   6.353   6.866   3.501 -0.2251  0.6481 -2.5772
   11CHTO   N13 4381   6.377   7.071   3.506  0.1366 -0.2862 -0.0609
   11CHTO  H139 4382   6.440   7.126   3.437 -1.2637 -0.0408 -1.1872
   11CHTO  H140 4383   6.280   7.067   3.459 -0.2487  1.4191  0.5651
   11CHTO   C76 4384   6.565   6.901   3.483  0.1588 -0.1299 -0.5941
   11CHTO  H148 4385   6.631   6.977   3.523 -0.6713  0.6799 -0.7487
   11CHTO   O49 4386   6.612   6.767   3.512  0.1000  0.2915  0.6123
   11CHTO   C77 4387   6.626   6.735   3.653 -0.2301  0.0428  0.2521
   11CHTO  H149 4388   6.704   6.794   3.703  1.5206 -1.5099 -0.5860
   11CHTO   C88 4389   6.674   6.593   3.656  0.0040 -0.5078 -0.1136
   11CHTO   O58 4390   6.643   6.522   3.779  0.2323 -0.1196  0.6246
   11CHTO  H136 4391   6.707   6.459   3.805 -0.2923 -0.9860 -0.1522
   11CHTO   O51 4392   6.556   6.906   3.324 -0.1872  0.3030 -0.0862
   11CHTO   C78 4393   6.657   6.844   3.235  0.2257  0.6939 -0.3674
   11CHTO  H150 4394   6.691   6.747   3.276 -1.2735  0.4153  0.2546
   11CHTO   C80 4395   6.781   6.938   3.224 -0.0641  0.3832  0.3170
   11CHTO  H152 4396   6.744   7.036   3.188  0.7302 -0.3802 -2.7305
   11CHTO   O55 4397   6.838   6.947   3.356  0.4832 -0.2738 -0.6211
   11CHTO  H134 4398   6.777   6.992   3.411 -0.8970 -1.2894 -1.2547
   11CHTO   C84 4399   6.875   6.884   3.113 -0.3225 -0.1028 -0.4622
   11CHTO  H156 4400   6.906   6.786   3.150  1.4229  0.4258 -0.4547
   11CHTO   N15 4401   7.005   6.955   3.092 -1.0667 -0.1646 -0.0829
   11CHTO  H143 4402   6.989   7.060   3.083 -0.2403  0.1458  1.8696
   11CHTO  H144 4403   7.061   6.936   3.182  0.1320 -0.3505 -0.8495
   11CHTO   C87 4404   6.808   6.863   2.978  0.3643 -0.3241 -0.3447
   11CHTO  H159 4405   6.776   6.946   2.914 -0.6710  0.6457  1.3961
   11CHTO   O53 4406   6.680   6.778   3.004 -0.5934  0.2492 -0.2752
   11CHTO   C82 4407   6.586   6.815   3.105  0.3337  0.3549  0.3168
   11CHTO  H154 4408   6.524   6.894   3.065 -0.1502  0.0128  0.3900
   11CHTO   C89 4409   6.503   6.686   3.117  0.0611 -0.1040 -0.2472
   11CHTO   O59 4410   6.453   6.644   2.989 -0.0351 -0.1629 -0.1496
   11CHTO  H137 4411   6.417   6.719   2.945  0.0244 -0.2797 -0.3982
   11CHTO   O45 4412   6.907   6.752   2.877 -0.3229 -0.1814  0.1469
   11CHTO   C67 4413   6.838   6.718   2.757  0.0151  0.2674 -0.3219
   11CHTO  H124 4414   6.737   6.683   2.779  0.7300 -2.1470 -0.7543
   11CHTO   C65 4415   6.829   6.835   2.652 -0.5577 -0.0711 -0.2273
   11CHTO  H122 4416   6.871   6.916   2.713 -1.5775 -0.1391  0.5819
   11CHTO   O44 4417   6.690   6.850   2.625 -0.1840 -0.2101  0.0119
   11CHTO  H102 4418   6.659   6.775   2.578 -1.7639  0.3679  0.0903
   11CHTO   C63 4419   6.932   6.819   2.538 -0.0269  0.3593 -0.0435
   11CHTO  H120 4420   7.032   6.809   2.583  0.1821  1.7426 -0.1686
   11CHTO   N11 4421   6.952   6.943   2.454  0.4345  0.0157 -1.3734
   11CHTO  H108 4422   6.947   6.925   2.349 -0.5999 -1.2620 -1.1165
   11CHTO  H109 4423   7.041   6.997   2.478 -0.8232  1.0418  1.2125
   11CHTO   C61 4424   6.901   6.692   2.457 -0.2526  0.0374 -0.2955
   11CHTO  H118 4425   6.990   6.668   2.396 -0.7800  0.3479 -1.2080
   11CHTO   O40 4426   6.875   6.578   2.546 -0.3152  0.1396 -0.2547
   11CHTO   C68 4427   6.901   6.587   2.693  0.1232 -0.1141  0.2388
   11CHTO  H125 4428   7.011   6.586   2.702  0.1419 -0.8703 -0.0277
   11CHTO   C72 4429   6.850   6.455   2.759  0.0496  0.3112 -0.3453
   11CHTO   O48 4430   6.722   6.404   2.716  0.0981 -0.0385  0.0872
   11CHTO  H105 4431   6.739   6.328   2.665 -0.9173  0.0918 -0.4547
   11CHTO   O38 4432   6.783   6.701   2.374  0.6486  0.2430  0.1572
   11CHTO   C55 4433   6.779   6.615   2.262 -0.5489 -0.3553 -0.3969
   11CHTO  H112 4434   6.857   6.538   2.274 -1.7427 -1.3266  1.3842
   11CHTO   C56 4435   6.778   6.694   2.120 -0.3303 -0.0401 -0.3707
   11CHTO  H113 4436   6.705   6.776   2.114 -0.0988  0.2447  0.6417
   11CHTO   O42 4437   6.901   6.757   2.106 -0.2813  0.2363 -0.2124
   11CHTO  H100 4438   6.899   6.844   2.069 -1.7434  0.6594  0.8076
   11CHTO   C57 4439   6.748   6.603   1.997  0.3763  0.8338  0.2259
   11CHTO  H114 4440   6.833   6.535   1.997  1.5652  2.2837 -0.8268
   11CHTO   N10 4441   6.728   6.679   1.870  0.1940 -0.2064 -0.5315
   11CHTO  H106 4442   6.822   6.670   1.817  0.4092  1.0282 -0.3846
   11CHTO  H107 4443   6.644   6.647   1.810 -0.3624  2.0539 -1.0316
   11CHTO   C58 4444   6.624   6.511   2.027 -0.8739 -0.3692 -0.7487
   11CHTO  H115 4445   6.531   6.572   2.023 -0.1001  0.7361 -2.4293
   11CHTO   O37 4446   6.643   6.446   2.156 -0.6590 -0.0424 -0.2232
   11CHTO   C59 4447   6.646   6.536   2.266  0.6259 -0.9382 -0.3977
   11CHTO  H116 4448   6.562   6.605   2.260  3.2977  2.8083  2.6105
   11CHTO   C70 4449   6.612   6.467   2.401  0.0457 -1.1238  0.9122
   11CHTO   O46 4450   6.712   6.364   2.418 -0.1351 -0.4326  0.2689
   11CHTO  H103 4451   6.770   6.382   2.490  0.6485  0.7487 -0.6510
   11CHTO   O39 4452   6.613   6.394   1.923 -0.1834  0.0777  0.5538
   11CHTO   C60 4453   6.483   6.364   1.871 -0.4292 -0.3883 -0.5704
   11CHTO  H117 4454   6.406   6.378   1.947 -0.5891  1.7672 -1.0903
   11CHTO   C62 4455   6.438   6.451   1.754  0.2338 -0.1246  0.0100
   11CHTO  H119 4456   6.427   6.547   1.809 -4.0425  0.0437 -0.9734
   11CHTO   O43 4457   6.528   6.461   1.638  0.0155  0.3340 -0.4753
   11CHTO  H101 4458   6.506   6.389   1.581  0.5087  1.8994 -2.6942
   11CHTO   C66 4459   6.289   6.403   1.713 -0.2607  0.0932  0.3358
   11CHTO  H123 4460   6.228   6.415   1.803  0.4885  2.5311  0.5401
   11CHTO   N12 4461   6.220   6.483   1.606 -0.0001 -0.2340  0.6909
   11CHTO  H110 4462   6.121   6.509   1.641  0.5831 -0.1509  2.3433
   11CHTO  H111 4463   6.284   6.570   1.598  0.1274 -0.3173  0.7899
   11CHTO   C69 4464   6.288   6.252   1.677  0.1686 -0.1109  0.9493
   11CHTO  H126 4465   6.357   6.240   1.591 -1.2633 -0.2042 -0.2086
   11CHTO   O41 4466   6.337   6.176   1.796  0.0785  0.3083  0.6707
   11CHTO   C64 4467   6.478   6.210   1.839  0.0834  0.4396 -0.1931
   11CHTO  H121 4468   6.559   6.192   1.766  1.1983  0.0273  1.1204
   11CHTO   C71 4469   6.511   6.117   1.961 -0.0501  0.2818  0.0841
   11CHTO   O47 4470   6.562   5.989   1.918 -0.2937 -0.2364  0.2217
   11CHTO  H104 4471   6.539   5.919   1.976  1.1898  0.1548  1.3227
   11CHTO   O34 4472   6.134   6.200   1.643 -0.2497 -0.0773  0.0610
   11CHTO   C49 4473   6.031   6.100   1.556  0.2752  0.5046  0.5570
   11CHTO   H91 4474   5.943   6.086   1.619  0.9017 -0.4024  1.2398
   11CHTO   C47 4475   6.097   5.963   1.534  0.7200 -0.0156 -0.6649
   11CHTO   H89 4476   6.093   5.899   1.624  1.4016 -0.7227 -1.1204
   11CHTO   O33 4477   6.231   5.992   1.497 -0.0861 -0.0384 -0.5103
   11CHTO   H70 4478   6.275   6.040   1.564  0.2456 -0.4107 -0.4575
   11CHTO   C45 4479   6.034   5.887   1.407  0.1800  0.0610  0.1136
   11CHTO   H87 4480   6.087   5.918   1.316 -0.7272 -0.2730 -0.5376
   11CHTO    N8 4481   6.054   5.734   1.416  0.1600 -1.3236 -0.1919
   11CHTO   H75 4482   6.119   5.696   1.339  0.7032  1.6170 -1.2555
   11CHTO   H76 4483   6.087   5.709   1.516 -1.0782 -0.8544  0.3442
   11CHTO   C43 4484   5.875   5.929   1.395  0.2340  0.1250  0.0264
   11CHTO   H85 4485   5.846   5.878   1.302 -0.6716  0.1271  0.3059
   11CHTO   O29 4486   5.865   6.069   1.378  0.0358  0.3421 -0.7031
   11CHTO   C50 4487   5.970   6.154   1.426 -0.1444  0.7614  0.4156
   11CHTO   H92 4488   6.044   6.164   1.345 -1.0635  0.3396 -0.4866
   11CHTO   C54 4489   5.920   6.301   1.452  0.1081 -0.1313  0.0088
   11CHTO   O36 4490   5.823   6.313   1.556 -0.2978  0.4712  0.4736
   11CHTO   H72 4491   5.755   6.251   1.537  0.0938 -0.0421  0.7315
   11CHTO   O27 4492   5.798   5.892   1.506  0.1858 -0.3129  0.0588
   11CHTO   C37 4493   5.666   5.888   1.556 -0.0542  0.4961 -0.5566
   11CHTO   H79 4494   5.656   5.826   1.647 -0.5993  1.1473 -0.1652
   11CHTO   C38 4495   5.628   6.025   1.608  0.8845 -0.5365 -0.5340
   11CHTO   H80 4496   5.629   6.094   1.522  1.0695  0.3136  0.1449
   11CHTO   O31 4497   5.718   6.055   1.708 -0.3476 -0.5115 -0.3926
   11CHTO   H68 4498   5.729   6.148   1.712 -0.2201 -0.5200 -0.5498
   11CHTO   C39 4499   5.483   6.024   1.660  0.3128  0.8318  0.0186
   11CHTO   H81 4500   5.482   5.960   1.748 -1.6471  1.7991  0.7374
   11CHTO    N7 4501   5.421   6.155   1.705 -0.4282 -0.6073  0.2524
   11CHTO   H73 4502   5.416   6.218   1.618  3.8509  0.4814  0.6977
   11CHTO   H74 4503   5.317   6.140   1.733 -1.6618  1.8969 -2.6927
   11CHTO   C40 4504   5.385   5.957   1.561  0.2746 -0.0169  0.4951
   11CHTO   H82 4505   5.362   6.017   1.473  1.7681  2.0734  1.5096
   11CHTO   O26 4506   5.433   5.827   1.525  0.0040  0.0136  0.4301
   11CHTO   C41 4507   5.564   5.835   1.453 -0.4342  0.0341  0.1933
   11CHTO   H83 4508   5.564   5.906   1.369  2.2949  0.8719  0.8737
   11CHTO   C52 4509   5.589   5.681   1.403  0.2179 -0.5604 -0.2211
   11CHTO   O35 4510   5.708   5.683   1.293 -0.9440 -0.4277 -0.3553
   11CHTO   H71 4511   5.712   5.598   1.254  1.3008 -1.0575  1.1559
   11CHTO   O28 4512   5.269   5.915   1.638 -0.4633  0.2430  0.3873
   11CHTO   C42 4513   5.135   5.911   1.589  0.3158 -0.2371 -0.2248
   11CHTO   H84 4514   5.141   5.942   1.484 -0.8870  1.4965  0.2052
   11CHTO   C44 4515   5.041   6.006   1.659  0.3357  0.6929 -0.3129
   11CHTO   H86 4516   5.063   5.998   1.765  0.1923  0.0451 -0.3268
   11CHTO   O32 4517   5.070   6.142   1.625 -0.0101 -0.3846  0.2196
   11CHTO   H69 4518   5.151   6.151   1.579 -0.5477 -0.0242 -0.6644
   11CHTO   C48 4519   4.886   5.975   1.627  0.1974  0.7401 -0.5524
   11CHTO   H90 4520   4.866   5.984   1.520 -0.3052  0.1237 -0.5111
   11CHTO    N9 4521   4.788   6.070   1.696  0.4898 -0.5273  0.3162
   11CHTO   H77 4522   4.687   6.056   1.660  0.5805  1.0723 -0.6224
   11CHTO   H78 4523   4.820   6.168   1.665  0.2962 -0.1853  1.2052
   11CHTO   C51 4524   4.862   5.825   1.665 -0.0176 -0.0706  0.5007
   11CHTO   H93 4525   4.883   5.813   1.771  1.4072  0.3214  0.2685
   11CHTO   O30 4526   4.940   5.739   1.583 -0.3628  0.5778 -0.4285
   11CHTO   C46 4527   5.094   5.765   1.592  0.3908 -0.6542  0.1424
   11CHTO   H88 4528   5.137   5.725   1.684  0.9450  1.1803  0.6938
   11CHTO   C53 4529   5.154   5.689   1.478  0.6803 -0.2653  0.3843
   11CHTO   O72 4530   5.122   5.554   1.469 -0.4170  0.3472  0.0479
   11CHTO  H199 4531   5.035   5.543   1.502 -0.7745  3.2802  0.1759
   11CHTO   O22 4532   4.730   5.778   1.642  0.0997 -0.0857  0.4722
   11CHTO   C31 4533   4.666   5.684   1.732 -0.0801  0.8061 -0.0062
   11CHTO   H59 4534   4.748   5.640   1.793  0.3642  1.1555 -0.3482
   11CHTO   C29 4535   4.565   5.738   1.830  0.8339  0.2530  0.9044
   11CHTO   H57 4536   4.478   5.775   1.773  0.9173 -0.8831  0.0285
   11CHTO   O21 4537   4.642   5.840   1.905 -0.4687  1.0752  0.1841
   11CHTO   H37 4538   4.700   5.803   1.969 -0.5773  0.6585  0.0424
   11CHTO   C27 4539   4.512   5.629   1.932  0.5105  0.3966 -0.6458
   11CHTO   H55 4540   4.592   5.603   2.004 -1.4356  2.7012  2.4593
   11CHTO    N5 4541   4.395   5.691   2.008  0.5540 -0.0574 -0.6070
   11CHTO   H43 4542   4.398   5.797   1.986  0.0866 -0.2009 -1.3568
   11CHTO   H44 4543   4.302   5.651   1.970  0.0204 -0.8472  1.4826
   11CHTO   C25 4544   4.462   5.500   1.848 -0.2139 -0.4980 -0.5929
   11CHTO   H53 4545   4.374   5.530   1.789 -1.4094 -2.8797 -0.0933
   11CHTO   O17 4546   4.566   5.460   1.753 -0.1417 -0.0701 -0.7316
   11CHTO   C32 4547   4.591   5.570   1.663  0.1743  0.3275  0.3899
   11CHTO   H60 4548   4.494   5.606   1.629 -1.1632 -2.2644  1.3673
   11CHTO   C36 4549   4.665   5.512   1.540 -0.4130 -0.9990  0.6815
   11CHTO   O25 4550   4.693   5.606   1.438 -0.1028  0.2692 -0.3087
   11CHTO   H40 4551   4.742   5.568   1.367  1.7286  0.2309  0.9488
   11CHTO   O15 4552   4.436   5.369   1.944 -0.3915 -0.2056 -0.2024
   11CHTO   C19 4553   4.407   5.230   1.908  0.5362 -0.1643 -0.1482
   11CHTO   H47 4554   4.389   5.235   1.799  0.5707 -0.2006 -0.1558
   11CHTO   C20 4555   4.524   5.124   1.933 -0.5966 -0.2342 -0.5293
   11CHTO   H48 4556   4.541   5.109   2.041  0.0173  2.0427 -0.2979
   11CHTO   O19 4557   4.648   5.178   1.879 -0.0639 -0.0918 -0.1899
   11CHTO   H35 4558   4.708   5.171   1.951 -0.3064  1.6985  0.2078
   11CHTO   C21 4559   4.481   4.982   1.869 -0.0452 -0.0277 -0.4217
   11CHTO   H49 4560   4.475   4.989   1.760 -1.3408  1.3868 -0.2734
   11CHTO    N4 4561   4.584   4.879   1.889  0.1338 -0.5753  0.6250
   11CHTO   H41 4562   4.673   4.908   1.836 -0.8476 -0.2924 -0.9147
   11CHTO   H42 4563   4.554   4.781   1.854 -0.5180  0.4978 -1.9334
   11CHTO   C22 4564   4.342   4.941   1.933  0.1673  0.1643  0.7951
   11CHTO   H50 4565   4.356   4.925   2.040 -0.5545 -1.3062  0.6718
   11CHTO   O14 4566   4.240   5.040   1.911 -0.1478 -0.3674  0.0031
   11CHTO   C23 4567   4.277   5.171   1.968  0.7121  0.0215 -0.2103
   11CHTO   H51 4568   4.289   5.152   2.076 -0.1844 -0.7948 -0.2411
   11CHTO   C34 4569   4.154   5.259   1.950 -0.8560  0.1969 -1.1122
   11CHTO   O23 4570   4.145   5.379   2.034 -0.1393 -0.5865 -0.1188
   11CHTO   H38 4571   4.067   5.426   2.014 -1.0764 -1.1925  2.0016
   11CHTO   O16 4572   4.289   4.820   1.880 -0.0595  0.7133  0.1502
   11CHTO   C24 4573   4.153   4.731   1.917  0.2667 -0.0414 -0.2013
   11CHTO   H52 4574   4.062   4.770   1.870 -1.3568 -2.3363  0.9215
   11CHTO   C26 4575   4.133   4.727   2.071  0.2656  0.7187 -0.3302
   11CHTO   H54 4576   4.227   4.694   2.120 -0.3586 -0.0935  0.3365
   11CHTO   O20 4577   4.118   4.862   2.118 -0.5911  0.5158  0.3933
   11CHTO   H36 4578   4.052   4.867   2.184  0.9998  0.5261  2.0270
   11CHTO   C30 4579   4.016   4.628   2.106  0.8107  0.0994 -0.4837
   11CHTO   H58 4580   3.919   4.668   2.072  0.7833  0.1640 -0.3257
   11CHTO    N6 4581   3.994   4.618   2.251 -0.0401 -0.3127 -0.2611
   11CHTO   H45 4582   3.915   4.546   2.263  0.1951 -0.2620  1.7020
   11CHTO   H46 4583   4.081   4.571   2.296 -0.2267  0.5988  1.0674
   11CHTO   C33 4584   4.032   4.489   2.037 -0.2249 -0.4629  0.1271
   11CHTO   H61 4585   4.116   4.432   2.079 -1.5116 -1.2660  1.6702
   11CHTO   O18 4586   4.056   4.508   1.894 -0.1352  0.0164  0.0160
   11CHTO   C28 4587   4.170   4.588   1.863 -0.1841 -0.8766  0.5144
   11CHTO   H56 4588   4.260   4.542   1.904  1.1023 -0.7130 -2.0032
   11CHTO   C35 4589   4.177   4.595   1.705  0.1301 -0.6580 -0.3061
   11CHTO   O24 4590   4.264   4.498   1.661 -0.0080  0.0261 -0.0673
   11CHTO   H39 4591   4.223   4.445   1.595 -0.7756 -0.2614  0.6317
   11CHTO    O9 4592   3.918   4.406   2.055  0.5889 -0.1814  0.0732
   11CHTO   C13 4593   3.968   4.243   2.037 -0.0127 -0.7549  0.1175
   11CHTO   H26 4594   4.062   4.233   2.095 -0.1974  1.8257  0.8885
   11CHTO   C11 4595   3.988   4.212   1.880  0.4364  0.2516  0.1261
   11CHTO   H24 4596   4.070   4.272   1.838 -1.0377  1.1109 -1.5901
   11CHTO    O8 4597   3.867   4.259   1.819  0.7063  0.4771  0.7310
   11CHTO    H3 4598   3.857   4.352   1.818  0.8745  0.4879 -0.4904
   11CHTO    C9 4599   4.035   4.062   1.861  0.4783 -0.4903 -0.2229
   11CHTO   H22 4600   4.128   4.060   1.920  0.5219 -1.0256 -0.3126
   11CHTO    N2 4601   4.067   4.034   1.718  0.0461 -0.5478 -0.2161
   11CHTO   H10 4602   4.117   3.939   1.707  0.2382 -0.3141 -1.4119
   11CHTO   H11 4603   4.129   4.115   1.683 -0.2963  0.7495  2.0464
   11CHTO    C7 4604   3.926   3.966   1.927  0.2626 -0.2345 -0.1993
   11CHTO   H20 4605   3.977   3.895   1.996 -0.4668 -2.2017 -1.6466
   11CHTO    O4 4606   3.819   4.037   1.999 -0.8492 -0.2450 -0.3325
   11CHTO   C14 4607   3.860   4.142   2.096 -0.1971  0.1428  0.5931
   11CHTO   H27 4608   3.910   4.094   2.182  3.0993  1.5093 -0.4709
   11CHTO   C18 4609   3.737   4.222   2.144 -0.0746  0.2852 -0.3227
   11CHTO   O13 4610   3.650   4.132   2.210 -0.0809  0.2759 -0.3826
   11CHTO    H7 4611   3.597   4.092   2.144 -1.5853  2.0507 -0.2902
   11CHTO    O2 4612   3.843   3.858   1.821 -0.7898 -0.3806  0.2580
   11CHTO    C1 4613   3.907   3.732   1.811  0.6537 -0.0034 -0.8762
   11CHTO   H14 4614   4.017   3.742   1.823  0.8714 -0.0831 -2.6153
   11CHTO    C2 4615   3.882   3.674   1.669  0.0638  0.2415  0.2998
   11CHTO   H15 4616   3.774   3.657   1.656 -0.1378  2.1377 -0.4783
   11CHTO    O6 4617   3.927   3.765   1.564 -0.4251 -0.2385 -0.3746
   11CHTO    H1 4618   3.857   3.786   1.506 -1.4889  0.2891  1.0655
   11CHTO    C3 4619   3.953   3.529   1.660 -0.3494  0.5159  0.5860
   11CHTO   H16 4620   4.060   3.551   1.649 -0.4785  1.9104  2.0732
   11CHTO    N1 4621   3.916   3.461   1.534 -0.1314  0.1719  0.0267
   11CHTO    H8 4622   3.891   3.358   1.556 -0.9412  0.4024  0.2281
   11CHTO    H9 4623   3.836   3.506   1.477 -0.5326 -0.8555 -0.2378
   11CHTO    C4 4624   3.942   3.434   1.788  0.0114  0.9242 -0.9338
   11CHTO   H17 4625   3.845   3.383   1.787  0.1434  0.6228  0.3240
   11CHTO    O1 4626   3.949   3.509   1.909  0.1396 -0.0485 -0.1766
   11CHTO    C5 4627   3.860   3.625   1.914 -0.4704 -0.0034  0.0040
   11CHTO   H18 4628   3.759   3.588   1.893 -0.7824  1.7434 -1.6668
   11CHTO   C16 4629   3.858   3.678   2.058 -0.5028 -0.3329  0.0381
   11CHTO   O11 4630   3.808   3.582   2.146  0.1749 -0.2761  0.1153
   11CHTO    H5 4631   3.780   3.627   2.224  1.0137  1.4006 -0.5303
   11CHTO    O3 4632   4.049   3.341   1.797  0.1483 -0.0184  0.4528
   11CHTO    C6 4633   4.016   3.210   1.849  0.2716 -0.6582  0.4615
   11CHTO   H19 4634   3.915   3.207   1.889 -0.9840 -1.6710 -2.5802
   11CHTO    C8 4635   4.028   3.106   1.738 -0.1696  0.2381 -0.1497
   11CHTO   H21 4636   4.127   3.118   1.694  0.0347  0.4858  0.3777
   11CHTO    O7 4637   3.937   3.136   1.636  0.0552 -0.0706  0.7388
   11CHTO    H2 4638   3.935   3.070   1.570 -1.2306  0.3564  0.3512
   11CHTO   C12 4639   4.005   2.962   1.799 -0.6143  0.0670 -0.3532
   11CHTO   H25 4640   3.902   2.951   1.837 -1.9952  1.4023 -3.5211
   11CHTO    N3 4641   4.029   2.849   1.710 -0.4104 -0.7576 -0.2741
   11CHTO   H12 4642   4.129   2.867   1.675 -0.9731  1.0673 -0.9965
   11CHTO   H13 4643   3.954   2.863   1.633 -0.3372  0.0346 -0.2090
   11CHTO   C15 4644   4.103   2.943   1.926 -0.0049  0.2825 -0.1946
   11CHTO   H28 4645   4.209   2.940   1.898  0.1100  0.7581  0.1870
   11CHTO   O10 4646   4.079   2.823   2.016 -0.2243 -0.0973 -0.0424
   11CHTO    H4 4647   4.087   2.748   1.960  2.0193  0.6026 -0.7325
   11CHTO    O5 4648   4.083   3.047   2.016 -0.4156  0.1854  0.4982
   11CHTO   C10 4649   4.113   3.178   1.963 -0.3295  0.0727 -0.5352
   11CHTO   H23 4650   4.213   3.173   1.920  0.7018  0.8421  1.6469
   11CHTO   C17 4651   4.113   3.274   2.086 -0.3904 -0.3270 -0.1248
   11CHTO   O12 4652   3.990   3.280   2.158  0.4764 -0.0002  0.6805
   11CHTO    H6 4653   3.988   3.209   2.219 -1.5701 -1.8449 -1.4595
   12CHTO  H203 4654   5.284   1.041   2.511  1.1522 -1.7011 -0.0438
   12CHTO   O82 4655   5.235   1.063   2.588  0.4249  0.3825 -1.0652
   12CHTO  C123 4656   5.183   0.941   2.645 -0.1665  0.1339  0.1884
   12CHTO  H227 4657   5.256   0.907   2.719 -0.8364 -1.4089  0.1603
   12CHTO   O77 4658   5.067   0.982   2.717  0.0965  0.5521  0.0553
   12CHTO  C118 4659   5.005   0.875   2.791 -1.1116  0.4845  0.2634
   12CHTO  H222 4660   5.078   0.821   2.853  0.9767  2.2613 -0.6074
   12CHTO  C125 4661   4.897   0.937   2.892 -0.1402  0.3756 -0.2388
   12CHTO   O84 4662   4.799   1.007   2.820  0.3747  1.2011 -0.2894
   12CHTO  H205 4663   4.809   1.100   2.828 -1.7787  1.2738  2.2934
   12CHTO  C114 4664   4.952   0.776   2.689 -0.6724  0.2268 -0.2123
   12CHTO  H218 4665   4.900   0.828   2.609 -0.9124 -0.6512 -0.6360
   12CHTO  C116 4666   5.078   0.718   2.611 -0.3551  0.0397 -0.1929
   12CHTO  H220 4667   5.140   0.665   2.686 -2.4567 -1.3999  0.5756
   12CHTO   O79 4668   5.042   0.617   2.522 -0.3674 -0.5088 -0.7132
   12CHTO  H201 4669   4.996   0.544   2.559  1.1436 -1.5620 -0.8358
   12CHTO  C120 4670   5.160   0.832   2.543  0.1739  0.0869 -0.3685
   12CHTO  H224 4671   5.095   0.868   2.461 -2.7228 -1.4479  1.1854
   12CHTO   N21 4672   5.286   0.791   2.472 -0.2911 -0.0948 -0.1933
   12CHTO  H211 4673   5.371   0.855   2.485 -0.2705 -0.4568  1.6009
   12CHTO  H212 4674   5.273   0.769   2.367  1.0982  1.7488 -0.7567
   12CHTO   O75 4675   4.869   0.690   2.764  0.1264  0.1397 -0.8831
   12CHTO  C112 4676   4.877   0.533   2.748  0.8536  0.1000 -0.2986
   12CHTO  H216 4677   4.984   0.511   2.733  0.8181 -0.1303 -0.2040
   12CHTO   O73 4678   4.803   0.502   2.627  0.0349  0.0522 -0.1600
   12CHTO  C113 4679   4.823   0.364   2.602 -0.6489 -0.4309  0.5327
   12CHTO  H217 4680   4.931   0.340   2.592 -0.6541  0.7031 -2.5520
   12CHTO  C124 4681   4.765   0.345   2.460 -0.4583  0.1328 -0.0191
   12CHTO   O83 4682   4.830   0.239   2.394 -0.7879  0.4073  0.2509
   12CHTO  H204 4683   4.838   0.163   2.449  0.5590  0.0947 -0.3485
   12CHTO  C109 4684   4.742   0.287   2.712  0.1482  0.0645  0.6380
   12CHTO  H213 4685   4.640   0.328   2.709 -0.0717 -0.5443 -1.1844
   12CHTO  C110 4686   4.818   0.304   2.843 -0.3502  0.4481 -0.2371
   12CHTO  H214 4687   4.919   0.269   2.823 -0.7717 -0.3889 -0.9286
   12CHTO   O78 4688   4.749   0.225   2.939  0.0900 -0.3544  0.2836
   12CHTO  H200 4689   4.658   0.228   2.918  0.8357 -1.4138 -3.4195
   12CHTO  C111 4690   4.820   0.459   2.869 -0.2951  0.0804 -0.6254
   12CHTO  H215 4691   4.717   0.494   2.884  0.0698  1.0069 -0.2436
   12CHTO   N19 4692   4.896   0.489   2.991  0.3581  0.8016  0.1587
   12CHTO  H207 4693   4.919   0.593   3.008  0.9935  0.5501  0.8471
   12CHTO  H208 4694   4.981   0.423   2.999 -0.9075 -1.3668 -3.0560
   12CHTO   O74 4695   4.738   0.144   2.672  0.2733  0.0673 -0.1889
   12CHTO  C115 4696   4.607   0.077   2.671 -1.1805 -0.0458 -0.1270
   12CHTO  H219 4697   4.523   0.138   2.706 -0.9076  0.7269 -0.8111
   12CHTO   O76 4698   4.560   0.030   2.512 -0.0769  0.3949  0.5303
   12CHTO  C122 4699   4.659  -0.057   2.455 -1.1341  0.0085 -0.3316
   12CHTO  H226 4700   4.750   0.001   2.439 -0.1195 -1.0449  1.5886
   12CHTO  C126 4701   4.617  -0.100   2.309  0.0390 -0.2387  0.4583
   12CHTO   O85 4702   4.544  -0.222   2.313 -0.0429  0.1916 -0.3465
   12CHTO  H206 4703   4.581  -0.298   2.272  0.5728  0.7317 -0.7984
   12CHTO  C121 4704   4.699  -0.178   2.550  0.0081 -0.1942  0.0328
   12CHTO  H225 4705   4.678  -0.269   2.490  0.2493 -1.8123  2.3415
   12CHTO   O81 4706   4.844  -0.171   2.570 -0.2113  0.5166  0.4161
   12CHTO  H202 4707   4.889  -0.160   2.488  0.5176  0.4778  0.8021
   12CHTO  C119 4708   4.617  -0.193   2.682 -0.0804  0.1362  0.3508
   12CHTO  H223 4709   4.516  -0.212   2.647 -0.4076 -2.1270  2.3679
   12CHTO  C117 4710   4.630  -0.052   2.767  0.5814 -0.3204  0.9293
   12CHTO  H221 4711   4.730  -0.029   2.806  1.7474 -1.5467 -1.2257
   12CHTO   N20 4712   4.537  -0.050   2.880 -0.5397 -0.0905 -0.5427
   12CHTO  H209 4713   4.520  -0.137   2.941  2.2117 -0.6889 -0.5818
   12CHTO  H210 4714   4.441  -0.006   2.859 -1.1648 -2.1371 -2.1662
   12CHTO   O80 4715   4.654  -0.312   2.770  0.4235  0.1329 -0.1150
   12CHTO  C103 4716   4.544  -0.412   2.814  0.2678 -0.4562  0.2417
   12CHTO  H190 4717   4.450  -0.363   2.840  2.1776  2.5870  1.7158
   12CHTO  C101 4718   4.506  -0.529   2.720 -0.2657 -0.4011  0.5671
   12CHTO  H188 4719   4.607  -0.557   2.691 -0.3326 -0.5984  0.5256
   12CHTO   O68 4720   4.430  -0.466   2.605 -0.3951  0.3490  0.0089
   12CHTO  H168 4721   4.485  -0.396   2.577 -1.2748  0.7673 -0.6927
   12CHTO   C99 4722   4.422  -0.647   2.783  0.3160 -0.3735  0.2500
   12CHTO  H186 4723   4.318  -0.612   2.802  0.2586 -0.1729 -0.4472
   12CHTO   N17 4724   4.406  -0.770   2.699 -0.2713 -1.0172  0.1113
   12CHTO  H174 4725   4.301  -0.795   2.700 -0.6046  0.3126 -1.3378
   12CHTO  H175 4726   4.452  -0.768   2.601 -1.6859  0.4408 -0.5374
   12CHTO   C97 4727   4.481  -0.681   2.923  0.1295 -0.0649  1.2899
   12CHTO  H184 4728   4.575  -0.732   2.896 -0.1813 -0.8250  1.6281
   12CHTO   O64 4729   4.502  -0.563   3.002 -0.4889 -0.1491 -0.1061
   12CHTO  C104 4730   4.598  -0.476   2.946 -0.1614 -0.4789 -0.4121
   12CHTO  H191 4731   4.689  -0.533   2.930 -0.3681 -0.5116 -1.4865
   12CHTO  C108 4732   4.622  -0.378   3.061 -0.1983  0.1549 -0.0170
   12CHTO   O71 4733   4.681  -0.445   3.174 -0.0510  0.3540 -0.2251
   12CHTO  H171 4734   4.646  -0.522   3.214 -0.6478 -0.4247 -2.1758
   12CHTO   O62 4735   4.393  -0.759   3.001 -0.2489 -0.0423 -0.0372
   12CHTO   C91 4736   4.458  -0.874   3.067 -0.5834 -1.0209 -0.4840
   12CHTO  H178 4737   4.498  -0.944   2.995  1.2456 -3.3104  2.6306
   12CHTO   C92 4738   4.346  -0.940   3.156  0.1690 -0.0348  0.4311
   12CHTO  H179 4739   4.266  -0.985   3.095  1.1811 -0.2865 -0.7388
   12CHTO   O66 4740   4.408  -1.065   3.199 -0.0069  0.0049 -0.2258
   12CHTO  H166 4741   4.497  -1.057   3.226 -0.1614  1.0962 -0.0111
   12CHTO   C93 4742   4.305  -0.859   3.289 -0.1253 -0.2790  0.1529
   12CHTO  H180 4743   4.277  -0.936   3.363 -3.5709  0.0127 -0.7750
   12CHTO   N16 4744   4.192  -0.773   3.259  0.5319 -0.0839 -0.1244
   12CHTO  H172 4745   4.110  -0.836   3.228  0.6731 -0.4374  0.2147
   12CHTO  H173 4746   4.157  -0.717   3.344  1.2663 -0.1396  0.2228
   12CHTO   C94 4747   4.420  -0.774   3.346 -0.2557 -0.5556  0.1089
   12CHTO  H181 4748   4.423  -0.671   3.309  3.3899 -0.4676  0.4543
   12CHTO   O61 4749   4.544  -0.832   3.313 -0.0698 -0.3174 -0.1766
   12CHTO   C95 4750   4.584  -0.836   3.174 -0.5307  0.5483  0.6219
   12CHTO  H182 4751   4.614  -0.737   3.141  1.0051 -0.8377 -2.2333
   12CHTO  C106 4752   4.705  -0.923   3.144  0.0839  0.5136 -0.1376
   12CHTO   O69 4753   4.690  -1.063   3.168  0.4216 -0.1812  0.1566
   12CHTO  H169 4754   4.761  -1.104   3.123  1.0459  1.3364 -0.2720
   12CHTO   O63 4755   4.416  -0.769   3.514  0.4070  0.3731 -0.0430
   12CHTO   C96 4756   4.441  -0.916   3.581  0.6624 -0.1478  0.2555
   12CHTO  H183 4757   4.493  -0.974   3.505  0.0529 -0.3678  0.0020
   12CHTO   C98 4758   4.315  -0.992   3.626  0.1049  0.4894  0.5388
   12CHTO  H185 4759   4.236  -0.978   3.551 -1.1196  0.6332  1.8271
   12CHTO   O67 4760   4.340  -1.139   3.626  0.1920 -0.2506  0.6742
   12CHTO  H167 4761   4.265  -1.195   3.619  0.2104 -0.1694 -0.3577
   12CHTO  C102 4762   4.277  -0.946   3.778  0.4146 -0.1580  0.4066
   12CHTO  H189 4763   4.196  -1.013   3.813  1.1652 -0.5263  1.4438
   12CHTO   N18 4764   4.214  -0.812   3.784  0.3850  0.1411 -0.2622
   12CHTO  H176 4765   4.108  -0.831   3.772  0.1842  1.4385 -0.6691
   12CHTO  H177 4766   4.235  -0.773   3.883  2.2749 -1.2269 -0.0932
   12CHTO  C105 4767   4.398  -0.971   3.872 -0.0069 -0.3107  0.7029
   12CHTO  H192 4768   4.411  -0.877   3.926  1.2154 -0.6815  1.0684
   12CHTO   O65 4769   4.521  -0.989   3.805 -0.0021  0.3521  0.0481
   12CHTO  C100 4770   4.549  -0.902   3.696  0.3089 -0.3946  0.0103
   12CHTO  H187 4771   4.534  -0.799   3.734 -1.6317 -0.4689 -0.4880
   12CHTO  C107 4772   4.694  -0.921   3.651  0.3285 -0.1400 -0.3824
   12CHTO   O70 4773   4.734  -0.821   3.562 -0.2487  0.3508  0.2898
   12CHTO  H170 4774   4.771  -0.747   3.606 -0.5547 -0.4514  1.9209
   12CHTO   O57 4775   4.362  -1.082   3.972  0.2314 -0.5965 -0.6395
   12CHTO   C85 4776   4.456  -1.166   4.039  0.2551 -0.0452 -0.2645
   12CHTO  H157 4777   4.552  -1.158   3.985 -0.2395 -1.7982 -1.4382
   12CHTO   C83 4778   4.412  -1.313   4.015  0.0672 -0.6382  0.1237
   12CHTO  H155 4779   4.419  -1.319   3.906  0.7010  1.4106  0.0297
   12CHTO   O56 4780   4.272  -1.333   4.058  0.2418  0.2316 -0.0357
   12CHTO  H135 4781   4.279  -1.373   4.143 -1.3800 -0.0892 -0.0447
   12CHTO   C81 4782   4.517  -1.410   4.077 -0.5703 -0.6806  0.4844
   12CHTO  H153 4783   4.613  -1.392   4.027 -1.0863  1.7064  0.3139
   12CHTO   N14 4784   4.486  -1.549   4.057  0.1569 -0.3613 -0.2101
   12CHTO  H141 4785   4.443  -1.562   3.960  2.0846 -0.7734 -1.0228
   12CHTO  H142 4786   4.566  -1.619   4.065 -0.3082 -0.9197 -0.3868
   12CHTO   C79 4787   4.538  -1.380   4.229  0.0644  0.0778 -0.8997
   12CHTO  H151 4788   4.625  -1.437   4.263 -0.3887  1.0771  2.1583
   12CHTO   O52 4789   4.571  -1.242   4.252  0.1799 -0.3847  0.2613
   12CHTO   C86 4790   4.469  -1.148   4.194 -0.0130  0.0181 -0.6958
   12CHTO  H158 4791   4.375  -1.173   4.248  1.2605 -0.0458  1.5435
   12CHTO   C90 4792   4.503  -1.011   4.237  0.0103 -0.2210 -0.1214
   12CHTO   O60 4793   4.636  -0.980   4.263  0.2196 -0.0198  0.4719
   12CHTO  H138 4794   4.678  -1.015   4.339 -1.2142 -0.2969  1.1570
   12CHTO   O50 4795   4.436  -1.419   4.325  0.3459 -0.3393 -0.0600
   12CHTO   C73 4796   4.416  -1.428   4.467 -0.2467 -0.0265  0.0641
   12CHTO  H145 4797   4.310  -1.444   4.490 -0.0701  0.3106  1.1416
   12CHTO   C74 4798   4.455  -1.293   4.547 -0.0667  0.4358  0.3152
   12CHTO  H146 4799   4.404  -1.210   4.497  0.4103  0.7840  0.3969
   12CHTO   O54 4800   4.400  -1.319   4.679 -0.5710 -0.4174 -0.1109
   12CHTO  H133 4801   4.448  -1.385   4.725 -0.5522  0.4960  1.1893
   12CHTO   C75 4802   4.612  -1.268   4.558  0.3001 -0.1421  0.4494
   12CHTO  H147 4803   4.645  -1.215   4.468  2.8597  0.6556  1.8070
   12CHTO   N13 4804   4.659  -1.165   4.654 -0.0919 -0.2959  0.0107
   12CHTO  H139 4805   4.766  -1.164   4.639 -0.4262 -0.9176 -2.5531
   12CHTO  H140 4806   4.638  -1.069   4.608 -3.0425 -1.2723 -0.7858
   12CHTO   C76 4807   4.703  -1.413   4.551  0.1147 -0.5679  0.0711
   12CHTO  H148 4808   4.749  -1.429   4.649  0.5823 -0.1453 -0.0770
   12CHTO   O49 4809   4.641  -1.539   4.492  0.2136 -0.4124 -0.7558
   12CHTO   C77 4810   4.499  -1.547   4.524  0.4975 -0.3326 -0.9451
   12CHTO  H149 4811   4.494  -1.539   4.633  0.8715  1.8098 -1.0646
   12CHTO   C88 4812   4.453  -1.685   4.483 -0.2561 -0.6742  0.2433
   12CHTO   O58 4813   4.509  -1.780   4.569 -0.6297  0.5048 -0.2158
   12CHTO  H136 4814   4.521  -1.863   4.527  0.8514  0.8974 -0.6087
   12CHTO   O51 4815   4.824  -1.396   4.429 -0.6819  0.5619 -0.1001
   12CHTO   C78 4816   4.947  -1.340   4.479  0.0874 -0.2673 -0.0204
   12CHTO  H150 4817   4.932  -1.306   4.584 -2.3946  0.1634 -0.4860
   12CHTO   C80 4818   4.981  -1.219   4.386  0.0012  1.1187  0.0280
   12CHTO  H152 4819   4.980  -1.257   4.282 -1.7819  0.6322  0.1984
   12CHTO   O55 4820   4.873  -1.121   4.393 -0.1306 -0.0277  0.2720
   12CHTO  H134 4821   4.859  -1.097   4.482 -0.5159  1.2677 -0.1200
   12CHTO   C84 4822   5.124  -1.162   4.425  0.6520  0.2067 -0.1574
   12CHTO  H156 4823   5.110  -1.118   4.524 -4.5628 -0.4946 -0.3959
   12CHTO   N15 4824   5.169  -1.048   4.335  0.1100 -0.1202  0.4531
   12CHTO  H143 4825   5.237  -0.981   4.383 -0.1618  0.1662  0.4328
   12CHTO  H144 4826   5.086  -0.992   4.297 -1.0751 -2.4900 -0.6155
   12CHTO   C87 4827   5.229  -1.276   4.416  0.3255 -0.1722 -0.4863
   12CHTO  H159 4828   5.231  -1.314   4.314  0.4286  1.0340 -0.9470
   12CHTO   O53 4829   5.188  -1.378   4.528 -0.5728 -0.2795 -0.2436
   12CHTO   C82 4830   5.062  -1.438   4.490 -0.4859  0.0911 -0.2807
   12CHTO  H154 4831   5.071  -1.486   4.392  1.3660  0.7787 -0.4630
   12CHTO   C89 4832   5.041  -1.551   4.597  0.4669 -0.4947  0.0834
   12CHTO   O59 4833   4.927  -1.628   4.604 -0.0233  0.3038 -0.3171
   12CHTO  H137 4834   4.913  -1.681   4.528  0.6027  0.8201 -0.8048
   12CHTO   O45 4835   5.384  -1.232   4.452  0.0320 -0.1983  0.0340
   12CHTO   C67 4836   5.485  -1.337   4.456  0.1306 -0.8045 -0.2820
   12CHTO  H124 4837   5.489  -1.390   4.551 -1.4706  1.5469  1.1397
   12CHTO   C65 4838   5.463  -1.436   4.342 -0.5582 -0.3734  0.3095
   12CHTO  H122 4839   5.364  -1.481   4.343 -1.1278  0.7393 -2.1346
   12CHTO   O44 4840   5.552  -1.544   4.354  0.3667  0.6098 -0.0313
   12CHTO  H102 4841   5.512  -1.611   4.406  1.6781 -0.5773 -0.5170
   12CHTO   C63 4842   5.477  -1.354   4.206 -0.9855 -0.1222 -0.2569
   12CHTO  H120 4843   5.424  -1.261   4.225 -2.6051 -1.3766  1.6812
   12CHTO   N11 4844   5.420  -1.397   4.072 -0.2823  0.2347 -0.4663
   12CHTO  H108 4845   5.486  -1.370   3.991  3.1442 -3.2798  0.9762
   12CHTO  H109 4846   5.328  -1.346   4.057  0.3434  0.8459 -2.4173
   12CHTO   C61 4847   5.627  -1.324   4.186 -0.3487  0.0734 -0.1335
   12CHTO  H118 4848   5.631  -1.249   4.106  1.3130 -1.2607 -1.3297
   12CHTO   O40 4849   5.691  -1.262   4.303 -0.2751  0.3013  0.4623
   12CHTO   C68 4850   5.630  -1.270   4.435 -0.0465  0.0771  0.2319
   12CHTO  H125 4851   5.616  -1.164   4.465 -1.3845  0.3822 -1.3956
   12CHTO   C72 4852   5.731  -1.333   4.529 -0.3194 -0.3945  0.1343
   12CHTO   O48 4853   5.835  -1.250   4.581  0.2227 -0.6823 -0.0874
   12CHTO  H105 4854   5.912  -1.303   4.591  1.5805  0.9997 -1.3927
   12CHTO   O38 4855   5.702  -1.436   4.149 -0.5482 -0.5002 -0.4257
   12CHTO   C55 4856   5.821  -1.424   4.065  0.2713  0.1057  0.4075
   12CHTO  H112 4857   5.871  -1.326   4.075 -0.5189  0.6650 -0.9892
   12CHTO   C56 4858   5.771  -1.448   3.908  0.0173 -0.4138 -0.2268
   12CHTO  H113 4859   5.719  -1.544   3.909 -0.9955  0.0662 -3.3763
   12CHTO   O42 4860   5.684  -1.338   3.869  0.4271 -0.1467 -0.1229
   12CHTO  H100 4861   5.686  -1.330   3.775 -0.4923 -1.3549 -0.2599
   12CHTO   C57 4862   5.894  -1.474   3.813 -0.4499 -0.1052  0.6673
   12CHTO  H114 4863   5.944  -1.383   3.782  0.7117  0.2405  3.3956
   12CHTO   N10 4864   5.847  -1.522   3.681  0.2571 -0.3022  0.5401
   12CHTO  H106 4865   5.766  -1.593   3.669 -1.0577  1.6421 -2.7458
   12CHTO  H107 4866   5.816  -1.426   3.642  2.5996 -0.6540 -2.4006
   12CHTO   C58 4867   5.998  -1.573   3.876  0.7188 -0.3058  0.5280
   12CHTO  H115 4868   5.962  -1.678   3.871 -1.5071  0.3991  1.1250
   12CHTO   O37 4869   6.039  -1.535   4.007  0.4437 -0.1699 -0.0105
   12CHTO   C59 4870   5.928  -1.530   4.102 -0.4135  0.3500 -0.3191
   12CHTO  H116 4871   5.883  -1.629   4.115  2.3048 -0.7833  0.8094
   12CHTO   C70 4872   5.993  -1.499   4.233  0.1676 -0.2600 -0.8021
   12CHTO   O46 4873   6.086  -1.599   4.271 -0.1406  0.4491  0.0958
   12CHTO  H103 4874   6.137  -1.629   4.199 -0.4786  0.0077  0.0403
   12CHTO   O39 4875   6.139  -1.547   3.797  0.4316  0.6009  0.5422
   12CHTO   C60 4876   6.228  -1.658   3.794 -0.2932  1.0071  0.3045
   12CHTO  H117 4877   6.178  -1.723   3.866 -0.7203  0.3678 -0.5633
   12CHTO   C62 4878   6.228  -1.733   3.659 -0.5006  0.0430  0.1122
   12CHTO  H119 4879   6.122  -1.750   3.631 -0.7495  0.4559  0.7792
   12CHTO   O43 4880   6.288  -1.651   3.557  0.3077  0.1415 -0.0905
   12CHTO  H101 4881   6.375  -1.624   3.577 -0.3646  2.5341 -0.2444
   12CHTO   C66 4882   6.295  -1.874   3.687  0.0927 -0.1713  0.3120
   12CHTO  H123 4883   6.259  -1.912   3.783 -0.1741 -0.2449  0.1817
   12CHTO   N12 4884   6.261  -1.979   3.588  0.0396 -0.1230 -1.2600
   12CHTO  H110 4885   6.193  -1.947   3.510 -0.9364  0.8369 -0.0214
   12CHTO  H111 4886   6.216  -2.060   3.643 -0.8533 -0.4237 -2.4061
   12CHTO   C69 4887   6.442  -1.854   3.705 -0.2845  0.6502  0.6864
   12CHTO  H126 4888   6.485  -1.801   3.618  1.0029  0.6674  1.3213
   12CHTO   O41 4889   6.461  -1.764   3.826 -0.1334  0.4254  0.9953
   12CHTO   C64 4890   6.367  -1.631   3.858 -0.3980  0.0830  0.5863
   12CHTO  H121 4891   6.400  -1.545   3.794 -2.3767 -0.3836 -1.1058
   12CHTO   C71 4892   6.362  -1.599   4.010  0.0708 -0.2364  0.0116
   12CHTO   O47 4893   6.341  -1.466   4.040  0.0738 -0.5199  0.2812
   12CHTO  H104 4894   6.303  -1.464   4.126 -1.4000 -0.9348 -0.3374
   12CHTO   O34 4895   6.516  -2.000   3.720 -0.3221  0.2917  0.0779
   12CHTO   C49 4896   6.662  -2.050   3.735 -0.4530  0.2223 -0.6828
   12CHTO   H91 4897   6.718  -1.964   3.697 -0.4934  0.8895  0.7123
   12CHTO   C47 4898   6.691  -2.176   3.651 -0.8071 -0.7002  0.6188
   12CHTO   H89 4899   6.793  -2.215   3.673 -0.3137 -1.2045 -2.2955
   12CHTO   O33 4900   6.674  -2.160   3.511  0.4394 -0.1559  0.1585
   12CHTO   H70 4901   6.588  -2.150   3.475  0.8997  2.4921 -0.3264
   12CHTO   C45 4902   6.575  -2.285   3.699 -0.5945  0.6906  0.1515
   12CHTO   H87 4903   6.480  -2.265   3.648 -1.1449  1.1864  1.3630
   12CHTO    N8 4904   6.639  -2.418   3.660  0.8341 -0.6944  0.1391
   12CHTO   H75 4905   6.687  -2.475   3.738  0.6634 -1.1941 -0.1198
   12CHTO   H76 4906   6.557  -2.473   3.615  0.1109  1.3887 -1.1360
   12CHTO   C43 4907   6.534  -2.270   3.860 -0.2936 -0.2646 -0.3146
   12CHTO   H85 4908   6.449  -2.201   3.853  0.0761  0.0821 -1.4675
   12CHTO   O29 4909   6.642  -2.214   3.932 -0.5024  0.2108  0.0424
   12CHTO   C50 4910   6.684  -2.080   3.891  0.2425 -0.5857 -0.4790
   12CHTO   H92 4911   6.634  -2.001   3.948 -0.7966 -2.7917  1.7667
   12CHTO   C54 4912   6.837  -2.058   3.925  0.4381 -0.7766 -0.3301
   12CHTO   O36 4913   6.915  -2.177   3.887 -0.4485 -0.7484  0.4412
   12CHTO   H72 4914   6.859  -2.252   3.885 -2.1655  0.5371  0.0866
   12CHTO   O27 4915   6.478  -2.392   3.905  0.2204  0.8369 -0.9076
   12CHTO   C37 4916   6.363  -2.406   3.987  0.6289  0.4034  0.0694
   12CHTO   H79 4917   6.345  -2.513   4.005 -1.3322  0.0869 -3.3620
   12CHTO   C38 4918   6.383  -2.354   4.129 -0.5531  0.5158 -0.4552
   12CHTO   H80 4919   6.432  -2.256   4.129 -2.4267  1.4697  0.6596
   12CHTO   O31 4920   6.475  -2.448   4.190 -0.7256 -0.4663 -0.6527
   12CHTO   H68 4921   6.561  -2.445   4.153  1.1862  0.8008  3.5611
   12CHTO   C39 4922   6.248  -2.343   4.225 -0.3934  0.0874  0.1683
   12CHTO   H81 4923   6.219  -2.444   4.254  1.4847 -0.1071  1.4886
   12CHTO    N7 4924   6.275  -2.270   4.350  0.4303 -0.0282 -0.1248
   12CHTO   H73 4925   6.270  -2.330   4.440  0.6438  0.8548  0.4781
   12CHTO   H74 4926   6.378  -2.238   4.350  0.4332 -0.0131  0.8424
   12CHTO   C40 4927   6.142  -2.268   4.137  0.2758 -0.5947 -0.0613
   12CHTO   H82 4928   6.180  -2.167   4.119  0.5769 -0.7587 -0.3421
   12CHTO   O26 4929   6.122  -2.338   4.015  0.5794  0.4105 -0.4144
   12CHTO   C41 4930   6.232  -2.339   3.925 -0.5724 -0.3009 -0.5992
   12CHTO   H83 4931   6.257  -2.235   3.901  2.2309 -0.8349 -0.2017
   12CHTO   C52 4932   6.196  -2.430   3.793  0.0976 -0.0172 -0.4351
   12CHTO   O35 4933   6.143  -2.362   3.699  0.0047  0.6127  0.0406
   12CHTO   H71 4934   6.064  -2.326   3.737 -1.0324  0.8659 -2.2843
   12CHTO   O28 4935   6.009  -2.268   4.206  0.4552 -0.2864  0.5377
   12CHTO   C42 4936   5.916  -2.156   4.178  0.2589  0.3647  0.0448
   12CHTO   H84 4937   5.950  -2.120   4.081  1.7864 -0.4826  0.2541
   12CHTO   C44 4938   5.924  -2.036   4.277 -0.2391 -0.0079 -0.3237
   12CHTO   H86 4939   5.890  -2.070   4.374  0.4491  2.3116  0.7698
   12CHTO   O32 4940   6.061  -1.990   4.271 -0.4476  0.1790 -0.3355
   12CHTO   H69 4941   6.134  -2.043   4.245 -0.6217 -0.4162  0.3816
   12CHTO   C48 4942   5.830  -1.914   4.226  0.4406  0.0401 -0.2045
   12CHTO   H90 4943   5.876  -1.870   4.137  1.0119 -2.4542 -1.1847
   12CHTO    N9 4944   5.820  -1.798   4.326  0.2102 -0.0835  0.3407
   12CHTO   H77 4945   5.769  -1.815   4.420  0.9112 -0.1931  0.7051
   12CHTO   H78 4946   5.828  -1.698   4.287  1.8152 -0.6587 -0.8358
   12CHTO   C51 4947   5.689  -1.971   4.184  0.7046 -0.0540  0.3144
   12CHTO   H93 4948   5.621  -1.978   4.269  0.0188 -0.7127 -0.2844
   12CHTO   O30 4949   5.692  -2.094   4.108  0.1381 -0.6894 -0.2860
   12CHTO   C46 4950   5.770  -2.209   4.158 -0.2864  0.2956  0.4023
   12CHTO   H88 4951   5.717  -2.246   4.245 -0.3119 -1.9778 -0.5334
   12CHTO   C53 4952   5.754  -2.321   4.049 -0.1016  0.5303  0.0356
   12CHTO   O72 4953   5.780  -2.273   3.918  0.0147  0.3123  0.3377
   12CHTO  H199 4954   5.698  -2.274   3.872  1.0169 -0.8010 -1.5089
   12CHTO   O22 4955   5.636  -1.876   4.093  0.2737  0.1137  0.1253
   12CHTO   C31 4956   5.495  -1.881   4.049  0.3902  0.6470  0.4538
   12CHTO   H59 4957   5.462  -1.987   4.042 -1.6796  1.2353  1.0609
   12CHTO   C29 4958   5.400  -1.799   4.143  0.0278  0.7299 -0.2327
   12CHTO   H57 4959   5.452  -1.703   4.156  2.0024 -0.5995  2.0329
   12CHTO   O21 4960   5.389  -1.869   4.269  0.2993  0.3452 -0.0185
   12CHTO   H37 4961   5.475  -1.887   4.302  0.6979  0.5264 -0.9518
   12CHTO   C27 4962   5.254  -1.772   4.083  0.0910 -0.6690  0.3592
   12CHTO   H55 4963   5.205  -1.868   4.064  0.3943 -1.0626  1.4791
   12CHTO    N5 4964   5.169  -1.683   4.166  0.6349 -0.0321 -0.1278
   12CHTO   H43 4965   5.073  -1.660   4.121  0.2825  0.4920  0.8713
   12CHTO   H44 4966   5.218  -1.587   4.171  1.7877 -0.6287  0.0412
   12CHTO   C25 4967   5.272  -1.726   3.935 -0.3185  0.1373  0.6264
   12CHTO   H53 4968   5.331  -1.633   3.927 -0.3135  0.3164  2.5477
   12CHTO   O17 4969   5.350  -1.824   3.860 -0.1497 -0.0098 -0.8647
   12CHTO   C32 4970   5.487  -1.831   3.900  0.2490 -0.3370 -0.0688
   12CHTO   H60 4971   5.529  -1.730   3.902  0.2200 -0.3382  1.7731
   12CHTO   C36 4972   5.571  -1.916   3.817  0.3610 -0.9096  0.7176
   12CHTO   O25 4973   5.580  -1.866   3.684 -0.2978 -0.4004 -0.6178
   12CHTO   H40 4974   5.535  -1.925   3.626 -0.8558  0.6169 -1.2280
   12CHTO   O15 4975   5.139  -1.705   3.851  0.0756  0.7791  0.3179
   12CHTO   C19 4976   5.109  -1.595   3.754 -1.0213  0.1307  0.3793
   12CHTO   H47 4977   5.192  -1.524   3.768 -0.8660 -0.1698  0.9926
   12CHTO   C20 4978   5.115  -1.646   3.602  0.5075  0.9849 -0.2885
   12CHTO   H48 4979   5.038  -1.721   3.582  1.3766 -0.6147  2.1938
   12CHTO   O19 4980   5.244  -1.707   3.578 -0.2198 -0.3065 -0.1656
   12CHTO   H35 4981   5.302  -1.634   3.591 -0.2585 -0.0764 -1.2602
   12CHTO   C21 4982   5.074  -1.524   3.502  0.3557 -0.0883  0.6734
   12CHTO   H49 4983   5.156  -1.452   3.502  0.3081  0.0064 -1.4582
   12CHTO    N4 4984   5.066  -1.573   3.365 -0.3293  0.1513  0.2895
   12CHTO   H41 4985   4.970  -1.554   3.320  0.2371  0.1155 -0.9628
   12CHTO   H42 4986   5.087  -1.677   3.349 -1.2801 -0.3702  2.3171
   12CHTO   C22 4987   4.941  -1.469   3.561  0.7131  0.1702  1.6135
   12CHTO   H50 4988   4.875  -1.555   3.573  1.0458 -0.1621  1.1034
   12CHTO   O14 4989   4.973  -1.412   3.688 -0.2548 -0.3508 -0.8877
   12CHTO   C23 4990   4.983  -1.524   3.788  1.0419  0.2362 -0.1991
   12CHTO   H51 4991   4.895  -1.589   3.781  3.0913 -2.7336  0.6952
   12CHTO   C34 4992   5.002  -1.449   3.923 -0.5558 -0.3415 -0.3455
   12CHTO   O23 4993   4.898  -1.357   3.951  0.2495  0.1788  0.0933
   12CHTO   H38 4994   4.900  -1.281   3.897  0.6536 -1.0905 -1.7644
   12CHTO   O16 4995   4.879  -1.361   3.491  0.1089 -0.0074 -0.0582
   12CHTO   C24 4996   4.721  -1.374   3.428  0.4283  0.0043  0.0265
   12CHTO   H52 4997   4.690  -1.282   3.379 -0.9273 -0.6925 -0.4576
   12CHTO   C26 4998   4.635  -1.404   3.552 -0.4530 -0.3458 -0.7153
   12CHTO   H54 4999   4.676  -1.493   3.605  0.5626 -0.0843 -1.0439
   12CHTO   O20 5000   4.649  -1.300   3.650  0.0696 -0.0892  0.2321
   12CHTO   H36 5001   4.737  -1.288   3.679 -0.0742  0.6918  0.3775
   12CHTO   C30 5002   4.491  -1.443   3.503  0.5522  0.2196 -0.0497
   12CHTO   H58 5003   4.446  -1.355   3.454  1.4328  1.2796  1.0239
   12CHTO    N6 5004   4.408  -1.476   3.619 -0.4719 -0.8669  0.2825
   12CHTO   H45 5005   4.310  -1.506   3.586 -0.8010 -2.4376  2.5622
   12CHTO   H46 5006   4.455  -1.561   3.667 -1.0989 -0.9957  0.6723
   12CHTO   C33 5007   4.485  -1.557   3.397  0.1591  0.1477  0.0402
   12CHTO   H61 5008   4.518  -1.649   3.446  0.0451 -0.0081 -0.1739
   12CHTO   O18 5009   4.572  -1.522   3.284 -0.1130  0.3357 -0.5428
   12CHTO   C28 5010   4.707  -1.497   3.317  0.5246  0.2803 -0.5694
   12CHTO   H56 5011   4.757  -1.585   3.359 -0.0329  1.0813  1.8807
   12CHTO   C35 5012   4.771  -1.457   3.182 -0.0324 -0.3794 -0.7037
   12CHTO   O24 5013   4.743  -1.333   3.118 -0.3111  0.3788 -0.1679
   12CHTO   H39 5014   4.651  -1.324   3.100 -0.7340 -1.4697  1.0074
   12CHTO    O9 5015   4.345  -1.587   3.356 -0.4834 -0.3413 -0.3375
   12CHTO   C13 5016   4.324  -1.707   3.250  0.8163  0.8502  0.6268
   12CHTO   H26 5017   4.391  -1.689   3.163  1.1775  0.1456  0.7506
   12CHTO   C11 5018   4.167  -1.717   3.207  0.1600  0.1407  0.0172
   12CHTO   H24 5019   4.149  -1.623   3.152  0.8538  1.2217  1.5807
   12CHTO    O8 5020   4.085  -1.717   3.328 -0.2989 -0.1031  0.6437
   12CHTO    H3 5021   3.999  -1.729   3.293  0.3050 -0.1224 -0.8519
   12CHTO    C9 5022   4.149  -1.844   3.116  0.0714  0.5157 -0.1578
   12CHTO   H22 5023   4.212  -1.825   3.028  0.5713  1.5516  0.4098
   12CHTO    N2 5024   4.015  -1.866   3.063 -0.5877 -0.2469  0.2003
   12CHTO   H10 5025   4.022  -1.936   2.982  1.9821 -0.1357  0.2845
   12CHTO   H11 5026   3.958  -1.775   3.049  0.3780  0.0745 -1.7964
   12CHTO    C7 5027   4.193  -1.970   3.193 -0.1513  0.5494  0.1333
   12CHTO   H20 5028   4.188  -2.051   3.117 -0.1707 -1.3804  2.1225
   12CHTO    O4 5029   4.330  -1.964   3.242  0.7793 -0.3203 -0.4061
   12CHTO   C14 5030   4.378  -1.849   3.309  0.1249  0.4370 -0.8054
   12CHTO   H27 5031   4.488  -1.844   3.299  0.4546  0.0429  2.2921
   12CHTO   C18 5032   4.348  -1.857   3.463 -0.6736 -0.1953 -0.0526
   12CHTO   O13 5033   4.373  -1.984   3.529 -0.6118  0.0680  0.2144
   12CHTO    H7 5034   4.343  -2.049   3.469  1.6179 -0.9327  0.1515
   12CHTO    O2 5035   4.090  -2.001   3.324 -0.0720 -0.1334 -0.5720
   12CHTO    C1 5036   3.989  -2.108   3.309  0.0583  0.0107  0.2868
   12CHTO   H14 5037   3.985  -2.139   3.203  0.4138  0.5868  0.1074
   12CHTO    C2 5038   3.847  -2.062   3.350 -0.9731 -0.4796  0.2236
   12CHTO   H15 5039   3.860  -2.033   3.455 -0.7889 -0.7026  0.2630
   12CHTO    O6 5040   3.807  -1.953   3.271 -0.2226 -0.2562 -0.7070
   12CHTO    H1 5041   3.769  -1.992   3.194  0.0941 -2.1148  0.0382
   12CHTO    C3 5042   3.762  -2.193   3.337 -0.6691  0.7084  0.3616
   12CHTO   H16 5043   3.751  -2.229   3.233 -0.2418 -0.8382  0.8421
   12CHTO    N1 5044   3.625  -2.165   3.382  0.8439 -0.4918  0.3068
   12CHTO    H8 5045   3.559  -2.248   3.359  1.5537 -0.5545 -1.5953
   12CHTO    H9 5046   3.628  -2.148   3.489  2.5736  0.4472  0.1263
   12CHTO    C4 5047   3.823  -2.305   3.424 -0.3617 -1.2209  0.3334
   12CHTO   H17 5048   3.824  -2.270   3.527  0.0073 -0.0625 -0.0538
   12CHTO    O1 5049   3.951  -2.339   3.373  0.1755  0.2716  0.0342
   12CHTO    C5 5050   4.048  -2.235   3.382 -0.5370 -0.8008  0.3568
   12CHTO   H18 5051   4.067  -2.210   3.487  1.3327  1.1674 -0.4131
   12CHTO   C16 5052   4.175  -2.293   3.317  0.0041 -0.0764 -0.4062
   12CHTO   O11 5053   4.295  -2.216   3.355 -0.4883  0.3081  0.4071
   12CHTO    H5 5054   4.316  -2.210   3.446  0.4263 -1.5320  0.3454
   12CHTO    O3 5055   3.745  -2.428   3.408 -0.8157  0.1488 -0.4731
   12CHTO    C6 5056   3.755  -2.518   3.528  0.4300 -0.1830  0.6194
   12CHTO   H19 5057   3.842  -2.498   3.592  1.0551  0.1976 -0.3347
   12CHTO    C8 5058   3.628  -2.512   3.612  0.1558 -1.0362  0.4142
   12CHTO   H21 5059   3.547  -2.524   3.541  1.9382  3.1015 -2.5194
   12CHTO    O7 5060   3.616  -2.380   3.676 -0.2342  0.0616 -0.6079
   12CHTO    H2 5061   3.535  -2.336   3.660  0.7292  1.4926 -1.7163
   12CHTO   C12 5062   3.620  -2.623   3.724  0.1501 -0.1301 -0.3573
   12CHTO   H25 5063   3.693  -2.604   3.805 -1.6700  0.4883  1.1683
   12CHTO    N3 5064   3.490  -2.620   3.794 -0.5088  0.1325 -1.2594
   12CHTO   H12 5065   3.430  -2.546   3.742 -0.6093 -1.3402 -3.2875
   12CHTO   H13 5066   3.492  -2.602   3.900 -1.3198  0.9937 -1.3826
   12CHTO   C15 5067   3.658  -2.762   3.668  0.3340  0.9183  0.2790
   12CHTO   H28 5068   3.591  -2.806   3.595  1.3860 -1.0356  0.4710
   12CHTO   O10 5069   3.692  -2.861   3.760 -0.2950 -0.1694 -0.0751
   12CHTO    H4 5070   3.706  -2.943   3.716  2.9713  0.6148 -0.5874
   12CHTO    O5 5071   3.778  -2.754   3.587  0.0125  0.3256 -0.1586
   12CHTO   C10 5072   3.772  -2.661   3.487 -0.3788  0.5439 -0.2684
   12CHTO   H23 5073   3.695  -2.690   3.415 -2.3194  0.7427  1.6914
   12CHTO   C17 5074   3.899  -2.681   3.410 -0.5933  0.0758 -1.0072
   12CHTO   O12 5075   3.928  -2.621   3.285 -0.2693 -0.1444  0.3001
   12CHTO    H6 5076   3.941  -2.688   3.221 -0.4084  0.0134  0.1098
   13CHTO  H203 5077   7.223   3.676   2.554  0.1497  0.4830  1.2038
   13CHTO   O82 5078   7.137   3.678   2.518  0.3631 -0.4905  0.6059
   13CHTO  C123 5079   7.064   3.789   2.570 -0.0834  0.1492  0.9004
   13CHTO  H227 5080   7.089   3.878   2.509 -0.6095 -1.0075 -1.0438
   13CHTO   O77 5081   6.928   3.752   2.528 -0.4835 -0.2722 -0.0180
   13CHTO  C118 5082   6.835   3.850   2.556  0.9861  0.4104  0.4480
   13CHTO  H222 5083   6.864   3.945   2.510  0.5753  0.3611  0.0884
   13CHTO  C125 5084   6.710   3.788   2.491  0.1932 -0.3106 -0.3544
   13CHTO   O84 5085   6.601   3.883   2.471 -0.2146  0.3233  0.5522
   13CHTO  H205 5086   6.632   3.962   2.432 -0.0046  0.4094  0.8843
   13CHTO  C114 5087   6.819   3.879   2.709  0.1330  0.1656 -0.0870
   13CHTO  H218 5088   6.777   3.792   2.761  1.8377  0.2802  1.5327
   13CHTO  C116 5089   6.960   3.894   2.788 -0.2561  0.0498  0.7717
   13CHTO  H220 5090   6.994   4.000   2.789  0.8687 -0.3090  1.9770
   13CHTO   O79 5091   6.938   3.870   2.927  0.1781 -0.0219  0.4671
   13CHTO  H201 5092   6.890   3.941   2.964 -1.6299 -0.7881 -0.3488
   13CHTO  C120 5093   7.080   3.807   2.728  0.1090  0.4712 -0.6930
   13CHTO  H224 5094   7.063   3.705   2.770 -1.0185  0.1281 -1.9474
   13CHTO   N21 5095   7.214   3.846   2.768  0.6974  0.4461  0.2138
   13CHTO  H211 5096   7.285   3.825   2.690 -0.7013  0.5081 -1.0856
   13CHTO  H212 5097   7.217   3.951   2.792 -0.5547  0.4553  0.3739
   13CHTO   O75 5098   6.741   3.998   2.728  0.2712 -0.3364 -0.2482
   13CHTO  C112 5099   6.618   4.001   2.821  0.0914 -0.4782 -0.2028
   13CHTO  H216 5100   6.618   3.921   2.896  0.5580 -0.4074 -0.1257
   13CHTO   O73 5101   6.498   3.996   2.739  0.5184  0.6187  0.4361
   13CHTO  C113 5102   6.369   4.014   2.803 -0.7279 -0.1795  0.0447
   13CHTO  H217 5103   6.360   3.928   2.873  0.2510  0.3706  0.8513
   13CHTO  C124 5104   6.260   4.016   2.698  0.2333 -0.8346 -0.3733
   13CHTO   O83 5105   6.301   4.098   2.586 -0.0521  0.5288 -0.1078
   13CHTO  H204 5106   6.342   4.046   2.519 -1.1478 -0.6944  0.1606
   13CHTO  C109 5107   6.363   4.149   2.887  0.0901 -0.3881  0.4551
   13CHTO  H213 5108   6.370   4.231   2.814 -0.6554 -0.8581 -0.1485
   13CHTO  C110 5109   6.487   4.161   2.979 -0.3739 -0.0671 -0.0533
   13CHTO  H214 5110   6.482   4.090   3.062 -1.0193 -0.0521 -0.0760
   13CHTO   O78 5111   6.487   4.292   3.044  0.2584 -0.2760  0.1791
   13CHTO  H200 5112   6.460   4.295   3.134  3.3552 -0.0354  1.1702
   13CHTO  C111 5113   6.623   4.133   2.911  0.1257 -0.0565  0.8375
   13CHTO  H215 5114   6.647   4.216   2.844  1.0101 -0.3084  0.8281
   13CHTO   N19 5115   6.738   4.129   3.006  0.7984  0.2904  0.1125
   13CHTO  H207 5116   6.744   4.214   3.072  2.1376 -0.1269  0.5372
   13CHTO  H208 5117   6.736   4.037   3.062 -0.9561 -0.3859 -1.0062
   13CHTO   O74 5118   6.243   4.162   2.963 -0.0417  0.0912 -0.2038
   13CHTO  C115 5119   6.156   4.301   2.947  0.5238 -0.7509  0.0846
   13CHTO  H219 5120   6.142   4.353   3.041  4.0213  2.2897 -0.9773
   13CHTO   O76 5121   6.237   4.419   2.838 -0.2297  0.6805 -0.2627
   13CHTO  C122 5122   6.187   4.428   2.703 -0.0098  0.4398  0.2013
   13CHTO  H226 5123   6.231   4.339   2.657 -1.0682  0.7083 -1.3627
   13CHTO  C126 5124   6.256   4.551   2.626  0.4579  0.5478 -0.1767
   13CHTO   O85 5125   6.212   4.566   2.492 -0.4643  0.0104  0.0223
   13CHTO  H206 5126   6.193   4.657   2.486  0.0157  0.2619  1.9304
   13CHTO  C121 5127   6.029   4.424   2.695 -0.9215  0.7909  0.2025
   13CHTO  H225 5128   5.976   4.510   2.648 -0.5151  2.6901  3.0944
   13CHTO   O81 5129   5.999   4.329   2.598 -0.2531  0.2753  0.3444
   13CHTO  H202 5130   6.035   4.358   2.516  2.6552 -1.1459  1.0408
   13CHTO  C119 5131   5.950   4.393   2.825  0.0452  0.3592  0.0271
   13CHTO  H223 5132   5.964   4.478   2.892 -1.1461 -1.0376  2.1129
   13CHTO  C117 5133   6.011   4.260   2.894 -0.0991 -0.4357 -0.3705
   13CHTO  H221 5134   6.030   4.169   2.836  1.0630  0.4282 -1.3516
   13CHTO   N20 5135   5.925   4.208   3.005  0.0108 -0.2342  0.5663
   13CHTO  H209 5136   5.947   4.106   3.035 -0.1310 -1.1100 -2.1591
   13CHTO  H210 5137   5.828   4.207   2.958 -1.4218 -1.1827  3.4057
   13CHTO   O80 5138   5.791   4.404   2.799 -0.2917 -0.1069 -0.6642
   13CHTO  C103 5139   5.700   4.483   2.913  0.4769  0.6645 -0.0898
   13CHTO  H190 5140   5.711   4.446   3.015 -0.4844  0.7410  0.0487
   13CHTO  C101 5141   5.696   4.644   2.915  0.2235 -0.7539  0.7936
   13CHTO  H188 5142   5.672   4.691   2.820 -2.2974  0.2856  1.9097
   13CHTO   O68 5143   5.847   4.684   2.976  0.1614 -0.1131 -0.2370
   13CHTO  H168 5144   5.917   4.628   2.947 -1.1635 -2.1433  0.3810
   13CHTO   C99 5145   5.571   4.691   3.006  0.7040  0.5497 -0.1547
   13CHTO  H186 5146   5.589   4.647   3.106  0.2574  2.3742  0.7373
   13CHTO   N17 5147   5.557   4.840   3.028  0.0477  0.9892  0.7981
   13CHTO  H174 5148   5.639   4.900   2.993 -0.7565  1.4080 -0.3803
   13CHTO  H175 5149   5.541   4.853   3.134  0.1550  3.4611  0.5334
   13CHTO   C97 5150   5.436   4.633   2.953 -0.9520  0.6894 -0.1415
   13CHTO  H184 5151   5.412   4.667   2.852  0.8517 -0.9971 -1.1563
   13CHTO   O64 5152   5.450   4.492   2.958  0.1982 -0.1641 -0.0483
   13CHTO  C104 5153   5.552   4.445   2.866  0.0275 -0.0638 -0.3727
   13CHTO  H191 5154   5.528   4.492   2.770  0.1563  1.3539  0.2694
   13CHTO  C108 5155   5.541   4.294   2.842  0.4589  0.2134  0.0519
   13CHTO   O71 5156   5.410   4.262   2.786  0.0356 -0.2602  0.9884
   13CHTO  H171 5157   5.416   4.202   2.714  1.9835  2.0375 -0.8451
   13CHTO   O62 5158   5.328   4.656   3.046 -0.1875  0.2136  0.3555
   13CHTO   C91 5159   5.208   4.721   3.000 -0.4151 -0.5843  0.1223
   13CHTO  H178 5160   5.231   4.804   2.933  2.1626  0.3724  2.1017
   13CHTO   C92 5161   5.152   4.798   3.125 -0.3123 -0.0516  0.1235
   13CHTO  H179 5162   5.146   4.728   3.209  0.2816 -0.1824  0.0650
   13CHTO   O66 5163   5.246   4.902   3.154  0.2467  0.1624 -0.4299
   13CHTO  H166 5164   5.299   4.876   3.227 -0.7949 -3.1015 -0.7548
   13CHTO   C93 5165   5.018   4.858   3.104  0.1105 -0.4894  0.1778
   13CHTO  H180 5166   5.030   4.940   3.032  1.3754 -3.2691 -2.8854
   13CHTO   N16 5167   4.960   4.914   3.231  0.0042 -0.2928  0.1037
   13CHTO  H172 5168   5.038   4.975   3.274 -0.9696  1.7593 -0.9841
   13CHTO  H173 5169   4.938   4.826   3.291 -1.3437  0.9991  1.5371
   13CHTO   C94 5170   4.920   4.751   3.045  0.2159 -0.0757  0.0703
   13CHTO  H181 5171   4.913   4.664   3.110  0.4333 -0.4814 -0.4409
   13CHTO   O61 5172   4.977   4.694   2.925 -0.5313 -0.2552  0.0250
   13CHTO   C95 5173   5.101   4.626   2.933 -0.0069  0.8061 -0.1371
   13CHTO  H182 5174   5.097   4.540   3.000  2.4044 -0.2609 -1.3399
   13CHTO  C106 5175   5.145   4.563   2.784 -0.4441 -0.0122 -0.2052
   13CHTO   O69 5176   5.060   4.449   2.744  0.2860  0.0897  0.0877
   13CHTO  H169 5177   5.089   4.408   2.664 -2.2575 -0.7242 -0.4853
   13CHTO   O63 5178   4.773   4.810   3.021  0.1104 -0.6021  0.2993
   13CHTO   C96 5179   4.660   4.714   3.076 -0.2277 -0.5010 -0.1867
   13CHTO  H183 5180   4.693   4.696   3.178  1.6354 -2.3485 -1.0622
   13CHTO   C98 5181   4.649   4.578   2.999  0.1522 -0.5395 -0.1957
   13CHTO  H185 5182   4.661   4.593   2.890 -0.2283  0.0189 -0.1597
   13CHTO   O67 5183   4.753   4.488   3.041 -0.3217 -0.2734 -0.2831
   13CHTO  H167 5184   4.838   4.503   3.005 -0.0887  2.6927  1.2985
   13CHTO  C102 5185   4.507   4.515   3.029 -0.2258 -0.3796  0.1329
   13CHTO  H189 5186   4.505   4.498   3.137 -0.6401 -0.8408  0.0514
   13CHTO   N18 5187   4.483   4.382   2.962  0.0543  0.0397 -0.3475
   13CHTO  H176 5188   4.558   4.307   2.979  0.0719  0.5307  1.9528
   13CHTO  H177 5189   4.459   4.392   2.857 -0.9097 -0.7551 -0.2128
   13CHTO  C105 5190   4.391   4.611   2.995  0.3776  0.3516 -0.1363
   13CHTO  H192 5191   4.406   4.649   2.894 -1.6537 -0.9348 -0.9503
   13CHTO   O65 5192   4.404   4.726   3.081  0.3185 -0.0575  0.2733
   13CHTO  C100 5193   4.525   4.796   3.074 -0.2384 -0.7908  0.0930
   13CHTO  H187 5194   4.515   4.852   2.980  1.9141 -0.5335 -0.0057
   13CHTO  C107 5195   4.532   4.908   3.182  0.1637  0.3594 -0.4307
   13CHTO   O70 5196   4.408   4.988   3.184 -0.3850  0.1185  0.3564
   13CHTO  H170 5197   4.383   4.983   3.094  0.3357  1.3615  0.0731
   13CHTO   O57 5198   4.242   4.547   3.018  0.3088  0.2089 -0.0389
   13CHTO   C85 5199   4.118   4.607   2.981 -0.1971  0.8553 -0.2062
   13CHTO  H157 5200   4.147   4.682   2.905 -1.5526  0.1776 -1.4027
   13CHTO   C83 5201   4.067   4.700   3.097 -0.2403 -0.2876 -0.1059
   13CHTO  H155 5202   4.143   4.777   3.112 -1.0490  0.4245  0.3650
   13CHTO   O56 5203   4.046   4.627   3.216  0.5907 -0.2882 -0.0045
   13CHTO  H135 5204   4.029   4.688   3.286 -1.9560 -2.4681  1.3711
   13CHTO   C81 5205   3.936   4.771   3.046 -0.4403  0.0626 -0.2499
   13CHTO  H153 5206   3.959   4.825   2.955  0.4389  0.2714  0.0863
   13CHTO   N14 5207   3.875   4.872   3.134 -0.2082 -0.1981 -0.0264
   13CHTO  H141 5208   3.808   4.838   3.211 -0.7515  1.7649  0.3906
   13CHTO  H142 5209   3.827   4.948   3.076 -2.0380 -0.2674  1.3488
   13CHTO   C79 5210   3.830   4.667   3.007 -0.1631  0.2442 -0.0218
   13CHTO  H151 5211   3.750   4.718   2.952 -2.7039 -2.9420  0.5239
   13CHTO   O52 5212   3.871   4.565   2.905  0.5125 -0.1777 -0.1604
   13CHTO   C86 5213   4.006   4.508   2.935 -0.4281  0.1832 -0.1089
   13CHTO  H158 5214   3.974   4.431   3.009 -1.0087 -0.5906 -1.1397
   13CHTO   C90 5215   4.051   4.425   2.815 -0.2220 -0.0005  0.1273
   13CHTO   O60 5216   4.157   4.340   2.852  0.2401  0.1231 -0.3519
   13CHTO  H138 5217   4.159   4.253   2.817  2.1720 -0.1076  0.2351
   13CHTO   O50 5218   3.772   4.597   3.117  0.3157 -0.6521  0.4061
   13CHTO   C73 5219   3.639   4.562   3.151 -0.2736 -0.4240 -0.4075
   13CHTO  H145 5220   3.580   4.523   3.066 -1.4716  1.4007 -0.4294
   13CHTO   C74 5221   3.557   4.684   3.215 -0.0457  0.2014  0.1586
   13CHTO  H146 5222   3.561   4.762   3.138  0.3297 -1.2112 -1.2868
   13CHTO   O54 5223   3.412   4.640   3.223  0.0815  0.2015 -0.0103
   13CHTO  H133 5224   3.408   4.560   3.271  0.9003 -0.9681 -1.8299
   13CHTO   C75 5225   3.617   4.737   3.350 -0.5458  0.1487  0.0104
   13CHTO  H147 5226   3.717   4.779   3.331 -0.2105  0.1324  1.6808
   13CHTO   N13 5227   3.532   4.841   3.408  0.2407 -0.2955  0.6962
   13CHTO  H139 5228   3.565   4.939   3.377  0.8512 -0.7095  0.0123
   13CHTO  H140 5229   3.528   4.853   3.515  1.2144 -0.1158  0.7203
   13CHTO   C76 5230   3.632   4.616   3.448 -0.2496  0.2903  0.0459
   13CHTO  H148 5231   3.531   4.575   3.454  0.0167 -0.3521  0.1578
   13CHTO   O49 5232   3.710   4.519   3.383 -0.7186  0.2350 -0.3762
   13CHTO   C77 5233   3.660   4.452   3.264  0.4385 -0.8307  0.1335
   13CHTO  H149 5234   3.566   4.399   3.279 -1.4798  2.3784 -0.0422
   13CHTO   C88 5235   3.764   4.348   3.219  0.2132  0.3716  0.1936
   13CHTO   O58 5236   3.711   4.273   3.120  0.0947  0.4668  0.1550
   13CHTO  H136 5237   3.781   4.229   3.076 -1.0912 -0.7278 -0.5974
   13CHTO   O51 5238   3.691   4.645   3.589  0.1078  0.5056  0.3707
   13CHTO   C78 5239   3.853   4.670   3.632 -0.1479 -0.2635 -0.2487
   13CHTO  H150 5240   3.852   4.728   3.727  1.8961 -1.4013  0.5054
   13CHTO   C80 5241   3.925   4.746   3.519  0.1750 -0.2031 -0.6230
   13CHTO  H152 5242   3.919   4.692   3.422  0.9284 -1.1578 -0.1503
   13CHTO   O55 5243   3.864   4.874   3.504 -0.5092  0.7860  0.0503
   13CHTO  H134 5244   3.916   4.946   3.535 -0.8170  0.8962  0.3103
   13CHTO   C84 5245   4.081   4.753   3.552  0.3859 -0.3218 -0.2340
   13CHTO  H156 5246   4.086   4.801   3.649 -2.6295  0.6351 -0.5034
   13CHTO   N15 5247   4.167   4.825   3.451 -0.2895  0.5010 -0.3310
   13CHTO  H143 5248   4.271   4.807   3.467 -0.5931 -0.5178  0.5785
   13CHTO  H144 5249   4.147   4.930   3.452  1.4727  0.8382  1.0193
   13CHTO   C87 5250   4.129   4.609   3.576 -1.2452 -0.4557 -0.6625
   13CHTO  H159 5251   4.129   4.555   3.481  0.8192  0.8525 -1.4643
   13CHTO   O53 5252   4.045   4.542   3.675  0.3916 -0.1449  0.0989
   13CHTO   C82 5253   3.909   4.529   3.654  0.0156  0.1609  0.3436
   13CHTO  H154 5254   3.891   4.472   3.563  2.3967 -0.5107  0.2606
   13CHTO   C89 5255   3.846   4.447   3.768 -0.2798  0.2472  0.2750
   13CHTO   O59 5256   3.872   4.312   3.769  0.0148  0.3316  0.0337
   13CHTO  H137 5257   3.831   4.272   3.843  1.5717  0.2750  0.8896
   13CHTO   O45 5258   4.296   4.602   3.630  0.3537  0.4425  0.0072
   13CHTO   C67 5259   4.393   4.544   3.534  0.1534 -0.6684 -0.0542
   13CHTO  H124 5260   4.344   4.491   3.452  1.6979 -0.8587 -0.8927
   13CHTO   C65 5261   4.487   4.649   3.470  0.5789 -0.8291 -0.3173
   13CHTO  H122 5262   4.422   4.731   3.438  2.5181  1.7023  1.9577
   13CHTO   O44 5263   4.557   4.597   3.358 -1.1141 -0.1691  0.1739
   13CHTO  H102 5264   4.522   4.649   3.289 -2.1932  0.8061  1.4367
   13CHTO   C63 5265   4.579   4.716   3.579  0.8846  0.1027  0.3027
   13CHTO  H120 5266   4.513   4.766   3.650  0.9394 -0.0617  0.4696
   13CHTO   N11 5267   4.654   4.836   3.539 -0.1017 -0.3262 -0.3022
   13CHTO  H108 5268   4.583   4.910   3.508 -1.0590 -0.2971  1.8769
   13CHTO  H109 5269   4.710   4.864   3.626 -1.8299 -0.6161  0.9397
   13CHTO   C61 5270   4.653   4.604   3.666 -0.1847 -0.1187 -0.3601
   13CHTO  H118 5271   4.683   4.653   3.760 -1.4113  0.4037 -0.2304
   13CHTO   O40 5272   4.569   4.488   3.700  0.1476  0.5546 -1.0272
   13CHTO   C68 5273   4.474   4.431   3.610 -0.4676  0.0478 -0.2276
   13CHTO  H125 5274   4.404   4.366   3.667 -0.3865  0.2886  0.1446
   13CHTO   C72 5275   4.554   4.340   3.516 -0.4843  0.3170 -0.4925
   13CHTO   O48 5276   4.469   4.252   3.440 -0.0010  0.4428  0.1772
   13CHTO  H105 5277   4.470   4.279   3.350  1.5982  1.1399  0.4004
   13CHTO   O38 5278   4.763   4.538   3.597  0.1280 -0.5000 -0.3005
   13CHTO   C55 5279   4.891   4.509   3.654 -0.0229 -0.1071 -0.0422
   13CHTO  H112 5280   4.920   4.421   3.596 -0.4267 -0.9069  0.9665
   13CHTO   C56 5281   4.896   4.484   3.812  0.1489 -0.3865 -0.1796
   13CHTO  H113 5282   4.832   4.561   3.857  0.0925  1.0230 -2.5767
   13CHTO   O42 5283   4.835   4.352   3.824  0.5474 -0.3761 -0.2117
   13CHTO  H100 5284   4.853   4.336   3.915  2.3589  2.5533  0.0340
   13CHTO   C57 5285   5.037   4.485   3.874 -0.2962  0.2096 -0.5270
   13CHTO  H114 5286   5.095   4.399   3.840  0.9557  0.7013  0.3322
   13CHTO   N10 5287   5.033   4.473   4.020  0.4250  0.0133 -0.1908
   13CHTO  H106 5288   5.128   4.436   4.052  0.9240  2.0420  0.7803
   13CHTO  H107 5289   5.034   4.575   4.057  0.8340 -0.6200  1.5648
   13CHTO   C58 5290   5.107   4.621   3.833  0.2886  0.6267  0.4982
   13CHTO  H115 5291   5.057   4.710   3.877  0.7381  0.2131  1.8910
   13CHTO   O37 5292   5.109   4.634   3.691 -0.3558 -0.0064  0.0575
   13CHTO   C59 5293   4.982   4.640   3.619 -0.0038  0.1466  0.4747
   13CHTO  H116 5294   4.928   4.729   3.650  1.9180  2.0311 -1.3474
   13CHTO   C70 5295   5.008   4.645   3.469  0.4847 -0.1054  0.8157
   13CHTO   O46 5296   5.084   4.538   3.425  0.1821 -0.6854  0.1476
   13CHTO  H103 5297   5.077   4.538   3.331 -1.2564 -1.3476  0.2407
   13CHTO   O39 5298   5.271   4.601   3.885 -0.8460  0.3499 -0.3439
   13CHTO   C60 5299   5.371   4.695   3.837  0.6869 -0.0573  0.4025
   13CHTO  H117 5300   5.374   4.709   3.729 -1.1291  2.2601  0.6079
   13CHTO   C62 5301   5.329   4.836   3.884 -0.0576  0.3111 -0.0083
   13CHTO  H119 5302   5.241   4.867   3.825 -0.1524 -1.6105 -0.9393
   13CHTO   O43 5303   5.305   4.837   4.028  0.1360  0.4870 -0.0039
   13CHTO  H101 5304   5.241   4.901   4.053  0.7707  1.2348 -0.2505
   13CHTO   C66 5305   5.442   4.945   3.840  0.2152 -0.2085 -0.1896
   13CHTO  H123 5306   5.442   4.951   3.731 -2.6173 -0.8845 -0.2587
   13CHTO   N12 5307   5.405   5.084   3.878 -0.0600  0.1665  0.0345
   13CHTO  H110 5308   5.398   5.097   3.985 -2.5666 -0.8761  0.0239
   13CHTO  H111 5309   5.461   5.161   3.826 -0.1368 -1.3519 -2.3934
   13CHTO   C69 5310   5.580   4.902   3.889 -0.1392  0.3250  0.1749
   13CHTO  H126 5311   5.585   4.909   3.999  1.4578 -1.2428  0.2222
   13CHTO   O41 5312   5.616   4.761   3.843  0.5614 -0.0872 -0.5469
   13CHTO   C64 5313   5.515   4.658   3.892 -0.0749 -0.6236  0.4489
   13CHTO  H121 5314   5.506   4.661   4.003  1.2088  1.1157  0.5146
   13CHTO   C71 5315   5.555   4.516   3.852 -0.2961 -0.0043 -0.1068
   13CHTO   O47 5316   5.697   4.501   3.827  0.0814 -0.2615 -0.4009
   13CHTO  H104 5317   5.730   4.414   3.843 -0.9305 -0.3843  1.0466
   13CHTO   O34 5318   5.689   4.999   3.835 -0.2106  0.7606  0.4415
   13CHTO   C49 5319   5.835   5.058   3.834  0.2695  0.1408 -0.3816
   13CHTO   H91 5320   5.898   4.977   3.795 -0.2032 -0.3292 -0.1734
   13CHTO   C47 5321   5.882   5.072   3.980 -0.0008 -0.3761 -0.2792
   13CHTO   H89 5322   5.989   5.100   3.967  0.2013 -0.6032  0.9183
   13CHTO   O33 5323   5.875   4.934   4.035 -0.6570  0.2213  0.1165
   13CHTO   H70 5324   5.937   4.871   4.003  0.8964  0.7946  1.9314
   13CHTO   C45 5325   5.807   5.191   4.050 -0.0115 -0.2746  0.0363
   13CHTO   H87 5326   5.699   5.169   4.050 -0.0250 -0.2069  0.4460
   13CHTO    N8 5327   5.859   5.199   4.192  0.1923 -0.7028 -0.0457
   13CHTO   H75 5328   5.782   5.172   4.262  0.4011  0.8692  0.8060
   13CHTO   H76 5329   5.893   5.301   4.202  1.8697 -0.8208 -3.6418
   13CHTO   C43 5330   5.831   5.321   3.972  0.4773  0.1631  0.5606
   13CHTO   H85 5331   5.767   5.399   4.013 -1.4049  1.0609 -3.7433
   13CHTO   O29 5332   5.795   5.299   3.831 -0.3063  0.0005 -0.2693
   13CHTO   C50 5333   5.847   5.191   3.752  0.2375  0.9113  0.4869
   13CHTO   H92 5334   5.774   5.177   3.671  1.1062  0.6117 -0.2490
   13CHTO   C54 5335   5.983   5.215   3.697  0.1922  0.9078  0.2048
   13CHTO   O36 5336   5.979   5.327   3.619  0.0398 -0.6567  0.3578
   13CHTO   H72 5337   6.063   5.349   3.584 -0.9988 -0.0733 -1.8440
   13CHTO   O27 5338   5.967   5.368   3.977  0.1205 -0.0082  0.4215
   13CHTO   C37 5339   6.055   5.477   3.980 -0.8391 -0.9481  0.2867
   13CHTO   H79 5340   6.048   5.539   4.070 -0.6194  0.6173 -0.7534
   13CHTO   C38 5341   6.193   5.415   3.979  0.1652 -0.0565  0.2259
   13CHTO   H80 5342   6.194   5.334   3.905  0.9372 -2.1505  2.4632
   13CHTO   O31 5343   6.219   5.364   4.111 -0.5988  0.5952  0.3611
   13CHTO   H68 5344   6.147   5.314   4.143  0.4287 -1.9321 -1.1335
   13CHTO   C39 5345   6.304   5.521   3.933 -0.2981 -0.2375 -0.5182
   13CHTO   H81 5346   6.321   5.589   4.017 -2.8565 -0.5837  0.3210
   13CHTO    N7 5347   6.429   5.442   3.903  0.3734  0.1418 -0.4240
   13CHTO   H73 5348   6.509   5.499   3.858 -0.6459  3.0895  1.4144
   13CHTO   H74 5349   6.462   5.404   3.999 -0.2921 -1.6681 -0.8791
   13CHTO   C40 5350   6.259   5.612   3.813  0.5640  0.4451 -0.3044
   13CHTO   H82 5351   6.250   5.539   3.732  1.3487 -1.0036  0.8783
   13CHTO   O26 5352   6.135   5.672   3.845 -0.4653 -0.4904 -0.0805
   13CHTO   C41 5353   6.021   5.576   3.857 -0.1164 -0.4347  0.0152
   13CHTO   H83 5354   6.001   5.520   3.765  0.9662 -0.0840 -0.4532
   13CHTO   C52 5355   5.883   5.655   3.882  0.4407 -0.3395 -0.3472
   13CHTO   O35 5356   5.865   5.751   3.769 -0.1583 -0.2584  0.3710
   13CHTO   H71 5357   5.795   5.806   3.797  0.9456  2.1434 -1.4538
   13CHTO   O28 5358   6.358   5.714   3.796 -0.0281 -0.3286 -0.2465
   13CHTO   C42 5359   6.328   5.851   3.772 -0.0698  0.6320 -0.3341
   13CHTO   H84 5360   6.425   5.889   3.741 -0.6669  1.3991 -1.2616
   13CHTO   C44 5361   6.283   5.936   3.899 -0.6141  0.1250 -0.7624
   13CHTO   H86 5362   6.190   5.894   3.937  0.0048  0.5402  1.3001
   13CHTO   O32 5363   6.390   5.918   3.991 -0.6735  0.3841 -0.2054
   13CHTO   H69 5364   6.361   5.951   4.074  1.2269 -2.7387  1.7923
   13CHTO   C48 5365   6.253   6.091   3.864  1.1683 -0.1802  0.8057
   13CHTO   H90 5366   6.344   6.135   3.822  0.2298  2.1506  1.1266
   13CHTO    N9 5367   6.213   6.183   3.974 -0.3520  0.0382  0.1148
   13CHTO   H77 5368   6.188   6.281   3.935  1.7412 -0.0264 -1.4950
   13CHTO   H78 5369   6.136   6.130   4.029 -0.2197 -0.5332 -0.2430
   13CHTO   C51 5370   6.143   6.081   3.751 -0.8316  0.1804  0.1405
   13CHTO   H93 5371   6.056   6.030   3.793 -0.8697  0.8786  0.9155
   13CHTO   O30 5372   6.192   6.023   3.631 -0.5686 -0.0120 -0.1575
   13CHTO   C46 5373   6.221   5.878   3.654  0.0524  0.0096  0.5255
   13CHTO   H88 5374   6.127   5.830   3.680  0.8172 -1.4947  0.5895
   13CHTO   C53 5375   6.276   5.815   3.522 -0.5785  0.0147  0.0681
   13CHTO   O72 5376   6.412   5.853   3.496 -0.3520 -0.5914  0.3047
   13CHTO  H199 5377   6.471   5.819   3.561 -0.7852  0.3365  1.1887
   13CHTO   O22 5378   6.107   6.212   3.697 -0.1793  0.2680  0.4964
   13CHTO   C31 5379   5.972   6.244   3.656  0.0482  0.1346  0.0169
   13CHTO   H59 5380   5.973   6.337   3.596  1.4557 -0.0257 -0.2192
   13CHTO   C29 5381   5.915   6.135   3.560  0.1300  0.1684 -0.5194
   13CHTO   H57 5382   5.911   6.038   3.612  1.9097  0.3519 -0.0072
   13CHTO   O21 5383   6.005   6.120   3.449  0.6634 -0.1474  0.4265
   13CHTO   H37 5384   6.073   6.066   3.485  0.1924 -0.3958  0.9571
   13CHTO   C27 5385   5.774   6.165   3.509  0.3398  0.0651 -0.2806
   13CHTO   H55 5386   5.777   6.261   3.455  1.3394 -0.6087 -1.4372
   13CHTO    N5 5387   5.715   6.065   3.419 -0.0440 -0.6556  0.1209
   13CHTO   H43 5388   5.756   5.972   3.456  0.7896  0.0105  0.9062
   13CHTO   H44 5389   5.737   6.072   3.314 -1.1581 -0.6800 -0.1109
   13CHTO   C25 5390   5.687   6.190   3.633 -0.2333 -0.0866  0.1550
   13CHTO   H53 5391   5.683   6.097   3.691 -1.0007  1.3862  2.5187
   13CHTO   O17 5392   5.744   6.282   3.725  0.6788  0.2596 -0.6444
   13CHTO   C32 5393   5.877   6.265   3.774  0.3063 -0.3473  0.5193
   13CHTO   H60 5394   5.874   6.172   3.831  2.4221 -1.4400 -1.0670
   13CHTO   C36 5395   5.917   6.386   3.857  0.1387 -0.3053 -0.1448
   13CHTO   O25 5396   5.834   6.400   3.969 -0.4103  0.0963 -0.0493
   13CHTO   H40 5397   5.892   6.449   4.026 -1.6864  1.5321  0.0426
   13CHTO   O15 5398   5.540   6.252   3.590  0.4650  0.6923  0.0585
   13CHTO   C19 5399   5.420   6.295   3.664 -0.7468  0.6361  0.2802
   13CHTO   H47 5400   5.431   6.237   3.757  0.4321  0.5643  0.0943
   13CHTO   C20 5401   5.409   6.449   3.693 -0.9397 -0.6263 -0.2284
   13CHTO   H48 5402   5.417   6.510   3.602 -0.6748 -0.2979  0.0123
   13CHTO   O19 5403   5.515   6.499   3.771  0.2345 -0.0439  0.0169
   13CHTO   H35 5404   5.593   6.448   3.762 -0.1891 -0.3144 -2.5662
   13CHTO   C21 5405   5.278   6.484   3.767 -0.1969  0.2822  0.2815
   13CHTO   H49 5406   5.289   6.439   3.865  1.2807 -0.7816 -0.3494
   13CHTO    N4 5407   5.253   6.631   3.775  0.4601  0.0915 -0.0938
   13CHTO   H41 5408   5.327   6.681   3.713 -0.7563  0.9370 -0.8878
   13CHTO   H42 5409   5.267   6.664   3.877 -4.2568  2.1003  0.0179
   13CHTO   C22 5410   5.160   6.424   3.690 -0.0280  0.2775  0.2836
   13CHTO   H50 5411   5.155   6.476   3.594  0.7294  0.4511  0.3391
   13CHTO   O14 5412   5.177   6.280   3.674 -0.1589 -0.0708  0.0611
   13CHTO   C23 5413   5.286   6.245   3.592  0.2214  0.2011 -0.7568
   13CHTO   H51 5414   5.269   6.299   3.498  0.2529 -0.2688 -1.0311
   13CHTO   C34 5415   5.289   6.097   3.566 -0.0330 -0.3089  0.1027
   13CHTO   O23 5416   5.167   6.061   3.499  0.0195 -0.2437 -0.0650
   13CHTO   H38 5417   5.151   5.970   3.515 -1.8276 -0.1216 -1.0938
   13CHTO   O16 5418   5.030   6.437   3.749  0.0281 -0.3639 -0.3313
   13CHTO   C24 5419   4.920   6.464   3.627 -0.0510 -0.6156  0.5563
   13CHTO   H52 5420   4.959   6.450   3.526  0.2023 -0.3122  0.6103
   13CHTO   C26 5421   4.865   6.606   3.633 -0.4555 -0.3070  0.4225
   13CHTO   H54 5422   4.839   6.631   3.738  1.0695 -0.2279  0.7964
   13CHTO   O20 5423   4.972   6.701   3.611  0.1464 -0.3908 -0.1284
   13CHTO   H36 5424   4.936   6.787   3.623 -0.5797 -0.3399 -2.5321
   13CHTO   C30 5425   4.743   6.624   3.532 -0.3653  0.4172 -0.1699
   13CHTO   H58 5426   4.788   6.616   3.432  2.5471 -1.7803  1.2346
   13CHTO    N6 5427   4.679   6.757   3.534 -0.1717 -0.6603  0.3549
   13CHTO   H45 5428   4.648   6.778   3.432 -1.4354 -2.3577  0.3663
   13CHTO   H46 5429   4.755   6.830   3.559  1.9359 -2.0363 -1.8200
   13CHTO   C33 5430   4.640   6.510   3.533 -0.5804  0.9754 -0.2697
   13CHTO   H61 5431   4.565   6.512   3.613  0.3164 -2.6091  0.7933
   13CHTO   O18 5432   4.710   6.382   3.544 -0.6344  0.0827 -0.1566
   13CHTO   C28 5433   4.806   6.360   3.645 -0.1214  0.6508  1.3670
   13CHTO   H56 5434   4.764   6.367   3.745  2.5261 -2.6639  2.8220
   13CHTO   C35 5435   4.860   6.216   3.632  0.2184  0.2263  0.1078
   13CHTO   O24 5436   4.761   6.118   3.667 -0.2453 -0.4544 -0.0590
   13CHTO   H39 5437   4.681   6.135   3.622  1.4473  2.8688 -1.9671
   13CHTO    O9 5438   4.562   6.517   3.412 -0.4056 -0.3107 -0.3633
   13CHTO   C13 5439   4.392   6.494   3.436  0.0224 -0.2988  0.3804
   13CHTO   H26 5440   4.365   6.557   3.523  0.7593  0.5841 -0.0284
   13CHTO   C11 5441   4.364   6.340   3.464  0.3489 -0.4062 -0.2198
   13CHTO   H24 5442   4.401   6.321   3.566  1.8736 -2.3698 -1.0959
   13CHTO    O8 5443   4.438   6.262   3.369  0.4502 -0.1812 -0.0744
   13CHTO    H3 5444   4.496   6.206   3.416  1.3453 -0.4150 -1.4395
   13CHTO    C9 5445   4.213   6.317   3.458 -0.4026 -0.0322 -0.0735
   13CHTO   H22 5446   4.168   6.390   3.527 -0.5123  0.1459 -0.3368
   13CHTO    N2 5447   4.161   6.186   3.501 -0.3359  0.1754 -0.3375
   13CHTO   H10 5448   4.149   6.196   3.608 -0.4665  2.0117 -0.5005
   13CHTO   H11 5449   4.238   6.112   3.485  0.5038 -0.3974  5.2945
   13CHTO    C7 5450   4.165   6.341   3.305 -0.1100 -0.6589  0.9125
   13CHTO   H20 5451   4.067   6.389   3.328  0.1512  0.9510 -1.1732
   13CHTO    O4 5452   4.246   6.440   3.235 -0.4983 -0.2311  0.1867
   13CHTO   C14 5453   4.305   6.550   3.309  0.1460 -0.9046 -0.5829
   13CHTO   H27 5454   4.222   6.610   3.351  1.1041  0.2393 -0.2869
   13CHTO   C18 5455   4.389   6.652   3.223  0.3209  0.3414  0.3051
   13CHTO   O13 5456   4.303   6.734   3.147  0.0433  0.1128  0.1777
   13CHTO    H7 5457   4.223   6.690   3.127 -0.8877  0.9318  2.0193
   13CHTO    O2 5458   4.149   6.212   3.208 -0.1891  0.4976 -0.5494
   13CHTO    C1 5459   4.047   6.216   3.101 -0.5806  0.2404 -0.5856
   13CHTO   H14 5460   4.020   6.322   3.078 -0.2241  0.2891 -0.7720
   13CHTO    C2 5461   3.913   6.137   3.143  0.0153 -0.7530 -0.8517
   13CHTO   H15 5462   3.933   6.039   3.189  1.9030  0.4919  1.0783
   13CHTO    O6 5463   3.855   6.227   3.246 -0.0731 -0.0473  0.3703
   13CHTO    H1 5464   3.858   6.201   3.336 -2.1746 -0.6362  0.2896
   13CHTO    C3 5465   3.811   6.127   3.019  0.2818 -0.1010  0.2116
   13CHTO   H16 5466   3.776   6.227   2.991  2.5131  0.3966 -0.8224
   13CHTO    N1 5467   3.694   6.041   3.056  0.1208 -0.6650  0.5897
   13CHTO    H8 5468   3.608   6.070   2.998 -1.4563 -1.8306  2.2815
   13CHTO    H9 5469   3.668   6.049   3.161 -1.5675  0.2580  0.1205
   13CHTO    C4 5470   3.890   6.081   2.893  0.3190 -0.1207 -0.2568
   13CHTO   H17 5471   3.922   5.977   2.906  0.6779  0.2514  2.2645
   13CHTO    O1 5472   3.994   6.173   2.870 -0.2916  0.0397  0.1729
   13CHTO    C5 5473   4.095   6.151   2.970 -0.0658 -0.3900 -0.2992
   13CHTO   H18 5474   4.121   6.048   2.991  1.0239 -0.7703 -3.2973
   13CHTO   C16 5475   4.219   6.221   2.922  0.2756  0.0123  0.4608
   13CHTO   O11 5476   4.272   6.178   2.801  0.1287 -0.1632 -0.2010
   13CHTO    H5 5477   4.360   6.212   2.801 -1.3954  4.1065 -0.3132
   13CHTO    O3 5478   3.806   6.088   2.775 -0.8531  0.5717  0.6740
   13CHTO    C6 5479   3.808   6.010   2.655  0.2665 -0.3730 -0.7167
   13CHTO   H19 5480   3.795   6.072   2.566  1.6552  1.2835  0.2055
   13CHTO    C8 5481   3.940   5.925   2.632 -0.0005  0.0795  0.3309
   13CHTO   H21 5482   3.953   5.858   2.717 -1.7700  0.6374  1.0653
   13CHTO    O7 5483   4.056   6.011   2.612  0.6512  0.0510  0.1341
   13CHTO    H2 5484   4.088   6.043   2.694 -1.0377 -1.2991  1.3844
   13CHTO   C12 5485   3.924   5.832   2.511  0.2229 -0.2564  0.3587
   13CHTO   H25 5486   3.903   5.907   2.432  1.1626 -1.0907 -0.6878
   13CHTO    N3 5487   4.038   5.745   2.481  0.4433 -0.2694  0.3183
   13CHTO   H12 5488   4.123   5.808   2.462  0.1526 -0.2138 -0.8672
   13CHTO   H13 5489   4.050   5.651   2.533 -0.1046 -1.1589 -1.1084
   13CHTO   C15 5490   3.795   5.744   2.526  0.5764  0.2288  0.1456
   13CHTO   H28 5491   3.815   5.666   2.600  0.9834  0.6655  0.4997
   13CHTO   O10 5492   3.722   5.664   2.390 -0.2390  0.2836  0.5195
   13CHTO    H4 5493   3.793   5.641   2.332  0.2234  1.5737  0.5559
   13CHTO    O5 5494   3.677   5.812   2.564  0.2677  0.1246  0.1617
   13CHTO   C10 5495   3.691   5.909   2.667  0.5208  0.3780 -0.4402
   13CHTO   H23 5496   3.718   5.856   2.759  0.9056  0.9550 -0.2129
   13CHTO   C17 5497   3.555   5.972   2.692 -0.4513  0.0775 -0.4201
   13CHTO   O12 5498   3.507   6.038   2.575  0.4075 -0.0371 -0.5238
   13CHTO    H6 5499   3.500   6.129   2.598  0.4992 -0.4145  1.0325
   14CHTO  H203 5500   5.955   4.458   0.348 -1.0625 -1.8504  1.4569
   14CHTO   O82 5501   5.871   4.498   0.346 -0.4051 -0.4967  0.0510
   14CHTO  C123 5502   5.802   4.468   0.465 -0.2177  0.6411 -0.1654
   14CHTO  H227 5503   5.867   4.504   0.546  0.4785 -0.6542 -0.1189
   14CHTO   O77 5504   5.681   4.539   0.453 -0.4591  0.0175 -0.3449
   14CHTO  C118 5505   5.585   4.521   0.557 -0.1166 -0.1335  0.2956
   14CHTO  H222 5506   5.629   4.553   0.653  1.8142  0.3220 -0.6989
   14CHTO  C125 5507   5.471   4.618   0.515  0.0363  0.7195  0.1369
   14CHTO   O84 5508   5.464   4.734   0.599  0.1170  0.1915  0.0782
   14CHTO  H205 5509   5.391   4.722   0.657  0.9555 -2.0443  0.7349
   14CHTO  C114 5510   5.534   4.375   0.564 -0.2848 -0.0429 -0.1499
   14CHTO  H218 5511   5.505   4.348   0.463 -0.1952  2.1401 -0.7721
   14CHTO  C116 5512   5.661   4.287   0.593  0.1268  0.1629 -0.4962
   14CHTO  H220 5513   5.705   4.322   0.689 -0.5284  2.9069 -1.1720
   14CHTO   O79 5514   5.625   4.155   0.610 -0.9127 -0.3008  0.5498
   14CHTO  H201 5515   5.699   4.107   0.642 -0.8060  0.8889  2.1459
   14CHTO  C120 5516   5.765   4.312   0.473  0.3980 -0.2332  0.1098
   14CHTO  H224 5517   5.709   4.277   0.383  1.6086 -3.1687  0.4317
   14CHTO   N21 5518   5.888   4.230   0.484  0.0915 -0.5045 -0.0879
   14CHTO  H211 5519   5.971   4.229   0.414 -0.8052  0.9241 -1.2051
   14CHTO  H212 5520   5.923   4.244   0.585 -0.1072 -3.9212  0.5295
   14CHTO   O75 5521   5.416   4.373   0.653  0.2232 -0.1034 -0.2564
   14CHTO  C112 5522   5.308   4.269   0.597  0.1188 -0.2353  0.2554
   14CHTO  H216 5523   5.365   4.176   0.584  0.1366 -0.4413  1.7524
   14CHTO   O73 5524   5.256   4.319   0.473  0.3164  0.1465  0.0764
   14CHTO  C113 5525   5.198   4.212   0.392 -0.1861 -0.3299 -0.4751
   14CHTO  H217 5526   5.262   4.123   0.377  2.3678  1.5875 -1.3144
   14CHTO  C124 5527   5.168   4.263   0.256 -0.0020 -0.0197  0.2743
   14CHTO   O83 5528   5.169   4.154   0.156  0.5991 -0.1851  0.9121
   14CHTO  H204 5529   5.254   4.126   0.127  0.5353 -0.4432  0.9810
   14CHTO  C109 5530   5.066   4.174   0.468 -0.1060  0.8267 -0.0049
   14CHTO  H213 5531   5.004   4.264   0.469  1.7007  2.1237  2.7411
   14CHTO  C110 5532   5.092   4.142   0.620  0.1823  0.5181  0.3754
   14CHTO  H214 5533   5.128   4.040   0.634 -0.5225 -0.0775 -2.0184
   14CHTO   O78 5534   4.958   4.144   0.684 -0.6774  0.5146 -0.2312
   14CHTO  H200 5535   4.926   4.232   0.694 -1.3596  0.1572  0.7562
   14CHTO  C111 5536   5.192   4.244   0.696  0.7170  0.6050  0.1298
   14CHTO  H215 5537   5.138   4.338   0.715 -0.2636  0.2676 -0.8981
   14CHTO   N19 5538   5.228   4.182   0.827 -0.0282  0.3026  0.0048
   14CHTO  H207 5539   5.239   4.075   0.818 -1.3507  0.1306  0.3670
   14CHTO  H208 5540   5.154   4.207   0.901  0.7579 -1.3307  1.3735
   14CHTO   O74 5541   5.006   4.065   0.405  0.2086  0.1604 -0.0869
   14CHTO  C115 5542   4.843   4.076   0.404 -0.1215  0.2623  0.4492
   14CHTO  H219 5543   4.805   4.129   0.491  0.8439  2.4583 -0.4219
   14CHTO   O76 5544   4.780   4.158   0.273 -0.1261  0.2455 -0.2080
   14CHTO  C122 5545   4.784   4.069   0.162  0.5182 -0.5226 -0.1333
   14CHTO  H226 5546   4.882   4.022   0.152 -0.1143 -1.8166 -0.4265
   14CHTO  C126 5547   4.766   4.140   0.023 -0.4498 -0.6519  0.0567
   14CHTO   O85 5548   4.866   4.241  -0.005 -0.6169 -0.2334  0.0432
   14CHTO  H206 5549   4.830   4.305  -0.062  1.4432  0.5302 -0.4326
   14CHTO  C121 5550   4.680   3.947   0.174  0.5014  0.1426 -0.4966
   14CHTO  H225 5551   4.581   3.980   0.135  0.1771  0.6449  0.7062
   14CHTO   O81 5552   4.722   3.830   0.109  0.6467 -0.1165  0.1352
   14CHTO  H202 5553   4.698   3.829   0.018 -0.0814  0.1100  0.3242
   14CHTO  C119 5554   4.649   3.921   0.327 -0.4139  0.3623  0.9481
   14CHTO  H223 5555   4.585   3.998   0.369  0.8509  0.1489  3.3474
   14CHTO  C117 5556   4.791   3.928   0.407  0.1528 -1.0252 -0.3062
   14CHTO  H221 5557   4.867   3.863   0.364 -0.8537 -2.8681  0.6314
   14CHTO   N20 5558   4.776   3.874   0.546  0.1989  0.1410  0.1683
   14CHTO  H209 5559   4.813   3.941   0.621 -0.5707 -2.0110  2.5344
   14CHTO  H210 5560   4.673   3.850   0.566  0.5819 -0.7368  1.1285
   14CHTO   O80 5561   4.553   3.770   0.351  0.1229 -0.1198  0.4368
   14CHTO  C103 5562   4.454   3.732   0.241  0.3635  0.1756  0.1816
   14CHTO  H190 5563   4.474   3.789   0.150  1.0663 -0.0829  0.1729
   14CHTO  C101 5564   4.421   3.575   0.192  0.3959  0.0763 -0.2628
   14CHTO  H188 5565   4.411   3.507   0.277  1.8459 -1.2512 -1.1195
   14CHTO   O68 5566   4.538   3.524   0.135  0.0569  0.8120  0.1629
   14CHTO  H168 5567   4.524   3.445   0.086  1.4017  0.1932  0.7500
   14CHTO   C99 5568   4.297   3.554   0.092  0.6085  0.8094  0.3108
   14CHTO  H186 5569   4.316   3.593  -0.011 -1.9494  0.0595 -0.4927
   14CHTO   N17 5570   4.258   3.412   0.065  0.1457  0.2573 -0.2309
   14CHTO  H174 5571   4.173   3.415  -0.001  1.0146  0.7144 -1.3419
   14CHTO  H175 5572   4.345   3.361   0.026  0.8730  0.0977  1.5396
   14CHTO   C97 5573   4.175   3.635   0.141  0.4662 -0.2074  0.0639
   14CHTO  H184 5574   4.110   3.591   0.217  0.3819  2.7095  1.7460
   14CHTO   O64 5575   4.221   3.769   0.185  0.6753  0.2285  0.2961
   14CHTO  C104 5576   4.315   3.780   0.291 -0.4973 -0.5509  0.4348
   14CHTO  H191 5577   4.288   3.729   0.384  0.2597  0.6566  1.3305
   14CHTO  C108 5578   4.310   3.929   0.329 -0.2514  0.6254 -0.1403
   14CHTO   O71 5579   4.344   3.942   0.469  0.2211  0.3122  0.2574
   14CHTO  H171 5580   4.432   3.914   0.486  0.4682  0.5465 -0.6276
   14CHTO   O62 5581   4.086   3.656   0.027  0.1251 -0.0480  0.1602
   14CHTO   C91 5582   3.960   3.718   0.052 -0.2941 -0.1015 -0.2143
   14CHTO  H178 5583   3.907   3.673   0.137 -2.0727  1.0361 -0.6774
   14CHTO   C92 5584   3.872   3.676  -0.065  0.4299 -0.1004  0.0054
   14CHTO  H179 5585   3.892   3.569  -0.080  0.9226  0.0724 -0.5759
   14CHTO   O66 5586   3.734   3.690  -0.029 -0.0744 -0.3877 -0.5247
   14CHTO  H166 5587   3.719   3.649   0.054 -1.9286  1.7985  0.2530
   14CHTO   C93 5588   3.891   3.765  -0.193  0.2985  0.2675 -0.2477
   14CHTO  H180 5589   3.804   3.737  -0.255  0.1643 -2.4434  1.0584
   14CHTO   N16 5590   4.008   3.733  -0.278  0.1247  0.4820 -0.4528
   14CHTO  H172 5591   3.995   3.800  -0.362 -0.8050 -0.2636 -0.9162
   14CHTO  H173 5592   4.004   3.628  -0.304 -0.0982  0.0388  1.2776
   14CHTO   C94 5593   3.894   3.920  -0.162 -0.1396  0.0643 -0.5281
   14CHTO  H181 5594   3.991   3.965  -0.181 -0.2361 -0.3477 -2.0422
   14CHTO   O61 5595   3.859   3.939  -0.024 -0.3229 -0.1300  0.2938
   14CHTO   C95 5596   3.955   3.878   0.063  0.1670  0.5565  0.0459
   14CHTO  H182 5597   4.054   3.919   0.041  0.7664 -1.1212 -0.4441
   14CHTO  C106 5598   3.907   3.925   0.201 -0.3344 -0.1686  0.7970
   14CHTO   O69 5599   3.965   4.056   0.240 -0.3573  0.0707 -0.5366
   14CHTO  H169 5600   3.947   4.079   0.329 -0.5903 -3.0925  0.2936
   14CHTO   O63 5601   3.785   3.991  -0.246 -0.2830  0.1707  0.3455
   14CHTO   C96 5602   3.745   4.141  -0.215 -0.3471  0.3939 -0.5862
   14CHTO  H183 5603   3.801   4.173  -0.126 -0.6631  1.2669 -0.6977
   14CHTO   C98 5604   3.595   4.170  -0.194  0.5821 -0.6529 -0.7106
   14CHTO  H185 5605   3.539   4.145  -0.286  0.6653  0.9606 -1.2225
   14CHTO   O67 5606   3.545   4.091  -0.085  0.3859  0.3987 -0.1913
   14CHTO  H167 5607   3.614   4.054  -0.032 -1.3558 -1.3714  0.9086
   14CHTO  C102 5608   3.562   4.328  -0.162  0.1130 -0.5285  0.2367
   14CHTO  H189 5609   3.594   4.348  -0.059 -0.2230  0.8377  0.0937
   14CHTO   N18 5610   3.417   4.357  -0.166  0.3106 -0.6754  0.0940
   14CHTO  H176 5611   3.387   4.440  -0.104  0.7876  0.8458 -1.6740
   14CHTO  H177 5612   3.399   4.371  -0.272 -0.7867 -0.5021  0.2987
   14CHTO  C105 5613   3.646   4.417  -0.257  0.0789 -0.5603  0.2476
   14CHTO  H192 5614   3.598   4.417  -0.355 -0.0456 -1.9384  0.2985
   14CHTO   O65 5615   3.780   4.370  -0.269 -0.4268 -0.1047  0.0220
   14CHTO  C100 5616   3.793   4.233  -0.326 -0.2781 -0.3230 -0.0343
   14CHTO  H187 5617   3.722   4.222  -0.409  0.1225 -1.8266 -0.1840
   14CHTO  C107 5618   3.930   4.198  -0.373 -0.0545 -0.2161 -0.1420
   14CHTO   O70 5619   3.985   4.272  -0.483 -0.2876 -0.3346 -0.2515
   14CHTO  H170 5620   3.991   4.226  -0.564  0.7344  0.1670 -0.4604
   14CHTO   O57 5621   3.647   4.565  -0.187 -0.6615 -0.3929  0.6600
   14CHTO   C85 5622   3.607   4.682  -0.256 -0.1381 -0.3008 -0.3596
   14CHTO  H157 5623   3.505   4.657  -0.294  0.2081 -2.6796  0.1687
   14CHTO   C83 5624   3.692   4.713  -0.388 -0.2304 -0.5837 -0.0210
   14CHTO  H155 5625   3.683   4.623  -0.448 -2.5420  0.9852 -2.0795
   14CHTO   O56 5626   3.834   4.724  -0.351  0.2770  0.1953 -0.0917
   14CHTO  H135 5627   3.877   4.642  -0.366  0.3045  0.1295  0.3377
   14CHTO   C81 5628   3.632   4.833  -0.461 -0.4541  0.4051 -0.1261
   14CHTO  H153 5629   3.530   4.804  -0.487  0.1619 -1.9188 -0.0815
   14CHTO   N14 5630   3.693   4.855  -0.598  0.1087  0.0837 -0.4654
   14CHTO  H141 5631   3.629   4.918  -0.656 -0.4118 -0.4768 -0.5012
   14CHTO  H142 5632   3.792   4.893  -0.586 -0.1424  0.4062  0.6838
   14CHTO   C79 5633   3.636   4.959  -0.364 -0.4443 -0.5817  0.5398
   14CHTO  H151 5634   3.578   5.038  -0.413  0.7912  0.9903  1.5587
   14CHTO   O52 5635   3.573   4.935  -0.238  0.4891  0.1567 -0.6737
   14CHTO   C86 5636   3.608   4.812  -0.171  0.1615  0.1738 -0.5425
   14CHTO  H158 5637   3.709   4.829  -0.128 -0.9018 -0.9064  2.5047
   14CHTO   C90 5638   3.519   4.793  -0.047 -0.5973  0.0933  0.1560
   14CHTO   O60 5639   3.492   4.913   0.025  0.1685  0.1172  0.6348
   14CHTO  H138 5640   3.415   4.951  -0.012  0.1557  0.1627  0.7091
   14CHTO   O50 5641   3.773   5.010  -0.343  0.0610  0.2949  0.4942
   14CHTO   C73 5642   3.811   5.139  -0.283 -0.3160 -0.2971 -0.4212
   14CHTO  H145 5643   3.748   5.161  -0.195 -1.1009  0.1609 -1.0957
   14CHTO   C74 5644   3.799   5.245  -0.400  0.1744 -0.0332 -0.1389
   14CHTO  H146 5645   3.695   5.226  -0.429  0.3555 -2.7343  0.7800
   14CHTO   O54 5646   3.802   5.374  -0.343 -0.1074 -0.0315 -0.2824
   14CHTO  H133 5647   3.856   5.439  -0.383  0.3289  0.0603  0.4339
   14CHTO   C75 5648   3.901   5.216  -0.513 -0.3552 -0.2003 -0.1020
   14CHTO  H147 5649   3.877   5.121  -0.562 -0.2100 -0.3132  0.0455
   14CHTO   N13 5650   3.897   5.313  -0.626  0.8544 -0.1900 -0.3385
   14CHTO  H139 5651   3.829   5.392  -0.597  3.3548  1.3858  1.3648
   14CHTO  H140 5652   3.849   5.263  -0.709  0.6293 -2.6169  1.1908
   14CHTO   C76 5653   4.050   5.201  -0.450  0.3215  0.3554 -0.0606
   14CHTO  H148 5654   4.072   5.301  -0.415 -0.7212  0.4571  0.3180
   14CHTO   O49 5655   4.046   5.103  -0.341  0.2508  0.5215 -0.9737
   14CHTO   C77 5656   3.960   5.137  -0.234  0.3953 -0.2058  1.2185
   14CHTO  H149 5657   3.987   5.235  -0.196 -0.3591  0.3711  0.3062
   14CHTO   C88 5658   3.979   5.036  -0.121 -0.6223 -0.1090 -0.2410
   14CHTO   O58 5659   3.902   5.063  -0.007 -0.9467 -0.0651  0.9212
   14CHTO  H136 5660   3.941   5.029   0.072 -1.2036 -1.6178  0.3863
   14CHTO   O51 5661   4.165   5.154  -0.556 -0.3402 -0.3384  0.0672
   14CHTO   C78 5662   4.319   5.214  -0.504 -0.4503 -0.2396  0.4488
   14CHTO  H150 5663   4.322   5.216  -0.393 -3.0000 -0.4958  0.5675
   14CHTO   C80 5664   4.341   5.357  -0.565 -0.4701  0.0874 -0.4825
   14CHTO  H152 5665   4.348   5.350  -0.676 -0.9580 -0.1182 -0.5000
   14CHTO   O55 5666   4.229   5.441  -0.535 -0.2807  0.2900  0.3194
   14CHTO  H134 5667   4.159   5.386  -0.565  0.3320 -0.3425  0.0366
   14CHTO   C84 5668   4.480   5.402  -0.508 -0.0257  0.0383 -0.5786
   14CHTO  H156 5669   4.472   5.410  -0.400 -2.8734 -0.9101 -0.6730
   14CHTO   N15 5670   4.526   5.542  -0.542 -0.1375  0.3054 -0.1042
   14CHTO  H143 5671   4.594   5.581  -0.469  0.6299  0.7338 -1.0353
   14CHTO  H144 5672   4.439   5.603  -0.553 -0.4398 -0.2008 -0.5313
   14CHTO   C87 5673   4.588   5.301  -0.556  0.8383  0.4254  0.8219
   14CHTO  H159 5674   4.589   5.297  -0.665 -4.9603 -1.6111  0.6842
   14CHTO   O53 5675   4.558   5.159  -0.511 -0.4383 -0.1087 -0.0774
   14CHTO   C82 5676   4.426   5.123  -0.561  0.2070 -0.5008 -0.6855
   14CHTO  H154 5677   4.428   5.118  -0.669  2.2943 -0.4870 -0.6660
   14CHTO   C89 5678   4.395   4.978  -0.507 -0.6915 -0.3938  0.6583
   14CHTO   O59 5679   4.472   4.871  -0.569 -0.1179  0.0158 -0.3041
   14CHTO  H137 5680   4.418   4.825  -0.630  1.6144 -0.5671 -1.4565
   14CHTO   O45 5681   4.740   5.345  -0.500  0.2149  0.0163 -0.0193
   14CHTO   C67 5682   4.849   5.282  -0.567 -0.4781 -0.3242  0.8962
   14CHTO  H124 5683   4.933   5.346  -0.540  0.0554 -0.9230  0.6748
   14CHTO   C65 5684   4.884   5.134  -0.523 -0.0281  0.0424 -0.3044
   14CHTO  H122 5685   4.797   5.096  -0.469 -1.8275  0.2288 -2.9730
   14CHTO   O44 5686   4.999   5.148  -0.443  0.3183 -0.1946 -0.0994
   14CHTO  H102 5687   5.003   5.072  -0.388  0.4237  0.5649  0.9590
   14CHTO   C63 5688   4.906   5.041  -0.647 -0.6194  0.7115 -0.1254
   14CHTO  H120 5689   4.820   5.042  -0.714  0.3338 -1.6640 -1.4289
   14CHTO   N11 5690   4.914   4.900  -0.630 -0.7035  0.0853 -0.1981
   14CHTO  H108 5691   4.956   4.855  -0.717  1.3209  0.0609  0.7487
   14CHTO  H109 5692   4.971   4.870  -0.544 -1.1133  0.9397  0.3797
   14CHTO   C61 5693   5.017   5.107  -0.743  0.0899 -0.5919  0.4022
   14CHTO  H118 5694   5.026   5.058  -0.841  2.3039 -0.4683  0.5280
   14CHTO   O40 5695   4.972   5.251  -0.774  0.3933 -0.5759 -0.1395
   14CHTO   C68 5696   4.844   5.296  -0.729 -0.1574  0.4533 -0.4794
   14CHTO  H125 5697   4.764   5.229  -0.767  1.6714 -1.0684 -1.7433
   14CHTO   C72 5698   4.819   5.437  -0.795  0.4332  0.0882  0.6786
   14CHTO   O48 5699   4.805   5.424  -0.934 -0.1018  0.3235  0.5730
   14CHTO  H105 5700   4.881   5.467  -0.968  1.6268 -1.1215  2.4760
   14CHTO   O38 5701   5.147   5.107  -0.679 -0.7787  0.0652 -0.5082
   14CHTO   C55 5702   5.256   5.091  -0.771 -0.2878 -0.3901  0.5366
   14CHTO  H112 5703   5.237   5.137  -0.869 -0.7207 -1.2404  0.2200
   14CHTO   C56 5704   5.293   4.929  -0.779 -0.4806 -0.1265 -0.2238
   14CHTO  H113 5705   5.282   4.896  -0.675 -0.0214  1.2315  0.2768
   14CHTO   O42 5706   5.201   4.858  -0.862  0.5013  0.0296 -0.3054
   14CHTO  H100 5707   5.212   4.765  -0.850 -3.4022 -0.4123  0.4686
   14CHTO   C57 5708   5.446   4.906  -0.828 -0.0918 -0.7539  0.1340
   14CHTO  H114 5709   5.447   4.923  -0.935  1.1900  0.9957  0.4010
   14CHTO   N10 5710   5.499   4.774  -0.794  0.1450 -0.0954 -0.3881
   14CHTO  H106 5711   5.470   4.690  -0.857  2.3792 -2.3554  1.4530
   14CHTO  H107 5712   5.480   4.753  -0.690  2.5881  3.0889  0.7620
   14CHTO   C58 5713   5.546   5.006  -0.761  0.2927  0.1528 -0.1332
   14CHTO  H115 5714   5.549   4.987  -0.651  0.8913  0.4578 -0.0925
   14CHTO   O37 5715   5.504   5.146  -0.776  0.2809  0.3223 -0.2913
   14CHTO   C59 5716   5.376   5.171  -0.711  0.6867  0.4600 -0.0081
   14CHTO  H116 5717   5.398   5.151  -0.607 -0.6680  3.0025  0.8143
   14CHTO   C70 5718   5.353   5.321  -0.729  0.1080  0.5133  0.2375
   14CHTO   O46 5719   5.233   5.373  -0.670  0.3533 -0.1419  0.6982
   14CHTO  H103 5720   5.211   5.457  -0.705 -0.1970 -0.7497 -0.4010
   14CHTO   O39 5721   5.689   5.003  -0.836  0.1747  0.2786 -0.6747
   14CHTO   C60 5722   5.806   5.025  -0.751 -0.3595 -0.4849  0.3002
   14CHTO  H117 5723   5.784   5.110  -0.686 -0.4479 -0.0814 -0.2470
   14CHTO   C62 5724   5.843   4.905  -0.661 -0.1957 -0.0927 -0.7762
   14CHTO  H119 5725   5.751   4.884  -0.604 -0.0604  0.6608 -0.2671
   14CHTO   O43 5726   5.858   4.784  -0.745 -0.0305 -0.3733 -0.4715
   14CHTO  H101 5727   5.772   4.755  -0.767 -0.3362  0.4576 -0.3951
   14CHTO   C66 5728   5.966   4.939  -0.563 -0.2889  0.1970  0.1692
   14CHTO  H123 5729   5.950   5.036  -0.515  1.5921  0.9741 -0.7106
   14CHTO   N12 5730   5.991   4.834  -0.471 -0.0214 -0.3148 -0.9179
   14CHTO  H110 5731   5.952   4.858  -0.373  0.2415  0.5267 -1.0135
   14CHTO  H111 5732   5.954   4.738  -0.505 -2.0221  0.7711 -1.8610
   14CHTO   C69 5733   6.081   4.971  -0.660 -0.4724  0.5321  0.1220
   14CHTO  H126 5734   6.102   4.873  -0.708 -2.7507 -0.7916  1.7060
   14CHTO   O41 5735   6.053   5.083  -0.756  0.1500  0.7680  0.0611
   14CHTO   C64 5736   5.923   5.069  -0.836  0.3508  0.0010 -0.1175
   14CHTO  H121 5737   5.925   4.999  -0.923  1.6051  3.1495 -2.7253
   14CHTO   C71 5738   5.889   5.211  -0.898  0.1922  0.4380  0.9592
   14CHTO   O47 5739   5.989   5.242  -1.006  0.2941  0.6098 -0.8097
   14CHTO  H104 5740   6.062   5.297  -0.984  1.7580 -0.7695 -2.0338
   14CHTO   O34 5741   6.201   5.006  -0.584  0.1483  0.1670 -0.4331
   14CHTO   C49 5742   6.332   5.065  -0.535 -0.2074 -0.6621 -0.2602
   14CHTO   H91 5743   6.410   5.046  -0.609  0.6848  1.4333  0.1005
   14CHTO   C47 5744   6.365   4.988  -0.406 -0.1708 -0.1394 -0.4693
   14CHTO   H89 5745   6.466   5.020  -0.375 -0.9871  0.2126  1.9124
   14CHTO   O33 5746   6.366   4.852  -0.429  0.4284 -0.4806  0.1158
   14CHTO   H70 5747   6.287   4.833  -0.476  1.7360 -4.7068 -0.5598
   14CHTO   C45 5748   6.274   5.018  -0.276  0.5158 -0.3219  0.6190
   14CHTO   H87 5749   6.202   4.935  -0.269  1.4003 -1.1877 -0.5150
   14CHTO    N8 5750   6.352   5.023  -0.148  0.1738 -0.5498  0.5447
   14CHTO   H75 5751   6.371   4.926  -0.105  0.5891 -0.2265  1.1068
   14CHTO   H76 5752   6.289   5.072  -0.076  1.7217 -0.6188  1.9779
   14CHTO   C43 5753   6.187   5.147  -0.315 -0.4515 -0.1604 -0.0451
   14CHTO   H85 5754   6.117   5.116  -0.393  0.4200  0.7718 -1.2236
   14CHTO   O29 5755   6.277   5.251  -0.364 -0.6577 -0.3024  0.0225
   14CHTO   C50 5756   6.323   5.221  -0.496 -0.1820  0.3124  0.7085
   14CHTO   H92 5757   6.259   5.274  -0.568  1.8398  2.6748  0.5988
   14CHTO   C54 5758   6.463   5.279  -0.527 -0.1040  0.3800 -0.6825
   14CHTO   O36 5759   6.475   5.417  -0.505  0.9381  0.0301  0.1038
   14CHTO   H72 5760   6.560   5.449  -0.529  0.6952 -0.3113 -1.2636
   14CHTO   O27 5761   6.106   5.193  -0.209 -0.2779 -0.3347  0.6449
   14CHTO   C37 5762   5.966   5.220  -0.198 -0.0084 -0.1230  0.2594
   14CHTO   H79 5763   5.947   5.277  -0.105 -0.0379  1.2325 -0.5680
   14CHTO   C38 5764   5.915   5.303  -0.323  0.0513  0.4881  0.1294
   14CHTO   H80 5765   5.960   5.264  -0.416  0.6506 -0.4348  0.7918
   14CHTO   O31 5766   5.968   5.437  -0.308 -0.3343  0.5517 -0.6673
   14CHTO   H68 5767   5.987   5.479  -0.390  1.1320 -1.3618 -1.3568
   14CHTO   C39 5768   5.754   5.314  -0.333 -0.4401  0.3285 -0.5936
   14CHTO   H81 5769   5.720   5.390  -0.263 -2.1869 -1.1157  0.1630
   14CHTO    N7 5770   5.709   5.353  -0.466 -0.3694 -0.6295  0.0424
   14CHTO   H73 5771   5.751   5.452  -0.474  1.3922 -1.4383 -0.7588
   14CHTO   H74 5772   5.758   5.288  -0.537  1.4479  0.7549  0.0060
   14CHTO   C40 5773   5.697   5.171  -0.290 -0.4963  0.9048 -0.6034
   14CHTO   H82 5774   5.708   5.097  -0.369  2.2166  0.5190  0.0851
   14CHTO   O26 5775   5.756   5.124  -0.167 -0.3516  0.1635  0.5972
   14CHTO   C41 5776   5.889   5.086  -0.188 -0.0206  0.2943 -0.1217
   14CHTO   H83 5777   5.905   5.027  -0.279  1.1130  0.3193  0.0540
   14CHTO   C52 5778   5.929   4.998  -0.062  0.1380  0.4685  0.6321
   14CHTO   O35 5779   5.931   4.847  -0.096 -0.0291 -0.6702  0.2708
   14CHTO   H71 5780   5.998   4.833  -0.160  0.0642 -2.7526  0.7879
   14CHTO   O28 5781   5.558   5.194  -0.240  0.6338  0.1442  0.3637
   14CHTO   C42 5782   5.469   5.084  -0.191  0.0383  0.3375 -0.1002
   14CHTO   H84 5783   5.526   5.019  -0.124  1.0291  2.2228  0.9227
   14CHTO   C44 5784   5.411   4.990  -0.300 -0.2706  0.8373 -0.1205
   14CHTO   H86 5785   5.382   5.047  -0.388 -1.9393 -2.1738 -1.6175
   14CHTO   O32 5786   5.527   4.910  -0.338 -0.1409  0.4630 -0.5856
   14CHTO   H69 5787   5.553   4.925  -0.427 -1.4439  0.8013 -0.9225
   14CHTO   C48 5788   5.297   4.898  -0.246  0.0856  0.1820  0.4263
   14CHTO   H90 5789   5.321   4.831  -0.164 -0.5397 -1.2590 -0.5380
   14CHTO    N9 5790   5.239   4.824  -0.359  0.1672 -0.0581 -0.0657
   14CHTO   H77 5791   5.147   4.774  -0.332  0.2849 -0.6441 -0.7538
   14CHTO   H78 5792   5.208   4.895  -0.434  2.1937  0.3816 -0.5130
   14CHTO   C51 5793   5.197   4.996  -0.170  0.4324 -0.6456  0.2977
   14CHTO   H93 5794   5.173   5.076  -0.240  1.7707 -0.6204 -0.1501
   14CHTO   O30 5795   5.271   5.042  -0.060 -0.2502 -0.2238  0.3706
   14CHTO   C46 5796   5.355   5.141  -0.105 -0.1482 -0.1336  0.1950
   14CHTO   H88 5797   5.295   5.204  -0.170 -0.7912 -0.9893 -0.0447
   14CHTO   C53 5798   5.403   5.226   0.013 -0.6440 -0.0507 -0.2640
   14CHTO   O72 5799   5.305   5.305   0.081  0.1367 -0.2260 -0.1450
   14CHTO  H199 5800   5.242   5.246   0.119 -1.7558 -0.1185 -2.9939
   14CHTO   O22 5801   5.070   4.943  -0.118 -0.1621 -0.0684  0.5145
   14CHTO   C31 5802   4.945   5.001  -0.164 -0.0338  0.0437  0.5423
   14CHTO   H59 5803   4.961   5.053  -0.261  2.7311 -1.4504  0.1437
   14CHTO   C29 5804   4.837   4.890  -0.192 -1.1365  0.8618 -0.2640
   14CHTO   H57 5805   4.841   4.830  -0.100 -0.3015  2.6299  0.8797
   14CHTO   O21 5806   4.888   4.806  -0.295 -0.8392  0.2236 -0.2948
   14CHTO   H37 5807   4.830   4.737  -0.322 -1.9737  1.4913 -1.1880
   14CHTO   C27 5808   4.691   4.947  -0.218 -0.6892 -0.6653 -0.3211
   14CHTO   H55 5809   4.689   4.994  -0.317 -0.8655  0.0761  0.0334
   14CHTO    N5 5810   4.583   4.845  -0.203  0.3755  0.2129 -0.3396
   14CHTO   H43 5811   4.525   4.828  -0.293  3.0225 -0.8581 -1.9217
   14CHTO   H44 5812   4.625   4.750  -0.173 -0.2741 -0.0876 -0.3755
   14CHTO   C25 5813   4.657   5.066  -0.121  0.9315 -0.0228 -0.4459
   14CHTO   H53 5814   4.629   5.035  -0.019  0.0104  2.0578 -0.0364
   14CHTO   O17 5815   4.769   5.160  -0.099 -0.1428 -0.7308 -0.3813
   14CHTO   C32 5816   4.900   5.107  -0.056  0.0118  0.6372 -0.4296
   14CHTO   H60 5817   4.897   5.061   0.043  1.0086  0.8168 -0.3127
   14CHTO   C36 5818   4.983   5.238  -0.057  0.6826  0.3620  0.4047
   14CHTO   O25 5819   4.937   5.311   0.059  0.2221  0.1280 -0.1312
   14CHTO   H40 5820   5.010   5.363   0.084  0.0445  1.5256 -2.3390
   14CHTO   O15 5821   4.533   5.146  -0.188 -0.3865 -0.1098 -0.3823
   14CHTO   C19 5822   4.483   5.264  -0.113 -0.5266 -1.0348  0.1902
   14CHTO   H47 5823   4.414   5.308  -0.186 -0.1609  2.1127  1.6533
   14CHTO   C20 5824   4.394   5.222   0.015  0.1669  0.0490  0.0289
   14CHTO   H48 5825   4.457   5.181   0.096  1.9871  4.2317  0.8383
   14CHTO   O19 5826   4.301   5.119  -0.020  0.3555  0.5733  0.7282
   14CHTO   H35 5827   4.253   5.131  -0.100 -0.6924 -1.4393  1.0296
   14CHTO   C21 5828   4.312   5.344   0.073  0.5025 -0.0402  0.0402
   14CHTO   H49 5829   4.245   5.381  -0.004 -0.3191  1.6752  1.5531
   14CHTO    N4 5830   4.245   5.319   0.198  0.5393  0.0361  0.5193
   14CHTO   H41 5831   4.186   5.230   0.181  1.3210 -0.1987 -1.1334
   14CHTO   H42 5832   4.310   5.285   0.276 -0.1770 -1.1531  0.6097
   14CHTO   C22 5833   4.412   5.456   0.102 -0.9899 -0.1943  0.1897
   14CHTO   H50 5834   4.469   5.436   0.192  1.5809 -0.0497 -1.3538
   14CHTO   O14 5835   4.496   5.484  -0.010  0.3910  0.6482  0.2124
   14CHTO   C23 5836   4.575   5.378  -0.068 -0.2538 -0.5701  0.7915
   14CHTO   H51 5837   4.654   5.344   0.000  0.8857 -0.1013 -0.2568
   14CHTO   C34 5838   4.644   5.444  -0.184  0.4325 -0.2134 -0.2979
   14CHTO   O23 5839   4.724   5.555  -0.140 -0.4124  0.0256 -0.0844
   14CHTO   H38 5840   4.680   5.631  -0.107  0.8802  0.4151  0.7513
   14CHTO   O16 5841   4.347   5.583   0.111  0.2125 -0.9864  0.2481
   14CHTO   C24 5842   4.449   5.712   0.141 -0.5116  0.0882 -0.9672
   14CHTO   H52 5843   4.542   5.707   0.084  0.5716  1.6803  0.5883
   14CHTO   C26 5844   4.494   5.717   0.289  0.2364  0.5977  0.3153
   14CHTO   H54 5845   4.400   5.725   0.348 -0.1429  1.0227 -0.3307
   14CHTO   O20 5846   4.574   5.602   0.324  0.1438 -0.5723  0.2998
   14CHTO   H36 5847   4.663   5.605   0.294  0.4419  1.6528  1.2730
   14CHTO   C30 5848   4.571   5.855   0.308 -0.0462 -0.5166 -0.1496
   14CHTO   H58 5849   4.658   5.851   0.241 -0.2638  0.6767 -0.5285
   14CHTO    N6 5850   4.626   5.872   0.451 -0.0299  0.2135 -0.1225
   14CHTO   H45 5851   4.730   5.902   0.452 -0.4749  1.7934  0.4925
   14CHTO   H46 5852   4.609   5.783   0.509 -4.6703  2.0843  1.6213
   14CHTO   C33 5853   4.484   5.974   0.258  0.2255 -0.7093 -0.1374
   14CHTO   H61 5854   4.387   5.970   0.309  0.8520 -1.7395  0.9836
   14CHTO   O18 5855   4.463   5.948   0.114 -0.1110 -0.5424  0.0125
   14CHTO   C28 5856   4.374   5.842   0.095  0.0711 -0.1243 -0.6705
   14CHTO   H56 5857   4.285   5.855   0.156  0.1855 -1.9089 -0.1059
   14CHTO   C35 5858   4.336   5.837  -0.052  0.0323  0.0447  0.0005
   14CHTO   O24 5859   4.449   5.805  -0.134  0.4585 -0.0116  0.0136
   14CHTO   H39 5860   4.421   5.817  -0.223 -0.7197 -1.1013  0.2229
   14CHTO    O9 5861   4.534   6.110   0.284 -0.2820  0.0878 -0.2343
   14CHTO   C13 5862   4.678   6.144   0.193  0.1001  0.4787  0.0139
   14CHTO   H26 5863   4.697   6.053   0.132  2.2929 -0.7275  2.4031
   14CHTO   C11 5864   4.793   6.170   0.302  0.1516 -0.4184  0.2626
   14CHTO   H24 5865   4.804   6.075   0.356  2.4007 -0.3348  0.0007
   14CHTO    O8 5866   4.759   6.271   0.404  0.0615 -0.1113  0.2322
   14CHTO    H3 5867   4.704   6.340   0.373 -0.4868 -0.3096  0.7702
   14CHTO    C9 5868   4.924   6.199   0.225  0.0734  0.8372  0.6262
   14CHTO   H22 5869   4.938   6.118   0.152  1.3798  0.0019  1.7675
   14CHTO    N2 5870   5.050   6.203   0.305 -0.5665  0.4986  0.2471
   14CHTO   H10 5871   5.029   6.187   0.409  0.7994  1.0683  0.6214
   14CHTO   H11 5872   5.099   6.299   0.293  1.8247 -0.7717 -0.4842
   14CHTO    C7 5873   4.901   6.332   0.146  0.4696  0.0537  0.7440
   14CHTO   H20 5874   4.998   6.355   0.098 -0.0007 -0.4040 -0.4405
   14CHTO    O4 5875   4.797   6.314   0.046 -0.3081 -0.0596 -0.2238
   14CHTO   C14 5876   4.669   6.269   0.090  0.6942  0.3934 -0.5797
   14CHTO   H27 5877   4.617   6.238  -0.003  0.2588 -1.7339  0.3480
   14CHTO   C18 5878   4.580   6.389   0.150 -0.1018  0.0566  0.7422
   14CHTO   O13 5879   4.531   6.467   0.038  0.3735  0.7645  0.4468
   14CHTO    H7 5880   4.474   6.527   0.083  0.5362  1.2847 -0.0418
   14CHTO    O2 5881   4.859   6.480   0.254  0.3343 -0.0893 -0.3945
   14CHTO    C1 5882   4.944   6.596   0.258 -0.0067 -0.6197  0.9439
   14CHTO   H14 5883   4.998   6.611   0.162  2.2826  3.1838  2.7042
   14CHTO    C2 5884   5.062   6.594   0.365 -0.3586 -0.2087 -0.2639
   14CHTO   H15 5885   5.011   6.560   0.456  0.1757 -1.2090 -0.3356
   14CHTO    O6 5886   5.154   6.498   0.323 -0.3456  0.1122  0.2842
   14CHTO    H1 5887   5.241   6.500   0.357 -0.2745 -1.1500  0.2206
   14CHTO    C3 5888   5.126   6.737   0.385 -0.1570  0.5212 -0.5279
   14CHTO   H16 5889   5.179   6.761   0.291  1.1818  1.5210  0.4528
   14CHTO    N1 5890   5.233   6.737   0.492  0.1557  0.0530  0.1937
   14CHTO    H8 5891   5.328   6.766   0.449  0.5441  0.1496  1.1169
   14CHTO    H9 5892   5.212   6.798   0.579  2.2560 -1.6036  1.9176
   14CHTO    C4 5893   5.014   6.848   0.408 -0.0569 -0.0403 -0.1690
   14CHTO   H17 5894   4.958   6.822   0.497  1.0243 -1.4143  0.1297
   14CHTO    O1 5895   4.929   6.847   0.290  0.0524  0.6617  0.4438
   14CHTO    C5 5896   4.854   6.721   0.274 -0.2085 -0.3168  0.5684
   14CHTO   H18 5897   4.787   6.721   0.360 -0.0303  1.7877  0.7214
   14CHTO   C16 5898   4.764   6.739   0.152  0.4851  0.0788  0.2791
   14CHTO   O11 5899   4.661   6.835   0.185 -0.5114  0.3216 -0.2849
   14CHTO    H5 5900   4.577   6.799   0.205  0.2296 -2.3228 -1.7269
   14CHTO    O3 5901   5.065   6.984   0.434  0.3011 -0.2633 -0.5212
   14CHTO    C6 5902   4.969   7.095   0.475  0.0357 -0.1924  0.1938
   14CHTO   H19 5903   4.862   7.072   0.468  0.0104  0.6021 -2.4508
   14CHTO    C8 5904   5.007   7.138   0.623 -0.5130  0.0253 -0.2429
   14CHTO   H21 5905   5.113   7.161   0.630 -0.4713 -0.5989  1.6053
   14CHTO    O7 5906   4.973   7.024   0.705 -0.4395  0.2021 -0.2987
   14CHTO    H2 5907   4.960   7.045   0.795  0.9524  2.7705 -0.6651
   14CHTO   C12 5908   4.918   7.266   0.667 -0.2351 -0.1032 -0.9940
   14CHTO   H25 5909   4.808   7.253   0.666 -0.2804 -0.1105  1.2800
   14CHTO    N3 5910   4.949   7.296   0.807 -0.4690 -0.0355 -0.5573
   14CHTO   H12 5911   5.040   7.250   0.843  0.5185  2.6259  0.4432
   14CHTO   H13 5912   4.961   7.401   0.825  0.9647 -0.3833  0.5746
   14CHTO   C15 5913   4.948   7.374   0.562 -0.3253 -0.0979  1.1737
   14CHTO   H28 5914   5.052   7.407   0.563 -0.3505  0.2032 -1.8537
   14CHTO   O10 5915   4.859   7.493   0.586 -0.2952 -0.4408  0.1240
   14CHTO    H4 5916   4.845   7.543   0.507  2.7594  0.3773  0.0353
   14CHTO    O5 5917   4.907   7.326   0.433  0.0679 -0.9035  0.6486
   14CHTO   C10 5918   4.993   7.219   0.387 -0.2781  0.5354  0.1400
   14CHTO   H23 5919   5.097   7.250   0.402  0.8402 -2.9361 -0.0619
   14CHTO   C17 5920   4.975   7.192   0.240 -0.5646  0.2654  0.2433
   14CHTO   O12 5921   5.045   7.093   0.164  0.0954  0.0728  0.2675
   14CHTO    H6 5922   4.986   7.020   0.162 -0.1695  0.2714  0.6360
   15CHTO  H203 5923   5.876   4.602   2.359  1.5307  0.0901 -1.0521
   15CHTO   O82 5924   5.867   4.527   2.303  0.0946 -0.3353 -0.2663
   15CHTO  C123 5925   5.731   4.510   2.266 -0.0753  0.4628  1.2976
   15CHTO  H227 5926   5.697   4.600   2.213  0.8550 -0.1762 -0.4152
   15CHTO   O77 5927   5.733   4.389   2.175  0.3479 -0.4649 -0.0398
   15CHTO  C118 5928   5.603   4.352   2.128  0.0727 -1.0635  0.0778
   15CHTO  H222 5929   5.563   4.438   2.073 -0.9209 -0.8470  1.1069
   15CHTO  C125 5930   5.624   4.236   2.023  0.1348 -0.1252 -0.6603
   15CHTO   O84 5931   5.681   4.124   2.090 -0.1053  0.3953 -0.3635
   15CHTO  H205 5932   5.701   4.061   2.023 -1.6874 -0.0102 -0.4639
   15CHTO  C114 5933   5.513   4.304   2.236  0.2470 -0.0607  0.0093
   15CHTO  H218 5934   5.554   4.219   2.290 -2.4769 -1.8151 -0.5662
   15CHTO  C116 5935   5.499   4.413   2.342  0.3328  0.2072  0.3158
   15CHTO  H220 5936   5.444   4.504   2.311 -0.3782 -0.9220 -1.8895
   15CHTO   O79 5937   5.434   4.353   2.462  0.2209  0.4969  0.1355
   15CHTO  H201 5938   5.379   4.419   2.499  1.5038  0.1164  2.8774
   15CHTO  C120 5939   5.640   4.472   2.390 -0.4639  0.3488  0.5497
   15CHTO  H224 5940   5.698   4.392   2.439  0.8534  1.5156  0.9299
   15CHTO   N21 5941   5.630   4.584   2.490  0.1090  0.8174 -0.0814
   15CHTO  H211 5942   5.713   4.564   2.556 -1.2380 -0.2483  1.3398
   15CHTO  H212 5943   5.532   4.585   2.535 -0.2675  1.3140 -0.8897
   15CHTO   O75 5944   5.384   4.268   2.185 -0.2715  0.0358  0.7307
   15CHTO  C112 5945   5.339   4.113   2.233  0.0458 -0.2200 -0.2969
   15CHTO  H216 5946   5.339   4.115   2.343  1.3836 -1.6916 -0.2535
   15CHTO   O73 5947   5.446   4.020   2.186  0.0037  0.2707 -0.4682
   15CHTO  C113 5948   5.425   3.883   2.229 -0.1666  0.0933  0.1757
   15CHTO  H217 5949   5.425   3.873   2.339  0.9351  1.0340  0.2746
   15CHTO  C124 5950   5.552   3.817   2.189  0.1803  0.7371  0.5071
   15CHTO   O83 5951   5.553   3.684   2.241 -0.3276  0.1685 -0.1750
   15CHTO  H204 5952   5.513   3.623   2.182 -1.1956  0.7224 -0.1649
   15CHTO  C109 5953   5.290   3.825   2.172  0.3964  0.1677 -0.2371
   15CHTO  H213 5954   5.302   3.818   2.063 -0.8830 -1.4350 -0.2892
   15CHTO  C110 5955   5.167   3.926   2.200 -0.3253  0.3418  0.1962
   15CHTO  H214 5956   5.150   3.913   2.307  2.0303 -1.3823  0.3856
   15CHTO   O78 5957   5.055   3.875   2.121 -0.2660  0.0442 -0.0781
   15CHTO  H200 5958   5.030   3.934   2.052 -2.3241 -0.7928 -0.0893
   15CHTO  C111 5959   5.198   4.074   2.170  0.1211 -0.7479 -0.6227
   15CHTO  H215 5960   5.207   4.083   2.061  0.6247 -0.2257 -0.5371
   15CHTO   N19 5961   5.091   4.163   2.219  1.0241 -0.3752 -0.1112
   15CHTO  H207 5962   5.008   4.159   2.150 -1.6844  1.4618  2.9012
   15CHTO  H208 5963   5.065   4.128   2.318  1.2632 -1.7078 -0.5087
   15CHTO   O74 5964   5.274   3.701   2.230  0.0205  1.0995  0.0801
   15CHTO  C115 5965   5.307   3.575   2.132  0.2995  0.2406  0.3171
   15CHTO  H219 5966   5.404   3.583   2.083  0.2885 -1.3822 -0.0141
   15CHTO   O76 5967   5.321   3.438   2.212 -0.3365  0.2341  0.5153
   15CHTO  C122 5968   5.203   3.367   2.255 -0.1859  0.5271  0.5717
   15CHTO  H226 5969   5.168   3.425   2.340 -0.6414  1.6787 -0.3958
   15CHTO  C126 5970   5.234   3.214   2.306 -0.2087  0.0812 -0.1329
   15CHTO   O85 5971   5.297   3.202   2.432  0.0426 -0.1985 -0.0802
   15CHTO  H206 5972   5.310   3.109   2.434  3.0449  0.1421 -1.5901
   15CHTO  C121 5973   5.083   3.370   2.150  0.3219  0.1520 -0.3585
   15CHTO  H225 5974   5.027   3.274   2.141  1.1746 -0.5760  1.7239
   15CHTO   O81 5975   4.985   3.456   2.214  0.1629 -0.3637 -0.1500
   15CHTO  H202 5976   4.915   3.474   2.154  0.4089  2.0815  0.2631
   15CHTO  C119 5977   5.129   3.423   2.010  0.1270 -0.1452 -0.0682
   15CHTO  H223 5978   5.205   3.351   1.980 -2.3187 -2.1211 -1.7650
   15CHTO  C117 5979   5.196   3.563   2.017  0.2831  0.5892 -0.0045
   15CHTO  H221 5980   5.126   3.639   2.051 -0.8843 -1.2006  1.6930
   15CHTO   N20 5981   5.248   3.601   1.884 -0.1816 -0.0934 -0.5140
   15CHTO  H209 5982   5.279   3.705   1.882 -1.2364  0.2582  1.0532
   15CHTO  H210 5983   5.320   3.530   1.847 -0.1391  0.1393 -0.8847
   15CHTO   O80 5984   5.022   3.404   1.894 -0.1961  0.0308 -0.4039
   15CHTO  C103 5985   4.976   3.258   1.842 -0.4033  0.2702 -0.3225
   15CHTO  H190 5986   5.018   3.184   1.910 -1.2370 -0.7795 -0.9226
   15CHTO  C101 5987   4.812   3.244   1.811 -0.6710 -0.4122  0.7560
   15CHTO  H188 5988   4.782   3.326   1.745  1.2631  1.5021  2.1831
   15CHTO   O68 5989   4.741   3.243   1.956 -0.1982  0.9167 -0.1813
   15CHTO  H168 5990   4.782   3.180   2.011  1.9991  2.6372  0.2706
   15CHTO   C99 5991   4.787   3.098   1.745 -0.7132  0.1065  0.1673
   15CHTO  H186 5992   4.815   3.018   1.815  3.2791  1.2791  0.0094
   15CHTO   N17 5993   4.639   3.081   1.708 -0.3849 -0.4173  0.1368
   15CHTO  H174 5994   4.571   3.144   1.764  0.1211 -0.3075  0.6308
   15CHTO  H175 5995   4.633   3.094   1.601  2.1809 -0.4859 -0.0448
   15CHTO   C97 5996   4.881   3.078   1.619  0.5245 -0.0845  0.2247
   15CHTO  H184 5997   4.854   3.142   1.533  0.6248  0.7788  0.8334
   15CHTO   O64 5998   5.014   3.106   1.660  0.2112 -0.4787 -0.7001
   15CHTO  C104 5999   5.044   3.240   1.707 -0.0734  0.5359  0.7850
   15CHTO  H191 6000   5.005   3.316   1.640 -1.5798  0.1868  1.2504
   15CHTO  C108 6001   5.198   3.252   1.713  0.7956  0.1175  0.1152
   15CHTO   O71 6002   5.257   3.169   1.808 -0.1676  0.3126  0.0675
   15CHTO  H171 6003   5.242   3.079   1.788  0.7119  0.1540  0.0724
   15CHTO   O62 6004   4.880   2.940   1.576 -0.6972 -0.1358  0.2090
   15CHTO   C91 6005   4.971   2.907   1.469  0.3564  0.1623  0.1829
   15CHTO  H178 6006   5.007   3.001   1.428 -1.5883 -0.1191 -2.3150
   15CHTO   C92 6007   4.872   2.839   1.369  0.6601  0.6017 -0.9029
   15CHTO  H179 6008   4.770   2.878   1.382  0.1187 -1.4733  1.5859
   15CHTO   O66 6009   4.895   2.865   1.230  0.0705  0.4021 -0.3328
   15CHTO  H166 6010   4.821   2.841   1.178 -2.0177  1.2079  2.1044
   15CHTO   C93 6011   4.872   2.678   1.379  0.2386  0.1669  0.1368
   15CHTO  H180 6012   4.831   2.636   1.286 -2.4999  1.5718  0.6657
   15CHTO   N16 6013   4.781   2.630   1.489 -0.0002  0.0574 -0.0395
   15CHTO  H172 6014   4.838   2.636   1.580 -1.1612 -0.3855  0.7188
   15CHTO  H173 6015   4.692   2.688   1.507  0.8636  1.8726 -1.3781
   15CHTO   C94 6016   5.018   2.623   1.391  0.3657 -0.5912 -0.3462
   15CHTO  H181 6017   5.037   2.571   1.485  2.7301  0.8118 -0.0119
   15CHTO   O61 6018   5.122   2.721   1.392  0.4117  0.0918 -0.0783
   15CHTO   C95 6019   5.100   2.820   1.494 -0.0935  0.4071 -0.1611
   15CHTO  H182 6020   5.087   2.769   1.589  0.2571  1.9721  0.7594
   15CHTO  C106 6021   5.232   2.893   1.515 -0.2192  0.4671 -0.0744
   15CHTO   O69 6022   5.328   2.803   1.570  0.9186 -0.5164  0.2577
   15CHTO  H169 6023   5.408   2.848   1.551  0.8922 -1.4657 -2.3193
   15CHTO   O63 6024   5.042   2.535   1.272 -0.0440  0.2370 -0.6075
   15CHTO   C96 6025   5.123   2.408   1.300  0.4186  0.4933  0.2135
   15CHTO  H183 6026   5.148   2.410   1.406  0.1189 -3.3805  0.4170
   15CHTO   C98 6027   5.263   2.390   1.230  0.1145 -0.6231  0.2638
   15CHTO  H185 6028   5.250   2.407   1.122 -2.0285  1.1045  0.7402
   15CHTO   O67 6029   5.342   2.501   1.280 -0.2858 -0.5633  0.4145
   15CHTO  H167 6030   5.424   2.506   1.233 -0.1231 -0.8285  0.6738
   15CHTO  C102 6031   5.326   2.245   1.261 -0.2249 -0.0940 -0.3885
   15CHTO  H189 6032   5.365   2.254   1.364  0.0981 -1.7519 -0.3569
   15CHTO   N18 6033   5.452   2.214   1.181  0.2594 -0.6131  0.2118
   15CHTO  H176 6034   5.518   2.293   1.215 -0.1633 -0.9168  1.8068
   15CHTO  H177 6035   5.444   2.215   1.074  1.3432 -1.1980  0.1158
   15CHTO  C105 6036   5.220   2.130   1.247  1.0805 -0.4893  0.1526
   15CHTO  H192 6037   5.204   2.105   1.143 -0.1414 -1.4119  0.5509
   15CHTO   O65 6038   5.096   2.167   1.315  0.3519 -0.1240  0.4542
   15CHTO  C100 6039   5.033   2.284   1.261 -0.1490 -0.2570  0.2895
   15CHTO  H187 6040   5.025   2.258   1.155 -1.9139  1.7385 -0.1115
   15CHTO  C107 6041   4.893   2.272   1.319 -0.2426  0.0357  0.7910
   15CHTO   O70 6042   4.807   2.374   1.270  0.4270 -0.1143  0.3130
   15CHTO  H170 6043   4.840   2.448   1.317  0.1686  0.0466  0.2357
   15CHTO   O57 6044   5.286   1.998   1.326  0.1642  0.0262 -0.0439
   15CHTO   C85 6045   5.306   2.003   1.469 -0.0906  0.2256  0.1649
   15CHTO  H157 6046   5.256   2.093   1.509  0.4354  1.0590 -1.0221
   15CHTO   C83 6047   5.458   2.018   1.497  0.3212 -0.1486 -0.0399
   15CHTO  H155 6048   5.480   2.118   1.459  1.3942 -0.5789 -0.5694
   15CHTO   O56 6049   5.529   1.917   1.423  0.0831  0.0092 -0.1647
   15CHTO  H135 6050   5.620   1.938   1.407  1.2757 -1.7772  3.6641
   15CHTO   C81 6051   5.488   2.019   1.646 -0.3204  0.2095 -0.5317
   15CHTO  H153 6052   5.427   2.099   1.689 -0.0972 -0.2372  0.6475
   15CHTO   N14 6053   5.621   2.043   1.692 -0.4792 -0.0876 -0.0003
   15CHTO  H141 6054   5.663   2.128   1.641  0.5233 -0.8579 -0.4812
   15CHTO  H142 6055   5.610   2.073   1.794  0.7851  0.9911 -0.1745
   15CHTO   C79 6056   5.437   1.879   1.705 -0.2245 -0.0734 -0.0816
   15CHTO  H151 6057   5.442   1.889   1.813  2.1220 -0.4168 -0.1436
   15CHTO   O52 6058   5.302   1.849   1.679  0.1504 -0.0921 -0.2029
   15CHTO   C86 6059   5.250   1.868   1.537  0.4123 -0.0258  0.3857
   15CHTO  H158 6060   5.287   1.779   1.482  0.3999  0.7168 -0.8236
   15CHTO   C90 6061   5.099   1.864   1.515 -0.6095  0.2139  0.2624
   15CHTO   O60 6062   5.026   1.968   1.579  0.3084 -0.2486 -0.1316
   15CHTO  H138 6063   4.945   1.997   1.541 -0.1721 -1.3923  0.0042
   15CHTO   O50 6064   5.498   1.759   1.659  0.0107  1.0132 -0.6285
   15CHTO   C73 6065   5.456   1.621   1.646  0.1382  0.1721  0.1172
   15CHTO  H145 6066   5.363   1.607   1.589  0.0445  0.4823  0.1913
   15CHTO   C74 6067   5.415   1.572   1.789  0.0946  0.4627 -0.0610
   15CHTO  H146 6068   5.341   1.641   1.833  0.7626 -1.0531  3.6543
   15CHTO   O54 6069   5.339   1.452   1.762 -0.6716  0.6196  0.7538
   15CHTO  H133 6070   5.363   1.384   1.823  1.9209  0.4893 -0.3673
   15CHTO   C75 6071   5.543   1.550   1.886 -0.4714 -0.0723  0.3044
   15CHTO  H147 6072   5.604   1.641   1.886 -1.2197  0.4399 -0.7475
   15CHTO   N13 6073   5.516   1.509   2.025  0.5718 -0.0841 -0.0516
   15CHTO  H139 6074   5.490   1.405   2.029  1.3233 -0.2486  0.8636
   15CHTO  H140 6075   5.436   1.573   2.060  1.0825  0.4187  0.1994
   15CHTO   C76 6076   5.632   1.445   1.803 -0.3385 -0.8397 -0.1167
   15CHTO  H148 6077   5.573   1.356   1.781 -2.3377  0.2239  0.7062
   15CHTO   O49 6078   5.680   1.516   1.677  0.2697 -1.0469  0.0151
   15CHTO   C77 6079   5.571   1.527   1.582  0.0553  0.0330 -0.7741
   15CHTO  H149 6080   5.532   1.428   1.559 -1.4608  0.3023  0.5708
   15CHTO   C88 6081   5.615   1.582   1.448 -0.0917 -0.6405 -1.2686
   15CHTO   O58 6082   5.722   1.505   1.393 -0.0590 -0.0472 -0.1077
   15CHTO  H136 6083   5.700   1.456   1.316  1.5341 -2.9090  1.1681
   15CHTO   O51 6084   5.759   1.395   1.882  0.3269  0.2438 -1.0702
   15CHTO   C78 6085   5.814   1.270   1.828 -0.8999 -0.0883 -0.1453
   15CHTO  H150 6086   5.760   1.241   1.735  0.0588 -2.5283  0.0209
   15CHTO   C80 6087   5.798   1.155   1.928  0.4783 -0.2329 -0.5871
   15CHTO  H152 6088   5.841   1.184   2.026 -0.3810 -1.8874  0.3052
   15CHTO   O55 6089   5.652   1.130   1.930 -0.1211  0.8939 -0.1563
   15CHTO  H134 6090   5.613   1.200   1.978 -1.0911 -0.9555  1.8208
   15CHTO   C84 6091   5.878   1.027   1.888 -0.1859  0.3853 -0.0020
   15CHTO  H156 6092   5.837   0.994   1.793  1.4058 -0.3379 -0.4542
   15CHTO   N15 6093   5.858   0.908   1.977  0.0662 -0.0317  0.4149
   15CHTO  H143 6094   5.933   0.838   1.948  0.5982 -0.6774  3.2116
   15CHTO  H144 6095   5.762   0.861   1.966  0.8419 -1.6672  0.4958
   15CHTO   C87 6096   6.023   1.064   1.867 -0.3657 -0.3855 -0.2255
   15CHTO  H159 6097   6.068   1.090   1.963  0.1097 -0.6744 -0.3694
   15CHTO   O53 6098   6.033   1.182   1.764  0.1399  0.5364  0.1153
   15CHTO   C82 6099   5.965   1.305   1.799 -0.2206 -0.5063  0.7449
   15CHTO  H154 6100   6.019   1.355   1.880 -0.4039 -0.1755  0.6585
   15CHTO   C89 6101   5.976   1.403   1.677 -0.0753  0.8399 -0.1854
   15CHTO   O59 6102   6.114   1.446   1.653 -0.2095  0.1175  0.3932
   15CHTO  H137 6103   6.153   1.485   1.729  0.2580 -0.0182  0.2266
   15CHTO   O45 6104   6.098   0.954   1.789  0.9544  0.1648  0.2769
   15CHTO   C67 6105   6.236   0.989   1.762  0.0529  0.4015 -0.6506
   15CHTO  H124 6106   6.247   1.097   1.775 -2.3932  0.8535 -2.1211
   15CHTO   C65 6107   6.327   0.917   1.864  0.3411  0.1009  0.5002
   15CHTO  H122 6108   6.290   0.815   1.879 -1.0419  0.2805 -1.5429
   15CHTO   O44 6109   6.314   0.996   1.981 -0.0533  0.6996  0.3893
   15CHTO  H102 6110   6.351   1.080   1.963  0.4638 -0.0734 -2.4186
   15CHTO   C63 6111   6.476   0.894   1.808 -0.4910  0.0081 -0.3529
   15CHTO  H120 6112   6.473   0.808   1.742 -1.2142 -0.3702  0.1679
   15CHTO   N11 6113   6.586   0.848   1.901 -0.2900 -0.8029 -0.2179
   15CHTO  H108 6114   6.578   0.897   1.996  0.6419 -1.2863  0.1122
   15CHTO  H109 6115   6.599   0.741   1.904 -0.5676 -0.8881 -1.4929
   15CHTO   C61 6116   6.519   1.006   1.706 -0.0341  0.2546 -0.7557
   15CHTO  H118 6117   6.618   0.979   1.665  0.1815  0.4128 -0.3472
   15CHTO   O40 6118   6.426   1.004   1.585 -0.0414 -0.4002 -0.5765
   15CHTO   C68 6119   6.290   0.957   1.615 -0.1318 -0.4241  0.5732
   15CHTO  H125 6120   6.290   0.848   1.595  2.3242 -0.3973  0.2445
   15CHTO   C72 6121   6.206   1.014   1.502  0.1698  0.0955 -0.3781
   15CHTO   O48 6122   6.194   1.159   1.495 -0.4438  0.3364  0.0601
   15CHTO  H105 6123   6.278   1.200   1.491  0.1391 -0.8501  0.2057
   15CHTO   O38 6124   6.531   1.137   1.772 -0.2708  0.5867 -0.0497
   15CHTO   C55 6125   6.482   1.261   1.719  0.0174 -0.3139 -0.1056
   15CHTO  H112 6126   6.388   1.247   1.663  0.8454 -0.1970 -1.5653
   15CHTO   C56 6127   6.608   1.306   1.616  0.3276  1.1233 -0.2741
   15CHTO  H113 6128   6.702   1.285   1.670 -0.8587  2.1109  2.2315
   15CHTO   O42 6129   6.605   1.215   1.501 -0.3359 -0.2241  0.1265
   15CHTO  H100 6130   6.607   1.125   1.526 -0.6528 -0.0043  0.9446
   15CHTO   C57 6131   6.595   1.456   1.568  0.5151 -0.4866  0.0075
   15CHTO  H114 6132   6.517   1.456   1.492 -0.2506 -0.0714  0.7940
   15CHTO   N10 6133   6.710   1.504   1.487  0.6130  0.1592  0.3504
   15CHTO  H106 6134   6.750   1.420   1.434  0.2944  0.1988  0.0451
   15CHTO  H107 6135   6.782   1.549   1.555 -1.1273 -1.7151  3.5537
   15CHTO   C58 6136   6.549   1.550   1.678  0.5928  0.3258 -0.5860
   15CHTO  H115 6137   6.633   1.566   1.749  0.6836  2.2670 -1.0926
   15CHTO   O37 6138   6.441   1.495   1.749  0.4443 -0.1959 -0.3852
   15CHTO   C59 6139   6.467   1.373   1.829 -0.2171  0.0740  0.3124
   15CHTO  H116 6140   6.554   1.374   1.896  0.7948  1.8301 -0.9931
   15CHTO   C70 6141   6.340   1.346   1.910 -0.5583  0.5434 -0.2489
   15CHTO   O46 6142   6.287   1.442   2.001  0.5393 -0.1683  0.4930
   15CHTO  H103 6143   6.206   1.415   2.040  0.3952 -0.1605  0.2051
   15CHTO   O39 6144   6.506   1.699   1.615 -0.4382  0.5354  0.2784
   15CHTO   C60 6145   6.382   1.722   1.535  0.6144  0.2930  0.0875
   15CHTO  H117 6146   6.364   1.636   1.471 -1.3064 -0.7016  1.8731
   15CHTO   C62 6147   6.246   1.746   1.615  0.0480  0.3207  0.5643
   15CHTO  H119 6148   6.223   1.653   1.671 -0.0256  1.4200  2.4090
   15CHTO   O43 6149   6.263   1.840   1.724  0.0190 -0.3855 -0.8243
   15CHTO  H101 6150   6.306   1.919   1.695  1.7071 -1.1921 -0.6244
   15CHTO   C66 6151   6.119   1.790   1.527 -0.7150  0.7332  0.2141
   15CHTO  H123 6152   6.105   1.713   1.452 -1.0189  0.2087  0.8090
   15CHTO   N12 6153   5.991   1.801   1.597 -0.1852 -0.4246  0.1347
   15CHTO  H110 6154   5.977   1.699   1.632  1.5785 -0.8445 -0.3669
   15CHTO  H111 6155   5.985   1.876   1.674 -1.9522  1.3693 -1.6969
   15CHTO   C69 6156   6.161   1.918   1.454 -0.2413  0.2715  0.3748
   15CHTO  H126 6157   6.213   1.993   1.516 -0.2371 -0.6188  1.4595
   15CHTO   O41 6158   6.275   1.866   1.358 -0.1430 -0.1268 -0.3202
   15CHTO   C64 6159   6.403   1.845   1.437 -0.5105 -0.1938  0.1840
   15CHTO  H121 6160   6.423   1.939   1.493  1.2862  0.6610 -1.8361
   15CHTO   C71 6161   6.514   1.821   1.337  0.5094  0.0734 -0.1138
   15CHTO   O47 6162   6.553   1.948   1.282 -0.2460 -0.0428 -0.2546
   15CHTO  H104 6163   6.632   1.933   1.233 -0.0736 -1.8228  0.5511
   15CHTO   O34 6164   6.043   1.980   1.366  0.1238  0.3846  0.1793
   15CHTO   C49 6165   6.044   2.038   1.230 -0.2275  0.5573  0.2841
   15CHTO   H91 6166   6.088   1.964   1.163  0.7067 -0.4380  1.9634
   15CHTO   C47 6167   6.125   2.172   1.218  0.4327  0.0415  0.2931
   15CHTO   H89 6168   6.116   2.217   1.117 -0.6679  1.8205  1.1416
   15CHTO   O33 6169   6.263   2.151   1.243 -0.1104 -0.1284  0.0462
   15CHTO   H70 6170   6.298   2.073   1.205  1.4402  1.0114 -0.8998
   15CHTO   C45 6171   6.053   2.270   1.324  0.2678 -0.1355 -0.1976
   15CHTO   H87 6172   6.043   2.213   1.418 -1.0028  0.3089 -0.0488
   15CHTO    N8 6173   6.125   2.395   1.351  0.4630 -0.5030  0.2314
   15CHTO   H75 6174   6.229   2.366   1.358  0.9398  0.9172 -0.8808
   15CHTO   H76 6175   6.087   2.437   1.443 -0.5074 -1.9655  0.5092
   15CHTO   C43 6176   5.899   2.299   1.287 -0.8708  0.0939  0.3763
   15CHTO   H85 6177   5.858   2.356   1.371 -1.1615  2.6769 -1.4379
   15CHTO   O29 6178   5.829   2.171   1.266 -0.2779 -0.2181 -0.7159
   15CHTO   C50 6179   5.896   2.070   1.186 -0.1691 -0.0219 -0.4773
   15CHTO   H92 6180   5.830   1.983   1.199  1.7595 -1.3465  0.6862
   15CHTO   C54 6181   5.883   2.112   1.034  0.2574 -0.5732 -0.0412
   15CHTO   O36 6182   5.749   2.104   0.996 -0.4988 -0.2630  0.2448
   15CHTO   H72 6183   5.762   2.126   0.906  0.9457  1.4194  0.8175
   15CHTO   O27 6184   5.887   2.389   1.171 -0.1848  0.5402  0.0129
   15CHTO   C37 6185   5.795   2.476   1.097  0.4045 -0.4498 -0.0922
   15CHTO   H79 6186   5.707   2.421   1.061 -0.6322  1.9524 -1.3221
   15CHTO   C38 6187   5.752   2.598   1.189 -0.2568 -0.1876  0.4857
   15CHTO   H80 6188   5.846   2.638   1.230 -0.2772 -2.9941  3.4824
   15CHTO   O31 6189   5.689   2.539   1.303  0.7232  0.2904  0.4291
   15CHTO   H68 6190   5.735   2.550   1.384 -2.6458  3.1039  2.0843
   15CHTO   C39 6191   5.666   2.706   1.120  0.2713 -0.2609  0.2363
   15CHTO   H81 6192   5.573   2.660   1.086 -0.1210  1.2319 -0.7753
   15CHTO    N7 6193   5.615   2.815   1.213 -0.2169 -0.2329 -0.1177
   15CHTO   H73 6194   5.595   2.912   1.168 -0.6449 -0.4754 -0.4522
   15CHTO   H74 6195   5.673   2.821   1.304  0.6880  1.3000 -0.7636
   15CHTO   C40 6196   5.746   2.753   0.997  0.5198 -0.4138  0.0913
   15CHTO   H82 6197   5.838   2.798   1.033 -0.0005  2.0917 -1.6147
   15CHTO   O26 6198   5.772   2.642   0.911 -0.0181  0.3368 -0.5346
   15CHTO   C41 6199   5.866   2.550   0.973  0.1849  0.5373 -0.2293
   15CHTO   H83 6200   5.958   2.596   1.011  0.3544  0.1168 -0.1249
   15CHTO   C52 6201   5.921   2.455   0.862  0.7228  0.2562  0.1440
   15CHTO   O35 6202   5.829   2.353   0.803 -0.2476 -0.4035 -0.5925
   15CHTO   H71 6203   5.831   2.277   0.857  0.9253 -0.6949 -1.0250
   15CHTO   O28 6204   5.674   2.849   0.917 -0.1234  0.0700 -0.0515
   15CHTO   C42 6205   5.731   2.963   0.842 -0.1004 -0.4249 -0.4664
   15CHTO   H84 6206   5.664   2.962   0.756 -0.8586 -0.6996  0.1074
   15CHTO   C44 6207   5.874   2.957   0.786  0.2989  0.2889  0.2325
   15CHTO   H86 6208   5.943   2.957   0.871 -0.9168  0.5254  1.2314
   15CHTO   O32 6209   5.871   2.832   0.712  0.1498  0.5846  0.0475
   15CHTO   H69 6210   5.878   2.761   0.773 -3.2408 -0.2696 -0.4549
   15CHTO   C48 6211   5.906   3.075   0.689  0.6189 -0.3824 -1.2192
   15CHTO   H90 6212   5.833   3.071   0.608  1.3060  0.4007 -1.8965
   15CHTO    N9 6213   6.045   3.072   0.624  0.1981  0.6033  0.0106
   15CHTO   H77 6214   6.048   3.166   0.571 -1.3982  0.1869 -0.8462
   15CHTO   H78 6215   6.057   2.993   0.551 -1.0300  0.5072 -0.1038
   15CHTO   C51 6216   5.883   3.210   0.764 -0.3800  0.0773  0.5497
   15CHTO   H93 6217   5.946   3.205   0.853 -1.9526  2.6308  1.8825
   15CHTO   O30 6218   5.743   3.208   0.801 -0.6275  0.6639 -0.1453
   15CHTO   C46 6219   5.713   3.100   0.901  0.2821 -0.7244 -0.5997
   15CHTO   H88 6220   5.774   3.115   0.990  0.1895  1.2379 -0.8416
   15CHTO   C53 6221   5.570   3.142   0.952 -0.3383  0.5929  0.3355
   15CHTO   O72 6222   5.587   3.260   1.034 -0.1213 -0.1564 -0.1708
   15CHTO  H199 6223   5.617   3.318   0.967 -2.0452  0.3440 -0.6564
   15CHTO   O22 6224   5.906   3.332   0.691 -0.4392 -0.8307  0.0736
   15CHTO   C31 6225   5.882   3.468   0.743  0.4708 -0.3045 -0.3863
   15CHTO   H59 6226   5.940   3.528   0.670 -3.1885  0.8966 -2.4459
   15CHTO   C29 6227   5.733   3.515   0.731  0.0340  0.1964 -0.0929
   15CHTO   H57 6228   5.672   3.441   0.785  2.2828  0.4947  2.9797
   15CHTO   O21 6229   5.684   3.508   0.592  0.5550  0.5190  0.3164
   15CHTO   H37 6230   5.597   3.540   0.580 -0.0053 -0.7578  0.8218
   15CHTO   C27 6231   5.700   3.663   0.798 -0.1894  0.1859  0.0256
   15CHTO   H55 6232   5.745   3.733   0.727 -0.9184 -1.3055 -1.9583
   15CHTO    N5 6233   5.555   3.688   0.804 -0.7427 -0.6563 -0.4539
   15CHTO   H43 6234   5.526   3.778   0.752 -0.7821 -0.2097  0.3308
   15CHTO   H44 6235   5.511   3.703   0.902  0.8628  3.3327 -0.2267
   15CHTO   C25 6236   5.774   3.662   0.939  0.7996 -0.5536 -0.1317
   15CHTO   H53 6237   5.724   3.585   0.999 -0.0265 -0.0615 -0.1894
   15CHTO   O17 6238   5.918   3.633   0.923  0.7262  0.5423  0.1015
   15CHTO   C32 6239   5.950   3.501   0.886  0.0832  0.6884 -0.2847
   15CHTO   H60 6240   5.907   3.439   0.965  1.4867 -0.4486 -0.3984
   15CHTO   C36 6241   6.109   3.497   0.878  0.7328  0.3378 -0.8489
   15CHTO   O25 6242   6.156   3.370   0.913  0.7316 -0.0908  0.4316
   15CHTO   H40 6243   6.117   3.299   0.865  1.9675 -1.8560  1.9985
   15CHTO   O15 6244   5.769   3.817   1.006  0.0312 -0.1850  0.7335
   15CHTO   C19 6245   5.781   3.890   1.128 -0.2738  0.1469  0.2021
   15CHTO   H47 6246   5.849   3.821   1.180 -1.9389 -0.9510  0.9908
   15CHTO   C20 6247   5.846   4.029   1.089  0.2317 -0.0163  0.6734
   15CHTO   H48 6248   5.791   4.078   1.008  2.0281 -0.4758 -0.8593
   15CHTO   O19 6249   5.979   4.007   1.029 -0.3547 -0.5104 -0.3309
   15CHTO   H35 6250   6.007   4.076   0.973  0.3559  1.1656  2.0097
   15CHTO   C21 6251   5.852   4.129   1.212 -0.3296 -0.0988  0.0390
   15CHTO   H49 6252   5.939   4.105   1.273 -0.2458 -0.8741 -0.3855
   15CHTO    N4 6253   5.869   4.269   1.169 -0.2541 -0.0409  0.0665
   15CHTO   H41 6254   5.975   4.292   1.168 -0.0800 -0.4932  2.7880
   15CHTO   H42 6255   5.816   4.330   1.240 -1.5787 -1.5766  0.4275
   15CHTO   C22 6256   5.725   4.112   1.309  0.2689  0.9635 -0.4208
   15CHTO   H50 6257   5.640   4.172   1.277 -1.2556 -0.5955  0.6550
   15CHTO   O14 6258   5.680   3.975   1.332  0.2378  0.1521  0.0168
   15CHTO   C23 6259   5.646   3.904   1.212 -0.0120 -0.1233 -0.0278
   15CHTO   H51 6260   5.568   3.953   1.153 -0.6251  1.1905  1.8308
   15CHTO   C34 6261   5.585   3.768   1.249  0.7112 -0.3011 -0.2185
   15CHTO   O23 6262   5.546   3.676   1.146 -0.0793 -0.3575 -0.2396
   15CHTO   H38 6263   5.615   3.644   1.091 -1.2837 -1.4533 -1.1584
   15CHTO   O16 6264   5.744   4.165   1.444 -0.3502 -0.7006 -0.6248
   15CHTO   C24 6265   5.849   4.101   1.545 -0.4301 -0.0855 -0.1227
   15CHTO   H52 6266   5.932   4.052   1.494 -0.9395 -2.4458  1.2220
   15CHTO   C26 6267   5.776   4.005   1.645 -0.4927 -0.1890 -0.8923
   15CHTO   H54 6268   5.688   4.063   1.681  0.6062  1.0232 -0.0992
   15CHTO   O20 6269   5.733   3.888   1.573  0.3113 -0.2214  0.3101
   15CHTO   H36 6270   5.710   3.820   1.633 -1.2733  0.1687  0.1600
   15CHTO   C30 6271   5.870   3.974   1.766  0.5576 -0.5614 -1.1869
   15CHTO   H58 6272   5.948   3.903   1.733  0.8105 -1.0086  0.3467
   15CHTO    N6 6273   5.795   3.898   1.869 -0.3613 -0.1355  0.3685
   15CHTO   H45 6274   5.699   3.870   1.829  0.2558  0.4798 -1.6236
   15CHTO   H46 6275   5.778   3.964   1.952  0.6728 -0.6816  1.0246
   15CHTO   C33 6276   5.946   4.098   1.820  0.5263  0.3659 -0.0302
   15CHTO   H61 6277   5.872   4.161   1.873  0.1212  0.1281 -0.3055
   15CHTO   O18 6278   6.002   4.175   1.717 -0.4876  0.2508  0.3152
   15CHTO   C28 6279   5.906   4.219   1.623  0.0484  0.1673 -0.5603
   15CHTO   H56 6280   5.826   4.277   1.669  0.3245  2.2151 -2.5356
   15CHTO   C35 6281   5.979   4.321   1.523  0.0779  0.4090  0.4720
   15CHTO   O24 6282   6.090   4.264   1.462  0.3228 -0.1152 -0.0828
   15CHTO   H39 6283   6.136   4.237   1.539 -0.0889 -1.3839 -0.2629
   15CHTO    O9 6284   6.041   4.060   1.917  0.4923 -0.3697  0.0559
   15CHTO   C13 6285   6.038   4.132   2.052 -0.0258 -0.4520 -0.7774
   15CHTO   H26 6286   5.938   4.136   2.099  0.4917  1.1340  0.2174
   15CHTO   C11 6287   6.092   4.279   2.023 -0.0712 -0.4230 -0.3704
   15CHTO   H24 6288   6.011   4.335   1.975 -1.0959 -1.0354  0.6061
   15CHTO    O8 6289   6.202   4.279   1.932  0.1697  0.7172 -0.1442
   15CHTO    H3 6290   6.189   4.211   1.870 -4.4246  2.0177 -0.8162
   15CHTO    C9 6291   6.115   4.358   2.153 -0.0860 -0.4048 -0.0311
   15CHTO   H22 6292   6.022   4.346   2.210 -0.0333  3.2341  0.9693
   15CHTO    N2 6293   6.139   4.503   2.142  0.2692 -0.0497  0.3638
   15CHTO   H10 6294   6.062   4.548   2.081  0.8516  0.0667 -0.2985
   15CHTO   H11 6295   6.140   4.555   2.236  0.3198 -0.1222  0.4029
   15CHTO    C7 6296   6.225   4.277   2.234 -0.4534 -0.6707 -0.1222
   15CHTO   H20 6297   6.223   4.333   2.330 -1.3643  1.2236 -1.2252
   15CHTO    O4 6298   6.202   4.139   2.259  0.2461 -0.1161 -0.2993
   15CHTO   C14 6299   6.133   4.064   2.159  0.7254  0.0729  0.1023
   15CHTO   H27 6300   6.064   4.003   2.221 -1.1789  2.3148  0.2448
   15CHTO   C18 6301   6.238   3.964   2.091 -0.6319  0.3576  0.5931
   15CHTO   O13 6302   6.309   3.883   2.185  0.7032  0.0478  0.5715
   15CHTO    H7 6303   6.264   3.803   2.204  1.3422 -0.2596  0.8390
   15CHTO    O2 6304   6.370   4.286   2.158 -0.2336  0.1660 -0.3208
   15CHTO    C1 6305   6.481   4.224   2.221  0.0536 -0.2956  0.3562
   15CHTO   H14 6306   6.452   4.121   2.249  1.3968 -0.3838  1.4830
   15CHTO    C2 6307   6.536   4.298   2.355  0.6810  0.0636  1.8814
   15CHTO   H15 6308   6.540   4.404   2.325 -4.2927 -0.3657 -0.8377
   15CHTO    O6 6309   6.446   4.289   2.462 -0.4612  0.1425  0.8747
   15CHTO    H1 6310   6.367   4.245   2.439 -0.8826  1.1385  0.3922
   15CHTO    C3 6311   6.679   4.244   2.405  0.3563 -0.1523 -0.5721
   15CHTO   H16 6312   6.653   4.149   2.453  0.4896  1.8525  3.7777
   15CHTO    N1 6313   6.741   4.335   2.508  0.2549 -0.4503 -0.1678
   15CHTO    H8 6314   6.785   4.414   2.449  2.0869  0.5559  2.4681
   15CHTO    H9 6315   6.702   4.361   2.605  0.1719  0.2500 -0.3877
   15CHTO    C4 6316   6.783   4.218   2.284  0.3848  0.1883  0.8188
   15CHTO   H17 6317   6.816   4.314   2.244  0.0729 -0.1000 -0.1390
   15CHTO    O1 6318   6.717   4.143   2.181 -0.1867  0.9089 -0.7952
   15CHTO    C5 6319   6.602   4.209   2.124  0.1738  0.4599  0.2661
   15CHTO   H18 6320   6.633   4.309   2.093  0.4007  0.3197  0.0496
   15CHTO   C16 6321   6.565   4.133   2.003 -0.1448 -0.1819 -0.2154
   15CHTO   O11 6322   6.667   4.143   1.907 -0.2964  0.1586 -0.4788
   15CHTO    H5 6323   6.627   4.174   1.828 -1.9140  1.1606  0.7044
   15CHTO    O3 6324   6.894   4.130   2.328  0.9259 -0.2406  0.0924
   15CHTO    C6 6325   7.023   4.145   2.260 -0.7221 -0.1631 -0.0512
   15CHTO   H19 6326   7.011   4.208   2.172  0.0098 -0.1151 -0.1178
   15CHTO    C8 6327   7.134   4.205   2.356 -0.7484 -0.1345  0.1433
   15CHTO   H21 6328   7.143   4.137   2.441 -3.3586  0.7877  1.2002
   15CHTO    O7 6329   7.078   4.328   2.407  0.6666 -0.0852  0.1795
   15CHTO    H2 6330   7.147   4.370   2.455  1.1753 -0.5886 -0.1121
   15CHTO   C12 6331   7.267   4.229   2.271 -0.5386 -0.0753  0.0962
   15CHTO   H25 6332   7.247   4.289   2.180  0.9336  1.7883  0.9612
   15CHTO    N3 6333   7.371   4.315   2.346  0.0209 -0.1640 -0.3876
   15CHTO   H12 6334   7.349   4.421   2.345 -0.6095 -0.2912 -0.5832
   15CHTO   H13 6335   7.457   4.308   2.282  1.2510  0.8802  1.1269
   15CHTO   C15 6336   7.321   4.091   2.230 -0.7147 -0.0812 -0.3388
   15CHTO   H28 6337   7.356   4.033   2.316  0.2651 -1.6315 -1.7551
   15CHTO   O10 6338   7.437   4.115   2.145  0.2767 -0.5124  0.0114
   15CHTO    H4 6339   7.497   4.042   2.145  0.0782 -0.6812  0.4257
   15CHTO    O5 6340   7.219   4.017   2.162 -0.0369 -0.4713 -0.3238
   15CHTO   C10 6341   7.079   4.011   2.214 -0.3042  0.3121  0.1326
   15CHTO   H23 6342   7.085   3.938   2.295 -1.2746  2.3548  2.0898
   15CHTO   C17 6343   6.994   3.948   2.100  0.6787 -0.3135  1.1070
   15CHTO   O12 6344   6.992   4.026   1.978  0.1694 -0.2137 -0.8130
   15CHTO    H6 6345   6.969   3.969   1.907  1.4512 -0.0730 -1.3549
   16CHTO  H203 6346   3.808   3.487   0.859 -0.4014 -0.2619 -0.3945
   16CHTO   O82 6347   3.826   3.488   0.767  0.4696  0.2773 -0.2237
   16CHTO  C123 6348   3.942   3.563   0.722 -0.2135  0.4321 -0.5188
   16CHTO  H227 6349   3.911   3.663   0.689 -0.6570  0.2613 -0.6276
   16CHTO   O77 6350   4.021   3.585   0.841 -0.1973 -0.0360 -0.8672
   16CHTO  C118 6351   4.162   3.619   0.837  0.5604 -0.6998  0.2201
   16CHTO  H222 6352   4.169   3.724   0.805 -0.1473 -0.5425  0.5712
   16CHTO  C125 6353   4.202   3.617   0.989 -0.5146 -0.2552  0.2598
   16CHTO   O84 6354   4.190   3.484   1.048  0.0415  0.4933  0.1224
   16CHTO  H205 6355   4.240   3.479   1.126 -0.3571 -2.2854  0.2575
   16CHTO  C114 6356   4.243   3.529   0.741 -0.3761 -0.0666 -0.3860
   16CHTO  H218 6357   4.243   3.427   0.779  2.5436  0.7616  2.0849
   16CHTO  C116 6358   4.170   3.543   0.604  0.3740  0.3598  0.6911
   16CHTO  H220 6359   4.173   3.648   0.568  0.4915 -0.2736 -1.2031
   16CHTO   O79 6360   4.255   3.467   0.517 -0.3012 -0.4505 -0.1719
   16CHTO  H201 6361   4.210   3.426   0.446  0.1986  0.4583 -1.0376
   16CHTO  C120 6362   4.024   3.492   0.610 -0.7561  0.6072 -0.2858
   16CHTO  H224 6363   4.031   3.385   0.639  0.2064  0.4782 -0.9884
   16CHTO   N21 6364   3.953   3.491   0.485 -0.0295 -0.1458 -0.7194
   16CHTO  H211 6365   3.912   3.588   0.460 -2.4322 -1.3193 -1.3991
   16CHTO  H212 6366   4.010   3.461   0.398  0.8540  0.6719 -0.4465
   16CHTO   O75 6367   4.379   3.575   0.732 -0.0033  0.5533 -0.0161
   16CHTO  C112 6368   4.497   3.472   0.778 -0.2916  0.9871  0.5209
   16CHTO  H216 6369   4.474   3.367   0.751 -0.1831  0.7278  1.4328
   16CHTO   O73 6370   4.524   3.488   0.916  0.7943 -0.3106 -0.0516
   16CHTO  C113 6371   4.611   3.398   0.977 -0.2514 -0.1500 -0.2761
   16CHTO  H217 6372   4.569   3.298   0.957  0.7270 -0.5234 -0.4798
   16CHTO  C124 6373   4.598   3.423   1.128  0.2820  0.4229  0.4657
   16CHTO   O83 6374   4.666   3.328   1.196 -0.1536 -0.7884 -0.6901
   16CHTO  H204 6375   4.636   3.328   1.285 -1.6659  1.8392 -1.1526
   16CHTO  C109 6376   4.754   3.417   0.918  0.0597  0.1461 -0.9163
   16CHTO  H213 6377   4.794   3.511   0.956  0.2605 -0.5065  0.5041
   16CHTO  C110 6378   4.749   3.413   0.759 -0.5013  0.7169 -0.0092
   16CHTO  H214 6379   4.733   3.311   0.723  1.1849 -0.0965  1.4319
   16CHTO   O78 6380   4.878   3.450   0.706  0.2535 -0.5173  0.2398
   16CHTO  H200 6381   4.885   3.543   0.699  0.2255 -0.5664 -0.4342
   16CHTO  C111 6382   4.635   3.498   0.701 -0.2398 -0.1708 -0.3170
   16CHTO  H215 6383   4.655   3.604   0.720  0.2293 -0.4272  0.6120
   16CHTO   N19 6384   4.615   3.482   0.558 -0.2584 -0.0587 -0.3356
   16CHTO  H207 6385   4.713   3.456   0.520 -0.7544  0.1899 -1.7956
   16CHTO  H208 6386   4.613   3.585   0.524 -0.0251  0.0217 -0.1089
   16CHTO   O74 6387   4.838   3.312   0.960 -0.2172 -0.4363 -0.2030
   16CHTO  C115 6388   4.992   3.355   0.998  0.5625  0.2841  0.0926
   16CHTO  H219 6389   5.064   3.283   0.958  1.2104  0.6056  0.6849
   16CHTO   O76 6390   5.040   3.502   0.940  0.2086 -0.9712 -0.5224
   16CHTO  C122 6391   5.186   3.526   0.951 -0.0640  0.0354  0.5712
   16CHTO  H226 6392   5.206   3.626   0.912  0.0539  0.3137  1.3406
   16CHTO  C126 6393   5.266   3.425   0.855 -0.6201  0.3530 -0.3441
   16CHTO   O85 6394   5.200   3.411   0.731  0.0508 -0.0280 -0.5813
   16CHTO  H206 6395   5.226   3.332   0.688  3.1394  0.1794  0.7371
   16CHTO  C121 6396   5.228   3.522   1.098  0.3532  0.1745  0.8861
   16CHTO  H225 6397   5.337   3.524   1.118  0.8045 -0.7196 -1.3601
   16CHTO   O81 6398   5.173   3.643   1.159  1.0695 -0.1302 -0.1404
   16CHTO  H202 6399   5.184   3.721   1.108  0.9212 -0.9012 -1.3545
   16CHTO  C119 6400   5.175   3.390   1.173  0.4488  0.5779 -0.2327
   16CHTO  H223 6401   5.224   3.304   1.127 -1.1871 -0.3817 -0.2266
   16CHTO  C117 6402   5.015   3.371   1.152 -0.1877  0.5524 -0.1771
   16CHTO  H221 6403   4.948   3.450   1.188 -1.7942 -1.1632  0.6457
   16CHTO   N20 6404   4.967   3.251   1.226 -0.0062  0.6322 -0.0299
   16CHTO  H209 6405   4.861   3.231   1.212  0.5370 -2.1200 -0.4918
   16CHTO  H210 6406   5.021   3.163   1.193 -0.5418  0.4092 -0.3244
   16CHTO   O80 6407   5.220   3.390   1.340 -0.1686 -0.0240  0.1621
   16CHTO  C103 6408   5.380   3.407   1.379 -0.2664  0.1711  0.1678
   16CHTO  H190 6409   5.437   3.443   1.293  0.0599  2.1036  1.1789
   16CHTO  C101 6410   5.412   3.501   1.502  0.4400 -0.2992  0.0658
   16CHTO  H188 6411   5.363   3.458   1.590 -1.1228 -0.1496 -0.7099
   16CHTO   O68 6412   5.342   3.639   1.472  0.5924  0.6077  0.2898
   16CHTO  H168 6413   5.297   3.674   1.547 -0.9376  0.7974 -0.6921
   16CHTO   C99 6414   5.573   3.503   1.539 -0.5399  0.1671  0.5134
   16CHTO  H186 6415   5.638   3.535   1.455  0.6290 -1.0296  0.9480
   16CHTO   N17 6416   5.614   3.599   1.646 -0.5471  0.4345 -0.1307
   16CHTO  H174 6417   5.620   3.700   1.608 -1.0971 -0.4050 -2.4953
   16CHTO  H175 6418   5.716   3.577   1.676 -0.1010  1.7735 -0.6388
   16CHTO   C97 6419   5.606   3.357   1.565 -1.0921  0.1469 -0.3150
   16CHTO  H184 6420   5.545   3.326   1.651  1.3855  0.2781  1.5381
   16CHTO   O64 6421   5.581   3.280   1.444 -0.0566 -0.0090 -0.6451
   16CHTO  C104 6422   5.442   3.263   1.416 -1.1007  0.0122  1.0055
   16CHTO  H191 6423   5.378   3.218   1.492 -1.9392  0.5589  0.6235
   16CHTO  C108 6424   5.439   3.173   1.292  0.1975  0.1760  0.0712
   16CHTO   O71 6425   5.322   3.097   1.266 -0.0146  0.0824  0.3871
   16CHTO  H171 6426   5.304   3.035   1.334 -1.3337 -2.2928 -2.0232
   16CHTO   O62 6427   5.748   3.335   1.600  0.6089  0.0679  0.1345
   16CHTO   C91 6428   5.788   3.210   1.660 -0.1712 -0.3999 -0.1992
   16CHTO  H178 6429   5.883   3.242   1.704  0.1239 -0.4446 -0.8042
   16CHTO   C92 6430   5.821   3.100   1.557 -0.0632  0.0340 -0.4242
   16CHTO  H179 6431   5.728   3.089   1.498 -0.6060  0.3350  0.3634
   16CHTO   O66 6432   5.917   3.161   1.469  0.0720 -1.0480 -0.2160
   16CHTO  H166 6433   5.994   3.196   1.510 -0.2588 -0.0458 -0.4426
   16CHTO   C93 6434   5.871   2.962   1.622  0.2227 -0.5806 -0.1315
   16CHTO  H180 6435   5.963   2.972   1.682  0.2340  0.1241 -0.2618
   16CHTO   N16 6436   5.898   2.853   1.527 -0.8764 -0.0190  0.3211
   16CHTO  H172 6437   5.813   2.834   1.463 -0.7538  1.8609 -0.4312
   16CHTO  H173 6438   5.992   2.861   1.474 -0.9943 -1.0764 -0.0483
   16CHTO   C94 6439   5.756   2.915   1.725  0.1383 -0.9675  0.2133
   16CHTO  H181 6440   5.662   2.903   1.672  1.4471 -1.1030 -2.1712
   16CHTO   O61 6441   5.739   3.021   1.818  0.1792 -0.2746 -0.3610
   16CHTO   C95 6442   5.694   3.148   1.768  0.5717  0.0861  0.4407
   16CHTO  H182 6443   5.596   3.133   1.724  0.5310 -3.1077  1.4996
   16CHTO  C106 6444   5.684   3.248   1.890 -0.0004  0.3575 -0.2696
   16CHTO   O69 6445   5.590   3.204   1.987  0.9062  0.4773  0.4186
   16CHTO  H169 6446   5.532   3.277   2.000 -0.1300 -0.3651  0.5989
   16CHTO   O63 6447   5.792   2.796   1.798 -0.4533  0.3519  0.0623
   16CHTO   C96 6448   5.668   2.698   1.837 -0.6819  0.3953  0.5942
   16CHTO  H183 6449   5.698   2.634   1.921 -2.8133  0.1623  1.2210
   16CHTO   C98 6450   5.627   2.615   1.716 -0.1819 -0.2587  0.2354
   16CHTO  H185 6451   5.599   2.680   1.631 -1.0925 -1.6890 -0.5935
   16CHTO   O67 6452   5.749   2.544   1.679  0.4371  0.6173 -0.0314
   16CHTO  H167 6453   5.820   2.594   1.643  1.8024 -2.5423 -1.8946
   16CHTO  C102 6454   5.504   2.519   1.753  0.0755 -0.6775 -0.8310
   16CHTO  H189 6455   5.544   2.439   1.817  0.5562 -1.2351 -1.8122
   16CHTO   N18 6456   5.445   2.447   1.639 -0.2229 -0.1828 -0.1690
   16CHTO  H176 6457   5.468   2.505   1.551 -0.1501 -0.5005 -0.3602
   16CHTO  H177 6458   5.478   2.345   1.626 -1.1953 -0.3458 -1.5008
   16CHTO  C105 6459   5.390   2.593   1.833  0.5616  0.7645 -0.0130
   16CHTO  H192 6460   5.354   2.671   1.765  1.0857  0.5093 -0.5956
   16CHTO   O65 6461   5.447   2.657   1.948 -0.4489  0.2934  0.1508
   16CHTO  C100 6462   5.541   2.760   1.913  0.0259 -0.1550  0.1876
   16CHTO  H187 6463   5.491   2.836   1.852 -1.8651 -0.9142  0.7656
   16CHTO  C107 6464   5.585   2.827   2.042 -0.1939  0.2749  0.8722
   16CHTO   O70 6465   5.494   2.923   2.082  0.2308 -0.3124  0.1167
   16CHTO  H170 6466   5.443   2.962   2.013  2.0911  1.4053 -0.3361
   16CHTO   O57 6467   5.291   2.500   1.879  0.1813  0.0453 -0.5883
   16CHTO   C85 6468   5.153   2.512   1.834 -0.3897  0.3993  0.9145
   16CHTO  H157 6469   5.153   2.532   1.724 -3.0416  0.6008  0.9146
   16CHTO   C83 6470   5.096   2.642   1.899 -0.3734 -0.3983  1.0156
   16CHTO  H155 6471   5.158   2.722   1.859 -0.8439 -0.6536 -0.2411
   16CHTO   O56 6472   5.109   2.632   2.041 -0.2716  0.6809  0.4262
   16CHTO  H135 6473   5.036   2.589   2.081 -0.5309  2.2538  1.7261
   16CHTO   C81 6474   4.947   2.664   1.855 -0.3793 -0.3283 -0.0474
   16CHTO  H153 6475   4.955   2.669   1.746 -0.8083  2.0962  0.0224
   16CHTO   N14 6476   4.881   2.787   1.902  0.8382  0.5398  0.2939
   16CHTO  H141 6477   4.857   2.782   2.006  0.2047  0.8420  0.1670
   16CHTO  H142 6478   4.794   2.805   1.842 -0.2285 -0.4819  1.4981
   16CHTO   C79 6479   4.862   2.536   1.898  0.2016  0.4931  0.5861
   16CHTO  H151 6480   4.760   2.549   1.862 -0.3627  0.4938  2.1689
   16CHTO   O52 6481   4.914   2.418   1.833 -0.2120  0.4118  0.0080
   16CHTO   C86 6482   5.053   2.392   1.870  0.4428 -0.3310 -0.3185
   16CHTO  H158 6483   5.059   2.371   1.979  0.5985 -2.8599 -0.7905
   16CHTO   C90 6484   5.083   2.254   1.809  0.0968 -0.0527 -0.4398
   16CHTO   O60 6485   5.087   2.252   1.667 -0.2770  0.2720 -0.7132
   16CHTO  H138 6486   4.998   2.256   1.636 -0.4912  0.0795 -0.1241
   16CHTO   O50 6487   4.856   2.512   2.041  0.3498  1.1752  0.2570
   16CHTO   C73 6488   4.797   2.425   2.134 -0.2120  0.2746 -0.1878
   16CHTO  H145 6489   4.850   2.329   2.130 -1.8925 -0.6693  0.1475
   16CHTO   C74 6490   4.643   2.398   2.099 -0.0705  0.0960 -0.0073
   16CHTO  H146 6491   4.627   2.357   1.999 -0.7617  3.5711 -1.4084
   16CHTO   O54 6492   4.591   2.300   2.185 -0.0127 -0.0253  0.5454
   16CHTO  H133 6493   4.504   2.277   2.160  0.6915 -1.0518 -1.0100
   16CHTO   C75 6494   4.583   2.549   2.116  0.3371 -0.4495  0.3200
   16CHTO  H147 6495   4.632   2.606   2.035  0.4485 -2.3675 -1.0011
   16CHTO   N13 6496   4.441   2.565   2.089  0.3168  0.0973 -0.3196
   16CHTO  H139 6497   4.383   2.481   2.123  0.2753 -0.0292 -0.7069
   16CHTO  H140 6498   4.430   2.589   1.984 -2.4647 -1.6048 -0.4626
   16CHTO   C76 6499   4.616   2.617   2.258  0.3337  0.2105  0.2300
   16CHTO  H148 6500   4.561   2.560   2.333  0.3431  0.9688  0.8213
   16CHTO   O49 6501   4.755   2.609   2.296  0.1059 -0.1775  0.2703
   16CHTO   C77 6502   4.818   2.476   2.284 -0.1988  0.5305  0.5546
   16CHTO  H149 6503   4.780   2.398   2.350  0.9334 -1.6168 -1.2335
   16CHTO   C88 6504   4.960   2.494   2.322 -0.7450 -0.3963  0.1735
   16CHTO   O58 6505   4.969   2.539   2.467  0.1812  0.0101 -0.2431
   16CHTO  H136 6506   5.013   2.470   2.513  0.9135 -2.6733 -4.7016
   16CHTO   O51 6507   4.592   2.781   2.242  0.4159  0.0614 -0.2348
   16CHTO   C78 6508   4.614   2.863   2.356 -0.2499 -0.0634  0.1517
   16CHTO  H150 6509   4.673   2.814   2.436  0.7716  0.5811 -0.1958
   16CHTO   C80 6510   4.475   2.898   2.420  0.9205 -0.5034 -0.7628
   16CHTO  H152 6511   4.408   2.934   2.340 -0.3410  0.4892  0.7077
   16CHTO   O55 6512   4.422   2.774   2.466  0.2396 -0.1110 -0.0105
   16CHTO  H134 6513   4.350   2.794   2.522  0.9312 -0.3700  0.9802
   16CHTO   C84 6514   4.487   3.008   2.528 -0.0215 -0.2026 -0.4343
   16CHTO  H156 6515   4.550   2.981   2.613 -0.3424 -0.0153 -0.1334
   16CHTO   N15 6516   4.348   3.044   2.581 -0.1338 -0.2537 -0.7258
   16CHTO  H143 6517   4.346   3.121   2.654  2.3744  0.1895 -1.0982
   16CHTO  H144 6518   4.289   3.074   2.497  1.0789 -1.8697 -2.1818
   16CHTO   C87 6519   4.561   3.131   2.471  0.1579  0.2339 -0.3402
   16CHTO  H159 6520   4.506   3.167   2.384 -2.1972 -1.8730  0.2042
   16CHTO   O53 6521   4.697   3.085   2.420 -0.4352  0.0597  0.0739
   16CHTO   C82 6522   4.703   2.984   2.318  0.7102  0.0023 -0.2280
   16CHTO  H154 6523   4.668   3.015   2.220 -0.3077 -0.8163 -0.1305
   16CHTO   C89 6524   4.845   2.943   2.300 -0.1498  0.1955  0.4660
   16CHTO   O59 6525   4.921   3.046   2.239  0.2895 -0.2692  0.2143
   16CHTO  H137 6526   4.952   3.098   2.311  0.0158  1.3807 -0.8316
   16CHTO   O45 6527   4.568   3.260   2.605  0.9002 -0.0457  0.3033
   16CHTO   C67 6528   4.704   3.295   2.634  0.5836  0.6161  0.0586
   16CHTO  H124 6529   4.768   3.208   2.655  0.0218  0.1594 -0.1145
   16CHTO   C65 6530   4.769   3.369   2.516  0.3220  0.5793 -0.0258
   16CHTO  H122 6531   4.698   3.353   2.434  1.5816  1.6993 -1.3686
   16CHTO   O44 6532   4.893   3.299   2.485  0.3773  0.5176 -0.1734
   16CHTO  H102 6533   4.943   3.349   2.423  1.4076 -0.1984  0.0672
   16CHTO   C63 6534   4.765   3.522   2.538 -0.5789  0.4469 -0.2817
   16CHTO  H120 6535   4.665   3.558   2.564 -1.4831  0.9473 -4.0279
   16CHTO   N11 6536   4.779   3.611   2.417  0.0743  0.0435  0.0838
   16CHTO  H108 6537   4.855   3.565   2.357 -0.5736  0.8152 -1.3656
   16CHTO  H109 6538   4.694   3.600   2.352 -2.5859  1.8997  3.1227
   16CHTO   C61 6539   4.865   3.553   2.652  0.0301  0.4282 -0.2179
   16CHTO  H118 6540   4.849   3.653   2.695  2.5626  0.4945  0.6860
   16CHTO   O40 6541   4.839   3.461   2.771 -0.3283  0.1318  0.0422
   16CHTO   C68 6542   4.715   3.386   2.766 -0.0226 -0.4082 -0.5287
   16CHTO  H125 6543   4.624   3.449   2.771 -1.2664 -2.1973  0.0782
   16CHTO   C72 6544   4.703   3.291   2.882  0.4941  0.7662 -0.1582
   16CHTO   O48 6545   4.819   3.209   2.897  0.3481 -0.8810 -0.4597
   16CHTO  H105 6546   4.894   3.264   2.906 -0.0248 -0.4800  0.2322
   16CHTO   O38 6547   5.000   3.535   2.604  0.3374  0.3195  0.3860
   16CHTO   C55 6548   5.102   3.602   2.679 -0.0311  0.3694  0.0587
   16CHTO  H112 6549   5.073   3.605   2.785  1.4078 -0.6930  0.4965
   16CHTO   C56 6550   5.126   3.746   2.619  0.2522 -0.8492  0.4400
   16CHTO  H113 6551   5.140   3.736   2.510 -0.2916 -0.0756  0.2954
   16CHTO   O42 6552   5.023   3.840   2.642  0.1333  0.0342 -0.1126
   16CHTO  H100 6553   4.974   3.849   2.562 -1.6569 -0.2238  0.9169
   16CHTO   C57 6554   5.268   3.805   2.675 -0.1040  0.7330  0.1136
   16CHTO  H114 6555   5.257   3.827   2.781 -2.9457 -1.8437  0.4333
   16CHTO   N10 6556   5.299   3.934   2.610 -0.6504 -0.1494 -0.4168
   16CHTO  H106 6557   5.354   3.915   2.519  0.8145  0.2690  0.3500
   16CHTO  H107 6558   5.210   3.991   2.588 -0.3374  0.7575  0.5740
   16CHTO   C58 6559   5.376   3.703   2.656 -0.1155  0.4129  0.7162
   16CHTO  H115 6560   5.375   3.673   2.549 -2.0638 -0.0971  0.8580
   16CHTO   O37 6561   5.343   3.593   2.731 -0.2198  0.6388 -0.0158
   16CHTO   C59 6562   5.234   3.512   2.673 -0.5315  0.8409 -0.6830
   16CHTO  H116 6563   5.260   3.477   2.573  2.4481 -1.7335  0.8811
   16CHTO   C70 6564   5.220   3.391   2.762  0.3428 -0.2460  0.0697
   16CHTO   O46 6565   5.107   3.303   2.740  0.5618  0.4394  0.2933
   16CHTO  H103 6566   5.033   3.314   2.796  1.7455 -0.9638  2.1974
   16CHTO   O39 6567   5.512   3.747   2.711 -0.4822  0.2628 -0.3254
   16CHTO   C60 6568   5.614   3.731   2.611  0.4082  0.2595  0.0292
   16CHTO  H117 6569   5.569   3.740   2.513  2.3863  4.9035 -0.5963
   16CHTO   C62 6570   5.729   3.830   2.630 -0.1975  0.1899  0.2056
   16CHTO  H119 6571   5.674   3.926   2.627 -0.0767  0.2335 -0.8700
   16CHTO   O43 6572   5.793   3.838   2.762 -0.4385  0.3045 -0.1422
   16CHTO  H101 6573   5.768   3.916   2.807  0.8378 -0.0229  1.1900
   16CHTO   C66 6574   5.847   3.829   2.512 -0.6643 -0.4913  0.0023
   16CHTO  H123 6575   5.801   3.837   2.414  0.3668  2.1880 -0.2930
   16CHTO   N12 6576   5.941   3.948   2.530 -0.1937  0.6782  0.3788
   16CHTO  H110 6577   6.045   3.924   2.544 -0.4306 -0.8108 -0.2577
   16CHTO  H111 6578   5.916   4.022   2.456 -0.0104  0.5892  0.2278
   16CHTO   C69 6579   5.917   3.694   2.517 -0.1028  0.1792  0.8081
   16CHTO  H126 6580   5.991   3.689   2.600  0.4954 -0.6754  0.2312
   16CHTO   O41 6581   5.797   3.569   2.524 -0.4036 -0.8109  0.6634
   16CHTO   C64 6582   5.681   3.593   2.623  0.0996  0.0496 -0.4008
   16CHTO  H121 6583   5.720   3.583   2.726 -1.7701  1.4707  0.4581
   16CHTO   C71 6584   5.586   3.468   2.605  0.2258  0.0040  0.4276
   16CHTO   O47 6585   5.527   3.458   2.470  0.3411  0.1003 -0.2548
   16CHTO  H104 6586   5.545   3.531   2.413 -0.9156  0.2311 -0.4930
   16CHTO   O34 6587   5.996   3.672   2.385  0.2759 -0.1808  0.1186
   16CHTO   C49 6588   6.093   3.574   2.318 -0.9576  0.1876 -0.6038
   16CHTO   H91 6589   6.059   3.474   2.348  1.2986 -0.1448  0.9416
   16CHTO   C47 6590   6.239   3.584   2.371 -0.3464 -0.2901  0.0357
   16CHTO   H89 6591   6.246   3.516   2.458  1.5093  0.8187  0.7987
   16CHTO   O33 6592   6.273   3.714   2.417 -0.2172  0.5032  0.1907
   16CHTO   H70 6593   6.319   3.754   2.346  0.4594 -2.6303 -1.2036
   16CHTO   C45 6594   6.345   3.543   2.253  0.7387  0.0589  0.4002
   16CHTO   H87 6595   6.365   3.622   2.179 -0.5798 -2.5430 -2.8622
   16CHTO    N8 6596   6.475   3.512   2.316 -0.8357 -0.0558  0.0650
   16CHTO   H75 6597   6.531   3.438   2.261 -2.9906 -0.1482 -2.0853
   16CHTO   H76 6598   6.477   3.488   2.421  1.3469 -0.6241 -0.0768
   16CHTO   C43 6599   6.287   3.433   2.151 -0.1335 -0.0038 -0.5661
   16CHTO   H85 6600   6.365   3.422   2.076 -0.1709  5.2637 -1.5813
   16CHTO   O29 6601   6.167   3.485   2.091  0.0275 -0.2338  0.0566
   16CHTO   C50 6602   6.085   3.577   2.166 -0.5963 -0.5519 -0.1864
   16CHTO   H92 6603   6.092   3.682   2.134 -0.5380  0.4562  2.9573
   16CHTO   C54 6604   5.943   3.542   2.123 -0.0931 -0.0397  0.1080
   16CHTO   O36 6605   5.843   3.617   2.189  0.2437 -0.4261  0.4404
   16CHTO   H72 6606   5.864   3.622   2.281 -1.3776  0.1582  0.7823
   16CHTO   O27 6607   6.274   3.304   2.214  0.2228  0.0975  0.0711
   16CHTO   C37 6608   6.232   3.175   2.241  0.8077 -0.8040 -0.6582
   16CHTO   H79 6609   6.218   3.162   2.349 -0.7507  2.8064 -0.3668
   16CHTO   C38 6610   6.089   3.140   2.178 -0.3973 -0.7404 -0.1623
   16CHTO   H80 6611   6.089   3.169   2.072 -2.3518 -2.6490 -0.7148
   16CHTO   O31 6612   6.004   3.231   2.248 -0.2562 -0.0744  0.0859
   16CHTO   H68 6613   5.986   3.211   2.338 -0.6629  0.0522  0.0366
   16CHTO   C39 6614   6.047   2.988   2.199 -0.1145  0.3680 -0.2888
   16CHTO   H81 6615   6.052   2.977   2.307  3.6686 -1.9777 -0.6347
   16CHTO    N7 6616   5.914   2.954   2.146 -0.4332 -0.2072 -0.3938
   16CHTO   H73 6617   5.860   3.044   2.118  1.8931  1.3443 -0.0162
   16CHTO   H74 6618   5.918   2.886   2.063 -2.5861  2.7064 -3.0010
   16CHTO   C40 6619   6.159   2.898   2.139  0.0562  0.4413 -0.9434
   16CHTO   H82 6620   6.160   2.913   2.031 -0.7873 -2.0548 -1.3308
   16CHTO   O26 6621   6.282   2.934   2.205  0.3026  0.1013 -0.3508
   16CHTO   C41 6622   6.328   3.070   2.193  0.0502  0.1629  0.8883
   16CHTO   H83 6623   6.331   3.076   2.083 -1.5678  0.7228  0.8606
   16CHTO   C52 6624   6.465   3.074   2.260 -0.0560 -0.5754  0.1483
   16CHTO   O35 6625   6.531   3.188   2.227 -0.2453 -0.1594 -0.2029
   16CHTO   H71 6626   6.474   3.253   2.264 -2.6871 -1.4156 -1.5780
   16CHTO   O28 6627   6.131   2.758   2.170  0.4754 -0.1903 -0.4736
   16CHTO   C42 6628   6.181   2.639   2.106 -0.4877 -0.5701 -0.1589
   16CHTO   H84 6629   6.283   2.666   2.081 -0.7929 -0.5894 -1.4746
   16CHTO   C44 6630   6.113   2.609   1.966  0.9101  0.2301  0.0459
   16CHTO   H86 6631   6.005   2.620   1.975  0.7825 -0.4237 -0.6501
   16CHTO   O32 6632   6.147   2.712   1.871  0.7975  0.1379  0.2615
   16CHTO   H69 6633   6.240   2.724   1.870  0.8333 -0.0091  1.4342
   16CHTO   C48 6634   6.139   2.462   1.910 -0.9268  0.2204 -0.0950
   16CHTO   H90 6635   6.245   2.456   1.887 -0.5021 -0.7800  1.9908
   16CHTO    N9 6636   6.060   2.426   1.789 -0.0285 -0.1938  0.0935
   16CHTO   H77 6637   6.096   2.331   1.754  1.8947  1.4385 -2.5316
   16CHTO   H78 6638   5.958   2.422   1.825  0.5252  1.9018  2.0107
   16CHTO   C51 6639   6.107   2.361   2.022  0.3344 -0.5873  0.4944
   16CHTO   H93 6640   6.009   2.375   2.067  0.4907 -0.5325  0.8217
   16CHTO   O30 6641   6.213   2.386   2.120 -0.5470 -0.3081  0.4111
   16CHTO   C46 6642   6.181   2.523   2.204 -1.1755  0.5887 -0.9418
   16CHTO   H88 6643   6.090   2.515   2.264 -2.1876  4.1481 -1.8416
   16CHTO   C53 6644   6.299   2.541   2.305 -0.1961 -0.1536 -0.9880
   16CHTO   O72 6645   6.305   2.420   2.391 -0.1976 -0.0689 -0.5116
   16CHTO  H199 6646   6.299   2.343   2.336 -1.2304 -1.2173  1.1567
   16CHTO   O22 6647   6.128   2.220   1.988 -0.5805 -0.0437  0.0962
   16CHTO   C31 6648   6.074   2.102   2.061 -0.3098 -0.0780 -0.1747
   16CHTO   H59 6649   5.992   2.143   2.125  0.6601  0.6752  0.5981
   16CHTO   C29 6650   6.008   1.991   1.969 -0.8199  0.2439 -0.4708
   16CHTO   H57 6651   6.085   1.972   1.893  0.5633  0.1536  0.9132
   16CHTO   O21 6652   5.894   2.044   1.901  0.1395 -0.2424  0.1252
   16CHTO   H37 6653   5.897   2.019   1.811 -0.6056 -0.5244  0.1793
   16CHTO   C27 6654   5.970   1.861   2.054  0.6913  0.1780  0.1332
   16CHTO   H55 6655   5.894   1.888   2.129  1.5381  1.4038  0.5676
   16CHTO    N5 6656   5.920   1.742   1.971 -0.2119  0.4283 -0.0470
   16CHTO   H43 6657   5.826   1.711   2.015 -0.6546 -0.2687 -1.4721
   16CHTO   H44 6658   5.992   1.663   1.962  0.1391  0.5629  1.4028
   16CHTO   C25 6659   6.094   1.816   2.133 -0.1829  0.4349  0.0609
   16CHTO   H53 6660   6.171   1.790   2.059 -1.0283 -0.2351 -0.5906
   16CHTO   O17 6661   6.123   1.931   2.223 -0.3719  0.4794 -0.0980
   16CHTO   C32 6662   6.180   2.038   2.156 -0.0389 -0.6294 -0.2326
   16CHTO   H60 6663   6.265   2.009   2.096  0.0985 -1.4005  0.3171
   16CHTO   C36 6664   6.235   2.136   2.268  0.1653  0.0017  0.2776
   16CHTO   O25 6665   6.352   2.081   2.334  0.1055  0.0107 -0.3899
   16CHTO   H40 6666   6.412   2.153   2.328  3.8058 -2.8236  0.5827
   16CHTO   O15 6667   6.068   1.689   2.222 -0.1962 -0.2117 -0.3964
   16CHTO   C19 6668   5.968   1.659   2.338 -0.6909 -0.0850 -0.1447
   16CHTO   H47 6669   6.029   1.604   2.412  1.8144  0.8300 -1.4661
   16CHTO   C20 6670   5.917   1.789   2.408 -0.8954  0.2001 -0.0687
   16CHTO   H48 6671   5.883   1.863   2.334  0.4091  0.5603 -0.3214
   16CHTO   O19 6672   6.043   1.834   2.473  0.1985  0.5558  0.1360
   16CHTO   H35 6673   6.018   1.904   2.530 -3.7085 -0.2006 -0.5042
   16CHTO   C21 6674   5.805   1.752   2.515  0.3679  0.2819  0.8513
   16CHTO   H49 6675   5.846   1.707   2.605  0.3264 -0.0943  0.6802
   16CHTO    N4 6676   5.747   1.880   2.561  0.2092 -0.1054  0.3142
   16CHTO   H41 6677   5.672   1.857   2.635 -0.2763 -0.2167 -0.2163
   16CHTO   H42 6678   5.822   1.944   2.606  0.3763 -0.7411  0.9561
   16CHTO   C22 6679   5.689   1.659   2.456  1.1091 -0.3478 -1.0200
   16CHTO   H50 6680   5.629   1.699   2.375  0.0459 -0.2766 -0.2022
   16CHTO   O14 6681   5.757   1.542   2.404  0.5619 -0.2721  0.4525
   16CHTO   C23 6682   5.852   1.567   2.293  0.0791 -0.4440  0.0121
   16CHTO   H51 6683   5.784   1.617   2.224  1.2420  2.6422  1.0134
   16CHTO   C34 6684   5.912   1.431   2.250 -0.1922 -0.2224 -0.1472
   16CHTO   O23 6685   5.812   1.336   2.218 -0.2815 -0.0754 -0.3204
   16CHTO   H38 6686   5.833   1.253   2.257 -1.3127  0.0612  0.5185
   16CHTO   O16 6687   5.603   1.609   2.566 -0.2221 -0.4963  0.7783
   16CHTO   C24 6688   5.459   1.558   2.500  0.0654  0.0735  0.0031
   16CHTO   H52 6689   5.459   1.560   2.391  1.1945  0.4954  0.0050
   16CHTO   C26 6690   5.350   1.658   2.546 -0.6699 -0.3784 -0.1207
   16CHTO   H54 6691   5.345   1.660   2.657 -0.0054  0.4801 -0.0936
   16CHTO   O20 6692   5.389   1.788   2.503  0.0807 -0.1516  0.7657
   16CHTO   H36 6693   5.475   1.810   2.536  0.7805 -0.3703 -0.8609
   16CHTO   C30 6694   5.213   1.611   2.479 -0.0942  0.4130 -0.3157
   16CHTO   H58 6695   5.223   1.620   2.370  2.6640 -1.1816 -0.2452
   16CHTO    N6 6696   5.099   1.694   2.523 -0.0591  0.2311  0.2406
   16CHTO   H45 6697   5.014   1.666   2.463 -1.7280  1.1413  2.1312
   16CHTO   H46 6698   5.074   1.676   2.626  1.3357  0.9084  0.7131
   16CHTO   C33 6699   5.183   1.463   2.499 -1.1827 -0.6088 -0.0291
   16CHTO   H61 6700   5.157   1.445   2.605 -2.7416  2.8739  0.2568
   16CHTO   O18 6701   5.300   1.386   2.464 -0.0117 -0.1312  0.7157
   16CHTO   C28 6702   5.418   1.416   2.544 -0.3989  0.2659 -0.1109
   16CHTO   H56 6703   5.384   1.427   2.647  0.2728  0.3952  0.0958
   16CHTO   C35 6704   5.525   1.315   2.519  0.2328  0.2334  0.5950
   16CHTO   O24 6705   5.657   1.315   2.571 -0.0892  0.1120  0.0821
   16CHTO   H39 6706   5.654   1.273   2.655 -2.7312  2.0740  1.0458
   16CHTO    O9 6707   5.067   1.426   2.419 -0.5074 -0.1237 -0.3761
   16CHTO   C13 6708   5.044   1.266   2.402 -0.0202 -0.1287 -0.4964
   16CHTO   H26 6709   5.147   1.226   2.406  1.3168  3.0388 -1.3089
   16CHTO   C11 6710   4.975   1.240   2.267  0.0451 -1.0087  0.6865
   16CHTO   H24 6711   5.044   1.262   2.184 -1.9426 -0.8580 -0.9807
   16CHTO    O8 6712   4.850   1.306   2.249 -0.0850  0.4757 -0.2255
   16CHTO    H3 6713   4.810   1.263   2.176  0.0187  0.8168 -0.4870
   16CHTO    C9 6714   4.964   1.089   2.263  0.7255 -0.6478 -0.1298
   16CHTO   H22 6715   5.068   1.058   2.278  1.0144  1.1100  1.6378
   16CHTO    N2 6716   4.934   1.027   2.130 -0.1501 -0.3915  0.4358
   16CHTO   H10 6717   4.998   0.940   2.128 -0.4055 -0.5717  0.0403
   16CHTO   H11 6718   4.949   1.102   2.054 -0.8009 -0.4351  0.2598
   16CHTO    C7 6719   4.869   1.036   2.380 -1.0450  0.1500  0.2441
   16CHTO   H20 6720   4.884   0.926   2.382  1.0060  0.4155  0.3406
   16CHTO    O4 6721   4.895   1.091   2.508  0.9070 -0.6344 -0.4361
   16CHTO   C14 6722   4.964   1.219   2.527  0.5642  0.4021  0.7913
   16CHTO   H27 6723   5.032   1.205   2.613  0.9571  0.9076  0.5649
   16CHTO   C18 6724   4.851   1.318   2.576 -0.2712  0.3313  0.2754
   16CHTO   O13 6725   4.798   1.279   2.707 -0.1649  0.7702  0.3003
   16CHTO    H7 6726   4.719   1.328   2.721 -1.3307 -1.0452  0.3040
   16CHTO    O2 6727   4.720   1.053   2.343 -0.1012 -0.4064  0.0319
   16CHTO    C1 6728   4.612   0.993   2.418 -0.2482  0.6644  0.2476
   16CHTO   H14 6729   4.520   1.002   2.357  1.2200 -0.7215 -2.2487
   16CHTO    C2 6730   4.580   1.062   2.559 -0.8940  0.0474  0.2508
   16CHTO   H15 6731   4.678   1.069   2.608 -2.3977  1.1011  3.1983
   16CHTO    O6 6732   4.525   1.186   2.527  0.3346 -0.1575 -0.4777
   16CHTO    H1 6733   4.558   1.229   2.450  1.3602  1.1272  0.6407
   16CHTO    C3 6734   4.475   0.976   2.645  0.2027  0.5468 -0.6902
   16CHTO   H16 6735   4.378   0.984   2.595  1.6878  1.5134 -3.5385
   16CHTO    N1 6736   4.451   1.017   2.788 -0.4053 -0.2440  0.5515
   16CHTO    H8 6737   4.391   1.106   2.789  0.3443  0.2607  1.5617
   16CHTO    H9 6738   4.537   1.042   2.849 -1.0055 -1.4821  1.9620
   16CHTO    C4 6739   4.510   0.825   2.640 -0.3254  0.5490 -0.1818
   16CHTO   H17 6740   4.599   0.811   2.702 -0.2085 -0.8644 -0.6597
   16CHTO    O1 6741   4.530   0.784   2.505 -0.0138  0.3815  0.4239
   16CHTO    C5 6742   4.644   0.845   2.446  0.4810  0.6131  0.4915
   16CHTO   H18 6743   4.726   0.845   2.518  0.7559  0.2422  0.1856
   16CHTO   C16 6744   4.685   0.760   2.319  0.1110 -0.2913 -0.3092
   16CHTO   O11 6745   4.769   0.660   2.369  0.3076  0.5995 -0.3902
   16CHTO    H5 6746   4.841   0.665   2.310  1.3931  0.5941  0.9229
   16CHTO    O3 6747   4.403   0.737   2.681 -0.3493 -0.2373  0.1527
   16CHTO    C6 6748   4.442   0.604   2.728  0.1931 -0.1568 -0.5262
   16CHTO   H19 6749   4.536   0.573   2.684  0.8257 -0.2396  0.8577
   16CHTO    C8 6750   4.434   0.625   2.887 -0.3886  0.5095  0.0346
   16CHTO   H21 6751   4.351   0.694   2.905  1.3284  2.0038  2.5223
   16CHTO    O7 6752   4.564   0.675   2.939 -0.3900 -0.6626 -0.4244
   16CHTO    H2 6753   4.568   0.662   3.031  0.7406 -1.6270 -0.5914
   16CHTO   C12 6754   4.403   0.486   2.963 -1.0216 -0.0212  0.6476
   16CHTO   H25 6755   4.502   0.436   2.973 -0.1344  1.3842 -0.8785
   16CHTO    N3 6756   4.359   0.512   3.099  0.5183  0.0031  0.0680
   16CHTO   H12 6757   4.369   0.420   3.155  2.7779 -1.0585 -1.9723
   16CHTO   H13 6758   4.258   0.549   3.104  0.4128 -0.1104 -1.1226
   16CHTO   C15 6759   4.299   0.393   2.882 -0.8011 -0.5933 -0.0570
   16CHTO   H28 6760   4.195   0.425   2.890  0.5622  4.1905 -0.2498
   16CHTO   O10 6761   4.308   0.254   2.926  0.0447  0.3874 -0.0539
   16CHTO    H4 6762   4.228   0.229   2.968 -0.8919  1.3830 -1.1819
   16CHTO    O5 6763   4.343   0.377   2.747 -0.2433  0.3244  0.3231
   16CHTO   C10 6764   4.335   0.507   2.687 -0.2263 -0.2008 -0.4497
   16CHTO   H23 6765   4.244   0.554   2.724 -1.0366 -0.4904 -2.0351
   16CHTO   C17 6766   4.317   0.495   2.534  0.4890 -0.3880 -0.4673
   16CHTO   O12 6767   4.188   0.450   2.489 -0.1903 -1.1695 -0.5848
   16CHTO    H6 6768   4.190   0.446   2.395 -0.4866 -0.1125 -0.6446
   17CHTO  H203 6769   3.479   4.832   1.644 -0.2474  0.8486  0.8285
   17CHTO   O82 6770   3.528   4.912   1.639  0.4814  0.3784  0.2528
   17CHTO  C123 6771   3.671   4.893   1.620 -0.6127  0.0375  0.1720
   17CHTO  H227 6772   3.691   4.785   1.622 -0.1352  0.1329  0.3949
   17CHTO   O77 6773   3.694   4.935   1.489  0.1325 -0.2630 -0.4405
   17CHTO  C118 6774   3.821   4.893   1.435 -0.1072 -0.0917 -0.4162
   17CHTO  H222 6775   3.812   4.783   1.441 -0.5364 -0.1233 -1.5577
   17CHTO  C125 6776   3.821   4.934   1.281 -0.2530 -0.3120 -0.2071
   17CHTO   O84 6777   3.890   4.842   1.200 -0.7070  0.1862 -0.3953
   17CHTO  H205 6778   3.855   4.758   1.223 -2.9336  1.5321  1.4077
   17CHTO  C114 6779   3.940   4.953   1.506  0.3358 -0.8038 -0.0271
   17CHTO  H218 6780   3.949   5.059   1.482 -0.0560 -0.7239  0.1765
   17CHTO  C116 6781   3.922   4.957   1.665 -0.0114  0.1318  0.4966
   17CHTO  H220 6782   3.971   4.866   1.705 -1.2170 -1.2739 -1.1132
   17CHTO   O79 6783   4.005   5.057   1.729  0.4807 -0.2126  0.3558
   17CHTO  H201 6784   3.989   5.146   1.703 -2.5613 -0.3429  1.6727
   17CHTO  C120 6785   3.769   4.973   1.717 -0.6733  0.0203  0.9522
   17CHTO  H224 6786   3.755   5.082   1.710 -1.1407  0.0388  2.0715
   17CHTO   N21 6787   3.759   4.929   1.859  0.3922 -0.5206 -0.3405
   17CHTO  H211 6788   3.835   4.854   1.879  0.4522 -0.0701  1.2010
   17CHTO  H212 6789   3.659   4.891   1.874  0.6705 -2.3416 -2.8744
   17CHTO   O75 6790   4.053   4.885   1.459 -0.6063 -0.3094  0.3636
   17CHTO  C112 6791   4.150   4.981   1.356 -0.1583  0.9601  0.2983
   17CHTO  H216 6792   4.100   5.075   1.329  1.9824  1.4198 -2.4184
   17CHTO   O73 6793   4.179   4.908   1.238  0.1623 -0.0450 -0.2186
   17CHTO  C113 6794   4.245   4.990   1.133  0.8169  0.3379 -0.1627
   17CHTO  H217 6795   4.178   5.077   1.118  0.4609  0.1290  0.2013
   17CHTO  C124 6796   4.260   4.912   1.003  0.3990  0.3563  0.2200
   17CHTO   O83 6797   4.322   4.979   0.893 -0.0591 -0.1798  0.5333
   17CHTO  H204 6798   4.271   5.055   0.873  0.0524  0.0000  0.9171
   17CHTO  C109 6799   4.384   5.031   1.185 -0.1136 -0.0761 -0.1433
   17CHTO  H213 6800   4.443   4.939   1.202  1.3629  0.4953 -2.0300
   17CHTO  C110 6801   4.373   5.108   1.324 -0.7827  0.5351  1.0195
   17CHTO  H214 6802   4.330   5.208   1.308 -1.9057  0.2211  2.0453
   17CHTO   O78 6803   4.505   5.133   1.378 -0.0091  0.0743 -0.3610
   17CHTO  H200 6804   4.547   5.054   1.405 -0.1686  0.3566  0.7590
   17CHTO  C111 6805   4.288   5.026   1.427 -0.2880 -0.6834  0.0356
   17CHTO  H215 6806   4.343   4.938   1.463  0.3249  0.6473  2.4073
   17CHTO   N19 6807   4.254   5.107   1.548  0.2315  0.5210  0.2454
   17CHTO  H207 6808   4.287   5.051   1.635  1.0106 -0.0347 -0.3981
   17CHTO  H208 6809   4.276   5.212   1.542 -0.5107  0.6431 -0.4886
   17CHTO   O74 6810   4.454   5.114   1.093  0.2347  0.0827  0.3972
   17CHTO  C115 6811   4.612   5.112   1.086  0.2527  0.0782 -1.0050
   17CHTO  H219 6812   4.652   5.085   1.184 -1.4700 -0.0220 -0.3123
   17CHTO   O76 6813   4.662   5.008   0.993 -0.2115 -0.1602 -0.2018
   17CHTO  C122 6814   4.810   4.995   0.988  0.1297 -0.2344 -0.1913
   17CHTO  H226 6815   4.842   4.933   0.904  1.9864  1.1488 -0.5092
   17CHTO  C126 6816   4.874   4.922   1.114  0.3965  0.0113 -0.0444
   17CHTO   O85 6817   4.803   4.807   1.152 -0.2257 -0.0539 -0.3295
   17CHTO  H206 6818   4.864   4.738   1.165 -1.1529 -1.0575 -1.1936
   17CHTO  C121 6819   4.900   5.131   0.972 -0.7118  0.2645 -0.0936
   17CHTO  H225 6820   5.008   5.126   0.996 -0.5162  0.8132 -0.8424
   17CHTO   O81 6821   4.909   5.153   0.838  0.1414  0.3071  0.0164
   17CHTO  H202 6822   4.966   5.227   0.825 -0.1807  0.3898 -0.9776
   17CHTO  C119 6823   4.835   5.249   1.065 -0.5315  0.6282 -0.1216
   17CHTO  H223 6824   4.865   5.224   1.166 -0.8032  1.1942  0.1001
   17CHTO  C117 6825   4.673   5.254   1.058 -0.5852 -0.4164  0.2896
   17CHTO  H221 6826   4.631   5.272   0.959 -0.4275 -2.9672 -0.2631
   17CHTO   N20 6827   4.625   5.359   1.147  0.1311 -0.7302 -0.6539
   17CHTO  H209 6828   4.522   5.388   1.129 -0.4370 -2.1719  0.1815
   17CHTO  H210 6829   4.666   5.377   1.245  0.8214  1.0793 -1.2591
   17CHTO   O80 6830   4.897   5.404   1.048 -0.7545 -0.3404  0.0051
   17CHTO  C103 6831   5.016   5.443   1.134 -0.1343  0.2743  0.1285
   17CHTO  H190 6832   5.002   5.426   1.241  1.3636 -0.6910  0.1814
   17CHTO  C101 6833   5.153   5.381   1.086 -0.6311  0.7212 -0.4051
   17CHTO  H188 6834   5.154   5.368   0.977  1.0003 -2.3640 -0.0699
   17CHTO   O68 6835   5.165   5.234   1.138  0.0118  0.3532  0.4634
   17CHTO  H168 6836   5.228   5.241   1.208  0.8408  0.7821 -0.3109
   17CHTO   C99 6837   5.271   5.485   1.123 -0.3367 -0.6483  0.4469
   17CHTO  H186 6838   5.274   5.500   1.233 -0.0416  0.5801  0.2773
   17CHTO   N17 6839   5.402   5.430   1.087  0.0632  0.2897  0.2542
   17CHTO  H174 6840   5.426   5.350   1.154  0.5517  0.0457 -0.2113
   17CHTO  H175 6841   5.404   5.391   0.986  0.4869 -1.6827  1.0115
   17CHTO   C97 6842   5.240   5.622   1.064 -0.2576 -0.1833  0.7698
   17CHTO  H184 6843   5.235   5.613   0.954  0.3190 -0.5119  0.7639
   17CHTO   O64 6844   5.123   5.676   1.121  0.4655  0.1452  0.2457
   17CHTO  C104 6845   5.005   5.604   1.105  0.2770 -0.0599  0.6711
   17CHTO  H191 6846   4.960   5.624   1.008 -1.6218 -1.5205  1.2106
   17CHTO  C108 6847   4.897   5.664   1.202 -0.2138 -0.0749 -0.0404
   17CHTO   O71 6848   4.871   5.799   1.161 -0.0433  0.5588 -0.8211
   17CHTO  H171 6849   4.792   5.828   1.202 -0.8104 -1.2028 -0.9779
   17CHTO   O62 6850   5.329   5.721   1.110  0.4026 -0.4316  0.1899
   17CHTO   C91 6851   5.342   5.849   1.049 -0.5722  0.2596  0.7811
   17CHTO  H178 6852   5.321   5.841   0.943 -0.6939 -2.4081  0.9707
   17CHTO   C92 6853   5.496   5.889   1.072  0.9089  0.8050  0.3403
   17CHTO  H179 6854   5.531   5.824   1.153  0.6006 -0.9580 -0.8958
   17CHTO   O66 6855   5.565   5.837   0.953  0.7747  0.5820  0.3450
   17CHTO  H166 6856   5.655   5.862   0.958  1.1153 -0.5033 -0.1038
   17CHTO   C93 6857   5.521   6.046   1.081 -0.0403 -0.5018 -0.2668
   17CHTO  H180 6858   5.519   6.089   0.979  0.5228  0.4898  0.1351
   17CHTO   N16 6859   5.660   6.074   1.119 -0.5950  0.3046  0.2023
   17CHTO  H172 6860   5.674   6.178   1.144  0.4082  0.6198 -1.5836
   17CHTO  H173 6861   5.724   6.057   1.033 -0.7658 -2.2999  0.5440
   17CHTO   C94 6862   5.407   6.116   1.171 -0.3533  1.0119 -0.1490
   17CHTO  H181 6863   5.398   6.066   1.267  1.9896 -0.8358 -0.8311
   17CHTO   O61 6864   5.283   6.099   1.096  0.1638 -1.0416 -0.3452
   17CHTO   C95 6865   5.239   5.966   1.102  0.0955  0.4228 -0.7200
   17CHTO  H182 6866   5.205   5.947   1.203 -0.6575 -1.9584 -1.3998
   17CHTO  C106 6867   5.107   5.968   1.018  0.1573  0.2221 -0.2291
   17CHTO   O69 6868   5.024   6.069   1.064  0.2393 -0.2405  0.4535
   17CHTO  H169 6869   4.955   6.085   1.003 -0.0772  1.4685  1.2381
   17CHTO   O63 6870   5.433   6.272   1.185 -0.3505 -0.3706  1.1471
   17CHTO   C96 6871   5.373   6.344   1.313  0.5439 -0.0078  0.6674
   17CHTO  H183 6872   5.389   6.289   1.406  1.8284 -1.9858 -0.6870
   17CHTO   C98 6873   5.219   6.365   1.307 -0.2733  0.1052 -0.3145
   17CHTO  H185 6874   5.197   6.417   1.213 -3.3153 -1.2438 -0.4007
   17CHTO   O67 6875   5.161   6.231   1.296  0.2847  0.4892 -0.3642
   17CHTO  H167 6876   5.080   6.228   1.249  1.1322 -1.1268 -1.7862
   17CHTO  C102 6877   5.172   6.451   1.437 -0.3640 -0.1170 -0.2050
   17CHTO  H189 6878   5.181   6.373   1.514  2.4048  2.1125  1.8301
   17CHTO   N18 6879   5.028   6.485   1.433 -0.1480  0.1848 -0.4151
   17CHTO  H176 6880   4.976   6.452   1.522 -1.8457  0.6451 -1.2059
   17CHTO  H177 6881   4.971   6.445   1.350  0.4799 -0.3556 -0.5907
   17CHTO  C105 6882   5.264   6.574   1.463  0.6390  0.0998  0.0613
   17CHTO  H192 6883   5.253   6.652   1.388  0.6300 -0.7483 -0.8215
   17CHTO   O65 6884   5.405   6.538   1.457 -0.2626  0.1947  0.4773
   17CHTO  C100 6885   5.440   6.486   1.330  1.0033 -0.2832 -0.5948
   17CHTO  H187 6886   5.399   6.561   1.261  0.5097 -0.1505 -0.1511
   17CHTO  C107 6887   5.595   6.471   1.308  0.1936 -0.4457  0.6776
   17CHTO   O70 6888   5.668   6.592   1.295 -0.6039  0.4637  0.4285
   17CHTO  H170 6889   5.623   6.657   1.246 -1.7747 -1.8946 -1.7509
   17CHTO   O57 6890   5.211   6.624   1.609 -0.6993  0.1145  0.4621
   17CHTO   C85 6891   5.292   6.727   1.675  0.0814  0.3159 -0.0584
   17CHTO  H157 6892   5.349   6.774   1.592  1.6408  0.5218  1.0984
   17CHTO   C83 6893   5.403   6.659   1.767  0.8234 -0.3278  0.2451
   17CHTO  H155 6894   5.471   6.610   1.697  1.7062  0.8657  0.2476
   17CHTO   O56 6895   5.342   6.564   1.860 -0.2593  0.4571 -0.2427
   17CHTO  H135 6896   5.401   6.496   1.886  0.7764  0.8373 -1.5022
   17CHTO   C81 6897   5.476   6.772   1.846  0.0549 -0.5323 -0.3385
   17CHTO  H153 6898   5.519   6.845   1.777 -2.4374  0.5320 -0.8347
   17CHTO   N14 6899   5.600   6.725   1.918  0.2123  0.1896 -0.1268
   17CHTO  H141 6900   5.579   6.664   2.003  1.5082  0.1060  0.1414
   17CHTO  H142 6901   5.660   6.807   1.951 -0.1971  0.0538  0.9628
   17CHTO   C79 6902   5.378   6.849   1.937  0.1755  0.4736 -0.1123
   17CHTO  H151 6903   5.424   6.940   1.974  1.3438  0.0816 -0.5838
   17CHTO   O52 6904   5.267   6.901   1.858 -0.0282  0.3634 -0.1858
   17CHTO   C86 6905   5.210   6.820   1.754  0.2743  0.3038  0.2568
   17CHTO  H158 6906   5.134   6.763   1.813 -1.2255 -0.9478 -2.7790
   17CHTO   C90 6907   5.131   6.920   1.670  0.6822 -0.2753  0.0391
   17CHTO   O60 6908   5.212   7.028   1.623 -0.2002 -0.3466  0.1034
   17CHTO  H138 6909   5.162   7.106   1.639 -0.3399 -0.1152 -1.3869
   17CHTO   O50 6910   5.319   6.779   2.045 -0.0232  0.1933  0.2640
   17CHTO   C73 6911   5.297   6.842   2.169 -1.1812 -0.2390 -0.2882
   17CHTO  H145 6912   5.325   6.948   2.162  0.1833 -0.6471 -1.1525
   17CHTO   C74 6913   5.383   6.784   2.285 -0.5356 -0.1281 -0.3556
   17CHTO  H146 6914   5.488   6.798   2.256 -0.1214  1.4567  1.7698
   17CHTO   O54 6915   5.359   6.859   2.405  0.0512  0.4841  0.5964
   17CHTO  H133 6916   5.412   6.827   2.475  2.7227  0.8997 -1.1408
   17CHTO   C75 6917   5.350   6.631   2.292 -0.0040  0.2129 -0.2044
   17CHTO  H147 6918   5.368   6.587   2.192 -1.2174  0.9544 -0.7616
   17CHTO   N13 6919   5.428   6.547   2.390 -0.0289  0.3148 -0.2106
   17CHTO  H139 6920   5.409   6.441   2.384  3.9033 -0.5229  1.0374
   17CHTO  H140 6921   5.531   6.557   2.361  0.9164 -2.8204  1.9056
   17CHTO   C76 6922   5.188   6.622   2.312 -0.1606  0.8090 -0.3707
   17CHTO  H148 6923   5.156   6.652   2.412 -1.0630 -1.0991 -0.0724
   17CHTO   O49 6924   5.103   6.703   2.225 -0.0227  0.3745  0.6398
   17CHTO   C77 6925   5.146   6.837   2.198 -0.3019  0.4118  0.9499
   17CHTO  H149 6926   5.120   6.898   2.284 -0.8925 -1.2968  2.0313
   17CHTO   C88 6927   5.058   6.889   2.079 -0.3764  0.4515 -0.5645
   17CHTO   O58 6928   4.916   6.899   2.110  0.7009  0.0571  0.0202
   17CHTO  H136 6929   4.871   6.911   2.028  0.2078  0.9355  0.4049
   17CHTO   O51 6930   5.153   6.478   2.272 -0.2244 -0.0780 -0.2456
   17CHTO   C78 6931   4.989   6.449   2.272 -0.0031  0.1252  0.0418
   17CHTO  H150 6932   4.925   6.540   2.283  0.8986  0.7031  0.5560
   17CHTO   C80 6933   4.963   6.350   2.394 -0.1280 -0.3482  0.3736
   17CHTO  H152 6934   5.039   6.270   2.389 -0.9449 -1.0397 -1.1397
   17CHTO   O55 6935   5.004   6.418   2.511  0.0924  0.8653 -0.2063
   17CHTO  H134 6936   4.966   6.503   2.517  0.9382  1.1776  0.8380
   17CHTO   C84 6937   4.819   6.295   2.375  0.0357 -0.2470 -0.2849
   17CHTO  H156 6938   4.752   6.378   2.400 -0.9360 -1.5524  1.5680
   17CHTO   N15 6939   4.784   6.192   2.474 -0.0347 -0.2869 -0.7457
   17CHTO  H143 6940   4.690   6.146   2.455 -0.1196  0.8608 -3.2635
   17CHTO  H144 6941   4.772   6.242   2.568 -1.1663  1.3103 -1.7233
   17CHTO   C87 6942   4.779   6.258   2.230 -0.6936  0.2402  0.9819
   17CHTO  H159 6943   4.821   6.164   2.193 -1.9557 -0.2303  0.7066
   17CHTO   O53 6944   4.812   6.352   2.138 -0.2482  0.1287  0.2608
   17CHTO   C82 6945   4.950   6.387   2.136  0.4003 -0.5131  0.5092
   17CHTO  H154 6946   5.018   6.303   2.128  2.4053  1.2218 -1.1808
   17CHTO   C89 6947   4.981   6.472   2.014  0.2576 -0.2526  0.1573
   17CHTO   O59 6948   4.920   6.601   2.003 -0.2273  0.3283 -0.0641
   17CHTO  H137 6949   4.933   6.626   1.914 -1.1554 -3.6105 -1.4268
   17CHTO   O45 6950   4.625   6.236   2.215 -0.0597 -0.2083  0.0036
   17CHTO   C67 6951   4.576   6.193   2.087  0.0459 -0.3862  0.4870
   17CHTO  H124 6952   4.653   6.146   2.026  0.0040 -1.4293  1.2314
   17CHTO   C65 6953   4.453   6.097   2.095 -0.2656 -0.4710 -0.1750
   17CHTO  H122 6954   4.487   6.020   2.164 -0.8082 -1.3439 -0.8532
   17CHTO   O44 6955   4.417   6.034   1.967 -0.6727 -0.0272  0.0567
   17CHTO  H102 6956   4.331   6.064   1.944 -0.8360  0.5881  1.3895
   17CHTO   C63 6957   4.337   6.166   2.174  0.5419 -0.0547  0.1719
   17CHTO  H120 6958   4.385   6.202   2.265  1.9938 -0.2269 -0.5146
   17CHTO   N11 6959   4.237   6.064   2.223 -0.8528 -0.4859  0.5555
   17CHTO  H108 6960   4.226   6.069   2.329  0.2029 -0.2539  0.6553
   17CHTO  H109 6961   4.147   6.080   2.168 -0.3789  0.7224  0.1025
   17CHTO   C61 6962   4.290   6.291   2.093 -0.2893  0.2448  0.0271
   17CHTO  H118 6963   4.221   6.347   2.157 -0.2383  0.5939 -0.2232
   17CHTO   O40 6964   4.403   6.376   2.073  0.3908  0.0242  0.8709
   17CHTO   C68 6965   4.529   6.328   2.007 -0.1181 -0.3772 -0.1675
   17CHTO  H125 6966   4.600   6.412   2.027  0.4178 -1.1252  1.1457
   17CHTO   C72 6967   4.517   6.305   1.857 -0.5646  0.0572 -0.1925
   17CHTO   O48 6968   4.528   6.420   1.775  0.3784  0.2142  0.2686
   17CHTO  H105 6969   4.544   6.396   1.686  1.4292 -2.0985  1.0418
   17CHTO   O38 6970   4.228   6.264   1.966  0.2444  0.2042 -0.1353
   17CHTO   C55 6971   4.093   6.304   1.933 -1.1374 -0.2896 -0.3060
   17CHTO  H112 6972   4.052   6.351   2.024 -0.5551  1.2948 -0.8404
   17CHTO   C56 6973   3.999   6.192   1.879 -0.6572  0.0948  0.4492
   17CHTO  H113 6974   4.050   6.143   1.795  0.7333  1.5757  0.3998
   17CHTO   O42 6975   3.969   6.094   1.982  0.3072 -0.1637 -0.2091
   17CHTO  H100 6976   4.046   6.048   2.009  0.9961  0.0133 -1.7824
   17CHTO   C57 6977   3.863   6.252   1.814 -0.0112  0.4339 -1.2626
   17CHTO  H114 6978   3.804   6.294   1.896  0.8182 -0.0500 -0.4091
   17CHTO   N10 6979   3.770   6.155   1.754  0.2048  0.1090  0.6281
   17CHTO  H106 6980   3.836   6.078   1.717  2.2581  1.6585  0.9866
   17CHTO  H107 6981   3.722   6.115   1.842 -1.5278  0.3347 -0.1915
   17CHTO   C58 6982   3.896   6.363   1.714  0.2383  0.2304 -0.2384
   17CHTO  H115 6983   3.959   6.319   1.634  0.7108  2.1892 -0.9636
   17CHTO   O37 6984   3.973   6.467   1.776 -0.2681  0.1107 -0.2916
   17CHTO   C59 6985   4.100   6.416   1.822 -0.4271 -0.1744  0.6542
   17CHTO  H116 6986   4.156   6.380   1.735 -1.4431  1.4651 -0.7228
   17CHTO   C70 6987   4.169   6.547   1.867  0.0448  0.6842 -0.5064
   17CHTO   O46 6988   4.121   6.635   1.970  0.0627 -0.4338  0.2309
   17CHTO  H103 6989   4.173   6.712   1.979  0.2580 -0.4295 -0.8015
   17CHTO   O39 6990   3.753   6.431   1.636 -0.4928 -0.1573 -0.2286
   17CHTO   C60 6991   3.695   6.540   1.707 -0.2544  0.4381 -0.4399
   17CHTO  H117 6992   3.723   6.531   1.812  1.2820 -0.0022 -0.8633
   17CHTO   C62 6993   3.756   6.672   1.640  0.4282  0.2270 -0.6545
   17CHTO  H119 6994   3.866   6.662   1.645  0.5833  0.5124 -2.9487
   17CHTO   O43 6995   3.726   6.682   1.495  0.7041  0.5771 -0.0599
   17CHTO  H101 6996   3.788   6.744   1.462  1.2621  0.7604  1.3043
   17CHTO   C66 6997   3.698   6.799   1.718 -0.1752  0.4992 -0.2937
   17CHTO  H123 6998   3.710   6.787   1.826  1.0211  2.9472 -0.1222
   17CHTO   N12 6999   3.763   6.928   1.677  0.2005 -0.0844  0.5401
   17CHTO  H110 7000   3.845   6.940   1.607 -0.6229  1.7450 -0.1423
   17CHTO  H111 7001   3.708   7.019   1.695 -1.0136 -0.9393  1.1909
   17CHTO   C69 7002   3.545   6.814   1.718 -0.5179  0.1922 -0.1070
   17CHTO  H126 7003   3.505   6.841   1.617 -0.6059  1.2837  0.2101
   17CHTO   O41 7004   3.479   6.676   1.775 -0.2452  0.1793  0.7238
   17CHTO   C64 7005   3.536   6.553   1.699  0.4542 -0.2232 -0.5951
   17CHTO  H121 7006   3.510   6.569   1.592  0.1130  1.4265 -0.2767
   17CHTO   C71 7007   3.470   6.417   1.737 -0.2635 -0.6301  0.8042
   17CHTO   O47 7008   3.473   6.415   1.875 -0.3840 -0.3447 -0.0578
   17CHTO  H104 7009   3.389   6.382   1.898 -1.7567  1.8047 -1.7645
   17CHTO   O34 7010   3.498   6.943   1.818 -0.0715  0.0227  0.2078
   17CHTO   C49 7011   3.376   7.008   1.841 -0.5406  0.3781  0.2312
   17CHTO   H91 7012   3.368   7.087   1.767 -1.5363 -0.9519 -1.1318
   17CHTO   C47 7013   3.378   7.073   1.980 -0.7165  0.2215  0.0808
   17CHTO   H89 7014   3.279   7.122   1.990 -1.1610 -0.7902  0.6752
   17CHTO   O33 7015   3.480   7.166   2.003  0.6639 -0.5086  0.0163
   17CHTO   H70 7016   3.480   7.237   1.941  1.8848 -1.0943 -0.6796
   17CHTO   C45 7017   3.396   6.963   2.095 -0.0503 -0.2804  0.2751
   17CHTO   H87 7018   3.501   6.937   2.116 -0.7622 -3.4476  0.1575
   17CHTO    N8 7019   3.329   7.002   2.225  0.0816 -0.0648  0.3282
   17CHTO   H75 7020   3.348   7.102   2.262  0.1208 -0.0717  0.3267
   17CHTO   H76 7021   3.223   6.982   2.217  0.4795 -1.3252 -2.7775
   17CHTO   C43 7022   3.335   6.813   2.039 -0.6444 -0.5539  0.2182
   17CHTO   H85 7023   3.419   6.760   1.994  0.4559  0.4193  1.0917
   17CHTO   O29 7024   3.226   6.839   1.947  0.0996  0.0979  0.0153
   17CHTO   C50 7025   3.256   6.914   1.827 -0.3270  0.1550  0.7786
   17CHTO   H92 7026   3.276   6.841   1.747  0.3590  1.7563 -0.5429
   17CHTO   C54 7027   3.127   6.993   1.779 -0.5383 -0.4039 -0.2414
   17CHTO   O36 7028   3.133   7.066   1.657 -0.0374 -0.1979 -0.5898
   17CHTO   H72 7029   3.055   7.043   1.609 -0.1648  0.3544 -0.6483
   17CHTO   O27 7030   3.291   6.720   2.141 -0.4060 -1.0705 -0.3468
   17CHTO   C37 7031   3.239   6.592   2.183  0.3610 -0.7728 -0.0008
   17CHTO   H79 7032   3.199   6.605   2.285 -0.5745  1.0903 -0.5812
   17CHTO   C38 7033   3.130   6.548   2.084 -0.4246  0.4887  0.1256
   17CHTO   H80 7034   3.161   6.583   1.985  0.5320  1.0581  0.6094
   17CHTO   O31 7035   3.020   6.631   2.113 -0.1515 -0.0467 -0.4155
   17CHTO   H68 7036   2.988   6.656   2.029  0.9913  1.7678 -0.3355
   17CHTO   C39 7037   3.095   6.396   2.099  0.2349 -0.1926  0.1134
   17CHTO   H81 7038   3.042   6.381   2.193 -2.2786  1.5875 -0.9709
   17CHTO    N7 7039   2.995   6.357   1.984 -0.0197 -0.0164 -0.0915
   17CHTO   H73 7040   3.033   6.373   1.885  3.2304  1.9390  1.3970
   17CHTO   H74 7041   2.984   6.250   1.986  3.0107 -0.3471  0.5963
   17CHTO   C40 7042   3.223   6.300   2.092 -0.1709  0.8322  0.3349
   17CHTO   H82 7043   3.270   6.314   1.995 -1.9284  3.0647 -0.2569
   17CHTO   O26 7044   3.303   6.350   2.197  0.8842 -0.0045 -0.1431
   17CHTO   C41 7045   3.352   6.488   2.180  0.3627 -0.5097 -0.5053
   17CHTO   H83 7046   3.407   6.503   2.086 -0.8127 -1.8076 -1.4216
   17CHTO   C52 7047   3.445   6.498   2.302 -0.5048  0.0466 -0.0255
   17CHTO   O35 7048   3.520   6.615   2.308 -0.3933  0.8185 -0.6158
   17CHTO   H71 7049   3.465   6.689   2.326 -2.0841 -0.2053 -1.4111
   17CHTO   O28 7050   3.195   6.166   2.122  0.9110  0.3949  0.4320
   17CHTO   C42 7051   3.285   6.046   2.134  0.2279 -0.9336  0.1792
   17CHTO   H84 7052   3.241   5.979   2.207 -0.2910 -0.0339  0.6968
   17CHTO   C44 7053   3.433   6.070   2.182  0.0762 -1.1179 -0.7588
   17CHTO   H86 7054   3.480   6.145   2.118 -2.4634 -0.0038 -1.3516
   17CHTO   O32 7055   3.426   6.126   2.311 -0.3001  0.1864  0.0837
   17CHTO   H69 7056   3.512   6.157   2.334  0.5985 -1.1714 -1.3317
   17CHTO   C48 7057   3.521   5.933   2.179 -0.1113 -0.1532  0.5598
   17CHTO   H90 7058   3.494   5.861   2.255 -0.7278 -0.1255  0.3705
   17CHTO    N9 7059   3.666   5.970   2.209  0.3984  0.1726  0.1152
   17CHTO   H77 7060   3.704   5.894   2.276 -0.4094  0.2387  0.6598
   17CHTO   H78 7061   3.727   6.004   2.127  0.7120  2.6168  1.3309
   17CHTO   C51 7062   3.518   5.865   2.042 -0.0562  0.2100 -0.3476
   17CHTO   H93 7063   3.569   5.926   1.968  1.6585 -1.1841 -0.3609
   17CHTO   O30 7064   3.377   5.850   2.010 -0.0390  0.2752 -0.4574
   17CHTO   C46 7065   3.284   5.980   1.994 -0.4636 -0.5234  0.2449
   17CHTO   H88 7066   3.327   6.049   1.921 -1.3606 -0.9364 -0.6859
   17CHTO   C53 7067   3.141   5.925   1.949  0.0095  0.2591  0.1493
   17CHTO   O72 7068   3.092   5.828   2.042  0.0064 -0.8881  0.4841
   17CHTO  H199 7069   3.018   5.787   2.001  0.4847 -0.0371 -1.2892
   17CHTO   O22 7070   3.560   5.728   2.028 -0.1132 -0.3357 -0.1647
   17CHTO   C31 7071   3.626   5.683   1.906 -0.6331 -0.6857 -0.2322
   17CHTO   H59 7072   3.639   5.573   1.915  1.8418 -0.4020  0.0537
   17CHTO   C29 7073   3.539   5.713   1.778 -0.5009 -0.8882  0.0141
   17CHTO   H57 7074   3.515   5.820   1.782  0.7468 -0.3271 -4.6554
   17CHTO   O21 7075   3.419   5.634   1.783 -0.3419 -0.0985  0.0152
   17CHTO   H37 7076   3.437   5.543   1.792  1.6562  0.1394 -1.3244
   17CHTO   C27 7077   3.616   5.689   1.641  0.1825  0.0539  0.6212
   17CHTO   H55 7078   3.631   5.581   1.623  0.9517  0.2427  0.0802
   17CHTO    N5 7079   3.550   5.743   1.520 -0.0094  0.6279 -0.3493
   17CHTO   H43 7080   3.513   5.658   1.464 -2.0218  1.0694  0.2468
   17CHTO   H44 7081   3.608   5.803   1.451 -0.9410 -0.5796 -2.2384
   17CHTO   C25 7082   3.759   5.758   1.648  0.1097  0.0351  0.6168
   17CHTO   H53 7083   3.740   5.864   1.669  1.1711 -0.1523  2.6578
   17CHTO   O17 7084   3.829   5.708   1.772 -0.2213 -0.4120  0.2730
   17CHTO   C32 7085   3.774   5.743   1.894  0.0421  0.3114 -0.4193
   17CHTO   H60 7086   3.765   5.851   1.909  1.4753  0.4148 -0.2459
   17CHTO   C36 7087   3.867   5.682   2.002  0.0737 -0.0248  0.1721
   17CHTO   O25 7088   3.862   5.537   2.005 -0.0610 -0.2246  0.1193
   17CHTO   H40 7089   3.879   5.511   2.093  2.7482 -1.2860 -0.6672
   17CHTO   O15 7090   3.840   5.735   1.507 -0.9337 -0.4850  0.3376
   17CHTO   C19 7091   3.928   5.824   1.431 -0.0634  0.4125 -0.0962
   17CHTO   H47 7092   4.004   5.753   1.394 -0.5708 -0.7438  1.0161
   17CHTO   C20 7093   3.859   5.911   1.312 -0.7209  0.2521  0.2294
   17CHTO   H48 7094   3.778   5.975   1.352  0.2414  1.0089  0.9905
   17CHTO   O19 7095   3.790   5.817   1.225  0.6359 -0.0673 -0.3976
   17CHTO   H35 7096   3.815   5.842   1.139 -0.2534  2.2397 -0.0221
   17CHTO   C21 7097   3.968   6.006   1.241 -0.4529  1.1633 -0.3658
   17CHTO   H49 7098   4.044   5.940   1.199  1.5807  1.7236  2.3152
   17CHTO    N4 7099   3.921   6.084   1.125 -0.0977 -0.3860  0.3021
   17CHTO   H41 7100   4.001   6.125   1.065  0.2801 -0.3420  0.8392
   17CHTO   H42 7101   3.847   6.041   1.058  0.3488  1.2283 -1.2815
   17CHTO   C22 7102   4.036   6.084   1.359 -0.1870 -0.0724  0.0062
   17CHTO   H50 7103   3.958   6.139   1.412  0.8624  0.6988  0.7716
   17CHTO   O14 7104   4.097   5.995   1.455 -0.2908  0.1905  0.9240
   17CHTO   C23 7105   4.007   5.920   1.531  0.4954  0.9623  0.6645
   17CHTO   H51 7106   3.940   5.988   1.585 -0.4081 -0.9988  2.0504
   17CHTO   C34 7107   4.083   5.842   1.639  0.9875 -0.1834 -0.4353
   17CHTO   O23 7108   4.155   5.941   1.722  0.0211 -0.1645 -0.1288
   17CHTO   H38 7109   4.159   5.921   1.813  0.4156 -2.4300 -0.6088
   17CHTO   O16 7110   4.138   6.177   1.313  0.1476 -0.1275  0.6203
   17CHTO   C24 7111   4.140   6.321   1.399  0.7673  0.1693 -0.4644
   17CHTO   H52 7112   4.097   6.308   1.498  1.6607  1.3510  0.0964
   17CHTO   C26 7113   4.070   6.439   1.329 -0.3859  0.0005 -0.4940
   17CHTO   H54 7114   4.096   6.438   1.221  1.6306 -2.4606 -0.0149
   17CHTO   O20 7115   3.927   6.404   1.320  0.1464 -0.2555  0.4854
   17CHTO   H36 7116   3.907   6.376   1.407  0.3663  0.9219  0.9223
   17CHTO   C30 7117   4.096   6.587   1.385 -0.2954 -0.0393  0.1182
   17CHTO   H58 7118   4.042   6.597   1.480  2.7444  1.5265  1.7308
   17CHTO    N6 7119   4.051   6.692   1.295  0.6886  1.0959 -1.0679
   17CHTO   H45 7120   4.088   6.788   1.328 -0.0715  0.7172  0.9573
   17CHTO   H46 7121   4.080   6.680   1.192  0.4950 -0.2179 -0.9781
   17CHTO   C33 7122   4.245   6.604   1.418  0.2125  0.6761 -0.0436
   17CHTO   H61 7123   4.299   6.610   1.322  1.1158  2.4162  0.5509
   17CHTO   O18 7124   4.294   6.489   1.493  0.5175  0.1931  0.1274
   17CHTO   C28 7125   4.282   6.362   1.423  0.7748 -0.2755 -0.2506
   17CHTO   H56 7126   4.323   6.381   1.323 -0.1426 -2.7720 -1.1265
   17CHTO   C35 7127   4.370   6.248   1.486 -0.6965 -0.4994  0.1451
   17CHTO   O24 7128   4.324   6.206   1.614  0.0137  0.3909 -0.3842
   17CHTO   H39 7129   4.235   6.177   1.611  0.6001 -1.5167 -0.0363
   17CHTO    O9 7130   4.271   6.727   1.490 -0.8399 -0.0677 -0.5999
   17CHTO   C13 7131   4.431   6.780   1.476  0.0361 -0.0198  0.2855
   17CHTO   H26 7132   4.475   6.742   1.382  1.2034 -0.6882  1.1050
   17CHTO   C11 7133   4.510   6.715   1.605 -0.1990  0.5105 -0.0247
   17CHTO   H24 7134   4.513   6.605   1.593 -1.2432  0.3890  0.7703
   17CHTO    O8 7135   4.447   6.742   1.735 -0.0077  0.2404  0.7537
   17CHTO    H3 7136   4.514   6.725   1.798  0.5584 -0.3956 -0.0118
   17CHTO    C9 7137   4.654   6.771   1.594 -0.1667  0.3912  0.0047
   17CHTO   H22 7138   4.679   6.757   1.487 -0.5771 -1.3190  0.1217
   17CHTO    N2 7139   4.759   6.709   1.681 -0.1875 -0.4492 -0.3247
   17CHTO   H10 7140   4.707   6.640   1.746 -1.9211 -0.3263 -1.5581
   17CHTO   H11 7141   4.826   6.649   1.622 -0.8747 -1.4121 -0.1417
   17CHTO    C7 7142   4.643   6.921   1.625 -0.7911 -0.1053 -0.1036
   17CHTO   H20 7143   4.735   6.964   1.580 -0.8291  0.9336  0.8017
   17CHTO    O4 7144   4.530   6.985   1.566 -0.1431  0.5843  0.1307
   17CHTO   C14 7145   4.453   6.934   1.452 -0.1774 -0.1925  0.2443
   17CHTO   H27 7146   4.504   6.962   1.358 -2.9923  0.6618 -1.0947
   17CHTO   C18 7147   4.320   7.013   1.458 -0.1239  0.1243 -0.1448
   17CHTO   O13 7148   4.228   6.978   1.349  0.1284  0.5198 -0.6156
   17CHTO    H7 7149   4.160   7.042   1.357  0.5981  0.8865  0.5647
   17CHTO    O2 7150   4.639   6.957   1.777 -0.8676 -0.0774  0.0367
   17CHTO    C1 7151   4.658   7.099   1.814 -0.3812 -0.0924  0.3884
   17CHTO   H14 7152   4.616   7.162   1.733  1.7995  1.1395  0.1860
   17CHTO    C2 7153   4.812   7.135   1.831  1.3524  0.0320  0.5555
   17CHTO   H15 7154   4.851   7.066   1.906  1.0967  0.2644  0.9011
   17CHTO    O6 7155   4.866   7.114   1.699 -0.4649 -0.2927 -0.1181
   17CHTO    H1 7156   4.934   7.051   1.708 -0.1667  0.4369  3.3735
   17CHTO    C3 7157   4.829   7.287   1.873  0.5660 -0.4192  0.2104
   17CHTO   H16 7158   4.776   7.354   1.803  1.8473 -0.5163 -0.8726
   17CHTO    N1 7159   4.974   7.339   1.871  0.4090 -0.1771 -0.2390
   17CHTO    H8 7160   5.003   7.394   1.782 -0.0928  2.1953  1.0183
   17CHTO    H9 7161   5.037   7.253   1.889  0.6023 -0.1275 -0.6687
   17CHTO    C4 7162   4.764   7.314   2.011  0.2388  0.2278 -0.2516
   17CHTO   H17 7163   4.814   7.256   2.088  0.1031 -0.4674 -0.6830
   17CHTO    O1 7164   4.629   7.271   2.005  0.0748  0.4857 -0.3755
   17CHTO    C5 7165   4.596   7.138   1.955  0.6134 -0.2369  0.5174
   17CHTO   H18 7166   4.642   7.067   2.025  0.3625 -2.8680 -1.8891
   17CHTO   C16 7167   4.435   7.120   1.960 -0.6727  0.3152 -0.0799
   17CHTO   O11 7168   4.386   6.984   1.939 -0.4217 -0.4630  0.4974
   17CHTO    H5 7169   4.421   6.961   1.855  0.9467  1.2536  0.5673
   17CHTO    O3 7170   4.764   7.450   2.054  0.6239 -0.2669  0.4110
   17CHTO    C6 7171   4.701   7.481   2.174 -0.2156 -0.3566  0.2462
   17CHTO   H19 7172   4.638   7.405   2.220 -2.9688  0.9262 -1.2494
   17CHTO    C8 7173   4.817   7.525   2.272  0.5997 -0.0785  0.0251
   17CHTO   H21 7174   4.878   7.596   2.216  1.1578 -0.3456  0.2906
   17CHTO    O7 7175   4.890   7.414   2.317 -0.0171 -0.1951  0.3404
   17CHTO    H2 7176   4.946   7.386   2.247 -0.2765 -0.6778  0.3213
   17CHTO   C12 7177   4.760   7.599   2.400 -0.6943 -0.1668 -0.5790
   17CHTO   H25 7178   4.712   7.520   2.461 -2.5473  0.5445 -1.1023
   17CHTO    N3 7179   4.864   7.654   2.497 -0.0322 -0.1292  0.3842
   17CHTO   H12 7180   4.967   7.620   2.495  0.1253  0.3693  0.0974
   17CHTO   H13 7181   4.826   7.656   2.598 -2.0400  1.8516 -0.3729
   17CHTO   C15 7182   4.652   7.701   2.358  0.4910  0.1425  0.0928
   17CHTO   H28 7183   4.701   7.787   2.312  1.2953 -0.9086 -1.0559
   17CHTO   O10 7184   4.568   7.729   2.467 -0.6872  0.2351 -0.1790
   17CHTO    H4 7185   4.609   7.801   2.513 -0.2888  0.2994 -0.6334
   17CHTO    O5 7186   4.551   7.643   2.268  0.2061  0.3039 -0.1524
   17CHTO   C10 7187   4.606   7.599   2.142 -0.0326 -0.6664 -0.6578
   17CHTO   H23 7188   4.654   7.690   2.105 -1.8847 -0.0149 -1.4836
   17CHTO   C17 7189   4.487   7.568   2.050 -0.3809  0.0323 -0.1132
   17CHTO   O12 7190   4.531   7.519   1.920 -0.5217 -0.1814 -0.6101
   17CHTO    H6 7191   4.610   7.470   1.932 -0.6875 -0.5998 -1.2210
   18CHTO  H203 7192   6.100   7.100   0.033  1.6949  0.5931 -0.4616
   18CHTO   O82 7193   6.033   7.165   0.023  0.5154 -0.5212  0.2221
   18CHTO  C123 7194   5.954   7.153  -0.097 -0.8179 -0.2364 -0.1199
   18CHTO  H227 7195   5.850   7.167  -0.063 -0.7361  0.7705 -0.2848
   18CHTO   O77 7196   5.991   7.267  -0.188 -0.1608  0.5122  0.5264
   18CHTO  C118 7197   5.930   7.261  -0.319  0.3039  0.0715  0.4338
   18CHTO  H222 7198   5.822   7.268  -0.304  0.4834  0.5155  1.5898
   18CHTO  C125 7199   5.986   7.381  -0.393 -0.1729  0.0072 -0.1435
   18CHTO   O84 7200   6.126   7.367  -0.400 -0.4581 -0.2140 -0.2098
   18CHTO  H205 7201   6.173   7.442  -0.432 -1.7614  0.0356 -1.6205
   18CHTO  C114 7202   5.973   7.125  -0.386  0.4397  0.3724  0.8934
   18CHTO  H218 7203   6.082   7.123  -0.394  0.2331  0.7343 -2.8565
   18CHTO  C116 7204   5.929   7.000  -0.302  0.4278  1.0706 -0.2742
   18CHTO  H220 7205   5.818   7.001  -0.302  0.3253 -3.1298 -1.1994
   18CHTO   O79 7206   5.964   6.878  -0.371 -0.5855  0.1517 -0.0010
   18CHTO  H201 7207   5.898   6.855  -0.432  0.6098 -1.5048 -0.6981
   18CHTO  C120 7208   5.984   7.009  -0.153 -0.1043  0.4751 -0.6374
   18CHTO  H224 7209   6.094   7.009  -0.160  0.1711  0.5926  2.8074
   18CHTO   N21 7210   5.921   6.897  -0.070 -0.2648  0.2590 -0.3440
   18CHTO  H211 7211   5.870   6.940   0.015 -0.3963 -3.3035  1.4606
   18CHTO  H212 7212   6.001   6.833  -0.035  2.1048  3.7409  0.9173
   18CHTO   O75 7213   5.913   7.116  -0.515  0.1857 -0.8894 -0.5520
   18CHTO  C112 7214   6.018   7.054  -0.630 -0.2155 -0.4810  0.3306
   18CHTO  H216 7215   6.066   6.965  -0.588  1.4444 -1.2553 -3.1073
   18CHTO   O73 7216   6.110   7.157  -0.664 -0.1090 -0.0912  0.0652
   18CHTO  C113 7217   6.216   7.122  -0.754 -0.4508  0.4323 -0.7355
   18CHTO  H217 7218   6.287   7.049  -0.709  1.3261  2.5494 -0.0051
   18CHTO  C124 7219   6.298   7.251  -0.778 -0.2409 -0.9194 -0.2200
   18CHTO   O83 7220   6.217   7.352  -0.835  0.2268 -0.0273  0.2090
   18CHTO  H204 7221   6.191   7.415  -0.770  1.0748  3.9826 -3.1196
   18CHTO  C109 7222   6.157   7.064  -0.888 -0.0691  0.0847  0.3405
   18CHTO  H213 7223   6.105   7.148  -0.938 -0.3950  0.1236  0.7391
   18CHTO  C110 7224   6.044   6.959  -0.864 -0.4916 -0.4246 -0.0838
   18CHTO  H214 7225   6.087   6.862  -0.836  3.3494  1.1158 -0.3286
   18CHTO   O78 7226   5.986   6.937  -0.997  0.3465  0.2287 -0.0683
   18CHTO  H200 7227   5.930   6.862  -0.993  0.8647 -0.3354 -2.3334
   18CHTO  C111 7228   5.947   7.005  -0.755 -0.6580  0.2972  0.9996
   18CHTO  H215 7229   5.895   7.097  -0.786 -0.1733  0.3838  0.4464
   18CHTO   N19 7230   5.845   6.904  -0.721 -0.2492  0.2761  0.4258
   18CHTO  H207 7231   5.903   6.833  -0.664 -0.5375  0.2962  0.7475
   18CHTO  H208 7232   5.778   6.957  -0.655 -0.0517 -1.0473  1.7252
   18CHTO   O74 7233   6.268   7.013  -0.973  0.1145  0.3217  0.3708
   18CHTO  C115 7234   6.284   7.082  -1.124 -0.1521  0.1099 -0.3211
   18CHTO  H219 7235   6.187   7.093  -1.173  0.7870 -0.7872 -2.4169
   18CHTO   O76 7236   6.348   7.229  -1.110 -0.2300  0.1100 -0.0048
   18CHTO  C122 7237   6.351   7.309  -1.228  0.4405  0.1619 -0.4428
   18CHTO  H226 7238   6.403   7.401  -1.205  2.9589 -1.3553  0.1029
   18CHTO  C126 7239   6.202   7.348  -1.274  0.4227  0.7706  0.2495
   18CHTO   O85 7240   6.147   7.449  -1.192 -0.2127  0.6412  0.5953
   18CHTO  H206 7241   6.165   7.433  -1.102  0.9111 -0.7917  0.1452
   18CHTO  C121 7242   6.437   7.226  -1.336 -0.0264 -0.4090 -0.5984
   18CHTO  H225 7243   6.428   7.277  -1.433 -0.1385 -1.4986 -1.1707
   18CHTO   O81 7244   6.571   7.224  -1.300  0.5963 -0.1504  0.0020
   18CHTO  H202 7245   6.613   7.216  -1.383  1.0565  1.8443  0.0288
   18CHTO  C119 7246   6.382   7.076  -1.355 -0.4527  1.0077 -0.0975
   18CHTO  H223 7247   6.280   7.079  -1.392 -1.0311 -2.0154  1.1415
   18CHTO  C117 7248   6.382   7.006  -1.207 -0.5131 -0.2424 -0.7935
   18CHTO  H221 7249   6.475   7.000  -1.150 -0.1892 -2.2835 -1.4673
   18CHTO   N20 7250   6.332   6.859  -1.223 -0.5891 -0.1735 -0.3390
   18CHTO  H209 7251   6.398   6.785  -1.265  1.9954 -0.0411  3.3053
   18CHTO  H210 7252   6.236   6.861  -1.273 -0.3044 -0.7997 -0.9136
   18CHTO   O80 7253   6.453   6.988  -1.478  0.1981  0.8284  0.1005
   18CHTO  C103 7254   6.356   6.925  -1.611 -0.4856  0.3892  0.3122
   18CHTO  H190 7255   6.422   6.889  -1.690 -2.1084 -0.9161 -0.4985
   18CHTO  C101 7256   6.265   6.809  -1.578  0.0278  0.3162 -0.3567
   18CHTO  H188 7257   6.197   6.833  -1.497 -0.7956 -1.0381 -0.6319
   18CHTO   O68 7258   6.349   6.708  -1.521 -0.2596 -0.1012  0.5080
   18CHTO  H168 7259   6.340   6.699  -1.428  3.2665 -0.2140  0.9181
   18CHTO   C99 7260   6.180   6.763  -1.714  0.0891  0.7142  0.1140
   18CHTO  H186 7261   6.252   6.737  -1.795  0.6296 -3.0657  1.7130
   18CHTO   N17 7262   6.093   6.636  -1.697  0.1969  0.1299  0.1475
   18CHTO  H174 7263   6.077   6.599  -1.797 -0.3720 -0.1438  0.3377
   18CHTO  H175 7264   5.998   6.653  -1.649 -0.5489  1.6377 -1.8130
   18CHTO   C97 7265   6.101   6.892  -1.770 -0.4830 -0.1031 -0.2823
   18CHTO  H184 7266   6.025   6.916  -1.695  0.5441  0.8383  0.4799
   18CHTO   O64 7267   6.198   6.996  -1.784  0.0903  0.4915  0.2025
   18CHTO  C104 7268   6.266   7.036  -1.669 -0.0332  0.0542 -0.5519
   18CHTO  H191 7269   6.194   7.062  -1.591  0.9699 -1.2521  0.8413
   18CHTO  C108 7270   6.343   7.168  -1.698 -0.0866  0.2266  0.2567
   18CHTO   O71 7271   6.442   7.162  -1.803 -0.8713 -0.0649  1.0682
   18CHTO  H171 7272   6.411   7.175  -1.891 -0.3504  1.5536  1.1113
   18CHTO   O62 7273   6.043   6.875  -1.901 -0.2433  0.6045  0.1646
   18CHTO   C91 7274   5.929   6.954  -1.935 -0.2765 -0.8699 -0.2883
   18CHTO  H178 7275   5.901   7.019  -1.852 -0.0069 -0.2555 -0.6792
   18CHTO   C92 7276   5.817   6.845  -1.954 -0.4175  0.3875 -0.3075
   18CHTO  H179 7277   5.860   6.775  -2.028 -3.6817 -1.2114 -0.7952
   18CHTO   O66 7278   5.806   6.773  -1.828 -0.5869 -0.6877 -0.1812
   18CHTO  H166 7279   5.768   6.834  -1.767  0.9369  0.0292  0.0705
   18CHTO   C93 7280   5.683   6.900  -2.000  0.3691  0.0295  0.0049
   18CHTO  H180 7281   5.619   6.931  -1.916  2.1683  0.5994  1.2017
   18CHTO   N16 7282   5.598   6.803  -2.070 -0.3113  0.3200 -0.4692
   18CHTO  H172 7283   5.534   6.860  -2.136 -0.4856  0.5186 -0.1313
   18CHTO  H173 7284   5.538   6.750  -1.997 -0.1642 -0.1366 -0.6808
   18CHTO   C94 7285   5.701   7.029  -2.093  0.3465  0.4721  0.9394
   18CHTO  H181 7286   5.636   7.025  -2.180  0.8804  0.1818  0.5481
   18CHTO   O61 7287   5.838   7.048  -2.151  0.5101  0.3568 -0.4162
   18CHTO   C95 7288   5.946   7.059  -2.057 -0.2097 -0.4459  0.9112
   18CHTO  H182 7289   6.037   7.028  -2.108 -0.6379  0.5852 -0.5378
   18CHTO  C106 7290   5.959   7.210  -2.000 -0.3601 -0.2880 -0.2597
   18CHTO   O69 7291   6.058   7.220  -1.899  0.3156  0.6134  0.3861
   18CHTO  H169 7292   6.033   7.178  -1.820 -1.9896  1.4646  0.1433
   18CHTO   O63 7293   5.652   7.169  -2.000  0.5151  0.1251 -0.2663
   18CHTO   C96 7294   5.595   7.284  -2.089  0.0383  0.1557  0.5916
   18CHTO  H183 7295   5.555   7.230  -2.175  1.0581 -2.6595  1.8261
   18CHTO   C98 7296   5.692   7.400  -2.141  0.5735  0.4423 -0.5770
   18CHTO  H185 7297   5.753   7.439  -2.059  0.5017 -1.0875  0.2103
   18CHTO   O67 7298   5.781   7.347  -2.236  0.2184 -0.5440 -0.3989
   18CHTO  H167 7299   5.727   7.295  -2.292 -0.9911  0.2107  0.0678
   18CHTO  C102 7300   5.599   7.521  -2.196 -0.1641  0.0238  0.3815
   18CHTO  H189 7301   5.537   7.480  -2.277  1.0761 -0.3679 -0.3851
   18CHTO   N18 7302   5.682   7.640  -2.251  0.1783 -0.3452 -0.1213
   18CHTO  H176 7303   5.757   7.686  -2.188  0.3522  1.5558 -1.6840
   18CHTO  H177 7304   5.720   7.614  -2.348  1.5350  0.0022  0.3066
   18CHTO  C105 7305   5.507   7.566  -2.076 -0.3517 -0.2442  0.5202
   18CHTO  H192 7306   5.545   7.653  -2.021 -1.0851  2.4623 -3.0144
   18CHTO   O65 7307   5.468   7.473  -1.976  0.4318 -0.5672 -0.1216
   18CHTO  C100 7308   5.469   7.337  -2.014 -0.2798 -0.7298 -0.6287
   18CHTO  H187 7309   5.460   7.285  -1.917 -0.8011  1.3193  0.4594
   18CHTO  C107 7310   5.337   7.298  -2.088 -0.0380  0.1556  0.4106
   18CHTO   O70 7311   5.313   7.152  -2.100 -0.4897  0.4287  0.2680
   18CHTO  H170 7312   5.293   7.109  -2.181 -1.7246  0.5938  0.4762
   18CHTO   O57 7313   5.359   7.628  -2.151  0.6758  0.2279  0.0179
   18CHTO   C85 7314   5.307   7.750  -2.090  1.0771 -0.0962 -0.4282
   18CHTO  H157 7315   5.395   7.816  -2.076  0.5943  0.6839 -1.0366
   18CHTO   C83 7316   5.244   7.717  -1.942  0.1615 -0.7883 -0.1353
   18CHTO  H155 7317   5.330   7.681  -1.885  0.9397  1.3390  0.0634
   18CHTO   O56 7318   5.150   7.612  -1.965 -0.0279  0.1588  0.4782
   18CHTO  H135 7319   5.192   7.530  -1.980 -1.8820 -0.7419  0.1646
   18CHTO   C81 7320   5.193   7.845  -1.876 -0.1417 -1.4229  0.6061
   18CHTO  H153 7321   5.277   7.912  -1.858 -0.7924 -0.7563  1.2057
   18CHTO   N14 7322   5.140   7.815  -1.743 -0.3698 -0.2052 -0.1994
   18CHTO  H141 7323   5.210   7.787  -1.667  1.1757  1.7047 -0.8742
   18CHTO  H142 7324   5.079   7.898  -1.712  0.7828  1.2531 -1.7044
   18CHTO   C79 7325   5.094   7.919  -1.968  0.1691 -0.7873 -0.6182
   18CHTO  H151 7326   5.077   8.020  -1.931 -0.2272 -0.6371 -1.2024
   18CHTO   O52 7327   5.146   7.937  -2.098 -0.5242  0.2399  0.2451
   18CHTO   C86 7328   5.197   7.820  -2.168  0.8738  0.0811  0.2798
   18CHTO  H158 7329   5.108   7.757  -2.189 -0.5912  1.4663  2.1565
   18CHTO   C90 7330   5.254   7.863  -2.303 -0.0524  0.0055  0.3869
   18CHTO   O60 7331   5.369   7.945  -2.298 -0.0525 -0.3663  0.0828
   18CHTO  H138 7332   5.427   7.904  -2.360 -0.4744 -0.3252 -0.3422
   18CHTO   O50 7333   4.966   7.859  -1.993  0.3594  0.3868 -0.0128
   18CHTO   C73 7334   4.839   7.875  -2.074  0.0099 -0.0172  0.0690
   18CHTO  H145 7335   4.861   7.844  -2.178 -0.9617  0.2981 -0.2293
   18CHTO   C74 7336   4.786   8.018  -2.079  0.0024 -0.3876  0.2517
   18CHTO  H146 7337   4.859   8.091  -2.118 -0.2372  0.1024  0.7040
   18CHTO   O54 7338   4.688   8.017  -2.176  0.0363  0.2298 -0.3318
   18CHTO  H133 7339   4.608   8.057  -2.148  0.0084  0.1787 -0.3402
   18CHTO   C75 7340   4.737   8.055  -1.934 -0.3505  0.7162 -0.5246
   18CHTO  H147 7341   4.824   8.059  -1.867 -0.7375  0.2272  0.0036
   18CHTO   N13 7342   4.679   8.191  -1.930  0.2032  0.1454  0.4286
   18CHTO  H139 7343   4.670   8.248  -2.021  0.4461  0.6106  0.6947
   18CHTO  H140 7344   4.579   8.176  -1.894  0.1000 -0.4984 -0.1288
   18CHTO   C76 7345   4.640   7.948  -1.870 -0.6121  0.4677 -0.0273
   18CHTO  H148 7346   4.554   7.943  -1.936  0.1042 -1.2455 -0.8589
   18CHTO   O49 7347   4.705   7.814  -1.879  0.0503  0.4860 -0.0292
   18CHTO   C77 7348   4.737   7.775  -2.010 -0.3427 -0.1070 -0.1085
   18CHTO  H149 7349   4.643   7.778  -2.065 -1.8807 -1.4673  2.3442
   18CHTO   C88 7350   4.784   7.632  -2.005 -0.3058  0.1484 -0.2340
   18CHTO   O58 7351   4.720   7.556  -2.073  0.6423 -0.7285 -0.3217
   18CHTO  H136 7352   4.715   7.476  -2.024 -0.2036 -1.2389 -1.2284
   18CHTO   O51 7353   4.607   7.973  -1.712 -0.4887  0.3382 -0.1924
   18CHTO   C78 7354   4.745   7.952  -1.608 -0.2476  0.5914 -0.0179
   18CHTO  H150 7355   4.839   7.936  -1.664  1.1221  0.8595  2.1437
   18CHTO   C80 7356   4.710   7.824  -1.531  0.3919 -0.2751  0.0984
   18CHTO  H152 7357   4.604   7.832  -1.499  0.5308 -0.8731  0.7006
   18CHTO   O55 7358   4.715   7.714  -1.617 -0.7203  0.1937  0.0165
   18CHTO  H134 7359   4.806   7.706  -1.639 -0.3772  0.1216  1.4078
   18CHTO   C84 7360   4.797   7.807  -1.399 -0.5414  0.3250 -0.6675
   18CHTO  H156 7361   4.900   7.804  -1.437 -0.1325 -0.5150  0.4822
   18CHTO   N15 7362   4.761   7.692  -1.310  0.2927  0.6983 -0.7562
   18CHTO  H143 7363   4.670   7.649  -1.345 -1.2834  0.4748  3.3472
   18CHTO  H144 7364   4.838   7.619  -1.325 -0.7735 -0.4536 -0.7081
   18CHTO   C87 7365   4.786   7.943  -1.329  0.4360 -0.7531 -1.0361
   18CHTO  H159 7366   4.688   7.964  -1.285  1.0214 -1.9653  0.8985
   18CHTO   O53 7367   4.834   8.055  -1.402 -0.5860  0.8841 -0.6551
   18CHTO   C82 7368   4.748   8.076  -1.517 -0.0741  0.3164  0.0122
   18CHTO  H154 7369   4.647   8.104  -1.488 -0.2997 -0.3315 -0.1453
   18CHTO   C89 7370   4.806   8.200  -1.593 -0.8121  0.4534 -0.8624
   18CHTO   O59 7371   4.805   8.320  -1.513 -0.2517  0.1825 -0.1934
   18CHTO  H137 7372   4.716   8.349  -1.501 -0.3079 -0.0516 -0.0377
   18CHTO   O45 7373   4.888   7.943  -1.183 -0.3354 -0.0458  0.0160
   18CHTO   C67 7374   5.025   7.914  -1.197 -0.0517 -1.3605 -0.2452
   18CHTO  H124 7375   5.033   7.843  -1.279 -1.3186  0.0915 -1.6822
   18CHTO   C65 7376   5.108   8.040  -1.241  0.3345 -0.0997  0.1566
   18CHTO  H122 7377   5.037   8.123  -1.233 -1.4292 -1.5680  0.0855
   18CHTO   O44 7378   5.152   8.014  -1.374 -0.4382  0.1867  0.1970
   18CHTO  H102 7379   5.108   8.067  -1.437  0.2972 -1.3475 -1.6864
   18CHTO   C63 7380   5.224   8.076  -1.139  0.3733  0.1055 -0.0686
   18CHTO  H120 7381   5.186   8.101  -1.041  0.4376  1.3852 -0.3592
   18CHTO   N11 7382   5.314   8.188  -1.174 -0.1175 -0.0109 -0.7002
   18CHTO  H108 7383   5.371   8.223  -1.091  0.6187 -0.8838 -0.8242
   18CHTO  H109 7384   5.383   8.170  -1.254  3.4533  1.2186  1.9680
   18CHTO   C61 7385   5.306   7.945  -1.105 -0.1794  0.4422  0.6444
   18CHTO  H118 7386   5.349   7.964  -1.006 -1.5224  0.0857  1.3095
   18CHTO   O40 7387   5.219   7.831  -1.083  0.0286 -0.2764  0.4143
   18CHTO   C68 7388   5.076   7.848  -1.068 -0.6372 -0.4416 -0.1827
   18CHTO  H125 7389   5.062   7.921  -0.986  0.1570 -0.7741  0.2584
   18CHTO   C72 7390   5.008   7.716  -1.026 -0.2578  0.2730  0.0178
   18CHTO   O48 7391   4.880   7.727  -0.968  0.0042  0.6277  0.0588
   18CHTO  H105 7392   4.896   7.744  -0.877  1.6393 -0.9436  0.0966
   18CHTO   O38 7393   5.405   7.908  -1.204  0.7250  0.0136 -0.2262
   18CHTO   C55 7394   5.509   7.814  -1.172 -0.0675  0.4471 -0.1849
   18CHTO  H112 7395   5.477   7.753  -1.086  4.5601  1.8105  2.7082
   18CHTO   C56 7396   5.648   7.888  -1.138  0.0706 -0.3728  0.4030
   18CHTO  H113 7397   5.680   7.946  -1.226 -2.2464  2.1660  1.1666
   18CHTO   O42 7398   5.633   7.981  -1.029 -0.2198 -0.4847 -0.3581
   18CHTO  H100 7399   5.678   8.062  -1.042  0.7560 -0.3771  3.1663
   18CHTO   C57 7400   5.761   7.779  -1.104  0.0381 -0.0744  0.1497
   18CHTO  H114 7401   5.731   7.733  -1.009  0.5488  0.5270  0.6062
   18CHTO   N10 7402   5.899   7.843  -1.092  0.6246  0.2552 -0.3400
   18CHTO  H106 7403   5.950   7.870  -1.184 -1.2839  0.3338 -1.4036
   18CHTO  H107 7404   5.889   7.934  -1.034  1.2986 -0.5753  1.0941
   18CHTO   C58 7405   5.759   7.667  -1.207  0.2686  0.1161  0.1072
   18CHTO  H115 7406   5.803   7.705  -1.302 -0.2208  1.5936  0.4684
   18CHTO   O37 7407   5.626   7.614  -1.225  0.5711  0.5665 -0.1424
   18CHTO   C59 7408   5.535   7.710  -1.282  0.6647  0.3496  0.2580
   18CHTO  H116 7409   5.569   7.762  -1.371  0.8725  1.2067  0.8310
   18CHTO   C70 7410   5.407   7.636  -1.311 -0.3568 -0.0061 -0.6627
   18CHTO   O46 7411   5.312   7.719  -1.378  0.2594  0.5771  0.0680
   18CHTO  H103 7412   5.241   7.662  -1.402 -0.3626  0.9111  1.0904
   18CHTO   O39 7413   5.855   7.541  -1.160 -0.1442  0.3384 -0.6969
   18CHTO   C60 7414   5.795   7.440  -1.082  0.1202 -0.1168 -0.0982
   18CHTO  H117 7415   5.709   7.490  -1.038  1.8388  3.0159 -0.1620
   18CHTO   C62 7416   5.749   7.325  -1.173  0.2661  0.5823  0.3901
   18CHTO  H119 7417   5.703   7.376  -1.260 -0.7926 -2.2083 -0.7340
   18CHTO   O43 7418   5.865   7.255  -1.219 -0.1453 -0.0081 -0.0450
   18CHTO  H101 7419   5.915   7.221  -1.147 -0.3368  0.4198  0.2925
   18CHTO   C66 7420   5.645   7.236  -1.086  0.2341  0.0259  0.1672
   18CHTO  H123 7421   5.548   7.283  -1.074 -0.0116 -0.0987 -1.2345
   18CHTO   N12 7422   5.609   7.110  -1.155 -0.0576 -0.2318 -0.2115
   18CHTO  H110 7423   5.543   7.129  -1.238  0.7675 -0.1398 -0.8525
   18CHTO  H111 7424   5.695   7.050  -1.179 -1.1077 -1.9281  0.1876
   18CHTO   C69 7425   5.687   7.201  -0.936  1.4560  0.5353  0.3398
   18CHTO  H126 7426   5.751   7.111  -0.944 -1.7110 -1.9068  1.1131
   18CHTO   O41 7427   5.782   7.303  -0.865  0.5049 -0.1351  0.4783
   18CHTO   C64 7428   5.884   7.396  -0.962  0.0827 -0.9504  0.0376
   18CHTO  H121 7429   5.973   7.340  -0.996 -1.1753 -2.1073 -1.4192
   18CHTO   C71 7430   5.926   7.516  -0.885 -0.3847 -0.1341  0.7035
   18CHTO   O47 7431   5.992   7.497  -0.761  0.1376  0.0730  0.4617
   18CHTO  H104 7432   6.053   7.565  -0.738  0.7212  0.1013 -1.1000
   18CHTO   O34 7433   5.550   7.177  -0.848  0.1147  0.4890  0.0081
   18CHTO   C49 7434   5.482   7.246  -0.737 -0.3577  0.2112  0.0455
   18CHTO   H91 7435   5.441   7.163  -0.679  2.3245  0.7827  2.9334
   18CHTO   C47 7436   5.368   7.326  -0.798 -0.5936 -0.0767  1.0178
   18CHTO   H89 7437   5.295   7.353  -0.718  0.7220  0.0792  2.1903
   18CHTO   O33 7438   5.302   7.250  -0.897  0.0409  0.4494  0.1260
   18CHTO   H70 7439   5.259   7.311  -0.954 -0.9496 -0.5721 -0.2480
   18CHTO   C45 7440   5.433   7.461  -0.864 -0.0970 -0.1270  0.1790
   18CHTO   H87 7441   5.503   7.431  -0.943  1.2534 -0.3774  1.4427
   18CHTO    N8 7442   5.325   7.548  -0.923 -0.0136 -0.5855 -0.1189
   18CHTO   H75 7443   5.270   7.613  -0.857  2.8626 -0.3640  2.1274
   18CHTO   H76 7444   5.256   7.483  -0.976 -0.5256  0.4392 -0.7378
   18CHTO   C43 7445   5.523   7.547  -0.758  0.0698 -0.3162 -0.8176
   18CHTO   H85 7446   5.573   7.626  -0.815  2.0971 -1.4626 -0.6660
   18CHTO   O29 7447   5.622   7.464  -0.697  0.1536  0.8334 -0.1733
   18CHTO   C50 7448   5.573   7.341  -0.647 -0.1853 -0.3122  0.6742
   18CHTO   H92 7449   5.665   7.281  -0.634 -0.4664 -0.8022  0.4085
   18CHTO   C54 7450   5.528   7.355  -0.501 -0.5085  0.4555  0.3131
   18CHTO   O36 7451   5.622   7.422  -0.423  0.4332 -0.0080 -0.4346
   18CHTO   H72 7452   5.645   7.359  -0.358 -2.3002  0.8680  1.4363
   18CHTO   O27 7453   5.445   7.608  -0.651 -0.1852 -0.0759 -0.0250
   18CHTO   C37 7454   5.410   7.726  -0.588  0.2129 -0.2543  0.0135
   18CHTO   H79 7455   5.465   7.733  -0.493  0.5732  1.2815 -0.2957
   18CHTO   C38 7456   5.455   7.844  -0.678  0.1153  0.4105 -0.4060
   18CHTO   H80 7457   5.412   7.824  -0.778 -0.6228 -0.4350  0.0694
   18CHTO   O31 7458   5.599   7.857  -0.678  0.7168  0.2079  0.5165
   18CHTO   H68 7459   5.630   7.807  -0.751  0.9969  0.7561  0.2573
   18CHTO   C39 7460   5.393   7.980  -0.635 -0.6081  0.0190 -0.4789
   18CHTO   H81 7461   5.442   7.997  -0.539 -2.1635 -0.1892  0.3635
   18CHTO    N7 7462   5.422   8.094  -0.732 -0.0656  0.2203  0.2621
   18CHTO   H73 7463   5.413   8.063  -0.835 -3.1248  2.0135 -0.0406
   18CHTO   H74 7464   5.512   8.149  -0.708  0.8326 -0.8074 -0.6700
   18CHTO   C40 7465   5.235   7.964  -0.597  0.4147 -0.0244 -0.1089
   18CHTO   H82 7466   5.173   7.948  -0.686  0.3227 -0.8493  0.0991
   18CHTO   O26 7467   5.216   7.864  -0.499  0.4305  0.0574  0.1182
   18CHTO   C41 7468   5.259   7.733  -0.553 -0.1089 -1.0546  0.5349
   18CHTO   H83 7469   5.203   7.727  -0.647  0.1079  2.3732  0.1152
   18CHTO   C52 7470   5.217   7.619  -0.455  0.1734  0.8049 -0.3790
   18CHTO   O35 7471   5.253   7.482  -0.489  0.4645  0.2210 -0.2008
   18CHTO   H71 7472   5.226   7.462  -0.577 -2.5387  0.9642  0.4805
   18CHTO   O28 7473   5.185   8.091  -0.541  0.3866 -0.5249 -0.3362
   18CHTO   C42 7474   5.049   8.126  -0.533 -0.3256  0.3219 -0.4359
   18CHTO   H84 7475   5.050   8.227  -0.492 -1.0570  0.5754 -1.0209
   18CHTO   C44 7476   4.961   8.042  -0.425 -0.2602 -0.2724  0.3111
   18CHTO   H86 7477   4.969   7.935  -0.444  2.1110 -0.3112  1.3723
   18CHTO   O32 7478   5.034   8.065  -0.303  0.0896 -0.5322  0.7456
   18CHTO   H69 7479   5.019   8.152  -0.271  1.6197 -1.2331  3.5359
   18CHTO   C48 7480   4.809   8.097  -0.426 -0.0181 -1.0059  0.6147
   18CHTO   H90 7481   4.809   8.195  -0.380 -0.1991 -0.6890 -0.0529
   18CHTO    N9 7482   4.718   8.015  -0.335 -0.3367  0.5485 -0.7320
   18CHTO   H77 7483   4.615   8.024  -0.366 -0.5982  0.7840  0.1844
   18CHTO   H78 7484   4.741   8.039  -0.232  1.6666  0.8221 -1.2221
   18CHTO   C51 7485   4.755   8.103  -0.575 -0.9330 -0.0820 -0.0340
   18CHTO   H93 7486   4.750   8.001  -0.611  0.6960 -0.4295  0.6819
   18CHTO   O30 7487   4.843   8.188  -0.659 -0.3123  0.1014 -0.8633
   18CHTO   C46 7488   4.977   8.134  -0.669 -0.2692 -0.2949 -0.3452
   18CHTO   H88 7489   4.977   8.030  -0.702 -1.6017 -0.8468  1.3487
   18CHTO   C53 7490   5.050   8.231  -0.779 -0.4649 -0.6846 -0.2525
   18CHTO   O72 7491   5.001   8.197  -0.902  0.6074  0.0120  0.2133
   18CHTO  H199 7492   4.912   8.222  -0.920  0.5904 -1.8401 -2.5836
   18CHTO   O22 7493   4.631   8.180  -0.590 -0.6253 -0.2847  0.0334
   18CHTO   C31 7494   4.528   8.141  -0.689 -0.4760 -0.7245 -0.1153
   18CHTO   H59 7495   4.477   8.236  -0.717  2.0934  0.8768  0.5264
   18CHTO   C29 7496   4.589   8.080  -0.815 -0.1261 -0.3197  0.7919
   18CHTO   H57 7497   4.652   8.001  -0.770  0.4959  0.9173  2.1486
   18CHTO   O21 7498   4.688   8.166  -0.876 -0.4103  0.4419  0.1220
   18CHTO   H37 7499   4.653   8.252  -0.884 -0.7804  0.3033  0.2372
   18CHTO   C27 7500   4.483   8.014  -0.914  0.3000 -0.2043 -0.4805
   18CHTO   H55 7501   4.440   8.091  -0.981 -0.2392 -1.5138 -1.6548
   18CHTO    N5 7502   4.558   7.912  -1.002 -0.1858  0.0585  0.3307
   18CHTO   H43 7503   4.643   7.957  -1.050  1.3847 -0.4211  2.5962
   18CHTO   H44 7504   4.488   7.870  -1.073  0.4325  0.5692 -0.5882
   18CHTO   C25 7505   4.364   7.943  -0.834  0.3722 -0.2008  0.2616
   18CHTO   H53 7506   4.398   7.851  -0.785  1.5266  0.0548 -0.0416
   18CHTO   O17 7507   4.314   8.025  -0.728  0.3239  0.4635  0.5026
   18CHTO   C32 7508   4.417   8.044  -0.627 -0.4094 -0.5560  0.4815
   18CHTO   H60 7509   4.464   7.955  -0.585 -0.5749 -0.2218  1.3933
   18CHTO   C36 7510   4.338   8.115  -0.516  0.7842 -0.7656 -0.4891
   18CHTO   O25 7511   4.400   8.101  -0.390  0.1902  0.6053 -0.1079
   18CHTO   H40 7512   4.340   8.137  -0.327 -0.4759 -0.6540 -0.0183
   18CHTO   O15 7513   4.241   7.913  -0.938  0.6584 -0.0210  0.4734
   18CHTO   C19 7514   4.202   7.865  -1.073  0.6018  0.3580 -0.3646
   18CHTO   H47 7515   4.093   7.875  -1.070  0.5953 -0.1351  2.0290
   18CHTO   C20 7516   4.258   7.941  -1.186  0.1412  0.6935  0.0765
   18CHTO   H48 7517   4.365   7.963  -1.175 -0.0370  1.6770 -0.1146
   18CHTO   O19 7518   4.190   8.065  -1.178 -0.5426 -0.0746  0.9263
   18CHTO   H35 7519   4.100   8.046  -1.197  0.5516 -2.2751 -2.3854
   18CHTO   C21 7520   4.232   7.880  -1.329 -0.0184  0.0667  0.0551
   18CHTO   H49 7521   4.126   7.878  -1.353  0.5440  0.8155 -2.6051
   18CHTO    N4 7522   4.292   7.963  -1.440 -0.1163 -0.2756  0.0927
   18CHTO   H41 7523   4.321   8.058  -1.399  0.7608  0.2642 -1.7068
   18CHTO   H42 7524   4.374   7.914  -1.492 -0.4152 -2.0396  1.2449
   18CHTO   C22 7525   4.278   7.733  -1.314  0.4666  0.3577 -0.4601
   18CHTO   H50 7526   4.386   7.738  -1.296  0.9052 -0.0991 -2.7683
   18CHTO   O14 7527   4.212   7.660  -1.211  0.7572  0.0826  0.4419
   18CHTO   C23 7528   4.240   7.715  -1.082  0.1046 -0.4460  0.6190
   18CHTO   H51 7529   4.348   7.697  -1.065  0.3711  0.7949  0.2925
   18CHTO   C34 7530   4.164   7.632  -0.973 -0.1798  0.3413 -0.6805
   18CHTO   O23 7531   4.027   7.645  -1.002  0.3527 -0.3966  0.0124
   18CHTO   H38 7532   3.974   7.586  -0.952  2.3134 -1.4861  0.8907
   18CHTO   O16 7533   4.250   7.657  -1.429  0.3390  0.5951  0.2499
   18CHTO   C24 7534   4.385   7.552  -1.483 -0.1639 -0.1842  0.6822
   18CHTO   H52 7535   4.484   7.594  -1.464 -0.4138  0.4144  0.6658
   18CHTO   C26 7536   4.366   7.534  -1.633  0.1183 -0.2423  0.5696
   18CHTO   H54 7537   4.272   7.478  -1.652 -0.2652  0.4765  0.3434
   18CHTO   O20 7538   4.358   7.667  -1.695  0.1942  0.0280 -0.0497
   18CHTO   H36 7539   4.347   7.651  -1.786  1.2976 -1.1748  0.0168
   18CHTO   C30 7540   4.482   7.440  -1.682 -0.0496  0.0727  0.3829
   18CHTO   H58 7541   4.583   7.482  -1.669 -0.8723  1.4315  2.8533
   18CHTO    N6 7542   4.474   7.416  -1.829 -0.0930  0.4816  0.2010
   18CHTO   H45 7543   4.564   7.370  -1.868 -1.6765 -2.2109 -0.3965
   18CHTO   H46 7544   4.457   7.505  -1.888 -0.3926  0.0247 -0.4160
   18CHTO   C33 7545   4.487   7.309  -1.601 -1.1028 -0.0070 -0.4151
   18CHTO   H61 7546   4.405   7.241  -1.629 -0.6646 -1.2359  1.1673
   18CHTO   O18 7547   4.484   7.331  -1.463  0.0187  0.1359 -0.0941
   18CHTO   C28 7548   4.381   7.412  -1.418  0.1018 -0.7945 -0.7123
   18CHTO   H56 7549   4.284   7.370  -1.443  0.2706 -1.7293  0.1766
   18CHTO   C35 7550   4.401   7.419  -1.266 -0.5255  0.0246 -0.4768
   18CHTO   O24 7551   4.361   7.298  -1.198  0.2307  0.0861 -0.2084
   18CHTO   H39 7552   4.341   7.309  -1.107 -0.8965  0.7439 -0.5166
   18CHTO    O9 7553   4.602   7.228  -1.637  0.4640  0.2635  0.0011
   18CHTO   C13 7554   4.720   7.211  -1.527 -0.0014  0.2109  0.7143
   18CHTO   H26 7555   4.682   7.170  -1.431 -1.3245 -2.4776 -0.8834
   18CHTO   C11 7556   4.803   7.348  -1.510 -0.6987  0.0777  0.7115
   18CHTO   H24 7557   4.741   7.404  -1.439  0.1813  1.0375  0.7305
   18CHTO    O8 7558   4.810   7.417  -1.636  0.2984  0.0220  0.6190
   18CHTO    H3 7559   4.819   7.510  -1.631 -1.6787  0.2034  1.0119
   18CHTO    C9 7560   4.936   7.309  -1.442  0.2285  0.2112  0.1537
   18CHTO   H22 7561   4.914   7.264  -1.344  2.7464 -0.5902  0.3812
   18CHTO    N2 7562   5.012   7.427  -1.410 -0.0264  0.0396 -0.0268
   18CHTO   H10 7563   4.970   7.476  -1.324 -0.5764 -0.9411  0.2641
   18CHTO   H11 7564   5.041   7.497  -1.487  1.1854 -2.7792 -2.2178
   18CHTO    C7 7565   5.022   7.213  -1.523 -0.1765 -0.5896 -0.6229
   18CHTO   H20 7566   5.112   7.184  -1.465  0.2161 -0.9270 -1.4011
   18CHTO    O4 7567   4.942   7.095  -1.538 -0.5728  0.4313 -0.0688
   18CHTO   C14 7568   4.810   7.092  -1.585  0.5887  0.0856  0.2061
   18CHTO   H27 7569   4.768   6.996  -1.548  2.4278 -0.8370 -0.0639
   18CHTO   C18 7570   4.819   7.078  -1.737 -0.6720  0.3847 -0.4166
   18CHTO   O13 7571   4.863   6.955  -1.788  0.6484 -1.0819 -0.1354
   18CHTO    H7 7572   4.788   6.899  -1.793  0.0460 -0.2002 -1.0668
   18CHTO    O2 7573   5.070   7.273  -1.680 -0.1179  0.0761  0.4363
   18CHTO    C1 7574   5.195   7.227  -1.722 -0.4815  0.5286  0.1122
   18CHTO   H14 7575   5.211   7.280  -1.818  0.1286  1.0474  0.4963
   18CHTO    C2 7576   5.204   7.066  -1.743 -0.1470  0.3638 -0.0635
   18CHTO   H15 7577   5.151   7.014  -1.661 -0.5209  0.4447 -0.2541
   18CHTO    O6 7578   5.130   7.024  -1.859 -0.8375  0.2711 -0.4290
   18CHTO    H1 7579   5.182   7.004  -1.934  0.3696  1.3234  0.0922
   18CHTO    C3 7580   5.351   7.003  -1.749  0.2982 -0.1509  0.8937
   18CHTO   H16 7581   5.401   7.011  -1.847 -2.3550  0.9581 -0.4086
   18CHTO    N1 7582   5.357   6.858  -1.727  0.3503 -0.3500  0.1430
   18CHTO    H8 7583   5.280   6.806  -1.783  2.5736 -4.6658  0.8974
   18CHTO    H9 7584   5.446   6.826  -1.778  0.0798  0.5936 -0.9451
   18CHTO    C4 7585   5.445   7.086  -1.652 -0.1917 -0.5048 -0.0919
   18CHTO   H17 7586   5.422   7.060  -1.548  1.4890  0.0492  0.4334
   18CHTO    O1 7587   5.430   7.224  -1.680 -0.3187 -0.2749  0.2782
   18CHTO    C5 7588   5.308   7.286  -1.641  0.0152 -0.7164  0.0898
   18CHTO   H18 7589   5.305   7.280  -1.532  1.5555  0.0863  0.1734
   18CHTO   C16 7590   5.331   7.435  -1.673  0.8323 -0.4268 -0.3181
   18CHTO   O11 7591   5.449   7.496  -1.622 -0.0744 -0.4965 -0.1682
   18CHTO    H5 7592   5.518   7.489  -1.685 -0.0082  0.5730 -0.2271
   18CHTO    O3 7593   5.583   7.065  -1.676  0.0199 -0.7369 -0.3345
   18CHTO    C6 7594   5.668   7.059  -1.555 -0.1239  0.5334  0.4421
   18CHTO   H19 7595   5.627   7.113  -1.470 -0.2807  0.7832  0.2100
   18CHTO    C8 7596   5.697   6.903  -1.516  0.3324  0.3180  0.5988
   18CHTO   H21 7597   5.731   6.849  -1.604 -3.2393  0.4802 -0.9284
   18CHTO    O7 7598   5.576   6.840  -1.469  0.3490 -0.1924  0.1225
   18CHTO    H2 7599   5.517   6.819  -1.538 -0.9480 -0.4213  1.2815
   18CHTO   C12 7600   5.801   6.890  -1.395 -0.0440 -0.7780 -0.7550
   18CHTO   H25 7601   5.749   6.927  -1.304 -1.6138  0.0228 -1.9470
   18CHTO    N3 7602   5.847   6.749  -1.370  0.3207 -0.0649 -0.2810
   18CHTO   H12 7603   5.951   6.734  -1.393  0.1813 -1.0375 -0.3053
   18CHTO   H13 7604   5.779   6.666  -1.384 -0.0403  0.2618 -0.4907
   18CHTO   C15 7605   5.924   6.988  -1.434  0.2011 -0.5384 -0.3504
   18CHTO   H28 7606   5.991   6.947  -1.509  0.6309  0.5884 -0.5810
   18CHTO   O10 7607   6.000   7.016  -1.313  0.0013 -0.0996 -0.3780
   18CHTO    H4 7608   6.088   7.039  -1.338  0.0891 -0.0428 -0.0273
   18CHTO    O5 7609   5.885   7.121  -1.471  0.0754 -0.0092 -0.0786
   18CHTO   C10 7610   5.802   7.128  -1.586 -0.8217  0.6647  0.0633
   18CHTO   H23 7611   5.851   7.083  -1.672 -0.3122  0.8517  0.2527
   18CHTO   C17 7612   5.789   7.278  -1.619  0.1958  0.0387 -0.5927
   18CHTO   O12 7613   5.917   7.346  -1.632 -0.0943  0.7621  0.4341
   18CHTO    H6 7614   5.985   7.298  -1.589  0.0753  1.0583  0.4949
   19CHTO  H203 7615   5.437   9.113   0.008  0.0328 -1.2462 -0.0116
   19CHTO   O82 7616   5.376   9.141  -0.057  0.2064  0.0340  0.3805
   19CHTO  C123 7617   5.317   9.018  -0.105 -0.7783  0.4443  0.6522
   19CHTO  H227 7618   5.270   9.040  -0.202 -0.6007  1.6392  0.8360
   19CHTO   O77 7619   5.435   8.934  -0.127  0.1525  0.2536 -0.6076
   19CHTO  C118 7620   5.406   8.813  -0.198 -0.0411 -0.3920 -0.3002
   19CHTO  H222 7621   5.362   8.834  -0.297 -1.1467 -0.6843  0.1234
   19CHTO  C125 7622   5.549   8.742  -0.222  0.0101  0.2470 -0.3059
   19CHTO   O84 7623   5.627   8.823  -0.308  0.6609  0.0933  0.2429
   19CHTO  H205 7624   5.614   8.785  -0.393 -2.4688 -1.0944  1.1824
   19CHTO  C114 7625   5.313   8.730  -0.105 -0.1733  0.0306 -0.1496
   19CHTO  H218 7626   5.364   8.715  -0.010 -2.9564 -1.0259  1.2525
   19CHTO  C116 7627   5.182   8.812  -0.067  0.3727 -0.0483  0.0403
   19CHTO  H220 7628   5.113   8.809  -0.153  0.7386 -0.2196 -0.2479
   19CHTO   O79 7629   5.117   8.734   0.040 -0.4147 -0.1340 -0.6105
   19CHTO  H201 7630   5.061   8.666   0.007 -0.0035 -0.3614 -0.8520
   19CHTO  C120 7631   5.213   8.950  -0.014  0.8484 -0.4463  0.6446
   19CHTO  H224 7632   5.241   8.935   0.092  1.7421  0.3255  0.5166
   19CHTO   N21 7633   5.087   9.031  -0.007  0.0565 -0.3412  0.1728
   19CHTO  H211 7634   5.029   9.012   0.082  0.9056  2.9297  1.4983
   19CHTO  H212 7635   5.117   9.134   0.001  1.2579 -0.7086  0.5355
   19CHTO   O75 7636   5.282   8.604  -0.166 -0.3728 -0.4941 -0.5121
   19CHTO  C112 7637   5.368   8.483  -0.109  0.1794  0.2093  0.1640
   19CHTO  H216 7638   5.440   8.517  -0.033 -0.0841  0.1542  0.4417
   19CHTO   O73 7639   5.445   8.432  -0.227  0.1811  0.0993  0.2532
   19CHTO  C113 7640   5.510   8.309  -0.197 -0.7914 -0.3382  0.6376
   19CHTO  H217 7641   5.578   8.328  -0.111 -0.6073 -1.3464  0.7302
   19CHTO  C124 7642   5.591   8.268  -0.323  0.8008  0.8024  0.0462
   19CHTO   O83 7643   5.511   8.245  -0.441  0.1486 -0.7425 -0.5746
   19CHTO  H204 7644   5.441   8.184  -0.432 -0.5473  0.1444  0.2369
   19CHTO  C109 7645   5.412   8.197  -0.148  0.4430 -0.3121 -0.1324
   19CHTO  H213 7646   5.343   8.172  -0.230  0.5197  1.2932 -0.7050
   19CHTO  C110 7647   5.346   8.242  -0.021  0.0188 -0.1530 -0.2656
   19CHTO  H214 7648   5.425   8.243   0.054  0.5357  1.6499 -0.7876
   19CHTO   O78 7649   5.259   8.131   0.022  0.2919  0.0624  0.5988
   19CHTO  H200 7650   5.226   8.147   0.108 -0.4039 -0.3262  0.4116
   19CHTO  C111 7651   5.279   8.375  -0.041  0.1404 -0.5721 -0.1157
   19CHTO  H215 7652   5.195   8.357  -0.110 -0.8460  0.4584  0.7988
   19CHTO   N19 7653   5.217   8.422   0.084 -0.0583 -1.0727  0.0083
   19CHTO  H207 7654   5.154   8.339   0.111 -0.2255 -0.9782 -0.0939
   19CHTO  H208 7655   5.296   8.426   0.157  0.2091 -2.4283 -0.2023
   19CHTO   O74 7656   5.489   8.072  -0.119 -0.0494  0.3532 -0.1375
   19CHTO  C115 7657   5.431   7.937  -0.187 -0.4034 -0.1054  0.2692
   19CHTO  H219 7658   5.347   7.963  -0.252  0.9130  0.7866 -1.1043
   19CHTO   O76 7659   5.548   7.873  -0.298 -0.0265  0.4271  0.1061
   19CHTO  C122 7660   5.650   7.812  -0.212  0.8071 -0.4572 -0.1068
   19CHTO  H226 7661   5.684   7.888  -0.143  0.3627  1.8283 -2.3391
   19CHTO  C126 7662   5.780   7.780  -0.301  0.2341 -0.5077  0.3913
   19CHTO   O85 7663   5.747   7.689  -0.403  0.1829  0.0953  0.1436
   19CHTO  H206 7664   5.822   7.683  -0.459  0.6625 -0.3098  0.8209
   19CHTO  C121 7665   5.598   7.683  -0.135  0.3947  0.1753 -0.2666
   19CHTO  H225 7666   5.619   7.596  -0.201 -0.1125 -0.3787  0.3006
   19CHTO   O81 7667   5.651   7.675  -0.004  0.3309  0.3278 -0.4578
   19CHTO  H202 7668   5.583   7.646   0.055 -0.0408  2.6092  0.2984
   19CHTO  C119 7669   5.444   7.689  -0.122 -0.3764 -0.2403 -0.1487
   19CHTO  H223 7670   5.395   7.680  -0.219  2.3664  1.5320 -1.7616
   19CHTO  C117 7671   5.388   7.832  -0.081 -0.2945  0.0556 -0.4461
   19CHTO  H221 7672   5.428   7.871   0.013 -0.6118  2.7342 -1.3727
   19CHTO   N20 7673   5.238   7.822  -0.053 -0.0087  0.1985 -0.0585
   19CHTO  H209 7674   5.222   7.751   0.027  2.5441  0.0804  0.3874
   19CHTO  H210 7675   5.205   7.914  -0.007  0.4525  0.0681  0.5458
   19CHTO   O80 7676   5.396   7.558  -0.044 -0.2417  0.1748  0.2837
   19CHTO  C103 7677   5.376   7.434  -0.108 -0.2998  0.6702  0.4208
   19CHTO  H190 7678   5.379   7.441  -0.217 -1.2560 -1.5692  0.2337
   19CHTO  C101 7679   5.472   7.315  -0.052  0.2951 -0.2106 -0.2849
   19CHTO  H188 7680   5.458   7.310   0.056  1.7873  0.1280 -0.0494
   19CHTO   O68 7681   5.615   7.359  -0.082  0.1455 -0.2540  0.1945
   19CHTO  H168 7682   5.684   7.301  -0.056 -0.6147 -1.6709 -0.8385
   19CHTO   C99 7683   5.429   7.186  -0.139 -0.2338 -0.0723  0.6134
   19CHTO  H186 7684   5.440   7.206  -0.248 -1.6078  0.3474  0.5443
   19CHTO   N17 7685   5.512   7.064  -0.113 -0.0878 -0.2821 -0.2565
   19CHTO  H174 7686   5.612   7.069  -0.153  0.6280 -0.8343  1.4081
   19CHTO  H175 7687   5.511   7.040  -0.008 -0.6179  0.7010 -0.0365
   19CHTO   C97 7688   5.283   7.158  -0.119  0.2943  0.5179 -0.3563
   19CHTO  H184 7689   5.263   7.102  -0.027  0.8160  0.9373  0.0183
   19CHTO   O64 7690   5.192   7.274  -0.134 -0.0782 -0.4858  0.0575
   19CHTO  C104 7691   5.226   7.399  -0.073 -0.3697 -0.4989 -0.7272
   19CHTO  H191 7692   5.219   7.390   0.035  2.4749 -0.5393 -0.5098
   19CHTO  C108 7693   5.119   7.496  -0.119 -0.1713 -0.4914 -0.0454
   19CHTO   O71 7694   5.052   7.564  -0.012  0.0024  0.0646 -0.1815
   19CHTO  H171 7695   4.967   7.600  -0.030  0.1557  0.4788 -0.0766
   19CHTO   O62 7696   5.238   7.082  -0.233 -0.0568  0.9500  0.0896
   19CHTO   C91 7697   5.114   7.008  -0.213 -0.2884  0.2575  0.4328
   19CHTO  H178 7698   5.062   7.052  -0.129 -1.6519  1.4418 -1.0017
   19CHTO   C92 7699   5.126   6.866  -0.166 -0.6036  0.2080  0.8190
   19CHTO  H179 7700   5.203   6.823  -0.231 -1.0030 -0.5823  0.8695
   19CHTO   O66 7701   5.189   6.865  -0.036  0.0026 -0.8258  0.1035
   19CHTO  H166 7702   5.128   6.890   0.031  0.2777 -0.6142  0.2743
   19CHTO   C93 7703   4.986   6.785  -0.170 -0.1170 -0.4177 -0.1963
   19CHTO  H180 7704   4.926   6.819  -0.084 -0.6253 -2.6325  0.3724
   19CHTO   N16 7705   5.000   6.634  -0.154  0.0118 -0.3865 -0.1694
   19CHTO  H172 7706   5.043   6.616  -0.057 -2.5695  0.2447  1.1354
   19CHTO  H173 7707   5.052   6.589  -0.237 -0.4465 -0.5616 -0.3678
   19CHTO   C94 7708   4.903   6.813  -0.298  0.6737 -0.3189  0.2483
   19CHTO  H181 7709   4.936   6.754  -0.384  0.9742  1.3209 -0.7843
   19CHTO   O61 7710   4.898   6.948  -0.336  0.6106  0.0154  0.7518
   19CHTO   C95 7711   5.027   7.009  -0.353  0.1032  0.9871 -0.6857
   19CHTO  H182 7712   5.088   6.948  -0.420  3.1508  1.3754  1.5788
   19CHTO  C106 7713   5.012   7.155  -0.407  0.2054  0.1750  0.6479
   19CHTO   O69 7714   4.929   7.219  -0.309 -0.3822 -0.8599  0.2386
   19CHTO  H169 7715   4.843   7.248  -0.334 -0.1185 -0.3610 -0.1057
   19CHTO   O63 7716   4.730   6.776  -0.273 -0.0239 -0.0730  0.4516
   19CHTO   C96 7717   4.664   6.680  -0.396 -0.0923 -0.6112  0.7225
   19CHTO  H183 7718   4.733   6.596  -0.402 -0.6575 -1.0346  0.0207
   19CHTO   C98 7719   4.654   6.757  -0.532  0.0092  0.5055 -0.8695
   19CHTO  H185 7720   4.750   6.800  -0.564 -0.7321  2.1979 -0.9261
   19CHTO   O67 7721   4.614   6.655  -0.619  0.0734 -0.0875  0.5565
   19CHTO  H167 7722   4.675   6.629  -0.686 -1.5862 -3.3221  0.1942
   19CHTO  C102 7723   4.548   6.884  -0.529 -0.0847  0.1964  0.2352
   19CHTO  H189 7724   4.516   6.902  -0.633  1.5114  0.0321 -0.2959
   19CHTO   N18 7725   4.599   7.015  -0.491  0.5211  0.4148 -0.5057
   19CHTO  H176 7726   4.561   7.096  -0.551  0.6766  0.8806  0.0235
   19CHTO  H177 7727   4.603   7.034  -0.385 -1.1384 -0.3367 -0.3021
   19CHTO  C105 7728   4.424   6.847  -0.440  0.4148 -0.6770  0.1905
   19CHTO  H192 7729   4.423   6.912  -0.353 -2.2204  1.2429 -1.1892
   19CHTO   O65 7730   4.402   6.706  -0.407  0.0273 -0.0494 -0.1607
   19CHTO  C100 7731   4.515   6.636  -0.352  0.2235  0.2258 -0.0708
   19CHTO  H187 7732   4.505   6.655  -0.244  1.0392 -0.1015  0.0638
   19CHTO  C107 7733   4.498   6.481  -0.388  0.1516  0.5469  0.2216
   19CHTO   O70 7734   4.441   6.453  -0.517  0.3359 -0.4512  0.0604
   19CHTO  H170 7735   4.392   6.373  -0.510 -0.1609 -0.1315  0.3308
   19CHTO   O57 7736   4.294   6.888  -0.540  0.2492 -0.3189  0.2311
   19CHTO   C85 7737   4.154   6.885  -0.488 -0.0834 -0.3703  0.0032
   19CHTO  H157 7738   4.154   6.805  -0.411 -1.1678 -0.4235 -0.0533
   19CHTO   C83 7739   4.060   6.820  -0.593  0.4906 -0.4093  0.0055
   19CHTO  H155 7740   4.093   6.722  -0.625  2.5463  0.3873 -0.4079
   19CHTO   O56 7741   4.072   6.896  -0.715  0.0353  0.5180  0.3009
   19CHTO  H135 7742   4.050   6.844  -0.790  2.0340 -2.4191  1.6702
   19CHTO   C81 7743   3.920   6.816  -0.536  1.0402  0.6532 -0.5156
   19CHTO  H153 7744   3.921   6.752  -0.447 -0.4278 -1.2084 -1.8041
   19CHTO   N14 7745   3.820   6.751  -0.625 -0.0118 -0.0103  0.3440
   19CHTO  H141 7746   3.831   6.795  -0.722 -2.1097  0.3980  0.2830
   19CHTO  H142 7747   3.720   6.766  -0.590 -0.4877  1.8811 -1.6939
   19CHTO   C79 7748   3.874   6.961  -0.493 -0.1672  0.6183 -0.6877
   19CHTO  H151 7749   3.781   6.956  -0.436  0.0821 -0.5172 -0.3527
   19CHTO   O52 7750   3.965   7.021  -0.388  0.4799  0.3391  0.5236
   19CHTO   C86 7751   4.104   7.032  -0.429 -0.2948 -0.4100  0.4469
   19CHTO  H158 7752   4.113   7.122  -0.492 -1.2480  0.5392  1.6488
   19CHTO   C90 7753   4.181   7.056  -0.299 -0.7475  0.2509 -0.5190
   19CHTO   O60 7754   4.156   7.185  -0.246  0.3617 -0.9783  0.5112
   19CHTO  H138 7755   4.210   7.213  -0.174  3.1516 -4.1937 -0.1966
   19CHTO   O50 7756   3.853   7.061  -0.595 -0.9325 -0.5105 -0.1231
   19CHTO   C73 7757   3.774   7.133  -0.695 -0.0191 -0.3973 -0.2303
   19CHTO  H145 7758   3.681   7.077  -0.710  0.8539 -1.2630 -2.7703
   19CHTO   C74 7759   3.843   7.142  -0.831  0.3541  0.1293 -0.6424
   19CHTO  H146 7760   3.869   7.040  -0.864  1.0240  0.3720 -0.8599
   19CHTO   O54 7761   3.763   7.208  -0.932  0.5870  0.3568 -0.3018
   19CHTO  H133 7762   3.805   7.195  -1.015 -2.5170  0.9385 -2.0261
   19CHTO   C75 7763   3.978   7.229  -0.821  0.3264 -0.0389 -0.5334
   19CHTO  H147 7764   4.042   7.177  -0.748 -0.6967 -0.2307  0.2332
   19CHTO   N13 7765   4.068   7.238  -0.937  0.1760  0.5125  0.2318
   19CHTO  H139 7766   4.007   7.232  -1.025 -1.1916  1.4188  1.0957
   19CHTO  H140 7767   4.118   7.334  -0.937  0.8468  0.1699 -0.5978
   19CHTO   C76 7768   3.953   7.369  -0.766  1.1194  0.1151 -0.8007
   19CHTO  H148 7769   3.900   7.441  -0.829 -0.2685  0.9551  1.2889
   19CHTO   O49 7770   3.877   7.355  -0.646 -0.4415 -0.0648  0.0626
   19CHTO   C77 7771   3.747   7.286  -0.650 -0.0037  0.2307  0.4977
   19CHTO  H149 7772   3.681   7.329  -0.725 -2.5899 -3.6280  0.3973
   19CHTO   C88 7773   3.677   7.290  -0.517  0.2986  0.1903  0.0731
   19CHTO   O58 7774   3.623   7.419  -0.502 -0.3285 -0.2382  0.0090
   19CHTO  H136 7775   3.553   7.417  -0.440  0.5257  1.7089  1.0544
   19CHTO   O51 7776   4.099   7.446  -0.718 -0.1639 -0.3886 -0.4153
   19CHTO   C78 7777   4.106   7.503  -0.583  0.7616  0.2656  1.1055
   19CHTO  H150 7778   4.039   7.457  -0.507 -3.2987  0.1724 -2.3455
   19CHTO   C80 7779   4.073   7.657  -0.603  0.6693 -0.2474 -0.3254
   19CHTO  H152 7780   4.147   7.696  -0.676 -1.7299  1.1769 -2.0649
   19CHTO   O55 7781   3.936   7.661  -0.654  0.0997 -0.2065 -0.3293
   19CHTO  H134 7782   3.929   7.730  -0.718  3.5241 -1.5928 -2.3577
   19CHTO   C84 7783   4.087   7.734  -0.464 -0.5850  0.3130 -0.0928
   19CHTO  H156 7784   4.010   7.692  -0.401  1.2906 -0.6390  1.6307
   19CHTO   N15 7785   4.061   7.885  -0.488  0.6988 -0.3190  0.3964
   19CHTO  H143 7786   4.010   7.915  -0.398 -2.6146  0.5631 -1.6694
   19CHTO  H144 7787   4.151   7.938  -0.507  1.7078 -1.3470  2.1703
   19CHTO   C87 7788   4.226   7.697  -0.400  0.0644 -0.2244  0.0125
   19CHTO  H159 7789   4.305   7.747  -0.455  1.1137 -0.2825  1.4526
   19CHTO   O53 7790   4.241   7.549  -0.401 -0.2906 -0.2553  0.2200
   19CHTO   C82 7791   4.250   7.500  -0.537  0.0963 -0.1957  0.2425
   19CHTO  H154 7792   4.320   7.554  -0.601 -0.2926  0.6307  0.5065
   19CHTO   C89 7793   4.296   7.351  -0.548 -0.5966 -0.3200 -0.7840
   19CHTO   O59 7794   4.412   7.337  -0.481  0.8012 -0.0459  0.1498
   19CHTO  H137 7795   4.420   7.397  -0.409  0.4783 -1.8080  1.6742
   19CHTO   O45 7796   4.229   7.743  -0.237  0.9031  1.0410 -0.0538
   19CHTO   C67 7797   4.124   7.709  -0.145 -0.4552 -0.6934  0.0669
   19CHTO  H124 7798   4.034   7.711  -0.207  0.7948  1.5878 -1.7365
   19CHTO   C65 7799   4.129   7.573  -0.086  0.0255 -0.1678  0.0019
   19CHTO  H122 7800   4.236   7.557  -0.075  0.6946  2.9687 -1.4230
   19CHTO   O44 7801   4.082   7.482  -0.181 -0.3732 -0.7201 -0.1430
   19CHTO  H102 7802   3.989   7.478  -0.187 -0.2705 -1.6195 -1.4288
   19CHTO   C63 7803   4.075   7.572   0.066 -0.4331  0.1907  0.3194
   19CHTO  H120 7804   4.137   7.637   0.129  1.6902 -0.6520 -0.8324
   19CHTO   N11 7805   4.086   7.450   0.148  0.1584  0.2161 -0.1786
   19CHTO  H108 7806   4.184   7.406   0.150  0.0134 -0.5838 -4.9006
   19CHTO  H109 7807   4.021   7.373   0.111  0.8019  0.9098 -2.8802
   19CHTO   C61 7808   3.945   7.655   0.067  0.1833 -0.1856 -0.4501
   19CHTO  H118 7809   3.913   7.654   0.173 -1.5314  0.6318 -0.9465
   19CHTO   O40 7810   3.976   7.794   0.033  0.2108  0.0665  0.4146
   19CHTO   C68 7811   4.102   7.823  -0.040  0.2314 -0.0914  0.0036
   19CHTO  H125 7812   4.186   7.820   0.032  1.2407  0.6934 -1.1175
   19CHTO   C72 7813   4.090   7.965  -0.095 -0.5685  0.2346  0.3157
   19CHTO   O48 7814   4.219   8.011  -0.142  0.0874  0.1226  0.5974
   19CHTO  H105 7815   4.212   8.103  -0.157 -1.9418  0.3827  2.8316
   19CHTO   O38 7816   3.847   7.592  -0.005 -0.0462  0.0172  0.4057
   19CHTO   C55 7817   3.714   7.645   0.017 -0.5805  0.7476  0.0219
   19CHTO  H112 7818   3.716   7.750   0.051 -1.5732  0.6798  0.3121
   19CHTO   C56 7819   3.639   7.552   0.114  0.0841  0.3218 -0.0239
   19CHTO  H113 7820   3.624   7.454   0.065 -1.7396  1.3660 -1.6100
   19CHTO   O42 7821   3.720   7.523   0.231  0.0349  0.2997 -0.4212
   19CHTO  H100 7822   3.746   7.603   0.272 -0.6526 -0.2333  1.1060
   19CHTO   C57 7823   3.502   7.619   0.148 -0.5609  0.0098  0.4079
   19CHTO  H114 7824   3.518   7.715   0.197 -0.4427  0.1636  0.0711
   19CHTO   N10 7825   3.410   7.549   0.242 -0.1830 -0.0561 -0.2623
   19CHTO  H106 7826   3.363   7.626   0.301  1.4944 -0.0972  1.1856
   19CHTO  H107 7827   3.454   7.480   0.313 -1.7482 -1.6612 -0.8268
   19CHTO   C58 7828   3.422   7.641   0.020 -0.3282 -0.1971  0.0147
   19CHTO  H115 7829   3.378   7.544  -0.013  0.6415  0.0144 -1.9802
   19CHTO   O37 7830   3.506   7.699  -0.082  0.3633 -0.5452  0.1069
   19CHTO   C59 7831   3.629   7.636  -0.110  0.4351 -0.3896 -0.1319
   19CHTO  H116 7832   3.605   7.533  -0.137 -1.3969  0.1739 -0.7202
   19CHTO   C70 7833   3.691   7.718  -0.231  0.4720 -0.1235  0.3811
   19CHTO   O46 7834   3.615   7.716  -0.349  0.5199 -0.2970 -0.8577
   19CHTO  H103 7835   3.528   7.749  -0.339  1.1864  0.9492  0.9147
   19CHTO   O39 7836   3.298   7.755   0.045  0.3322  0.1300 -0.1329
   19CHTO   C60 7837   3.190   7.738  -0.052 -0.7097  0.0358  0.2241
   19CHTO  H117 7838   3.223   7.672  -0.132  1.6439 -0.5931  1.6811
   19CHTO   C62 7839   3.059   7.680   0.009 -0.2486 -0.6005 -0.1271
   19CHTO  H119 7840   3.084   7.579   0.050 -0.3665 -0.7987 -0.5436
   19CHTO   O43 7841   3.029   7.770   0.120 -0.0231 -0.1284 -0.5180
   19CHTO  H101 7842   3.030   7.860   0.096 -0.4886 -0.1182 -0.5018
   19CHTO   C66 7843   2.946   7.664  -0.102 -0.1839 -0.0436  0.2608
   19CHTO  H123 7844   2.979   7.582  -0.167 -0.6572  0.6236 -0.8409
   19CHTO   N12 7845   2.815   7.615  -0.055  0.2607 -0.2856 -0.4765
   19CHTO  H110 7846   2.765   7.696  -0.003  1.5881  0.3496 -0.1634
   19CHTO  H111 7847   2.759   7.572  -0.137  2.2720 -0.7016 -1.6540
   19CHTO   C69 7848   2.933   7.799  -0.180 -0.0856 -0.5858 -0.8250
   19CHTO  H126 7849   2.863   7.867  -0.127  1.1543  1.0452 -1.2246
   19CHTO   O41 7850   3.086   7.886  -0.210  0.5052 -0.5775  0.1111
   19CHTO   C64 7851   3.179   7.875  -0.114 -0.4964 -0.2466 -0.4613
   19CHTO  H121 7852   3.152   7.944  -0.031 -0.4905 -1.5461  0.6344
   19CHTO   C71 7853   3.316   7.921  -0.184  0.0194 -0.5511  0.2826
   19CHTO   O47 7854   3.353   7.839  -0.299 -1.0331  0.0275 -0.2499
   19CHTO  H104 7855   3.301   7.858  -0.375  1.4205 -1.6894 -2.4080
   19CHTO   O34 7856   2.863   7.769  -0.314 -0.3173  0.1542  0.6677
   19CHTO   C49 7857   2.879   7.765  -0.467 -0.0822 -0.4711 -0.4525
   19CHTO   H91 7858   2.775   7.753  -0.498 -0.5985 -1.4548  1.6433
   19CHTO   C47 7859   2.961   7.638  -0.495  1.1142 -0.7017 -0.0274
   19CHTO   H89 7860   2.939   7.608  -0.600  1.3265 -2.3094  0.3813
   19CHTO   O33 7861   2.907   7.528  -0.413  0.7545  0.5757  0.0097
   19CHTO   H70 7862   2.944   7.443  -0.430 -0.1347  0.5250 -1.9200
   19CHTO   C45 7863   3.121   7.659  -0.481 -0.4727 -0.1204 -0.2290
   19CHTO   H87 7864   3.137   7.688  -0.376  0.0650 -0.7095 -0.1474
   19CHTO    N8 7865   3.198   7.528  -0.503 -0.0858  0.3705  0.0806
   19CHTO   H75 7866   3.166   7.478  -0.593  0.2184 -0.7892  0.6095
   19CHTO   H76 7867   3.303   7.542  -0.486 -0.3778  1.5762  0.9530
   19CHTO   C43 7868   3.152   7.784  -0.573  0.7594 -0.1646 -0.4022
   19CHTO   H85 7869   3.257   7.796  -0.546  0.5351 -0.4476  0.6069
   19CHTO   O29 7870   3.076   7.894  -0.529  0.2453  0.3163 -0.2751
   19CHTO   C50 7871   2.936   7.892  -0.532  0.1803 -0.3412 -0.3621
   19CHTO   H92 7872   2.916   7.979  -0.467 -1.3728 -1.2890  0.4427
   19CHTO   C54 7873   2.884   7.922  -0.676  0.7326 -0.0926  0.3194
   19CHTO   O36 7874   2.871   8.067  -0.696 -0.3217  0.0504  0.3461
   19CHTO   H72 7875   2.933   8.121  -0.651 -0.4171 -1.3473  2.2188
   19CHTO   O27 7876   3.140   7.761  -0.720  0.3942  0.4968 -0.1522
   19CHTO   C37 7877   3.223   7.771  -0.835  0.8630 -0.9882 -0.1786
   19CHTO   H79 7878   3.209   7.866  -0.890 -0.2231 -1.5057 -0.8064
   19CHTO   C38 7879   3.378   7.756  -0.802 -0.3023  0.0486 -0.0976
   19CHTO   H80 7880   3.393   7.670  -0.736 -0.5237 -1.2448 -1.7047
   19CHTO   O31 7881   3.423   7.877  -0.736  0.9360 -0.2424  0.0092
   19CHTO   H68 7882   3.375   7.891  -0.657 -0.1895  1.9109 -1.0055
   19CHTO   C39 7883   3.472   7.723  -0.928  0.1371  0.4553 -0.1520
   19CHTO   H81 7884   3.489   7.814  -0.984  4.0807 -0.4852 -0.6238
   19CHTO    N7 7885   3.611   7.675  -0.890 -0.1734  0.2039  0.4176
   19CHTO   H73 7886   3.668   7.642  -0.976 -0.3983  3.4542 -1.0658
   19CHTO   H74 7887   3.661   7.743  -0.823  0.0163  0.7959 -0.3226
   19CHTO   C40 7888   3.401   7.626  -1.030  0.3377 -0.5653  0.3899
   19CHTO   H82 7889   3.414   7.522  -0.998 -2.2787 -0.8227  0.7286
   19CHTO   O26 7890   3.264   7.658  -1.050  0.4025  0.1563 -0.7406
   19CHTO   C41 7891   3.190   7.660  -0.927  1.1920 -0.0756 -0.1013
   19CHTO   H83 7892   3.205   7.567  -0.871 -0.4168 -0.0395  0.4160
   19CHTO   C52 7893   3.039   7.641  -0.976  0.2504 -0.7726 -0.2179
   19CHTO   O35 7894   2.984   7.764  -1.052  0.0589 -0.0732  0.6196
   19CHTO   H71 7895   2.890   7.759  -1.045  0.0454 -0.2777  0.3434
   19CHTO   O28 7896   3.443   7.632  -1.164  1.0279 -0.5812 -0.6305
   19CHTO   C42 7897   3.572   7.600  -1.222  0.0200  0.1344  1.4742
   19CHTO   H84 7898   3.642   7.565  -1.146  1.8868  0.9792  0.1869
   19CHTO   C44 7899   3.647   7.727  -1.284 -0.1759  0.2107 -0.1092
   19CHTO   H86 7900   3.577   7.776  -1.352 -2.1783 -1.9506  0.3760
   19CHTO   O32 7901   3.685   7.811  -1.178  0.3123 -0.0077 -0.2138
   19CHTO   H69 7902   3.745   7.766  -1.122  1.6637  1.6033 -0.3275
   19CHTO   C48 7903   3.779   7.688  -1.363  0.1224 -0.2792  0.9744
   19CHTO   H90 7904   3.850   7.656  -1.286  1.1432  0.2756  0.2760
   19CHTO    N9 7905   3.844   7.800  -1.441  0.1761  0.6112  0.0640
   19CHTO   H77 7906   3.850   7.784  -1.547 -1.1768  0.1273  0.0438
   19CHTO   H78 7907   3.937   7.827  -1.394  0.3157 -1.1878  0.8583
   19CHTO   C51 7908   3.767   7.567  -1.461  0.3259 -0.6882 -0.0617
   19CHTO   H93 7909   3.706   7.584  -1.550  1.0130  3.5015  0.1518
   19CHTO   O30 7910   3.724   7.461  -1.387  0.3705 -0.5496  0.2975
   19CHTO   C46 7911   3.568   7.490  -1.329 -0.2251  0.0442  0.4192
   19CHTO   H88 7912   3.500   7.517  -1.409 -1.1239  2.7720  2.0204
   19CHTO   C53 7913   3.531   7.357  -1.254 -0.5047 -0.0474  0.5342
   19CHTO   O72 7914   3.530   7.242  -1.340 -0.2472 -0.0826  0.4181
   19CHTO  H199 7915   3.546   7.168  -1.286  0.0149  0.2147  0.7441
   19CHTO   O22 7916   3.899   7.521  -1.500 -0.5379 -0.1502  0.5833
   19CHTO   C31 7917   3.903   7.444  -1.631 -0.2256 -0.6797 -0.3262
   19CHTO   H59 7918   3.795   7.436  -1.657 -1.0008  3.5617  1.2878
   19CHTO   C29 7919   3.972   7.526  -1.742  0.6567 -0.5679 -0.0511
   19CHTO   H57 7920   4.072   7.563  -1.715 -0.2472  1.7326  0.2409
   19CHTO   O21 7921   3.889   7.644  -1.751  0.2669 -0.3078  0.1339
   19CHTO   H37 7922   3.864   7.654  -1.841  2.2048  0.2761 -0.3670
   19CHTO   C27 7923   3.980   7.445  -1.875 -0.2400  0.3347 -0.6254
   19CHTO   H55 7924   3.880   7.440  -1.921  0.7952 -3.3588 -2.6515
   19CHTO    N5 7925   4.070   7.517  -1.961  0.1422 -0.0234  0.1350
   19CHTO   H43 7926   4.101   7.450  -2.040  0.6673  0.3466  0.0233
   19CHTO   H44 7927   4.140   7.569  -1.896 -0.2719 -0.4850  0.9604
   19CHTO   C25 7928   4.024   7.296  -1.855 -0.1981  0.2357  0.8640
   19CHTO   H53 7929   4.128   7.305  -1.820  0.0694  0.3322  0.0418
   19CHTO   O17 7930   3.934   7.234  -1.758  0.6815 -0.4946 -0.4666
   19CHTO   C32 7931   3.954   7.296  -1.629 -0.2598  0.4190  0.3673
   19CHTO   H60 7932   4.062   7.298  -1.614 -0.1404  0.5188 -0.5170
   19CHTO   C36 7933   3.893   7.210  -1.514  0.1786  0.1522  0.0038
   19CHTO   O25 7934   3.754   7.202  -1.527  0.1839  0.6735  0.0129
   19CHTO   H40 7935   3.725   7.119  -1.494  0.9529  0.6894  0.7657
   19CHTO   O15 7936   4.027   7.200  -2.006  0.6201 -0.0098 -0.0995
   19CHTO   C19 7937   4.128   7.099  -2.020 -0.2646 -0.2498 -0.2322
   19CHTO   H47 7938   4.111   7.067  -2.124 -0.3507  1.2545 -0.6873
   19CHTO   C20 7939   4.276   7.142  -2.013 -0.0052  0.3836  0.2401
   19CHTO   H48 7940   4.301   7.193  -1.919 -0.3712  1.1056 -0.0512
   19CHTO   O19 7941   4.300   7.239  -2.118  0.6466  0.0723 -0.4382
   19CHTO   H35 7942   4.261   7.322  -2.098 -1.8050 -1.1780  0.1559
   19CHTO   C21 7943   4.374   7.024  -2.036  0.3129 -0.0042  0.4536
   19CHTO   H49 7944   4.368   7.000  -2.142  0.1395  0.2895  0.3958
   19CHTO    N4 7945   4.511   7.054  -2.005  0.5956 -0.2728 -0.0335
   19CHTO   H41 7946   4.509   7.109  -1.912  0.9904 -0.5594  0.1440
   19CHTO   H42 7947   4.545   7.122  -2.081 -0.3812 -1.7909 -1.8604
   19CHTO   C22 7948   4.331   6.901  -1.959  0.1767  0.1947 -0.0387
   19CHTO   H50 7949   4.335   6.924  -1.853  0.5936  2.1408 -0.4575
   19CHTO   O14 7950   4.197   6.877  -1.990  0.3063 -0.0473  0.0503
   19CHTO   C23 7951   4.097   6.972  -1.940  0.2668 -0.4444 -0.0686
   19CHTO   H51 7952   4.111   6.984  -1.832  0.8147  0.8787 -0.2818
   19CHTO   C34 7953   3.957   6.916  -1.974 -0.3879  0.3005  0.0206
   19CHTO   O23 7954   3.924   6.890  -2.111  0.3977 -0.5292  0.3644
   19CHTO   H38 7955   3.916   6.797  -2.119  0.9526 -0.3346 -3.3870
   19CHTO   O16 7956   4.393   6.780  -2.007  0.0649 -0.6549 -0.7483
   19CHTO   C24 7957   4.404   6.668  -1.871  0.1563  0.2614  0.3165
   19CHTO   H52 7958   4.340   6.697  -1.787  1.3883 -0.4624  1.5031
   19CHTO   C26 7959   4.553   6.663  -1.819  0.6315  0.5312  0.8312
   19CHTO   H54 7960   4.618   6.646  -1.908 -1.2342  1.6634 -0.7921
   19CHTO   O20 7961   4.589   6.788  -1.760 -0.0990  0.0024 -0.6250
   19CHTO   H36 7962   4.683   6.790  -1.758 -0.0349 -1.6171 -1.1838
   19CHTO   C30 7963   4.581   6.542  -1.727 -0.2263  0.6178 -0.0199
   19CHTO   H58 7964   4.531   6.544  -1.629  0.5831  1.0391  0.3948
   19CHTO    N6 7965   4.726   6.539  -1.690 -0.6210 -0.6224  0.4621
   19CHTO   H45 7966   4.734   6.522  -1.583 -3.4061 -1.8945  0.5085
   19CHTO   H46 7967   4.776   6.462  -1.747 -0.1856 -0.3317  0.4444
   19CHTO   C33 7968   4.526   6.414  -1.796  0.7389  0.5014  0.0357
   19CHTO   H61 7969   4.570   6.398  -1.895 -1.2900  1.8951 -1.1277
   19CHTO   O18 7970   4.387   6.435  -1.818  0.1390 -0.0702 -0.7244
   19CHTO   C28 7971   4.350   6.531  -1.917  0.2191  0.1814  1.1541
   19CHTO   H56 7972   4.394   6.500  -2.012 -1.4278  1.1476  0.0497
   19CHTO   C35 7973   4.195   6.539  -1.943 -0.3762 -0.2163  0.4540
   19CHTO   O24 7974   4.154   6.400  -1.964  0.3065 -0.8506  0.4059
   19CHTO   H39 7975   4.107   6.365  -1.890 -1.1745 -0.2789 -0.2369
   19CHTO    O9 7976   4.552   6.287  -1.730  0.2484 -0.1837  0.4974
   19CHTO   C13 7977   4.614   6.153  -1.821  0.6898  0.4693 -0.3000
   19CHTO   H26 7978   4.706   6.186  -1.875  1.5275 -0.8747  0.2711
   19CHTO   C11 7979   4.485   6.103  -1.922 -0.6304 -0.4801  0.2473
   19CHTO   H24 7980   4.488   6.156  -2.018 -0.2229 -2.8198 -1.0688
   19CHTO    O8 7981   4.357   6.126  -1.861 -0.4964  0.3967  0.3584
   19CHTO    H3 7982   4.342   6.216  -1.839  1.8218  0.7357  0.6537
   19CHTO    C9 7983   4.511   5.949  -1.949  0.1544  0.1812  0.4980
   19CHTO   H22 7984   4.611   5.951  -1.993  0.2512  3.3266  0.7426
   19CHTO    N2 7985   4.429   5.889  -2.065  0.5796 -0.2350 -0.7176
   19CHTO   H10 7986   4.458   5.784  -2.068 -0.2103 -0.4424 -1.1580
   19CHTO   H11 7987   4.325   5.914  -2.048  1.1111  0.1741  2.2802
   19CHTO    C7 7988   4.517   5.868  -1.816 -0.8246 -0.3604  0.4205
   19CHTO   H20 7989   4.579   5.777  -1.830 -1.9516 -0.9283 -1.0538
   19CHTO    O4 7990   4.563   5.945  -1.702 -0.1913 -0.4317 -0.2943
   19CHTO   C14 7991   4.663   6.045  -1.722  0.2293  1.0769 -0.5453
   19CHTO   H27 7992   4.749   5.990  -1.766 -0.1829  1.0801 -1.3776
   19CHTO   C18 7993   4.703   6.083  -1.580 -0.5189 -0.4076 -0.3383
   19CHTO   O13 7994   4.793   6.194  -1.589  0.0663  0.4213  0.0480
   19CHTO    H7 7995   4.829   6.206  -1.503 -0.3341  0.5011  0.2052
   19CHTO    O2 7996   4.363   5.819  -1.777  0.5304  0.0018  0.4689
   19CHTO    C1 7997   4.348   5.685  -1.719  1.0897  0.3218 -0.6152
   19CHTO   H14 7998   4.449   5.649  -1.691  0.7258  1.5153  2.5042
   19CHTO    C2 7999   4.285   5.592  -1.823  0.2512  0.2254 -0.0166
   19CHTO   H15 8000   4.206   5.650  -1.871  0.5050  0.3829 -0.2483
   19CHTO    O6 8001   4.379   5.543  -1.921  0.0870  0.0749  0.3995
   19CHTO    H1 8002   4.338   5.504  -1.996 -0.5604 -1.0501  1.3313
   19CHTO    C3 8003   4.220   5.462  -1.764  0.5021  0.1215  0.7112
   19CHTO   H16 8004   4.296   5.394  -1.723 -0.3636 -0.4310  1.4084
   19CHTO    N1 8005   4.129   5.394  -1.865  0.1450  0.0131  0.4323
   19CHTO    H8 8006   4.168   5.304  -1.911  0.8834  0.3505  0.3912
   19CHTO    H9 8007   4.108   5.460  -1.947 -1.8020 -0.8393  0.2212
   19CHTO    C4 8008   4.138   5.504  -1.636 -1.0355 -0.1263  0.0856
   19CHTO   H17 8009   4.068   5.580  -1.669  0.2828  0.4481 -1.4423
   19CHTO    O1 8010   4.238   5.559  -1.550 -0.3034  0.5492  0.7691
   19CHTO    C5 8011   4.266   5.696  -1.587  0.1788  0.4468  0.9015
   19CHTO   H18 8012   4.173   5.751  -1.608 -0.5430 -1.5256 -1.2960
   19CHTO   C16 8013   4.346   5.779  -1.473  0.7873  1.2548  0.3118
   19CHTO   O11 8014   4.373   5.911  -1.521  1.0107 -0.2496 -0.7004
   19CHTO    H5 8015   4.430   5.951  -1.458  0.7388  1.2297 -1.3783
   19CHTO    O3 8016   4.077   5.389  -1.565 -0.2430  0.2942 -0.0467
   19CHTO    C6 8017   3.953   5.433  -1.496 -0.1638 -0.2708  0.9985
   19CHTO   H19 8018   3.942   5.542  -1.500 -0.2015 -0.3465 -1.2374
   19CHTO    C8 8019   3.834   5.368  -1.562  0.9367  0.5294 -0.1744
   19CHTO   H21 8020   3.847   5.260  -1.555 -1.3577  0.2328  0.0838
   19CHTO    O7 8021   3.836   5.418  -1.698 -0.0219  0.1439  0.2087
   19CHTO    H2 8022   3.749   5.414  -1.730 -0.6315 -0.6697  1.8988
   19CHTO   C12 8023   3.695   5.392  -1.495  0.0126 -0.7256  0.1768
   19CHTO   H25 8024   3.677   5.502  -1.494  0.4698 -0.6046 -2.0479
   19CHTO    N3 8025   3.577   5.334  -1.573 -0.0055 -0.1128 -0.4946
   19CHTO   H12 8026   3.479   5.344  -1.528  0.1961 -1.4552  0.2727
   19CHTO   H13 8027   3.589   5.235  -1.614  1.0305 -0.4593  0.6292
   19CHTO   C15 8028   3.710   5.339  -1.352  0.0060  0.4147 -0.7736
   19CHTO   H28 8029   3.730   5.232  -1.343 -1.4533  0.3460  2.9611
   19CHTO   O10 8030   3.581   5.359  -1.269 -0.0984 -0.0417 -0.7170
   19CHTO    H4 8031   3.506   5.328  -1.316 -0.3077 -1.7132  0.6891
   19CHTO    O5 8032   3.821   5.404  -1.292 -0.0324  0.0164  0.0749
   19CHTO   C10 8033   3.950   5.393  -1.347  0.2678 -0.1292 -0.5491
   19CHTO   H23 8034   3.992   5.294  -1.335 -0.7877 -0.6312 -0.9557
   19CHTO   C17 8035   4.036   5.487  -1.268  0.0204  0.0261 -0.7872
   19CHTO   O12 8036   4.182   5.484  -1.287  0.2466  0.4374  0.0700
   19CHTO    H6 8037   4.199   5.429  -1.361  0.4635  1.9299 -1.0173
   20CHTO  H203 8038   4.998   0.233   2.266  0.7373  0.2482 -0.3381
   20CHTO   O82 8039   4.987   0.207   2.177 -0.6778  0.1995 -0.1620
   20CHTO  C123 8040   4.944   0.318   2.090  0.1460  0.6116  0.7673
   20CHTO  H227 8041   4.835   0.329   2.100 -0.2745 -0.0575 -2.6542
   20CHTO   O77 8042   5.030   0.423   2.138 -0.4282  0.0568  0.0243
   20CHTO  C118 8043   5.010   0.552   2.081 -0.5936  1.0530 -0.4525
   20CHTO  H222 8044   4.903   0.576   2.085 -0.8608  0.3431 -2.5586
   20CHTO  C125 8045   5.096   0.668   2.143  0.8631  0.2285 -0.1058
   20CHTO   O84 8046   5.237   0.661   2.139 -0.8359 -0.6595  0.1458
   20CHTO  H205 8047   5.270   0.730   2.084  2.6340 -2.5602 -0.3000
   20CHTO  C114 8048   5.039   0.553   1.931  0.2469  0.4707  0.1353
   20CHTO  H218 8049   5.145   0.536   1.911 -0.1103 -2.3963  0.5029
   20CHTO  C116 8050   4.959   0.438   1.867  0.1159 -0.2083  0.7400
   20CHTO  H220 8051   4.851   0.462   1.868  0.0596 -0.3226 -1.0579
   20CHTO   O79 8052   4.992   0.428   1.730 -0.2898  0.3160  0.0100
   20CHTO  H201 8053   5.047   0.498   1.699 -0.1264  0.3819  0.4426
   20CHTO  C120 8054   4.980   0.298   1.939 -0.3761 -0.1797  0.1035
   20CHTO  H224 8055   5.088   0.279   1.926 -0.4410  0.6602 -1.8658
   20CHTO   N21 8056   4.899   0.188   1.882 -0.1195  0.0440  0.3300
   20CHTO  H211 8057   4.804   0.233   1.857 -0.2213  0.6007  1.6608
   20CHTO  H212 8058   4.878   0.116   1.961  1.3780 -2.2484 -1.2843
   20CHTO   O75 8059   4.999   0.681   1.879 -0.0860  1.1668 -0.0203
   20CHTO  C112 8060   5.082   0.742   1.756 -0.1177 -0.6200 -0.3450
   20CHTO  H216 8061   5.076   0.686   1.662  0.6758 -0.4886 -0.4749
   20CHTO   O73 8062   5.215   0.748   1.803 -0.5960 -0.1460  0.3374
   20CHTO  C113 8063   5.301   0.804   1.712 -0.0761  0.9093  0.5681
   20CHTO  H217 8064   5.288   0.749   1.617 -2.2130 -0.5629  1.6657
   20CHTO  C124 8065   5.441   0.781   1.769  0.2640 -0.3655  0.0165
   20CHTO   O83 8066   5.491   0.647   1.760  0.1647 -0.1940  0.5792
   20CHTO  H204 8067   5.563   0.642   1.820  0.9558  1.0525 -0.2400
   20CHTO  C109 8068   5.277   0.952   1.693  0.7212 -0.6117 -0.2587
   20CHTO  H213 8069   5.305   1.001   1.788 -1.8966  1.3998 -0.4785
   20CHTO  C110 8070   5.128   0.971   1.642 -0.3604 -0.3820  0.1493
   20CHTO  H214 8071   5.118   0.939   1.539  1.0485  0.0795 -0.1356
   20CHTO   O78 8072   5.086   1.106   1.626  0.0401 -0.7139  0.0042
   20CHTO  H200 8073   5.025   1.112   1.555 -0.2623  0.3260  0.3433
   20CHTO  C111 8074   5.030   0.888   1.730  0.1828 -0.2657  0.2466
   20CHTO  H215 8075   5.024   0.944   1.825  0.3239 -0.0372  0.1212
   20CHTO   N19 8076   4.892   0.879   1.676 -0.1593 -0.1719 -0.5376
   20CHTO  H207 8077   4.895   0.816   1.589 -0.3945  0.6393 -1.1385
   20CHTO  H208 8078   4.819   0.858   1.753 -0.5252  1.1673 -0.4996
   20CHTO   O74 8079   5.366   0.995   1.586  0.4225  0.0159  0.5437
   20CHTO  C115 8080   5.395   1.150   1.564  0.2153 -0.1299  0.7225
   20CHTO  H219 8081   5.375   1.207   1.654  2.1522 -0.5904  1.4771
   20CHTO   O76 8082   5.568   1.178   1.533 -0.3522 -0.0738  0.3491
   20CHTO  C122 8083   5.617   1.090   1.435  0.1558  0.1475 -0.0183
   20CHTO  H226 8084   5.627   0.992   1.482 -0.9254  0.9219  1.9220
   20CHTO  C126 8085   5.756   1.132   1.384  0.4386  0.1818  0.2082
   20CHTO   O85 8086   5.841   1.151   1.497 -0.5381  0.4769 -0.2761
   20CHTO  H206 8087   5.907   1.085   1.499  1.5897  2.5879  1.2075
   20CHTO  C121 8088   5.517   1.091   1.314  0.6471 -0.2118 -0.3057
   20CHTO  H225 8089   5.578   1.111   1.223  2.1282  0.5298  0.8225
   20CHTO   O81 8090   5.466   0.955   1.296 -0.3702  0.1471  0.3823
   20CHTO  H202 8091   5.435   0.951   1.208  3.5562  0.3562 -1.1304
   20CHTO  C119 8092   5.411   1.206   1.321 -0.5994 -1.0815  0.0867
   20CHTO  H223 8093   5.469   1.292   1.356 -0.5929 -1.8332  1.9713
   20CHTO  C117 8094   5.320   1.198   1.442  0.0605  0.1830 -1.0861
   20CHTO  H221 8095   5.236   1.131   1.422 -2.1496  1.2495  3.9908
   20CHTO   N20 8096   5.258   1.333   1.472 -0.0709 -0.3883 -0.3653
   20CHTO  H209 8097   5.287   1.424   1.421  1.2462 -0.6201 -0.0302
   20CHTO  H210 8098   5.245   1.368   1.574 -0.5658  1.9596 -1.1916
   20CHTO   O80 8099   5.362   1.254   1.195 -0.0466  0.9102  0.3338
   20CHTO  C103 8100   5.271   1.165   1.111 -0.0430 -0.0050 -0.4769
   20CHTO  H190 8101   5.321   1.075   1.074 -0.8388 -0.5660 -0.1942
   20CHTO  C101 8102   5.137   1.119   1.174  0.0897 -0.1174 -1.3215
   20CHTO  H188 8103   5.104   1.187   1.253 -0.0131  0.7011 -2.0564
   20CHTO   O68 8104   5.170   0.984   1.250  0.2151  0.0749  0.4040
   20CHTO  H168 8105   5.088   0.940   1.266  0.3360  0.1618  1.2622
   20CHTO   C99 8106   5.019   1.094   1.078  0.7771  0.9579  0.4065
   20CHTO  H186 8107   5.056   1.012   1.013  0.6898  1.5828 -0.4385
   20CHTO   N17 8108   4.889   1.058   1.143 -0.0173  1.4177 -0.1184
   20CHTO  H174 8109   4.906   0.978   1.213  1.3062  1.0933 -0.7856
   20CHTO  H175 8110   4.829   1.038   1.055  3.9654  0.5792 -2.8039
   20CHTO   C97 8111   5.017   1.223   0.990 -0.1435  0.1434 -0.1723
   20CHTO  H184 8112   5.016   1.313   1.052  0.1255 -0.0846  0.1684
   20CHTO   O64 8113   5.135   1.218   0.907 -0.6638  0.0868 -0.3843
   20CHTO  C104 8114   5.244   1.256   0.987  0.0366 -0.1900  0.4697
   20CHTO  H191 8115   5.235   1.360   1.019  1.1083  0.4090 -1.0751
   20CHTO  C108 8116   5.360   1.258   0.887 -0.2481 -0.7099 -0.7284
   20CHTO   O71 8117   5.355   1.374   0.802 -0.1202  0.1376 -0.2273
   20CHTO  H171 8118   5.375   1.445   0.860  0.1241  0.6251 -0.9111
   20CHTO   O62 8119   4.907   1.232   0.893  0.1136  0.5343  0.4954
   20CHTO   C91 8120   4.837   1.355   0.884 -0.2457  0.1200  0.1909
   20CHTO  H178 8121   4.901   1.435   0.922  0.3418 -0.6227  0.7585
   20CHTO   C92 8122   4.705   1.347   0.975 -0.0825 -0.3484  0.9724
   20CHTO  H179 8123   4.654   1.251   0.961  0.3072 -0.7798  2.3833
   20CHTO   O66 8124   4.755   1.352   1.113 -0.3907  0.0657 -0.2147
   20CHTO  H166 8125   4.802   1.273   1.129 -0.3629 -0.0348 -0.7855
   20CHTO   C93 8126   4.605   1.466   0.952 -0.5173  0.0038  0.1547
   20CHTO  H180 8127   4.647   1.560   0.992  1.9950 -1.0170  0.0293
   20CHTO   N16 8128   4.474   1.450   1.021  0.2453 -0.4413 -0.6386
   20CHTO  H172 8129   4.412   1.538   1.018 -1.3372 -1.4013  2.2750
   20CHTO  H173 8130   4.486   1.410   1.121 -2.5504 -0.2954 -0.2020
   20CHTO   C94 8131   4.598   1.481   0.795  0.3310 -0.3394 -0.9463
   20CHTO  H181 8132   4.577   1.386   0.747  1.1974 -1.4171  0.7635
   20CHTO   O61 8133   4.725   1.523   0.746 -0.0027  0.1675  0.1963
   20CHTO   C95 8134   4.821   1.413   0.739 -0.1431 -0.5737 -0.1835
   20CHTO  H182 8135   4.773   1.338   0.676  0.9878 -0.5247 -1.1376
   20CHTO  C106 8136   4.962   1.465   0.674  0.7374  0.0546 -0.0896
   20CHTO   O69 8137   5.041   1.348   0.655 -0.2897 -0.0088 -0.1183
   20CHTO  H169 8138   5.031   1.321   0.566  0.1000  2.2768 -0.8755
   20CHTO   O63 8139   4.488   1.605   0.766 -0.6866 -0.1365  0.2190
   20CHTO   C96 8140   4.463   1.638   0.613 -0.1857  0.3622  0.1033
   20CHTO  H183 8141   4.545   1.587   0.562  1.2098  1.6258  1.0424
   20CHTO   C98 8142   4.486   1.780   0.571  0.1865  0.3368  0.1934
   20CHTO  H185 8143   4.427   1.853   0.630 -0.3825 -0.9059  1.1886
   20CHTO   O67 8144   4.625   1.816   0.611  0.6250 -0.6434  0.3324
   20CHTO  H167 8145   4.656   1.886   0.557  0.5235 -0.3596  0.6372
   20CHTO  C102 8146   4.464   1.798   0.413  0.4246 -0.0912  0.1990
   20CHTO  H189 8147   4.543   1.736   0.368  0.5142 -0.7697  1.2873
   20CHTO   N18 8148   4.488   1.933   0.366  0.0884 -0.6205 -0.6954
   20CHTO  H176 8149   4.559   1.936   0.285  0.3225 -1.4581 -0.5266
   20CHTO  H177 8150   4.528   1.982   0.454 -2.9354  1.1211 -0.2314
   20CHTO  C105 8151   4.321   1.744   0.368 -0.4218  0.4183  0.0171
   20CHTO  H192 8152   4.243   1.811   0.405 -1.6959 -1.1620  0.2644
   20CHTO   O65 8153   4.309   1.611   0.425 -0.3783  0.0877  0.3206
   20CHTO  C100 8154   4.319   1.601   0.563  0.4428  0.7260 -0.2928
   20CHTO  H187 8155   4.245   1.670   0.605  0.2031  0.0121  0.4794
   20CHTO  C107 8156   4.290   1.450   0.600  0.2178  0.1283  0.0135
   20CHTO   O70 8157   4.365   1.356   0.524 -0.1210 -0.2906  0.4684
   20CHTO  H170 8158   4.427   1.312   0.579  1.0241 -0.6995 -1.1041
   20CHTO   O57 8159   4.314   1.736   0.203 -0.1534 -0.4312 -0.3385
   20CHTO   C85 8160   4.392   1.638   0.136  0.4626 -0.2019  0.0638
   20CHTO  H157 8161   4.461   1.600   0.214  0.6759 -0.5705 -0.3050
   20CHTO   C83 8162   4.476   1.702   0.023  0.4061  0.1167  0.1010
   20CHTO  H155 8163   4.540   1.771   0.078  0.9768 -0.8437  0.6502
   20CHTO   O56 8164   4.382   1.795  -0.051 -0.0636 -0.5560  0.7322
   20CHTO  H135 8165   4.317   1.742  -0.093 -0.9793  0.9038  0.2531
   20CHTO   C81 8166   4.554   1.602  -0.067 -0.0314 -0.4048  0.7712
   20CHTO  H153 8167   4.631   1.558  -0.003 -1.0732 -1.0938  1.5689
   20CHTO   N14 8168   4.636   1.666  -0.171  0.3628  0.2361 -0.6032
   20CHTO  H141 8169   4.721   1.606  -0.198  1.0550  1.9219 -2.3020
   20CHTO  H142 8170   4.675   1.760  -0.139 -0.4807  0.0030  1.1719
   20CHTO   C79 8171   4.454   1.488  -0.112  0.4204  0.0317  0.5443
   20CHTO  H151 8172   4.520   1.416  -0.160  2.3264  2.1169 -0.0429
   20CHTO   O52 8173   4.384   1.419  -0.000  0.4847  0.4611  0.4723
   20CHTO   C86 8174   4.309   1.519   0.067 -0.1059  0.6978 -0.2302
   20CHTO  H158 8175   4.240   1.560  -0.009  1.0394 -0.6175 -2.0135
   20CHTO   C90 8176   4.217   1.445   0.169 -0.4238 -0.0503  0.6109
   20CHTO   O60 8177   4.111   1.367   0.107  0.2371  0.4012 -0.3328
   20CHTO  H138 8178   4.100   1.277   0.130 -2.7726 -0.0194 -3.0518
   20CHTO   O50 8179   4.364   1.533  -0.206 -0.1431  0.5895 -0.1607
   20CHTO   C73 8180   4.307   1.491  -0.335 -0.0447 -0.6782  0.4794
   20CHTO  H145 8181   4.377   1.445  -0.406  1.8382  4.4919 -1.2191
   20CHTO   C74 8182   4.251   1.615  -0.409  0.1138  0.6255  0.6310
   20CHTO  H146 8183   4.342   1.676  -0.423 -1.8157  4.6270  4.4578
   20CHTO   O54 8184   4.209   1.592  -0.546 -0.1275  0.1222  0.1106
   20CHTO  H133 8185   4.139   1.650  -0.570 -1.7344 -1.6134  0.4680
   20CHTO   C75 8186   4.147   1.686  -0.308 -0.2436  0.7712 -0.2538
   20CHTO  H147 8187   4.194   1.708  -0.211 -0.8172  0.0339  0.1934
   20CHTO   N13 8188   4.101   1.815  -0.358 -0.5453 -0.8100  0.1654
   20CHTO  H139 8189   4.154   1.893  -0.305 -0.7221  0.6157 -1.6780
   20CHTO  H140 8190   4.126   1.826  -0.462 -2.1233 -0.3431 -0.1742
   20CHTO   C76 8191   4.028   1.592  -0.274  0.9612 -0.1266  0.2620
   20CHTO  H148 8192   3.982   1.576  -0.371  2.5297  0.2236 -0.5646
   20CHTO   O49 8193   4.082   1.456  -0.233  0.1585 -0.2518  0.3754
   20CHTO   C77 8194   4.183   1.400  -0.319 -0.2414  0.1666 -0.1620
   20CHTO  H149 8195   4.138   1.387  -0.418  1.0168  0.0171 -0.7200
   20CHTO   C88 8196   4.221   1.253  -0.275 -0.2143 -0.3222 -0.3538
   20CHTO   O58 8197   4.118   1.157  -0.289  0.1556  0.0974 -0.0881
   20CHTO  H136 8198   4.080   1.130  -0.208 -0.8974  0.1856 -0.5466
   20CHTO   O51 8199   3.927   1.650  -0.171 -0.2478  0.2267 -0.6866
   20CHTO   C78 8200   3.893   1.589  -0.046  1.1573 -0.2280 -0.4626
   20CHTO  H150 8201   3.971   1.517  -0.013  0.0984 -0.9955  0.4716
   20CHTO   C80 8202   3.755   1.513  -0.048 -0.2833  0.2564 -0.3248
   20CHTO  H152 8203   3.673   1.586  -0.066 -0.0146  0.9526  1.2277
   20CHTO   O55 8204   3.767   1.420  -0.163  0.3983 -0.5558 -0.0387
   20CHTO  H134 8205   3.696   1.430  -0.222 -0.0055 -0.9068  0.3837
   20CHTO   C84 8206   3.731   1.441   0.090 -0.1471 -0.4224  0.3110
   20CHTO  H156 8207   3.816   1.376   0.113  2.3527  1.9694 -1.7652
   20CHTO   N15 8208   3.605   1.363   0.094  0.4190 -0.0998 -0.3540
   20CHTO  H143 8209   3.528   1.437   0.080 -0.1391 -0.6026  0.0207
   20CHTO  H144 8210   3.603   1.299   0.008 -3.6191 -0.4503 -0.1303
   20CHTO   C87 8211   3.734   1.554   0.197  0.8912 -0.2071 -0.9142
   20CHTO  H159 8212   3.665   1.637   0.183  1.8374  1.0084  1.2570
   20CHTO   O53 8213   3.888   1.616   0.198  0.2803  0.1597 -0.0825
   20CHTO   C82 8214   3.894   1.690   0.073  0.0170  0.0134 -0.8969
   20CHTO  H154 8215   3.813   1.763   0.069 -2.6831 -2.6777  1.6756
   20CHTO   C89 8216   4.028   1.771   0.055  0.0901 -0.2850 -0.8310
   20CHTO   O59 8217   4.024   1.898   0.130  0.2488  0.0498 -0.6979
   20CHTO  H137 8218   4.048   1.961   0.065  2.4314 -1.8165 -1.7449
   20CHTO   O45 8219   3.699   1.476   0.353 -0.4622  0.1396  0.5053
   20CHTO   C67 8220   3.797   1.492   0.451  0.3400 -0.8263 -0.7147
   20CHTO  H124 8221   3.894   1.460   0.412  0.4061 -2.3812  0.7282
   20CHTO   C65 8222   3.820   1.642   0.502 -0.6771 -0.4878  0.1497
   20CHTO  H122 8223   3.768   1.703   0.427 -1.3175 -0.9182  0.2427
   20CHTO   O44 8224   3.957   1.674   0.512 -0.0789 -0.5944 -0.0499
   20CHTO  H102 8225   3.999   1.598   0.547  0.0423 -1.6338 -2.3284
   20CHTO   C63 8226   3.739   1.667   0.635  0.8112 -0.1283 -0.1659
   20CHTO  H120 8227   3.633   1.647   0.618  1.3121 -3.0325 -0.2823
   20CHTO   N11 8228   3.724   1.811   0.684 -0.0044  0.3922  0.3929
   20CHTO  H108 8229   3.764   1.872   0.606  3.5281 -0.6413  1.3151
   20CHTO  H109 8230   3.626   1.848   0.704 -0.5664 -0.3345 -1.0040
   20CHTO   C61 8231   3.807   1.575   0.746 -0.4738  0.2557 -0.1245
   20CHTO  H118 8232   3.737   1.573   0.831  0.8782  1.1625  1.0362
   20CHTO   O40 8233   3.827   1.444   0.703 -0.2778 -0.2241  0.5722
   20CHTO   C68 8234   3.767   1.399   0.581 -0.5673  0.2528  0.0399
   20CHTO  H125 8235   3.657   1.387   0.592 -0.3287  0.4195  3.1732
   20CHTO   C72 8236   3.828   1.257   0.556  0.5019  0.6752 -0.0852
   20CHTO   O48 8237   3.784   1.192   0.432  0.8831  0.2287 -0.0509
   20CHTO  H105 8238   3.843   1.207   0.360  0.9794  1.8783  0.3667
   20CHTO   O38 8239   3.934   1.612   0.779 -1.0464  0.2204  0.8154
   20CHTO   C55 8240   3.971   1.626   0.917  0.4204  0.5321 -0.6840
   20CHTO  H112 8241   3.880   1.606   0.975  0.8770 -1.2545 -0.5456
   20CHTO   C56 8242   4.041   1.767   0.960  0.5514  0.0344 -0.5522
   20CHTO  H113 8243   4.134   1.769   0.900  0.2842  0.3178 -0.9590
   20CHTO   O42 8244   3.954   1.878   0.924 -0.5988 -0.7523  0.1426
   20CHTO  H100 8245   3.959   1.895   0.832 -0.6009  1.0459  0.4666
   20CHTO   C57 8246   4.080   1.772   1.110  0.1480  0.6882  0.3866
   20CHTO  H114 8247   3.984   1.778   1.160  0.0907 -1.4924  0.6069
   20CHTO   N10 8248   4.154   1.894   1.158  0.1831 -0.2465 -0.7445
   20CHTO  H106 8249   4.125   1.911   1.260 -0.8547  1.8277 -1.3481
   20CHTO  H107 8250   4.260   1.877   1.151  0.1503 -1.4321  1.4483
   20CHTO   C58 8251   4.155   1.642   1.155  0.2938  0.6381  0.9307
   20CHTO  H115 8252   4.257   1.641   1.111  0.2950  0.4364  0.9357
   20CHTO   O37 8253   4.102   1.519   1.102  0.0227 -0.0516  0.0965
   20CHTO   C59 8254   4.071   1.505   0.959 -0.5927 -0.5008  0.5382
   20CHTO  H116 8255   4.165   1.505   0.906 -0.8413  1.2442  0.0483
   20CHTO   C70 8256   4.005   1.368   0.945 -0.0744 -0.4921 -0.1270
   20CHTO   O46 8257   3.873   1.342   0.998 -0.5125 -0.5148  0.1900
   20CHTO  H103 8258   3.866   1.356   1.090  1.7935  0.3007  0.2710
   20CHTO   O39 8259   4.144   1.637   1.316 -0.1807 -0.5869  0.2123
   20CHTO   C60 8260   4.231   1.551   1.391 -0.1629 -0.1254 -0.6057
   20CHTO  H117 8261   4.217   1.448   1.358 -0.3794 -0.4557  0.4857
   20CHTO   C62 8262   4.387   1.581   1.365  0.4964 -0.3067  0.1092
   20CHTO  H119 8263   4.400   1.576   1.255  1.9704  0.5995  0.2240
   20CHTO   O43 8264   4.418   1.720   1.402 -0.4312 -0.7426  0.2283
   20CHTO  H101 8265   4.354   1.745   1.466 -0.6387 -2.3977  0.6957
   20CHTO   C66 8266   4.478   1.482   1.448 -0.2008  0.0653 -0.5046
   20CHTO  H123 8267   4.456   1.382   1.410  0.5762  0.3339 -1.6947
   20CHTO   N12 8268   4.626   1.505   1.423 -0.3614  0.1945  0.2259
   20CHTO  H110 8269   4.647   1.609   1.440  1.7415  0.0947 -1.4937
   20CHTO  H111 8270   4.664   1.476   1.325 -2.6240  1.5502 -1.0888
   20CHTO   C69 8271   4.442   1.486   1.600  0.6146 -0.9740 -0.2015
   20CHTO  H126 8272   4.462   1.590   1.635  3.2478 -0.7089 -2.3464
   20CHTO   O41 8273   4.270   1.453   1.607  0.3089 -0.2835  0.3828
   20CHTO   C64 8274   4.196   1.559   1.544  0.1209  0.5578  1.0632
   20CHTO  H121 8275   4.222   1.660   1.583 -1.0847  1.2145  0.1857
   20CHTO   C71 8276   4.041   1.542   1.557  0.1358  0.1484 -0.7150
   20CHTO   O47 8277   4.012   1.519   1.698  0.3933 -0.4166  0.2196
   20CHTO  H104 8278   4.029   1.428   1.711 -2.2565 -0.6474  2.4489
   20CHTO   O34 8279   4.525   1.386   1.684  0.2779  0.9692  0.3794
   20CHTO   C49 8280   4.520   1.236   1.716 -0.7423  0.8373  0.4335
   20CHTO   H91 8281   4.529   1.196   1.615 -1.6715  1.3980  0.1255
   20CHTO   C47 8282   4.384   1.205   1.782 -0.0761  0.7281 -0.6260
   20CHTO   H89 8283   4.312   1.199   1.698  0.1973  1.2875 -0.9026
   20CHTO   O33 8284   4.346   1.313   1.877  0.1463 -0.0533 -0.4815
   20CHTO   H70 8285   4.406   1.383   1.893  0.6164 -0.1159 -1.9354
   20CHTO   C45 8286   4.390   1.064   1.861 -1.1072 -0.0964  0.0356
   20CHTO   H87 8287   4.422   1.077   1.966 -0.5010 -0.3122 -0.1226
   20CHTO    N8 8288   4.260   0.998   1.854  0.2688  0.2620  0.1484
   20CHTO   H75 8289   4.236   0.955   1.759 -1.2203  1.6946 -0.1469
   20CHTO   H76 8290   4.231   0.930   1.932 -0.6145  0.7211  0.2282
   20CHTO   C43 8291   4.513   0.979   1.814 -0.4396 -0.4874 -0.5839
   20CHTO   H85 8292   4.515   0.882   1.864  0.4372  0.5658  1.4891
   20CHTO   O29 8293   4.638   1.040   1.834 -0.2576  0.4625  0.1554
   20CHTO   C50 8294   4.638   1.183   1.810  0.0016  0.2294  0.0843
   20CHTO   H92 8295   4.622   1.226   1.910  2.5863  2.0019 -0.2178
   20CHTO   C54 8296   4.786   1.215   1.764  0.4723  0.1424 -0.3841
   20CHTO   O36 8297   4.874   1.221   1.874  0.0757  0.4140 -0.2982
   20CHTO   H72 8298   4.957   1.247   1.840 -0.3647 -1.4699 -2.9304
   20CHTO   O27 8299   4.496   0.949   1.671  0.3207  0.0040 -0.7141
   20CHTO   C37 8300   4.456   0.882   1.550 -0.0475  0.4229 -0.0277
   20CHTO   H79 8301   4.355   0.841   1.564  1.8023 -3.8649  1.4762
   20CHTO   C38 8302   4.446   0.978   1.422 -0.5301  0.6694 -0.0542
   20CHTO   H80 8303   4.526   1.052   1.436  0.5154 -0.8436  2.2181
   20CHTO   O31 8304   4.319   1.046   1.442 -0.1914 -0.4487 -0.0471
   20CHTO   H68 8305   4.329   1.130   1.482  2.0032 -2.3776  3.8760
   20CHTO   C39 8306   4.448   0.914   1.283 -0.1703  0.2561 -0.4667
   20CHTO   H81 8307   4.353   0.861   1.269 -0.1651  0.6166 -1.9152
   20CHTO    N7 8308   4.465   0.999   1.158  0.6146  0.5090  0.0258
   20CHTO   H73 8309   4.453   0.933   1.073  1.0640  0.2106  0.1938
   20CHTO   H74 8310   4.565   1.038   1.152  0.2708  1.3428 -0.4118
   20CHTO   C40 8311   4.549   0.794   1.280 -0.0198  0.4397  0.0003
   20CHTO   H82 8312   4.649   0.839   1.277  0.5878 -0.7568  1.2808
   20CHTO   O26 8313   4.538   0.702   1.394  0.1586  0.7053  0.4494
   20CHTO   C41 8314   4.548   0.762   1.527 -0.4885  0.0668 -0.0734
   20CHTO   H83 8315   4.651   0.803   1.529 -0.0631 -1.0120  3.2905
   20CHTO   C52 8316   4.529   0.662   1.639 -0.4398 -0.2697 -0.3056
   20CHTO   O35 8317   4.393   0.605   1.636  0.5861  0.3862  0.2606
   20CHTO   H71 8318   4.374   0.565   1.719  0.7547 -2.1395 -0.8586
   20CHTO   O28 8319   4.527   0.705   1.170 -0.1222 -0.7696  0.7094
   20CHTO   C42 8320   4.642   0.642   1.105 -0.5740  0.4864 -0.6373
   20CHTO   H84 8321   4.602   0.563   1.040  2.0967 -1.1376 -0.3821
   20CHTO   C44 8322   4.737   0.565   1.201  0.1784 -0.2675 -0.0642
   20CHTO   H86 8323   4.774   0.636   1.274  0.1708  4.0332 -3.9946
   20CHTO   O32 8324   4.661   0.467   1.283 -0.0227  0.6113  0.1937
   20CHTO   H69 8325   4.569   0.466   1.268  0.0840  1.3147 -0.5444
   20CHTO   C48 8326   4.868   0.514   1.130 -0.1842  0.1483 -0.0050
   20CHTO   H90 8327   4.832   0.433   1.067  0.6006 -1.4073  1.5242
   20CHTO    N9 8328   4.962   0.459   1.231  0.0696  0.2807 -0.1944
   20CHTO   H77 8329   5.021   0.373   1.201  0.0459  0.2986 -0.2908
   20CHTO   H78 8330   4.915   0.448   1.327  1.1830  0.7693  0.4160
   20CHTO   C51 8331   4.934   0.621   1.035 -0.0923 -0.3663  0.4327
   20CHTO   H93 8332   4.984   0.698   1.093  1.0479 -0.7680 -0.0208
   20CHTO   O30 8333   4.839   0.673   0.943  0.0523 -0.0857 -0.3148
   20CHTO   C46 8334   4.723   0.743   1.007  0.7010 -0.0264  0.4802
   20CHTO   H88 8335   4.764   0.820   1.072 -0.2504  0.0550  0.9827
   20CHTO   C53 8336   4.636   0.809   0.896 -0.2073 -0.6745  1.0887
   20CHTO   O72 8337   4.708   0.927   0.851 -0.0621  0.0356  0.8163
   20CHTO  H199 8338   4.648   0.981   0.804  1.5134  1.4600  0.3977
   20CHTO   O22 8339   5.037   0.564   0.954  0.2858 -0.6367  0.2051
   20CHTO   C31 8340   5.141   0.639   0.885 -0.7425  0.1067  0.1839
   20CHTO   H59 8341   5.193   0.562   0.826 -1.2248  0.4723 -0.7321
   20CHTO   C29 8342   5.096   0.752   0.786 -0.5924  0.6341  0.1699
   20CHTO   H57 8343   5.019   0.818   0.829 -2.1630 -0.2761 -1.1958
   20CHTO   O21 8344   5.018   0.682   0.684 -0.1477  0.0002 -0.8678
   20CHTO   H37 8345   5.007   0.733   0.605  3.7192  1.5023 -0.5854
   20CHTO   C27 8346   5.218   0.835   0.731  0.2641 -0.1966 -0.6655
   20CHTO   H55 8347   5.276   0.781   0.655  0.0530 -2.3212  0.6337
   20CHTO    N5 8348   5.163   0.954   0.662  0.1898 -0.3635 -0.5078
   20CHTO   H43 8349   5.169   0.940   0.555 -2.5279  1.7445 -0.9745
   20CHTO   H44 8350   5.065   0.990   0.690  1.0946  1.6760  0.1367
   20CHTO   C25 8351   5.319   0.874   0.843 -1.1077  0.0688  0.8353
   20CHTO   H53 8352   5.261   0.934   0.915  1.0233  1.4776  1.4095
   20CHTO   O17 8353   5.353   0.755   0.918  0.5341 -0.5766  0.0466
   20CHTO   C32 8354   5.243   0.698   0.991 -0.0534  0.2112 -0.8044
   20CHTO   H60 8355   5.194   0.765   1.061  1.1354  1.3002 -0.9927
   20CHTO   C36 8356   5.295   0.585   1.083 -0.1779 -0.1829  0.4719
   20CHTO   O25 8357   5.395   0.645   1.173  0.0450 -0.5043  0.1400
   20CHTO   H40 8358   5.462   0.686   1.122  0.9372  0.5424  2.1051
   20CHTO   O15 8359   5.446   0.937   0.794 -0.4392 -0.6866  0.5244
   20CHTO   C19 8360   5.533   0.936   0.678  0.4035 -0.0267 -0.5524
   20CHTO   H47 8361   5.464   0.909   0.597  3.4744 -0.0159 -3.3278
   20CHTO   C20 8362   5.596   1.082   0.652 -0.4142 -0.7595 -0.2350
   20CHTO   H48 8363   5.657   1.113   0.738 -0.6753  1.9006 -0.9826
   20CHTO   O19 8364   5.489   1.173   0.635 -0.3833 -0.2082 -0.8060
   20CHTO   H35 8365   5.461   1.180   0.545  2.0959  2.5858 -1.4481
   20CHTO   C21 8366   5.690   1.079   0.525  0.1906  0.1025 -0.2613
   20CHTO   H49 8367   5.633   1.037   0.443  0.3635 -1.0222  0.1829
   20CHTO    N4 8368   5.760   1.204   0.493  0.5266 -0.1033 -0.4100
   20CHTO   H41 8369   5.844   1.234   0.553 -1.4995  3.7564  0.6973
   20CHTO   H42 8370   5.693   1.289   0.493 -0.5535 -0.9298  0.7741
   20CHTO   C22 8371   5.794   0.966   0.544  0.3139 -0.1292 -0.9545
   20CHTO   H50 8372   5.849   0.992   0.634 -0.9196  0.4623 -0.3461
   20CHTO   O14 8373   5.724   0.836   0.562 -0.5882  0.4207 -0.5647
   20CHTO   C23 8374   5.646   0.827   0.682  0.4247  0.2067  0.1334
   20CHTO   H51 8375   5.724   0.850   0.756 -0.7071 -1.4939  1.8967
   20CHTO   C34 8376   5.594   0.685   0.691 -0.0643  0.4628 -0.1266
   20CHTO   O23 8377   5.534   0.638   0.571 -0.2487 -0.4336 -0.3515
   20CHTO   H38 8378   5.467   0.696   0.540 -0.9734 -1.1980 -0.2362
   20CHTO   O16 8379   5.888   0.940   0.433  0.0134 -0.5979 -0.5080
   20CHTO   C24 8380   5.977   0.819   0.448  0.1591  0.8062 -0.3145
   20CHTO   H52 8381   5.935   0.739   0.509  0.7695  1.4925  1.0017
   20CHTO   C26 8382   6.116   0.844   0.505  0.1981  0.5682 -0.1133
   20CHTO   H54 8383   6.159   0.925   0.442  1.7023  0.4188  0.6985
   20CHTO   O20 8384   6.106   0.890   0.644 -0.6802 -0.2112 -0.6948
   20CHTO   H36 8385   6.115   0.818   0.704 -0.6790 -0.7183 -1.2923
   20CHTO   C30 8386   6.202   0.715   0.497 -0.5018  1.0375 -0.1809
   20CHTO   H58 8387   6.148   0.644   0.561  1.7029 -0.7520 -0.2515
   20CHTO    N6 8388   6.337   0.718   0.560  0.1039 -0.5529 -0.2600
   20CHTO   H45 8389   6.391   0.800   0.514  0.0169 -0.2651  0.1511
   20CHTO   H46 8390   6.325   0.744   0.664  0.9477  0.1428 -0.3298
   20CHTO   C33 8391   6.204   0.644   0.356  0.3678 -0.1560 -0.3018
   20CHTO   H61 8392   6.287   0.676   0.292  1.7536 -0.9725  1.0732
   20CHTO   O18 8393   6.083   0.662   0.282 -0.1782 -0.2053  0.1110
   20CHTO   C28 8394   5.979   0.756   0.305  0.1727 -0.3372 -0.2318
   20CHTO   H56 8395   5.995   0.827   0.224 -0.8953 -1.6599 -1.6484
   20CHTO   C35 8396   5.834   0.705   0.281  0.3790 -0.0229  0.4578
   20CHTO   O24 8397   5.786   0.592   0.358  0.2413 -0.2186  0.5541
   20CHTO   H39 8398   5.782   0.524   0.294  4.3111 -1.1682  1.1812
   20CHTO    O9 8399   6.225   0.506   0.382  0.4525  0.4316  0.6422
   20CHTO   C13 8400   6.094   0.396   0.386  0.0863  0.3144  0.0259
   20CHTO   H26 8401   6.032   0.409   0.295  1.7961 -0.1612 -1.2129
   20CHTO   C11 8402   6.005   0.414   0.511  0.2115  0.2748 -0.5675
   20CHTO   H24 8403   5.960   0.513   0.496  0.6982  0.3491 -1.6379
   20CHTO    O8 8404   6.068   0.423   0.639 -0.0063  0.4077  0.0880
   20CHTO    H3 8405   6.158   0.449   0.634 -0.5872  2.3261 -0.6078
   20CHTO    C9 8406   5.895   0.309   0.501 -0.1068 -0.9310 -0.0360
   20CHTO   H22 8407   5.866   0.310   0.394  2.7338  1.4889 -0.8458
   20CHTO    N2 8408   5.778   0.345   0.592  0.4117 -0.0093  0.5557
   20CHTO   H10 8409   5.704   0.267   0.581 -0.3290  0.8610 -0.8770
   20CHTO   H11 8410   5.823   0.333   0.689 -0.2649  0.3271  0.9112
   20CHTO    C7 8411   5.944   0.160   0.521 -0.4317  0.1673 -0.8609
   20CHTO   H20 8412   5.861   0.094   0.490  0.8597 -2.8690  1.8468
   20CHTO    O4 8413   6.054   0.135   0.434  0.7774 -0.0693 -0.3049
   20CHTO   C14 8414   6.141   0.237   0.384  0.3164 -0.9202 -0.8252
   20CHTO   H27 8415   6.156   0.215   0.276 -1.1354 -3.1608 -0.6083
   20CHTO   C18 8416   6.280   0.224   0.440 -0.1415  0.6396  0.5560
   20CHTO   O13 8417   6.296   0.212   0.584  0.4661 -0.9047 -0.0434
   20CHTO    H7 8418   6.383   0.236   0.607 -0.4621  1.0456  1.5727
   20CHTO    O2 8419   5.978   0.122   0.680 -0.0037 -0.1599 -0.1866
   20CHTO    C1 8420   5.967  -0.012   0.716 -0.5891  0.3960 -0.1587
   20CHTO   H14 8421   5.992  -0.026   0.823 -0.1348  1.5934 -0.0974
   20CHTO    C2 8422   6.062  -0.108   0.631  0.3358  0.2757 -0.4633
   20CHTO   H15 8423   6.044  -0.092   0.524 -1.3341 -0.5537 -0.3376
   20CHTO    O6 8424   6.195  -0.073   0.658 -0.0227  0.0448 -0.1241
   20CHTO    H1 8425   6.202   0.020   0.672 -1.1592 -0.0134  0.9921
   20CHTO    C3 8426   6.042  -0.260   0.668  0.2109 -0.2399  0.3836
   20CHTO   H16 8427   6.077  -0.267   0.772 -0.6488 -0.5836  0.6580
   20CHTO    N1 8428   6.126  -0.357   0.582  0.1698 -0.2073 -0.5103
   20CHTO    H8 8429   6.167  -0.441   0.637  0.9428  0.2658 -0.3695
   20CHTO    H9 8430   6.063  -0.398   0.504 -1.3924  0.0122  0.5943
   20CHTO    C4 8431   5.886  -0.292   0.668 -0.2910  0.2449  0.5015
   20CHTO   H17 8432   5.849  -0.285   0.566  0.0731 -0.0794  0.3482
   20CHTO    O1 8433   5.820  -0.200   0.755 -0.5603  0.0510  0.2766
   20CHTO    C5 8434   5.826  -0.062   0.710  0.1932  1.3112  0.5646
   20CHTO   H18 8435   5.790  -0.054   0.607  0.8620 -0.8149  0.1410
   20CHTO   C16 8436   5.726   0.020   0.800 -0.0462 -0.1525  0.1428
   20CHTO   O11 8437   5.589  -0.026   0.803 -0.4123 -0.1624 -0.1276
   20CHTO    H5 8438   5.536  -0.019   0.726 -0.8564 -0.2533  0.1665
   20CHTO    O3 8439   5.860  -0.420   0.724 -0.2776  0.6488  0.3505
   20CHTO    C6 8440   5.729  -0.472   0.694 -0.0049 -0.3534  0.7407
   20CHTO   H19 8441   5.666  -0.388   0.665  1.1779 -0.1760 -1.3724
   20CHTO    C8 8442   5.734  -0.569   0.569  0.1789 -0.5416 -0.1157
   20CHTO   H21 8443   5.802  -0.650   0.591  1.1280  0.3134  0.1451
   20CHTO    O7 8444   5.800  -0.501   0.459 -0.2830 -0.2521  0.1037
   20CHTO    H2 8445   5.786  -0.409   0.450  0.4648 -0.1923 -0.4988
   20CHTO   C12 8446   5.599  -0.629   0.532 -0.0736  0.0079  0.4717
   20CHTO   H25 8447   5.533  -0.545   0.503 -2.7983 -1.7920  1.1243
   20CHTO    N3 8448   5.605  -0.739   0.423  0.3204  0.4009 -1.3153
   20CHTO   H12 8449   5.512  -0.795   0.422 -0.5556  1.7838  0.4404
   20CHTO   H13 8450   5.627  -0.691   0.330  0.7489  0.3863 -1.2221
   20CHTO   C15 8451   5.535  -0.684   0.669 -0.3663 -0.3929  0.3471
   20CHTO   H28 8452   5.589  -0.770   0.709 -0.8672 -1.5770 -1.4358
   20CHTO   O10 8453   5.378  -0.731   0.652  0.1982 -0.1995  0.0057
   20CHTO    H4 8454   5.374  -0.823   0.672  0.5284 -0.2713 -0.2443
   20CHTO    O5 8455   5.529  -0.581   0.767 -0.7862  0.2685  0.4750
   20CHTO   C10 8456   5.661  -0.543   0.817 -0.2488  0.4200  0.3717
   20CHTO   H23 8457   5.723  -0.627   0.850  0.9738  1.1678  0.0155
   20CHTO   C17 8458   5.628  -0.456   0.941  0.3933 -0.6666 -0.5157
   20CHTO   O12 8459   5.614  -0.524   1.060  0.4162  0.0169  0.4070
   20CHTO    H6 8460   5.695  -0.566   1.081 -0.4092 -0.5703  2.4990
   21GLOH   H03 8461   3.339   8.229   0.777 -0.5958 -2.1097 -1.3891
   21GLOH    O1 8462   3.389   8.166   0.832 -0.0777  0.4989  1.2809
   21GLOH    C1 8463   3.482   8.081   0.752  0.1015  0.2667  0.5739
   21GLOH   H02 8464   3.418   8.030   0.679  1.4058 -0.5313 -0.0380
   21GLOH   H08 8465   3.520   7.995   0.807 -0.1768 -1.3291 -1.6237
   21GLOH    C2 8466   3.592   8.154   0.670  0.0297 -0.0952  0.5652
   21GLOH   H04 8467   3.670   8.078   0.658 -0.8855 -0.6035 -2.4783
   21GLOH    O2 8468   3.556   8.197   0.537  0.3076  0.4694 -0.2003
   21GLOH   H05 8469   3.561   8.125   0.471 -0.0618  0.1354  0.1374
   21GLOH    C3 8470   3.649   8.273   0.748  0.4936 -0.6005 -0.6457
   21GLOH   H06 8471   3.570   8.339   0.783  1.5462  0.4292 -0.1720
   21GLOH   H07 8472   3.704   8.330   0.673  0.2296 -0.3677 -0.6654
   21GLOH    O3 8473   3.735   8.242   0.862  0.2989  0.2935 -0.1602
   21GLOH   H01 8474   3.829   8.259   0.844  0.1169  1.1681 -0.3405
   22GLOH   H03 8475   3.692   8.587   2.482  0.3410  0.5488 -3.7141
   22GLOH    O1 8476   3.772   8.604   2.535 -1.1309 -0.1023 -1.1746
   22GLOH    C1 8477   3.737   8.634   2.670  0.4903  0.5277  0.0555
   22GLOH   H02 8478   3.653   8.703   2.667  0.0217 -0.0342  0.0948
   22GLOH   H08 8479   3.826   8.676   2.718  1.5475 -0.4248 -1.0550
   22GLOH    C2 8480   3.684   8.518   2.766 -0.1603  0.4083 -0.3488
   22GLOH   H04 8481   3.764   8.443   2.770 -0.3903  0.1631 -0.3314
   22GLOH    O2 8482   3.650   8.579   2.897 -0.5880  0.2756  0.1516
   22GLOH   H05 8483   3.722   8.567   2.962  0.2483  0.8413 -0.6492
   22GLOH    C3 8484   3.556   8.455   2.699  0.5097  0.0492 -0.2621
   22GLOH   H06 8485   3.576   8.447   2.592 -2.6917  2.3106 -1.1031
   22GLOH   H07 8486   3.478   8.531   2.703  1.5896  1.1342  0.4550
   22GLOH    O3 8487   3.497   8.333   2.758  0.2327  0.0304  0.1036
   22GLOH   H01 8488   3.403   8.352   2.774 -1.0689 -3.0860 -3.1010
   23GLOH   H03 8489   3.068   8.845   0.638  1.1219  0.3053  0.4664
   23GLOH    O1 8490   3.002   8.915   0.652  0.4864 -0.2111  0.0701
   23GLOH    C1 8491   2.877   8.851   0.677  0.0617 -0.1094 -0.8578
   23GLOH   H02 8492   2.861   8.827   0.782 -0.9378 -0.5363 -1.1016
   23GLOH   H08 8493   2.870   8.756   0.624 -1.7268 -0.0046 -0.8429
   23GLOH    C2 8494   2.761   8.943   0.635  0.4589  0.3722  0.0435
   23GLOH   H04 8495   2.773   9.049   0.665  0.7273  1.2402 -2.9448
   23GLOH    O2 8496   2.746   8.937   0.492  0.8158  0.0432  0.0934
   23GLOH   H05 8497   2.836   8.945   0.456  0.7562 -0.6187 -0.2063
   23GLOH    C3 8498   2.640   8.887   0.707  0.0990 -0.6622  0.3974
   23GLOH   H06 8499   2.641   8.780   0.685 -0.7805 -0.6727  0.3871
   23GLOH   H07 8500   2.555   8.927   0.652 -0.5794 -0.6621  1.4165
   23GLOH    O3 8501   2.626   8.910   0.847  0.6833 -0.4442 -0.1333
   23GLOH   H01 8502   2.566   8.986   0.863  2.8718  1.4214 -0.6337
   24GLOH   H03 8503   2.444   9.350   0.949  0.4696  1.4941  4.0329
   24GLOH    O1 8504   2.356   9.319   0.977 -0.4784  0.2610  0.0314
   24GLOH    C1 8505   2.378   9.259   1.103  0.1963  0.1058 -1.0275
   24GLOH   H02 8506   2.284   9.222   1.145  1.4919 -0.4561  1.4427
   24GLOH   H08 8507   2.408   9.343   1.165  1.8468 -2.3204  1.5995
   24GLOH    C2 8508   2.467   9.137   1.118 -0.2888 -0.0334  0.0146
   24GLOH   H04 8509   2.571   9.166   1.099 -0.9722  2.0372 -0.7079
   24GLOH    O2 8510   2.466   9.082   1.247  0.7308  0.0870 -0.2391
   24GLOH   H05 8511   2.554   9.055   1.278  0.2112  1.4209  2.5236
   24GLOH    C3 8512   2.423   9.033   1.018  0.0778  0.6919  0.1582
   24GLOH   H06 8513   2.318   9.009   1.034  0.1537  2.7997  4.2697
   24GLOH   H07 8514   2.485   8.948   1.043  0.7764  1.3154  0.5357
   24GLOH    O3 8515   2.434   9.070   0.881  0.4709  0.0645 -0.6382
   24GLOH   H01 8516   2.372   9.146   0.871  0.3530  0.5676  3.0975
   25GLOH   H03 8517   3.844   8.690   0.307  0.7502 -1.8023  2.3187
   25GLOH    O1 8518   3.795   8.635   0.243  0.3655  0.5639  0.4804
   25GLOH    C1 8519   3.823   8.494   0.284 -0.5709 -0.4226  0.4812
   25GLOH   H02 8520   3.925   8.457   0.279 -0.4576 -0.1102  0.5276
   25GLOH   H08 8521   3.772   8.429   0.212 -1.1467  1.2135 -0.6344
   25GLOH    C2 8522   3.785   8.464   0.429  0.6663  0.0409 -0.4753
   25GLOH   H04 8523   3.807   8.360   0.458  0.1559  0.5648  1.8356
   25GLOH    O2 8524   3.852   8.553   0.529 -0.1623  0.4971 -0.4995
   25GLOH   H05 8525   3.944   8.564   0.498  0.1759  1.5505  0.8121
   25GLOH    C3 8526   3.630   8.486   0.432  0.2014  0.1976 -0.5457
   25GLOH   H06 8527   3.611   8.583   0.386 -1.2828  1.0971  1.8721
   25GLOH   H07 8528   3.603   8.498   0.537  0.1598  0.8118 -0.6225
   25GLOH    O3 8529   3.557   8.377   0.364 -0.9411  0.0886  0.0432
   25GLOH   H01 8530   3.560   8.294   0.415 -2.5148  0.3915  0.6391
   26GLOH   H03 8531   4.383   0.060   0.837  2.4071  0.2123 -0.2961
   26GLOH    O1 8532   4.402   0.032   0.928  0.2247 -0.5571 -0.0418
   26GLOH    C1 8533   4.414  -0.111   0.921  0.4645 -0.2503  0.3091
   26GLOH   H02 8534   4.492  -0.129   0.847  1.8418  1.9686  1.1627
   26GLOH   H08 8535   4.328  -0.151   0.868 -0.7677  2.0792  0.5098
   26GLOH    C2 8536   4.457  -0.184   1.048 -0.3574  0.4288 -0.0902
   26GLOH   H04 8537   4.387  -0.146   1.124 -1.0199  1.6014 -1.2678
   26GLOH    O2 8538   4.438  -0.326   1.045 -0.2154 -0.1453 -0.7247
   26GLOH   H05 8539   4.458  -0.356   0.954 -2.5741 -0.6981 -1.0936
   26GLOH    C3 8540   4.600  -0.150   1.088  0.1377 -0.7366 -0.3280
   26GLOH   H06 8541   4.662  -0.194   1.010 -2.5750  1.3487 -3.8520
   26GLOH   H07 8542   4.616  -0.194   1.186  0.9600 -1.4258 -0.7617
   26GLOH    O3 8543   4.636  -0.009   1.103 -0.5299 -0.0654 -0.0528
   26GLOH   H01 8544   4.602   0.026   1.187  1.0222 -0.9026  0.9651
   27GLOH   H03 8545   3.492   8.824   0.943 -0.2115 -0.8990 -0.4665
   27GLOH    O1 8546   3.468   8.754   0.880 -0.6031 -1.2353  0.0476
   27GLOH    C1 8547   3.590   8.689   0.833  0.2926  0.1992  0.4880
   27GLOH   H02 8548   3.550   8.604   0.778 -0.8066  0.8891  0.1999
   27GLOH   H08 8549   3.641   8.664   0.926 -1.8118  0.5026  1.7703
   27GLOH    C2 8550   3.677   8.787   0.754 -0.1357  0.1512  0.1092
   27GLOH   H04 8551   3.686   8.875   0.819 -1.1229  0.3080  0.0470
   27GLOH    O2 8552   3.797   8.713   0.722  0.2344  0.0069 -0.1689
   27GLOH   H05 8553   3.791   8.675   0.633  0.7095  1.1709 -0.7110
   27GLOH    C3 8554   3.617   8.823   0.610 -0.1357 -0.5935  0.3981
   27GLOH   H06 8555   3.646   8.748   0.537  1.8114  1.0794 -0.6041
   27GLOH   H07 8556   3.661   8.919   0.583  0.0808 -0.6840  0.4293
   27GLOH    O3 8557   3.475   8.823   0.603  0.0772  0.4852 -0.0181
   27GLOH   H01 8558   3.428   8.879   0.667  1.5641  1.0150  0.6406
   28GLOH   H03 8559   4.198   9.811   1.821  1.7355  1.2867 -0.2506
   28GLOH    O1 8560   4.209   9.728   1.770 -0.5278  0.3651  0.6802
   28GLOH    C1 8561   4.336   9.673   1.809  0.2557 -0.4709  0.2674
   28GLOH   H02 8562   4.413   9.724   1.753 -0.8442 -0.0253 -0.8614
   28GLOH   H08 8563   4.330   9.570   1.774 -0.8625 -0.7905  1.3239
   28GLOH    C2 8564   4.360   9.691   1.965 -0.1031 -0.1988  0.7022
   28GLOH   H04 8565   4.275   9.651   2.022  1.5630 -6.4951 -0.7464
   28GLOH    O2 8566   4.481   9.623   2.007 -0.5139 -0.6902 -0.3291
   28GLOH   H05 8567   4.551   9.640   1.941 -0.5193  0.5307 -0.0416
   28GLOH    C3 8568   4.371   9.833   2.006 -0.1370  0.2697  0.4543
   28GLOH   H06 8569   4.442   9.888   1.944 -1.3273  0.4789 -0.7518
   28GLOH   H07 8570   4.405   9.839   2.110 -0.1383 -0.4524  0.4961
   28GLOH    O3 8571   4.240   9.891   1.989  0.0226 -0.4157  0.0133
   28GLOH   H01 8572   4.196   9.883   2.076 -0.0260  0.2983  0.0538
   29GLOH   H03 8573   3.662   0.058   1.305 -1.3604  1.0676  1.5773
   29GLOH    O1 8574   3.667   0.151   1.277  0.3404  0.4832 -0.1397
   29GLOH    C1 8575   3.724   0.223   1.391 -0.1821 -0.3552 -0.8617
   29GLOH   H02 8576   3.815   0.183   1.435 -1.8377 -0.4183  2.7271
   29GLOH   H08 8577   3.645   0.216   1.466 -0.0930 -1.2423 -0.8412
   29GLOH    C2 8578   3.756   0.371   1.369 -0.7691 -0.5120  0.1101
   29GLOH   H04 8579   3.754   0.435   1.459  0.7532 -1.0441  0.5367
   29GLOH    O2 8580   3.876   0.386   1.290 -0.6406  0.0408  0.0488
   29GLOH   H05 8581   3.888   0.312   1.229  1.1289  0.0367  0.3608
   29GLOH    C3 8582   3.638   0.429   1.286 -0.1274  0.5498  0.1746
   29GLOH   H06 8583   3.637   0.381   1.188  0.4155  0.1695  0.3526
   29GLOH   H07 8584   3.664   0.534   1.269  1.1398  0.3258  0.6316
   29GLOH    O3 8585   3.506   0.414   1.350  0.0525  0.2727  0.1039
   29GLOH   H01 8586   3.441   0.474   1.309 -0.4887 -1.1701 -1.1917
   30GLOH   H03 8587   3.217   8.628   0.375 -2.2933 -1.7798 -0.1107
   30GLOH    O1 8588   3.164   8.678   0.310 -0.2881  0.3142 -0.1802
   30GLOH    C1 8589   3.236   8.795   0.269 -0.0899  0.0999 -0.4455
   30GLOH   H02 8590   3.194   8.838   0.177  2.1096  1.5379 -0.8002
   30GLOH   H08 8591   3.343   8.783   0.256  0.6833  1.6237  3.7214
   30GLOH    C2 8592   3.209   8.914   0.360 -0.3143  0.5388 -0.1429
   30GLOH   H04 8593   3.208   8.872   0.462  0.2278  0.9333  0.0304
   30GLOH    O2 8594   3.307   9.019   0.343 -0.2426  0.1365  0.2972
   30GLOH   H05 8595   3.380   8.984   0.289 -1.1398 -1.8388  0.3288
   30GLOH    C3 8596   3.062   8.954   0.336  0.2608  0.7732  0.7668
   30GLOH   H06 8597   3.055   8.989   0.233  0.6572 -2.7594 -0.5428
   30GLOH   H07 8598   3.033   9.035   0.403  4.6082  4.7702 -1.9455
   30GLOH    O3 8599   2.968   8.850   0.367 -0.1756 -0.5047 -1.3997
   30GLOH   H01 8600   3.000   8.766   0.328 -1.9798 -2.1323  0.5400
   31GLOH   H03 8601   3.223   0.749   0.669  0.6733 -1.4492  2.0347
   31GLOH    O1 8602   3.291   0.818   0.682  0.0118 -0.3785  0.0056
   31GLOH    C1 8603   3.417   0.758   0.714  0.2052  0.4666 -0.2562
   31GLOH   H02 8604   3.401   0.729   0.817  2.1639  0.0617 -0.0516
   31GLOH   H08 8605   3.502   0.825   0.698  0.0940  0.2952 -1.7049
   31GLOH    C2 8606   3.443   0.630   0.632  0.1449  0.4074  0.2524
   31GLOH   H04 8607   3.430   0.669   0.530 -0.9355 -0.6920 -0.0462
   31GLOH    O2 8608   3.571   0.571   0.658  0.4214  0.2022 -0.8452
   31GLOH   H05 8609   3.574   0.559   0.754 -0.2968 -1.0421 -0.9618
   31GLOH    C3 8610   3.332   0.519   0.650 -0.7588  1.1071  0.9408
   31GLOH   H06 8611   3.344   0.465   0.744  0.7573  1.2806  0.8591
   31GLOH   H07 8612   3.358   0.439   0.580  0.2514  2.4133 -0.2091
   31GLOH    O3 8613   3.199   0.570   0.624 -0.0786  0.2208  0.0393
   31GLOH   H01 8614   3.163   0.524   0.546  2.1117 -1.3138 -0.1148
   32GLOH   H03 8615   3.102   9.854   0.181 -0.0149  2.8779 -1.5512
   32GLOH    O1 8616   3.024   9.822   0.133  0.0459  0.3393 -0.0451
   32GLOH    C1 8617   3.079   9.708   0.074 -0.7076  0.4186 -0.6141
   32GLOH   H02 8618   2.995   9.644   0.044 -1.0728 -0.4811  2.2317
   32GLOH   H08 8619   3.143   9.656   0.145  0.1024 -2.1041 -3.0742
   32GLOH    C2 8620   3.161   9.723  -0.059  0.3454  0.0178 -0.3757
   32GLOH   H04 8621   3.243   9.789  -0.027  0.6411 -1.0967  1.2431
   32GLOH    O2 8622   3.206   9.596  -0.100 -0.0997 -0.0459  0.4566
   32GLOH   H05 8623   3.133   9.561  -0.153 -1.4134  0.4638  1.8802
   32GLOH    C3 8624   3.083   9.792  -0.172 -0.2144  0.3938  0.1777
   32GLOH   H06 8625   2.982   9.750  -0.174 -0.2465  0.4962 -0.4286
   32GLOH   H07 8626   3.129   9.772  -0.268 -0.5926  3.3111 -0.6475
   32GLOH    O3 8627   3.070   9.933  -0.153  0.4496 -0.2823 -0.5309
   32GLOH   H01 8628   3.010   9.958  -0.225 -1.4411 -0.5736  0.8894
   33GLOH   H03 8629   3.869   8.964   2.439 -5.1562 -2.5909  0.3792
   33GLOH    O1 8630   3.869   8.971   2.342 -0.5562 -1.5758  0.3632
   33GLOH    C1 8631   3.728   8.983   2.299  0.0747 -0.6772  0.4139
   33GLOH   H02 8632   3.655   8.947   2.372  1.1971 -1.2552  1.2800
   33GLOH   H08 8633   3.714   8.936   2.202  1.4348  1.4225 -0.8191
   33GLOH    C2 8634   3.708   9.133   2.273 -0.5402 -0.1851  0.1092
   33GLOH   H04 8635   3.767   9.164   2.186  0.5658 -2.6109 -0.0579
   33GLOH    O2 8636   3.569   9.160   2.245 -0.0232 -0.2056  0.1331
   33GLOH   H05 8637   3.526   9.101   2.181  0.7643 -0.2615 -0.3455
   33GLOH    C3 8638   3.748   9.217   2.400 -0.1032 -1.6285 -0.1242
   33GLOH   H06 8639   3.855   9.202   2.415  0.1383  1.1370  1.1615
   33GLOH   H07 8640   3.711   9.184   2.497 -0.5059 -0.4958  0.1160
   33GLOH    O3 8641   3.727   9.355   2.383  0.1091  0.0573  0.3677
   33GLOH   H01 8642   3.756   9.387   2.295  2.7784  0.1246  1.2292
   34GLOH   H03 8643   3.758   9.650   0.004  1.7791  0.1802  0.9135
   34GLOH    O1 8644   3.764   9.719   0.073  0.3328  0.7998  0.4412
   34GLOH    C1 8645   3.641   9.792   0.065  0.8403  0.4520  0.5116
   34GLOH   H02 8646   3.556   9.725   0.056  1.2770 -0.1091  0.5212
   34GLOH   H08 8647   3.633   9.850  -0.027 -0.6536  1.3593  1.1981
   34GLOH    C2 8648   3.622   9.887   0.191  0.2079  0.6902  0.2641
   34GLOH   H04 8649   3.715   9.947   0.198  0.9672 -0.0771 -2.5784
   34GLOH    O2 8650   3.497   9.965   0.179 -0.4244 -0.4308  0.1053
   34GLOH   H05 8651   3.497   9.991   0.086  0.2910  0.1946  0.2719
   34GLOH    C3 8652   3.618   9.800   0.319  0.3332 -0.0041  0.7953
   34GLOH   H06 8653   3.581   9.860   0.402 -4.7654 -0.4997 -0.9423
   34GLOH   H07 8654   3.719   9.760   0.332  0.6187  1.2696  2.8203
   34GLOH    O3 8655   3.529   9.693   0.307 -0.0553  0.3049  0.5778
   34GLOH   H01 8656   3.477   9.680   0.388  0.1999  0.2652  0.7349
   35GLOH   H03 8657   4.140   0.660   0.631  1.7237  1.0694  1.4623
   35GLOH    O1 8658   4.210   0.594   0.616  0.2939 -0.0797 -0.3928
   35GLOH    C1 8659   4.336   0.639   0.664 -0.0616 -0.1107  0.4896
   35GLOH   H02 8660   4.327   0.681   0.764 -0.2616 -2.9285  1.6976
   35GLOH   H08 8661   4.370   0.721   0.600  0.8769 -0.6331  0.3093
   35GLOH    C2 8662   4.439   0.530   0.660 -0.3583  0.2924 -0.6568
   35GLOH   H04 8663   4.453   0.511   0.552  1.3678 -0.3205 -0.3432
   35GLOH    O2 8664   4.563   0.577   0.709 -0.9400 -0.4260 -0.7635
   35GLOH   H05 8665   4.579   0.521   0.787  1.7780  2.7390  1.0578
   35GLOH    C3 8666   4.390   0.398   0.732 -0.0397  0.6745 -0.6427
   35GLOH   H06 8667   4.459   0.318   0.706 -0.2092  0.3049  0.0159
   35GLOH   H07 8668   4.293   0.368   0.692 -0.3514  0.2553  0.3990
   35GLOH    O3 8669   4.368   0.409   0.875  0.6908  0.8042 -0.3712
   35GLOH   H01 8670   4.277   0.439   0.890  0.8524  0.2454  1.8183
   36GLOH   H03 8671   3.916   0.609   2.524  0.2477  0.3553 -0.7168
   36GLOH    O1 8672   3.839   0.597   2.466 -0.1717 -0.0015 -0.0939
   36GLOH    C1 8673   3.763   0.473   2.497 -0.2348 -0.7456  0.1992
   36GLOH   H02 8674   3.686   0.459   2.421 -0.3160 -1.0316  0.3354
   36GLOH   H08 8675   3.710   0.491   2.591  0.4988 -1.1343  0.6884
   36GLOH    C2 8676   3.869   0.361   2.513  0.5891  0.2253  0.6815
   36GLOH   H04 8677   3.950   0.376   2.441  0.1469  1.6771  0.4790
   36GLOH    O2 8678   3.923   0.361   2.647  0.1205  0.0589  0.2515
   36GLOH   H05 8679   3.975   0.280   2.655 -0.5234 -0.1919  2.1878
   36GLOH    C3 8680   3.814   0.229   2.476  0.2727  0.9960  0.5223
   36GLOH   H06 8681   3.727   0.200   2.535 -0.7379  0.4636 -1.2113
   36GLOH   H07 8682   3.892   0.153   2.492 -1.3835 -0.1509  3.6151
   36GLOH    O3 8683   3.783   0.236   2.331  0.0005  0.1776  0.1492
   36GLOH   H01 8684   3.797   0.146   2.297  2.0364  0.2285  0.7756
   37GLOH   H03 8685   4.004   0.474   1.758  0.5317  0.1036  0.9217
   37GLOH    O1 8686   3.974   0.402   1.816 -0.6274 -0.0969  0.0912
   37GLOH    C1 8687   3.911   0.458   1.930 -0.3648 -0.0976  0.1176
   37GLOH   H02 8688   3.807   0.481   1.905  0.1739 -0.6126 -2.7199
   37GLOH   H08 8689   3.973   0.538   1.970 -1.5846  0.4825  0.8730
   37GLOH    C2 8690   3.917   0.362   2.051 -0.5325 -0.3735  0.0254
   37GLOH   H04 8691   4.021   0.362   2.086 -0.4274 -2.7351 -0.2064
   37GLOH    O2 8692   3.823   0.413   2.150  0.0532  0.0793  0.0718
   37GLOH   H05 8693   3.835   0.357   2.229 -2.4944  2.1330  2.0005
   37GLOH    C3 8694   3.893   0.214   2.004 -0.0905  0.2773 -0.0919
   37GLOH   H06 8695   3.790   0.195   1.972 -0.3555 -0.6301  1.2707
   37GLOH   H07 8696   3.911   0.149   2.089 -0.1494  0.9789  0.4550
   37GLOH    O3 8697   3.984   0.169   1.901  0.0931 -0.6298 -1.3147
   37GLOH   H01 8698   3.990   0.251   1.847 -2.0310 -0.4342 -1.3215
   38GLOH   H03 8699   3.396   8.597   1.565  0.9627 -0.6630  2.2098
   38GLOH    O1 8700   3.457   8.529   1.532  0.3364 -0.1145 -0.1806
   38GLOH    C1 8701   3.592   8.579   1.544  0.6719  0.6214  0.3027
   38GLOH   H02 8702   3.666   8.500   1.541  0.6515  0.6308 -1.8409
   38GLOH   H08 8703   3.610   8.636   1.634  1.9938  1.1267 -0.2736
   38GLOH    C2 8704   3.617   8.668   1.425  0.9258 -0.3476  0.3481
   38GLOH   H04 8705   3.535   8.741   1.415  0.7203 -0.6593 -0.3595
   38GLOH    O2 8706   3.738   8.732   1.442 -0.6278 -0.2278  0.3201
   38GLOH   H05 8707   3.803   8.674   1.400 -2.3301 -1.1665 -1.0414
   38GLOH    C3 8708   3.621   8.588   1.297 -0.4029  0.2775 -0.5221
   38GLOH   H06 8709   3.616   8.660   1.216  0.0240 -0.4224 -1.1878
   38GLOH   H07 8710   3.525   8.538   1.287  0.9291 -2.4251 -0.5742
   38GLOH    O3 8711   3.737   8.503   1.272 -0.0076 -0.4579  0.3392
   38GLOH   H01 8712   3.715   8.458   1.188 -0.1695  0.3720 -0.0748
   39GLOH   H03 8713   4.526   8.453   2.161  1.0920 -2.1518  0.0868
   39GLOH    O1 8714   4.589   8.472   2.234  0.4220  0.4974  0.0267
   39GLOH    C1 8715   4.672   8.584   2.218  0.0211  0.0824 -0.2083
   39GLOH   H02 8716   4.687   8.586   2.111 -0.1594 -1.6479 -0.2821
   39GLOH   H08 8717   4.766   8.570   2.273  1.0259  0.9374 -1.6954
   39GLOH    C2 8718   4.605   8.713   2.274 -0.5192  0.4615  0.1831
   39GLOH   H04 8719   4.551   8.685   2.366  0.8493 -2.3286  0.1893
   39GLOH    O2 8720   4.709   8.812   2.301 -0.0250  0.4537 -0.2266
   39GLOH   H05 8721   4.731   8.870   2.226 -2.0592  1.5353 -0.0029
   39GLOH    C3 8722   4.494   8.772   2.185  0.1525  0.4852 -0.1369
   39GLOH   H06 8723   4.538   8.812   2.093  0.3930  2.7986  0.9518
   39GLOH   H07 8724   4.458   8.857   2.242 -1.0182 -0.7770  1.0234
   39GLOH    O3 8725   4.388   8.673   2.156 -0.2610  0.4788 -0.2098
   39GLOH   H01 8726   4.325   8.720   2.098 -0.2365 -2.2599 -2.5598
   40GLOH   H03 8727   2.868   8.374   0.311  1.4256  0.2706 -1.1053
   40GLOH    O1 8728   2.908   8.376   0.400 -0.4755  0.1086 -0.2094
   40GLOH    C1 8729   2.840   8.467   0.488 -0.2349  0.2689 -0.1072
   40GLOH   H02 8730   2.892   8.562   0.482  0.4325 -0.0782  0.1907
   40GLOH   H08 8731   2.845   8.427   0.590  0.2253 -3.0519 -1.3906
   40GLOH    C2 8732   2.689   8.487   0.454 -0.2418 -0.0019 -1.2053
   40GLOH   H04 8733   2.653   8.383   0.463 -1.6461  0.3823 -2.2138
   40GLOH    O2 8734   2.624   8.581   0.542  0.1169  0.0369  0.6640
   40GLOH   H05 8735   2.590   8.661   0.498  0.4400  0.0140  0.3746
   40GLOH    C3 8736   2.683   8.539   0.308  0.3052  0.3682  1.1409
   40GLOH   H06 8737   2.730   8.637   0.298  0.3452  0.3227  0.8898
   40GLOH   H07 8738   2.578   8.555   0.283  0.1922 -2.0426  0.0183
   40GLOH    O3 8739   2.746   8.453   0.210 -0.0602  0.2705 -0.3377
   40GLOH   H01 8740   2.723   8.490   0.123 -3.3214  1.8165  1.0955
   41GLOH   H03 8741   3.436   0.062   2.731  0.9460  1.0056 -0.5544
   41GLOH    O1 8742   3.483   0.031   2.811  0.1525 -0.1677 -0.5332
   41GLOH    C1 8743   3.571   0.135   2.848 -0.3757 -0.8018  0.3115
   41GLOH   H02 8744   3.652   0.132   2.776  1.6559  1.2407  2.4203
   41GLOH   H08 8745   3.616   0.120   2.946 -1.3810 -3.1677  0.4437
   41GLOH    C2 8746   3.509   0.280   2.831 -0.3404  0.6082 -0.1968
   41GLOH   H04 8747   3.422   0.271   2.898 -0.4601 -1.5708 -0.6217
   41GLOH    O2 8748   3.608   0.387   2.867  0.2481  0.1640 -0.7888
   41GLOH   H05 8749   3.645   0.361   2.953  0.7066  1.8797 -0.4554
   41GLOH    C3 8750   3.467   0.306   2.681 -0.1294  0.4054 -0.2147
   41GLOH   H06 8751   3.554   0.322   2.618  1.2680 -1.0770  1.2846
   41GLOH   H07 8752   3.409   0.399   2.686 -0.0922  0.3655  1.1955
   41GLOH    O3 8753   3.396   0.189   2.627  0.0055 -0.9638  0.2763
   41GLOH   H01 8754   3.349   0.220   2.547 -1.2329  1.1658  1.7819
   42GLOH   H03 8755   3.727   1.005   2.430 -1.6330 -0.3017  0.4163
   42GLOH    O1 8756   3.685   0.986   2.344 -0.9722  0.2005 -0.0189
   42GLOH    C1 8757   3.721   0.856   2.300 -0.2365  0.3830  0.4975
   42GLOH   H02 8758   3.682   0.781   2.369  1.0883 -0.6027  0.1997
   42GLOH   H08 8759   3.827   0.830   2.288 -0.7110 -1.1261 -0.6156
   42GLOH    C2 8760   3.644   0.837   2.163 -0.4677 -0.2097 -0.9488
   42GLOH   H04 8761   3.536   0.830   2.179 -0.3876 -0.5706 -0.5461
   42GLOH    O2 8762   3.668   0.952   2.076  0.1060  0.5672 -0.3405
   42GLOH   H05 8763   3.683   1.023   2.141  0.6728  0.1245  0.0084
   42GLOH    C3 8764   3.675   0.700   2.102 -0.5531  0.0326  0.4642
   42GLOH   H06 8765   3.777   0.695   2.066 -1.4930 -1.5338 -2.1862
   42GLOH   H07 8766   3.613   0.699   2.011  2.6565 -0.0120 -1.7958
   42GLOH    O3 8767   3.641   0.590   2.182  0.2461 -0.2783  0.1350
   42GLOH   H01 8768   3.703   0.516   2.164  1.1488  0.2979  0.8284
   43GLOH   H03 8769   3.616   0.755   2.774  0.6517  0.9170 -0.0863
   43GLOH    O1 8770   3.557   0.828   2.747 -0.0510  0.2465 -0.3929
   43GLOH    C1 8771   3.428   0.780   2.704 -0.1614  1.0258  0.0630
   43GLOH   H02 8772   3.348   0.826   2.761  0.5192  2.4316 -0.0760
   43GLOH   H08 8773   3.417   0.674   2.724 -0.2641  0.9168 -0.5478
   43GLOH    C2 8774   3.412   0.801   2.548 -0.0243  0.7763  0.7802
   43GLOH   H04 8775   3.489   0.745   2.492  0.2180  1.3685  0.5153
   43GLOH    O2 8776   3.275   0.760   2.516  0.4487 -0.4030 -0.0446
   43GLOH   H05 8777   3.224   0.839   2.492  0.1886 -1.1042 -1.8825
   43GLOH    C3 8778   3.429   0.950   2.518 -0.3502  1.0295 -0.0497
   43GLOH   H06 8779   3.524   0.976   2.564 -0.3265  1.1620 -0.1722
   43GLOH   H07 8780   3.357   1.011   2.573 -1.2650 -1.7806  1.9767
   43GLOH    O3 8781   3.430   0.977   2.378  0.0778 -0.2785  0.1706
   43GLOH   H01 8782   3.524   0.983   2.352 -0.2666  1.0750 -0.8597
   44GLOH   H03 8783   3.926   9.737   0.729 -0.9366  0.8668  0.2690
   44GLOH    O1 8784   3.864   9.719   0.657 -0.3080  0.2319 -0.1195
   44GLOH    C1 8785   3.723   9.751   0.685  0.9961 -0.3492  0.1386
   44GLOH   H02 8786   3.673   9.759   0.588  0.4096 -1.7546  0.3075
   44GLOH   H08 8787   3.711   9.845   0.739 -1.9304 -0.4068 -0.3290
   44GLOH    C2 8788   3.639   9.652   0.766 -0.0008  0.4873  0.1645
   44GLOH   H04 8789   3.679   9.631   0.866 -1.4232  2.1802  1.1260
   44GLOH    O2 8790   3.502   9.714   0.782  0.0255 -0.2218 -0.4055
   44GLOH   H05 8791   3.489   9.743   0.874  0.8678  0.0051 -0.3541
   44GLOH    C3 8792   3.635   9.520   0.682 -0.3471 -0.0464 -0.5080
   44GLOH   H06 8793   3.734   9.484   0.654 -0.2458 -1.6063  1.7214
   44GLOH   H07 8794   3.578   9.549   0.594 -0.1169  0.5888 -0.4468
   44GLOH    O3 8795   3.575   9.413   0.758  0.2446  0.5931 -0.7278
   44GLOH   H01 8796   3.479   9.431   0.769  0.5971  2.0092  0.1059
   45GLOH   H03 8797   4.379   8.647   2.480 -1.7703 -1.3330 -1.9204
   45GLOH    O1 8798   4.311   8.709   2.511  0.4155  0.2142  0.0185
   45GLOH    C1 8799   4.241   8.646   2.622 -0.2570 -0.6554 -0.9575
   45GLOH   H02 8800   4.195   8.724   2.682 -0.6446 -0.7858 -1.0803
   45GLOH   H08 8801   4.313   8.599   2.689 -0.7231 -0.5341 -0.3602
   45GLOH    C2 8802   4.150   8.539   2.572  0.6717  0.3412 -1.2072
   45GLOH   H04 8803   4.212   8.472   2.511 -2.5086 -2.2158 -1.7685
   45GLOH    O2 8804   4.089   8.451   2.675  0.1358  0.1494  0.0115
   45GLOH   H05 8805   4.033   8.387   2.628 -0.6501  0.8291  0.0035
   45GLOH    C3 8806   4.046   8.606   2.483 -0.1973 -0.1578 -0.7110
   45GLOH   H06 8807   3.980   8.671   2.541 -0.1137  2.2622 -3.2446
   45GLOH   H07 8808   3.985   8.525   2.443 -1.2798  0.3675 -0.1388
   45GLOH    O3 8809   4.108   8.677   2.379  0.2835  0.0931 -0.0821
   45GLOH   H01 8810   4.198   8.696   2.412  2.2549 -1.1504 -4.4363
   46GLOH   H03 8811   3.026   8.631   2.149  0.7226  0.3455  0.1467
   46GLOH    O1 8812   3.034   8.535   2.169 -0.0650  0.2717  0.0967
   46GLOH    C1 8813   3.051   8.469   2.046  0.2982  0.6388  0.3104
   46GLOH   H02 8814   2.959   8.415   2.024 -0.3934  2.1466 -0.5546
   46GLOH   H08 8815   3.120   8.386   2.060 -0.7845 -0.4483 -0.7298
   46GLOH    C2 8816   3.104   8.547   1.919  0.3624  0.2641  0.1350
   46GLOH   H04 8817   3.029   8.623   1.893 -1.6101 -0.7795  2.4835
   46GLOH    O2 8818   3.226   8.609   1.948 -0.1658  0.2010 -0.5694
   46GLOH   H05 8819   3.200   8.702   1.964 -0.7919 -0.0267 -0.2390
   46GLOH    C3 8820   3.107   8.449   1.801 -0.2281 -0.3403  0.4735
   46GLOH   H06 8821   3.118   8.506   1.709 -0.3853  0.1303  0.7458
   46GLOH   H07 8822   3.012   8.396   1.796 -0.2094 -0.2870 -0.7352
   46GLOH    O3 8823   3.208   8.344   1.813 -0.5443 -0.0731 -0.0548
   46GLOH   H01 8824   3.296   8.384   1.798 -0.3684 -0.6575 -0.6009
   47GLOH   H03 8825   3.390   0.380   2.010  2.4117 -2.6894 -0.0598
   47GLOH    O1 8826   3.380   0.350   2.102 -0.9689 -0.0121  0.4998
   47GLOH    C1 8827   3.507   0.304   2.156 -0.3442  0.1261  0.1010
   47GLOH   H02 8828   3.523   0.330   2.261 -1.4771 -1.1573  0.6057
   47GLOH   H08 8829   3.594   0.336   2.098 -0.6346 -1.6159 -1.3252
   47GLOH    C2 8830   3.498   0.147   2.158  0.5618 -0.4151 -0.6341
   47GLOH   H04 8831   3.597   0.100   2.167  0.3766 -1.2926 -2.7726
   47GLOH    O2 8832   3.412   0.098   2.262  0.6533  0.4328  0.1730
   47GLOH   H05 8833   3.347   0.165   2.291 -0.6309 -0.0799 -1.4143
   47GLOH    C3 8834   3.435   0.089   2.021 -0.5209 -0.8972  0.3413
   47GLOH   H06 8835   3.354   0.153   1.987  0.6320 -0.0261 -0.7815
   47GLOH   H07 8836   3.385  -0.008   2.024 -0.8242 -0.7385  0.3504
   47GLOH    O3 8837   3.530   0.088   1.911 -0.3441  0.4605  0.3357
   47GLOH   H01 8838   3.551   0.182   1.893 -3.0745  0.8622 -1.1185
   48GLOH   H03 8839   3.626   8.715   0.031 -2.1850 -0.7726 -0.8115
   48GLOH    O1 8840   3.600   8.809   0.029  0.2611 -0.0101  0.8336
   48GLOH    C1 8841   3.473   8.831  -0.046  0.1588 -0.2738 -0.1093
   48GLOH   H02 8842   3.396   8.868   0.021 -0.0950  0.7078 -0.9268
   48GLOH   H08 8843   3.434   8.741  -0.093  0.6164  0.0103 -1.0546
   48GLOH    C2 8844   3.490   8.932  -0.162  0.2750  0.5818  0.1964
   48GLOH   H04 8845   3.559   8.899  -0.240 -0.8731 -1.7338  0.1237
   48GLOH    O2 8846   3.368   8.959  -0.230 -0.0112 -0.2337 -0.0365
   48GLOH   H05 8847   3.378   8.887  -0.295  2.6130 -0.0334  0.0893
   48GLOH    C3 8848   3.562   9.061  -0.107 -0.4054 -0.0675 -0.1244
   48GLOH   H06 8849   3.516   9.098  -0.015  0.6740 -0.7897  0.7165
   48GLOH   H07 8850   3.549   9.141  -0.180 -3.1423 -2.3341 -2.2004
   48GLOH    O3 8851   3.703   9.027  -0.098  0.0114  0.2777 -0.1938
   48GLOH   H01 8852   3.724   8.984  -0.014  1.0887  1.8073  0.3403
   49GLOH   H03 8853   2.863   9.669   2.217 -3.3610  0.6414  0.5467
   49GLOH    O1 8854   2.878   9.587   2.268 -0.3086  0.7184 -0.1413
   49GLOH    C1 8855   2.956   9.609   2.382  0.2155 -0.2741 -0.0001
   49GLOH   H02 8856   2.914   9.686   2.447  0.4130 -1.1202  1.1590
   49GLOH   H08 8857   3.053   9.650   2.354 -0.8160  1.6340 -0.8990
   49GLOH    C2 8858   2.982   9.478   2.461 -0.5853 -0.0126  0.2391
   49GLOH   H04 8859   3.029   9.406   2.391  0.3350 -1.3145  2.1550
   49GLOH    O2 8860   3.060   9.512   2.578  0.0167 -0.4744 -0.2017
   49GLOH   H05 8861   3.084   9.428   2.622 -0.3584 -1.7583 -2.4014
   49GLOH    C3 8862   2.852   9.420   2.516 -0.1220  0.5214  0.1808
   49GLOH   H06 8863   2.812   9.486   2.592 -0.1546  1.2471 -0.4708
   49GLOH   H07 8864   2.881   9.336   2.579  0.4893  1.0576  0.6218
   49GLOH    O3 8865   2.748   9.389   2.420  0.4638  0.0414  0.5046
   49GLOH   H01 8866   2.768   9.457   2.352  1.0459  0.4664  1.0931
   50GLOH   H03 8867   4.072   9.135   1.452  1.0484 -3.4054 -1.7285
   50GLOH    O1 8868   4.149   9.191   1.430 -0.3545 -0.3885  0.6993
   50GLOH    C1 8869   4.111   9.324   1.377  0.4266 -0.4686 -0.0456
   50GLOH   H02 8870   4.131   9.405   1.447 -1.6458  1.1533 -1.2837
   50GLOH   H08 8871   4.007   9.324   1.344  0.3344 -1.1371  0.2260
   50GLOH    C2 8872   4.196   9.364   1.258 -0.8259 -0.3674 -0.0768
   50GLOH   H04 8873   4.158   9.315   1.168  0.5771  0.2974 -1.0362
   50GLOH    O2 8874   4.190   9.509   1.241 -0.5269  0.0768  0.2774
   50GLOH   H05 8875   4.102   9.533   1.206 -0.8046  1.8186  2.0512
   50GLOH    C3 8876   4.336   9.313   1.285  0.1089  0.1617  0.7520
   50GLOH   H06 8877   4.408   9.352   1.213  0.1363 -2.5971 -0.7908
   50GLOH   H07 8878   4.342   9.207   1.260 -1.2668  0.2876 -0.1252
   50GLOH    O3 8879   4.394   9.332   1.415  0.2224 -0.1200 -0.4457
   50GLOH   H01 8880   4.342   9.277   1.476  0.5043 -1.9937 -1.8448
   51GLOH   H03 8881   3.335   8.111   1.182  0.7691 -1.4698 -0.1183
   51GLOH    O1 8882   3.410   8.134   1.240  0.0341 -0.3997  0.4133
   51GLOH    C1 8883   3.474   8.250   1.177  0.4586  0.3036  0.6150
   51GLOH   H02 8884   3.453   8.341   1.232  0.3307  0.1798  0.7721
   51GLOH   H08 8885   3.436   8.263   1.076 -0.3680  1.4197  1.0646
   51GLOH    C2 8886   3.625   8.237   1.155  0.2597  0.2250  0.2368
   51GLOH   H04 8887   3.639   8.153   1.087 -2.0805 -0.3404  0.3903
   51GLOH    O2 8888   3.677   8.355   1.097 -0.7305 -0.1959 -0.8272
   51GLOH   H05 8889   3.693   8.331   1.004  0.5906  1.7210 -1.1112
   51GLOH    C3 8890   3.690   8.185   1.282  0.6376 -0.0052  0.7020
   51GLOH   H06 8891   3.645   8.086   1.292 -0.3498  0.2871 -0.7529
   51GLOH   H07 8892   3.653   8.239   1.369  0.2628  1.7344 -0.5166
   51GLOH    O3 8893   3.838   8.168   1.279 -0.4137  0.2970  0.0127
   51GLOH   H01 8894   3.862   8.093   1.222  0.0349 -1.1080  2.0302
   52GLOH   H03 8895   3.488   9.309   2.275 -1.0032 -0.4769 -0.7839
   52GLOH    O1 8896   3.427   9.375   2.313  0.0844 -0.1063  0.3505
   52GLOH    C1 8897   3.326   9.318   2.403 -0.3685 -0.6056  0.6954
   52GLOH   H02 8898   3.252   9.395   2.420 -0.7570 -0.1834 -2.4952
   52GLOH   H08 8899   3.360   9.308   2.506 -1.4948 -2.4570  0.9272
   52GLOH    C2 8900   3.258   9.184   2.369 -0.4502 -0.6668  0.1784
   52GLOH   H04 8901   3.339   9.111   2.353 -1.3614 -1.4712 -0.8581
   52GLOH    O2 8902   3.174   9.146   2.481 -0.6496  0.2706  0.3144
   52GLOH   H05 8903   3.125   9.067   2.452  5.0755 -2.0739 -3.9482
   52GLOH    C3 8904   3.185   9.193   2.237 -0.2906  0.9606  0.3636
   52GLOH   H06 8905   3.256   9.245   2.173  1.5289 -0.3776  1.2655
   52GLOH   H07 8906   3.093   9.252   2.246  0.5845  2.4943 -0.5279
   52GLOH    O3 8907   3.154   9.070   2.183 -0.5906  0.1586 -0.5186
   52GLOH   H01 8908   3.092   9.018   2.238  1.2222 -1.6020 -0.0917
   53GLOH   H03 8909   3.539   7.988   1.516 -2.6909  0.5489  0.7406
   53GLOH    O1 8910   3.566   8.048   1.588 -0.0006  0.0771  0.2100
   53GLOH    C1 8911   3.465   8.154   1.601 -0.7623  0.1196 -0.5733
   53GLOH   H02 8912   3.364   8.115   1.611  0.0380 -1.4735  1.4696
   53GLOH   H08 8913   3.470   8.210   1.508 -1.4210  1.3078  0.0937
   53GLOH    C2 8914   3.500   8.244   1.720 -0.2203  0.0345 -0.1703
   53GLOH   H04 8915   3.609   8.257   1.726 -0.6547  4.4297 -0.3904
   53GLOH    O2 8916   3.437   8.366   1.719  0.2329  0.1285  0.2078
   53GLOH   H05 8917   3.448   8.408   1.631  1.1508 -0.7402 -0.0976
   53GLOH    C3 8918   3.465   8.164   1.851  0.1274 -0.1337  0.0770
   53GLOH   H06 8919   3.363   8.127   1.843 -0.3444  0.9336  0.9831
   53GLOH   H07 8920   3.458   8.230   1.937  1.8721  1.4207 -0.9418
   53GLOH    O3 8921   3.562   8.061   1.860 -0.0509 -0.1591  0.4211
   53GLOH   H01 8922   3.569   8.037   1.765  2.4050  2.6090 -0.1883
   54GLOH   H03 8923   3.933   8.274   1.327 -0.8894 -0.2387  2.3309
   54GLOH    O1 8924   4.005   8.328   1.365  0.1854 -0.1565  0.2530
   54GLOH    C1 8925   4.008   8.286   1.499  0.5713  0.1083  0.1779
   54GLOH   H02 8926   4.107   8.293   1.546 -0.1371  1.9238  1.4181
   54GLOH   H08 8927   3.971   8.184   1.498  1.3276 -0.2503  2.9310
   54GLOH    C2 8928   3.904   8.365   1.582  0.7397  0.0616 -0.8406
   54GLOH   H04 8929   3.799   8.361   1.550  0.7871  0.4002 -1.0364
   54GLOH    O2 8930   3.898   8.320   1.722 -0.5730 -0.0954  0.1252
   54GLOH   H05 8931   3.980   8.352   1.763 -1.4499 -1.1457  2.8613
   54GLOH    C3 8932   3.931   8.515   1.580 -1.0002 -0.4283 -0.1273
   54GLOH   H06 8933   4.013   8.530   1.651 -0.9563  0.3857 -0.3423
   54GLOH   H07 8934   3.846   8.568   1.622 -1.0262 -0.6706  0.1321
   54GLOH    O3 8935   3.972   8.568   1.457 -0.1757 -0.2980  0.0102
   54GLOH   H01 8936   3.982   8.502   1.386  3.7293  0.2926 -0.1018
   55GLOH   H03 8937   4.134   0.103   1.573  0.8887  1.3126 -1.0000
   55GLOH    O1 8938   4.101   0.171   1.636 -0.2687 -0.5283  0.4224
   55GLOH    C1 8939   4.215   0.257   1.654  0.0062 -0.1344 -0.6867
   55GLOH   H02 8940   4.178   0.356   1.681  3.3615  0.8689  0.4437
   55GLOH   H08 8941   4.264   0.266   1.556  0.4853  1.4094 -0.3222
   55GLOH    C2 8942   4.310   0.216   1.766  0.1708  0.7117 -0.3022
   55GLOH   H04 8943   4.388   0.294   1.769  0.0246  0.7896  1.8485
   55GLOH    O2 8944   4.249   0.216   1.894 -0.2866  0.2976 -0.2540
   55GLOH   H05 8945   4.156   0.189   1.883 -1.1040  3.2467 -0.9011
   55GLOH    C3 8946   4.379   0.085   1.729  0.5307  0.4643 -0.0190
   55GLOH   H06 8947   4.300   0.014   1.707  1.1530 -0.1663 -0.2648
   55GLOH   H07 8948   4.445   0.053   1.810 -2.4480 -1.6418  1.6430
   55GLOH    O3 8949   4.451   0.097   1.608 -0.5555  0.5540  0.8651
   55GLOH   H01 8950   4.470   0.004   1.583 -3.0663 -0.7438  3.5101
   56GLOH   H03 8951   2.874   8.455   0.823 -0.6501  1.5266  1.0416
   56GLOH    O1 8952   2.934   8.436   0.898 -0.1300  0.2621  0.3001
   56GLOH    C1 8953   2.892   8.530   0.999 -0.2037  0.2851  0.1662
   56GLOH   H02 8954   2.917   8.636   0.988  1.0204  0.2422  2.1614
   56GLOH   H08 8955   2.939   8.503   1.094 -1.1245 -0.4060  0.4323
   56GLOH    C2 8956   2.741   8.516   1.012  0.3040 -0.2263  0.1108
   56GLOH   H04 8957   2.710   8.411   1.027  1.2654 -0.6617 -0.8085
   56GLOH    O2 8958   2.711   8.600   1.131  0.1454  0.6275 -0.4489
   56GLOH   H05 8959   2.709   8.690   1.094 -0.2592  0.3441 -1.1177
   56GLOH    C3 8960   2.666   8.578   0.893  0.5979  0.2774 -0.2082
   56GLOH   H06 8961   2.647   8.684   0.906  1.1193  0.3408  0.0239
   56GLOH   H07 8962   2.570   8.526   0.893 -0.3859  1.9683 -3.1386
   56GLOH    O3 8963   2.736   8.558   0.777 -0.9661  0.3106  0.0002
   56GLOH   H01 8964   2.680   8.577   0.699 -0.4054  1.3680 -0.1500
   57GLOH   H03 8965   2.701   8.451   1.906  0.8979 -0.2560  2.9606
   57GLOH    O1 8966   2.675   8.545   1.907  0.1642 -0.3587 -0.4757
   57GLOH    C1 8967   2.672   8.609   1.782 -0.7239  0.3326  0.2413
   57GLOH   H02 8968   2.773   8.644   1.761 -0.5549 -0.1261  0.2853
   57GLOH   H08 8969   2.598   8.688   1.794 -2.3305 -1.1047  0.1006
   57GLOH    C2 8970   2.637   8.501   1.675  0.2024 -0.1625 -0.2533
   57GLOH   H04 8971   2.542   8.457   1.707  1.4032 -1.5713  1.4936
   57GLOH    O2 8972   2.634   8.553   1.538  0.2376 -0.1312  0.3978
   57GLOH   H05 8973   2.636   8.473   1.483 -0.0348 -0.2521  0.5614
   57GLOH    C3 8974   2.734   8.383   1.681 -0.0464 -0.2112 -0.0984
   57GLOH   H06 8975   2.836   8.413   1.655  0.4199 -2.6810 -1.2343
   57GLOH   H07 8976   2.708   8.315   1.600  1.0304 -0.5461 -0.1622
   57GLOH    O3 8977   2.730   8.317   1.811 -0.2648  0.1245 -0.3427
   57GLOH   H01 8978   2.758   8.223   1.806  1.9386  0.8289 -1.8815
   58GLOH   H03 8979   3.907   8.541   1.220 -1.0899  0.3650  1.2324
   58GLOH    O1 8980   3.960   8.605   1.169 -0.8492 -0.2306  0.7415
   58GLOH    C1 8981   3.936   8.579   1.030  0.3626  0.1802 -0.1302
   58GLOH   H02 8982   3.833   8.608   1.012 -0.5756 -3.5696 -1.1062
   58GLOH   H08 8983   3.942   8.470   1.027  0.1857  0.0800  1.9858
   58GLOH    C2 8984   4.034   8.648   0.940 -0.3395 -0.4310 -0.1299
   58GLOH   H04 8985   4.133   8.624   0.982 -1.1750 -0.5023  1.8602
   58GLOH    O2 8986   4.012   8.597   0.811  0.1195  0.3598 -0.0099
   58GLOH   H05 8987   3.939   8.645   0.768  1.4256  1.2890 -1.2603
   58GLOH    C3 8988   4.002   8.795   0.947  0.3952  0.0293  0.0669
   58GLOH   H06 8989   3.895   8.800   0.926  0.4448  0.6387 -0.0640
   58GLOH   H07 8990   4.044   8.860   0.869 -2.7717  0.3004 -1.5097
   58GLOH    O3 8991   4.008   8.854   1.077  0.4134  0.2744  0.6632
   58GLOH   H01 8992   4.002   8.785   1.146  3.1796 -0.3456  0.3373
   59GLOH   H03 8993   3.569   8.934   0.134 -1.6334 -1.6147 -0.2910
   59GLOH    O1 8994   3.511   8.971   0.204 -0.2157  0.3037 -0.0904
   59GLOH    C1 8995   3.595   9.027   0.305 -0.1392 -0.1684 -0.3509
   59GLOH   H02 8996   3.611   8.942   0.371 -1.3073 -1.1239 -1.2772
   59GLOH   H08 8997   3.540   9.101   0.363  1.0806  0.0896  0.4859
   59GLOH    C2 8998   3.728   9.090   0.258 -0.3983  0.9731  0.2773
   59GLOH   H04 8999   3.801   9.095   0.341 -0.0086 -0.6114  0.0459
   59GLOH    O2 9000   3.778   9.010   0.151 -0.7025  0.3726  0.4669
   59GLOH   H05 9001   3.835   8.946   0.198  0.3159  0.9100 -0.0071
   59GLOH    C3 9002   3.698   9.227   0.199 -0.7966 -0.2974 -0.0959
   59GLOH   H06 9003   3.631   9.229   0.113 -1.2614 -2.2819  0.2021
   59GLOH   H07 9004   3.792   9.278   0.179  0.1121 -1.6682  0.6277
   59GLOH    O3 9005   3.641   9.309   0.299  0.0716  0.6682 -0.4800
   59GLOH   H01 9006   3.576   9.363   0.250  0.1028 -1.3068 -2.7759
   60GLOH   H03 9007   3.002   0.372   0.123 -2.3477  0.7484 -0.8912
   60GLOH    O1 9008   2.964   0.364   0.212  0.4993  0.5759  0.3625
   60GLOH    C1 9009   2.959   0.229   0.261  0.2298  0.5125  0.2127
   60GLOH   H02 9010   2.972   0.154   0.182 -2.6559  0.1770  0.0224
   60GLOH   H08 9011   2.858   0.216   0.297  0.3620  1.1257  0.8113
   60GLOH    C2 9012   3.063   0.202   0.368 -0.1043 -0.1903  0.3499
   60GLOH   H04 9013   3.014   0.119   0.420  1.5016 -2.2579 -1.3512
   60GLOH    O2 9014   3.189   0.157   0.313  0.2214  0.4880 -0.4798
   60GLOH   H05 9015   3.238   0.238   0.293 -2.3332  2.0177 -0.8459
   60GLOH    C3 9016   3.084   0.305   0.480  0.1350  0.1186 -0.3845
   60GLOH   H06 9017   3.159   0.275   0.553 -0.0748 -0.3008 -0.3378
   60GLOH   H07 9018   2.994   0.298   0.541 -0.3626  1.3331 -0.9711
   60GLOH    O3 9019   3.108   0.432   0.439  0.0151  0.3423 -0.1935
   60GLOH   H01 9020   3.064   0.448   0.354 -2.1728 -0.2614  0.7948
   61GLOH   H03 9021   3.004   8.838   1.721 -0.0481  0.5200 -1.4944
   61GLOH    O1 9022   3.043   8.759   1.679 -0.3557 -0.4642  0.0360
   61GLOH    C1 9023   2.990   8.745   1.547  0.2873 -0.1207 -0.2728
   61GLOH   H02 9024   2.966   8.838   1.493  0.7356  0.3282  0.3002
   61GLOH   H08 9025   2.894   8.694   1.557 -0.3989  0.9677 -1.0562
   61GLOH    C2 9026   3.085   8.661   1.467  0.5427 -0.5499 -0.0838
   61GLOH   H04 9027   3.097   8.568   1.524  3.8465  0.1992  0.5307
   61GLOH    O2 9028   3.033   8.627   1.337  0.2697 -0.4693  1.0066
   61GLOH   H05 9029   2.950   8.577   1.350 -0.7057  0.5902 -0.9691
   61GLOH    C3 9030   3.227   8.711   1.465 -0.0256 -0.0761  0.0489
   61GLOH   H06 9031   3.215   8.817   1.444 -2.3594  0.0441  1.8769
   61GLOH   H07 9032   3.295   8.666   1.392  0.4087  1.0407 -0.2498
   61GLOH    O3 9033   3.287   8.700   1.595 -0.4569  0.5892 -0.7771
   61GLOH   H01 9034   3.215   8.707   1.660  0.8699 -0.7963  0.8969
   62GLOH   H03 9035   2.741   9.277   2.145 -0.5178 -1.9557 -0.7131
   62GLOH    O1 9036   2.809   9.267   2.075 -0.2893  0.2231 -0.8387
   62GLOH    C1 9037   2.801   9.395   2.003 -0.2552 -0.9676  0.5414
   62GLOH   H02 9038   2.813   9.479   2.072  0.0277 -0.3640 -0.2397
   62GLOH   H08 9039   2.708   9.410   1.949  0.1767 -0.4335 -0.0592
   62GLOH    C2 9040   2.911   9.399   1.891 -0.5078 -0.1713  0.4976
   62GLOH   H04 9041   2.892   9.326   1.811  0.2563  0.3519 -0.1720
   62GLOH    O2 9042   2.914   9.531   1.830 -0.1100 -0.0283 -0.7396
   62GLOH   H05 9043   2.835   9.554   1.778 -0.9289  0.1509  0.5546
   62GLOH    C3 9044   3.048   9.383   1.963 -0.3020  0.2955 -0.1985
   62GLOH   H06 9045   3.048   9.302   2.036  0.0564  0.0378 -0.4787
   62GLOH   H07 9046   3.056   9.476   2.020  0.6743 -0.1114  0.3500
   62GLOH    O3 9047   3.166   9.374   1.878 -0.2261  0.4141 -0.0880
   62GLOH   H01 9048   3.162   9.450   1.817 -0.7227  0.5123  0.0629
   63GLOH   H03 9049   5.052   0.376   0.798 -0.0171 -1.8164 -0.6974
   63GLOH    O1 9050   4.960   0.359   0.824 -0.1717  0.3679  0.2923
   63GLOH    C1 9051   4.944   0.227   0.888 -0.0788 -0.3960 -0.2242
   63GLOH   H02 9052   4.959   0.242   0.995 -0.0711  1.8995 -0.5200
   63GLOH   H08 9053   5.027   0.166   0.853 -0.0045 -0.3070 -0.2035
   63GLOH    C2 9054   4.810   0.154   0.862  0.7772 -0.1851 -0.2198
   63GLOH   H04 9055   4.797   0.165   0.753  0.3806 -1.7133 -0.3334
   63GLOH    O2 9056   4.819   0.023   0.910 -0.6288 -0.6471  0.0656
   63GLOH   H05 9057   4.742   0.008   0.968 -0.4375 -0.9270  0.2494
   63GLOH    C3 9058   4.691   0.230   0.918 -0.3451  0.0549  0.0900
   63GLOH   H06 9059   4.705   0.244   1.026  2.5691 -0.0485 -0.2285
   63GLOH   H07 9060   4.604   0.165   0.906 -2.0896  2.3965 -0.3594
   63GLOH    O3 9061   4.679   0.351   0.852 -0.2564  0.1492 -0.3896
   63GLOH   H01 9062   4.766   0.395   0.846 -0.1845  0.3863  2.1670
   64GLOH   H03 9063   4.121   0.137   2.631  1.8735  0.0470  1.6410
   64GLOH    O1 9064   4.063   0.127   2.709  0.1347 -0.1660  0.3525
   64GLOH    C1 9065   4.054  -0.004   2.767 -0.2728  0.3340 -0.9497
   64GLOH   H02 9066   4.150  -0.055   2.779  0.5646  2.2826  1.0867
   64GLOH   H08 9067   4.001  -0.056   2.688 -1.1969 -2.0673  1.1847
   64GLOH    C2 9068   3.974  -0.008   2.898  0.7932  0.3637 -0.4419
   64GLOH   H04 9069   3.869   0.015   2.874  0.5871  0.4380  0.4798
   64GLOH    O2 9070   3.979  -0.143   2.963  0.1308 -0.3307  0.1577
   64GLOH   H05 9071   3.893  -0.189   2.956 -0.1466  0.3380 -0.9642
   64GLOH    C3 9072   4.002   0.115   2.984 -1.0035 -0.2462 -0.0846
   64GLOH   H06 9073   3.992   0.200   2.917 -1.8704  0.3078  0.7479
   64GLOH   H07 9074   4.103   0.100   3.021 -1.2495 -1.0211  0.2859
   64GLOH    O3 9075   3.913   0.135   3.096  0.1867 -0.0692  0.1471
   64GLOH   H01 9076   3.961   0.105   3.176  0.3060  1.1032  0.5210
   65GLOH   H03 9077   4.092   7.874   0.866 -1.8368 -1.4578  1.6241
   65GLOH    O1 9078   4.013   7.911   0.823 -0.1167  0.7611  0.3026
   65GLOH    C1 9079   4.035   8.039   0.764 -0.5111 -0.7274 -0.2344
   65GLOH   H02 9080   3.941   8.077   0.724 -1.9057 -0.2026  3.3584
   65GLOH   H08 9081   4.100   8.049   0.678 -2.3075  2.8723 -1.3015
   65GLOH    C2 9082   4.085   8.144   0.864  0.9734 -0.3206 -0.2671
   65GLOH   H04 9083   4.025   8.158   0.955 -0.2863  0.7177 -1.2360
   65GLOH    O2 9084   4.211   8.101   0.910 -0.1803 -0.0294 -0.1368
   65GLOH   H05 9085   4.225   8.154   0.989 -0.0360 -1.0953  0.5615
   65GLOH    C3 9086   4.096   8.285   0.802  0.9300  0.4468  0.1097
   65GLOH   H06 9087   4.155   8.282   0.710 -1.3243  0.4626 -1.3886
   65GLOH   H07 9088   4.142   8.350   0.877 -1.3071  0.9180  1.1078
   65GLOH    O3 9089   3.964   8.330   0.750 -0.1913  0.5322  0.0601
   65GLOH   H01 9090   3.970   8.425   0.729 -1.6603  1.0183  1.6824
   66GLOH   H03 9091   4.060   8.631   0.141 -0.7753  1.6292 -0.4015
   66GLOH    O1 9092   4.082   8.637   0.236 -0.2001 -0.1560 -0.4093
   66GLOH    C1 9093   4.149   8.764   0.261  0.4909 -0.3168  0.7204
   66GLOH   H02 9094   4.127   8.834   0.180  0.3971  1.6539  2.3998
   66GLOH   H08 9095   4.255   8.742   0.268 -0.1646 -3.7014  0.4787
   66GLOH    C2 9096   4.096   8.829   0.392 -0.0934  0.3207 -0.1492
   66GLOH   H04 9097   4.162   8.915   0.414  0.2826 -0.2674  1.0633
   66GLOH    O2 9098   3.961   8.879   0.378 -0.2226  0.7272 -0.1377
   66GLOH   H05 9099   3.929   8.911   0.464 -2.0211  1.8074 -1.1549
   66GLOH    C3 9100   4.113   8.736   0.510 -0.3373  0.4111 -0.6690
   66GLOH   H06 9101   4.046   8.766   0.591  1.2386  1.0372  0.4447
   66GLOH   H07 9102   4.214   8.744   0.550 -0.8679  0.7196  0.6529
   66GLOH    O3 9103   4.093   8.597   0.474  0.1598 -0.1844  0.2962
   66GLOH   H01 9104   4.096   8.587   0.377 -1.1793  1.7598  0.0377
   67GLOH   H03 9105   4.105   9.615   1.853 -0.1170  0.5956  0.7638
   67GLOH    O1 9106   4.060   9.541   1.899  0.2612  0.1912  0.4849
   67GLOH    C1 9107   4.137   9.422   1.873 -0.3151 -0.4242 -0.1234
   67GLOH   H02 9108   4.236   9.419   1.919  1.2230  0.2405 -3.3116
   67GLOH   H08 9109   4.169   9.408   1.770  2.5240 -0.3934  0.7064
   67GLOH    C2 9110   4.061   9.298   1.919  0.3394 -0.4691 -0.2221
   67GLOH   H04 9111   4.108   9.204   1.887 -1.3835 -2.3641  2.5665
   67GLOH    O2 9112   4.055   9.295   2.063  0.1456  0.3360  0.1127
   67GLOH   H05 9113   4.049   9.203   2.093  1.9488  1.1079  3.1062
   67GLOH    C3 9114   3.926   9.295   1.852 -0.5770  0.0882 -0.0281
   67GLOH   H06 9115   3.874   9.390   1.850  1.2765  1.1191 -1.2003
   67GLOH   H07 9116   3.860   9.228   1.908 -0.2847 -0.0879  0.1083
   67GLOH    O3 9117   3.940   9.240   1.717  0.5630  0.3025  0.2632
   67GLOH   H01 9118   3.881   9.163   1.710 -1.1885  1.4634  2.0238
   68GLOH   H03 9119   3.703   9.663   1.580  0.0969 -2.2829  0.5992
   68GLOH    O1 9120   3.618   9.662   1.627 -0.0099 -0.9352  0.4480
   68GLOH    C1 9121   3.628   9.528   1.678  0.5408 -0.7336 -0.5236
   68GLOH   H02 9122   3.545   9.506   1.745  1.4330 -1.7040  0.2755
   68GLOH   H08 9123   3.714   9.527   1.745 -1.1210 -2.6431  1.6581
   68GLOH    C2 9124   3.645   9.415   1.570 -0.4322  0.2808 -0.4645
   68GLOH   H04 9125   3.635   9.317   1.618  1.9624 -0.5425 -1.5746
   68GLOH    O2 9126   3.544   9.426   1.471  0.3929 -0.1390 -0.4653
   68GLOH   H05 9127   3.459   9.397   1.507 -0.4654 -1.9189 -3.7188
   68GLOH    C3 9128   3.773   9.417   1.491  0.0990  0.1139  1.0112
   68GLOH   H06 9129   3.776   9.494   1.414  1.4301 -1.5264 -0.6507
   68GLOH   H07 9130   3.779   9.323   1.435  0.6598 -1.0727  3.0295
   68GLOH    O3 9131   3.892   9.438   1.559 -0.2685  0.2080 -0.1309
   68GLOH   H01 9132   3.913   9.362   1.617  0.4610 -1.4592 -2.5157
   69GLOH   H03 9133   4.436   0.791   2.116 -2.8827  1.7471 -1.5736
   69GLOH    O1 9134   4.445   0.724   2.046  0.1850  0.3244  0.0850
   69GLOH    C1 9135   4.430   0.599   2.118  0.1341  0.7968  0.2566
   69GLOH   H02 9136   4.363   0.607   2.203 -0.3705 -1.4256  0.1196
   69GLOH   H08 9137   4.526   0.560   2.153  0.1899  0.9584  0.2825
   69GLOH    C2 9138   4.372   0.487   2.023 -0.5585 -0.6811 -0.1769
   69GLOH   H04 9139   4.439   0.480   1.936 -0.5481 -1.5377 -0.0993
   69GLOH    O2 9140   4.360   0.361   2.087  0.3843  0.2441  0.0835
   69GLOH   H05 9141   4.350   0.292   2.019  1.2550  0.8349 -0.6599
   69GLOH    C3 9142   4.235   0.536   1.970  0.1247 -0.3884 -0.6957
   69GLOH   H06 9143   4.172   0.547   2.058 -0.4842 -0.6102 -1.0922
   69GLOH   H07 9144   4.192   0.460   1.905 -0.8303 -0.9154  0.5321
   69GLOH    O3 9145   4.246   0.662   1.898 -0.8695  0.1914  0.0988
   69GLOH   H01 9146   4.324   0.707   1.935  0.7411 -1.5415 -1.0950
   70GLOH   H03 9147   2.966   8.924   2.411 -2.3364  0.3308 -2.7817
   70GLOH    O1 9148   3.046   8.910   2.357 -0.2471  0.4801  0.1142
   70GLOH    C1 9149   3.122   8.790   2.398  0.0114 -0.2679 -0.1706
   70GLOH   H02 9150   3.106   8.710   2.327 -2.7154  1.8655 -2.0567
   70GLOH   H08 9151   3.086   8.752   2.494 -0.2355 -0.6761 -0.4247
   70GLOH    C2 9152   3.276   8.808   2.393 -0.7782  0.2965 -0.1888
   70GLOH   H04 9153   3.288   8.916   2.407  1.0830  0.0039  0.6787
   70GLOH    O2 9154   3.357   8.749   2.504 -0.1106  0.1482  0.0161
   70GLOH   H05 9155   3.348   8.654   2.484 -0.8425  0.4343 -1.0453
   70GLOH    C3 9156   3.332   8.770   2.254 -0.7496  0.4155  0.1895
   70GLOH   H06 9157   3.287   8.829   2.174  1.4564 -0.6291 -1.9054
   70GLOH   H07 9158   3.295   8.671   2.226  1.6459 -0.6124  0.5013
   70GLOH    O3 9159   3.480   8.771   2.247 -0.6016  0.0073  0.1371
   70GLOH   H01 9160   3.506   8.814   2.163 -1.6957 -0.4033 -0.4310
   71GLOH   H03 9161   4.196   8.817   1.664 -1.4931 -0.4290 -0.9605
   71GLOH    O1 9162   4.171   8.889   1.725  0.6395 -0.1707 -0.3619
   71GLOH    C1 9163   4.085   8.983   1.660  0.6759 -0.0135 -0.6055
   71GLOH   H02 9164   4.126   9.083   1.645 -0.8348  0.7780  0.3985
   71GLOH   H08 9165   4.001   9.005   1.726 -0.2074 -3.8210 -0.3626
   71GLOH    C2 9166   4.016   8.933   1.531 -0.1726  0.4904 -0.1279
   71GLOH   H04 9167   3.927   8.873   1.558 -1.6987  1.9559 -1.7775
   71GLOH    O2 9168   3.964   9.046   1.466 -0.4334 -0.1037  0.4850
   71GLOH   H05 9169   3.870   9.046   1.489  0.3782  0.1368  4.1294
   71GLOH    C3 9170   4.111   8.850   1.445  0.1846 -0.0091  0.2615
   71GLOH   H06 9171   4.196   8.903   1.401 -1.9607  0.7611 -3.1044
   71GLOH   H07 9172   4.054   8.813   1.360  0.0356 -1.5952  1.0414
   71GLOH    O3 9173   4.159   8.738   1.526 -0.0306 -0.2164 -0.1894
   71GLOH   H01 9174   4.087   8.674   1.512  1.2852 -2.3077  2.1870
   72GLOH   H03 9175   3.002   7.843   1.524 -1.2630 -1.5940 -0.4432
   72GLOH    O1 9176   3.072   7.791   1.481  0.4321 -0.2057  0.5618
   72GLOH    C1 9177   3.210   7.838   1.509  0.5364  0.0139  0.0437
   72GLOH   H02 9178   3.260   7.752   1.553 -0.6785 -0.0724  1.2805
   72GLOH   H08 9179   3.215   7.911   1.589  1.4367 -0.5855  0.5390
   72GLOH    C2 9180   3.284   7.885   1.391 -0.3058 -0.3988 -0.4104
   72GLOH   H04 9181   3.232   7.970   1.344  1.7111  1.4948  0.7238
   72GLOH    O2 9182   3.415   7.931   1.415 -0.3299  0.6146  0.0665
   72GLOH   H05 9183   3.421   8.015   1.366 -0.4583 -0.3641 -1.6650
   72GLOH    C3 9184   3.283   7.778   1.282 -0.0998  0.2169  0.0285
   72GLOH   H06 9185   3.342   7.695   1.321 -0.5369  0.1421  0.5472
   72GLOH   H07 9186   3.334   7.808   1.191  0.5374  0.3142  0.4112
   72GLOH    O3 9187   3.148   7.729   1.241 -0.4764 -0.7367  0.2409
   72GLOH   H01 9188   3.084   7.744   1.313 -1.8937 -3.0108 -0.4829
   73GLOH   H03 9189   3.860   0.907   1.613 -0.5908  1.7550 -0.1488
   73GLOH    O1 9190   3.869   0.916   1.710  0.1840  0.1739 -0.0534
   73GLOH    C1 9191   3.936   0.800   1.773 -0.3688  0.5333 -0.0334
   73GLOH   H02 9192   3.861   0.737   1.822  1.5218 -1.4386  0.4088
   73GLOH   H08 9193   4.000   0.829   1.856 -0.4390  0.2620  0.1162
   73GLOH    C2 9194   4.024   0.722   1.668  0.4413  0.4538  0.5529
   73GLOH   H04 9195   4.100   0.795   1.638  0.1774  0.3201 -0.4773
   73GLOH    O2 9196   4.081   0.602   1.717  0.2046 -0.0969  0.3812
   73GLOH   H05 9197   4.151   0.638   1.775  0.6512 -0.1588 -0.1143
   73GLOH    C3 9198   3.937   0.684   1.549  0.5120 -0.2174  0.4154
   73GLOH   H06 9199   3.845   0.636   1.581 -0.6594  1.3169 -0.6315
   73GLOH   H07 9200   3.988   0.608   1.489 -1.4699  0.2724 -1.9494
   73GLOH    O3 9201   3.914   0.798   1.462 -0.1581  0.5614  0.1481
   73GLOH   H01 9202   3.960   0.791   1.376  1.7109 -0.3359  1.1834
   74GLOH   H03 9203   3.084   7.908   0.611  0.9039 -0.0352 -3.3502
   74GLOH    O1 9204   3.104   8.003   0.601  0.4009  0.3725 -0.9196
   74GLOH    C1 9205   3.203   8.005   0.495  0.1030  0.3810 -0.2584
   74GLOH   H02 9206   3.305   7.985   0.527  0.1388 -1.1906 -1.3120
   74GLOH   H08 9207   3.202   8.098   0.437 -0.5464  0.9607  0.6702
   74GLOH    C2 9208   3.185   7.896   0.391  0.7937 -0.1822 -0.2401
   74GLOH   H04 9209   3.084   7.906   0.348 -0.0233  0.9848  1.9118
   74GLOH    O2 9210   3.287   7.892   0.287  0.3020 -0.5646 -0.1906
   74GLOH   H05 9211   3.273   7.972   0.233  1.1107 -1.0273 -1.0908
   74GLOH    C3 9212   3.189   7.762   0.459 -0.5221  0.3098 -0.2854
   74GLOH   H06 9213   3.294   7.748   0.483 -0.8681  0.2885  1.2616
   74GLOH   H07 9214   3.170   7.686   0.384 -1.8528  0.5871 -0.2457
   74GLOH    O3 9215   3.101   7.756   0.571  0.5896 -0.5655 -0.6261
   74GLOH   H01 9216   3.142   7.694   0.634  1.9616  3.2260  2.3890
   75GLOH   H03 9217   3.743   0.239   1.759  0.3939  1.1380 -1.0864
   75GLOH    O1 9218   3.663   0.291   1.781  0.5322  0.7909  0.2548
   75GLOH    C1 9219   3.648   0.409   1.695 -0.3178  0.6495  0.2737
   75GLOH   H02 9220   3.606   0.370   1.603 -0.2368  2.6506 -0.6221
   75GLOH   H08 9221   3.749   0.446   1.675 -0.3424  1.3089  1.3164
   75GLOH    C2 9222   3.558   0.524   1.745  0.1844 -0.2535 -0.0301
   75GLOH   H04 9223   3.580   0.547   1.850 -1.6196 -0.0263  0.3120
   75GLOH    O2 9224   3.589   0.635   1.660 -0.1023 -0.1386  0.0559
   75GLOH   H05 9225   3.591   0.715   1.716 -0.9877 -1.1605  1.5697
   75GLOH    C3 9226   3.411   0.481   1.747  0.2270  0.0618  0.4301
   75GLOH   H06 9227   3.394   0.462   1.641 -0.0533  1.2825  0.2464
   75GLOH   H07 9228   3.353   0.572   1.765 -0.3976 -0.3179  0.3575
   75GLOH    O3 9229   3.376   0.373   1.838  0.5984 -0.2451  0.1731
   75GLOH   H01 9230   3.372   0.292   1.783  0.0411  0.4226 -0.7984
   76GLOH   H03 9231   3.276   0.860   1.809 -2.8166 -2.5521 -3.4904
   76GLOH    O1 9232   3.211   0.858   1.881  0.0166  0.1700 -0.7018
   76GLOH    C1 9233   3.173   0.717   1.892  0.1349  0.4732 -0.0850
   76GLOH   H02 9234   3.259   0.658   1.922 -0.2338 -0.0883 -0.1118
   76GLOH   H08 9235   3.127   0.690   1.797 -2.0439 -1.7366  1.5195
   76GLOH    C2 9236   3.069   0.685   2.003 -0.4288  0.1275 -0.5307
   76GLOH   H04 9237   2.974   0.737   1.983 -1.6910 -1.6264  0.7718
   76GLOH    O2 9238   3.037   0.541   2.001  0.3513  0.3591 -0.3518
   76GLOH   H05 9239   3.071   0.483   2.072  1.4946  0.5428 -0.7247
   76GLOH    C3 9240   3.115   0.737   2.137  0.1728  0.3768 -0.6778
   76GLOH   H06 9241   3.196   0.669   2.163  0.2621  0.5998 -0.3639
   76GLOH   H07 9242   3.042   0.714   2.214  1.4241 -1.6671 -0.0622
   76GLOH    O3 9243   3.143   0.878   2.130 -0.5742 -0.1160  0.5356
   76GLOH   H01 9244   3.149   0.902   2.036 -0.3618 -0.8005  0.3744
   77GLOH   H03 9245   4.353   0.292   2.239 -2.5706 -0.2165 -2.1895
   77GLOH    O1 9246   4.330   0.221   2.302 -0.3016  0.4389 -0.5364
   77GLOH    C1 9247   4.275   0.108   2.233 -0.9222  0.6991  0.8193
   77GLOH   H02 9248   4.359   0.041   2.217 -1.8819 -0.3159  0.0241
   77GLOH   H08 9249   4.243   0.142   2.135 -1.7879  0.8717  1.1517
   77GLOH    C2 9250   4.157   0.039   2.301 -1.0948 -0.6746 -0.3195
   77GLOH   H04 9251   4.069   0.102   2.279 -0.1380  0.0361 -2.2316
   77GLOH    O2 9252   4.134  -0.087   2.232 -0.3564  0.0595 -0.1094
   77GLOH   H05 9253   4.043  -0.112   2.256 -0.3749  0.4505  0.2229
   77GLOH    C3 9254   4.176   0.024   2.456  0.0330  0.7123  0.3464
   77GLOH   H06 9255   4.259  -0.046   2.464 -0.4928  0.0580  0.1273
   77GLOH   H07 9256   4.091  -0.021   2.507  1.7204 -0.2980  2.3236
   77GLOH    O3 9257   4.197   0.149   2.515 -0.5146 -0.3034 -0.0867
   77GLOH   H01 9258   4.267   0.187   2.458  0.9818 -3.5994 -0.5569
   78GLOH   H03 9259   2.476   9.151   1.392  3.1953  1.0141 -2.5440
   78GLOH    O1 9260   2.511   9.217   1.454 -0.0113  0.2716  0.2300
   78GLOH    C1 9261   2.573   9.327   1.383 -0.2803  0.6403  0.2086
   78GLOH   H02 9262   2.495   9.399   1.358 -0.0465  0.8847  0.1830
   78GLOH   H08 9263   2.601   9.284   1.287  0.6216 -0.4208  0.9285
   78GLOH    C2 9264   2.694   9.388   1.451 -0.1073  0.3500  0.3866
   78GLOH   H04 9265   2.768   9.313   1.482  2.5894  2.4516 -0.7450
   78GLOH    O2 9266   2.764   9.484   1.372  0.0032  1.0819 -0.4591
   78GLOH   H05 9267   2.719   9.570   1.378  0.7846  1.4254  0.5646
   78GLOH    C3 9268   2.642   9.447   1.583 -0.7576  0.0436 -0.2093
   78GLOH   H06 9269   2.610   9.366   1.648  1.1835 -0.6738 -0.1172
   78GLOH   H07 9270   2.550   9.503   1.568 -0.0195  1.2910 -0.1706
   78GLOH    O3 9271   2.743   9.536   1.636  0.0631  0.1492  0.2193
   78GLOH   H01 9272   2.758   9.619   1.586  2.4906  1.6579  3.3156
   79GLOH   H03 9273   4.294   8.992   1.774  0.4036 -0.0228 -0.5346
   79GLOH    O1 9274   4.378   9.041   1.776  0.5308 -0.2708  0.5579
   79GLOH    C1 9275   4.373   9.176   1.710  0.0116 -0.7827 -0.1439
   79GLOH   H02 9276   4.284   9.220   1.754 -0.2556 -0.2637 -1.1689
   79GLOH   H08 9277   4.347   9.172   1.604 -2.8567  0.1304  0.4823
   79GLOH    C2 9278   4.505   9.254   1.735 -0.8473  0.1924  0.4597
   79GLOH   H04 9279   4.590   9.194   1.702 -1.7253 -0.6214 -0.3574
   79GLOH    O2 9280   4.494   9.384   1.670 -0.6483 -0.1824  0.4080
   79GLOH   H05 9281   4.513   9.370   1.576 -0.6697 -0.7243  0.4818
   79GLOH    C3 9282   4.537   9.282   1.883  0.5478 -0.5030  0.1325
   79GLOH   H06 9283   4.476   9.367   1.916 -0.3031 -1.6260  1.4982
   79GLOH   H07 9284   4.637   9.316   1.906 -0.3181  0.1664  3.0692
   79GLOH    O3 9285   4.517   9.163   1.958 -0.0178  0.6225 -0.1629
   79GLOH   H01 9286   4.460   9.101   1.909  0.4541  0.3189 -0.3383
   80GLOH   H03 9287   3.176   8.174   0.147  0.6232 -0.9977 -3.4387
   80GLOH    O1 9288   3.258   8.124   0.162  0.3513 -0.5092  0.1127
   80GLOH    C1 9289   3.377   8.203   0.158 -1.8306 -0.1908 -0.1943
   80GLOH   H02 9290   3.368   8.274   0.240 -0.2546  0.4780 -0.5645
   80GLOH   H08 9291   3.381   8.265   0.068  1.0137 -0.2048 -0.1290
   80GLOH    C2 9292   3.510   8.130   0.189 -0.8763 -0.1695  0.8907
   80GLOH   H04 9293   3.581   8.212   0.203 -0.4281 -0.7569  2.1457
   80GLOH    O2 9294   3.510   8.056   0.316  0.3835 -0.3675  0.5150
   80GLOH   H05 9295   3.452   7.979   0.304  3.1598 -2.1225 -2.5370
   80GLOH    C3 9296   3.555   8.043   0.073 -0.0017  0.1107 -0.7222
   80GLOH   H06 9297   3.481   7.963   0.062  2.3689 -2.3557  0.6359
   80GLOH   H07 9298   3.643   7.984   0.100 -0.3843 -1.4493 -2.7257
   80GLOH    O3 9299   3.575   8.105  -0.051  0.7848 -0.3593  0.3474
   80GLOH   H01 9300   3.547   8.198  -0.054  0.6729 -0.0980  5.4791
   81GLOH   H03 9301   3.078   9.325   0.270 -0.9397  1.0473 -0.8457
   81GLOH    O1 9302   3.051   9.272   0.193  0.0025 -0.2924 -0.2744
   81GLOH    C1 9303   3.081   9.336   0.075  0.3665 -0.7853  0.0149
   81GLOH   H02 9304   3.175   9.391   0.077 -0.4434  0.7162 -1.5263
   81GLOH   H08 9305   3.006   9.413   0.060 -0.2797 -1.9513 -3.0900
   81GLOH    C2 9306   3.080   9.241  -0.048  0.4549  0.2554 -0.9332
   81GLOH   H04 9307   2.975   9.211  -0.061  0.8241 -1.9733  0.8989
   81GLOH    O2 9308   3.126   9.309  -0.168 -0.2833  0.2767 -0.3557
   81GLOH   H05 9309   3.155   9.239  -0.228 -2.7233 -0.4857 -0.7057
   81GLOH    C3 9310   3.157   9.102  -0.020  0.2411  0.5670  0.4293
   81GLOH   H06 9311   3.118   9.056   0.071 -0.9616 -0.0747 -0.3979
   81GLOH   H07 9312   3.262   9.123   0.004  0.1097 -1.2954  2.7560
   81GLOH    O3 9313   3.145   9.013  -0.127 -0.4503  0.0700  0.6710
   81GLOH   H01 9314   3.232   8.983  -0.161 -0.9047  0.2013 -0.6509
   82GLOH   H03 9315   3.179   7.786   1.051 -0.7214  0.9484 -0.7405
   82GLOH    O1 9316   3.208   7.802   0.960  0.1581  0.0247 -0.6312
   82GLOH    C1 9317   3.147   7.919   0.900 -0.3396 -0.1531 -0.4264
   82GLOH   H02 9318   3.046   7.894   0.867  0.1262  0.9277 -2.7707
   82GLOH   H08 9319   3.212   7.946   0.816 -1.3190 -0.7211 -1.3902
   82GLOH    C2 9320   3.143   8.032   1.007  0.3572 -0.4062  0.1258
   82GLOH   H04 9321   3.106   7.995   1.104  0.1625  0.6000  0.4406
   82GLOH    O2 9322   3.281   8.065   1.039 -0.1490 -0.9305 -0.2986
   82GLOH   H05 9323   3.331   8.102   0.965  1.2609 -1.6512  0.2601
   82GLOH    C3 9324   3.058   8.145   0.947 -0.2105 -1.1405  0.5989
   82GLOH   H06 9325   2.955   8.109   0.934 -0.0084 -1.4262 -0.2787
   82GLOH   H07 9326   3.106   8.166   0.851  2.8752 -1.3345  2.0521
   82GLOH    O3 9327   3.058   8.265   1.017  0.4678  0.3517 -0.1758
   82GLOH   H01 9328   3.011   8.337   0.972  1.7325  1.3647  0.0912
   83GLOH   H03 9329   3.931   0.145   1.641  0.9108 -2.6759  0.3290
   83GLOH    O1 9330   3.838   0.124   1.662  0.1036 -0.0322 -0.3044
   83GLOH    C1 9331   3.818  -0.018   1.631  0.3721 -0.2097  0.1648
   83GLOH   H02 9332   3.830  -0.030   1.523  1.4682  0.8904  0.1541
   83GLOH   H08 9333   3.719  -0.045   1.668  0.1994  0.2771  0.0672
   83GLOH    C2 9334   3.915  -0.108   1.704 -0.0011 -0.0898 -0.2671
   83GLOH   H04 9335   4.020  -0.104   1.671  1.3634  0.4822  3.8761
   83GLOH    O2 9336   3.908  -0.065   1.844  0.2307 -0.0384  0.2531
   83GLOH   H05 9337   3.949   0.023   1.850  0.1330  0.1068 -1.0870
   83GLOH    C3 9338   3.888  -0.262   1.699 -0.0244  0.2050  0.0181
   83GLOH   H06 9339   3.811  -0.282   1.774 -0.2445 -0.9605 -0.5093
   83GLOH   H07 9340   3.971  -0.314   1.747  0.1409  0.9088  0.4910
   83GLOH    O3 9341   3.877  -0.313   1.565  0.1245  0.0688  0.1151
   83GLOH   H01 9342   3.890  -0.410   1.566 -0.5766 -0.0237  0.4131
   84GLOH   H03 9343   4.000   9.895   0.407  1.0009  0.1240 -1.1189
   84GLOH    O1 9344   3.993   9.991   0.424  0.6313 -0.1528  0.3763
   84GLOH    C1 9345   3.980  10.010   0.567  0.0523 -1.0902 -0.0024
   84GLOH   H02 9346   4.031   9.937   0.630 -0.3866 -0.2960  1.2970
   84GLOH   H08 9347   3.873  10.012   0.585  0.0508  1.8619 -0.0145
   84GLOH    C2 9348   4.023  10.145   0.627  0.6644  0.3195  0.4006
   84GLOH   H04 9349   4.125  10.169   0.594  1.5851 -1.7822  1.6247
   84GLOH    O2 9350   3.939  10.255   0.577  0.1929 -0.0305 -0.0916
   84GLOH   H05 9351   3.955  10.280   0.484 -2.1260  1.6155 -0.0831
   84GLOH    C3 9352   4.019  10.137   0.779  0.2660  0.0019 -0.0336
   84GLOH   H06 9353   3.922  10.112   0.822 -1.0317  3.2185 -0.9173
   84GLOH   H07 9354   4.058  10.234   0.811  0.2134 -0.2774  0.8985
   84GLOH    O3 9355   4.119  10.048   0.835  0.0277  0.1741  0.1796
   84GLOH   H01 9356   4.203  10.067   0.789  1.1088 -3.3251  0.5727
   85GLOH   H03 9357   4.084   9.508   0.745 -1.0401  1.2957 -0.3909
   85GLOH    O1 9358   4.150   9.567   0.786  0.3358 -0.6758  0.2940
   85GLOH    C1 9359   4.133   9.560   0.929  0.2891  0.5603  0.2048
   85GLOH   H02 9360   4.211   9.615   0.983 -1.9989  3.8503  0.2859
   85GLOH   H08 9361   4.137   9.456   0.963 -0.8150  0.0422 -1.2137
   85GLOH    C2 9362   3.996   9.612   0.977 -0.0372 -0.5086  0.3309
   85GLOH   H04 9363   3.921   9.578   0.904 -1.1901 -0.1744  1.3639
   85GLOH    O2 9364   3.975   9.570   1.114  0.1712  0.5536  0.8632
   85GLOH   H05 9365   3.900   9.508   1.116  0.3120  0.3120 -0.3677
   85GLOH    C3 9366   3.998   9.762   0.972 -0.9969 -0.1123  0.1493
   85GLOH   H06 9367   4.075   9.791   1.043 -2.2566  2.0070  0.6857
   85GLOH   H07 9368   3.909   9.807   1.015  0.9739 -0.4291  4.8750
   85GLOH    O3 9369   4.035   9.815   0.843  0.0810 -0.2206  0.2146
   85GLOH   H01 9370   4.051   9.910   0.854  0.2371 -0.3907  1.6143
   86GLOH   H03 9371   2.861   9.117   2.019 -0.6935 -0.1767  0.8165
   86GLOH    O1 9372   2.868   9.030   1.977 -0.9482  0.1826  0.0240
   86GLOH    C1 9373   2.799   8.949   2.082  0.1601  0.2234 -0.0304
   86GLOH   H02 9374   2.693   8.961   2.060  0.7107  2.8772 -1.3794
   86GLOH   H08 9375   2.815   8.987   2.183  1.2575  0.2867 -0.2250
   86GLOH    C2 9376   2.827   8.797   2.068 -0.3974  0.0535  0.1575
   86GLOH   H04 9377   2.803   8.787   1.961  0.1467  2.0867 -0.1723
   86GLOH    O2 9378   2.963   8.770   2.094 -0.4895 -0.3138 -0.4685
   86GLOH   H05 9379   3.021   8.832   2.047  2.3170 -2.0220  0.6378
   86GLOH    C3 9380   2.724   8.711   2.146 -0.4763  0.1240  0.4982
   86GLOH   H06 9381   2.726   8.737   2.252 -0.4376  0.4426  0.4221
   86GLOH   H07 9382   2.754   8.608   2.132 -0.0465  0.2797  0.2642
   86GLOH    O3 9383   2.591   8.713   2.101 -0.0708 -0.6863  0.5595
   86GLOH   H01 9384   2.596   8.651   2.026 -3.0689  0.2846 -0.5344
   87GLOH   H03 9385   3.022   9.477   0.429  0.0799 -0.9420  1.3308
   87GLOH    O1 9386   3.098   9.432   0.387 -0.0157  0.1237 -0.0343
   87GLOH    C1 9387   3.209   9.523   0.381  0.3721  0.7127 -0.2816
   87GLOH   H02 9388   3.178   9.611   0.324 -0.0227  0.7023 -0.0858
   87GLOH   H08 9389   3.291   9.476   0.327 -0.4471  0.1936 -1.0874
   87GLOH    C2 9390   3.269   9.556   0.517  0.6619  0.3874  0.4984
   87GLOH   H04 9391   3.304   9.464   0.566 -1.5462 -1.4598 -1.2571
   87GLOH    O2 9392   3.377   9.654   0.503 -0.4529 -0.2453 -0.0770
   87GLOH   H05 9393   3.369   9.701   0.588  0.2244  0.9298 -0.6545
   87GLOH    C3 9394   3.165   9.623   0.605  0.2458 -0.0965  0.3292
   87GLOH   H06 9395   3.066   9.577   0.612  0.7096 -1.1764 -0.1317
   87GLOH   H07 9396   3.148   9.719   0.557  0.2758 -0.8178 -1.1585
   87GLOH    O3 9397   3.213   9.641   0.738 -1.3466 -0.2710  0.3305
   87GLOH   H01 9398   3.154   9.707   0.781 -0.3487  1.0420 -0.2804
   88GLOH   H03 9399   4.426   9.533   2.152  1.7832 -1.3996 -0.3554
   88GLOH    O1 9400   4.369   9.461   2.184  0.5889 -0.3091 -0.0023
   88GLOH    C1 9401   4.447   9.350   2.224 -0.3435  0.5702  0.0417
   88GLOH   H02 9402   4.520   9.372   2.302  2.4783 -0.8419 -2.0719
   88GLOH   H08 9403   4.513   9.313   2.144  1.1956  0.0260  1.5295
   88GLOH    C2 9404   4.350   9.238   2.264  0.1355 -0.2894  0.3629
   88GLOH   H04 9405   4.294   9.210   2.173  0.8095  0.4177 -0.2809
   88GLOH    O2 9406   4.421   9.122   2.311  0.0455  0.0941 -0.2072
   88GLOH   H05 9407   4.358   9.057   2.346  0.4702 -1.6974 -2.6289
   88GLOH    C3 9408   4.246   9.283   2.367  0.0791  0.4037  0.2275
   88GLOH   H06 9409   4.301   9.319   2.454  3.1786 -0.8852 -1.1374
   88GLOH   H07 9410   4.188   9.201   2.408  0.6801  0.2694  0.8183
   88GLOH    O3 9411   4.157   9.382   2.313 -0.2946 -0.3113  0.1433
   88GLOH   H01 9412   4.211   9.413   2.238  0.3365  2.9523  1.8355
   89GLOH   H03 9413   3.970   8.215   2.476 -1.8002 -1.0764  0.4038
   89GLOH    O1 9414   3.956   8.277   2.550  0.3427 -0.8279  0.6433
   89GLOH    C1 9415   3.820   8.247   2.587  0.2477  0.0533  0.4747
   89GLOH   H02 9416   3.754   8.318   2.538  0.9541  0.0903 -0.4291
   89GLOH   H08 9417   3.803   8.265   2.693  1.5298  0.6125  0.5861
   89GLOH    C2 9418   3.776   8.110   2.551 -0.1342 -0.5852 -0.3268
   89GLOH   H04 9419   3.845   8.032   2.588 -0.0886 -0.0337  0.7624
   89GLOH    O2 9420   3.635   8.090   2.583  0.4158 -0.0826 -0.0279
   89GLOH   H05 9421   3.616   8.081   2.678 -0.2899 -0.4083 -0.1919
   89GLOH    C3 9422   3.782   8.101   2.397  0.0440 -0.3079  0.3236
   89GLOH   H06 9423   3.705   8.170   2.362  2.8345  1.8497 -1.7414
   89GLOH   H07 9424   3.764   7.998   2.364 -1.4968  0.3321 -0.8947
   89GLOH    O3 9425   3.906   8.139   2.344  0.1983  0.0136 -0.3560
   89GLOH   H01 9426   3.932   8.085   2.268  0.4642  1.8225 -1.5916
   90GLOH   H03 9427   3.278   0.382   0.131  0.3375  1.0469  0.2333
   90GLOH    O1 9428   3.296   0.369   0.226  0.1697  0.6404  0.2094
   90GLOH    C1 9429   3.413   0.455   0.255  0.0866  0.2615  0.4619
   90GLOH   H02 9430   3.496   0.441   0.186 -1.1105  0.0532 -0.9514
   90GLOH   H08 9431   3.458   0.432   0.351 -1.7087  0.0094  1.2633
   90GLOH    C2 9432   3.374   0.603   0.258 -0.4582 -0.5040  0.1134
   90GLOH   H04 9433   3.289   0.622   0.326 -0.0824  0.7163  0.2575
   90GLOH    O2 9434   3.486   0.691   0.287 -0.0100 -0.3211  0.1574
   90GLOH   H05 9435   3.552   0.636   0.334 -1.1261 -0.9573  0.9973
   90GLOH    C3 9436   3.324   0.637   0.111  0.2901  0.1415  0.5156
   90GLOH   H06 9437   3.413   0.621   0.050  0.5132  1.1020  0.5730
   90GLOH   H07 9438   3.309   0.745   0.102 -0.7553 -0.1633 -1.5725
   90GLOH    O3 9439   3.211   0.563   0.059 -0.1487 -0.5003  0.0490
   90GLOH   H01 9440   3.193   0.605  -0.027 -0.8280  0.4689  0.6574
   91GLOH   H03 9441   3.338   9.638   1.301 -0.6962  2.4433 -0.9426
   91GLOH    O1 9442   3.422   9.641   1.250  0.2418  0.0175  0.3556
   91GLOH    C1 9443   3.514   9.715   1.327 -0.1864 -0.2536  0.5671
   91GLOH   H02 9444   3.604   9.654   1.318 -0.7805 -0.8895 -1.1116
   91GLOH   H08 9445   3.497   9.728   1.434  2.1333  1.6482  0.7314
   91GLOH    C2 9446   3.545   9.846   1.267 -0.0822 -0.0434 -0.0123
   91GLOH   H04 9447   3.460   9.916   1.273 -2.1527 -2.5537  1.2006
   91GLOH    O2 9448   3.658   9.901   1.339 -0.0355  0.1699 -0.1591
   91GLOH   H05 9449   3.733   9.839   1.335 -1.2164 -1.1981 -1.3648
   91GLOH    C3 9450   3.576   9.830   1.121  0.5946  0.2442 -0.2778
   91GLOH   H06 9451   3.664   9.768   1.105 -0.7611 -1.9922  0.7419
   91GLOH   H07 9452   3.602   9.930   1.087  0.6148  0.1962 -0.4063
   91GLOH    O3 9453   3.464   9.786   1.046 -0.0609 -0.1156  0.3829
   91GLOH   H01 9454   3.414   9.718   1.095  2.2128 -0.9881  1.5784
   92GLOH   H03 9455   3.421   8.414   2.444  0.3446  0.3629  1.4681
   92GLOH    O1 9456   3.339   8.466   2.431  0.2331 -0.1101  0.2591
   92GLOH    C1 9457   3.256   8.401   2.332  0.4484 -1.0671  0.8941
   92GLOH   H02 9458   3.296   8.433   2.236  3.0891  3.1741  3.2580
   92GLOH   H08 9459   3.159   8.449   2.345  0.6997 -0.5601  0.8995
   92GLOH    C2 9460   3.251   8.248   2.338  0.0687 -0.2893 -0.2995
   92GLOH   H04 9461   3.208   8.224   2.437 -1.1251  0.3034 -0.6693
   92GLOH    O2 9462   3.157   8.206   2.234 -0.5385 -0.2650  0.5040
   92GLOH   H05 9463   3.068   8.205   2.272 -0.5166  1.2716  0.6341
   92GLOH    C3 9464   3.384   8.173   2.339  0.4408 -1.1555 -0.0809
   92GLOH   H06 9465   3.428   8.175   2.239  1.6246 -0.3298  0.4595
   92GLOH   H07 9466   3.369   8.069   2.371  1.1556 -0.9414  0.9801
   92GLOH    O3 9467   3.467   8.240   2.438  0.6141 -0.1520 -0.3597
   92GLOH   H01 9468   3.530   8.173   2.468  1.1072 -0.2113 -1.4838
   93GLOH   H03 9469   2.968   0.594   1.431  1.8018  0.0856  1.6566
   93GLOH    O1 9470   3.037   0.561   1.370  0.2627 -0.2559  0.0461
   93GLOH    C1 9471   3.108   0.442   1.432  0.0057  0.5181  0.0164
   93GLOH   H02 9472   3.050   0.400   1.514 -0.1691  0.6202 -0.0542
   93GLOH   H08 9473   3.205   0.477   1.468  0.4270 -1.4200  0.8384
   93GLOH    C2 9474   3.133   0.321   1.329 -0.1127  0.0294  0.3974
   93GLOH   H04 9475   3.191   0.374   1.252 -0.0243 -0.9916 -0.2511
   93GLOH    O2 9476   3.208   0.214   1.395  0.1772  0.8852 -0.2760
   93GLOH   H05 9477   3.273   0.174   1.335  1.3383  1.4193  0.6000
   93GLOH    C3 9478   3.005   0.263   1.270  0.2763  0.4373 -0.0979
   93GLOH   H06 9479   2.938   0.348   1.256 -0.7785 -0.5322 -1.0407
   93GLOH   H07 9480   2.961   0.189   1.337  1.3730  0.1136  0.2888
   93GLOH    O3 9481   3.028   0.197   1.147  0.8334  0.1634  0.4629
   93GLOH   H01 9482   3.105   0.237   1.104  0.0150  1.4957  0.2318
   94GLOH   H03 9483   4.013   0.617   2.703 -0.2587  0.1162 -0.4549
   94GLOH    O1 9484   4.057   0.683   2.646  0.0838 -0.1777 -0.5397
   94GLOH    C1 9485   4.028   0.813   2.701  0.8958 -0.1425 -0.0015
   94GLOH   H02 9486   3.922   0.837   2.710  0.8561 -0.8704  1.6755
   94GLOH   H08 9487   4.059   0.880   2.620 -1.9440  1.2172 -0.0214
   94GLOH    C2 9488   4.105   0.850   2.823 -0.1537 -0.3901  0.3935
   94GLOH   H04 9489   4.213   0.839   2.812  0.1089  0.2947  2.1107
   94GLOH    O2 9490   4.079   0.987   2.862  0.9846 -0.7526 -0.2081
   94GLOH   H05 9491   4.136   1.018   2.934  0.7849  0.1109 -0.4125
   94GLOH    C3 9492   4.062   0.752   2.931 -0.4743  0.6601  0.2954
   94GLOH   H06 9493   4.113   0.779   3.023  3.1641 -0.8618 -1.1664
   94GLOH   H07 9494   4.088   0.649   2.906 -2.3191 -0.3062  2.2251
   94GLOH    O3 9495   3.911   0.753   2.936  0.8591 -0.0547  0.4393
   94GLOH   H01 9496   3.882   0.835   2.981 -0.3471 -0.0283 -0.3607
   95GLOH   H03 9497   3.904   9.382   2.107  1.5544  0.1969  1.5343
   95GLOH    O1 9498   3.814   9.395   2.144  0.6248 -0.4032 -0.4323
   95GLOH    C1 9499   3.791   9.537   2.164 -1.1645 -0.2642 -0.0532
   95GLOH   H02 9500   3.857   9.596   2.100 -1.4611  0.9780  0.7737
   95GLOH   H08 9501   3.806   9.581   2.262 -0.1452 -1.6236  0.4168
   95GLOH    C2 9502   3.646   9.578   2.139 -0.1034 -0.2879 -0.0098
   95GLOH   H04 9503   3.589   9.529   2.219  2.5997 -2.0170  0.9573
   95GLOH    O2 9504   3.621   9.715   2.156 -0.7114 -0.9222 -0.6013
   95GLOH   H05 9505   3.628   9.774   2.079 -1.5810 -2.0887 -1.5876
   95GLOH    C3 9506   3.585   9.531   2.009  0.0707 -0.5740 -0.1967
   95GLOH   H06 9507   3.633   9.588   1.929  2.1107  0.6146  1.8157
   95GLOH   H07 9508   3.479   9.558   2.010 -0.1535 -1.4737  0.4909
   95GLOH    O3 9509   3.605   9.387   1.993 -0.3417  0.0784  0.0154
   95GLOH   H01 9510   3.670   9.375   2.065 -0.7797 -1.0561  0.2270
   96GLOH   H03 9511   2.946   9.230   0.810  0.2343 -0.6568  1.3885
   96GLOH    O1 9512   2.872   9.277   0.853 -0.1567 -0.0784  0.1193
   96GLOH    C1 9513   2.903   9.410   0.895  0.6711  0.4423  0.8327
   96GLOH   H02 9514   2.919   9.491   0.825 -0.0466  0.0502  0.1997
   96GLOH   H08 9515   2.991   9.414   0.959  1.5424 -0.1022 -0.3173
   96GLOH    C2 9516   2.797   9.457   0.997 -0.5733 -0.4598  0.0058
   96GLOH   H04 9517   2.800   9.389   1.083 -0.4615 -0.9958 -0.4187
   96GLOH    O2 9518   2.810   9.600   1.042  0.1396 -0.3629 -0.2491
   96GLOH   H05 9519   2.883   9.597   1.105 -1.1062 -1.1308  1.2026
   96GLOH    C3 9520   2.659   9.447   0.928  1.2675 -0.6055  0.3415
   96GLOH   H06 9521   2.668   9.503   0.834 -0.7002 -0.8809 -0.0362
   96GLOH   H07 9522   2.580   9.494   0.987  0.0371 -1.0437 -0.9127
   96GLOH    O3 9523   2.638   9.303   0.915  0.2391 -0.1507  0.5182
   96GLOH   H01 9524   2.723   9.274   0.878  1.8627  1.3405  3.0238
   97GLOH   H03 9525   2.846   0.242   2.485  1.0102 -0.4475 -0.1872
   97GLOH    O1 9526   2.846   0.209   2.393  0.2837 -0.4556 -0.1835
   97GLOH    C1 9527   2.915   0.304   2.300  0.4854  0.2344 -0.3683
   97GLOH   H02 9528   2.884   0.408   2.310 -3.3903 -0.8948 -0.1166
   97GLOH   H08 9529   2.881   0.280   2.199 -0.6305  0.5135 -0.0663
   97GLOH    C2 9530   3.070   0.293   2.286 -0.9839 -0.0094  0.2446
   97GLOH   H04 9531   3.078   0.189   2.251  1.5145  0.7128 -1.4768
   97GLOH    O2 9532   3.118   0.387   2.180 -0.0520  0.2623  0.1498
   97GLOH   H05 9533   3.214   0.403   2.170  0.3457 -1.1208  1.5208
   97GLOH    C3 9534   3.146   0.291   2.423  0.0284 -0.8675 -0.1926
   97GLOH   H06 9535   3.120   0.200   2.477  1.9868 -1.9936 -1.0602
   97GLOH   H07 9536   3.108   0.374   2.482  3.2232  1.0953 -0.7438
   97GLOH    O3 9537   3.293   0.277   2.408 -0.2969  0.4772  0.2431
   97GLOH   H01 9538   3.321   0.370   2.409  0.1175  0.3729 -0.7520
   98GLOH   H03 9539   4.313   0.796   2.340 -1.7906 -0.3439 -1.2968
   98GLOH    O1 9540   4.353   0.844   2.265 -0.1793 -0.1129 -0.3016
   98GLOH    C1 9541   4.242   0.892   2.187 -0.5383 -0.3587 -0.1049
   98GLOH   H02 9542   4.208   0.828   2.106 -0.2146 -1.7204  0.8127
   98GLOH   H08 9543   4.275   0.989   2.149  3.1853 -0.4336  2.7048
   98GLOH    C2 9544   4.121   0.925   2.273 -0.6632  0.2370  0.0826
   98GLOH   H04 9545   4.145   1.013   2.336  0.0733 -0.4785  0.8133
   98GLOH    O2 9546   4.003   0.961   2.200 -0.5554  0.2056  0.1926
   98GLOH   H05 9547   4.022   1.004   2.115  0.5881 -0.6305  0.0048
   98GLOH    C3 9548   4.078   0.805   2.359 -0.0364 -0.1475 -0.1000
   98GLOH   H06 9549   4.056   0.721   2.292  1.7054  0.1502 -1.0618
   98GLOH   H07 9550   3.986   0.834   2.411  0.2391 -0.7619  0.7522
   98GLOH    O3 9551   4.181   0.773   2.442 -0.0835  0.4802  1.0019
   98GLOH   H01 9552   4.152   0.734   2.526  1.1350 -0.1527  1.1458
   99GLOH   H03 9553   3.646   9.527   2.766 -0.2687 -0.1843  1.9336
   99GLOH    O1 9554   3.739   9.556   2.767 -0.1822 -0.1782 -0.9496
   99GLOH    C1 9555   3.818   9.506   2.662 -0.9934 -0.7949 -0.4675
   99GLOH   H02 9556   3.783   9.543   2.566  0.1179 -0.8065 -0.8833
   99GLOH   H08 9557   3.808   9.398   2.654 -2.5148 -0.7343  0.3283
   99GLOH    C2 9558   3.972   9.532   2.684  0.0792 -0.8745  0.0318
   99GLOH   H04 9559   3.996   9.638   2.702  2.7650 -1.1645 -1.4720
   99GLOH    O2 9560   4.024   9.473   2.804  0.3475  0.2599 -0.4218
   99GLOH   H05 9561   4.000   9.518   2.887  0.1861 -3.6627  1.7513
   99GLOH    C3 9562   4.063   9.499   2.566 -0.0778 -0.0642  0.2242
   99GLOH   H06 9563   4.066   9.391   2.554  3.8773  0.1012 -1.1490
   99GLOH   H07 9564   4.167   9.522   2.590 -0.6920  1.9300  1.0841
   99GLOH    O3 9565   4.032   9.560   2.441 -0.6897 -0.3568 -0.2325
   99GLOH   H01 9566   4.080   9.511   2.372 -1.1189  0.8378 -1.4083
  100GLOH   H03 9567   3.157   8.272   0.662  0.4389  0.5834 -0.8758
  100GLOH    O1 9568   3.246   8.302   0.688  0.4142  0.1121 -0.2422
  100GLOH    C1 9569   3.292   8.386   0.579  0.0763 -0.4763 -0.2392
  100GLOH   H02 9570   3.231   8.350   0.496  1.7364 -2.3494 -0.6928
  100GLOH   H08 9571   3.390   8.347   0.551  1.8451  1.1896  3.2832
  100GLOH    C2 9572   3.289   8.537   0.603  0.5977  0.2753  0.1199
  100GLOH   H04 9573   3.356   8.567   0.685 -0.0917  3.4322 -0.4221
  100GLOH    O2 9574   3.336   8.616   0.492 -0.1366 -0.3159  0.2799
  100GLOH   H05 9575   3.364   8.702   0.527 -0.4881 -0.3442  0.6380
  100GLOH    C3 9576   3.150   8.579   0.646 -0.0963 -0.2588  0.3797
  100GLOH   H06 9577   3.115   8.515   0.727  1.4446  0.7015  1.8331
  100GLOH   H07 9578   3.091   8.563   0.556  0.4845 -0.9398  0.1165
  100GLOH    O3 9579   3.147   8.715   0.685  0.2276  0.0391 -0.1905
  100GLOH   H01 9580   3.195   8.718   0.770 -0.7336  1.4163  0.3093
  101GLOH   H03 9581   3.814   9.003   2.667  2.0920 -0.8874  2.5181
  101GLOH    O1 9582   3.878   8.981   2.597 -0.0210 -0.3292  0.3444
  101GLOH    C1 9583   4.010   9.011   2.636  0.2842 -0.3936 -0.1720
  101GLOH   H02 9584   4.041   9.107   2.595 -0.3160  0.0544  0.4144
  101GLOH   H08 9585   4.090   8.940   2.614  1.0696  0.2040  0.7377
  101GLOH    C2 9586   4.019   9.014   2.793  0.0185 -0.2637 -0.3757
  101GLOH   H04 9587   3.939   8.951   2.834  1.9988 -2.4440  0.2707
  101GLOH    O2 9588   4.145   8.964   2.846  0.2635 -0.1681  0.3940
  101GLOH   H05 9589   4.197   9.046   2.846 -0.7135  0.4859  2.2599
  101GLOH    C3 9590   3.994   9.157   2.842 -0.6334  0.5409  0.6596
  101GLOH   H06 9591   3.974   9.162   2.949  0.8576 -0.6377  1.0136
  101GLOH   H07 9592   3.900   9.190   2.798 -0.4790 -0.3165 -0.3488
  101GLOH    O3 9593   4.101   9.236   2.799  0.1638 -0.2319  0.6854
  101GLOH   H01 9594   4.056   9.322   2.788 -3.1588 -2.1101 -1.0472
  102GLOH   H03 9595   2.700   8.862   0.964 -0.7011  0.7159  0.1565
  102GLOH    O1 9596   2.748   8.831   1.043 -0.6727 -0.0143 -0.1343
  102GLOH    C1 9597   2.860   8.917   1.052  0.0916 -0.0797  0.8974
  102GLOH   H02 9598   2.841   9.006   0.992 -2.2874 -0.8491  0.4480
  102GLOH   H08 9599   2.948   8.868   1.009  0.6684 -0.5814  2.6079
  102GLOH    C2 9600   2.904   8.960   1.196 -0.0860  0.0841  0.0905
  102GLOH   H04 9601   2.903   8.866   1.254  1.0324  0.6465  1.0474
  102GLOH    O2 9602   3.032   9.018   1.197 -0.6236 -0.1770  0.2056
  102GLOH   H05 9603   3.065   9.047   1.284  0.5428 -1.0698  0.0759
  102GLOH    C3 9604   2.799   9.047   1.270 -0.1657  0.7091  0.2223
  102GLOH   H06 9605   2.780   9.132   1.205  3.5922  2.4250  1.2117
  102GLOH   H07 9606   2.855   9.090   1.354 -0.5975  0.2596  0.7470
  102GLOH    O3 9607   2.681   8.987   1.320 -0.1089  0.8993  0.4065
  102GLOH   H01 9608   2.703   8.895   1.344  1.2511  0.9593 -0.5473
  103GLOH   H03 9609   4.011   8.427   1.937  0.4598  1.8951 -0.2956
  103GLOH    O1 9610   4.078   8.406   1.869  0.2718  0.2283  0.0129
  103GLOH    C1 9611   4.212   8.451   1.902  0.3268 -0.6866  0.2868
  103GLOH   H02 9612   4.218   8.556   1.931  1.4552 -0.9739  1.1292
  103GLOH   H08 9613   4.277   8.432   1.817  0.3440 -0.5928  0.2783
  103GLOH    C2 9614   4.274   8.380   2.024  0.6308  0.5320  0.1944
  103GLOH   H04 9615   4.294   8.279   1.985 -0.5661 -0.0722  1.1300
  103GLOH    O2 9616   4.405   8.442   2.053  0.2599  0.5927 -0.2281
  103GLOH   H05 9617   4.389   8.537   2.067  0.0318  0.3803  0.9765
  103GLOH    C3 9618   4.178   8.388   2.147 -0.3455 -0.0217  0.2207
  103GLOH   H06 9619   4.236   8.355   2.234 -0.6176 -1.3077 -0.0836
  103GLOH   H07 9620   4.089   8.327   2.135  0.6577 -1.5206  0.2486
  103GLOH    O3 9621   4.144   8.525   2.169  0.3486 -0.6711  0.4666
  103GLOH   H01 9622   4.183   8.553   2.254  1.7748 -1.6344  0.1258
  104GLOH   H03 9623   3.398   0.126   0.510  3.7135  1.0144  1.1627
  104GLOH    O1 9624   3.373   0.095   0.599  0.1900 -0.4790 -0.2315
  104GLOH    C1 9625   3.478   0.129   0.685  0.9578 -0.2698 -0.1306
  104GLOH   H02 9626   3.518   0.042   0.736  2.4574 -0.5611 -1.7778
  104GLOH   H08 9627   3.437   0.191   0.765 -1.9352 -2.2159 -0.0324
  104GLOH    C2 9628   3.604   0.188   0.612 -0.1106 -0.6795 -0.7328
  104GLOH   H04 9629   3.591   0.295   0.587  3.7811  0.1335  0.2916
  104GLOH    O2 9630   3.715   0.179   0.700  1.2164 -0.8918 -0.0508
  104GLOH   H05 9631   3.801   0.183   0.655  1.8349 -1.4894  1.0488
  104GLOH    C3 9632   3.635   0.132   0.471  0.3143 -0.5174 -0.4951
  104GLOH   H06 9633   3.680   0.032   0.475  0.4212 -0.5127 -1.5637
  104GLOH   H07 9634   3.717   0.195   0.438  0.1202 -0.2558 -0.4776
  104GLOH    O3 9635   3.526   0.150   0.377  0.3596 -0.3146  0.6527
  104GLOH   H01 9636   3.521   0.079   0.311  2.9640  1.1998 -1.2880
  105GLOH   H03 9637   2.501   8.961   2.306 -0.5914  0.5371  0.4973
  105GLOH    O1 9638   2.554   9.016   2.365 -0.0952  0.0570  0.4998
  105GLOH    C1 9639   2.571   8.943   2.485  0.4914 -0.1694  0.1245
  105GLOH   H02 9640   2.631   8.854   2.464  0.5572 -0.3433  1.0232
  105GLOH   H08 9641   2.472   8.910   2.517  0.6478 -0.3996  0.3811
  105GLOH    C2 9642   2.636   9.016   2.612 -0.2124 -0.1511  0.8114
  105GLOH   H04 9643   2.568   9.101   2.630 -0.7102  0.2803 -2.7762
  105GLOH    O2 9644   2.636   8.923   2.720  0.1485 -0.6875  0.3866
  105GLOH   H05 9645   2.672   8.840   2.685 -2.7102 -1.2223 -1.3771
  105GLOH    C3 9646   2.780   9.050   2.574 -0.5281  0.2257  0.0764
  105GLOH   H06 9647   2.826   9.099   2.660 -0.9206  3.5791 -1.5576
  105GLOH   H07 9648   2.782   9.126   2.496 -1.4799  1.6096  1.3828
  105GLOH    O3 9649   2.848   8.932   2.530  0.2076 -0.1619 -0.0436
  105GLOH   H01 9650   2.852   8.860   2.596  0.3230 -1.0909 -1.0457
  106GLOH   H03 9651   3.720   9.328   0.802  0.9176  0.2309 -0.8255
  106GLOH    O1 9652   3.798   9.301   0.852  0.2932  0.2875  0.1814
  106GLOH    C1 9653   3.755   9.209   0.956  0.2256  0.2000  0.3339
  106GLOH   H02 9654   3.793   9.111   0.928  0.9114  0.2779  0.9865
  106GLOH   H08 9655   3.648   9.205   0.974  0.2535 -0.0227  0.4531
  106GLOH    C2 9656   3.825   9.244   1.084  0.1438 -0.6641 -0.0940
  106GLOH   H04 9657   3.934   9.244   1.072  0.2563 -0.4388  0.8887
  106GLOH    O2 9658   3.787   9.379   1.124  0.0181  0.6654 -0.6364
  106GLOH   H05 9659   3.694   9.395   1.101 -0.4904  0.5203  1.1790
  106GLOH    C3 9660   3.776   9.145   1.191  0.9753 -0.4922  0.1369
  106GLOH   H06 9661   3.671   9.169   1.207  1.0293 -1.4029  1.9933
  106GLOH   H07 9662   3.826   9.155   1.288 -1.1098  0.5108  1.1426
  106GLOH    O3 9663   3.794   9.007   1.148 -0.2461 -0.5491 -0.4250
  106GLOH   H01 9664   3.887   8.993   1.123  0.5382 -1.3743  2.7630
  107GLOH   H03 9665   4.014   8.499   2.129  0.3425 -4.3619 -0.1731
  107GLOH    O1 9666   3.924   8.494   2.093  0.0939  0.4648 -0.5201
  107GLOH    C1 9667   3.834   8.467   2.204 -0.1222 -0.4177 -0.3331
  107GLOH   H02 9668   3.847   8.534   2.288  2.5645  1.4909 -2.1934
  107GLOH   H08 9669   3.856   8.369   2.247  2.6190 -0.8394 -2.5029
  107GLOH    C2 9670   3.688   8.482   2.160  0.3874 -0.7565  0.7574
  107GLOH   H04 9671   3.672   8.586   2.128 -0.7702 -0.4920  2.1447
  107GLOH    O2 9672   3.646   8.389   2.054  0.4090  0.3255 -0.9681
  107GLOH   H05 9673   3.713   8.321   2.035  0.8862 -0.3528  2.7595
  107GLOH    C3 9674   3.594   8.466   2.275  0.4539  0.4165 -0.9148
  107GLOH   H06 9675   3.626   8.383   2.338 -1.5261 -0.3535 -0.8965
  107GLOH   H07 9676   3.494   8.433   2.250  0.9978 -2.6843  0.6884
  107GLOH    O3 9677   3.592   8.582   2.366 -0.9183 -0.1533 -0.4488
  107GLOH   H01 9678   3.548   8.657   2.323 -0.1292 -1.1024 -3.0531
  108GLOH   H03 9679   3.954   8.632   1.990  1.1419  0.4002 -1.2384
  108GLOH    O1 9680   3.951   8.720   1.948 -0.2305  0.8369 -0.2426
  108GLOH    C1 9681   3.953   8.813   2.060  0.3172 -0.8457 -0.1465
  108GLOH   H02 9682   3.999   8.765   2.146 -1.6316 -1.7882  0.4026
  108GLOH   H08 9683   3.854   8.841   2.096  0.4965 -1.7439  1.0752
  108GLOH    C2 9684   4.028   8.944   2.028 -0.2911  0.3214 -0.0761
  108GLOH   H04 9685   4.008   8.975   1.924 -1.2022  1.0092  0.3018
  108GLOH    O2 9686   3.998   9.058   2.111 -0.3897 -0.5010  0.4151
  108GLOH   H05 9687   3.958   9.033   2.195 -1.2095 -2.1211 -0.4395
  108GLOH    C3 9688   4.178   8.920   2.035  0.1476 -0.3517 -0.2250
  108GLOH   H06 9689   4.204   8.931   2.141 -0.0642 -1.4293 -0.0470
  108GLOH   H07 9690   4.230   9.002   1.987  1.9424 -1.1127  0.3636
  108GLOH    O3 9691   4.229   8.800   1.980 -0.6556 -0.2018 -0.6979
  108GLOH   H01 9692   4.195   8.778   1.891 -1.4107  0.7401 -0.6530
  109GLOH   H03 9693   4.285   0.045   1.060  2.5368  1.7882  1.1098
  109GLOH    O1 9694   4.214   0.093   1.108  0.3946 -0.0640 -0.0837
  109GLOH    C1 9695   4.245   0.060   1.245 -0.5143  0.4332  0.1122
  109GLOH   H02 9696   4.256   0.156   1.295  0.6314  0.7627 -0.7763
  109GLOH   H08 9697   4.341   0.011   1.262 -1.1726 -0.5538  1.1300
  109GLOH    C2 9698   4.132  -0.011   1.323  0.3907 -0.2448  0.9509
  109GLOH   H04 9699   4.108  -0.107   1.275 -1.0883  0.6584 -0.1690
  109GLOH    O2 9700   4.153  -0.026   1.461  0.1458 -0.2499 -0.3379
  109GLOH   H05 9701   4.136  -0.117   1.490  0.6141  0.1096  1.1085
  109GLOH    C3 9702   4.006   0.077   1.301  0.5379  0.1097 -0.0313
  109GLOH   H06 9703   4.010   0.170   1.359 -1.0544  0.2415 -0.1061
  109GLOH   H07 9704   3.924   0.017   1.341  1.3412 -0.7837  0.3100
  109GLOH    O3 9705   3.974   0.107   1.167  0.0261 -0.1434  0.4635
  109GLOH   H01 9706   4.055   0.106   1.112  0.5260  0.9670  1.1724
  110GLOH   H03 9707   3.093   0.565   0.742  2.0066  0.9361  1.4119
  110GLOH    O1 9708   3.040   0.557   0.823  0.1683  0.7193  0.2152
  110GLOH    C1 9709   3.106   0.644   0.921 -0.2076 -0.5249 -0.2087
  110GLOH   H02 9710   3.101   0.750   0.898 -0.1341  0.5741  4.3509
  110GLOH   H08 9711   3.213   0.620   0.922  0.2754  1.4978  1.9950
  110GLOH    C2 9712   3.061   0.622   1.062 -0.2373  0.5993 -0.6506
  110GLOH   H04 9713   3.056   0.517   1.091  1.7554  0.9920  1.1878
  110GLOH    O2 9714   3.139   0.703   1.158  0.9045  0.3754  0.2591
  110GLOH   H05 9715   3.109   0.672   1.246  0.3177  1.1460  0.3311
  110GLOH    C3 9716   2.915   0.677   1.068  0.1264 -0.0827 -0.0252
  110GLOH   H06 9717   2.916   0.781   1.035 -1.7415  0.2226  0.8324
  110GLOH   H07 9718   2.865   0.675   1.165 -0.8177 -0.8117 -0.5178
  110GLOH    O3 9719   2.841   0.596   0.978 -0.7644  0.4586 -0.4171
  110GLOH   H01 9720   2.889   0.581   0.894 -1.9691  1.2191 -1.2500
  111GLOH   H03 9721   3.633   0.599   0.523  1.1192  0.9960  0.7224
  111GLOH    O1 9722   3.679   0.595   0.436 -0.3926  0.5840 -0.0766
  111GLOH    C1 9723   3.764   0.483   0.442 -0.0158  0.3951  0.8232
  111GLOH   H02 9724   3.703   0.394   0.432 -0.2906  0.2687  3.3895
  111GLOH   H08 9725   3.831   0.483   0.528 -1.8016 -2.0128  2.2576
  111GLOH    C2 9726   3.864   0.494   0.327 -0.4153 -0.2112 -0.4175
  111GLOH   H04 9727   3.902   0.598   0.323 -2.5150  0.5449 -1.7986
  111GLOH    O2 9728   3.969   0.402   0.367 -0.2123 -0.3552  0.5312
  111GLOH   H05 9729   4.036   0.460   0.407 -0.3158  0.1438 -0.0167
  111GLOH    C3 9730   3.801   0.462   0.190  0.1095 -0.7094 -0.3748
  111GLOH   H06 9731   3.884   0.464   0.119  1.3787  1.5925  1.1425
  111GLOH   H07 9732   3.728   0.540   0.165  0.1623 -0.0843  1.4087
  111GLOH    O3 9733   3.741   0.335   0.178 -0.0531  0.3976  0.0572
  111GLOH   H01 9734   3.792   0.255   0.203 -1.0986 -0.6916 -1.2037
  112GLOH   H03 9735   3.200   8.459   0.022  1.0610 -0.2267  0.8639
  112GLOH    O1 9736   3.247   8.455  -0.064 -0.0561 -0.1367  0.2435
  112GLOH    C1 9737   3.193   8.555  -0.146 -0.2711 -0.2018 -0.9825
  112GLOH   H02 9738   3.118   8.514  -0.213 -1.5793  0.7951 -0.1408
  112GLOH   H08 9739   3.271   8.607  -0.202  1.7116 -0.5671  1.3564
  112GLOH    C2 9740   3.130   8.675  -0.071  0.0073 -0.0159  0.1074
  112GLOH   H04 9741   3.214   8.716  -0.013  1.9506 -2.1226 -1.1191
  112GLOH    O2 9742   3.070   8.774  -0.155 -0.1051  0.4691 -0.1404
  112GLOH   H05 9743   3.079   8.859  -0.109 -1.8672  1.3072 -1.2561
  112GLOH    C3 9744   3.025   8.620   0.028 -0.0553 -0.5316  0.3169
  112GLOH   H06 9745   2.939   8.573  -0.020 -2.2164  3.5956 -0.0608
  112GLOH   H07 9746   2.992   8.700   0.094  0.1576 -1.4533  1.5569
  112GLOH    O3 9747   3.084   8.516   0.114  0.3401 -0.3219 -0.2059
  112GLOH   H01 9748   3.122   8.562   0.191  0.5363 -0.2622 -0.3398
  113GLOH   H03 9749   3.147   8.268   1.660  0.4939 -0.0783  0.3418
  113GLOH    O1 9750   3.091   8.278   1.581  0.9182  0.4180  0.1057
  113GLOH    C1 9751   3.184   8.280   1.466  0.0469 -0.3156 -0.1439
  113GLOH   H02 9752   3.229   8.183   1.446  0.7604 -0.9072  3.8845
  113GLOH   H08 9753   3.256   8.362   1.465 -1.2163  0.8184  0.0227
  113GLOH    C2 9754   3.105   8.307   1.336 -0.2403  0.3000  0.4220
  113GLOH   H04 9755   3.046   8.398   1.356 -1.0262 -0.3848  1.2817
  113GLOH    O2 9756   3.190   8.311   1.219  0.3408  0.9007  0.0153
  113GLOH   H05 9757   3.151   8.285   1.134  2.6607  0.0391 -0.8121
  113GLOH    C3 9758   2.997   8.198   1.325  0.9778 -0.2184  0.0306
  113GLOH   H06 9759   3.055   8.108   1.348 -1.8561 -2.2904 -0.7078
  113GLOH   H07 9760   2.965   8.189   1.222  3.9809  0.1312 -0.9892
  113GLOH    O3 9761   2.894   8.188   1.424  0.1472  0.5935 -0.7129
  113GLOH   H01 9762   2.916   8.151   1.511 -3.5111 -1.4859 -0.5803
  114GLOH   H03 9763   3.602   9.464   2.452  1.0785  1.0589 -1.0371
  114GLOH    O1 9764   3.553   9.516   2.518  0.0241 -0.8471 -0.2625
  114GLOH    C1 9765   3.537   9.651   2.469 -0.1357 -0.7158  0.2558
  114GLOH   H02 9766   3.437   9.658   2.426  1.1164  0.5085 -2.6547
  114GLOH   H08 9767   3.617   9.670   2.397  0.2171  0.3500  0.9144
  114GLOH    C2 9768   3.555   9.765   2.569 -0.1065  0.9389 -0.1543
  114GLOH   H04 9769   3.484   9.752   2.652  0.2213  0.0016 -0.0218
  114GLOH    O2 9770   3.689   9.764   2.622  0.6103  0.4065 -0.2540
  114GLOH   H05 9771   3.704   9.685   2.676 -0.5266  0.5714  0.3132
  114GLOH    C3 9772   3.523   9.901   2.499 -0.6775  0.4788 -0.7057
  114GLOH   H06 9773   3.610   9.920   2.436  0.3655  0.3269  0.6715
  114GLOH   H07 9774   3.522   9.979   2.576  1.4640  0.0815 -0.2490
  114GLOH    O3 9775   3.400   9.909   2.430 -0.1767 -0.7418  0.7970
  114GLOH   H01 9776   3.420   9.991   2.381 -0.8394 -2.4075 -2.3186
  115GLOH   H03 9777   3.216   9.702   1.423  3.1659 -0.4534 -1.4439
  115GLOH    O1 9778   3.195   9.642   1.349 -0.1346 -0.1275 -0.8258
  115GLOH    C1 9779   3.125   9.527   1.409 -0.1051 -0.0304 -0.8533
  115GLOH   H02 9780   3.049   9.564   1.478  0.9862 -1.3985  1.1168
  115GLOH   H08 9781   3.190   9.466   1.471  1.5549  3.3269  0.8929
  115GLOH    C2 9782   3.063   9.422   1.317 -0.1204  0.3781 -0.0254
  115GLOH   H04 9783   3.028   9.337   1.377  3.8350  0.1843  2.2170
  115GLOH    O2 9784   2.971   9.495   1.237 -0.2382 -0.0581  0.1979
  115GLOH   H05 9785   2.891   9.499   1.291 -0.1630  1.0177  0.2255
  115GLOH    C3 9786   3.169   9.362   1.222 -0.1675  0.2246  0.4841
  115GLOH   H06 9787   3.191   9.440   1.149  0.1325 -0.0234  0.3053
  115GLOH   H07 9788   3.129   9.283   1.158 -0.6040  0.6520  0.2308
  115GLOH    O3 9789   3.284   9.325   1.302 -0.3796 -0.2816 -0.5654
  115GLOH   H01 9790   3.360   9.331   1.241 -0.7454 -0.5134 -1.0526
  116GLOH   H03 9791   3.312   0.230   1.534  2.1145  0.2274 -1.1005
  116GLOH    O1 9792   3.365   0.217   1.616  0.1909 -0.6061  0.0387
  116GLOH    C1 9793   3.459   0.104   1.594  0.2892  0.1893 -0.0848
  116GLOH   H02 9794   3.545   0.122   1.659 -0.0562 -1.3576  0.8250
  116GLOH   H08 9795   3.494   0.097   1.491  2.8282  0.5825  0.6986
  116GLOH    C2 9796   3.398  -0.029   1.622  0.2208  0.5871  0.1080
  116GLOH   H04 9797   3.470  -0.109   1.601 -1.2998 -0.3729 -1.5385
  116GLOH    O2 9798   3.353  -0.031   1.758 -0.3798  0.0667 -0.8402
  116GLOH   H05 9799   3.425  -0.010   1.820 -0.4737 -0.7919 -0.4369
  116GLOH    C3 9800   3.281  -0.078   1.532  0.1563  0.3324 -0.0335
  116GLOH   H06 9801   3.296  -0.055   1.427  0.3766  3.2629  0.6177
  116GLOH   H07 9802   3.200  -0.014   1.566 -1.4978 -1.6195 -0.2088
  116GLOH    O3 9803   3.253  -0.221   1.550  0.4504 -0.7300  0.8355
  116GLOH   H01 9804   3.177  -0.232   1.611 -1.6464 -0.7103 -1.7130
  117GLOH   H03 9805   3.494   9.271   1.878 -0.6112 -0.3402  1.8542
  117GLOH    O1 9806   3.474   9.196   1.818  0.0841  0.4619  0.6096
  117GLOH    C1 9807   3.446   9.077   1.890 -0.1331 -0.5762 -0.7328
  117GLOH   H02 9808   3.394   9.013   1.818  0.3470 -2.3014  0.4092
  117GLOH   H08 9809   3.378   9.096   1.973 -0.8117  0.7983 -1.5908
  117GLOH    C2 9810   3.571   8.997   1.931 -0.4319  0.1810 -0.2782
  117GLOH   H04 9811   3.631   9.059   1.999  0.5940  2.3679 -3.0601
  117GLOH    O2 9812   3.534   8.881   2.007 -0.4502 -0.1131 -0.5163
  117GLOH   H05 9813   3.534   8.802   1.950  2.2446 -1.0443  0.6783
  117GLOH    C3 9814   3.664   8.962   1.814 -0.1979  0.0027  0.1858
  117GLOH   H06 9815   3.597   8.927   1.735 -1.0340  1.3087  0.3071
  117GLOH   H07 9816   3.721   8.872   1.837  0.1838  0.4528  1.0053
  117GLOH    O3 9817   3.741   9.071   1.758  0.7644 -0.7365 -0.2763
  117GLOH   H01 9818   3.684   9.106   1.688  1.8174  0.0107 -0.7642
  118GLOH   H03 9819   3.971   9.666   0.172 -0.6859 -0.4617 -0.4831
  118GLOH    O1 9820   4.000   9.573   0.171  0.7241 -0.0324 -0.8392
  118GLOH    C1 9821   4.133   9.568   0.216  0.0049 -0.1825  0.9731
  118GLOH   H02 9822   4.194   9.545   0.128  0.1394 -2.3578  1.6014
  118GLOH   H08 9823   4.143   9.477   0.275  2.5046  0.5466  1.7323
  118GLOH    C2 9824   4.190   9.684   0.299  1.2140  0.0978 -0.4230
  118GLOH   H04 9825   4.293   9.649   0.315  1.3237  0.6266  0.0202
  118GLOH    O2 9826   4.194   9.809   0.223 -0.2797 -0.1914  0.0019
  118GLOH   H05 9827   4.108   9.831   0.184 -1.6579 -1.3514  2.2600
  118GLOH    C3 9828   4.103   9.706   0.428 -0.1566  0.3947 -0.7919
  118GLOH   H06 9829   4.157   9.781   0.485 -0.6477  0.8446 -0.9206
  118GLOH   H07 9830   4.107   9.612   0.484  0.9795 -0.0077 -1.5106
  118GLOH    O3 9831   3.970   9.738   0.395  0.1346  0.3212 -0.4316
  118GLOH   H01 9832   3.907   9.667   0.416 -2.4819  2.5748 -0.4462
  119GLOH   H03 9833   3.855   0.725   0.852  1.3038 -0.3892  0.0596
  119GLOH    O1 9834   3.870   0.821   0.855  0.1630 -0.1844 -0.2867
  119GLOH    C1 9835   3.805   0.877   0.743  0.5946  0.6395 -1.0721
  119GLOH   H02 9836   3.814   0.985   0.753 -1.7526  0.9233 -1.8056
  119GLOH   H08 9837   3.697   0.863   0.740  0.5492  0.5340  0.7349
  119GLOH    C2 9838   3.864   0.849   0.603  0.0608 -0.0940 -0.1299
  119GLOH   H04 9839   3.852   0.744   0.572  0.3605 -0.9366  2.4363
  119GLOH    O2 9840   3.807   0.932   0.504  0.3904  0.3153 -0.2626
  119GLOH   H05 9841   3.710   0.925   0.505  0.3644  0.7747  0.5953
  119GLOH    C3 9842   4.010   0.880   0.594  0.0681 -0.6423 -0.7105
  119GLOH   H06 9843   4.026   0.987   0.609  0.9834 -1.2311  3.2065
  119GLOH   H07 9844   4.049   0.860   0.495  2.8483  2.6372 -0.3810
  119GLOH    O3 9845   4.083   0.807   0.697  0.7481  0.3766  0.5247
  119GLOH   H01 9846   4.018   0.821   0.769  1.0055 -1.5019  1.1462
  120GLOH   H03 9847   4.536   0.266   0.480 -0.2254  0.1714  0.7440
  120GLOH    O1 9848   4.447   0.226   0.485 -0.0188 -0.4112 -0.2680
  120GLOH    C1 9849   4.459   0.107   0.406  1.2202 -0.1601  0.4778
  120GLOH   H02 9850   4.563   0.075   0.418  1.2318 -0.4275 -0.3270
  120GLOH   H08 9851   4.455   0.132   0.300  0.1158 -0.2731  0.4931
  120GLOH    C2 9852   4.365  -0.004   0.457  0.3772 -0.3807 -0.3713
  120GLOH   H04 9853   4.262   0.020   0.428  0.3673  2.0000  1.4825
  120GLOH    O2 9854   4.403  -0.129   0.392  0.2754  0.1156 -0.3256
  120GLOH   H05 9855   4.350  -0.147   0.313  0.7508 -2.2034 -0.1640
  120GLOH    C3 9856   4.372  -0.029   0.612  0.6530  0.4149 -0.3034
  120GLOH   H06 9857   4.472  -0.068   0.632  0.2398 -0.8917 -0.7104
  120GLOH   H07 9858   4.299  -0.103   0.644  2.1259 -0.6355  0.7331
  120GLOH    O3 9859   4.348   0.096   0.677 -0.1825  0.2299  0.4158
  120GLOH   H01 9860   4.379   0.160   0.611 -0.5644  0.7042  0.6936
  121ACOH    H4 9861   2.533   9.859   0.859  0.8722 -0.3084  0.1251
  121ACOH    O2 9862   2.438   9.840   0.864  0.6568  0.6657 -0.0436
  121ACOH    C2 9863   2.397   9.791   0.983  0.3081 -0.0541 -0.0672
  121ACOH    O1 9864   2.461   9.795   1.088  0.1880 -0.3061  0.4922
  121ACOH    C1 9865   2.267   9.727   0.966  0.1407 -0.6047 -0.0880
  121ACOH    H1 9866   2.256   9.654   1.047 -1.0087  1.2708  1.4836
  121ACOH    H2 9867   2.270   9.670   0.874 -1.3738 -2.2114  0.8130
  121ACOH    H3 9868   2.190   9.804   0.975 -0.8772 -1.8342  2.3544
  122ACOH    H4 9869   4.698   0.560   0.631 -0.4487  0.1072 -2.1165
  122ACOH    O2 9870   4.788   0.535   0.605  0.0990 -0.5673  0.3352
  122ACOH    C2 9871   4.776   0.423   0.533 -0.4243 -0.4042  0.2058
  122ACOH    O1 9872   4.674   0.378   0.482 -0.1242 -0.4211  0.0762
  122ACOH    C1 9873   4.905   0.372   0.486  0.9695 -0.6291  0.8058
  122ACOH    H1 9874   4.889   0.304   0.402 -0.8381  1.4632 -0.6040
  122ACOH    H2 9875   4.951   0.308   0.562 -0.9732 -0.7987  1.8774
  122ACOH    H3 9876   4.966   0.458   0.458 -3.3326  2.1839 -0.4100
  123ACOH    H4 9877   2.962   8.447   2.303 -0.0131 -0.1308  0.1513
  123ACOH    O2 9878   2.937   8.363   2.344 -0.6117  0.2351  0.5315
  123ACOH    C2 9879   2.863   8.399   2.446 -0.2213  0.0407 -0.2294
  123ACOH    O1 9880   2.833   8.515   2.476 -0.0448 -0.7734  0.0009
  123ACOH    C1 9881   2.814   8.278   2.518 -0.4863  0.4481  0.7918
  123ACOH    H1 9882   2.751   8.306   2.603 -1.4063 -0.2279  0.3269
  123ACOH    H2 9883   2.894   8.234   2.578 -1.4046  2.9469  4.0729
  123ACOH    H3 9884   2.765   8.202   2.458  2.0975 -1.0107  0.4576
  124ACOH    H4 9885   2.681   9.005   2.878 -1.4759  1.3607  0.0616
  124ACOH    O2 9886   2.725   9.063   2.943 -1.1621  0.4169  0.6980
  124ACOH    C2 9887   2.640   9.069   3.045 -0.2276 -0.1812  0.0130
  124ACOH    O1 9888   2.522   9.049   3.056  0.0188 -0.2209  0.2510
  124ACOH    C1 9889   2.701   9.152   3.152  0.3829 -0.2691  0.3501
  124ACOH    H1 9890   2.667   9.121   3.251  1.5353  0.5254  1.0150
  124ACOH    H2 9891   2.678   9.255   3.124  0.2299 -0.2936  0.3832
  124ACOH    H3 9892   2.809   9.141   3.151  0.4818  0.6685  0.3593
  125ACOH    H4 9893   3.858   7.922   0.856  0.4002 -0.1543  2.1834
  125ACOH    O2 9894   3.768   7.896   0.882 -0.1791 -0.2978  0.1160
  125ACOH    C2 9895   3.758   7.897   1.019 -0.0122  0.3619  0.1831
  125ACOH    O1 9896   3.837   7.956   1.093 -0.1628  0.5172  0.1496
  125ACOH    C1 9897   3.616   7.887   1.053 -0.7227  0.0914 -0.2337
  125ACOH    H1 9898   3.561   7.819   0.987  1.2394 -1.0146 -0.7747
  125ACOH    H2 9899   3.568   7.984   1.044  1.7508  1.5891  1.9237
  125ACOH    H3 9900   3.609   7.862   1.158 -0.3087  0.2588 -0.1644
  126ACOH    H4 9901   5.088   0.154   0.590 -0.5701 -2.1912 -1.4715
  126ACOH    O2 9902   5.182   0.143   0.568  0.1956  0.4469  0.1836
  126ACOH    C2 9903   5.256   0.220   0.649  0.2865  0.4271 -0.1265
  126ACOH    O1 9904   5.210   0.302   0.725 -0.0271 -0.2007  0.0360
  126ACOH    C1 9905   5.399   0.220   0.595 -0.2902 -0.0093 -0.3495
  126ACOH    H1 9906   5.412   0.162   0.504 -0.2175  0.2846 -0.5276
  126ACOH    H2 9907   5.463   0.194   0.679 -0.5217  0.4738 -0.0197
  126ACOH    H3 9908   5.427   0.323   0.572 -1.2213  0.4159  0.3798
  127ACOH    H4 9909   4.058   0.721   1.218 -0.4769  0.3396  1.2521
  127ACOH    O2 9910   4.034   0.812   1.196 -0.7184  0.0451  0.2540
  127ACOH    C2 9911   4.089   0.849   1.083 -0.3077  0.0854 -0.6687
  127ACOH    O1 9912   4.157   0.771   1.012  0.3592  0.2461  0.1288
  127ACOH    C1 9913   4.070   0.994   1.052 -0.7068 -0.2174 -0.0835
  127ACOH    H1 9914   3.985   1.042   1.100  0.2163 -0.8264  2.2165
  127ACOH    H2 9915   4.041   0.996   0.947 -1.2501  1.2019  0.0721
  127ACOH    H3 9916   4.160   1.056   1.061 -1.3548  0.5542  1.2859
  128ACOH    H4 9917   2.771   0.109   1.907 -0.1733 -1.7285  3.3862
  128ACOH    O2 9918   2.681   0.143   1.923 -0.0671  0.0470  0.4906
  128ACOH    C2 9919   2.677   0.258   1.854 -0.4906 -0.4512 -0.0432
  128ACOH    O1 9920   2.771   0.302   1.791  0.8042 -0.2298  0.3780
  128ACOH    C1 9921   2.548   0.329   1.866  0.0836  0.2705 -0.4557
  128ACOH    H1 9922   2.471   0.262   1.828 -0.5639  0.9296 -0.3205
  128ACOH    H2 9923   2.552   0.424   1.812  0.2510 -1.0393 -2.8061
  128ACOH    H3 9924   2.540   0.359   1.971 -1.9849 -1.2731 -0.1502
  129ACOH    H4 9925   4.211   0.881   0.769 -1.0590  1.2920  1.0081
  129ACOH    O2 9926   4.294   0.910   0.812 -0.3161 -0.5504  0.8295
  129ACOH    C2 9927   4.308   1.031   0.758  0.3557  1.2532  0.2793
  129ACOH    O1 9928   4.265   1.069   0.648  0.4206  0.0281  0.2988
  129ACOH    C1 9929   4.398   1.122   0.834 -0.2748  0.3043  0.0192
  129ACOH    H1 9930   4.342   1.167   0.917 -0.2010  1.0060 -0.3099
  129ACOH    H2 9931   4.427   1.206   0.772 -0.7010  1.6624  1.6129
  129ACOH    H3 9932   4.474   1.056   0.875 -3.6668 -2.5089  2.0050
  130ACOH    H4 9933   2.887   9.935   1.502 -4.2786  1.1719 -0.0916
  130ACOH    O2 9934   2.905   9.928   1.407  0.4712  0.3999  0.7678
  130ACOH    C2 9935   2.802   9.842   1.375  0.1247 -0.5303 -0.1836
  130ACOH    O1 9936   2.758   9.746   1.438  0.4361  0.0054 -0.3198
  130ACOH    C1 9937   2.769   9.846   1.233  0.0539 -1.0949  0.7018
  130ACOH    H1 9938   2.777   9.946   1.191 -0.2941 -1.0281  0.7884
  130ACOH    H2 9939   2.667   9.811   1.219 -0.1745  0.7761 -3.0143
  130ACOH    H3 9940   2.840   9.781   1.183  1.2185  0.2771  0.5448
  131ACOH    H4 9941   2.937   9.847   0.255 -0.1807  0.5820  1.0317
  131ACOH    O2 9942   2.873   9.874   0.323 -0.8370  0.7304  0.3609
  131ACOH    C2 9943   2.839   9.763   0.389 -0.3244  0.4094 -0.0194
  131ACOH    O1 9944   2.913   9.664   0.395 -0.1226 -0.5071  0.5472
  131ACOH    C1 9945   2.747   9.786   0.506 -0.6255  0.4210  0.2245
  131ACOH    H1 9946   2.674   9.861   0.476  0.4702  1.1378 -0.6672
  131ACOH    H2 9947   2.798   9.804   0.601  2.8362 -0.7316 -1.3526
  131ACOH    H3 9948   2.693   9.692   0.512 -0.8951  0.3125 -3.2129
  132ACOH    H4 9949   4.819   9.892   0.802 -1.9600  0.8267  0.4744
  132ACOH    O2 9950   4.773   9.855   0.724 -0.7112 -0.2988  0.2462
  132ACOH    C2 9951   4.844   9.900   0.618  0.3986  0.7957  0.2647
  132ACOH    O1 9952   4.942   9.973   0.612 -0.7040 -0.0388 -0.3816
  132ACOH    C1 9953   4.780   9.846   0.499 -0.0059  0.3116  0.8043
  132ACOH    H1 9954   4.836   9.762   0.459 -0.0329 -0.0909  1.6038
  132ACOH    H2 9955   4.780   9.922   0.421  0.2838  0.0977  0.5941
  132ACOH    H3 9956   4.677   9.814   0.514  0.2145 -0.7258  0.1405
  133ACOH    H4 9957   4.270   9.554   0.687  0.3883  0.5622  0.0461
  133ACOH    O2 9958   4.347   9.539   0.630  0.2534  0.6316 -0.1597
  133ACOH    C2 9959   4.460   9.552   0.692 -0.4315  0.4838  0.6345
  133ACOH    O1 9960   4.480   9.545   0.812 -0.2941 -0.6417 -0.5352
  133ACOH    C1 9961   4.573   9.548   0.592 -0.3082  0.6829  0.8998
  133ACOH    H1 9962   4.560   9.474   0.512  3.3873  1.8154 -0.8418
  133ACOH    H2 9963   4.666   9.533   0.646  0.8266  2.5578 -0.4691
  133ACOH    H3 9964   4.574   9.650   0.553 -1.8475  1.2286  2.2091
  134SOL     OW 9965   3.021   8.253   0.136  0.1400 -0.1729  0.4701
  134SOL    HW1 9966   2.926   8.223   0.138  0.7527 -2.3420 -1.2898
  134SOL    HW2 9967   3.024   8.353   0.138 -2.3472  0.0738 -3.3119
  135SOL     OW 9968   3.614   0.715   1.399 -0.6803 -0.2816 -0.0205
  135SOL    HW1 9969   3.604   0.673   1.490 -4.2917 -1.5959 -0.9434
  135SOL    HW2 9970   3.685   0.784   1.402 -0.5331 -0.4997  3.7564
  136SOL     OW 9971   2.830   0.097   0.979  0.1206  0.1273 -0.1608
  136SOL    HW1 9972   2.808   0.190   0.948 -0.0917 -0.3493 -1.4646
  136SOL    HW2 9973   2.923   0.096   1.016 -0.3923  1.1730  1.2456
  137SOL     OW 9974   3.184   7.589   0.743  0.4362  0.3722 -0.1648
  137SOL    HW1 9975   3.183   7.651   0.821  2.5188  0.0118  0.1694
  137SOL    HW2 9976   3.248   7.515   0.760 -0.7627 -0.9560 -1.2902
  138SOL     OW 9977   3.779   8.198   1.918  0.3514  0.1170 -0.1638
  138SOL    HW1 9978   3.818   8.250   1.842  0.6827 -0.1465 -0.1747
  138SOL    HW2 9979   3.699   8.147   1.887  0.3396  0.2038 -0.2767
  139SOL     OW 9980   2.865   0.010   1.660  0.7814  0.2020 -0.1140
  139SOL    HW1 9981   2.792   0.050   1.604  2.1542  2.7465 -0.1257
  139SOL    HW2 9982   2.873   0.060   1.746  0.6984 -1.8079  1.1125
  140SOL     OW 9983   3.207   0.151   0.009  0.5778 -0.3334 -0.2807
  140SOL    HW1 9984   3.162   0.111  -0.071 -1.7845 -0.1956  0.9420
  140SOL    HW2 9985   3.259   0.080   0.056  1.2249 -0.6231 -1.3992
  141SOL     OW 9986   2.635   0.515   1.165  0.4992 -0.5279 -0.1697
  141SOL    HW1 9987   2.545   0.495   1.128 -0.0302 -0.2195  0.9124
  141SOL    HW2 9988   2.699   0.534   1.091 -0.5652  0.2338 -0.9062
  142SOL     OW 9989   4.129   0.512   0.933  0.4793  0.6117 -0.5496
  142SOL    HW1 9990   4.075   0.457   0.996  0.1314  1.3890 -0.1575
  142SOL    HW2 9991   4.153   0.599   0.977  1.6957  0.4448 -0.8693
  143SOL     OW 9992   2.749   0.370   1.420 -0.2072 -0.7426  0.2695
  143SOL    HW1 9993   2.730   0.433   1.345 -1.4826 -0.7701  0.5422
  143SOL    HW2 9994   2.802   0.417   1.491  2.2427 -1.1361 -1.2583
  144SOL     OW 9995   3.698   9.913   2.004  0.2879  0.3197  0.0433
  144SOL    HW1 9996   3.781   9.926   1.949  1.0646 -1.5456  0.7451
  144SOL    HW2 9997   3.623   9.965   1.963  1.0634 -0.3391 -2.2897
  145SOL     OW 9998   3.561   0.520   0.905  0.5695 -0.1611  0.0994
  145SOL    HW1 9999   3.502   0.514   0.986  0.8448  0.4330  0.3485
  145SOL    HW210000   3.630   0.448   0.909 -0.7789 -1.5260 -0.7259
  146SOL     OW10001   3.087   9.822   0.867  0.4250  0.2630  0.2654
  146SOL    HW110002   3.085   9.922   0.865 -0.5916  0.3666  3.1655
  146SOL    HW210003   3.111   9.791   0.959 -0.1760 -2.1606 -0.3555
  147SOL     OW10004   3.375   0.639   1.336 -0.1490  0.3922 -0.3174
  147SOL    HW110005   3.302   0.697   1.300 -1.4307 -1.9286 -1.6046
  147SOL    HW210006   3.460   0.691   1.342 -1.8090  3.0548  0.9165
  148SOL     OW10007   3.846   9.485   0.420 -0.3792  0.8091  0.7896
  148SOL    HW110008   3.887   9.513   0.333  0.1380  1.1533  1.1399
  148SOL    HW210009   3.768   9.426   0.402 -0.4378  1.0911  0.0803
  149SOL     OW10010   4.299   0.451   1.339  0.8446  0.0416  0.0260
  149SOL    HW110011   4.344   0.397   1.267  0.4407  0.5350 -0.6009
  149SOL    HW210012   4.369   0.489   1.400  1.2901  0.8293 -0.9632
  150SOL     OW10013   2.447   8.906   2.163 -0.0816  0.2036  0.4677
  150SOL    HW110014   2.445   8.980   2.096 -1.6102  0.1897  0.4725
  150SOL    HW210015   2.498   8.829   2.126  0.1544  0.6656 -0.1822
  151SOL     OW10016   4.076   0.561   1.236  0.2637  0.1424  0.3181
  151SOL    HW110017   4.154   0.530   1.290 -0.2277 -0.4948  0.6816
  151SOL    HW210018   3.994   0.510   1.264 -0.8919  2.8039  2.0012
  152SOL     OW10019   3.721   9.197   0.551 -0.0134  0.7177 -0.1171
  152SOL    HW110020   3.647   9.161   0.608 -0.0153  0.8353 -0.0443
  152SOL    HW210021   3.684   9.253   0.478 -0.0304  0.2895 -0.4385
  153SOL     OW10022   3.158   0.334   0.949 -0.5784  0.2328 -0.2024
  153SOL    HW110023   3.142   0.256   0.888  0.2272 -0.7354  0.7956
  153SOL    HW210024   3.126   0.418   0.905  0.8373 -0.3127 -2.3485
  154SOL     OW10025   3.513   9.406   1.133 -0.3008 -0.2473 -0.5142
  154SOL    HW110026   3.497   9.491   1.183 -2.3805 -0.4437 -0.7933
  154SOL    HW210027   3.474   9.413   1.041 -0.6088 -1.5440 -0.4952
  155SOL     OW10028   3.917   9.790   2.391  0.6464  1.1140  0.0496
  155SOL    HW110029   3.831   9.778   2.441  1.3110 -2.1754  0.5124
  155SOL    HW210030   3.976   9.712   2.407  3.5558  3.0857 -0.6997
  156SOL     OW10031   3.667   0.279   0.960 -0.0381  0.2642 -0.0181
  156SOL    HW110032   3.663   0.234   0.871 -0.3492 -0.4907  0.3729
  156SOL    HW210033   3.676   0.210   1.032 -0.4941  0.8263  0.5880
  157SOL     OW10034   2.687   9.053   1.596  0.0611 -0.3446  0.0762
  157SOL    HW110035   2.611   8.988   1.601 -0.1479 -0.0968  0.1334
  157SOL    HW210036   2.663   9.128   1.535  0.7906 -0.9604 -0.9847
  158SOL     OW10037   3.262   8.985   1.062 -0.4337  0.5228 -0.5950
  158SOL    HW110038   3.241   8.911   0.999  0.9221 -1.6105  1.3804
  158SOL    HW210039   3.182   9.006   1.118 -0.5707 -0.0925 -0.5572
  159SOL     OW10040   3.623   0.859   1.813  0.2635 -0.3535  0.0733
  159SOL    HW110041   3.620   0.880   1.911  0.6825 -2.5564  0.5735
  159SOL    HW210042   3.701   0.905   1.771  0.3388  0.2376  0.8587
  160SOL     OW10043   3.439   9.740   1.819 -0.2561 -0.3036 -0.0181
  160SOL    HW110044   3.524   9.722   1.770  1.1600 -0.6775  2.4686
  160SOL    HW210045   3.390   9.815   1.775  2.0819  0.9141 -0.6508
  161SOL     OW10046   2.718   0.018   2.224 -0.3925 -0.2706 -0.2123
  161SOL    HW110047   2.656   0.039   2.148 -0.9519 -0.2645  0.2445
  161SOL    HW210048   2.733   0.099   2.279  2.0329  0.3714 -1.7604
  162SOL     OW10049   1.472   0.500   0.285  0.4129  0.0293 -0.0648
  162SOL    HW110050   1.417   0.480   0.204  1.2021  1.6390 -1.0240
  162SOL    HW210051   1.427   0.573   0.338  0.4181 -0.3191  0.4263
  163SOL     OW10052   2.856   9.804   2.143 -0.1541  0.3411  0.0643
  163SOL    HW110053   2.942   9.848   2.116  1.1101 -1.7135  0.6329
  163SOL    HW210054   2.802   9.867   2.198  1.4865  1.2942  0.6094
  164SOL     OW10055   2.529   8.799   0.428 -0.0631  0.0676 -0.2202
  164SOL    HW110056   2.468   8.878   0.430  1.1214  0.9703  1.2110
  164SOL    HW210057   2.624   8.830   0.422  0.3647 -1.2690 -0.6056
  165SOL     OW10058   3.227   9.714   1.984  0.0114 -0.1384 -0.9024
  165SOL    HW110059   3.255   9.665   2.067 -0.8185 -0.0232 -0.5561
  165SOL    HW210060   3.302   9.711   1.918  1.0952  0.7278  0.2712
  166SOL     OW10061   3.177   8.606   1.131 -0.7042 -0.2571 -0.8104
  166SOL    HW110062   3.221   8.518   1.148  1.6529  1.1812  0.9057
  166SOL    HW210063   3.112   8.626   1.204  0.3424  0.3310 -0.0031
  167SOL     OW10064   3.269   9.202   0.913  0.1195  0.0426  0.0873
  167SOL    HW110065   3.274   9.112   0.957 -0.9363  0.2858  0.7293
  167SOL    HW210066   3.187   9.207   0.856  0.5516  0.3532 -0.5130
  168SOL     OW10067   3.529   8.978   1.015 -0.3896 -0.0996  0.1931
  168SOL    HW110068   3.447   8.997   1.069 -1.1469 -1.7806 -0.3214
  168SOL    HW210069   3.610   9.001   1.069 -1.1676  0.0151  1.3434
  169SOL     OW10070   3.113   9.698   1.107  0.0533  0.4213 -0.1620
  169SOL    HW110071   3.099   9.775   1.170 -0.4059  0.1977  0.0150
  169SOL    HW210072   3.133   9.616   1.159 -0.2374  0.2539 -0.3123
  170SOL     OW10073   3.842   0.934   0.244  0.3093 -0.4452 -0.5557
  170SOL    HW110074   3.745   0.927   0.224  0.2638  0.7285 -0.8321
  170SOL    HW210075   3.856   0.935   0.344 -0.1064  0.8845 -0.4976
  171SOL     OW10076   4.031   8.605   2.876 -0.1571  0.1033  0.3321
  171SOL    HW110077   4.068   8.540   2.809 -0.1261  0.6808 -0.2176
  171SOL    HW210078   4.007   8.690   2.830  1.5396  1.1661  1.3446
  172SOL     OW10079   3.720   9.010   1.498  0.5393 -0.2103 -0.0248
  172SOL    HW110080   3.630   9.047   1.475  1.5550  0.8444 -2.3680
  172SOL    HW210081   3.733   8.923   1.450  0.1717 -1.1769  1.5648
  173SOL     OW10082   7.967   5.347   1.300  0.3093  0.0623  0.6485
  173SOL    HW110083   7.886   5.403   1.285  2.1137  2.8398  0.9022
  173SOL    HW210084   7.951   5.255   1.265 -1.7328  1.5160 -2.4790
  174SOL     OW10085   2.864   0.682   1.509  0.4481  0.5260  0.2247
  174SOL    HW110086   2.859   0.782   1.508 -0.7702  0.4640 -0.6454
  174SOL    HW210087   2.882   0.651   1.603  1.3176  1.5714  0.4190
  175SOL     OW10088   3.368   0.842   1.663 -0.1761 -0.0739  0.3832
  175SOL    HW110089   3.378   0.794   1.576  1.3610 -1.9526  1.5570
  175SOL    HW210090   3.455   0.886   1.686 -0.1060 -0.9258  1.7389
  176SOL     OW10091   3.355   9.471   0.898  0.7024 -0.7426  0.5296
  176SOL    HW110092   3.305   9.550   0.863  1.4886  0.0211  1.0874
  176SOL    HW210093   3.296   9.390   0.897 -0.2720 -0.0372  0.4078
  177SOL     OW10094   3.470   9.513   2.773  0.3538 -0.2272 -0.1147
  177SOL    HW110095   3.473   9.501   2.674 -0.5026 -0.2850 -0.1378
  177SOL    HW210096   3.378   9.544   2.800  0.3462 -0.9696  0.7376
  178SOL     OW10097   4.197   1.087   0.188  0.0144  0.6222  0.6855
  178SOL    HW110098   4.196   1.182   0.157 -0.6814  0.7647  1.1297
  178SOL    HW210099   4.140   1.079   0.270  2.4151  0.4117  2.3878
  179SOL     OW10100   2.896   8.962   1.732  0.5070  0.2545  0.0668
  179SOL    HW110101   2.879   9.009   1.819  0.6984  0.6384 -0.0999
  179SOL    HW210102   2.818   8.975   1.671 -1.6118 -3.7540  1.7735
  180SOL     OW10103   3.401   8.530   0.182 -0.2095  0.7757  0.5043
  180SOL    HW110104   3.445   8.480   0.256  0.6780  2.2274  0.9903
  180SOL    HW210105   3.466   8.543   0.107  1.0301  4.8979  2.1428
  181SOL     OW10106   3.527   8.633   1.883  0.0641 -0.5387  0.3521
  181SOL    HW110107   3.599   8.572   1.915 -0.3886 -2.1908 -1.6946
  181SOL    HW210108   3.440   8.583   1.880 -0.4388  0.3837 -0.7998
  182SOL     OW10109   3.134   9.115   1.728  0.6059  0.4402 -0.1321
  182SOL    HW110110   3.132   9.195   1.788 -1.3647 -0.9460  1.7482
  182SOL    HW210111   3.041   9.080   1.716  0.8953  0.9515 -4.4512
  183SOL     OW10112   2.813   8.727   2.671  0.0837  0.2414  0.0309
  183SOL    HW110113   2.903   8.716   2.713 -0.9989 -0.5065  2.2263
  183SOL    HW210114   2.787   8.643   2.625  0.0992  0.1101  0.2575
  184SOL     OW10115   4.186   8.303   1.125 -0.5066 -0.8737  0.0905
  184SOL    HW110116   4.098   8.282   1.168 -0.6479  0.2743  0.3783
  184SOL    HW210117   4.249   8.339   1.194 -1.4999  3.2664 -1.0370
  185SOL     OW10118   3.908   1.178   2.298 -0.3628  0.6933  0.1500
  185SOL    HW110119   3.940   1.094   2.254 -0.8907  0.9064 -0.6680
  185SOL    HW210120   3.809   1.183   2.291 -0.4201  0.8929  1.0989
  186SOL     OW10121   2.533   9.151   2.009  0.4141  0.0052 -0.1224
  186SOL    HW110122   2.612   9.140   1.949  1.2931 -2.0196  1.3695
  186SOL    HW210123   2.542   9.237   2.059  0.6909  0.7179 -1.3585
  187SOL     OW10124   3.833   1.072   2.827 -0.3838 -0.5656  0.4435
  187SOL    HW110125   3.786   1.068   2.916  1.2556 -2.1458  1.2654
  187SOL    HW210126   3.922   1.027   2.834  0.4669  0.7274 -1.5972
  188SOL     OW10127   3.204   9.197   0.506  0.1736  0.0044 -0.0243
  188SOL    HW110128   3.195   9.272   0.441  1.4497 -0.6043 -0.9334
  188SOL    HW210129   3.257   9.123   0.464  1.0267 -0.3915  1.7015
  189SOL     OW10130   3.463   9.086   1.428 -0.4105 -0.4741  0.3557
  189SOL    HW110131   3.406   9.106   1.348  1.1700  0.9038 -0.4813
  189SOL    HW210132   3.439   9.148   1.503  0.6066  0.7910 -0.3301
  190SOL     OW10133   2.960   0.099   1.905 -0.0111 -0.6181 -0.1461
  190SOL    HW110134   3.020   0.055   1.972 -0.1149  0.9719  1.0339
  190SOL    HW210135   2.996   0.190   1.883 -1.7352  0.1722  0.2347
  191SOL     OW10136   4.450   8.470   2.459  0.4335 -0.5968  0.1335
  191SOL    HW110137   4.500   8.482   2.373  0.5181 -0.6775  0.1713
  191SOL    HW210138   4.489   8.393   2.510  2.1450  1.1731  1.5302
  192SOL     OW10139   4.267   8.933   2.393  0.0010  0.6015  0.8233
  192SOL    HW110140   4.170   8.908   2.383 -0.1448  1.4401  0.0067
  192SOL    HW210141   4.313   8.866   2.450 -1.0657  0.1797  1.2051
  193SOL     OW10142   3.612   0.926   0.110  0.3261  0.0799 -0.4700
  193SOL    HW110143   3.606   0.903   0.013 -0.2589  0.1825 -0.4608
  193SOL    HW210144   3.537   0.884   0.159  1.7251 -1.5970  0.2790
  194SOL     OW10145   3.545   9.099   0.754 -0.0523  0.2535  0.0878
  194SOL    HW110146   3.531   9.043   0.835 -3.2005 -0.5262 -0.9223
  194SOL    HW210147   3.554   9.195   0.781 -1.6857  0.0753  1.3655
  195SOL     OW10148   2.669   8.736   1.370  0.3948 -0.2429  0.3430
  195SOL    HW110149   2.658   8.667   1.442  1.8751 -1.1753 -0.2974
  195SOL    HW210150   2.658   8.693   1.281 -0.9793  0.8244 -0.0076
  196SOL     OW10151   2.683   9.865   0.861  0.0822 -0.1254 -0.3536
  196SOL    HW110152   2.720   9.953   0.890 -1.0431  0.2112  0.0853
  196SOL    HW210153   2.736   9.791   0.902  1.3155  0.3380 -1.0850
  197SOL     OW10154   4.445   0.347   1.134 -0.4413 -0.5399 -0.2581
  197SOL    HW110155   4.392   0.347   1.049 -0.8107  0.6474 -0.0349
  197SOL    HW210156   4.537   0.383   1.116 -0.1538 -1.3346 -0.3775
  198SOL     OW10157   2.409   8.753   0.150 -0.3358 -0.2941 -0.0128
  198SOL    HW110158   2.412   8.847   0.118 -0.6873 -0.0770  0.5851
  198SOL    HW210159   2.452   8.747   0.240  0.9087 -0.9503 -0.6325
  199SOL     OW10160   3.134   9.128   1.441  0.0976  0.1586 -0.2254
  199SOL    HW110161   3.162   9.116   1.537 -0.6145  0.4400  0.0256
  199SOL    HW210162   3.189   9.199   1.399  3.3949 -2.8682 -1.3101
  200SOL     OW10163   3.216   8.743   0.915  0.0167 -0.1354  0.5173
  200SOL    HW110164   3.315   8.755   0.918 -0.0101 -0.1294  1.5369
  200SOL    HW210165   3.187   8.682   0.989 -0.6496 -0.8150 -0.2938
  201SOL     OW10166   3.188   9.849   2.315  0.0717 -0.2571  0.2136
  201SOL    HW110167   3.257   9.896   2.370 -0.3011  1.3741 -0.6684
  201SOL    HW210168   3.221   9.757   2.291  2.2087  0.6958 -0.6759
  202SOL     OW10169   3.530   0.931   0.469 -0.4120  0.1482  0.0077
  202SOL    HW110170   3.444   0.946   0.518 -0.4180 -0.0545  0.0597
  202SOL    HW210171   3.515   0.864   0.397  0.0393 -0.9417  0.9243
  203SOL     OW10172   2.423   9.995   1.473  0.5649  0.8966 -0.5367
  203SOL    HW110173   2.490   9.925   1.450  0.0377  0.9955 -2.4542
  203SOL    HW210174   2.331   9.954   1.476  0.5160  1.0732  0.5200
  204SOL     OW10175   3.408   0.177   1.220  0.0560  0.4325  0.0032
  204SOL    HW110176   3.500   0.169   1.259 -0.4752 -0.2671  1.1159
  204SOL    HW210177   3.395   0.270   1.185  0.9148  0.7512  0.5149
  205SOL     OW10178   3.352   9.612   2.210  0.3839 -0.8649 -0.5840
  205SOL    HW110179   3.428   9.676   2.226 -0.4275  0.1594 -0.8005
  205SOL    HW210180   3.387   9.518   2.216  1.4292 -0.4294  0.5192
  206SOL     OW10181   3.168   0.995   2.371 -0.1375  0.4625 -0.0861
  206SOL    HW110182   3.267   1.011   2.371 -0.1068  0.2861 -0.5192
  206SOL    HW210183   3.138   0.974   2.278 -0.6266  0.7793 -0.0004
  207SOL     OW10184   3.227   9.575   1.717 -0.1211  0.4930 -0.2747
  207SOL    HW110185   3.317   9.613   1.737  1.2791 -1.8205 -1.9518
  207SOL    HW210186   3.160   9.649   1.714  1.7091  2.2624  0.8963
  208SOL     OW10187   3.067   9.138   0.745 -0.5370  0.6373 -0.1714
  208SOL    HW110188   3.027   9.049   0.724 -1.8792  0.6116  2.2543
  208SOL    HW210189   3.104   9.179   0.662 -1.0123 -1.6322 -1.5398
  209SOL     OW10190   4.652   9.673   1.777 -0.4694 -0.7633  0.3232
  209SOL    HW110191   4.751   9.672   1.765 -0.1871  1.6978  2.0951
  209SOL    HW210192   4.610   9.720   1.699 -0.0569  0.0318  0.5702
  210SOL     OW10193   4.557   9.819   1.515  1.1904 -0.0611  0.1675
  210SOL    HW110194   4.510   9.740   1.475 -3.4248  2.7470 -0.3777
  210SOL    HW210195   4.617   9.860   1.447 -1.5395  0.7517 -1.8620
  211SOL     OW10196   3.314   0.013   1.012 -0.1536 -0.0854  0.1261
  211SOL    HW110197   3.343  -0.079   1.038 -2.9650 -0.9259  0.4314
  211SOL    HW210198   3.333   0.076   1.087 -0.2040 -0.8203  0.7694
  212SOL     OW10199   3.497   9.456   0.135 -0.4123 -0.2477 -0.0691
  212SOL    HW110200   3.490   9.470   0.037  2.0071  0.8966 -0.1134
  212SOL    HW210201   3.497   9.545   0.182 -0.1006 -0.7236  0.8530
  213SOL     OW10202   2.874   8.038   1.866  0.2667 -0.0966  0.2031
  213SOL    HW110203   2.961   8.078   1.897 -0.4658  1.7951 -0.1185
  213SOL    HW210204   2.823   8.003   1.944  0.6716  0.1138  0.5646
  214SOL     OW10205   3.356   9.331   1.613  0.1657 -0.2896  0.5986
  214SOL    HW110206   3.316   9.406   1.665 -0.6155  0.2293 -0.7130
  214SOL    HW210207   3.394   9.263   1.675  0.0794  0.7611  1.8137
  215SOL     OW10208   3.053   0.378   2.853 -0.8991  0.3758  0.2697
  215SOL    HW110209   3.120   0.451   2.863 -0.6898  0.2571 -0.2366
  215SOL    HW210210   3.098   0.289   2.864 -0.9703  0.2960 -0.0585
  216SOL     OW10211   4.238   7.838   0.954  0.3717 -0.0064  0.3892
  216SOL    HW110212   4.258   7.936   0.963  0.1807  0.0296  0.4174
  216SOL    HW210213   4.271   7.805   0.865  0.5190  0.0635  0.4182
  217SOL     OW10214   3.108   0.642   2.708 -0.0316  0.3684  0.9402
  217SOL    HW110215   3.014   0.610   2.699  0.5665 -1.3801  0.5732
  217SOL    HW210216   3.138   0.682   2.621  0.9507 -3.1135 -0.4479
  218SOL     OW10217   3.162   8.922   1.974  0.7791 -0.0092  0.6853
  218SOL    HW110218   3.156   9.003   2.032 -0.2185 -0.1269  0.7463
  218SOL    HW210219   3.185   8.949   1.881 -1.2766  0.4965  0.3170
  219SOL     OW10220   3.347   0.476   1.070  0.3478  0.1062 -0.3622
  219SOL    HW110221   3.275   0.436   1.014  2.1349 -0.0171 -2.7005
  219SOL    HW210222   3.310   0.549   1.127 -2.2408 -2.3115  1.1524
  220SOL     OW10223   3.787   9.989   2.267 -0.2948 -0.4885 -0.1347
  220SOL    HW110224   3.830   9.906   2.302 -0.6959 -2.5236 -4.1789
  220SOL    HW210225   3.729   9.967   2.189  1.3108  3.8093 -2.7731
  221SOL     OW10226   2.891   7.943   1.582  0.0657  0.0406 -0.1915
  221SOL    HW110227   2.817   7.980   1.527  0.1125 -1.4297 -1.2893
  221SOL    HW210228   2.869   7.952   1.679 -1.1789  0.3625 -0.4989
  222SOL     OW10229   3.937   8.035   2.075  0.3483 -0.5598 -0.3061
  222SOL    HW110230   3.870   8.092   2.027  0.2280  0.3665  0.9236
  222SOL    HW210231   3.989   7.981   2.009 -1.2338 -0.8803 -1.3253
  223SOL     OW10232   4.428   9.620   1.359  0.5113 -0.3060  0.0708
  223SOL    HW110233   4.404   9.618   1.262  0.4879  0.8164  0.0474
  223SOL    HW210234   4.392   9.538   1.404 -0.5204 -0.2487 -0.6359
  224SOL     OW10235   2.658   8.623   0.017 -0.4975  0.0402 -0.1186
  224SOL    HW110236   2.572   8.673   0.021 -1.8208 -2.0142 -1.9558
  224SOL    HW210237   2.699   8.632  -0.074  0.6008 -0.0607  0.3469
  225SOL     OW10238   3.026   9.746   1.672 -0.5171 -0.1688 -0.1901
  225SOL    HW110239   2.985   9.666   1.715  0.1415  0.2676  1.3036
  225SOL    HW210240   2.977   9.828   1.701  0.4773  0.2137  0.4509
  226SOL     OW10241   3.994   9.376   0.677  0.3479 -0.6139 -0.2854
  226SOL    HW110242   3.949   9.400   0.591  0.6742 -3.5551 -1.3164
  226SOL    HW210243   3.924   9.367   0.749 -0.3334 -1.5019 -1.0379
  227SOL     OW10244   3.180   0.100   0.798 -0.1370 -0.3777 -0.4753
  227SOL    HW110245   3.235   0.102   0.715  0.2762 -0.7736 -0.2149
  227SOL    HW210246   3.226   0.044   0.867  0.3068  1.2314  0.5649
  228SOL     OW10247   2.577   9.270   2.258  0.0977  0.2983  0.0316
  228SOL    HW110248   2.530   9.191   2.298 -0.6794  0.8685  0.2605
  228SOL    HW210249   2.640   9.309   2.325 -1.1567  1.2159  0.6986
  229SOL     OW10250   3.711   0.636   2.803 -0.2028 -0.0268  0.3464
  229SOL    HW110251   3.675   0.545   2.827 -0.0002 -1.1375 -3.2812
  229SOL    HW210252   3.780   0.663   2.870  1.0859 -3.3875  0.4642
  230SOL     OW10253   3.398   0.546   2.359  0.0256  0.0838 -0.2926
  230SOL    HW110254   3.476   0.567   2.300 -0.3940  0.1013 -0.8587
  230SOL    HW210255   3.367   0.629   2.405 -0.9187  0.4931 -1.6387
  231SOL     OW10256   2.682   0.112   1.476  0.2965  0.1563  0.0573
  231SOL    HW110257   2.584   0.097   1.462  0.4127  0.6909 -1.4662
  231SOL    HW210258   2.703   0.209   1.466  1.1043 -0.0690 -0.4841
  232SOL     OW10259   3.108   9.951   2.064  0.4545  0.8059 -1.0524
  232SOL    HW110260   3.138   9.862   2.028 -1.5028 -0.1721 -0.3170
  232SOL    HW210261   3.139   9.961   2.158 -1.2921 -0.1209 -0.3582
  233SOL     OW10262   4.639   9.050   2.178 -0.5713 -0.6738 -0.5117
  233SOL    HW110263   4.624   9.105   2.096 -0.2674 -0.7188 -0.5985
  233SOL    HW210264   4.561   9.060   2.240 -0.2055  0.4122 -0.2146
  234SOL     OW10265   3.249   9.871   0.285 -0.0528 -0.0743 -0.4589
  234SOL    HW110266   3.243   9.936   0.361  1.0461 -1.5866  0.9650
  234SOL    HW210267   3.338   9.880   0.240  0.4379 -1.1068  0.2640
  235SOL     OW10268   9.674   4.354   0.363 -0.2329 -0.4213 -0.3743
  235SOL    HW110269   9.604   4.416   0.397  0.3750  1.0987 -1.8383
  235SOL    HW210270   9.673   4.353   0.263  1.3615 -0.9156 -0.4089
  236SOL     OW10271   2.879   0.254   2.652 -0.2487  0.3796 -0.4104
  236SOL    HW110272   2.902   0.322   2.721  0.0163  0.9525 -1.0620
  236SOL    HW210273   2.825   0.181   2.694  2.1198 -0.6203  0.9736
  237SOL     OW10274   3.848   0.539   0.777 -0.4361  0.0628  0.0403
  237SOL    HW110275   3.943   0.512   0.793 -0.3695  1.3809  2.0972
  237SOL    HW210276   3.791   0.458   0.767  0.2572 -0.8722  3.0236
  238SOL     OW10277   4.540   0.131   1.303  0.7109  0.3682 -0.0656
  238SOL    HW110278   4.519   0.135   1.400  0.5388 -0.0065 -0.0850
  238SOL    HW210279   4.490   0.203   1.255 -1.3312 -1.1179 -0.2492
  239SOL     OW10280   2.973   9.973   2.465 -0.4932  0.1258  0.8375
  239SOL    HW110281   3.032   9.947   2.388 -0.3871  0.2169  0.8889
  239SOL    HW210282   2.893  10.021   2.430 -0.1505  0.6932  0.8356
  240SOL     OW10283   4.194   9.696   1.521 -0.3058  0.1042  0.1812
  240SOL    HW110284   4.198   9.697   1.621  1.5444 -1.9862  0.1666
  240SOL    HW210285   4.285   9.676   1.484 -0.8356  1.4643 -1.9457
  241SOL     OW10286   3.130   9.932   1.252  0.1904 -0.1331  0.0380
  241SOL    HW110287   3.065   9.938   1.327  1.1143  0.6099  0.7961
  241SOL    HW210288   3.128  10.017   1.200  0.9971  0.1371  0.4426
  242SOL     OW10289   3.944   9.034   0.583  0.3767 -0.2975  0.6882
  242SOL    HW110290   4.015   9.099   0.612  1.5582 -1.4849  0.4852
  242SOL    HW210291   3.855   9.080   0.585  0.9260  0.7258  2.5182
  243SOL     OW10292   3.006   8.233   0.602 -0.4290  0.0707  0.3172
  243SOL    HW110293   2.964   8.265   0.517 -1.5389 -1.7703  0.1378
  243SOL    HW210294   3.029   8.136   0.593 -0.1145 -0.0128  1.9474
  244SOL     OW10295   3.878   9.743   1.302  0.6080  0.1341 -0.2469
  244SOL    HW110296   3.900   9.715   1.395  2.2512 -0.1409 -0.6908
  244SOL    HW210297   3.941   9.698   1.238  0.2204  1.1845 -1.3874
  245SOL     OW10298   2.911   0.537   1.732 -0.5635  0.5228  0.1392
  245SOL    HW110299   2.881   0.443   1.747  3.6460 -1.0985 -0.9058
  245SOL    HW210300   2.957   0.571   1.814 -0.1941  0.8811 -0.2125
  246SOL     OW10301   2.796   8.435   1.337  0.2407 -0.6863  0.7277
  246SOL    HW110302   2.778   8.478   1.248  0.1963 -0.7193  0.7206
  246SOL    HW210303   2.797   8.336   1.326  1.1677 -0.6649  0.5898
  247SOL     OW10304   3.839   1.026   2.569 -0.4559 -0.2683  0.4661
  247SOL    HW110305   3.828   1.069   2.658 -0.5844 -0.4454  0.5366
  247SOL    HW210306   3.935   1.028   2.542  0.0843 -2.9490  2.0038
  248SOL     OW10307   3.098   8.159   1.965 -0.0823 -0.4205  0.2205
  248SOL    HW110308   3.146   8.213   1.896 -0.9366  0.5579  0.3826
  248SOL    HW210309   3.149   8.161   2.051  0.0478 -0.1237  0.1366
  10.00000  10.00000   2.88200
